Protein in INSANE! Membrane UpperLeaflet>POPC=1.0 LowerLeaflet>POPC=1.0
241526
   81AUC    AUC    1  49.398  25.309   7.502
   82AUC    AUC    2  49.644  25.309   7.350
   83AUC    AUC    3  49.644  25.309   7.653
   84AUC    AUC    4  49.153  25.309   7.350
   85AUC    AUC    5  49.153  25.309   7.653
   86AUC    AUC    6  49.246  25.554   7.502
   87AUC    AUC    7  49.550  25.554   7.502
   88AUC    AUC    8  49.246  25.063   7.502
   89AUC    AUC    9  49.550  25.063   7.502
   90AUC    AUC   10  49.398  25.157   7.747
   91AUC    AUC   11  49.398  25.460   7.747
   92AUC    AUC   12  49.398  25.157   7.256
   93AUC    AUC   13  49.398  25.460   7.256
   94AUC    AUC   14  49.889  25.309   7.198
   95AUC    AUC   15  49.889  25.309   7.502
   96AUC    AUC   16  49.889  25.309   7.805
   97AUC    AUC   17  48.907  25.309   7.198
   98AUC    AUC   18  48.907  25.309   7.502
   99AUC    AUC   19  48.907  25.309   7.805
  100AUC    AUC   20  49.095  25.799   7.502
  101AUC    AUC   21  49.398  25.799   7.502
  102AUC    AUC   22  49.701  25.799   7.502
  103AUC    AUC   23  49.095  24.818   7.502
  104AUC    AUC   24  49.398  24.818   7.502
  105AUC    AUC   25  49.701  24.818   7.502
  106AUC    AUC   26  49.398  25.005   7.992
  107AUC    AUC   27  49.398  25.309   7.992
  108AUC    AUC   28  49.398  25.612   7.992
  109AUC    AUC   29  49.398  25.005   7.011
  110AUC    AUC   30  49.398  25.309   7.011
  111AUC    AUC   31  49.398  25.612   7.011
  112AUC    AUC   32  49.644  25.157   7.899
  113AUC    AUC   33  49.644  25.460   7.899
  114AUC    AUC   34  49.644  25.157   7.105
  115AUC    AUC   35  49.644  25.460   7.105
  116AUC    AUC   36  49.153  25.157   7.899
  117AUC    AUC   37  49.153  25.460   7.899
  118AUC    AUC   38  49.153  25.157   7.105
  119AUC    AUC   39  49.153  25.460   7.105
  120AUC    AUC   40  49.795  25.554   7.350
  121AUC    AUC   41  49.795  25.554   7.653
  122AUC    AUC   42  49.001  25.554   7.350
  123AUC    AUC   43  49.001  25.554   7.653
  124AUC    AUC   44  49.795  25.063   7.350
  125AUC    AUC   45  49.795  25.063   7.653
  126AUC    AUC   46  49.001  25.063   7.350
  127AUC    AUC   47  49.001  25.063   7.653
  128AUC    AUC   48  49.246  25.706   7.747
  129AUC    AUC   49  49.550  25.706   7.747
  130AUC    AUC   50  49.246  24.911   7.747
  131AUC    AUC   51  49.550  24.911   7.747
  132AUC    AUC   52  49.246  25.706   7.256
  133AUC    AUC   53  49.550  25.706   7.256
  134AUC    AUC   54  49.246  24.911   7.256
  135AUC    AUC   55  49.550  24.911   7.256
  136AUSL   AUS   56  49.807  25.309   8.082
  137AUSL   AUS   57  49.663  24.892   8.012
  138AUL    AUL   58  49.889  25.005   8.296
  139THSLK    S   59  49.777  24.704   8.156
  140ETHY    C1   60  49.843  24.319   8.391
  141ETHY    C1   61  49.986  23.911   8.710
  142ETHY    C1   62  50.195  23.575   9.066
  143ETHY    C1   63  50.461  23.317   9.450
  144ETHY    C1   64  50.777  23.141   9.855
  145THSLK    S   65  49.903  25.259   8.326
  146ETHY    C1   66  50.119  25.073   8.681
  147ETHY    C1   67  50.394  24.938   9.124
  148ETHY    C1   68  50.675  24.908   9.575
  149ETHY    C1   69  50.953  24.977  10.025
  150ETHY    C1   70  51.222  25.145  10.466
  151AUSL   AUS   71  49.562  25.157   8.175
  152AUSL   AUS   72  49.235  25.460   8.175
  153AUL    AUL   73  49.398  25.309   8.483
  154THSLK    S   74  49.640  25.104   8.417
  155ETHY    C1   75  49.717  24.854   8.790
  156ETHY    C1   76  49.833  24.637   9.269
  157ETHY    C1   77  49.970  24.521   9.769
  158ETHY    C1   78  50.120  24.503  10.281
  159ETHY    C1   79  50.279  24.584  10.794
  160THSLK    S   80  49.148  25.417   8.431
  161ETHY    C1   81  49.066  25.305   8.864
  162ETHY    C1   82  48.952  25.259   9.388
  163ETHY    C1   83  48.820  25.317   9.901
  164ETHY    C1   84  48.669  25.470  10.389
  165ETHY    C1   85  48.503  25.714  10.844
  166AUSL   AUS   86  49.562  25.460   8.175
  167AUSL   AUS   87  49.908  25.573   7.918
  168AUL    AUL   88  49.889  25.612   8.296
  169THSLK    S   89  49.649  25.514   8.414
  170ETHY    C1   90  49.730  25.765   8.786
  171ETHY    C1   91  49.844  25.981   9.265
  172ETHY    C1   92  49.977  26.097   9.767
  173ETHY    C1   93  50.127  26.115  10.279
  174ETHY    C1   94  50.293  26.035  10.789
  175THSLK    S   95  50.082  25.675   8.080
  176ETHY    C1   96  50.446  25.685   8.354
  177ETHY    C1   97  50.862  25.787   8.680
  178ETHY    C1   98  51.242  25.986   8.995
  179ETHY    C1   99  51.577  26.273   9.296
  180ETHY    C1  100  51.858  26.641   9.577
  181AUSL   AUS  101  49.807  25.309   6.922
  182AUSL   AUS  102  49.663  25.725   6.992
  183AUL    AUL  103  49.889  25.612   6.707
  184THSLK    S  104  49.910  25.259   6.681
  185ETHY    C1  105  50.131  25.073   6.329
  186ETHY    C1  106  50.404  24.938   5.885
  187ETHY    C1  107  50.682  24.908   5.432
  188ETHY    C1  108  50.960  24.977   4.982
  189ETHY    C1  109  51.234  25.145   4.545
  190THSLK    S  110  49.841  25.840   6.825
  191ETHY    C1  111  50.129  25.945   6.488
  192ETHY    C1  112  50.429  26.149   6.090
  193ETHY    C1  113  50.672  26.437   5.714
  194ETHY    C1  114  50.856  26.801   5.371
  195ETHY    C1  115  50.980  27.232   5.065
  196AUSL   AUS  116  49.562  25.157   6.828
  197AUSL   AUS  117  49.908  25.044   7.085
  198AUL    AUL  118  49.889  25.005   6.707
  199THSLK    S  119  50.045  24.852   6.944
  200ETHY    C1  120  50.253  24.509   6.729
  201ETHY    C1  121  50.554  24.167   6.442
  202ETHY    C1  122  50.905  23.914   6.133
  203ETHY    C1  123  51.299  23.752   5.812
  204ETHY    C1  124  51.728  23.681   5.486
  205THSLK    S  125  49.649  25.103   6.590
  206ETHY    C1  126  49.730  24.852   6.217
  207ETHY    C1  127  49.844  24.636   5.738
  208ETHY    C1  128  49.977  24.520   5.236
  209ETHY    C1  129  50.127  24.502   4.725
  210ETHY    C1  130  50.293  24.582   4.214
  211AUSL   AUS  131  49.562  25.460   6.828
  212AUSL   AUS  132  49.235  25.157   6.828
  213AUL    AUL  133  49.398  25.309   6.520
  214THSLK    S  134  49.140  25.103   6.592
  215ETHY    C1  135  49.003  24.855   6.235
  216ETHY    C1  136  48.843  24.641   5.767
  217ETHY    C1  137  48.696  24.526   5.269
  218ETHY    C1  138  48.569  24.507   4.751
  219ETHY    C1  139  48.464  24.583   4.224
  220THSLK    S  140  49.665  25.418   6.578
  221ETHY    C1  141  49.806  25.303   6.160
  222ETHY    C1  142  49.964  25.256   5.647
  223ETHY    C1  143  50.107  25.312   5.138
  224ETHY    C1  144  50.235  25.466   4.643
  225ETHY    C1  145  50.346  25.714   4.174
  226AUSL   AUS  146  48.989  25.309   8.082
  227AUSL   AUS  147  49.133  25.725   8.012
  228AUL    AUL  148  48.907  25.612   8.296
  229THSLK    S  149  48.886  25.259   8.322
  230ETHY    C1  150  48.665  25.073   8.674
  231ETHY    C1  151  48.392  24.938   9.118
  232ETHY    C1  152  48.115  24.908   9.571
  233ETHY    C1  153  47.837  24.977  10.021
  234ETHY    C1  154  47.562  25.145  10.458
  235THSLK    S  155  49.013  25.854   8.202
  236ETHY    C1  156  48.944  26.023   8.620
  237ETHY    C1  157  48.802  26.276   9.073
  238ETHY    C1  158  48.596  26.577   9.460
  239ETHY    C1  159  48.329  26.916   9.775
  240ETHY    C1  160  48.009  27.283  10.013
  241AUSL   AUS  161  49.235  25.157   8.175
  242AUSL   AUS  162  48.888  25.044   7.918
  243AUL    AUL  163  48.907  25.005   8.296
  244THSLK    S  164  48.710  24.880   8.029
  245ETHY    C1  165  48.342  24.627   8.125
  246ETHY    C1  166  47.927  24.348   8.323
  247ETHY    C1  167  47.549  24.108   8.611
  248ETHY    C1  168  47.215  23.912   8.978
  249ETHY    C1  169  46.929  23.766   9.415
  250THSLK    S  170  49.132  25.105   8.410
  251ETHY    C1  171  48.990  24.858   8.766
  252ETHY    C1  172  48.832  24.643   9.233
  253ETHY    C1  173  48.689  24.527   9.733
  254ETHY    C1  174  48.562  24.509  10.250
  255ETHY    C1  175  48.450  24.587  10.775
  256AUSL   AUS  176  48.989  25.309   6.922
  257AUSL   AUS  177  49.133  24.892   6.992
  258AUL    AUL  178  48.907  25.005   6.707
  259THSLK    S  179  48.894  25.259   6.677
  260ETHY    C1  180  48.677  25.073   6.322
  261ETHY    C1  181  48.402  24.938   5.879
  262ETHY    C1  182  48.121  24.908   5.429
  263ETHY    C1  183  47.843  24.977   4.978
  264ETHY    C1  184  47.575  25.145   4.537
  265THSLK    S  185  48.961  24.718   6.872
  266ETHY    C1  186  48.676  24.397   6.717
  267ETHY    C1  187  48.375  24.038   6.453
  268ETHY    C1  188  48.130  23.715   6.109
  269ETHY    C1  189  47.946  23.432   5.696
  270ETHY    C1  190  47.827  23.192   5.223
  271AUSL   AUS  191  49.235  25.460   6.828
  272AUSL   AUS  192  48.888  25.573   7.085
  273AUL    AUL  193  48.907  25.612   6.707
  274THSLK    S  194  48.757  25.703   6.893
  275ETHY    C1  195  48.551  25.803   6.499
  276ETHY    C1  196  48.249  25.967   6.085
  277ETHY    C1  197  47.895  26.179   5.748
  278ETHY    C1  198  47.502  26.433   5.494
  279ETHY    C1  199  47.077  26.726   5.324
  280THSLK    S  200  49.156  25.419   6.571
  281ETHY    C1  201  49.079  25.307   6.136
  282ETHY    C1  202  48.963  25.262   5.612
  283ETHY    C1  203  48.827  25.318   5.101
  284ETHY    C1  204  48.677  25.472   4.613
  285ETHY    C1  205  48.517  25.717   4.156
  286AUSL   AUS  206  49.978  25.718   7.502
  287AUSL   AUS  207  49.908  25.573   7.085
  288AUL    AUL  208  50.192  25.799   7.198
  289THSLK    S  209  50.087  25.676   6.930
  290ETHY    C1  210  50.454  25.687   6.659
  291ETHY    C1  211  50.869  25.789   6.332
  292ETHY    C1  212  51.247  25.987   6.014
  293ETHY    C1  213  51.581  26.274   5.713
  294ETHY    C1  214  51.867  26.644   5.438
  295THSLK    S  215  50.246  25.774   7.506
  296ETHY    C1  216  50.698  25.835   7.508
  297ETHY    C1  217  51.212  25.994   7.507
  298ETHY    C1  218  51.680  26.248   7.505
  299ETHY    C1  219  52.093  26.585   7.506
  300ETHY    C1  220  52.445  26.999   7.509
  301AUSL   AUS  221  50.072  25.472   7.350
  302AUSL   AUS  222  50.072  25.145   7.653
  303AUL    AUL  223  50.380  25.309   7.502
  304THSLK    S  224  50.331  25.515   7.348
  305ETHY    C1  225  50.776  25.445   7.278
  306ETHY    C1  226  51.307  25.452   7.190
  307ETHY    C1  227  51.820  25.562   7.101
  308ETHY    C1  228  52.305  25.768   7.017
  309ETHY    C1  229  52.752  26.065   6.940
  310THSLK    S  230  50.304  25.007   7.662
  311ETHY    C1  231  50.650  24.718   7.728
  312ETHY    C1  232  51.111  24.451   7.809
  313ETHY    C1  233  51.608  24.282   7.892
  314ETHY    C1  234  52.129  24.210   7.980
  315ETHY    C1  235  52.664  24.236   8.071
  316AUSL   AUS  236  50.072  25.472   7.653
  317AUSL   AUS  237  49.815  25.819   7.766
  318AUL    AUL  238  50.192  25.799   7.805
  319THSLK    S  239  49.998  25.938   7.926
  320ETHY    C1  240  50.370  26.093   8.139
  321ETHY    C1  241  50.770  26.358   8.385
  322ETHY    C1  242  51.104  26.702   8.615
  323ETHY    C1  243  51.366  27.115   8.827
  324ETHY    C1  244  51.553  27.587   9.019
  325THSLK    S  245  50.330  25.515   7.664
  326ETHY    C1  246  50.774  25.445   7.738
  327ETHY    C1  247  51.305  25.452   7.825
  328ETHY    C1  248  51.819  25.562   7.910
  329ETHY    C1  249  52.303  25.768   7.994
  330ETHY    C1  250  52.750  26.065   8.078
  331AUSL   AUS  251  48.818  25.718   7.502
  332AUSL   AUS  252  48.888  25.573   7.918
  333AUL    AUL  253  48.604  25.799   7.805
  334THSLK    S  254  48.752  25.696   8.109
  335ETHY    C1  255  48.543  25.792   8.503
  336ETHY    C1  256  48.242  25.958   8.917
  337ETHY    C1  257  47.891  26.173   9.254
  338ETHY    C1  258  47.497  26.427   9.509
  339ETHY    C1  259  47.068  26.714   9.678
  340THSLK    S  260  48.602  25.858   7.506
  341ETHY    C1  261  48.346  26.236   7.508
  342ETHY    C1  262  47.973  26.624   7.507
  343ETHY    C1  263  47.537  26.930   7.505
  344ETHY    C1  264  47.051  27.148   7.506
  345ETHY    C1  265  46.524  27.278   7.509
  346AUSL   AUS  266  48.724  25.472   7.350
  347AUSL   AUS  267  48.982  25.819   7.237
  348AUL    AUL  268  48.604  25.799   7.198
  349THSLK    S  269  48.493  25.587   7.303
  350ETHY    C1  270  48.146  25.775   7.075
  351ETHY    C1  271  47.686  25.967   6.872
  352ETHY    C1  272  47.188  26.117   6.758
  353ETHY    C1  273  46.667  26.227   6.733
  354ETHY    C1  274  46.133  26.297   6.796
  355THSLK    S  275  48.866  25.984   7.058
  356ETHY    C1  276  48.750  26.300   6.750
  357ETHY    C1  277  48.536  26.678   6.432
  358ETHY    C1  278  48.244  27.047   6.183
  359ETHY    C1  279  47.886  27.400   6.008
  360ETHY    C1  280  47.468  27.733   5.909
  361AUSL   AUS  281  48.724  25.472   7.653
  362AUSL   AUS  282  48.724  25.145   7.350
  363AUL    AUL  283  48.416  25.309   7.502
  364THSLK    S  284  48.466  25.071   7.390
  365ETHY    C1  285  48.022  25.036   7.486
  366ETHY    C1  286  47.491  24.955   7.518
  367ETHY    C1  287  46.977  24.830   7.458
  368ETHY    C1  288  46.493  24.662   7.311
  369ETHY    C1  289  46.046  24.455   7.083
  370THSLK    S  290  48.491  25.579   7.704
  371ETHY    C1  291  48.144  25.763   7.935
  372ETHY    C1  292  47.684  25.956   8.137
  373ETHY    C1  293  47.187  26.111   8.249
  374ETHY    C1  294  46.666  26.221   8.274
  375ETHY    C1  295  46.130  26.284   8.213
  376AUSL   AUS  296  49.978  24.899   7.502
  377AUSL   AUS  297  49.908  25.044   7.918
  378AUL    AUL  298  50.192  24.818   7.805
  379THSLK    S  299  50.194  24.759   7.506
  380ETHY    C1  300  50.450  24.381   7.508
  381ETHY    C1  301  50.823  23.993   7.507
  382ETHY    C1  302  51.259  23.687   7.505
  383ETHY    C1  303  51.745  23.469   7.506
  384ETHY    C1  304  52.272  23.339   7.509
  385THSLK    S  305  50.040  24.854   8.066
  386ETHY    C1  306  50.245  24.511   8.285
  387ETHY    C1  307  50.547  24.169   8.570
  388ETHY    C1  308  50.901  23.916   8.877
  389ETHY    C1  309  51.295  23.753   9.198
  390ETHY    C1  310  51.719  23.683   9.529
  391AUSL   AUS  311  50.072  25.145   7.350
  392AUSL   AUS  312  49.815  24.798   7.237
  393AUL    AUL  313  50.192  24.818   7.198
  394THSLK    S  314  50.305  25.007   7.350
  395ETHY    C1  315  50.653  24.718   7.289
  396ETHY    C1  316  51.112  24.451   7.206
  397ETHY    C1  317  51.609  24.282   7.118
  398ETHY    C1  318  52.131  24.210   7.031
  399ETHY    C1  319  52.666  24.236   6.947
  400THSLK    S  320  49.934  24.608   7.104
  401ETHY    C1  321  50.051  24.191   6.963
  402ETHY    C1  322  50.265  23.737   6.765
  403ETHY    C1  323  50.555  23.351   6.543
  404ETHY    C1  324  50.914  23.036   6.306
  405ETHY    C1  325  51.334  22.797   6.058
  406AUSL   AUS  326  48.818  24.899   7.502
  407AUSL   AUS  327  48.888  25.044   7.085
  408AUL    AUL  328  48.604  24.818   7.198
  409THSLK    S  329  48.715  24.873   6.973
  410ETHY    C1  330  48.350  24.616   6.877
  411ETHY    C1  331  47.934  24.339   6.679
  412ETHY    C1  332  47.554  24.102   6.392
  413ETHY    C1  333  47.220  23.906   6.025
  414ETHY    C1  334  46.938  23.754   5.587
  415THSLK    S  335  48.550  24.843   7.506
  416ETHY    C1  336  48.098  24.782   7.508
  417ETHY    C1  337  47.584  24.623   7.507
  418ETHY    C1  338  47.116  24.369   7.505
  419ETHY    C1  339  46.703  24.032   7.506
  420ETHY    C1  340  46.351  23.618   7.509
  421AUSL   AUS  341  48.724  25.145   7.653
  422AUSL   AUS  342  48.982  24.798   7.766
  423AUL    AUL  343  48.604  24.818   7.805
  424THSLK    S  344  48.794  24.654   7.880
  425ETHY    C1  345  48.420  24.397   7.926
  426ETHY    C1  346  48.022  24.057   8.052
  427ETHY    C1  347  47.689  23.695   8.255
  428ETHY    C1  348  47.427  23.321   8.529
  429ETHY    C1  349  47.236  22.943   8.870
  430THSLK    S  350  48.465  25.078   7.617
  431ETHY    C1  351  48.020  25.048   7.524
  432ETHY    C1  352  47.489  24.966   7.490
  433ETHY    C1  353  46.976  24.837   7.549
  434ETHY    C1  354  46.492  24.669   7.696
  435ETHY    C1  355  46.044  24.467   7.928
  436AUSL   AUS  356  49.398  25.889   7.911
  437AUSL   AUS  357  48.982  25.819   7.766
  438AUL    AUL  358  49.095  26.103   7.992
  439THSLK    S  359  48.862  25.978   7.950
  440ETHY    C1  360  48.745  26.290   8.261
  441ETHY    C1  361  48.531  26.670   8.578
  442ETHY    C1  362  48.241  27.041   8.824
  443ETHY    C1  363  47.883  27.395   9.000
  444ETHY    C1  364  47.462  27.723   9.102
  445THSLK    S  365  49.438  26.115   8.035
  446ETHY    C1  366  49.595  26.417   8.339
  447ETHY    C1  367  49.710  26.823   8.672
  448ETHY    C1  368  49.737  27.267   8.964
  449ETHY    C1  369  49.677  27.736   9.211
  450ETHY    C1  370  49.533  28.220   9.410
  451AUSL   AUS  371  49.246  25.982   7.665
  452AUSL   AUS  372  49.550  25.982   7.338
  453AUL    AUL  373  49.398  26.290   7.502
  454THSLK    S  374  49.287  26.230   7.774
  455ETHY    C1  375  49.396  26.640   7.942
  456ETHY    C1  376  49.440  27.147   8.118
  457ETHY    C1  377  49.383  27.655   8.265
  458ETHY    C1  378  49.230  28.152   8.383
  459ETHY    C1  379  48.987  28.629   8.472
  460THSLK    S  380  49.603  26.217   7.241
  461ETHY    C1  381  49.848  26.573   7.094
  462ETHY    C1  382  50.061  27.038   6.927
  463ETHY    C1  383  50.176  27.536   6.779
  464ETHY    C1  384  50.196  28.055   6.655
  465ETHY    C1  385  50.121  28.584   6.558
  466AUSL   AUS  386  49.550  25.982   7.665
  467AUSL   AUS  387  49.663  25.725   8.012
  468AUL    AUL  388  49.701  26.103   7.992
  469THSLK    S  389  49.835  25.838   8.184
  470ETHY    C1  390  50.120  25.941   8.524
  471ETHY    C1  391  50.422  26.145   8.921
  472ETHY    C1  392  50.667  26.435   9.294
  473ETHY    C1  393  50.851  26.798   9.638
  474ETHY    C1  394  50.970  27.228   9.948
  475THSLK    S  395  49.601  26.216   7.771
  476ETHY    C1  396  49.845  26.570   7.922
  477ETHY    C1  397  50.058  27.036   8.087
  478ETHY    C1  398  50.174  27.535   8.231
  479ETHY    C1  399  50.193  28.053   8.356
  480ETHY    C1  400  50.118  28.581   8.458
  481AUSL   AUS  401  49.398  24.729   7.911
  482AUSL   AUS  402  49.815  24.798   7.766
  483AUL    AUL  403  49.701  24.514   7.992
  484THSLK    S  404  49.354  24.474   7.990
  485ETHY    C1  405  49.194  24.070   8.128
  486ETHY    C1  406  49.080  23.589   8.341
  487ETHY    C1  407  49.055  23.128   8.605
  488ETHY    C1  408  49.114  22.698   8.915
  489ETHY    C1  409  49.255  22.306   9.263
  490THSLK    S  410  49.930  24.609   7.908
  491ETHY    C1  411  50.046  24.193   8.052
  492ETHY    C1  412  50.260  23.740   8.248
  493ETHY    C1  413  50.552  23.352   8.467
  494ETHY    C1  414  50.911  23.037   8.705
  495ETHY    C1  415  51.328  22.800   8.958
  496AUSL   AUS  416  49.246  24.635   7.665
  497AUSL   AUS  417  49.133  24.892   8.012
  498AUL    AUL  418  49.095  24.514   7.992
  499THSLK    S  419  49.193  24.395   7.745
  500ETHY    C1  420  48.948  24.014   7.801
  501ETHY    C1  421  48.735  23.529   7.897
  502ETHY    C1  422  48.620  23.026   8.025
  503ETHY    C1  423  48.601  22.517   8.186
  504ETHY    C1  424  48.675  22.014   8.374
  505THSLK    S  425  48.955  24.724   8.133
  506ETHY    C1  426  48.667  24.406   8.289
  507ETHY    C1  427  48.367  24.046   8.552
  508ETHY    C1  428  48.124  23.720   8.896
  509ETHY    C1  429  47.940  23.437   9.309
  510ETHY    C1  430  47.816  23.203   9.783
  511AUSL   AUS  431  49.550  24.635   7.665
  512AUSL   AUS  432  49.246  24.635   7.338
  513AUL    AUL  433  49.398  24.327   7.502
  514THSLK    S  434  49.195  24.392   7.266
  515ETHY    C1  435  48.951  24.010   7.215
  516ETHY    C1  436  48.738  23.526   7.117
  517ETHY    C1  437  48.622  23.024   6.984
  518ETHY    C1  438  48.603  22.515   6.825
  519ETHY    C1  439  48.679  22.010   6.642
  520THSLK    S  440  49.507  24.379   7.749
  521ETHY    C1  441  49.397  23.943   7.821
  522ETHY    C1  442  49.354  23.417   7.928
  523ETHY    C1  443  49.411  22.905   8.059
  524ETHY    C1  444  49.564  22.417   8.213
  525ETHY    C1  445  49.806  21.964   8.388
  526AUSL   AUS  446  49.398  25.889   7.093
  527AUSL   AUS  447  49.815  25.819   7.237
  528AUL    AUL  448  49.701  26.103   7.011
  529THSLK    S  449  49.442  26.119   6.975
  530ETHY    C1  450  49.602  26.423   6.674
  531ETHY    C1  451  49.716  26.828   6.339
  532ETHY    C1  452  49.741  27.271   6.045
  533ETHY    C1  453  49.682  27.740   5.798
  534ETHY    C1  454  49.541  28.227   5.604
  535THSLK    S  455  50.002  25.940   7.085
  536ETHY    C1  456  50.376  26.096   6.876
  537ETHY    C1  457  50.774  26.360   6.629
  538ETHY    C1  458  51.107  26.704   6.395
  539ETHY    C1  459  51.369  27.116   6.184
  540ETHY    C1  460  51.560  27.590   5.998
  541AUSL   AUS  461  49.246  25.982   7.338
  542AUSL   AUS  462  49.133  25.725   6.992
  543AUL    AUL  463  49.095  26.103   7.011
  544THSLK    S  464  49.289  26.233   7.237
  545ETHY    C1  465  49.399  26.644   7.074
  546ETHY    C1  466  49.442  27.150   6.896
  547ETHY    C1  467  49.385  27.658   6.745
  548ETHY    C1  468  49.232  28.155   6.627
  549ETHY    C1  469  48.990  28.634   6.545
  550THSLK    S  470  49.019  25.860   6.802
  551ETHY    C1  471  48.953  26.032   6.385
  552ETHY    C1  472  48.810  26.284   5.932
  553ETHY    C1  473  48.601  26.583   5.544
  554ETHY    C1  474  48.335  26.921   5.230
  555ETHY    C1  475  48.019  27.294   4.993
  556AUSL   AUS  476  49.398  24.729   7.093
  557AUSL   AUS  477  48.982  24.798   7.237
  558AUL    AUL  478  49.095  24.514   7.011
  559THSLK    S  479  48.798  24.648   7.128
  560ETHY    C1  480  48.426  24.387   7.085
  561ETHY    C1  481  48.027  24.049   6.958
  562ETHY    C1  482  47.692  23.690   6.753
  563ETHY    C1  483  47.430  23.316   6.478
  564ETHY    C1  484  47.243  22.933   6.142
  565THSLK    S  485  49.358  24.470   7.019
  566ETHY    C1  486  49.201  24.064   6.885
  567ETHY    C1  487  49.086  23.584   6.671
  568ETHY    C1  488  49.059  23.125   6.404
  569ETHY    C1  489  49.119  22.694   6.094
  570ETHY    C1  490  49.263  22.299   5.751
  571AUSL   AUS  491  49.550  24.635   7.338
  572AUSL   AUS  492  49.663  24.892   6.992
  573AUL    AUL  493  49.701  24.514   7.011
  574THSLK    S  494  49.509  24.378   7.262
  575ETHY    C1  495  49.400  23.940   7.195
  576ETHY    C1  496  49.357  23.414   7.086
  577ETHY    C1  497  49.413  22.903   6.951
  578ETHY    C1  498  49.566  22.415   6.798
  579ETHY    C1  499  49.810  21.961   6.629
  580THSLK    S  500  49.783  24.702   6.853
  581ETHY    C1  501  49.852  24.316   6.621
  582ETHY    C1  502  49.994  23.908   6.300
  583ETHY    C1  503  50.201  23.572   5.942
  584ETHY    C1  504  50.467  23.315   5.559
  585ETHY    C1  505  50.787  23.137   5.158
  586AUC    AUC  506  15.067  31.361   7.502
  587AUC    AUC  507  15.313  31.361   7.350
  588AUC    AUC  508  15.313  31.361   7.653
  589AUC    AUC  509  14.822  31.361   7.350
  590AUC    AUC  510  14.822  31.361   7.653
  591AUC    AUC  511  14.915  31.606   7.502
  592AUC    AUC  512  15.219  31.606   7.502
  593AUC    AUC  513  14.915  31.115   7.502
  594AUC    AUC  514  15.219  31.115   7.502
  595AUC    AUC  515  15.067  31.209   7.747
  596AUC    AUC  516  15.067  31.512   7.747
  597AUC    AUC  517  15.067  31.209   7.256
  598AUC    AUC  518  15.067  31.512   7.256
  599AUC    AUC  519  15.558  31.361   7.198
  600AUC    AUC  520  15.558  31.361   7.502
  601AUC    AUC  521  15.558  31.361   7.805
  602AUC    AUC  522  14.576  31.361   7.198
  603AUC    AUC  523  14.576  31.361   7.502
  604AUC    AUC  524  14.576  31.361   7.805
  605AUC    AUC  525  14.764  31.851   7.502
  606AUC    AUC  526  15.067  31.851   7.502
  607AUC    AUC  527  15.370  31.851   7.502
  608AUC    AUC  528  14.764  30.870   7.502
  609AUC    AUC  529  15.067  30.870   7.502
  610AUC    AUC  530  15.370  30.870   7.502
  611AUC    AUC  531  15.067  31.057   7.992
  612AUC    AUC  532  15.067  31.361   7.992
  613AUC    AUC  533  15.067  31.664   7.992
  614AUC    AUC  534  15.067  31.057   7.011
  615AUC    AUC  535  15.067  31.361   7.011
  616AUC    AUC  536  15.067  31.664   7.011
  617AUC    AUC  537  15.313  31.209   7.899
  618AUC    AUC  538  15.313  31.512   7.899
  619AUC    AUC  539  15.313  31.209   7.105
  620AUC    AUC  540  15.313  31.512   7.105
  621AUC    AUC  541  14.822  31.209   7.899
  622AUC    AUC  542  14.822  31.512   7.899
  623AUC    AUC  543  14.822  31.209   7.105
  624AUC    AUC  544  14.822  31.512   7.105
  625AUC    AUC  545  15.464  31.606   7.350
  626AUC    AUC  546  15.464  31.606   7.653
  627AUC    AUC  547  14.670  31.606   7.350
  628AUC    AUC  548  14.670  31.606   7.653
  629AUC    AUC  549  15.464  31.115   7.350
  630AUC    AUC  550  15.464  31.115   7.653
  631AUC    AUC  551  14.670  31.115   7.350
  632AUC    AUC  552  14.670  31.115   7.653
  633AUC    AUC  553  14.915  31.758   7.747
  634AUC    AUC  554  15.219  31.758   7.747
  635AUC    AUC  555  14.915  30.963   7.747
  636AUC    AUC  556  15.219  30.963   7.747
  637AUC    AUC  557  14.915  31.758   7.256
  638AUC    AUC  558  15.219  31.758   7.256
  639AUC    AUC  559  14.915  30.963   7.256
  640AUC    AUC  560  15.219  30.963   7.256
  641AUSL   AUS  561  15.476  31.361   8.082
  642AUSL   AUS  562  15.332  30.944   8.012
  643AUL    AUL  563  15.558  31.057   8.296
  644THSLK    S  564  15.446  30.756   8.156
  645ETHY    C1  565  15.512  30.371   8.391
  646ETHY    C1  566  15.655  29.963   8.710
  647ETHY    C1  567  15.864  29.627   9.066
  648ETHY    C1  568  16.130  29.369   9.450
  649ETHY    C1  569  16.446  29.193   9.855
  650THSLK    S  570  15.572  31.311   8.326
  651ETHY    C1  571  15.788  31.125   8.681
  652ETHY    C1  572  16.063  30.990   9.124
  653ETHY    C1  573  16.344  30.960   9.575
  654ETHY    C1  574  16.622  31.029  10.025
  655ETHY    C1  575  16.891  31.197  10.466
  656AUSL   AUS  576  15.231  31.209   8.175
  657AUSL   AUS  577  14.904  31.512   8.175
  658AUL    AUL  578  15.067  31.361   8.483
  659THSLK    S  579  15.309  31.156   8.417
  660ETHY    C1  580  15.386  30.906   8.790
  661ETHY    C1  581  15.502  30.689   9.269
  662ETHY    C1  582  15.639  30.573   9.769
  663ETHY    C1  583  15.789  30.555  10.281
  664ETHY    C1  584  15.948  30.636  10.794
  665THSLK    S  585  14.817  31.469   8.431
  666ETHY    C1  586  14.735  31.357   8.864
  667ETHY    C1  587  14.621  31.311   9.388
  668ETHY    C1  588  14.489  31.369   9.901
  669ETHY    C1  589  14.338  31.522  10.389
  670ETHY    C1  590  14.172  31.766  10.844
  671AUSL   AUS  591  15.231  31.512   8.175
  672AUSL   AUS  592  15.577  31.625   7.918
  673AUL    AUL  593  15.558  31.664   8.296
  674THSLK    S  594  15.318  31.566   8.414
  675ETHY    C1  595  15.399  31.817   8.786
  676ETHY    C1  596  15.513  32.033   9.265
  677ETHY    C1  597  15.646  32.149   9.767
  678ETHY    C1  598  15.796  32.167  10.279
  679ETHY    C1  599  15.962  32.087  10.789
  680THSLK    S  600  15.751  31.727   8.080
  681ETHY    C1  601  16.115  31.737   8.354
  682ETHY    C1  602  16.531  31.839   8.680
  683ETHY    C1  603  16.911  32.038   8.995
  684ETHY    C1  604  17.246  32.325   9.296
  685ETHY    C1  605  17.527  32.693   9.577
  686AUSL   AUS  606  15.476  31.361   6.922
  687AUSL   AUS  607  15.332  31.777   6.992
  688AUL    AUL  608  15.558  31.664   6.707
  689THSLK    S  609  15.579  31.311   6.681
  690ETHY    C1  610  15.800  31.125   6.329
  691ETHY    C1  611  16.073  30.990   5.885
  692ETHY    C1  612  16.351  30.960   5.432
  693ETHY    C1  613  16.629  31.029   4.982
  694ETHY    C1  614  16.903  31.197   4.545
  695THSLK    S  615  15.510  31.892   6.825
  696ETHY    C1  616  15.798  31.997   6.488
  697ETHY    C1  617  16.098  32.201   6.090
  698ETHY    C1  618  16.341  32.489   5.714
  699ETHY    C1  619  16.525  32.853   5.371
  700ETHY    C1  620  16.649  33.284   5.065
  701AUSL   AUS  621  15.231  31.209   6.828
  702AUSL   AUS  622  15.577  31.096   7.085
  703AUL    AUL  623  15.558  31.057   6.707
  704THSLK    S  624  15.714  30.904   6.944
  705ETHY    C1  625  15.922  30.561   6.729
  706ETHY    C1  626  16.223  30.219   6.442
  707ETHY    C1  627  16.574  29.966   6.133
  708ETHY    C1  628  16.968  29.804   5.812
  709ETHY    C1  629  17.397  29.733   5.486
  710THSLK    S  630  15.318  31.155   6.590
  711ETHY    C1  631  15.399  30.904   6.217
  712ETHY    C1  632  15.513  30.688   5.738
  713ETHY    C1  633  15.646  30.572   5.236
  714ETHY    C1  634  15.796  30.554   4.725
  715ETHY    C1  635  15.962  30.634   4.214
  716AUSL   AUS  636  15.231  31.512   6.828
  717AUSL   AUS  637  14.904  31.209   6.828
  718AUL    AUL  638  15.067  31.361   6.520
  719THSLK    S  639  14.809  31.155   6.592
  720ETHY    C1  640  14.672  30.907   6.235
  721ETHY    C1  641  14.512  30.693   5.767
  722ETHY    C1  642  14.365  30.578   5.269
  723ETHY    C1  643  14.238  30.559   4.751
  724ETHY    C1  644  14.133  30.635   4.224
  725THSLK    S  645  15.334  31.470   6.578
  726ETHY    C1  646  15.475  31.355   6.160
  727ETHY    C1  647  15.633  31.308   5.647
  728ETHY    C1  648  15.776  31.364   5.138
  729ETHY    C1  649  15.904  31.518   4.643
  730ETHY    C1  650  16.015  31.766   4.174
  731AUSL   AUS  651  14.658  31.361   8.082
  732AUSL   AUS  652  14.802  31.777   8.012
  733AUL    AUL  653  14.576  31.664   8.296
  734THSLK    S  654  14.555  31.311   8.322
  735ETHY    C1  655  14.334  31.125   8.674
  736ETHY    C1  656  14.061  30.990   9.118
  737ETHY    C1  657  13.784  30.960   9.571
  738ETHY    C1  658  13.506  31.029  10.021
  739ETHY    C1  659  13.231  31.197  10.458
  740THSLK    S  660  14.682  31.906   8.202
  741ETHY    C1  661  14.613  32.075   8.620
  742ETHY    C1  662  14.471  32.328   9.073
  743ETHY    C1  663  14.265  32.629   9.460
  744ETHY    C1  664  13.998  32.968   9.775
  745ETHY    C1  665  13.678  33.335  10.013
  746AUSL   AUS  666  14.904  31.209   8.175
  747AUSL   AUS  667  14.557  31.096   7.918
  748AUL    AUL  668  14.576  31.057   8.296
  749THSLK    S  669  14.379  30.932   8.029
  750ETHY    C1  670  14.011  30.679   8.125
  751ETHY    C1  671  13.596  30.400   8.323
  752ETHY    C1  672  13.218  30.160   8.611
  753ETHY    C1  673  12.884  29.964   8.978
  754ETHY    C1  674  12.598  29.818   9.415
  755THSLK    S  675  14.801  31.157   8.410
  756ETHY    C1  676  14.659  30.910   8.766
  757ETHY    C1  677  14.501  30.695   9.233
  758ETHY    C1  678  14.358  30.579   9.733
  759ETHY    C1  679  14.231  30.561  10.250
  760ETHY    C1  680  14.119  30.639  10.775
  761AUSL   AUS  681  14.658  31.361   6.922
  762AUSL   AUS  682  14.802  30.944   6.992
  763AUL    AUL  683  14.576  31.057   6.707
  764THSLK    S  684  14.563  31.311   6.677
  765ETHY    C1  685  14.346  31.125   6.322
  766ETHY    C1  686  14.071  30.990   5.879
  767ETHY    C1  687  13.790  30.960   5.429
  768ETHY    C1  688  13.512  31.029   4.978
  769ETHY    C1  689  13.244  31.197   4.537
  770THSLK    S  690  14.630  30.770   6.872
  771ETHY    C1  691  14.345  30.449   6.717
  772ETHY    C1  692  14.044  30.090   6.453
  773ETHY    C1  693  13.799  29.767   6.109
  774ETHY    C1  694  13.615  29.484   5.696
  775ETHY    C1  695  13.496  29.244   5.223
  776AUSL   AUS  696  14.904  31.512   6.828
  777AUSL   AUS  697  14.557  31.625   7.085
  778AUL    AUL  698  14.576  31.664   6.707
  779THSLK    S  699  14.426  31.755   6.893
  780ETHY    C1  700  14.220  31.855   6.499
  781ETHY    C1  701  13.918  32.019   6.085
  782ETHY    C1  702  13.564  32.231   5.748
  783ETHY    C1  703  13.171  32.485   5.494
  784ETHY    C1  704  12.746  32.778   5.324
  785THSLK    S  705  14.825  31.471   6.571
  786ETHY    C1  706  14.748  31.359   6.136
  787ETHY    C1  707  14.632  31.314   5.612
  788ETHY    C1  708  14.496  31.370   5.101
  789ETHY    C1  709  14.346  31.524   4.613
  790ETHY    C1  710  14.186  31.769   4.156
  791AUSL   AUS  711  15.647  31.770   7.502
  792AUSL   AUS  712  15.577  31.625   7.085
  793AUL    AUL  713  15.861  31.851   7.198
  794THSLK    S  714  15.756  31.728   6.930
  795ETHY    C1  715  16.123  31.739   6.659
  796ETHY    C1  716  16.538  31.841   6.332
  797ETHY    C1  717  16.916  32.039   6.014
  798ETHY    C1  718  17.250  32.326   5.713
  799ETHY    C1  719  17.536  32.696   5.438
  800THSLK    S  720  15.915  31.826   7.506
  801ETHY    C1  721  16.367  31.887   7.508
  802ETHY    C1  722  16.881  32.046   7.507
  803ETHY    C1  723  17.349  32.300   7.505
  804ETHY    C1  724  17.762  32.637   7.506
  805ETHY    C1  725  18.114  33.051   7.509
  806AUSL   AUS  726  15.741  31.524   7.350
  807AUSL   AUS  727  15.741  31.197   7.653
  808AUL    AUL  728  16.049  31.361   7.502
  809THSLK    S  729  16.000  31.567   7.348
  810ETHY    C1  730  16.445  31.497   7.278
  811ETHY    C1  731  16.976  31.504   7.190
  812ETHY    C1  732  17.489  31.614   7.101
  813ETHY    C1  733  17.974  31.820   7.017
  814ETHY    C1  734  18.421  32.117   6.940
  815THSLK    S  735  15.973  31.059   7.662
  816ETHY    C1  736  16.319  30.770   7.728
  817ETHY    C1  737  16.780  30.503   7.809
  818ETHY    C1  738  17.277  30.334   7.892
  819ETHY    C1  739  17.798  30.262   7.980
  820ETHY    C1  740  18.333  30.288   8.071
  821AUSL   AUS  741  15.741  31.524   7.653
  822AUSL   AUS  742  15.484  31.871   7.766
  823AUL    AUL  743  15.861  31.851   7.805
  824THSLK    S  744  15.667  31.990   7.926
  825ETHY    C1  745  16.039  32.145   8.139
  826ETHY    C1  746  16.439  32.410   8.385
  827ETHY    C1  747  16.773  32.754   8.615
  828ETHY    C1  748  17.035  33.167   8.827
  829ETHY    C1  749  17.222  33.639   9.019
  830THSLK    S  750  15.999  31.567   7.664
  831ETHY    C1  751  16.443  31.497   7.738
  832ETHY    C1  752  16.974  31.504   7.825
  833ETHY    C1  753  17.488  31.614   7.910
  834ETHY    C1  754  17.972  31.820   7.994
  835ETHY    C1  755  18.419  32.117   8.078
  836AUSL   AUS  756  14.487  31.770   7.502
  837AUSL   AUS  757  14.557  31.625   7.918
  838AUL    AUL  758  14.273  31.851   7.805
  839THSLK    S  759  14.421  31.748   8.109
  840ETHY    C1  760  14.212  31.844   8.503
  841ETHY    C1  761  13.911  32.010   8.917
  842ETHY    C1  762  13.560  32.225   9.254
  843ETHY    C1  763  13.166  32.479   9.509
  844ETHY    C1  764  12.737  32.766   9.678
  845THSLK    S  765  14.271  31.910   7.506
  846ETHY    C1  766  14.015  32.288   7.508
  847ETHY    C1  767  13.642  32.676   7.507
  848ETHY    C1  768  13.206  32.982   7.505
  849ETHY    C1  769  12.720  33.200   7.506
  850ETHY    C1  770  12.193  33.330   7.509
  851AUSL   AUS  771  14.393  31.524   7.350
  852AUSL   AUS  772  14.651  31.871   7.237
  853AUL    AUL  773  14.273  31.851   7.198
  854THSLK    S  774  14.162  31.639   7.303
  855ETHY    C1  775  13.815  31.827   7.075
  856ETHY    C1  776  13.355  32.019   6.872
  857ETHY    C1  777  12.857  32.169   6.758
  858ETHY    C1  778  12.336  32.279   6.733
  859ETHY    C1  779  11.802  32.349   6.796
  860THSLK    S  780  14.535  32.036   7.058
  861ETHY    C1  781  14.419  32.352   6.750
  862ETHY    C1  782  14.205  32.730   6.432
  863ETHY    C1  783  13.913  33.099   6.183
  864ETHY    C1  784  13.555  33.452   6.008
  865ETHY    C1  785  13.137  33.785   5.909
  866AUSL   AUS  786  14.393  31.524   7.653
  867AUSL   AUS  787  14.393  31.197   7.350
  868AUL    AUL  788  14.085  31.361   7.502
  869THSLK    S  789  14.135  31.123   7.390
  870ETHY    C1  790  13.691  31.088   7.486
  871ETHY    C1  791  13.160  31.007   7.518
  872ETHY    C1  792  12.646  30.882   7.458
  873ETHY    C1  793  12.162  30.714   7.311
  874ETHY    C1  794  11.715  30.507   7.083
  875THSLK    S  795  14.160  31.631   7.704
  876ETHY    C1  796  13.813  31.815   7.935
  877ETHY    C1  797  13.353  32.008   8.137
  878ETHY    C1  798  12.856  32.163   8.249
  879ETHY    C1  799  12.335  32.273   8.274
  880ETHY    C1  800  11.799  32.336   8.213
  881AUSL   AUS  801  15.647  30.951   7.502
  882AUSL   AUS  802  15.577  31.096   7.918
  883AUL    AUL  803  15.861  30.870   7.805
  884THSLK    S  804  15.863  30.811   7.506
  885ETHY    C1  805  16.119  30.433   7.508
  886ETHY    C1  806  16.492  30.045   7.507
  887ETHY    C1  807  16.928  29.739   7.505
  888ETHY    C1  808  17.414  29.521   7.506
  889ETHY    C1  809  17.941  29.391   7.509
  890THSLK    S  810  15.709  30.906   8.066
  891ETHY    C1  811  15.914  30.563   8.285
  892ETHY    C1  812  16.216  30.221   8.570
  893ETHY    C1  813  16.570  29.968   8.877
  894ETHY    C1  814  16.964  29.805   9.198
  895ETHY    C1  815  17.388  29.735   9.529
  896AUSL   AUS  816  15.741  31.197   7.350
  897AUSL   AUS  817  15.484  30.850   7.237
  898AUL    AUL  818  15.861  30.870   7.198
  899THSLK    S  819  15.974  31.059   7.350
  900ETHY    C1  820  16.322  30.770   7.289
  901ETHY    C1  821  16.781  30.503   7.206
  902ETHY    C1  822  17.278  30.334   7.118
  903ETHY    C1  823  17.800  30.262   7.031
  904ETHY    C1  824  18.335  30.288   6.947
  905THSLK    S  825  15.603  30.660   7.104
  906ETHY    C1  826  15.720  30.243   6.963
  907ETHY    C1  827  15.934  29.789   6.765
  908ETHY    C1  828  16.224  29.403   6.543
  909ETHY    C1  829  16.583  29.088   6.306
  910ETHY    C1  830  17.003  28.849   6.058
  911AUSL   AUS  831  14.487  30.951   7.502
  912AUSL   AUS  832  14.557  31.096   7.085
  913AUL    AUL  833  14.273  30.870   7.198
  914THSLK    S  834  14.384  30.925   6.973
  915ETHY    C1  835  14.019  30.668   6.877
  916ETHY    C1  836  13.603  30.391   6.679
  917ETHY    C1  837  13.223  30.154   6.392
  918ETHY    C1  838  12.889  29.958   6.025
  919ETHY    C1  839  12.607  29.806   5.587
  920THSLK    S  840  14.219  30.895   7.506
  921ETHY    C1  841  13.767  30.834   7.508
  922ETHY    C1  842  13.253  30.675   7.507
  923ETHY    C1  843  12.785  30.421   7.505
  924ETHY    C1  844  12.372  30.084   7.506
  925ETHY    C1  845  12.020  29.670   7.509
  926AUSL   AUS  846  14.393  31.197   7.653
  927AUSL   AUS  847  14.651  30.850   7.766
  928AUL    AUL  848  14.273  30.870   7.805
  929THSLK    S  849  14.463  30.706   7.880
  930ETHY    C1  850  14.089  30.449   7.926
  931ETHY    C1  851  13.691  30.109   8.052
  932ETHY    C1  852  13.358  29.747   8.255
  933ETHY    C1  853  13.096  29.373   8.529
  934ETHY    C1  854  12.905  28.995   8.870
  935THSLK    S  855  14.134  31.130   7.617
  936ETHY    C1  856  13.689  31.100   7.524
  937ETHY    C1  857  13.158  31.018   7.490
  938ETHY    C1  858  12.645  30.889   7.549
  939ETHY    C1  859  12.161  30.721   7.696
  940ETHY    C1  860  11.713  30.519   7.928
  941AUSL   AUS  861  15.067  31.941   7.911
  942AUSL   AUS  862  14.651  31.871   7.766
  943AUL    AUL  863  14.764  32.155   7.992
  944THSLK    S  864  14.531  32.030   7.950
  945ETHY    C1  865  14.414  32.342   8.261
  946ETHY    C1  866  14.200  32.722   8.578
  947ETHY    C1  867  13.910  33.093   8.824
  948ETHY    C1  868  13.552  33.447   9.000
  949ETHY    C1  869  13.131  33.775   9.102
  950THSLK    S  870  15.107  32.167   8.035
  951ETHY    C1  871  15.264  32.469   8.339
  952ETHY    C1  872  15.379  32.875   8.672
  953ETHY    C1  873  15.406  33.319   8.964
  954ETHY    C1  874  15.346  33.788   9.211
  955ETHY    C1  875  15.202  34.272   9.410
  956AUSL   AUS  876  14.915  32.034   7.665
  957AUSL   AUS  877  15.219  32.034   7.338
  958AUL    AUL  878  15.067  32.342   7.502
  959THSLK    S  879  14.956  32.282   7.774
  960ETHY    C1  880  15.065  32.692   7.942
  961ETHY    C1  881  15.109  33.199   8.118
  962ETHY    C1  882  15.052  33.707   8.265
  963ETHY    C1  883  14.899  34.204   8.383
  964ETHY    C1  884  14.656  34.681   8.472
  965THSLK    S  885  15.272  32.269   7.241
  966ETHY    C1  886  15.517  32.625   7.094
  967ETHY    C1  887  15.730  33.090   6.927
  968ETHY    C1  888  15.845  33.588   6.779
  969ETHY    C1  889  15.865  34.107   6.655
  970ETHY    C1  890  15.790  34.636   6.558
  971AUSL   AUS  891  15.219  32.034   7.665
  972AUSL   AUS  892  15.332  31.777   8.012
  973AUL    AUL  893  15.370  32.155   7.992
  974THSLK    S  894  15.504  31.890   8.184
  975ETHY    C1  895  15.789  31.993   8.524
  976ETHY    C1  896  16.091  32.197   8.921
  977ETHY    C1  897  16.336  32.487   9.294
  978ETHY    C1  898  16.520  32.850   9.638
  979ETHY    C1  899  16.639  33.280   9.948
  980THSLK    S  900  15.270  32.268   7.771
  981ETHY    C1  901  15.514  32.622   7.922
  982ETHY    C1  902  15.727  33.088   8.087
  983ETHY    C1  903  15.843  33.587   8.231
  984ETHY    C1  904  15.862  34.105   8.356
  985ETHY    C1  905  15.787  34.633   8.458
  986AUSL   AUS  906  15.067  30.781   7.911
  987AUSL   AUS  907  15.484  30.850   7.766
  988AUL    AUL  908  15.370  30.566   7.992
  989THSLK    S  909  15.023  30.526   7.990
  990ETHY    C1  910  14.863  30.122   8.128
  991ETHY    C1  911  14.749  29.641   8.341
  992ETHY    C1  912  14.724  29.180   8.605
  993ETHY    C1  913  14.783  28.750   8.915
  994ETHY    C1  914  14.924  28.358   9.263
  995THSLK    S  915  15.599  30.661   7.908
  996ETHY    C1  916  15.715  30.245   8.052
  997ETHY    C1  917  15.929  29.792   8.248
  998ETHY    C1  918  16.221  29.404   8.467
  999ETHY    C1  919  16.580  29.089   8.705
 1000ETHY    C1  920  16.997  28.852   8.958
 1001AUSL   AUS  921  14.915  30.687   7.665
 1002AUSL   AUS  922  14.802  30.944   8.012
 1003AUL    AUL  923  14.764  30.566   7.992
 1004THSLK    S  924  14.862  30.447   7.745
 1005ETHY    C1  925  14.617  30.066   7.801
 1006ETHY    C1  926  14.404  29.581   7.897
 1007ETHY    C1  927  14.289  29.078   8.025
 1008ETHY    C1  928  14.270  28.569   8.186
 1009ETHY    C1  929  14.344  28.066   8.374
 1010THSLK    S  930  14.624  30.776   8.133
 1011ETHY    C1  931  14.336  30.458   8.289
 1012ETHY    C1  932  14.036  30.098   8.552
 1013ETHY    C1  933  13.793  29.772   8.896
 1014ETHY    C1  934  13.609  29.489   9.309
 1015ETHY    C1  935  13.485  29.255   9.783
 1016AUSL   AUS  936  15.219  30.687   7.665
 1017AUSL   AUS  937  14.915  30.687   7.338
 1018AUL    AUL  938  15.067  30.379   7.502
 1019THSLK    S  939  14.864  30.444   7.266
 1020ETHY    C1  940  14.620  30.062   7.215
 1021ETHY    C1  941  14.407  29.578   7.117
 1022ETHY    C1  942  14.291  29.076   6.984
 1023ETHY    C1  943  14.272  28.567   6.825
 1024ETHY    C1  944  14.348  28.062   6.642
 1025THSLK    S  945  15.176  30.431   7.749
 1026ETHY    C1  946  15.066  29.995   7.821
 1027ETHY    C1  947  15.023  29.469   7.928
 1028ETHY    C1  948  15.080  28.957   8.059
 1029ETHY    C1  949  15.233  28.469   8.213
 1030ETHY    C1  950  15.475  28.016   8.388
 1031AUSL   AUS  951  15.067  31.941   7.093
 1032AUSL   AUS  952  15.484  31.871   7.237
 1033AUL    AUL  953  15.370  32.155   7.011
 1034THSLK    S  954  15.111  32.171   6.975
 1035ETHY    C1  955  15.271  32.475   6.674
 1036ETHY    C1  956  15.385  32.880   6.339
 1037ETHY    C1  957  15.410  33.323   6.045
 1038ETHY    C1  958  15.351  33.792   5.798
 1039ETHY    C1  959  15.210  34.279   5.604
 1040THSLK    S  960  15.671  31.992   7.085
 1041ETHY    C1  961  16.045  32.148   6.876
 1042ETHY    C1  962  16.443  32.412   6.629
 1043ETHY    C1  963  16.776  32.756   6.395
 1044ETHY    C1  964  17.038  33.168   6.184
 1045ETHY    C1  965  17.229  33.642   5.998
 1046AUSL   AUS  966  14.915  32.034   7.338
 1047AUSL   AUS  967  14.802  31.777   6.992
 1048AUL    AUL  968  14.764  32.155   7.011
 1049THSLK    S  969  14.958  32.285   7.237
 1050ETHY    C1  970  15.068  32.696   7.074
 1051ETHY    C1  971  15.111  33.202   6.896
 1052ETHY    C1  972  15.054  33.710   6.745
 1053ETHY    C1  973  14.901  34.207   6.627
 1054ETHY    C1  974  14.659  34.686   6.545
 1055THSLK    S  975  14.688  31.912   6.802
 1056ETHY    C1  976  14.622  32.084   6.385
 1057ETHY    C1  977  14.479  32.336   5.932
 1058ETHY    C1  978  14.270  32.635   5.544
 1059ETHY    C1  979  14.004  32.973   5.230
 1060ETHY    C1  980  13.688  33.346   4.993
 1061AUSL   AUS  981  15.067  30.781   7.093
 1062AUSL   AUS  982  14.651  30.850   7.237
 1063AUL    AUL  983  14.764  30.566   7.011
 1064THSLK    S  984  14.467  30.700   7.128
 1065ETHY    C1  985  14.095  30.439   7.085
 1066ETHY    C1  986  13.696  30.101   6.958
 1067ETHY    C1  987  13.361  29.742   6.753
 1068ETHY    C1  988  13.099  29.368   6.478
 1069ETHY    C1  989  12.912  28.985   6.142
 1070THSLK    S  990  15.027  30.522   7.019
 1071ETHY    C1  991  14.870  30.116   6.885
 1072ETHY    C1  992  14.755  29.636   6.671
 1073ETHY    C1  993  14.728  29.177   6.404
 1074ETHY    C1  994  14.788  28.746   6.094
 1075ETHY    C1  995  14.932  28.351   5.751
 1076AUSL   AUS  996  15.219  30.687   7.338
 1077AUSL   AUS  997  15.332  30.944   6.992
 1078AUL    AUL  998  15.370  30.566   7.011
 1079THSLK    S  999  15.178  30.430   7.262
 1080ETHY    C1 1000  15.069  29.992   7.195
 1081ETHY    C1 1001  15.026  29.466   7.086
 1082ETHY    C1 1002  15.082  28.955   6.951
 1083ETHY    C1 1003  15.235  28.467   6.798
 1084ETHY    C1 1004  15.479  28.013   6.629
 1085THSLK    S 1005  15.452  30.754   6.853
 1086ETHY    C1 1006  15.521  30.368   6.621
 1087ETHY    C1 1007  15.663  29.960   6.300
 1088ETHY    C1 1008  15.870  29.624   5.942
 1089ETHY    C1 1009  16.136  29.367   5.559
 1090ETHY    C1 1010  16.456  29.189   5.158
 1091AUC    AUC 1011   8.022  39.292   7.502
 1092AUC    AUC 1012   8.268  39.292   7.350
 1093AUC    AUC 1013   8.268  39.292   7.653
 1094AUC    AUC 1014   7.777  39.292   7.350
 1095AUC    AUC 1015   7.777  39.292   7.653
 1096AUC    AUC 1016   7.870  39.537   7.502
 1097AUC    AUC 1017   8.174  39.537   7.502
 1098AUC    AUC 1018   7.870  39.046   7.502
 1099AUC    AUC 1019   8.174  39.046   7.502
 1100AUC    AUC 1020   8.022  39.140   7.747
 1101AUC    AUC 1021   8.022  39.443   7.747
 1102AUC    AUC 1022   8.022  39.140   7.256
 1103AUC    AUC 1023   8.022  39.443   7.256
 1104AUC    AUC 1024   8.513  39.292   7.198
 1105AUC    AUC 1025   8.513  39.292   7.502
 1106AUC    AUC 1026   8.513  39.292   7.805
 1107AUC    AUC 1027   7.531  39.292   7.198
 1108AUC    AUC 1028   7.531  39.292   7.502
 1109AUC    AUC 1029   7.531  39.292   7.805
 1110AUC    AUC 1030   7.719  39.782   7.502
 1111AUC    AUC 1031   8.022  39.782   7.502
 1112AUC    AUC 1032   8.325  39.782   7.502
 1113AUC    AUC 1033   7.719  38.801   7.502
 1114AUC    AUC 1034   8.022  38.801   7.502
 1115AUC    AUC 1035   8.325  38.801   7.502
 1116AUC    AUC 1036   8.022  38.988   7.992
 1117AUC    AUC 1037   8.022  39.292   7.992
 1118AUC    AUC 1038   8.022  39.595   7.992
 1119AUC    AUC 1039   8.022  38.988   7.011
 1120AUC    AUC 1040   8.022  39.292   7.011
 1121AUC    AUC 1041   8.022  39.595   7.011
 1122AUC    AUC 1042   8.268  39.140   7.899
 1123AUC    AUC 1043   8.268  39.443   7.899
 1124AUC    AUC 1044   8.268  39.140   7.105
 1125AUC    AUC 1045   8.268  39.443   7.105
 1126AUC    AUC 1046   7.777  39.140   7.899
 1127AUC    AUC 1047   7.777  39.443   7.899
 1128AUC    AUC 1048   7.777  39.140   7.105
 1129AUC    AUC 1049   7.777  39.443   7.105
 1130AUC    AUC 1050   8.419  39.537   7.350
 1131AUC    AUC 1051   8.419  39.537   7.653
 1132AUC    AUC 1052   7.625  39.537   7.350
 1133AUC    AUC 1053   7.625  39.537   7.653
 1134AUC    AUC 1054   8.419  39.046   7.350
 1135AUC    AUC 1055   8.419  39.046   7.653
 1136AUC    AUC 1056   7.625  39.046   7.350
 1137AUC    AUC 1057   7.625  39.046   7.653
 1138AUC    AUC 1058   7.870  39.689   7.747
 1139AUC    AUC 1059   8.174  39.689   7.747
 1140AUC    AUC 1060   7.870  38.894   7.747
 1141AUC    AUC 1061   8.174  38.894   7.747
 1142AUC    AUC 1062   7.870  39.689   7.256
 1143AUC    AUC 1063   8.174  39.689   7.256
 1144AUC    AUC 1064   7.870  38.894   7.256
 1145AUC    AUC 1065   8.174  38.894   7.256
 1146AUSL   AUS 1066   8.431  39.292   8.082
 1147AUSL   AUS 1067   8.287  38.875   8.012
 1148AUL    AUL 1068   8.513  38.988   8.296
 1149THSLK    S 1069   8.401  38.687   8.156
 1150ETHY    C1 1070   8.467  38.302   8.391
 1151ETHY    C1 1071   8.610  37.894   8.710
 1152ETHY    C1 1072   8.819  37.558   9.066
 1153ETHY    C1 1073   9.085  37.300   9.450
 1154ETHY    C1 1074   9.401  37.124   9.855
 1155THSLK    S 1075   8.527  39.242   8.326
 1156ETHY    C1 1076   8.743  39.056   8.681
 1157ETHY    C1 1077   9.018  38.921   9.124
 1158ETHY    C1 1078   9.299  38.891   9.575
 1159ETHY    C1 1079   9.577  38.960  10.025
 1160ETHY    C1 1080   9.846  39.128  10.466
 1161AUSL   AUS 1081   8.186  39.140   8.175
 1162AUSL   AUS 1082   7.859  39.443   8.175
 1163AUL    AUL 1083   8.022  39.292   8.483
 1164THSLK    S 1084   8.264  39.087   8.417
 1165ETHY    C1 1085   8.341  38.837   8.790
 1166ETHY    C1 1086   8.457  38.620   9.269
 1167ETHY    C1 1087   8.594  38.504   9.769
 1168ETHY    C1 1088   8.744  38.486  10.281
 1169ETHY    C1 1089   8.903  38.567  10.794
 1170THSLK    S 1090   7.772  39.400   8.431
 1171ETHY    C1 1091   7.690  39.288   8.864
 1172ETHY    C1 1092   7.576  39.242   9.388
 1173ETHY    C1 1093   7.444  39.300   9.901
 1174ETHY    C1 1094   7.293  39.453  10.389
 1175ETHY    C1 1095   7.127  39.697  10.844
 1176AUSL   AUS 1096   8.186  39.443   8.175
 1177AUSL   AUS 1097   8.532  39.556   7.918
 1178AUL    AUL 1098   8.513  39.595   8.296
 1179THSLK    S 1099   8.273  39.497   8.414
 1180ETHY    C1 1100   8.354  39.748   8.786
 1181ETHY    C1 1101   8.468  39.964   9.265
 1182ETHY    C1 1102   8.601  40.080   9.767
 1183ETHY    C1 1103   8.751  40.098  10.279
 1184ETHY    C1 1104   8.917  40.018  10.789
 1185THSLK    S 1105   8.706  39.658   8.080
 1186ETHY    C1 1106   9.070  39.668   8.354
 1187ETHY    C1 1107   9.486  39.770   8.680
 1188ETHY    C1 1108   9.866  39.969   8.995
 1189ETHY    C1 1109  10.201  40.256   9.296
 1190ETHY    C1 1110  10.482  40.624   9.577
 1191AUSL   AUS 1111   8.431  39.292   6.922
 1192AUSL   AUS 1112   8.287  39.708   6.992
 1193AUL    AUL 1113   8.513  39.595   6.707
 1194THSLK    S 1114   8.534  39.242   6.681
 1195ETHY    C1 1115   8.755  39.056   6.329
 1196ETHY    C1 1116   9.028  38.921   5.885
 1197ETHY    C1 1117   9.306  38.891   5.432
 1198ETHY    C1 1118   9.584  38.960   4.982
 1199ETHY    C1 1119   9.858  39.128   4.545
 1200THSLK    S 1120   8.465  39.823   6.825
 1201ETHY    C1 1121   8.753  39.928   6.488
 1202ETHY    C1 1122   9.053  40.132   6.090
 1203ETHY    C1 1123   9.296  40.420   5.714
 1204ETHY    C1 1124   9.480  40.784   5.371
 1205ETHY    C1 1125   9.604  41.215   5.065
 1206AUSL   AUS 1126   8.186  39.140   6.828
 1207AUSL   AUS 1127   8.532  39.027   7.085
 1208AUL    AUL 1128   8.513  38.988   6.707
 1209THSLK    S 1129   8.669  38.835   6.944
 1210ETHY    C1 1130   8.877  38.492   6.729
 1211ETHY    C1 1131   9.178  38.150   6.442
 1212ETHY    C1 1132   9.529  37.897   6.133
 1213ETHY    C1 1133   9.923  37.735   5.812
 1214ETHY    C1 1134  10.352  37.664   5.486
 1215THSLK    S 1135   8.273  39.086   6.590
 1216ETHY    C1 1136   8.354  38.835   6.217
 1217ETHY    C1 1137   8.468  38.619   5.738
 1218ETHY    C1 1138   8.601  38.503   5.236
 1219ETHY    C1 1139   8.751  38.485   4.725
 1220ETHY    C1 1140   8.917  38.565   4.214
 1221AUSL   AUS 1141   8.186  39.443   6.828
 1222AUSL   AUS 1142   7.859  39.140   6.828
 1223AUL    AUL 1143   8.022  39.292   6.520
 1224THSLK    S 1144   7.764  39.086   6.592
 1225ETHY    C1 1145   7.627  38.838   6.235
 1226ETHY    C1 1146   7.467  38.624   5.767
 1227ETHY    C1 1147   7.320  38.509   5.269
 1228ETHY    C1 1148   7.193  38.490   4.751
 1229ETHY    C1 1149   7.088  38.566   4.224
 1230THSLK    S 1150   8.289  39.401   6.578
 1231ETHY    C1 1151   8.430  39.286   6.160
 1232ETHY    C1 1152   8.588  39.239   5.647
 1233ETHY    C1 1153   8.731  39.295   5.138
 1234ETHY    C1 1154   8.859  39.449   4.643
 1235ETHY    C1 1155   8.970  39.697   4.174
 1236AUSL   AUS 1156   7.613  39.292   8.082
 1237AUSL   AUS 1157   7.757  39.708   8.012
 1238AUL    AUL 1158   7.531  39.595   8.296
 1239THSLK    S 1159   7.510  39.242   8.322
 1240ETHY    C1 1160   7.289  39.056   8.674
 1241ETHY    C1 1161   7.016  38.921   9.118
 1242ETHY    C1 1162   6.739  38.891   9.571
 1243ETHY    C1 1163   6.461  38.960  10.021
 1244ETHY    C1 1164   6.186  39.128  10.458
 1245THSLK    S 1165   7.637  39.837   8.202
 1246ETHY    C1 1166   7.568  40.006   8.620
 1247ETHY    C1 1167   7.426  40.259   9.073
 1248ETHY    C1 1168   7.220  40.560   9.460
 1249ETHY    C1 1169   6.953  40.899   9.775
 1250ETHY    C1 1170   6.633  41.266  10.013
 1251AUSL   AUS 1171   7.859  39.140   8.175
 1252AUSL   AUS 1172   7.512  39.027   7.918
 1253AUL    AUL 1173   7.531  38.988   8.296
 1254THSLK    S 1174   7.334  38.863   8.029
 1255ETHY    C1 1175   6.966  38.610   8.125
 1256ETHY    C1 1176   6.551  38.331   8.323
 1257ETHY    C1 1177   6.173  38.091   8.611
 1258ETHY    C1 1178   5.839  37.895   8.978
 1259ETHY    C1 1179   5.553  37.749   9.415
 1260THSLK    S 1180   7.756  39.088   8.410
 1261ETHY    C1 1181   7.614  38.841   8.766
 1262ETHY    C1 1182   7.456  38.626   9.233
 1263ETHY    C1 1183   7.313  38.510   9.733
 1264ETHY    C1 1184   7.186  38.492  10.250
 1265ETHY    C1 1185   7.074  38.570  10.775
 1266AUSL   AUS 1186   7.613  39.292   6.922
 1267AUSL   AUS 1187   7.757  38.875   6.992
 1268AUL    AUL 1188   7.531  38.988   6.707
 1269THSLK    S 1189   7.518  39.242   6.677
 1270ETHY    C1 1190   7.301  39.056   6.322
 1271ETHY    C1 1191   7.026  38.921   5.879
 1272ETHY    C1 1192   6.745  38.891   5.429
 1273ETHY    C1 1193   6.467  38.960   4.978
 1274ETHY    C1 1194   6.199  39.128   4.537
 1275THSLK    S 1195   7.585  38.701   6.872
 1276ETHY    C1 1196   7.300  38.380   6.717
 1277ETHY    C1 1197   6.999  38.021   6.453
 1278ETHY    C1 1198   6.754  37.698   6.109
 1279ETHY    C1 1199   6.570  37.415   5.696
 1280ETHY    C1 1200   6.451  37.175   5.223
 1281AUSL   AUS 1201   7.859  39.443   6.828
 1282AUSL   AUS 1202   7.512  39.556   7.085
 1283AUL    AUL 1203   7.531  39.595   6.707
 1284THSLK    S 1204   7.381  39.686   6.893
 1285ETHY    C1 1205   7.175  39.786   6.499
 1286ETHY    C1 1206   6.873  39.950   6.085
 1287ETHY    C1 1207   6.519  40.162   5.748
 1288ETHY    C1 1208   6.126  40.416   5.494
 1289ETHY    C1 1209   5.701  40.709   5.324
 1290THSLK    S 1210   7.780  39.402   6.571
 1291ETHY    C1 1211   7.703  39.290   6.136
 1292ETHY    C1 1212   7.587  39.245   5.612
 1293ETHY    C1 1213   7.451  39.301   5.101
 1294ETHY    C1 1214   7.301  39.455   4.613
 1295ETHY    C1 1215   7.141  39.700   4.156
 1296AUSL   AUS 1216   8.602  39.701   7.502
 1297AUSL   AUS 1217   8.532  39.556   7.085
 1298AUL    AUL 1218   8.816  39.782   7.198
 1299THSLK    S 1219   8.711  39.659   6.930
 1300ETHY    C1 1220   9.078  39.670   6.659
 1301ETHY    C1 1221   9.493  39.772   6.332
 1302ETHY    C1 1222   9.871  39.970   6.014
 1303ETHY    C1 1223  10.205  40.257   5.713
 1304ETHY    C1 1224  10.491  40.627   5.438
 1305THSLK    S 1225   8.870  39.757   7.506
 1306ETHY    C1 1226   9.322  39.818   7.508
 1307ETHY    C1 1227   9.836  39.977   7.507
 1308ETHY    C1 1228  10.304  40.231   7.505
 1309ETHY    C1 1229  10.717  40.568   7.506
 1310ETHY    C1 1230  11.069  40.982   7.509
 1311AUSL   AUS 1231   8.696  39.455   7.350
 1312AUSL   AUS 1232   8.696  39.128   7.653
 1313AUL    AUL 1233   9.004  39.292   7.502
 1314THSLK    S 1234   8.955  39.498   7.348
 1315ETHY    C1 1235   9.400  39.428   7.278
 1316ETHY    C1 1236   9.931  39.435   7.190
 1317ETHY    C1 1237  10.444  39.545   7.101
 1318ETHY    C1 1238  10.929  39.751   7.017
 1319ETHY    C1 1239  11.376  40.048   6.940
 1320THSLK    S 1240   8.928  38.990   7.662
 1321ETHY    C1 1241   9.274  38.701   7.728
 1322ETHY    C1 1242   9.735  38.434   7.809
 1323ETHY    C1 1243  10.232  38.265   7.892
 1324ETHY    C1 1244  10.753  38.193   7.980
 1325ETHY    C1 1245  11.288  38.219   8.071
 1326AUSL   AUS 1246   8.696  39.455   7.653
 1327AUSL   AUS 1247   8.439  39.802   7.766
 1328AUL    AUL 1248   8.816  39.782   7.805
 1329THSLK    S 1249   8.622  39.921   7.926
 1330ETHY    C1 1250   8.994  40.076   8.139
 1331ETHY    C1 1251   9.394  40.341   8.385
 1332ETHY    C1 1252   9.728  40.685   8.615
 1333ETHY    C1 1253   9.990  41.098   8.827
 1334ETHY    C1 1254  10.177  41.570   9.019
 1335THSLK    S 1255   8.954  39.498   7.664
 1336ETHY    C1 1256   9.398  39.428   7.738
 1337ETHY    C1 1257   9.929  39.435   7.825
 1338ETHY    C1 1258  10.443  39.545   7.910
 1339ETHY    C1 1259  10.927  39.751   7.994
 1340ETHY    C1 1260  11.374  40.048   8.078
 1341AUSL   AUS 1261   7.442  39.701   7.502
 1342AUSL   AUS 1262   7.512  39.556   7.918
 1343AUL    AUL 1263   7.228  39.782   7.805
 1344THSLK    S 1264   7.376  39.679   8.109
 1345ETHY    C1 1265   7.167  39.775   8.503
 1346ETHY    C1 1266   6.866  39.941   8.917
 1347ETHY    C1 1267   6.515  40.156   9.254
 1348ETHY    C1 1268   6.121  40.410   9.509
 1349ETHY    C1 1269   5.692  40.697   9.678
 1350THSLK    S 1270   7.226  39.841   7.506
 1351ETHY    C1 1271   6.970  40.219   7.508
 1352ETHY    C1 1272   6.597  40.607   7.507
 1353ETHY    C1 1273   6.161  40.913   7.505
 1354ETHY    C1 1274   5.675  41.131   7.506
 1355ETHY    C1 1275   5.148  41.261   7.509
 1356AUSL   AUS 1276   7.348  39.455   7.350
 1357AUSL   AUS 1277   7.606  39.802   7.237
 1358AUL    AUL 1278   7.228  39.782   7.198
 1359THSLK    S 1279   7.117  39.570   7.303
 1360ETHY    C1 1280   6.770  39.758   7.075
 1361ETHY    C1 1281   6.310  39.950   6.872
 1362ETHY    C1 1282   5.812  40.100   6.758
 1363ETHY    C1 1283   5.291  40.210   6.733
 1364ETHY    C1 1284   4.757  40.280   6.796
 1365THSLK    S 1285   7.490  39.967   7.058
 1366ETHY    C1 1286   7.374  40.283   6.750
 1367ETHY    C1 1287   7.160  40.661   6.432
 1368ETHY    C1 1288   6.868  41.030   6.183
 1369ETHY    C1 1289   6.510  41.383   6.008
 1370ETHY    C1 1290   6.092  41.716   5.909
 1371AUSL   AUS 1291   7.348  39.455   7.653
 1372AUSL   AUS 1292   7.348  39.128   7.350
 1373AUL    AUL 1293   7.040  39.292   7.502
 1374THSLK    S 1294   7.090  39.054   7.390
 1375ETHY    C1 1295   6.646  39.019   7.486
 1376ETHY    C1 1296   6.115  38.938   7.518
 1377ETHY    C1 1297   5.601  38.813   7.458
 1378ETHY    C1 1298   5.117  38.645   7.311
 1379ETHY    C1 1299   4.670  38.438   7.083
 1380THSLK    S 1300   7.115  39.562   7.704
 1381ETHY    C1 1301   6.768  39.746   7.935
 1382ETHY    C1 1302   6.308  39.939   8.137
 1383ETHY    C1 1303   5.811  40.094   8.249
 1384ETHY    C1 1304   5.290  40.204   8.274
 1385ETHY    C1 1305   4.754  40.267   8.213
 1386AUSL   AUS 1306   8.602  38.882   7.502
 1387AUSL   AUS 1307   8.532  39.027   7.918
 1388AUL    AUL 1308   8.816  38.801   7.805
 1389THSLK    S 1309   8.818  38.742   7.506
 1390ETHY    C1 1310   9.074  38.364   7.508
 1391ETHY    C1 1311   9.447  37.976   7.507
 1392ETHY    C1 1312   9.883  37.670   7.505
 1393ETHY    C1 1313  10.369  37.452   7.506
 1394ETHY    C1 1314  10.896  37.322   7.509
 1395THSLK    S 1315   8.664  38.837   8.066
 1396ETHY    C1 1316   8.869  38.494   8.285
 1397ETHY    C1 1317   9.171  38.152   8.570
 1398ETHY    C1 1318   9.525  37.899   8.877
 1399ETHY    C1 1319   9.919  37.736   9.198
 1400ETHY    C1 1320  10.343  37.666   9.529
 1401AUSL   AUS 1321   8.696  39.128   7.350
 1402AUSL   AUS 1322   8.439  38.781   7.237
 1403AUL    AUL 1323   8.816  38.801   7.198
 1404THSLK    S 1324   8.929  38.990   7.350
 1405ETHY    C1 1325   9.277  38.701   7.289
 1406ETHY    C1 1326   9.736  38.434   7.206
 1407ETHY    C1 1327  10.233  38.265   7.118
 1408ETHY    C1 1328  10.755  38.193   7.031
 1409ETHY    C1 1329  11.290  38.219   6.947
 1410THSLK    S 1330   8.558  38.591   7.104
 1411ETHY    C1 1331   8.675  38.174   6.963
 1412ETHY    C1 1332   8.889  37.720   6.765
 1413ETHY    C1 1333   9.179  37.334   6.543
 1414ETHY    C1 1334   9.538  37.019   6.306
 1415ETHY    C1 1335   9.958  36.780   6.058
 1416AUSL   AUS 1336   7.442  38.882   7.502
 1417AUSL   AUS 1337   7.512  39.027   7.085
 1418AUL    AUL 1338   7.228  38.801   7.198
 1419THSLK    S 1339   7.339  38.856   6.973
 1420ETHY    C1 1340   6.974  38.599   6.877
 1421ETHY    C1 1341   6.558  38.322   6.679
 1422ETHY    C1 1342   6.178  38.085   6.392
 1423ETHY    C1 1343   5.844  37.889   6.025
 1424ETHY    C1 1344   5.562  37.737   5.587
 1425THSLK    S 1345   7.174  38.826   7.506
 1426ETHY    C1 1346   6.722  38.765   7.508
 1427ETHY    C1 1347   6.208  38.606   7.507
 1428ETHY    C1 1348   5.740  38.352   7.505
 1429ETHY    C1 1349   5.327  38.015   7.506
 1430ETHY    C1 1350   4.975  37.601   7.509
 1431AUSL   AUS 1351   7.348  39.128   7.653
 1432AUSL   AUS 1352   7.606  38.781   7.766
 1433AUL    AUL 1353   7.228  38.801   7.805
 1434THSLK    S 1354   7.418  38.637   7.880
 1435ETHY    C1 1355   7.044  38.380   7.926
 1436ETHY    C1 1356   6.646  38.040   8.052
 1437ETHY    C1 1357   6.313  37.678   8.255
 1438ETHY    C1 1358   6.051  37.304   8.529
 1439ETHY    C1 1359   5.860  36.926   8.870
 1440THSLK    S 1360   7.089  39.061   7.617
 1441ETHY    C1 1361   6.644  39.031   7.524
 1442ETHY    C1 1362   6.113  38.949   7.490
 1443ETHY    C1 1363   5.600  38.820   7.549
 1444ETHY    C1 1364   5.116  38.652   7.696
 1445ETHY    C1 1365   4.668  38.450   7.928
 1446AUSL   AUS 1366   8.022  39.872   7.911
 1447AUSL   AUS 1367   7.606  39.802   7.766
 1448AUL    AUL 1368   7.719  40.086   7.992
 1449THSLK    S 1369   7.486  39.961   7.950
 1450ETHY    C1 1370   7.369  40.273   8.261
 1451ETHY    C1 1371   7.155  40.653   8.578
 1452ETHY    C1 1372   6.865  41.024   8.824
 1453ETHY    C1 1373   6.507  41.378   9.000
 1454ETHY    C1 1374   6.086  41.706   9.102
 1455THSLK    S 1375   8.062  40.098   8.035
 1456ETHY    C1 1376   8.219  40.400   8.339
 1457ETHY    C1 1377   8.334  40.806   8.672
 1458ETHY    C1 1378   8.361  41.250   8.964
 1459ETHY    C1 1379   8.301  41.719   9.211
 1460ETHY    C1 1380   8.157  42.203   9.410
 1461AUSL   AUS 1381   7.870  39.965   7.665
 1462AUSL   AUS 1382   8.174  39.965   7.338
 1463AUL    AUL 1383   8.022  40.273   7.502
 1464THSLK    S 1384   7.911  40.213   7.774
 1465ETHY    C1 1385   8.020  40.623   7.942
 1466ETHY    C1 1386   8.064  41.130   8.118
 1467ETHY    C1 1387   8.007  41.638   8.265
 1468ETHY    C1 1388   7.854  42.135   8.383
 1469ETHY    C1 1389   7.611  42.612   8.472
 1470THSLK    S 1390   8.227  40.200   7.241
 1471ETHY    C1 1391   8.472  40.556   7.094
 1472ETHY    C1 1392   8.685  41.021   6.927
 1473ETHY    C1 1393   8.800  41.519   6.779
 1474ETHY    C1 1394   8.820  42.038   6.655
 1475ETHY    C1 1395   8.745  42.567   6.558
 1476AUSL   AUS 1396   8.174  39.965   7.665
 1477AUSL   AUS 1397   8.287  39.708   8.012
 1478AUL    AUL 1398   8.325  40.086   7.992
 1479THSLK    S 1399   8.459  39.821   8.184
 1480ETHY    C1 1400   8.744  39.924   8.524
 1481ETHY    C1 1401   9.046  40.128   8.921
 1482ETHY    C1 1402   9.291  40.418   9.294
 1483ETHY    C1 1403   9.475  40.781   9.638
 1484ETHY    C1 1404   9.594  41.211   9.948
 1485THSLK    S 1405   8.225  40.199   7.771
 1486ETHY    C1 1406   8.469  40.553   7.922
 1487ETHY    C1 1407   8.682  41.019   8.087
 1488ETHY    C1 1408   8.798  41.518   8.231
 1489ETHY    C1 1409   8.817  42.036   8.356
 1490ETHY    C1 1410   8.742  42.564   8.458
 1491AUSL   AUS 1411   8.022  38.712   7.911
 1492AUSL   AUS 1412   8.439  38.781   7.766
 1493AUL    AUL 1413   8.325  38.497   7.992
 1494THSLK    S 1414   7.978  38.457   7.990
 1495ETHY    C1 1415   7.818  38.053   8.128
 1496ETHY    C1 1416   7.704  37.572   8.341
 1497ETHY    C1 1417   7.679  37.111   8.605
 1498ETHY    C1 1418   7.738  36.681   8.915
 1499ETHY    C1 1419   7.879  36.289   9.263
 1500THSLK    S 1420   8.554  38.592   7.908
 1501ETHY    C1 1421   8.670  38.176   8.052
 1502ETHY    C1 1422   8.884  37.723   8.248
 1503ETHY    C1 1423   9.176  37.335   8.467
 1504ETHY    C1 1424   9.535  37.020   8.705
 1505ETHY    C1 1425   9.952  36.783   8.958
 1506AUSL   AUS 1426   7.870  38.618   7.665
 1507AUSL   AUS 1427   7.757  38.875   8.012
 1508AUL    AUL 1428   7.719  38.497   7.992
 1509THSLK    S 1429   7.817  38.378   7.745
 1510ETHY    C1 1430   7.572  37.997   7.801
 1511ETHY    C1 1431   7.359  37.512   7.897
 1512ETHY    C1 1432   7.244  37.009   8.025
 1513ETHY    C1 1433   7.225  36.500   8.186
 1514ETHY    C1 1434   7.299  35.997   8.374
 1515THSLK    S 1435   7.579  38.707   8.133
 1516ETHY    C1 1436   7.291  38.389   8.289
 1517ETHY    C1 1437   6.991  38.029   8.552
 1518ETHY    C1 1438   6.748  37.703   8.896
 1519ETHY    C1 1439   6.564  37.420   9.309
 1520ETHY    C1 1440   6.440  37.186   9.783
 1521AUSL   AUS 1441   8.174  38.618   7.665
 1522AUSL   AUS 1442   7.870  38.618   7.338
 1523AUL    AUL 1443   8.022  38.310   7.502
 1524THSLK    S 1444   7.819  38.375   7.266
 1525ETHY    C1 1445   7.575  37.993   7.215
 1526ETHY    C1 1446   7.362  37.509   7.117
 1527ETHY    C1 1447   7.246  37.007   6.984
 1528ETHY    C1 1448   7.227  36.498   6.825
 1529ETHY    C1 1449   7.303  35.993   6.642
 1530THSLK    S 1450   8.131  38.362   7.749
 1531ETHY    C1 1451   8.021  37.926   7.821
 1532ETHY    C1 1452   7.978  37.400   7.928
 1533ETHY    C1 1453   8.035  36.888   8.059
 1534ETHY    C1 1454   8.188  36.400   8.213
 1535ETHY    C1 1455   8.430  35.947   8.388
 1536AUSL   AUS 1456   8.022  39.872   7.093
 1537AUSL   AUS 1457   8.439  39.802   7.237
 1538AUL    AUL 1458   8.325  40.086   7.011
 1539THSLK    S 1459   8.066  40.102   6.975
 1540ETHY    C1 1460   8.226  40.406   6.674
 1541ETHY    C1 1461   8.340  40.811   6.339
 1542ETHY    C1 1462   8.365  41.254   6.045
 1543ETHY    C1 1463   8.306  41.723   5.798
 1544ETHY    C1 1464   8.165  42.210   5.604
 1545THSLK    S 1465   8.626  39.923   7.085
 1546ETHY    C1 1466   9.000  40.079   6.876
 1547ETHY    C1 1467   9.398  40.343   6.629
 1548ETHY    C1 1468   9.731  40.687   6.395
 1549ETHY    C1 1469   9.993  41.099   6.184
 1550ETHY    C1 1470  10.184  41.573   5.998
 1551AUSL   AUS 1471   7.870  39.965   7.338
 1552AUSL   AUS 1472   7.757  39.708   6.992
 1553AUL    AUL 1473   7.719  40.086   7.011
 1554THSLK    S 1474   7.913  40.216   7.237
 1555ETHY    C1 1475   8.023  40.627   7.074
 1556ETHY    C1 1476   8.066  41.133   6.896
 1557ETHY    C1 1477   8.009  41.641   6.745
 1558ETHY    C1 1478   7.856  42.138   6.627
 1559ETHY    C1 1479   7.614  42.617   6.545
 1560THSLK    S 1480   7.643  39.843   6.802
 1561ETHY    C1 1481   7.577  40.015   6.385
 1562ETHY    C1 1482   7.434  40.267   5.932
 1563ETHY    C1 1483   7.225  40.566   5.544
 1564ETHY    C1 1484   6.959  40.904   5.230
 1565ETHY    C1 1485   6.643  41.277   4.993
 1566AUSL   AUS 1486   8.022  38.712   7.093
 1567AUSL   AUS 1487   7.606  38.781   7.237
 1568AUL    AUL 1488   7.719  38.497   7.011
 1569THSLK    S 1489   7.422  38.631   7.128
 1570ETHY    C1 1490   7.050  38.370   7.085
 1571ETHY    C1 1491   6.651  38.032   6.958
 1572ETHY    C1 1492   6.316  37.673   6.753
 1573ETHY    C1 1493   6.054  37.299   6.478
 1574ETHY    C1 1494   5.867  36.916   6.142
 1575THSLK    S 1495   7.982  38.453   7.019
 1576ETHY    C1 1496   7.825  38.047   6.885
 1577ETHY    C1 1497   7.710  37.567   6.671
 1578ETHY    C1 1498   7.683  37.108   6.404
 1579ETHY    C1 1499   7.743  36.677   6.094
 1580ETHY    C1 1500   7.887  36.282   5.751
 1581AUSL   AUS 1501   8.174  38.618   7.338
 1582AUSL   AUS 1502   8.287  38.875   6.992
 1583AUL    AUL 1503   8.325  38.497   7.011
 1584THSLK    S 1504   8.133  38.361   7.262
 1585ETHY    C1 1505   8.024  37.923   7.195
 1586ETHY    C1 1506   7.981  37.397   7.086
 1587ETHY    C1 1507   8.037  36.886   6.951
 1588ETHY    C1 1508   8.190  36.398   6.798
 1589ETHY    C1 1509   8.434  35.944   6.629
 1590THSLK    S 1510   8.407  38.685   6.853
 1591ETHY    C1 1511   8.476  38.299   6.621
 1592ETHY    C1 1512   8.618  37.891   6.300
 1593ETHY    C1 1513   8.825  37.555   5.942
 1594ETHY    C1 1514   9.091  37.298   5.559
 1595ETHY    C1 1515   9.411  37.120   5.158
 1596AUC    AUC 1516  40.243  14.083   7.502
 1597AUC    AUC 1517  40.489  14.083   7.350
 1598AUC    AUC 1518  40.489  14.083   7.653
 1599AUC    AUC 1519  39.998  14.083   7.350
 1600AUC    AUC 1520  39.998  14.083   7.653
 1601AUC    AUC 1521  40.091  14.328   7.502
 1602AUC    AUC 1522  40.395  14.328   7.502
 1603AUC    AUC 1523  40.091  13.837   7.502
 1604AUC    AUC 1524  40.395  13.837   7.502
 1605AUC    AUC 1525  40.243  13.931   7.747
 1606AUC    AUC 1526  40.243  14.234   7.747
 1607AUC    AUC 1527  40.243  13.931   7.256
 1608AUC    AUC 1528  40.243  14.234   7.256
 1609AUC    AUC 1529  40.734  14.083   7.198
 1610AUC    AUC 1530  40.734  14.083   7.502
 1611AUC    AUC 1531  40.734  14.083   7.805
 1612AUC    AUC 1532  39.752  14.083   7.198
 1613AUC    AUC 1533  39.752  14.083   7.502
 1614AUC    AUC 1534  39.752  14.083   7.805
 1615AUC    AUC 1535  39.940  14.573   7.502
 1616AUC    AUC 1536  40.243  14.573   7.502
 1617AUC    AUC 1537  40.546  14.573   7.502
 1618AUC    AUC 1538  39.940  13.592   7.502
 1619AUC    AUC 1539  40.243  13.592   7.502
 1620AUC    AUC 1540  40.546  13.592   7.502
 1621AUC    AUC 1541  40.243  13.779   7.992
 1622AUC    AUC 1542  40.243  14.083   7.992
 1623AUC    AUC 1543  40.243  14.386   7.992
 1624AUC    AUC 1544  40.243  13.779   7.011
 1625AUC    AUC 1545  40.243  14.083   7.011
 1626AUC    AUC 1546  40.243  14.386   7.011
 1627AUC    AUC 1547  40.489  13.931   7.899
 1628AUC    AUC 1548  40.489  14.234   7.899
 1629AUC    AUC 1549  40.489  13.931   7.105
 1630AUC    AUC 1550  40.489  14.234   7.105
 1631AUC    AUC 1551  39.998  13.931   7.899
 1632AUC    AUC 1552  39.998  14.234   7.899
 1633AUC    AUC 1553  39.998  13.931   7.105
 1634AUC    AUC 1554  39.998  14.234   7.105
 1635AUC    AUC 1555  40.640  14.328   7.350
 1636AUC    AUC 1556  40.640  14.328   7.653
 1637AUC    AUC 1557  39.846  14.328   7.350
 1638AUC    AUC 1558  39.846  14.328   7.653
 1639AUC    AUC 1559  40.640  13.837   7.350
 1640AUC    AUC 1560  40.640  13.837   7.653
 1641AUC    AUC 1561  39.846  13.837   7.350
 1642AUC    AUC 1562  39.846  13.837   7.653
 1643AUC    AUC 1563  40.091  14.480   7.747
 1644AUC    AUC 1564  40.395  14.480   7.747
 1645AUC    AUC 1565  40.091  13.685   7.747
 1646AUC    AUC 1566  40.395  13.685   7.747
 1647AUC    AUC 1567  40.091  14.480   7.256
 1648AUC    AUC 1568  40.395  14.480   7.256
 1649AUC    AUC 1569  40.091  13.685   7.256
 1650AUC    AUC 1570  40.395  13.685   7.256
 1651AUSL   AUS 1571  40.652  14.083   8.082
 1652AUSL   AUS 1572  40.508  13.666   8.012
 1653AUL    AUL 1573  40.734  13.779   8.296
 1654THSLK    S 1574  40.622  13.478   8.156
 1655ETHY    C1 1575  40.688  13.093   8.391
 1656ETHY    C1 1576  40.831  12.685   8.710
 1657ETHY    C1 1577  41.040  12.349   9.066
 1658ETHY    C1 1578  41.306  12.091   9.450
 1659ETHY    C1 1579  41.622  11.915   9.855
 1660THSLK    S 1580  40.748  14.033   8.326
 1661ETHY    C1 1581  40.964  13.847   8.681
 1662ETHY    C1 1582  41.239  13.712   9.124
 1663ETHY    C1 1583  41.520  13.682   9.575
 1664ETHY    C1 1584  41.798  13.751  10.025
 1665ETHY    C1 1585  42.067  13.919  10.466
 1666AUSL   AUS 1586  40.407  13.931   8.175
 1667AUSL   AUS 1587  40.080  14.234   8.175
 1668AUL    AUL 1588  40.243  14.083   8.483
 1669THSLK    S 1589  40.485  13.878   8.417
 1670ETHY    C1 1590  40.562  13.628   8.790
 1671ETHY    C1 1591  40.678  13.411   9.269
 1672ETHY    C1 1592  40.815  13.295   9.769
 1673ETHY    C1 1593  40.965  13.277  10.281
 1674ETHY    C1 1594  41.124  13.358  10.794
 1675THSLK    S 1595  39.993  14.191   8.431
 1676ETHY    C1 1596  39.911  14.079   8.864
 1677ETHY    C1 1597  39.797  14.033   9.388
 1678ETHY    C1 1598  39.665  14.091   9.901
 1679ETHY    C1 1599  39.514  14.244  10.389
 1680ETHY    C1 1600  39.348  14.488  10.844
 1681AUSL   AUS 1601  40.407  14.234   8.175
 1682AUSL   AUS 1602  40.753  14.347   7.918
 1683AUL    AUL 1603  40.734  14.386   8.296
 1684THSLK    S 1604  40.494  14.288   8.414
 1685ETHY    C1 1605  40.575  14.539   8.786
 1686ETHY    C1 1606  40.689  14.755   9.265
 1687ETHY    C1 1607  40.822  14.871   9.767
 1688ETHY    C1 1608  40.972  14.889  10.279
 1689ETHY    C1 1609  41.138  14.809  10.789
 1690THSLK    S 1610  40.927  14.449   8.080
 1691ETHY    C1 1611  41.291  14.459   8.354
 1692ETHY    C1 1612  41.707  14.561   8.680
 1693ETHY    C1 1613  42.087  14.760   8.995
 1694ETHY    C1 1614  42.422  15.047   9.296
 1695ETHY    C1 1615  42.703  15.415   9.577
 1696AUSL   AUS 1616  40.652  14.083   6.922
 1697AUSL   AUS 1617  40.508  14.499   6.992
 1698AUL    AUL 1618  40.734  14.386   6.707
 1699THSLK    S 1619  40.755  14.033   6.681
 1700ETHY    C1 1620  40.976  13.847   6.329
 1701ETHY    C1 1621  41.249  13.712   5.885
 1702ETHY    C1 1622  41.527  13.682   5.432
 1703ETHY    C1 1623  41.805  13.751   4.982
 1704ETHY    C1 1624  42.079  13.919   4.545
 1705THSLK    S 1625  40.686  14.614   6.825
 1706ETHY    C1 1626  40.974  14.719   6.488
 1707ETHY    C1 1627  41.274  14.923   6.090
 1708ETHY    C1 1628  41.517  15.211   5.714
 1709ETHY    C1 1629  41.701  15.575   5.371
 1710ETHY    C1 1630  41.825  16.006   5.065
 1711AUSL   AUS 1631  40.407  13.931   6.828
 1712AUSL   AUS 1632  40.753  13.818   7.085
 1713AUL    AUL 1633  40.734  13.779   6.707
 1714THSLK    S 1634  40.890  13.626   6.944
 1715ETHY    C1 1635  41.098  13.283   6.729
 1716ETHY    C1 1636  41.399  12.941   6.442
 1717ETHY    C1 1637  41.750  12.688   6.133
 1718ETHY    C1 1638  42.144  12.526   5.812
 1719ETHY    C1 1639  42.573  12.455   5.486
 1720THSLK    S 1640  40.494  13.877   6.590
 1721ETHY    C1 1641  40.575  13.626   6.217
 1722ETHY    C1 1642  40.689  13.410   5.738
 1723ETHY    C1 1643  40.822  13.294   5.236
 1724ETHY    C1 1644  40.972  13.276   4.725
 1725ETHY    C1 1645  41.138  13.356   4.214
 1726AUSL   AUS 1646  40.407  14.234   6.828
 1727AUSL   AUS 1647  40.080  13.931   6.828
 1728AUL    AUL 1648  40.243  14.083   6.520
 1729THSLK    S 1649  39.985  13.877   6.592
 1730ETHY    C1 1650  39.848  13.629   6.235
 1731ETHY    C1 1651  39.688  13.415   5.767
 1732ETHY    C1 1652  39.541  13.300   5.269
 1733ETHY    C1 1653  39.414  13.281   4.751
 1734ETHY    C1 1654  39.309  13.357   4.224
 1735THSLK    S 1655  40.510  14.192   6.578
 1736ETHY    C1 1656  40.651  14.077   6.160
 1737ETHY    C1 1657  40.809  14.030   5.647
 1738ETHY    C1 1658  40.952  14.086   5.138
 1739ETHY    C1 1659  41.080  14.240   4.643
 1740ETHY    C1 1660  41.191  14.488   4.174
 1741AUSL   AUS 1661  39.834  14.083   8.082
 1742AUSL   AUS 1662  39.978  14.499   8.012
 1743AUL    AUL 1663  39.752  14.386   8.296
 1744THSLK    S 1664  39.731  14.033   8.322
 1745ETHY    C1 1665  39.510  13.847   8.674
 1746ETHY    C1 1666  39.237  13.712   9.118
 1747ETHY    C1 1667  38.960  13.682   9.571
 1748ETHY    C1 1668  38.682  13.751  10.021
 1749ETHY    C1 1669  38.407  13.919  10.458
 1750THSLK    S 1670  39.858  14.628   8.202
 1751ETHY    C1 1671  39.789  14.797   8.620
 1752ETHY    C1 1672  39.647  15.050   9.073
 1753ETHY    C1 1673  39.441  15.351   9.460
 1754ETHY    C1 1674  39.174  15.690   9.775
 1755ETHY    C1 1675  38.854  16.057  10.013
 1756AUSL   AUS 1676  40.080  13.931   8.175
 1757AUSL   AUS 1677  39.733  13.818   7.918
 1758AUL    AUL 1678  39.752  13.779   8.296
 1759THSLK    S 1679  39.555  13.654   8.029
 1760ETHY    C1 1680  39.187  13.401   8.125
 1761ETHY    C1 1681  38.772  13.122   8.323
 1762ETHY    C1 1682  38.394  12.882   8.611
 1763ETHY    C1 1683  38.060  12.686   8.978
 1764ETHY    C1 1684  37.774  12.540   9.415
 1765THSLK    S 1685  39.977  13.879   8.410
 1766ETHY    C1 1686  39.835  13.632   8.766
 1767ETHY    C1 1687  39.677  13.417   9.233
 1768ETHY    C1 1688  39.534  13.301   9.733
 1769ETHY    C1 1689  39.407  13.283  10.250
 1770ETHY    C1 1690  39.295  13.361  10.775
 1771AUSL   AUS 1691  39.834  14.083   6.922
 1772AUSL   AUS 1692  39.978  13.666   6.992
 1773AUL    AUL 1693  39.752  13.779   6.707
 1774THSLK    S 1694  39.739  14.033   6.677
 1775ETHY    C1 1695  39.522  13.847   6.322
 1776ETHY    C1 1696  39.247  13.712   5.879
 1777ETHY    C1 1697  38.966  13.682   5.429
 1778ETHY    C1 1698  38.688  13.751   4.978
 1779ETHY    C1 1699  38.420  13.919   4.537
 1780THSLK    S 1700  39.806  13.492   6.872
 1781ETHY    C1 1701  39.521  13.171   6.717
 1782ETHY    C1 1702  39.220  12.812   6.453
 1783ETHY    C1 1703  38.975  12.489   6.109
 1784ETHY    C1 1704  38.791  12.206   5.696
 1785ETHY    C1 1705  38.672  11.966   5.223
 1786AUSL   AUS 1706  40.080  14.234   6.828
 1787AUSL   AUS 1707  39.733  14.347   7.085
 1788AUL    AUL 1708  39.752  14.386   6.707
 1789THSLK    S 1709  39.602  14.477   6.893
 1790ETHY    C1 1710  39.396  14.577   6.499
 1791ETHY    C1 1711  39.094  14.741   6.085
 1792ETHY    C1 1712  38.740  14.953   5.748
 1793ETHY    C1 1713  38.347  15.207   5.494
 1794ETHY    C1 1714  37.922  15.500   5.324
 1795THSLK    S 1715  40.001  14.193   6.571
 1796ETHY    C1 1716  39.924  14.081   6.136
 1797ETHY    C1 1717  39.808  14.036   5.612
 1798ETHY    C1 1718  39.672  14.092   5.101
 1799ETHY    C1 1719  39.522  14.246   4.613
 1800ETHY    C1 1720  39.362  14.491   4.156
 1801AUSL   AUS 1721  40.823  14.492   7.502
 1802AUSL   AUS 1722  40.753  14.347   7.085
 1803AUL    AUL 1723  41.037  14.573   7.198
 1804THSLK    S 1724  40.932  14.450   6.930
 1805ETHY    C1 1725  41.299  14.461   6.659
 1806ETHY    C1 1726  41.714  14.563   6.332
 1807ETHY    C1 1727  42.092  14.761   6.014
 1808ETHY    C1 1728  42.426  15.048   5.713
 1809ETHY    C1 1729  42.712  15.418   5.438
 1810THSLK    S 1730  41.091  14.548   7.506
 1811ETHY    C1 1731  41.543  14.609   7.508
 1812ETHY    C1 1732  42.057  14.768   7.507
 1813ETHY    C1 1733  42.525  15.022   7.505
 1814ETHY    C1 1734  42.938  15.359   7.506
 1815ETHY    C1 1735  43.290  15.773   7.509
 1816AUSL   AUS 1736  40.917  14.246   7.350
 1817AUSL   AUS 1737  40.917  13.919   7.653
 1818AUL    AUL 1738  41.225  14.083   7.502
 1819THSLK    S 1739  41.176  14.289   7.348
 1820ETHY    C1 1740  41.621  14.219   7.278
 1821ETHY    C1 1741  42.152  14.226   7.190
 1822ETHY    C1 1742  42.665  14.336   7.101
 1823ETHY    C1 1743  43.150  14.542   7.017
 1824ETHY    C1 1744  43.597  14.839   6.940
 1825THSLK    S 1745  41.149  13.781   7.662
 1826ETHY    C1 1746  41.495  13.492   7.728
 1827ETHY    C1 1747  41.956  13.225   7.809
 1828ETHY    C1 1748  42.453  13.056   7.892
 1829ETHY    C1 1749  42.974  12.984   7.980
 1830ETHY    C1 1750  43.509  13.010   8.071
 1831AUSL   AUS 1751  40.917  14.246   7.653
 1832AUSL   AUS 1752  40.660  14.593   7.766
 1833AUL    AUL 1753  41.037  14.573   7.805
 1834THSLK    S 1754  40.843  14.712   7.926
 1835ETHY    C1 1755  41.215  14.867   8.139
 1836ETHY    C1 1756  41.615  15.132   8.385
 1837ETHY    C1 1757  41.949  15.476   8.615
 1838ETHY    C1 1758  42.211  15.889   8.827
 1839ETHY    C1 1759  42.398  16.361   9.019
 1840THSLK    S 1760  41.175  14.289   7.664
 1841ETHY    C1 1761  41.619  14.219   7.738
 1842ETHY    C1 1762  42.150  14.226   7.825
 1843ETHY    C1 1763  42.664  14.336   7.910
 1844ETHY    C1 1764  43.148  14.542   7.994
 1845ETHY    C1 1765  43.595  14.839   8.078
 1846AUSL   AUS 1766  39.663  14.492   7.502
 1847AUSL   AUS 1767  39.733  14.347   7.918
 1848AUL    AUL 1768  39.449  14.573   7.805
 1849THSLK    S 1769  39.597  14.470   8.109
 1850ETHY    C1 1770  39.388  14.566   8.503
 1851ETHY    C1 1771  39.087  14.732   8.917
 1852ETHY    C1 1772  38.736  14.947   9.254
 1853ETHY    C1 1773  38.342  15.201   9.509
 1854ETHY    C1 1774  37.913  15.488   9.678
 1855THSLK    S 1775  39.447  14.632   7.506
 1856ETHY    C1 1776  39.191  15.010   7.508
 1857ETHY    C1 1777  38.818  15.398   7.507
 1858ETHY    C1 1778  38.382  15.704   7.505
 1859ETHY    C1 1779  37.896  15.922   7.506
 1860ETHY    C1 1780  37.369  16.052   7.509
 1861AUSL   AUS 1781  39.569  14.246   7.350
 1862AUSL   AUS 1782  39.827  14.593   7.237
 1863AUL    AUL 1783  39.449  14.573   7.198
 1864THSLK    S 1784  39.338  14.361   7.303
 1865ETHY    C1 1785  38.991  14.549   7.075
 1866ETHY    C1 1786  38.531  14.741   6.872
 1867ETHY    C1 1787  38.033  14.891   6.758
 1868ETHY    C1 1788  37.512  15.001   6.733
 1869ETHY    C1 1789  36.978  15.071   6.796
 1870THSLK    S 1790  39.711  14.758   7.058
 1871ETHY    C1 1791  39.595  15.074   6.750
 1872ETHY    C1 1792  39.381  15.452   6.432
 1873ETHY    C1 1793  39.089  15.821   6.183
 1874ETHY    C1 1794  38.731  16.174   6.008
 1875ETHY    C1 1795  38.313  16.507   5.909
 1876AUSL   AUS 1796  39.569  14.246   7.653
 1877AUSL   AUS 1797  39.569  13.919   7.350
 1878AUL    AUL 1798  39.261  14.083   7.502
 1879THSLK    S 1799  39.311  13.845   7.390
 1880ETHY    C1 1800  38.867  13.810   7.486
 1881ETHY    C1 1801  38.336  13.729   7.518
 1882ETHY    C1 1802  37.822  13.604   7.458
 1883ETHY    C1 1803  37.338  13.436   7.311
 1884ETHY    C1 1804  36.891  13.229   7.083
 1885THSLK    S 1805  39.336  14.353   7.704
 1886ETHY    C1 1806  38.989  14.537   7.935
 1887ETHY    C1 1807  38.529  14.730   8.137
 1888ETHY    C1 1808  38.032  14.885   8.249
 1889ETHY    C1 1809  37.511  14.995   8.274
 1890ETHY    C1 1810  36.975  15.058   8.213
 1891AUSL   AUS 1811  40.823  13.673   7.502
 1892AUSL   AUS 1812  40.753  13.818   7.918
 1893AUL    AUL 1813  41.037  13.592   7.805
 1894THSLK    S 1814  41.039  13.533   7.506
 1895ETHY    C1 1815  41.295  13.155   7.508
 1896ETHY    C1 1816  41.668  12.767   7.507
 1897ETHY    C1 1817  42.104  12.461   7.505
 1898ETHY    C1 1818  42.590  12.243   7.506
 1899ETHY    C1 1819  43.117  12.113   7.509
 1900THSLK    S 1820  40.885  13.628   8.066
 1901ETHY    C1 1821  41.090  13.285   8.285
 1902ETHY    C1 1822  41.392  12.943   8.570
 1903ETHY    C1 1823  41.746  12.690   8.877
 1904ETHY    C1 1824  42.140  12.527   9.198
 1905ETHY    C1 1825  42.564  12.457   9.529
 1906AUSL   AUS 1826  40.917  13.919   7.350
 1907AUSL   AUS 1827  40.660  13.572   7.237
 1908AUL    AUL 1828  41.037  13.592   7.198
 1909THSLK    S 1829  41.150  13.781   7.350
 1910ETHY    C1 1830  41.498  13.492   7.289
 1911ETHY    C1 1831  41.957  13.225   7.206
 1912ETHY    C1 1832  42.454  13.056   7.118
 1913ETHY    C1 1833  42.976  12.984   7.031
 1914ETHY    C1 1834  43.511  13.010   6.947
 1915THSLK    S 1835  40.779  13.382   7.104
 1916ETHY    C1 1836  40.896  12.965   6.963
 1917ETHY    C1 1837  41.110  12.511   6.765
 1918ETHY    C1 1838  41.400  12.125   6.543
 1919ETHY    C1 1839  41.759  11.810   6.306
 1920ETHY    C1 1840  42.179  11.571   6.058
 1921AUSL   AUS 1841  39.663  13.673   7.502
 1922AUSL   AUS 1842  39.733  13.818   7.085
 1923AUL    AUL 1843  39.449  13.592   7.198
 1924THSLK    S 1844  39.560  13.647   6.973
 1925ETHY    C1 1845  39.195  13.390   6.877
 1926ETHY    C1 1846  38.779  13.113   6.679
 1927ETHY    C1 1847  38.399  12.876   6.392
 1928ETHY    C1 1848  38.065  12.680   6.025
 1929ETHY    C1 1849  37.783  12.528   5.587
 1930THSLK    S 1850  39.395  13.617   7.506
 1931ETHY    C1 1851  38.943  13.556   7.508
 1932ETHY    C1 1852  38.429  13.397   7.507
 1933ETHY    C1 1853  37.961  13.143   7.505
 1934ETHY    C1 1854  37.548  12.806   7.506
 1935ETHY    C1 1855  37.196  12.392   7.509
 1936AUSL   AUS 1856  39.569  13.919   7.653
 1937AUSL   AUS 1857  39.827  13.572   7.766
 1938AUL    AUL 1858  39.449  13.592   7.805
 1939THSLK    S 1859  39.639  13.428   7.880
 1940ETHY    C1 1860  39.265  13.171   7.926
 1941ETHY    C1 1861  38.867  12.831   8.052
 1942ETHY    C1 1862  38.534  12.469   8.255
 1943ETHY    C1 1863  38.272  12.095   8.529
 1944ETHY    C1 1864  38.081  11.717   8.870
 1945THSLK    S 1865  39.310  13.852   7.617
 1946ETHY    C1 1866  38.865  13.822   7.524
 1947ETHY    C1 1867  38.334  13.740   7.490
 1948ETHY    C1 1868  37.821  13.611   7.549
 1949ETHY    C1 1869  37.337  13.443   7.696
 1950ETHY    C1 1870  36.889  13.241   7.928
 1951AUSL   AUS 1871  40.243  14.663   7.911
 1952AUSL   AUS 1872  39.827  14.593   7.766
 1953AUL    AUL 1873  39.940  14.877   7.992
 1954THSLK    S 1874  39.707  14.752   7.950
 1955ETHY    C1 1875  39.590  15.064   8.261
 1956ETHY    C1 1876  39.376  15.444   8.578
 1957ETHY    C1 1877  39.086  15.815   8.824
 1958ETHY    C1 1878  38.728  16.169   9.000
 1959ETHY    C1 1879  38.307  16.497   9.102
 1960THSLK    S 1880  40.283  14.889   8.035
 1961ETHY    C1 1881  40.440  15.191   8.339
 1962ETHY    C1 1882  40.555  15.597   8.672
 1963ETHY    C1 1883  40.582  16.041   8.964
 1964ETHY    C1 1884  40.522  16.510   9.211
 1965ETHY    C1 1885  40.378  16.994   9.410
 1966AUSL   AUS 1886  40.091  14.756   7.665
 1967AUSL   AUS 1887  40.395  14.756   7.338
 1968AUL    AUL 1888  40.243  15.064   7.502
 1969THSLK    S 1889  40.132  15.004   7.774
 1970ETHY    C1 1890  40.241  15.414   7.942
 1971ETHY    C1 1891  40.285  15.921   8.118
 1972ETHY    C1 1892  40.228  16.429   8.265
 1973ETHY    C1 1893  40.075  16.926   8.383
 1974ETHY    C1 1894  39.832  17.403   8.472
 1975THSLK    S 1895  40.448  14.991   7.241
 1976ETHY    C1 1896  40.693  15.347   7.094
 1977ETHY    C1 1897  40.906  15.812   6.927
 1978ETHY    C1 1898  41.021  16.310   6.779
 1979ETHY    C1 1899  41.041  16.829   6.655
 1980ETHY    C1 1900  40.966  17.358   6.558
 1981AUSL   AUS 1901  40.395  14.756   7.665
 1982AUSL   AUS 1902  40.508  14.499   8.012
 1983AUL    AUL 1903  40.546  14.877   7.992
 1984THSLK    S 1904  40.680  14.612   8.184
 1985ETHY    C1 1905  40.965  14.715   8.524
 1986ETHY    C1 1906  41.267  14.919   8.921
 1987ETHY    C1 1907  41.512  15.209   9.294
 1988ETHY    C1 1908  41.696  15.572   9.638
 1989ETHY    C1 1909  41.815  16.002   9.948
 1990THSLK    S 1910  40.446  14.990   7.771
 1991ETHY    C1 1911  40.690  15.344   7.922
 1992ETHY    C1 1912  40.903  15.810   8.087
 1993ETHY    C1 1913  41.019  16.309   8.231
 1994ETHY    C1 1914  41.038  16.827   8.356
 1995ETHY    C1 1915  40.963  17.355   8.458
 1996AUSL   AUS 1916  40.243  13.503   7.911
 1997AUSL   AUS 1917  40.660  13.572   7.766
 1998AUL    AUL 1918  40.546  13.288   7.992
 1999THSLK    S 1919  40.199  13.248   7.990
 2000ETHY    C1 1920  40.039  12.844   8.128
 2001ETHY    C1 1921  39.925  12.363   8.341
 2002ETHY    C1 1922  39.900  11.902   8.605
 2003ETHY    C1 1923  39.959  11.472   8.915
 2004ETHY    C1 1924  40.100  11.080   9.263
 2005THSLK    S 1925  40.775  13.383   7.908
 2006ETHY    C1 1926  40.891  12.967   8.052
 2007ETHY    C1 1927  41.105  12.514   8.248
 2008ETHY    C1 1928  41.397  12.126   8.467
 2009ETHY    C1 1929  41.756  11.811   8.705
 2010ETHY    C1 1930  42.173  11.574   8.958
 2011AUSL   AUS 1931  40.091  13.409   7.665
 2012AUSL   AUS 1932  39.978  13.666   8.012
 2013AUL    AUL 1933  39.940  13.288   7.992
 2014THSLK    S 1934  40.038  13.169   7.745
 2015ETHY    C1 1935  39.793  12.788   7.801
 2016ETHY    C1 1936  39.580  12.303   7.897
 2017ETHY    C1 1937  39.465  11.800   8.025
 2018ETHY    C1 1938  39.446  11.291   8.186
 2019ETHY    C1 1939  39.520  10.788   8.374
 2020THSLK    S 1940  39.800  13.498   8.133
 2021ETHY    C1 1941  39.512  13.180   8.289
 2022ETHY    C1 1942  39.212  12.820   8.552
 2023ETHY    C1 1943  38.969  12.494   8.896
 2024ETHY    C1 1944  38.785  12.211   9.309
 2025ETHY    C1 1945  38.661  11.977   9.783
 2026AUSL   AUS 1946  40.395  13.409   7.665
 2027AUSL   AUS 1947  40.091  13.409   7.338
 2028AUL    AUL 1948  40.243  13.101   7.502
 2029THSLK    S 1949  40.040  13.166   7.266
 2030ETHY    C1 1950  39.796  12.784   7.215
 2031ETHY    C1 1951  39.583  12.300   7.117
 2032ETHY    C1 1952  39.467  11.798   6.984
 2033ETHY    C1 1953  39.448  11.289   6.825
 2034ETHY    C1 1954  39.524  10.784   6.642
 2035THSLK    S 1955  40.352  13.153   7.749
 2036ETHY    C1 1956  40.242  12.717   7.821
 2037ETHY    C1 1957  40.199  12.191   7.928
 2038ETHY    C1 1958  40.256  11.679   8.059
 2039ETHY    C1 1959  40.409  11.191   8.213
 2040ETHY    C1 1960  40.651  10.738   8.388
 2041AUSL   AUS 1961  40.243  14.663   7.093
 2042AUSL   AUS 1962  40.660  14.593   7.237
 2043AUL    AUL 1963  40.546  14.877   7.011
 2044THSLK    S 1964  40.287  14.893   6.975
 2045ETHY    C1 1965  40.447  15.197   6.674
 2046ETHY    C1 1966  40.561  15.602   6.339
 2047ETHY    C1 1967  40.586  16.045   6.045
 2048ETHY    C1 1968  40.527  16.514   5.798
 2049ETHY    C1 1969  40.386  17.001   5.604
 2050THSLK    S 1970  40.847  14.714   7.085
 2051ETHY    C1 1971  41.221  14.870   6.876
 2052ETHY    C1 1972  41.619  15.134   6.629
 2053ETHY    C1 1973  41.952  15.478   6.395
 2054ETHY    C1 1974  42.214  15.890   6.184
 2055ETHY    C1 1975  42.405  16.364   5.998
 2056AUSL   AUS 1976  40.091  14.756   7.338
 2057AUSL   AUS 1977  39.978  14.499   6.992
 2058AUL    AUL 1978  39.940  14.877   7.011
 2059THSLK    S 1979  40.134  15.007   7.237
 2060ETHY    C1 1980  40.244  15.418   7.074
 2061ETHY    C1 1981  40.287  15.924   6.896
 2062ETHY    C1 1982  40.230  16.432   6.745
 2063ETHY    C1 1983  40.077  16.929   6.627
 2064ETHY    C1 1984  39.835  17.408   6.545
 2065THSLK    S 1985  39.864  14.634   6.802
 2066ETHY    C1 1986  39.798  14.806   6.385
 2067ETHY    C1 1987  39.655  15.058   5.932
 2068ETHY    C1 1988  39.446  15.357   5.544
 2069ETHY    C1 1989  39.180  15.695   5.230
 2070ETHY    C1 1990  38.864  16.068   4.993
 2071AUSL   AUS 1991  40.243  13.503   7.093
 2072AUSL   AUS 1992  39.827  13.572   7.237
 2073AUL    AUL 1993  39.940  13.288   7.011
 2074THSLK    S 1994  39.643  13.422   7.128
 2075ETHY    C1 1995  39.271  13.161   7.085
 2076ETHY    C1 1996  38.872  12.823   6.958
 2077ETHY    C1 1997  38.537  12.464   6.753
 2078ETHY    C1 1998  38.275  12.090   6.478
 2079ETHY    C1 1999  38.088  11.707   6.142
 2080THSLK    S 2000  40.203  13.244   7.019
 2081ETHY    C1 2001  40.046  12.838   6.885
 2082ETHY    C1 2002  39.931  12.358   6.671
 2083ETHY    C1 2003  39.904  11.899   6.404
 2084ETHY    C1 2004  39.964  11.468   6.094
 2085ETHY    C1 2005  40.108  11.073   5.751
 2086AUSL   AUS 2006  40.395  13.409   7.338
 2087AUSL   AUS 2007  40.508  13.666   6.992
 2088AUL    AUL 2008  40.546  13.288   7.011
 2089THSLK    S 2009  40.354  13.152   7.262
 2090ETHY    C1 2010  40.245  12.714   7.195
 2091ETHY    C1 2011  40.202  12.188   7.086
 2092ETHY    C1 2012  40.258  11.677   6.951
 2093ETHY    C1 2013  40.411  11.189   6.798
 2094ETHY    C1 2014  40.655  10.735   6.629
 2095THSLK    S 2015  40.628  13.476   6.853
 2096ETHY    C1 2016  40.697  13.090   6.621
 2097ETHY    C1 2017  40.839  12.682   6.300
 2098ETHY    C1 2018  41.046  12.346   5.942
 2099ETHY    C1 2019  41.312  12.089   5.559
 2100ETHY    C1 2020  41.632  11.911   5.158
 2101AUC    AUC 2021  19.037  14.797   7.502
 2102AUC    AUC 2022  19.283  14.797   7.350
 2103AUC    AUC 2023  19.283  14.797   7.653
 2104AUC    AUC 2024  18.792  14.797   7.350
 2105AUC    AUC 2025  18.792  14.797   7.653
 2106AUC    AUC 2026  18.885  15.042   7.502
 2107AUC    AUC 2027  19.189  15.042   7.502
 2108AUC    AUC 2028  18.885  14.551   7.502
 2109AUC    AUC 2029  19.189  14.551   7.502
 2110AUC    AUC 2030  19.037  14.645   7.747
 2111AUC    AUC 2031  19.037  14.948   7.747
 2112AUC    AUC 2032  19.037  14.645   7.256
 2113AUC    AUC 2033  19.037  14.948   7.256
 2114AUC    AUC 2034  19.528  14.797   7.198
 2115AUC    AUC 2035  19.528  14.797   7.502
 2116AUC    AUC 2036  19.528  14.797   7.805
 2117AUC    AUC 2037  18.546  14.797   7.198
 2118AUC    AUC 2038  18.546  14.797   7.502
 2119AUC    AUC 2039  18.546  14.797   7.805
 2120AUC    AUC 2040  18.734  15.287   7.502
 2121AUC    AUC 2041  19.037  15.287   7.502
 2122AUC    AUC 2042  19.340  15.287   7.502
 2123AUC    AUC 2043  18.734  14.306   7.502
 2124AUC    AUC 2044  19.037  14.306   7.502
 2125AUC    AUC 2045  19.340  14.306   7.502
 2126AUC    AUC 2046  19.037  14.493   7.992
 2127AUC    AUC 2047  19.037  14.797   7.992
 2128AUC    AUC 2048  19.037  15.100   7.992
 2129AUC    AUC 2049  19.037  14.493   7.011
 2130AUC    AUC 2050  19.037  14.797   7.011
 2131AUC    AUC 2051  19.037  15.100   7.011
 2132AUC    AUC 2052  19.283  14.645   7.899
 2133AUC    AUC 2053  19.283  14.948   7.899
 2134AUC    AUC 2054  19.283  14.645   7.105
 2135AUC    AUC 2055  19.283  14.948   7.105
 2136AUC    AUC 2056  18.792  14.645   7.899
 2137AUC    AUC 2057  18.792  14.948   7.899
 2138AUC    AUC 2058  18.792  14.645   7.105
 2139AUC    AUC 2059  18.792  14.948   7.105
 2140AUC    AUC 2060  19.434  15.042   7.350
 2141AUC    AUC 2061  19.434  15.042   7.653
 2142AUC    AUC 2062  18.640  15.042   7.350
 2143AUC    AUC 2063  18.640  15.042   7.653
 2144AUC    AUC 2064  19.434  14.551   7.350
 2145AUC    AUC 2065  19.434  14.551   7.653
 2146AUC    AUC 2066  18.640  14.551   7.350
 2147AUC    AUC 2067  18.640  14.551   7.653
 2148AUC    AUC 2068  18.885  15.194   7.747
 2149AUC    AUC 2069  19.189  15.194   7.747
 2150AUC    AUC 2070  18.885  14.399   7.747
 2151AUC    AUC 2071  19.189  14.399   7.747
 2152AUC    AUC 2072  18.885  15.194   7.256
 2153AUC    AUC 2073  19.189  15.194   7.256
 2154AUC    AUC 2074  18.885  14.399   7.256
 2155AUC    AUC 2075  19.189  14.399   7.256
 2156AUSL   AUS 2076  19.446  14.797   8.082
 2157AUSL   AUS 2077  19.302  14.380   8.012
 2158AUL    AUL 2078  19.528  14.493   8.296
 2159THSLK    S 2079  19.416  14.192   8.156
 2160ETHY    C1 2080  19.482  13.807   8.391
 2161ETHY    C1 2081  19.625  13.399   8.710
 2162ETHY    C1 2082  19.834  13.063   9.066
 2163ETHY    C1 2083  20.100  12.805   9.450
 2164ETHY    C1 2084  20.416  12.629   9.855
 2165THSLK    S 2085  19.542  14.747   8.326
 2166ETHY    C1 2086  19.758  14.561   8.681
 2167ETHY    C1 2087  20.033  14.426   9.124
 2168ETHY    C1 2088  20.314  14.396   9.575
 2169ETHY    C1 2089  20.592  14.465  10.025
 2170ETHY    C1 2090  20.861  14.633  10.466
 2171AUSL   AUS 2091  19.201  14.645   8.175
 2172AUSL   AUS 2092  18.874  14.948   8.175
 2173AUL    AUL 2093  19.037  14.797   8.483
 2174THSLK    S 2094  19.279  14.592   8.417
 2175ETHY    C1 2095  19.356  14.342   8.790
 2176ETHY    C1 2096  19.472  14.125   9.269
 2177ETHY    C1 2097  19.609  14.009   9.769
 2178ETHY    C1 2098  19.759  13.991  10.281
 2179ETHY    C1 2099  19.918  14.072  10.794
 2180THSLK    S 2100  18.787  14.905   8.431
 2181ETHY    C1 2101  18.705  14.793   8.864
 2182ETHY    C1 2102  18.591  14.747   9.388
 2183ETHY    C1 2103  18.459  14.805   9.901
 2184ETHY    C1 2104  18.308  14.958  10.389
 2185ETHY    C1 2105  18.142  15.202  10.844
 2186AUSL   AUS 2106  19.201  14.948   8.175
 2187AUSL   AUS 2107  19.547  15.061   7.918
 2188AUL    AUL 2108  19.528  15.100   8.296
 2189THSLK    S 2109  19.288  15.002   8.414
 2190ETHY    C1 2110  19.369  15.253   8.786
 2191ETHY    C1 2111  19.483  15.469   9.265
 2192ETHY    C1 2112  19.616  15.585   9.767
 2193ETHY    C1 2113  19.766  15.603  10.279
 2194ETHY    C1 2114  19.932  15.523  10.789
 2195THSLK    S 2115  19.721  15.163   8.080
 2196ETHY    C1 2116  20.085  15.173   8.354
 2197ETHY    C1 2117  20.501  15.275   8.680
 2198ETHY    C1 2118  20.881  15.474   8.995
 2199ETHY    C1 2119  21.216  15.761   9.296
 2200ETHY    C1 2120  21.497  16.129   9.577
 2201AUSL   AUS 2121  19.446  14.797   6.922
 2202AUSL   AUS 2122  19.302  15.213   6.992
 2203AUL    AUL 2123  19.528  15.100   6.707
 2204THSLK    S 2124  19.549  14.747   6.681
 2205ETHY    C1 2125  19.770  14.561   6.329
 2206ETHY    C1 2126  20.043  14.426   5.885
 2207ETHY    C1 2127  20.321  14.396   5.432
 2208ETHY    C1 2128  20.599  14.465   4.982
 2209ETHY    C1 2129  20.873  14.633   4.545
 2210THSLK    S 2130  19.480  15.328   6.825
 2211ETHY    C1 2131  19.768  15.433   6.488
 2212ETHY    C1 2132  20.068  15.637   6.090
 2213ETHY    C1 2133  20.311  15.925   5.714
 2214ETHY    C1 2134  20.495  16.289   5.371
 2215ETHY    C1 2135  20.619  16.720   5.065
 2216AUSL   AUS 2136  19.201  14.645   6.828
 2217AUSL   AUS 2137  19.547  14.532   7.085
 2218AUL    AUL 2138  19.528  14.493   6.707
 2219THSLK    S 2139  19.684  14.340   6.944
 2220ETHY    C1 2140  19.892  13.997   6.729
 2221ETHY    C1 2141  20.193  13.655   6.442
 2222ETHY    C1 2142  20.544  13.402   6.133
 2223ETHY    C1 2143  20.938  13.240   5.812
 2224ETHY    C1 2144  21.367  13.169   5.486
 2225THSLK    S 2145  19.288  14.591   6.590
 2226ETHY    C1 2146  19.369  14.340   6.217
 2227ETHY    C1 2147  19.483  14.124   5.738
 2228ETHY    C1 2148  19.616  14.008   5.236
 2229ETHY    C1 2149  19.766  13.990   4.725
 2230ETHY    C1 2150  19.932  14.070   4.214
 2231AUSL   AUS 2151  19.201  14.948   6.828
 2232AUSL   AUS 2152  18.874  14.645   6.828
 2233AUL    AUL 2153  19.037  14.797   6.520
 2234THSLK    S 2154  18.779  14.591   6.592
 2235ETHY    C1 2155  18.642  14.343   6.235
 2236ETHY    C1 2156  18.482  14.129   5.767
 2237ETHY    C1 2157  18.335  14.014   5.269
 2238ETHY    C1 2158  18.208  13.995   4.751
 2239ETHY    C1 2159  18.103  14.071   4.224
 2240THSLK    S 2160  19.304  14.906   6.578
 2241ETHY    C1 2161  19.445  14.791   6.160
 2242ETHY    C1 2162  19.603  14.744   5.647
 2243ETHY    C1 2163  19.746  14.800   5.138
 2244ETHY    C1 2164  19.874  14.954   4.643
 2245ETHY    C1 2165  19.985  15.202   4.174
 2246AUSL   AUS 2166  18.628  14.797   8.082
 2247AUSL   AUS 2167  18.772  15.213   8.012
 2248AUL    AUL 2168  18.546  15.100   8.296
 2249THSLK    S 2169  18.525  14.747   8.322
 2250ETHY    C1 2170  18.304  14.561   8.674
 2251ETHY    C1 2171  18.031  14.426   9.118
 2252ETHY    C1 2172  17.754  14.396   9.571
 2253ETHY    C1 2173  17.476  14.465  10.021
 2254ETHY    C1 2174  17.201  14.633  10.458
 2255THSLK    S 2175  18.652  15.342   8.202
 2256ETHY    C1 2176  18.583  15.511   8.620
 2257ETHY    C1 2177  18.441  15.764   9.073
 2258ETHY    C1 2178  18.235  16.065   9.460
 2259ETHY    C1 2179  17.968  16.404   9.775
 2260ETHY    C1 2180  17.648  16.771  10.013
 2261AUSL   AUS 2181  18.874  14.645   8.175
 2262AUSL   AUS 2182  18.527  14.532   7.918
 2263AUL    AUL 2183  18.546  14.493   8.296
 2264THSLK    S 2184  18.349  14.368   8.029
 2265ETHY    C1 2185  17.981  14.115   8.125
 2266ETHY    C1 2186  17.566  13.836   8.323
 2267ETHY    C1 2187  17.188  13.596   8.611
 2268ETHY    C1 2188  16.854  13.400   8.978
 2269ETHY    C1 2189  16.568  13.254   9.415
 2270THSLK    S 2190  18.771  14.593   8.410
 2271ETHY    C1 2191  18.629  14.346   8.766
 2272ETHY    C1 2192  18.471  14.131   9.233
 2273ETHY    C1 2193  18.328  14.015   9.733
 2274ETHY    C1 2194  18.201  13.997  10.250
 2275ETHY    C1 2195  18.089  14.075  10.775
 2276AUSL   AUS 2196  18.628  14.797   6.922
 2277AUSL   AUS 2197  18.772  14.380   6.992
 2278AUL    AUL 2198  18.546  14.493   6.707
 2279THSLK    S 2199  18.533  14.747   6.677
 2280ETHY    C1 2200  18.316  14.561   6.322
 2281ETHY    C1 2201  18.041  14.426   5.879
 2282ETHY    C1 2202  17.760  14.396   5.429
 2283ETHY    C1 2203  17.482  14.465   4.978
 2284ETHY    C1 2204  17.214  14.633   4.537
 2285THSLK    S 2205  18.600  14.206   6.872
 2286ETHY    C1 2206  18.315  13.885   6.717
 2287ETHY    C1 2207  18.014  13.526   6.453
 2288ETHY    C1 2208  17.769  13.203   6.109
 2289ETHY    C1 2209  17.585  12.920   5.696
 2290ETHY    C1 2210  17.466  12.680   5.223
 2291AUSL   AUS 2211  18.874  14.948   6.828
 2292AUSL   AUS 2212  18.527  15.061   7.085
 2293AUL    AUL 2213  18.546  15.100   6.707
 2294THSLK    S 2214  18.396  15.191   6.893
 2295ETHY    C1 2215  18.190  15.291   6.499
 2296ETHY    C1 2216  17.888  15.455   6.085
 2297ETHY    C1 2217  17.534  15.667   5.748
 2298ETHY    C1 2218  17.141  15.921   5.494
 2299ETHY    C1 2219  16.716  16.214   5.324
 2300THSLK    S 2220  18.795  14.907   6.571
 2301ETHY    C1 2221  18.718  14.795   6.136
 2302ETHY    C1 2222  18.602  14.750   5.612
 2303ETHY    C1 2223  18.466  14.806   5.101
 2304ETHY    C1 2224  18.316  14.960   4.613
 2305ETHY    C1 2225  18.156  15.205   4.156
 2306AUSL   AUS 2226  19.617  15.206   7.502
 2307AUSL   AUS 2227  19.547  15.061   7.085
 2308AUL    AUL 2228  19.831  15.287   7.198
 2309THSLK    S 2229  19.726  15.164   6.930
 2310ETHY    C1 2230  20.093  15.175   6.659
 2311ETHY    C1 2231  20.508  15.277   6.332
 2312ETHY    C1 2232  20.886  15.475   6.014
 2313ETHY    C1 2233  21.220  15.762   5.713
 2314ETHY    C1 2234  21.506  16.132   5.438
 2315THSLK    S 2235  19.885  15.262   7.506
 2316ETHY    C1 2236  20.337  15.323   7.508
 2317ETHY    C1 2237  20.851  15.482   7.507
 2318ETHY    C1 2238  21.319  15.736   7.505
 2319ETHY    C1 2239  21.732  16.073   7.506
 2320ETHY    C1 2240  22.084  16.487   7.509
 2321AUSL   AUS 2241  19.711  14.960   7.350
 2322AUSL   AUS 2242  19.711  14.633   7.653
 2323AUL    AUL 2243  20.019  14.797   7.502
 2324THSLK    S 2244  19.970  15.003   7.348
 2325ETHY    C1 2245  20.415  14.933   7.278
 2326ETHY    C1 2246  20.946  14.940   7.190
 2327ETHY    C1 2247  21.459  15.050   7.101
 2328ETHY    C1 2248  21.944  15.256   7.017
 2329ETHY    C1 2249  22.391  15.553   6.940
 2330THSLK    S 2250  19.943  14.495   7.662
 2331ETHY    C1 2251  20.289  14.206   7.728
 2332ETHY    C1 2252  20.750  13.939   7.809
 2333ETHY    C1 2253  21.247  13.770   7.892
 2334ETHY    C1 2254  21.768  13.698   7.980
 2335ETHY    C1 2255  22.303  13.724   8.071
 2336AUSL   AUS 2256  19.711  14.960   7.653
 2337AUSL   AUS 2257  19.454  15.307   7.766
 2338AUL    AUL 2258  19.831  15.287   7.805
 2339THSLK    S 2259  19.637  15.426   7.926
 2340ETHY    C1 2260  20.009  15.581   8.139
 2341ETHY    C1 2261  20.409  15.846   8.385
 2342ETHY    C1 2262  20.743  16.190   8.615
 2343ETHY    C1 2263  21.005  16.603   8.827
 2344ETHY    C1 2264  21.192  17.075   9.019
 2345THSLK    S 2265  19.969  15.003   7.664
 2346ETHY    C1 2266  20.413  14.933   7.738
 2347ETHY    C1 2267  20.944  14.940   7.825
 2348ETHY    C1 2268  21.458  15.050   7.910
 2349ETHY    C1 2269  21.942  15.256   7.994
 2350ETHY    C1 2270  22.389  15.553   8.078
 2351AUSL   AUS 2271  18.457  15.206   7.502
 2352AUSL   AUS 2272  18.527  15.061   7.918
 2353AUL    AUL 2273  18.243  15.287   7.805
 2354THSLK    S 2274  18.391  15.184   8.109
 2355ETHY    C1 2275  18.182  15.280   8.503
 2356ETHY    C1 2276  17.881  15.446   8.917
 2357ETHY    C1 2277  17.530  15.661   9.254
 2358ETHY    C1 2278  17.136  15.915   9.509
 2359ETHY    C1 2279  16.707  16.202   9.678
 2360THSLK    S 2280  18.241  15.346   7.506
 2361ETHY    C1 2281  17.985  15.724   7.508
 2362ETHY    C1 2282  17.612  16.112   7.507
 2363ETHY    C1 2283  17.176  16.418   7.505
 2364ETHY    C1 2284  16.690  16.636   7.506
 2365ETHY    C1 2285  16.163  16.766   7.509
 2366AUSL   AUS 2286  18.363  14.960   7.350
 2367AUSL   AUS 2287  18.621  15.307   7.237
 2368AUL    AUL 2288  18.243  15.287   7.198
 2369THSLK    S 2289  18.132  15.075   7.303
 2370ETHY    C1 2290  17.785  15.263   7.075
 2371ETHY    C1 2291  17.325  15.455   6.872
 2372ETHY    C1 2292  16.827  15.605   6.758
 2373ETHY    C1 2293  16.306  15.715   6.733
 2374ETHY    C1 2294  15.772  15.785   6.796
 2375THSLK    S 2295  18.505  15.472   7.058
 2376ETHY    C1 2296  18.389  15.788   6.750
 2377ETHY    C1 2297  18.175  16.166   6.432
 2378ETHY    C1 2298  17.883  16.535   6.183
 2379ETHY    C1 2299  17.525  16.888   6.008
 2380ETHY    C1 2300  17.107  17.221   5.909
 2381AUSL   AUS 2301  18.363  14.960   7.653
 2382AUSL   AUS 2302  18.363  14.633   7.350
 2383AUL    AUL 2303  18.055  14.797   7.502
 2384THSLK    S 2304  18.105  14.559   7.390
 2385ETHY    C1 2305  17.661  14.524   7.486
 2386ETHY    C1 2306  17.130  14.443   7.518
 2387ETHY    C1 2307  16.616  14.318   7.458
 2388ETHY    C1 2308  16.132  14.150   7.311
 2389ETHY    C1 2309  15.685  13.943   7.083
 2390THSLK    S 2310  18.130  15.067   7.704
 2391ETHY    C1 2311  17.783  15.251   7.935
 2392ETHY    C1 2312  17.323  15.444   8.137
 2393ETHY    C1 2313  16.826  15.599   8.249
 2394ETHY    C1 2314  16.305  15.709   8.274
 2395ETHY    C1 2315  15.769  15.772   8.213
 2396AUSL   AUS 2316  19.617  14.387   7.502
 2397AUSL   AUS 2317  19.547  14.532   7.918
 2398AUL    AUL 2318  19.831  14.306   7.805
 2399THSLK    S 2319  19.833  14.247   7.506
 2400ETHY    C1 2320  20.089  13.869   7.508
 2401ETHY    C1 2321  20.462  13.481   7.507
 2402ETHY    C1 2322  20.898  13.175   7.505
 2403ETHY    C1 2323  21.384  12.957   7.506
 2404ETHY    C1 2324  21.911  12.827   7.509
 2405THSLK    S 2325  19.679  14.342   8.066
 2406ETHY    C1 2326  19.884  13.999   8.285
 2407ETHY    C1 2327  20.186  13.657   8.570
 2408ETHY    C1 2328  20.540  13.404   8.877
 2409ETHY    C1 2329  20.934  13.241   9.198
 2410ETHY    C1 2330  21.358  13.171   9.529
 2411AUSL   AUS 2331  19.711  14.633   7.350
 2412AUSL   AUS 2332  19.454  14.286   7.237
 2413AUL    AUL 2333  19.831  14.306   7.198
 2414THSLK    S 2334  19.944  14.495   7.350
 2415ETHY    C1 2335  20.292  14.206   7.289
 2416ETHY    C1 2336  20.751  13.939   7.206
 2417ETHY    C1 2337  21.248  13.770   7.118
 2418ETHY    C1 2338  21.770  13.698   7.031
 2419ETHY    C1 2339  22.305  13.724   6.947
 2420THSLK    S 2340  19.573  14.096   7.104
 2421ETHY    C1 2341  19.690  13.679   6.963
 2422ETHY    C1 2342  19.904  13.225   6.765
 2423ETHY    C1 2343  20.194  12.839   6.543
 2424ETHY    C1 2344  20.553  12.524   6.306
 2425ETHY    C1 2345  20.973  12.285   6.058
 2426AUSL   AUS 2346  18.457  14.387   7.502
 2427AUSL   AUS 2347  18.527  14.532   7.085
 2428AUL    AUL 2348  18.243  14.306   7.198
 2429THSLK    S 2349  18.354  14.361   6.973
 2430ETHY    C1 2350  17.989  14.104   6.877
 2431ETHY    C1 2351  17.573  13.827   6.679
 2432ETHY    C1 2352  17.193  13.590   6.392
 2433ETHY    C1 2353  16.859  13.394   6.025
 2434ETHY    C1 2354  16.577  13.242   5.587
 2435THSLK    S 2355  18.189  14.331   7.506
 2436ETHY    C1 2356  17.737  14.270   7.508
 2437ETHY    C1 2357  17.223  14.111   7.507
 2438ETHY    C1 2358  16.755  13.857   7.505
 2439ETHY    C1 2359  16.342  13.520   7.506
 2440ETHY    C1 2360  15.990  13.106   7.509
 2441AUSL   AUS 2361  18.363  14.633   7.653
 2442AUSL   AUS 2362  18.621  14.286   7.766
 2443AUL    AUL 2363  18.243  14.306   7.805
 2444THSLK    S 2364  18.433  14.142   7.880
 2445ETHY    C1 2365  18.059  13.885   7.926
 2446ETHY    C1 2366  17.661  13.545   8.052
 2447ETHY    C1 2367  17.328  13.183   8.255
 2448ETHY    C1 2368  17.066  12.809   8.529
 2449ETHY    C1 2369  16.875  12.431   8.870
 2450THSLK    S 2370  18.104  14.566   7.617
 2451ETHY    C1 2371  17.659  14.536   7.524
 2452ETHY    C1 2372  17.128  14.454   7.490
 2453ETHY    C1 2373  16.615  14.325   7.549
 2454ETHY    C1 2374  16.131  14.157   7.696
 2455ETHY    C1 2375  15.683  13.955   7.928
 2456AUSL   AUS 2376  19.037  15.377   7.911
 2457AUSL   AUS 2377  18.621  15.307   7.766
 2458AUL    AUL 2378  18.734  15.591   7.992
 2459THSLK    S 2379  18.501  15.466   7.950
 2460ETHY    C1 2380  18.384  15.778   8.261
 2461ETHY    C1 2381  18.170  16.158   8.578
 2462ETHY    C1 2382  17.880  16.529   8.824
 2463ETHY    C1 2383  17.522  16.883   9.000
 2464ETHY    C1 2384  17.101  17.211   9.102
 2465THSLK    S 2385  19.077  15.603   8.035
 2466ETHY    C1 2386  19.234  15.905   8.339
 2467ETHY    C1 2387  19.349  16.311   8.672
 2468ETHY    C1 2388  19.376  16.755   8.964
 2469ETHY    C1 2389  19.316  17.224   9.211
 2470ETHY    C1 2390  19.172  17.708   9.410
 2471AUSL   AUS 2391  18.885  15.470   7.665
 2472AUSL   AUS 2392  19.189  15.470   7.338
 2473AUL    AUL 2393  19.037  15.778   7.502
 2474THSLK    S 2394  18.926  15.718   7.774
 2475ETHY    C1 2395  19.035  16.128   7.942
 2476ETHY    C1 2396  19.079  16.635   8.118
 2477ETHY    C1 2397  19.022  17.143   8.265
 2478ETHY    C1 2398  18.869  17.640   8.383
 2479ETHY    C1 2399  18.626  18.117   8.472
 2480THSLK    S 2400  19.242  15.705   7.241
 2481ETHY    C1 2401  19.487  16.061   7.094
 2482ETHY    C1 2402  19.700  16.526   6.927
 2483ETHY    C1 2403  19.815  17.024   6.779
 2484ETHY    C1 2404  19.835  17.543   6.655
 2485ETHY    C1 2405  19.760  18.072   6.558
 2486AUSL   AUS 2406  19.189  15.470   7.665
 2487AUSL   AUS 2407  19.302  15.213   8.012
 2488AUL    AUL 2408  19.340  15.591   7.992
 2489THSLK    S 2409  19.474  15.326   8.184
 2490ETHY    C1 2410  19.759  15.429   8.524
 2491ETHY    C1 2411  20.061  15.633   8.921
 2492ETHY    C1 2412  20.306  15.923   9.294
 2493ETHY    C1 2413  20.490  16.286   9.638
 2494ETHY    C1 2414  20.609  16.716   9.948
 2495THSLK    S 2415  19.240  15.704   7.771
 2496ETHY    C1 2416  19.484  16.058   7.922
 2497ETHY    C1 2417  19.697  16.524   8.087
 2498ETHY    C1 2418  19.813  17.023   8.231
 2499ETHY    C1 2419  19.832  17.541   8.356
 2500ETHY    C1 2420  19.757  18.069   8.458
 2501AUSL   AUS 2421  19.037  14.217   7.911
 2502AUSL   AUS 2422  19.454  14.286   7.766
 2503AUL    AUL 2423  19.340  14.002   7.992
 2504THSLK    S 2424  18.993  13.962   7.990
 2505ETHY    C1 2425  18.833  13.558   8.128
 2506ETHY    C1 2426  18.719  13.077   8.341
 2507ETHY    C1 2427  18.694  12.616   8.605
 2508ETHY    C1 2428  18.753  12.186   8.915
 2509ETHY    C1 2429  18.894  11.794   9.263
 2510THSLK    S 2430  19.569  14.097   7.908
 2511ETHY    C1 2431  19.685  13.681   8.052
 2512ETHY    C1 2432  19.899  13.228   8.248
 2513ETHY    C1 2433  20.191  12.840   8.467
 2514ETHY    C1 2434  20.550  12.525   8.705
 2515ETHY    C1 2435  20.967  12.288   8.958
 2516AUSL   AUS 2436  18.885  14.123   7.665
 2517AUSL   AUS 2437  18.772  14.380   8.012
 2518AUL    AUL 2438  18.734  14.002   7.992
 2519THSLK    S 2439  18.832  13.883   7.745
 2520ETHY    C1 2440  18.587  13.502   7.801
 2521ETHY    C1 2441  18.374  13.017   7.897
 2522ETHY    C1 2442  18.259  12.514   8.025
 2523ETHY    C1 2443  18.240  12.005   8.186
 2524ETHY    C1 2444  18.314  11.502   8.374
 2525THSLK    S 2445  18.594  14.212   8.133
 2526ETHY    C1 2446  18.306  13.894   8.289
 2527ETHY    C1 2447  18.006  13.534   8.552
 2528ETHY    C1 2448  17.763  13.208   8.896
 2529ETHY    C1 2449  17.579  12.925   9.309
 2530ETHY    C1 2450  17.455  12.691   9.783
 2531AUSL   AUS 2451  19.189  14.123   7.665
 2532AUSL   AUS 2452  18.885  14.123   7.338
 2533AUL    AUL 2453  19.037  13.815   7.502
 2534THSLK    S 2454  18.834  13.880   7.266
 2535ETHY    C1 2455  18.590  13.498   7.215
 2536ETHY    C1 2456  18.377  13.014   7.117
 2537ETHY    C1 2457  18.261  12.512   6.984
 2538ETHY    C1 2458  18.242  12.003   6.825
 2539ETHY    C1 2459  18.318  11.498   6.642
 2540THSLK    S 2460  19.146  13.867   7.749
 2541ETHY    C1 2461  19.036  13.431   7.821
 2542ETHY    C1 2462  18.993  12.905   7.928
 2543ETHY    C1 2463  19.050  12.393   8.059
 2544ETHY    C1 2464  19.203  11.905   8.213
 2545ETHY    C1 2465  19.445  11.452   8.388
 2546AUSL   AUS 2466  19.037  15.377   7.093
 2547AUSL   AUS 2467  19.454  15.307   7.237
 2548AUL    AUL 2468  19.340  15.591   7.011
 2549THSLK    S 2469  19.081  15.607   6.975
 2550ETHY    C1 2470  19.241  15.911   6.674
 2551ETHY    C1 2471  19.355  16.316   6.339
 2552ETHY    C1 2472  19.380  16.759   6.045
 2553ETHY    C1 2473  19.321  17.228   5.798
 2554ETHY    C1 2474  19.180  17.715   5.604
 2555THSLK    S 2475  19.641  15.428   7.085
 2556ETHY    C1 2476  20.015  15.584   6.876
 2557ETHY    C1 2477  20.413  15.848   6.629
 2558ETHY    C1 2478  20.746  16.192   6.395
 2559ETHY    C1 2479  21.008  16.604   6.184
 2560ETHY    C1 2480  21.199  17.078   5.998
 2561AUSL   AUS 2481  18.885  15.470   7.338
 2562AUSL   AUS 2482  18.772  15.213   6.992
 2563AUL    AUL 2483  18.734  15.591   7.011
 2564THSLK    S 2484  18.928  15.721   7.237
 2565ETHY    C1 2485  19.038  16.132   7.074
 2566ETHY    C1 2486  19.081  16.638   6.896
 2567ETHY    C1 2487  19.024  17.146   6.745
 2568ETHY    C1 2488  18.871  17.643   6.627
 2569ETHY    C1 2489  18.629  18.122   6.545
 2570THSLK    S 2490  18.658  15.348   6.802
 2571ETHY    C1 2491  18.592  15.520   6.385
 2572ETHY    C1 2492  18.449  15.772   5.932
 2573ETHY    C1 2493  18.240  16.071   5.544
 2574ETHY    C1 2494  17.974  16.409   5.230
 2575ETHY    C1 2495  17.658  16.782   4.993
 2576AUSL   AUS 2496  19.037  14.217   7.093
 2577AUSL   AUS 2497  18.621  14.286   7.237
 2578AUL    AUL 2498  18.734  14.002   7.011
 2579THSLK    S 2499  18.437  14.136   7.128
 2580ETHY    C1 2500  18.065  13.875   7.085
 2581ETHY    C1 2501  17.666  13.537   6.958
 2582ETHY    C1 2502  17.331  13.178   6.753
 2583ETHY    C1 2503  17.069  12.804   6.478
 2584ETHY    C1 2504  16.882  12.421   6.142
 2585THSLK    S 2505  18.997  13.958   7.019
 2586ETHY    C1 2506  18.840  13.552   6.885
 2587ETHY    C1 2507  18.725  13.072   6.671
 2588ETHY    C1 2508  18.698  12.613   6.404
 2589ETHY    C1 2509  18.758  12.182   6.094
 2590ETHY    C1 2510  18.902  11.787   5.751
 2591AUSL   AUS 2511  19.189  14.123   7.338
 2592AUSL   AUS 2512  19.302  14.380   6.992
 2593AUL    AUL 2513  19.340  14.002   7.011
 2594THSLK    S 2514  19.148  13.866   7.262
 2595ETHY    C1 2515  19.039  13.428   7.195
 2596ETHY    C1 2516  18.996  12.902   7.086
 2597ETHY    C1 2517  19.052  12.391   6.951
 2598ETHY    C1 2518  19.205  11.903   6.798
 2599ETHY    C1 2519  19.449  11.449   6.629
 2600THSLK    S 2520  19.422  14.190   6.853
 2601ETHY    C1 2521  19.491  13.804   6.621
 2602ETHY    C1 2522  19.633  13.396   6.300
 2603ETHY    C1 2523  19.840  13.060   5.942
 2604ETHY    C1 2524  20.106  12.803   5.559
 2605ETHY    C1 2525  20.426  12.625   5.158
 2606AUC    AUC 2526  30.780  13.029   7.502
 2607AUC    AUC 2527  31.026  13.029   7.350
 2608AUC    AUC 2528  31.026  13.029   7.653
 2609AUC    AUC 2529  30.535  13.029   7.350
 2610AUC    AUC 2530  30.535  13.029   7.653
 2611AUC    AUC 2531  30.628  13.274   7.502
 2612AUC    AUC 2532  30.932  13.274   7.502
 2613AUC    AUC 2533  30.628  12.783   7.502
 2614AUC    AUC 2534  30.932  12.783   7.502
 2615AUC    AUC 2535  30.780  12.877   7.747
 2616AUC    AUC 2536  30.780  13.180   7.747
 2617AUC    AUC 2537  30.780  12.877   7.256
 2618AUC    AUC 2538  30.780  13.180   7.256
 2619AUC    AUC 2539  31.271  13.029   7.198
 2620AUC    AUC 2540  31.271  13.029   7.502
 2621AUC    AUC 2541  31.271  13.029   7.805
 2622AUC    AUC 2542  30.289  13.029   7.198
 2623AUC    AUC 2543  30.289  13.029   7.502
 2624AUC    AUC 2544  30.289  13.029   7.805
 2625AUC    AUC 2545  30.477  13.519   7.502
 2626AUC    AUC 2546  30.780  13.519   7.502
 2627AUC    AUC 2547  31.083  13.519   7.502
 2628AUC    AUC 2548  30.477  12.538   7.502
 2629AUC    AUC 2549  30.780  12.538   7.502
 2630AUC    AUC 2550  31.083  12.538   7.502
 2631AUC    AUC 2551  30.780  12.725   7.992
 2632AUC    AUC 2552  30.780  13.029   7.992
 2633AUC    AUC 2553  30.780  13.332   7.992
 2634AUC    AUC 2554  30.780  12.725   7.011
 2635AUC    AUC 2555  30.780  13.029   7.011
 2636AUC    AUC 2556  30.780  13.332   7.011
 2637AUC    AUC 2557  31.026  12.877   7.899
 2638AUC    AUC 2558  31.026  13.180   7.899
 2639AUC    AUC 2559  31.026  12.877   7.105
 2640AUC    AUC 2560  31.026  13.180   7.105
 2641AUC    AUC 2561  30.535  12.877   7.899
 2642AUC    AUC 2562  30.535  13.180   7.899
 2643AUC    AUC 2563  30.535  12.877   7.105
 2644AUC    AUC 2564  30.535  13.180   7.105
 2645AUC    AUC 2565  31.177  13.274   7.350
 2646AUC    AUC 2566  31.177  13.274   7.653
 2647AUC    AUC 2567  30.383  13.274   7.350
 2648AUC    AUC 2568  30.383  13.274   7.653
 2649AUC    AUC 2569  31.177  12.783   7.350
 2650AUC    AUC 2570  31.177  12.783   7.653
 2651AUC    AUC 2571  30.383  12.783   7.350
 2652AUC    AUC 2572  30.383  12.783   7.653
 2653AUC    AUC 2573  30.628  13.426   7.747
 2654AUC    AUC 2574  30.932  13.426   7.747
 2655AUC    AUC 2575  30.628  12.631   7.747
 2656AUC    AUC 2576  30.932  12.631   7.747
 2657AUC    AUC 2577  30.628  13.426   7.256
 2658AUC    AUC 2578  30.932  13.426   7.256
 2659AUC    AUC 2579  30.628  12.631   7.256
 2660AUC    AUC 2580  30.932  12.631   7.256
 2661AUSL   AUS 2581  31.189  13.029   8.082
 2662AUSL   AUS 2582  31.045  12.612   8.012
 2663AUL    AUL 2583  31.271  12.725   8.296
 2664THSLK    S 2584  31.159  12.424   8.156
 2665ETHY    C1 2585  31.225  12.039   8.391
 2666ETHY    C1 2586  31.368  11.631   8.710
 2667ETHY    C1 2587  31.577  11.295   9.066
 2668ETHY    C1 2588  31.843  11.037   9.450
 2669ETHY    C1 2589  32.159  10.861   9.855
 2670THSLK    S 2590  31.285  12.979   8.326
 2671ETHY    C1 2591  31.501  12.793   8.681
 2672ETHY    C1 2592  31.776  12.658   9.124
 2673ETHY    C1 2593  32.057  12.628   9.575
 2674ETHY    C1 2594  32.335  12.697  10.025
 2675ETHY    C1 2595  32.604  12.865  10.466
 2676AUSL   AUS 2596  30.944  12.877   8.175
 2677AUSL   AUS 2597  30.617  13.180   8.175
 2678AUL    AUL 2598  30.780  13.029   8.483
 2679THSLK    S 2599  31.022  12.824   8.417
 2680ETHY    C1 2600  31.099  12.574   8.790
 2681ETHY    C1 2601  31.215  12.357   9.269
 2682ETHY    C1 2602  31.352  12.241   9.769
 2683ETHY    C1 2603  31.502  12.223  10.281
 2684ETHY    C1 2604  31.661  12.304  10.794
 2685THSLK    S 2605  30.530  13.137   8.431
 2686ETHY    C1 2606  30.448  13.025   8.864
 2687ETHY    C1 2607  30.334  12.979   9.388
 2688ETHY    C1 2608  30.202  13.037   9.901
 2689ETHY    C1 2609  30.051  13.190  10.389
 2690ETHY    C1 2610  29.885  13.434  10.844
 2691AUSL   AUS 2611  30.944  13.180   8.175
 2692AUSL   AUS 2612  31.290  13.293   7.918
 2693AUL    AUL 2613  31.271  13.332   8.296
 2694THSLK    S 2614  31.031  13.234   8.414
 2695ETHY    C1 2615  31.112  13.485   8.786
 2696ETHY    C1 2616  31.226  13.701   9.265
 2697ETHY    C1 2617  31.359  13.817   9.767
 2698ETHY    C1 2618  31.509  13.835  10.279
 2699ETHY    C1 2619  31.675  13.755  10.789
 2700THSLK    S 2620  31.464  13.395   8.080
 2701ETHY    C1 2621  31.828  13.405   8.354
 2702ETHY    C1 2622  32.244  13.507   8.680
 2703ETHY    C1 2623  32.624  13.706   8.995
 2704ETHY    C1 2624  32.959  13.993   9.296
 2705ETHY    C1 2625  33.240  14.361   9.577
 2706AUSL   AUS 2626  31.189  13.029   6.922
 2707AUSL   AUS 2627  31.045  13.445   6.992
 2708AUL    AUL 2628  31.271  13.332   6.707
 2709THSLK    S 2629  31.292  12.979   6.681
 2710ETHY    C1 2630  31.513  12.793   6.329
 2711ETHY    C1 2631  31.786  12.658   5.885
 2712ETHY    C1 2632  32.064  12.628   5.432
 2713ETHY    C1 2633  32.342  12.697   4.982
 2714ETHY    C1 2634  32.616  12.865   4.545
 2715THSLK    S 2635  31.223  13.560   6.825
 2716ETHY    C1 2636  31.511  13.665   6.488
 2717ETHY    C1 2637  31.811  13.869   6.090
 2718ETHY    C1 2638  32.054  14.157   5.714
 2719ETHY    C1 2639  32.238  14.521   5.371
 2720ETHY    C1 2640  32.362  14.952   5.065
 2721AUSL   AUS 2641  30.944  12.877   6.828
 2722AUSL   AUS 2642  31.290  12.764   7.085
 2723AUL    AUL 2643  31.271  12.725   6.707
 2724THSLK    S 2644  31.427  12.572   6.944
 2725ETHY    C1 2645  31.635  12.229   6.729
 2726ETHY    C1 2646  31.936  11.887   6.442
 2727ETHY    C1 2647  32.287  11.634   6.133
 2728ETHY    C1 2648  32.681  11.472   5.812
 2729ETHY    C1 2649  33.110  11.401   5.486
 2730THSLK    S 2650  31.031  12.823   6.590
 2731ETHY    C1 2651  31.112  12.572   6.217
 2732ETHY    C1 2652  31.226  12.356   5.738
 2733ETHY    C1 2653  31.359  12.240   5.236
 2734ETHY    C1 2654  31.509  12.222   4.725
 2735ETHY    C1 2655  31.675  12.302   4.214
 2736AUSL   AUS 2656  30.944  13.180   6.828
 2737AUSL   AUS 2657  30.617  12.877   6.828
 2738AUL    AUL 2658  30.780  13.029   6.520
 2739THSLK    S 2659  30.522  12.823   6.592
 2740ETHY    C1 2660  30.385  12.575   6.235
 2741ETHY    C1 2661  30.225  12.361   5.767
 2742ETHY    C1 2662  30.078  12.246   5.269
 2743ETHY    C1 2663  29.951  12.227   4.751
 2744ETHY    C1 2664  29.846  12.303   4.224
 2745THSLK    S 2665  31.047  13.138   6.578
 2746ETHY    C1 2666  31.188  13.023   6.160
 2747ETHY    C1 2667  31.346  12.976   5.647
 2748ETHY    C1 2668  31.489  13.032   5.138
 2749ETHY    C1 2669  31.617  13.186   4.643
 2750ETHY    C1 2670  31.728  13.434   4.174
 2751AUSL   AUS 2671  30.371  13.029   8.082
 2752AUSL   AUS 2672  30.515  13.445   8.012
 2753AUL    AUL 2673  30.289  13.332   8.296
 2754THSLK    S 2674  30.268  12.979   8.322
 2755ETHY    C1 2675  30.047  12.793   8.674
 2756ETHY    C1 2676  29.774  12.658   9.118
 2757ETHY    C1 2677  29.497  12.628   9.571
 2758ETHY    C1 2678  29.219  12.697  10.021
 2759ETHY    C1 2679  28.944  12.865  10.458
 2760THSLK    S 2680  30.395  13.574   8.202
 2761ETHY    C1 2681  30.326  13.743   8.620
 2762ETHY    C1 2682  30.184  13.996   9.073
 2763ETHY    C1 2683  29.978  14.297   9.460
 2764ETHY    C1 2684  29.711  14.636   9.775
 2765ETHY    C1 2685  29.391  15.003  10.013
 2766AUSL   AUS 2686  30.617  12.877   8.175
 2767AUSL   AUS 2687  30.270  12.764   7.918
 2768AUL    AUL 2688  30.289  12.725   8.296
 2769THSLK    S 2689  30.092  12.600   8.029
 2770ETHY    C1 2690  29.724  12.347   8.125
 2771ETHY    C1 2691  29.309  12.068   8.323
 2772ETHY    C1 2692  28.931  11.828   8.611
 2773ETHY    C1 2693  28.597  11.632   8.978
 2774ETHY    C1 2694  28.311  11.486   9.415
 2775THSLK    S 2695  30.514  12.825   8.410
 2776ETHY    C1 2696  30.372  12.578   8.766
 2777ETHY    C1 2697  30.214  12.363   9.233
 2778ETHY    C1 2698  30.071  12.247   9.733
 2779ETHY    C1 2699  29.944  12.229  10.250
 2780ETHY    C1 2700  29.832  12.307  10.775
 2781AUSL   AUS 2701  30.371  13.029   6.922
 2782AUSL   AUS 2702  30.515  12.612   6.992
 2783AUL    AUL 2703  30.289  12.725   6.707
 2784THSLK    S 2704  30.276  12.979   6.677
 2785ETHY    C1 2705  30.059  12.793   6.322
 2786ETHY    C1 2706  29.784  12.658   5.879
 2787ETHY    C1 2707  29.503  12.628   5.429
 2788ETHY    C1 2708  29.225  12.697   4.978
 2789ETHY    C1 2709  28.957  12.865   4.537
 2790THSLK    S 2710  30.343  12.438   6.872
 2791ETHY    C1 2711  30.058  12.117   6.717
 2792ETHY    C1 2712  29.757  11.758   6.453
 2793ETHY    C1 2713  29.512  11.435   6.109
 2794ETHY    C1 2714  29.328  11.152   5.696
 2795ETHY    C1 2715  29.209  10.912   5.223
 2796AUSL   AUS 2716  30.617  13.180   6.828
 2797AUSL   AUS 2717  30.270  13.293   7.085
 2798AUL    AUL 2718  30.289  13.332   6.707
 2799THSLK    S 2719  30.139  13.423   6.893
 2800ETHY    C1 2720  29.933  13.523   6.499
 2801ETHY    C1 2721  29.631  13.687   6.085
 2802ETHY    C1 2722  29.277  13.899   5.748
 2803ETHY    C1 2723  28.884  14.153   5.494
 2804ETHY    C1 2724  28.459  14.446   5.324
 2805THSLK    S 2725  30.538  13.139   6.571
 2806ETHY    C1 2726  30.461  13.027   6.136
 2807ETHY    C1 2727  30.345  12.982   5.612
 2808ETHY    C1 2728  30.209  13.038   5.101
 2809ETHY    C1 2729  30.059  13.192   4.613
 2810ETHY    C1 2730  29.899  13.437   4.156
 2811AUSL   AUS 2731  31.360  13.438   7.502
 2812AUSL   AUS 2732  31.290  13.293   7.085
 2813AUL    AUL 2733  31.574  13.519   7.198
 2814THSLK    S 2734  31.469  13.396   6.930
 2815ETHY    C1 2735  31.836  13.407   6.659
 2816ETHY    C1 2736  32.251  13.509   6.332
 2817ETHY    C1 2737  32.629  13.707   6.014
 2818ETHY    C1 2738  32.963  13.994   5.713
 2819ETHY    C1 2739  33.249  14.364   5.438
 2820THSLK    S 2740  31.628  13.494   7.506
 2821ETHY    C1 2741  32.080  13.555   7.508
 2822ETHY    C1 2742  32.594  13.714   7.507
 2823ETHY    C1 2743  33.062  13.968   7.505
 2824ETHY    C1 2744  33.475  14.305   7.506
 2825ETHY    C1 2745  33.827  14.719   7.509
 2826AUSL   AUS 2746  31.454  13.192   7.350
 2827AUSL   AUS 2747  31.454  12.865   7.653
 2828AUL    AUL 2748  31.762  13.029   7.502
 2829THSLK    S 2749  31.713  13.235   7.348
 2830ETHY    C1 2750  32.158  13.165   7.278
 2831ETHY    C1 2751  32.689  13.172   7.190
 2832ETHY    C1 2752  33.202  13.282   7.101
 2833ETHY    C1 2753  33.687  13.488   7.017
 2834ETHY    C1 2754  34.134  13.785   6.940
 2835THSLK    S 2755  31.686  12.727   7.662
 2836ETHY    C1 2756  32.032  12.438   7.728
 2837ETHY    C1 2757  32.493  12.171   7.809
 2838ETHY    C1 2758  32.990  12.002   7.892
 2839ETHY    C1 2759  33.511  11.930   7.980
 2840ETHY    C1 2760  34.046  11.956   8.071
 2841AUSL   AUS 2761  31.454  13.192   7.653
 2842AUSL   AUS 2762  31.197  13.539   7.766
 2843AUL    AUL 2763  31.574  13.519   7.805
 2844THSLK    S 2764  31.380  13.658   7.926
 2845ETHY    C1 2765  31.752  13.813   8.139
 2846ETHY    C1 2766  32.152  14.078   8.385
 2847ETHY    C1 2767  32.486  14.422   8.615
 2848ETHY    C1 2768  32.748  14.835   8.827
 2849ETHY    C1 2769  32.935  15.307   9.019
 2850THSLK    S 2770  31.712  13.235   7.664
 2851ETHY    C1 2771  32.156  13.165   7.738
 2852ETHY    C1 2772  32.687  13.172   7.825
 2853ETHY    C1 2773  33.201  13.282   7.910
 2854ETHY    C1 2774  33.685  13.488   7.994
 2855ETHY    C1 2775  34.132  13.785   8.078
 2856AUSL   AUS 2776  30.200  13.438   7.502
 2857AUSL   AUS 2777  30.270  13.293   7.918
 2858AUL    AUL 2778  29.986  13.519   7.805
 2859THSLK    S 2779  30.134  13.416   8.109
 2860ETHY    C1 2780  29.925  13.512   8.503
 2861ETHY    C1 2781  29.624  13.678   8.917
 2862ETHY    C1 2782  29.273  13.893   9.254
 2863ETHY    C1 2783  28.879  14.147   9.509
 2864ETHY    C1 2784  28.450  14.434   9.678
 2865THSLK    S 2785  29.984  13.578   7.506
 2866ETHY    C1 2786  29.728  13.956   7.508
 2867ETHY    C1 2787  29.355  14.344   7.507
 2868ETHY    C1 2788  28.919  14.650   7.505
 2869ETHY    C1 2789  28.433  14.868   7.506
 2870ETHY    C1 2790  27.906  14.998   7.509
 2871AUSL   AUS 2791  30.106  13.192   7.350
 2872AUSL   AUS 2792  30.364  13.539   7.237
 2873AUL    AUL 2793  29.986  13.519   7.198
 2874THSLK    S 2794  29.875  13.307   7.303
 2875ETHY    C1 2795  29.528  13.495   7.075
 2876ETHY    C1 2796  29.068  13.687   6.872
 2877ETHY    C1 2797  28.570  13.837   6.758
 2878ETHY    C1 2798  28.049  13.947   6.733
 2879ETHY    C1 2799  27.515  14.017   6.796
 2880THSLK    S 2800  30.248  13.704   7.058
 2881ETHY    C1 2801  30.132  14.020   6.750
 2882ETHY    C1 2802  29.918  14.398   6.432
 2883ETHY    C1 2803  29.626  14.767   6.183
 2884ETHY    C1 2804  29.268  15.120   6.008
 2885ETHY    C1 2805  28.850  15.453   5.909
 2886AUSL   AUS 2806  30.106  13.192   7.653
 2887AUSL   AUS 2807  30.106  12.865   7.350
 2888AUL    AUL 2808  29.798  13.029   7.502
 2889THSLK    S 2809  29.848  12.791   7.390
 2890ETHY    C1 2810  29.404  12.756   7.486
 2891ETHY    C1 2811  28.873  12.675   7.518
 2892ETHY    C1 2812  28.359  12.550   7.458
 2893ETHY    C1 2813  27.875  12.382   7.311
 2894ETHY    C1 2814  27.428  12.175   7.083
 2895THSLK    S 2815  29.873  13.299   7.704
 2896ETHY    C1 2816  29.526  13.483   7.935
 2897ETHY    C1 2817  29.066  13.676   8.137
 2898ETHY    C1 2818  28.569  13.831   8.249
 2899ETHY    C1 2819  28.048  13.941   8.274
 2900ETHY    C1 2820  27.512  14.004   8.213
 2901AUSL   AUS 2821  31.360  12.619   7.502
 2902AUSL   AUS 2822  31.290  12.764   7.918
 2903AUL    AUL 2823  31.574  12.538   7.805
 2904THSLK    S 2824  31.576  12.479   7.506
 2905ETHY    C1 2825  31.832  12.101   7.508
 2906ETHY    C1 2826  32.205  11.713   7.507
 2907ETHY    C1 2827  32.641  11.407   7.505
 2908ETHY    C1 2828  33.127  11.189   7.506
 2909ETHY    C1 2829  33.654  11.059   7.509
 2910THSLK    S 2830  31.422  12.574   8.066
 2911ETHY    C1 2831  31.627  12.231   8.285
 2912ETHY    C1 2832  31.929  11.889   8.570
 2913ETHY    C1 2833  32.283  11.636   8.877
 2914ETHY    C1 2834  32.677  11.473   9.198
 2915ETHY    C1 2835  33.101  11.403   9.529
 2916AUSL   AUS 2836  31.454  12.865   7.350
 2917AUSL   AUS 2837  31.197  12.518   7.237
 2918AUL    AUL 2838  31.574  12.538   7.198
 2919THSLK    S 2839  31.687  12.727   7.350
 2920ETHY    C1 2840  32.035  12.438   7.289
 2921ETHY    C1 2841  32.494  12.171   7.206
 2922ETHY    C1 2842  32.991  12.002   7.118
 2923ETHY    C1 2843  33.513  11.930   7.031
 2924ETHY    C1 2844  34.048  11.956   6.947
 2925THSLK    S 2845  31.316  12.328   7.104
 2926ETHY    C1 2846  31.433  11.911   6.963
 2927ETHY    C1 2847  31.647  11.457   6.765
 2928ETHY    C1 2848  31.937  11.071   6.543
 2929ETHY    C1 2849  32.296  10.756   6.306
 2930ETHY    C1 2850  32.716  10.517   6.058
 2931AUSL   AUS 2851  30.200  12.619   7.502
 2932AUSL   AUS 2852  30.270  12.764   7.085
 2933AUL    AUL 2853  29.986  12.538   7.198
 2934THSLK    S 2854  30.097  12.593   6.973
 2935ETHY    C1 2855  29.732  12.336   6.877
 2936ETHY    C1 2856  29.316  12.059   6.679
 2937ETHY    C1 2857  28.936  11.822   6.392
 2938ETHY    C1 2858  28.602  11.626   6.025
 2939ETHY    C1 2859  28.320  11.474   5.587
 2940THSLK    S 2860  29.932  12.563   7.506
 2941ETHY    C1 2861  29.480  12.502   7.508
 2942ETHY    C1 2862  28.966  12.343   7.507
 2943ETHY    C1 2863  28.498  12.089   7.505
 2944ETHY    C1 2864  28.085  11.752   7.506
 2945ETHY    C1 2865  27.733  11.338   7.509
 2946AUSL   AUS 2866  30.106  12.865   7.653
 2947AUSL   AUS 2867  30.364  12.518   7.766
 2948AUL    AUL 2868  29.986  12.538   7.805
 2949THSLK    S 2869  30.176  12.374   7.880
 2950ETHY    C1 2870  29.802  12.117   7.926
 2951ETHY    C1 2871  29.404  11.777   8.052
 2952ETHY    C1 2872  29.071  11.415   8.255
 2953ETHY    C1 2873  28.809  11.041   8.529
 2954ETHY    C1 2874  28.618  10.663   8.870
 2955THSLK    S 2875  29.847  12.798   7.617
 2956ETHY    C1 2876  29.402  12.768   7.524
 2957ETHY    C1 2877  28.871  12.686   7.490
 2958ETHY    C1 2878  28.358  12.557   7.549
 2959ETHY    C1 2879  27.874  12.389   7.696
 2960ETHY    C1 2880  27.426  12.187   7.928
 2961AUSL   AUS 2881  30.780  13.609   7.911
 2962AUSL   AUS 2882  30.364  13.539   7.766
 2963AUL    AUL 2883  30.477  13.823   7.992
 2964THSLK    S 2884  30.244  13.698   7.950
 2965ETHY    C1 2885  30.127  14.010   8.261
 2966ETHY    C1 2886  29.913  14.390   8.578
 2967ETHY    C1 2887  29.623  14.761   8.824
 2968ETHY    C1 2888  29.265  15.115   9.000
 2969ETHY    C1 2889  28.844  15.443   9.102
 2970THSLK    S 2890  30.820  13.835   8.035
 2971ETHY    C1 2891  30.977  14.137   8.339
 2972ETHY    C1 2892  31.092  14.543   8.672
 2973ETHY    C1 2893  31.119  14.987   8.964
 2974ETHY    C1 2894  31.059  15.456   9.211
 2975ETHY    C1 2895  30.915  15.940   9.410
 2976AUSL   AUS 2896  30.628  13.702   7.665
 2977AUSL   AUS 2897  30.932  13.702   7.338
 2978AUL    AUL 2898  30.780  14.010   7.502
 2979THSLK    S 2899  30.669  13.950   7.774
 2980ETHY    C1 2900  30.778  14.360   7.942
 2981ETHY    C1 2901  30.822  14.867   8.118
 2982ETHY    C1 2902  30.765  15.375   8.265
 2983ETHY    C1 2903  30.612  15.872   8.383
 2984ETHY    C1 2904  30.369  16.349   8.472
 2985THSLK    S 2905  30.985  13.937   7.241
 2986ETHY    C1 2906  31.230  14.293   7.094
 2987ETHY    C1 2907  31.443  14.758   6.927
 2988ETHY    C1 2908  31.558  15.256   6.779
 2989ETHY    C1 2909  31.578  15.775   6.655
 2990ETHY    C1 2910  31.503  16.304   6.558
 2991AUSL   AUS 2911  30.932  13.702   7.665
 2992AUSL   AUS 2912  31.045  13.445   8.012
 2993AUL    AUL 2913  31.083  13.823   7.992
 2994THSLK    S 2914  31.217  13.558   8.184
 2995ETHY    C1 2915  31.502  13.661   8.524
 2996ETHY    C1 2916  31.804  13.865   8.921
 2997ETHY    C1 2917  32.049  14.155   9.294
 2998ETHY    C1 2918  32.233  14.518   9.638
 2999ETHY    C1 2919  32.352  14.948   9.948
 3000THSLK    S 2920  30.983  13.936   7.771
 3001ETHY    C1 2921  31.227  14.290   7.922
 3002ETHY    C1 2922  31.440  14.756   8.087
 3003ETHY    C1 2923  31.556  15.255   8.231
 3004ETHY    C1 2924  31.575  15.773   8.356
 3005ETHY    C1 2925  31.500  16.301   8.458
 3006AUSL   AUS 2926  30.780  12.449   7.911
 3007AUSL   AUS 2927  31.197  12.518   7.766
 3008AUL    AUL 2928  31.083  12.234   7.992
 3009THSLK    S 2929  30.736  12.194   7.990
 3010ETHY    C1 2930  30.576  11.790   8.128
 3011ETHY    C1 2931  30.462  11.309   8.341
 3012ETHY    C1 2932  30.437  10.848   8.605
 3013ETHY    C1 2933  30.496  10.418   8.915
 3014ETHY    C1 2934  30.637  10.026   9.263
 3015THSLK    S 2935  31.312  12.329   7.908
 3016ETHY    C1 2936  31.428  11.913   8.052
 3017ETHY    C1 2937  31.642  11.460   8.248
 3018ETHY    C1 2938  31.934  11.072   8.467
 3019ETHY    C1 2939  32.293  10.757   8.705
 3020ETHY    C1 2940  32.710  10.520   8.958
 3021AUSL   AUS 2941  30.628  12.355   7.665
 3022AUSL   AUS 2942  30.515  12.612   8.012
 3023AUL    AUL 2943  30.477  12.234   7.992
 3024THSLK    S 2944  30.575  12.115   7.745
 3025ETHY    C1 2945  30.330  11.734   7.801
 3026ETHY    C1 2946  30.117  11.249   7.897
 3027ETHY    C1 2947  30.002  10.746   8.025
 3028ETHY    C1 2948  29.983  10.237   8.186
 3029ETHY    C1 2949  30.057   9.734   8.374
 3030THSLK    S 2950  30.337  12.444   8.133
 3031ETHY    C1 2951  30.049  12.126   8.289
 3032ETHY    C1 2952  29.749  11.766   8.552
 3033ETHY    C1 2953  29.506  11.440   8.896
 3034ETHY    C1 2954  29.322  11.157   9.309
 3035ETHY    C1 2955  29.198  10.923   9.783
 3036AUSL   AUS 2956  30.932  12.355   7.665
 3037AUSL   AUS 2957  30.628  12.355   7.338
 3038AUL    AUL 2958  30.780  12.047   7.502
 3039THSLK    S 2959  30.577  12.112   7.266
 3040ETHY    C1 2960  30.333  11.730   7.215
 3041ETHY    C1 2961  30.120  11.246   7.117
 3042ETHY    C1 2962  30.004  10.744   6.984
 3043ETHY    C1 2963  29.985  10.235   6.825
 3044ETHY    C1 2964  30.061   9.730   6.642
 3045THSLK    S 2965  30.889  12.099   7.749
 3046ETHY    C1 2966  30.779  11.663   7.821
 3047ETHY    C1 2967  30.736  11.137   7.928
 3048ETHY    C1 2968  30.793  10.625   8.059
 3049ETHY    C1 2969  30.946  10.137   8.213
 3050ETHY    C1 2970  31.188   9.684   8.388
 3051AUSL   AUS 2971  30.780  13.609   7.093
 3052AUSL   AUS 2972  31.197  13.539   7.237
 3053AUL    AUL 2973  31.083  13.823   7.011
 3054THSLK    S 2974  30.824  13.839   6.975
 3055ETHY    C1 2975  30.984  14.143   6.674
 3056ETHY    C1 2976  31.098  14.548   6.339
 3057ETHY    C1 2977  31.123  14.991   6.045
 3058ETHY    C1 2978  31.064  15.460   5.798
 3059ETHY    C1 2979  30.923  15.947   5.604
 3060THSLK    S 2980  31.384  13.660   7.085
 3061ETHY    C1 2981  31.758  13.816   6.876
 3062ETHY    C1 2982  32.156  14.080   6.629
 3063ETHY    C1 2983  32.489  14.424   6.395
 3064ETHY    C1 2984  32.751  14.836   6.184
 3065ETHY    C1 2985  32.942  15.310   5.998
 3066AUSL   AUS 2986  30.628  13.702   7.338
 3067AUSL   AUS 2987  30.515  13.445   6.992
 3068AUL    AUL 2988  30.477  13.823   7.011
 3069THSLK    S 2989  30.671  13.953   7.237
 3070ETHY    C1 2990  30.781  14.364   7.074
 3071ETHY    C1 2991  30.824  14.870   6.896
 3072ETHY    C1 2992  30.767  15.378   6.745
 3073ETHY    C1 2993  30.614  15.875   6.627
 3074ETHY    C1 2994  30.372  16.354   6.545
 3075THSLK    S 2995  30.401  13.580   6.802
 3076ETHY    C1 2996  30.335  13.752   6.385
 3077ETHY    C1 2997  30.192  14.004   5.932
 3078ETHY    C1 2998  29.983  14.303   5.544
 3079ETHY    C1 2999  29.717  14.641   5.230
 3080ETHY    C1 3000  29.401  15.014   4.993
 3081AUSL   AUS 3001  30.780  12.449   7.093
 3082AUSL   AUS 3002  30.364  12.518   7.237
 3083AUL    AUL 3003  30.477  12.234   7.011
 3084THSLK    S 3004  30.180  12.368   7.128
 3085ETHY    C1 3005  29.808  12.107   7.085
 3086ETHY    C1 3006  29.409  11.769   6.958
 3087ETHY    C1 3007  29.074  11.410   6.753
 3088ETHY    C1 3008  28.812  11.036   6.478
 3089ETHY    C1 3009  28.625  10.653   6.142
 3090THSLK    S 3010  30.740  12.190   7.019
 3091ETHY    C1 3011  30.583  11.784   6.885
 3092ETHY    C1 3012  30.468  11.304   6.671
 3093ETHY    C1 3013  30.441  10.845   6.404
 3094ETHY    C1 3014  30.501  10.414   6.094
 3095ETHY    C1 3015  30.645  10.019   5.751
 3096AUSL   AUS 3016  30.932  12.355   7.338
 3097AUSL   AUS 3017  31.045  12.612   6.992
 3098AUL    AUL 3018  31.083  12.234   7.011
 3099THSLK    S 3019  30.891  12.098   7.262
 3100ETHY    C1 3020  30.782  11.660   7.195
 3101ETHY    C1 3021  30.739  11.134   7.086
 3102ETHY    C1 3022  30.795  10.623   6.951
 3103ETHY    C1 3023  30.948  10.135   6.798
 3104ETHY    C1 3024  31.192   9.681   6.629
 3105THSLK    S 3025  31.165  12.422   6.853
 3106ETHY    C1 3026  31.234  12.036   6.621
 3107ETHY    C1 3027  31.376  11.628   6.300
 3108ETHY    C1 3028  31.583  11.292   5.942
 3109ETHY    C1 3029  31.849  11.035   5.559
 3110ETHY    C1 3030  32.169  10.857   5.158
 3111AUC    AUC 3031  22.640   5.811   7.502
 3112AUC    AUC 3032  22.886   5.811   7.350
 3113AUC    AUC 3033  22.886   5.811   7.653
 3114AUC    AUC 3034  22.395   5.811   7.350
 3115AUC    AUC 3035  22.395   5.811   7.653
 3116AUC    AUC 3036  22.488   6.056   7.502
 3117AUC    AUC 3037  22.792   6.056   7.502
 3118AUC    AUC 3038  22.488   5.565   7.502
 3119AUC    AUC 3039  22.792   5.565   7.502
 3120AUC    AUC 3040  22.640   5.659   7.747
 3121AUC    AUC 3041  22.640   5.962   7.747
 3122AUC    AUC 3042  22.640   5.659   7.256
 3123AUC    AUC 3043  22.640   5.962   7.256
 3124AUC    AUC 3044  23.131   5.811   7.198
 3125AUC    AUC 3045  23.131   5.811   7.502
 3126AUC    AUC 3046  23.131   5.811   7.805
 3127AUC    AUC 3047  22.149   5.811   7.198
 3128AUC    AUC 3048  22.149   5.811   7.502
 3129AUC    AUC 3049  22.149   5.811   7.805
 3130AUC    AUC 3050  22.337   6.301   7.502
 3131AUC    AUC 3051  22.640   6.301   7.502
 3132AUC    AUC 3052  22.943   6.301   7.502
 3133AUC    AUC 3053  22.337   5.320   7.502
 3134AUC    AUC 3054  22.640   5.320   7.502
 3135AUC    AUC 3055  22.943   5.320   7.502
 3136AUC    AUC 3056  22.640   5.507   7.992
 3137AUC    AUC 3057  22.640   5.811   7.992
 3138AUC    AUC 3058  22.640   6.114   7.992
 3139AUC    AUC 3059  22.640   5.507   7.011
 3140AUC    AUC 3060  22.640   5.811   7.011
 3141AUC    AUC 3061  22.640   6.114   7.011
 3142AUC    AUC 3062  22.886   5.659   7.899
 3143AUC    AUC 3063  22.886   5.962   7.899
 3144AUC    AUC 3064  22.886   5.659   7.105
 3145AUC    AUC 3065  22.886   5.962   7.105
 3146AUC    AUC 3066  22.395   5.659   7.899
 3147AUC    AUC 3067  22.395   5.962   7.899
 3148AUC    AUC 3068  22.395   5.659   7.105
 3149AUC    AUC 3069  22.395   5.962   7.105
 3150AUC    AUC 3070  23.037   6.056   7.350
 3151AUC    AUC 3071  23.037   6.056   7.653
 3152AUC    AUC 3072  22.243   6.056   7.350
 3153AUC    AUC 3073  22.243   6.056   7.653
 3154AUC    AUC 3074  23.037   5.565   7.350
 3155AUC    AUC 3075  23.037   5.565   7.653
 3156AUC    AUC 3076  22.243   5.565   7.350
 3157AUC    AUC 3077  22.243   5.565   7.653
 3158AUC    AUC 3078  22.488   6.208   7.747
 3159AUC    AUC 3079  22.792   6.208   7.747
 3160AUC    AUC 3080  22.488   5.413   7.747
 3161AUC    AUC 3081  22.792   5.413   7.747
 3162AUC    AUC 3082  22.488   6.208   7.256
 3163AUC    AUC 3083  22.792   6.208   7.256
 3164AUC    AUC 3084  22.488   5.413   7.256
 3165AUC    AUC 3085  22.792   5.413   7.256
 3166AUSL   AUS 3086  23.049   5.811   8.082
 3167AUSL   AUS 3087  22.905   5.394   8.012
 3168AUL    AUL 3088  23.131   5.507   8.296
 3169THSLK    S 3089  23.019   5.206   8.156
 3170ETHY    C1 3090  23.085   4.821   8.391
 3171ETHY    C1 3091  23.228   4.413   8.710
 3172ETHY    C1 3092  23.437   4.077   9.066
 3173ETHY    C1 3093  23.703   3.819   9.450
 3174ETHY    C1 3094  24.019   3.643   9.855
 3175THSLK    S 3095  23.145   5.761   8.326
 3176ETHY    C1 3096  23.361   5.575   8.681
 3177ETHY    C1 3097  23.636   5.440   9.124
 3178ETHY    C1 3098  23.917   5.410   9.575
 3179ETHY    C1 3099  24.195   5.479  10.025
 3180ETHY    C1 3100  24.464   5.647  10.466
 3181AUSL   AUS 3101  22.804   5.659   8.175
 3182AUSL   AUS 3102  22.477   5.962   8.175
 3183AUL    AUL 3103  22.640   5.811   8.483
 3184THSLK    S 3104  22.882   5.606   8.417
 3185ETHY    C1 3105  22.959   5.356   8.790
 3186ETHY    C1 3106  23.075   5.139   9.269
 3187ETHY    C1 3107  23.212   5.023   9.769
 3188ETHY    C1 3108  23.362   5.005  10.281
 3189ETHY    C1 3109  23.521   5.086  10.794
 3190THSLK    S 3110  22.390   5.919   8.431
 3191ETHY    C1 3111  22.308   5.807   8.864
 3192ETHY    C1 3112  22.194   5.761   9.388
 3193ETHY    C1 3113  22.062   5.819   9.901
 3194ETHY    C1 3114  21.911   5.972  10.389
 3195ETHY    C1 3115  21.745   6.216  10.844
 3196AUSL   AUS 3116  22.804   5.962   8.175
 3197AUSL   AUS 3117  23.150   6.075   7.918
 3198AUL    AUL 3118  23.131   6.114   8.296
 3199THSLK    S 3119  22.891   6.016   8.414
 3200ETHY    C1 3120  22.972   6.267   8.786
 3201ETHY    C1 3121  23.086   6.483   9.265
 3202ETHY    C1 3122  23.219   6.599   9.767
 3203ETHY    C1 3123  23.369   6.617  10.279
 3204ETHY    C1 3124  23.535   6.537  10.789
 3205THSLK    S 3125  23.324   6.177   8.080
 3206ETHY    C1 3126  23.688   6.187   8.354
 3207ETHY    C1 3127  24.104   6.289   8.680
 3208ETHY    C1 3128  24.484   6.488   8.995
 3209ETHY    C1 3129  24.819   6.775   9.296
 3210ETHY    C1 3130  25.100   7.143   9.577
 3211AUSL   AUS 3131  23.049   5.811   6.922
 3212AUSL   AUS 3132  22.905   6.227   6.992
 3213AUL    AUL 3133  23.131   6.114   6.707
 3214THSLK    S 3134  23.152   5.761   6.681
 3215ETHY    C1 3135  23.373   5.575   6.329
 3216ETHY    C1 3136  23.646   5.440   5.885
 3217ETHY    C1 3137  23.924   5.410   5.432
 3218ETHY    C1 3138  24.202   5.479   4.982
 3219ETHY    C1 3139  24.476   5.647   4.545
 3220THSLK    S 3140  23.083   6.342   6.825
 3221ETHY    C1 3141  23.371   6.447   6.488
 3222ETHY    C1 3142  23.671   6.651   6.090
 3223ETHY    C1 3143  23.914   6.939   5.714
 3224ETHY    C1 3144  24.098   7.303   5.371
 3225ETHY    C1 3145  24.222   7.734   5.065
 3226AUSL   AUS 3146  22.804   5.659   6.828
 3227AUSL   AUS 3147  23.150   5.546   7.085
 3228AUL    AUL 3148  23.131   5.507   6.707
 3229THSLK    S 3149  23.287   5.354   6.944
 3230ETHY    C1 3150  23.495   5.011   6.729
 3231ETHY    C1 3151  23.796   4.669   6.442
 3232ETHY    C1 3152  24.147   4.416   6.133
 3233ETHY    C1 3153  24.541   4.254   5.812
 3234ETHY    C1 3154  24.970   4.183   5.486
 3235THSLK    S 3155  22.891   5.605   6.590
 3236ETHY    C1 3156  22.972   5.354   6.217
 3237ETHY    C1 3157  23.086   5.138   5.738
 3238ETHY    C1 3158  23.219   5.022   5.236
 3239ETHY    C1 3159  23.369   5.004   4.725
 3240ETHY    C1 3160  23.535   5.084   4.214
 3241AUSL   AUS 3161  22.804   5.962   6.828
 3242AUSL   AUS 3162  22.477   5.659   6.828
 3243AUL    AUL 3163  22.640   5.811   6.520
 3244THSLK    S 3164  22.382   5.605   6.592
 3245ETHY    C1 3165  22.245   5.357   6.235
 3246ETHY    C1 3166  22.085   5.143   5.767
 3247ETHY    C1 3167  21.938   5.028   5.269
 3248ETHY    C1 3168  21.811   5.009   4.751
 3249ETHY    C1 3169  21.706   5.085   4.224
 3250THSLK    S 3170  22.907   5.920   6.578
 3251ETHY    C1 3171  23.048   5.805   6.160
 3252ETHY    C1 3172  23.206   5.758   5.647
 3253ETHY    C1 3173  23.349   5.814   5.138
 3254ETHY    C1 3174  23.477   5.968   4.643
 3255ETHY    C1 3175  23.588   6.216   4.174
 3256AUSL   AUS 3176  22.231   5.811   8.082
 3257AUSL   AUS 3177  22.375   6.227   8.012
 3258AUL    AUL 3178  22.149   6.114   8.296
 3259THSLK    S 3179  22.128   5.761   8.322
 3260ETHY    C1 3180  21.907   5.575   8.674
 3261ETHY    C1 3181  21.634   5.440   9.118
 3262ETHY    C1 3182  21.357   5.410   9.571
 3263ETHY    C1 3183  21.079   5.479  10.021
 3264ETHY    C1 3184  20.804   5.647  10.458
 3265THSLK    S 3185  22.255   6.356   8.202
 3266ETHY    C1 3186  22.186   6.525   8.620
 3267ETHY    C1 3187  22.044   6.778   9.073
 3268ETHY    C1 3188  21.838   7.079   9.460
 3269ETHY    C1 3189  21.571   7.418   9.775
 3270ETHY    C1 3190  21.251   7.785  10.013
 3271AUSL   AUS 3191  22.477   5.659   8.175
 3272AUSL   AUS 3192  22.130   5.546   7.918
 3273AUL    AUL 3193  22.149   5.507   8.296
 3274THSLK    S 3194  21.952   5.382   8.029
 3275ETHY    C1 3195  21.584   5.129   8.125
 3276ETHY    C1 3196  21.169   4.850   8.323
 3277ETHY    C1 3197  20.791   4.610   8.611
 3278ETHY    C1 3198  20.457   4.414   8.978
 3279ETHY    C1 3199  20.171   4.268   9.415
 3280THSLK    S 3200  22.374   5.607   8.410
 3281ETHY    C1 3201  22.232   5.360   8.766
 3282ETHY    C1 3202  22.074   5.145   9.233
 3283ETHY    C1 3203  21.931   5.029   9.733
 3284ETHY    C1 3204  21.804   5.011  10.250
 3285ETHY    C1 3205  21.692   5.089  10.775
 3286AUSL   AUS 3206  22.231   5.811   6.922
 3287AUSL   AUS 3207  22.375   5.394   6.992
 3288AUL    AUL 3208  22.149   5.507   6.707
 3289THSLK    S 3209  22.136   5.761   6.677
 3290ETHY    C1 3210  21.919   5.575   6.322
 3291ETHY    C1 3211  21.644   5.440   5.879
 3292ETHY    C1 3212  21.363   5.410   5.429
 3293ETHY    C1 3213  21.085   5.479   4.978
 3294ETHY    C1 3214  20.817   5.647   4.537
 3295THSLK    S 3215  22.203   5.220   6.872
 3296ETHY    C1 3216  21.918   4.899   6.717
 3297ETHY    C1 3217  21.617   4.540   6.453
 3298ETHY    C1 3218  21.372   4.217   6.109
 3299ETHY    C1 3219  21.188   3.934   5.696
 3300ETHY    C1 3220  21.069   3.694   5.223
 3301AUSL   AUS 3221  22.477   5.962   6.828
 3302AUSL   AUS 3222  22.130   6.075   7.085
 3303AUL    AUL 3223  22.149   6.114   6.707
 3304THSLK    S 3224  21.999   6.205   6.893
 3305ETHY    C1 3225  21.793   6.305   6.499
 3306ETHY    C1 3226  21.491   6.469   6.085
 3307ETHY    C1 3227  21.137   6.681   5.748
 3308ETHY    C1 3228  20.744   6.935   5.494
 3309ETHY    C1 3229  20.319   7.228   5.324
 3310THSLK    S 3230  22.398   5.921   6.571
 3311ETHY    C1 3231  22.321   5.809   6.136
 3312ETHY    C1 3232  22.205   5.764   5.612
 3313ETHY    C1 3233  22.069   5.820   5.101
 3314ETHY    C1 3234  21.919   5.974   4.613
 3315ETHY    C1 3235  21.759   6.219   4.156
 3316AUSL   AUS 3236  23.220   6.220   7.502
 3317AUSL   AUS 3237  23.150   6.075   7.085
 3318AUL    AUL 3238  23.434   6.301   7.198
 3319THSLK    S 3239  23.329   6.178   6.930
 3320ETHY    C1 3240  23.696   6.189   6.659
 3321ETHY    C1 3241  24.111   6.291   6.332
 3322ETHY    C1 3242  24.489   6.489   6.014
 3323ETHY    C1 3243  24.823   6.776   5.713
 3324ETHY    C1 3244  25.109   7.146   5.438
 3325THSLK    S 3245  23.488   6.276   7.506
 3326ETHY    C1 3246  23.940   6.337   7.508
 3327ETHY    C1 3247  24.454   6.496   7.507
 3328ETHY    C1 3248  24.922   6.750   7.505
 3329ETHY    C1 3249  25.335   7.087   7.506
 3330ETHY    C1 3250  25.687   7.501   7.509
 3331AUSL   AUS 3251  23.314   5.974   7.350
 3332AUSL   AUS 3252  23.314   5.647   7.653
 3333AUL    AUL 3253  23.622   5.811   7.502
 3334THSLK    S 3254  23.573   6.017   7.348
 3335ETHY    C1 3255  24.018   5.947   7.278
 3336ETHY    C1 3256  24.549   5.954   7.190
 3337ETHY    C1 3257  25.062   6.064   7.101
 3338ETHY    C1 3258  25.547   6.270   7.017
 3339ETHY    C1 3259  25.994   6.567   6.940
 3340THSLK    S 3260  23.546   5.509   7.662
 3341ETHY    C1 3261  23.892   5.220   7.728
 3342ETHY    C1 3262  24.353   4.953   7.809
 3343ETHY    C1 3263  24.850   4.784   7.892
 3344ETHY    C1 3264  25.371   4.712   7.980
 3345ETHY    C1 3265  25.906   4.738   8.071
 3346AUSL   AUS 3266  23.314   5.974   7.653
 3347AUSL   AUS 3267  23.057   6.321   7.766
 3348AUL    AUL 3268  23.434   6.301   7.805
 3349THSLK    S 3269  23.240   6.440   7.926
 3350ETHY    C1 3270  23.612   6.595   8.139
 3351ETHY    C1 3271  24.012   6.860   8.385
 3352ETHY    C1 3272  24.346   7.204   8.615
 3353ETHY    C1 3273  24.608   7.617   8.827
 3354ETHY    C1 3274  24.795   8.089   9.019
 3355THSLK    S 3275  23.572   6.017   7.664
 3356ETHY    C1 3276  24.016   5.947   7.738
 3357ETHY    C1 3277  24.547   5.954   7.825
 3358ETHY    C1 3278  25.061   6.064   7.910
 3359ETHY    C1 3279  25.545   6.270   7.994
 3360ETHY    C1 3280  25.992   6.567   8.078
 3361AUSL   AUS 3281  22.060   6.220   7.502
 3362AUSL   AUS 3282  22.130   6.075   7.918
 3363AUL    AUL 3283  21.846   6.301   7.805
 3364THSLK    S 3284  21.994   6.198   8.109
 3365ETHY    C1 3285  21.785   6.294   8.503
 3366ETHY    C1 3286  21.484   6.460   8.917
 3367ETHY    C1 3287  21.133   6.675   9.254
 3368ETHY    C1 3288  20.739   6.929   9.509
 3369ETHY    C1 3289  20.310   7.216   9.678
 3370THSLK    S 3290  21.844   6.360   7.506
 3371ETHY    C1 3291  21.588   6.738   7.508
 3372ETHY    C1 3292  21.215   7.126   7.507
 3373ETHY    C1 3293  20.779   7.432   7.505
 3374ETHY    C1 3294  20.293   7.650   7.506
 3375ETHY    C1 3295  19.766   7.780   7.509
 3376AUSL   AUS 3296  21.966   5.974   7.350
 3377AUSL   AUS 3297  22.224   6.321   7.237
 3378AUL    AUL 3298  21.846   6.301   7.198
 3379THSLK    S 3299  21.735   6.089   7.303
 3380ETHY    C1 3300  21.388   6.277   7.075
 3381ETHY    C1 3301  20.928   6.469   6.872
 3382ETHY    C1 3302  20.430   6.619   6.758
 3383ETHY    C1 3303  19.909   6.729   6.733
 3384ETHY    C1 3304  19.375   6.799   6.796
 3385THSLK    S 3305  22.108   6.486   7.058
 3386ETHY    C1 3306  21.992   6.802   6.750
 3387ETHY    C1 3307  21.778   7.180   6.432
 3388ETHY    C1 3308  21.486   7.549   6.183
 3389ETHY    C1 3309  21.128   7.902   6.008
 3390ETHY    C1 3310  20.710   8.235   5.909
 3391AUSL   AUS 3311  21.966   5.974   7.653
 3392AUSL   AUS 3312  21.966   5.647   7.350
 3393AUL    AUL 3313  21.658   5.811   7.502
 3394THSLK    S 3314  21.708   5.573   7.390
 3395ETHY    C1 3315  21.264   5.538   7.486
 3396ETHY    C1 3316  20.733   5.457   7.518
 3397ETHY    C1 3317  20.219   5.332   7.458
 3398ETHY    C1 3318  19.735   5.164   7.311
 3399ETHY    C1 3319  19.288   4.957   7.083
 3400THSLK    S 3320  21.733   6.081   7.704
 3401ETHY    C1 3321  21.386   6.265   7.935
 3402ETHY    C1 3322  20.926   6.458   8.137
 3403ETHY    C1 3323  20.429   6.613   8.249
 3404ETHY    C1 3324  19.908   6.723   8.274
 3405ETHY    C1 3325  19.372   6.786   8.213
 3406AUSL   AUS 3326  23.220   5.401   7.502
 3407AUSL   AUS 3327  23.150   5.546   7.918
 3408AUL    AUL 3328  23.434   5.320   7.805
 3409THSLK    S 3329  23.436   5.261   7.506
 3410ETHY    C1 3330  23.692   4.883   7.508
 3411ETHY    C1 3331  24.065   4.495   7.507
 3412ETHY    C1 3332  24.501   4.189   7.505
 3413ETHY    C1 3333  24.987   3.971   7.506
 3414ETHY    C1 3334  25.514   3.841   7.509
 3415THSLK    S 3335  23.282   5.356   8.066
 3416ETHY    C1 3336  23.487   5.013   8.285
 3417ETHY    C1 3337  23.789   4.671   8.570
 3418ETHY    C1 3338  24.143   4.418   8.877
 3419ETHY    C1 3339  24.537   4.255   9.198
 3420ETHY    C1 3340  24.961   4.185   9.529
 3421AUSL   AUS 3341  23.314   5.647   7.350
 3422AUSL   AUS 3342  23.057   5.300   7.237
 3423AUL    AUL 3343  23.434   5.320   7.198
 3424THSLK    S 3344  23.547   5.509   7.350
 3425ETHY    C1 3345  23.895   5.220   7.289
 3426ETHY    C1 3346  24.354   4.953   7.206
 3427ETHY    C1 3347  24.851   4.784   7.118
 3428ETHY    C1 3348  25.373   4.712   7.031
 3429ETHY    C1 3349  25.908   4.738   6.947
 3430THSLK    S 3350  23.176   5.110   7.104
 3431ETHY    C1 3351  23.293   4.693   6.963
 3432ETHY    C1 3352  23.507   4.239   6.765
 3433ETHY    C1 3353  23.797   3.853   6.543
 3434ETHY    C1 3354  24.156   3.538   6.306
 3435ETHY    C1 3355  24.576   3.299   6.058
 3436AUSL   AUS 3356  22.060   5.401   7.502
 3437AUSL   AUS 3357  22.130   5.546   7.085
 3438AUL    AUL 3358  21.846   5.320   7.198
 3439THSLK    S 3359  21.957   5.375   6.973
 3440ETHY    C1 3360  21.592   5.118   6.877
 3441ETHY    C1 3361  21.176   4.841   6.679
 3442ETHY    C1 3362  20.796   4.604   6.392
 3443ETHY    C1 3363  20.462   4.408   6.025
 3444ETHY    C1 3364  20.180   4.256   5.587
 3445THSLK    S 3365  21.792   5.345   7.506
 3446ETHY    C1 3366  21.340   5.284   7.508
 3447ETHY    C1 3367  20.826   5.125   7.507
 3448ETHY    C1 3368  20.358   4.871   7.505
 3449ETHY    C1 3369  19.945   4.534   7.506
 3450ETHY    C1 3370  19.593   4.120   7.509
 3451AUSL   AUS 3371  21.966   5.647   7.653
 3452AUSL   AUS 3372  22.224   5.300   7.766
 3453AUL    AUL 3373  21.846   5.320   7.805
 3454THSLK    S 3374  22.036   5.156   7.880
 3455ETHY    C1 3375  21.662   4.899   7.926
 3456ETHY    C1 3376  21.264   4.559   8.052
 3457ETHY    C1 3377  20.931   4.197   8.255
 3458ETHY    C1 3378  20.669   3.823   8.529
 3459ETHY    C1 3379  20.478   3.445   8.870
 3460THSLK    S 3380  21.707   5.580   7.617
 3461ETHY    C1 3381  21.262   5.550   7.524
 3462ETHY    C1 3382  20.731   5.468   7.490
 3463ETHY    C1 3383  20.218   5.339   7.549
 3464ETHY    C1 3384  19.734   5.171   7.696
 3465ETHY    C1 3385  19.286   4.969   7.928
 3466AUSL   AUS 3386  22.640   6.391   7.911
 3467AUSL   AUS 3387  22.224   6.321   7.766
 3468AUL    AUL 3388  22.337   6.605   7.992
 3469THSLK    S 3389  22.104   6.480   7.950
 3470ETHY    C1 3390  21.987   6.792   8.261
 3471ETHY    C1 3391  21.773   7.172   8.578
 3472ETHY    C1 3392  21.483   7.543   8.824
 3473ETHY    C1 3393  21.125   7.897   9.000
 3474ETHY    C1 3394  20.704   8.225   9.102
 3475THSLK    S 3395  22.680   6.617   8.035
 3476ETHY    C1 3396  22.837   6.919   8.339
 3477ETHY    C1 3397  22.952   7.325   8.672
 3478ETHY    C1 3398  22.979   7.769   8.964
 3479ETHY    C1 3399  22.919   8.238   9.211
 3480ETHY    C1 3400  22.775   8.722   9.410
 3481AUSL   AUS 3401  22.488   6.484   7.665
 3482AUSL   AUS 3402  22.792   6.484   7.338
 3483AUL    AUL 3403  22.640   6.792   7.502
 3484THSLK    S 3404  22.529   6.732   7.774
 3485ETHY    C1 3405  22.638   7.142   7.942
 3486ETHY    C1 3406  22.682   7.649   8.118
 3487ETHY    C1 3407  22.625   8.157   8.265
 3488ETHY    C1 3408  22.472   8.654   8.383
 3489ETHY    C1 3409  22.229   9.131   8.472
 3490THSLK    S 3410  22.845   6.719   7.241
 3491ETHY    C1 3411  23.090   7.075   7.094
 3492ETHY    C1 3412  23.303   7.540   6.927
 3493ETHY    C1 3413  23.418   8.038   6.779
 3494ETHY    C1 3414  23.438   8.557   6.655
 3495ETHY    C1 3415  23.363   9.086   6.558
 3496AUSL   AUS 3416  22.792   6.484   7.665
 3497AUSL   AUS 3417  22.905   6.227   8.012
 3498AUL    AUL 3418  22.943   6.605   7.992
 3499THSLK    S 3419  23.077   6.340   8.184
 3500ETHY    C1 3420  23.362   6.443   8.524
 3501ETHY    C1 3421  23.664   6.647   8.921
 3502ETHY    C1 3422  23.909   6.937   9.294
 3503ETHY    C1 3423  24.093   7.300   9.638
 3504ETHY    C1 3424  24.212   7.730   9.948
 3505THSLK    S 3425  22.843   6.718   7.771
 3506ETHY    C1 3426  23.087   7.072   7.922
 3507ETHY    C1 3427  23.300   7.538   8.087
 3508ETHY    C1 3428  23.416   8.037   8.231
 3509ETHY    C1 3429  23.435   8.555   8.356
 3510ETHY    C1 3430  23.360   9.083   8.458
 3511AUSL   AUS 3431  22.640   5.231   7.911
 3512AUSL   AUS 3432  23.057   5.300   7.766
 3513AUL    AUL 3433  22.943   5.016   7.992
 3514THSLK    S 3434  22.596   4.976   7.990
 3515ETHY    C1 3435  22.436   4.572   8.128
 3516ETHY    C1 3436  22.322   4.091   8.341
 3517ETHY    C1 3437  22.297   3.630   8.605
 3518ETHY    C1 3438  22.356   3.200   8.915
 3519ETHY    C1 3439  22.497   2.808   9.263
 3520THSLK    S 3440  23.172   5.111   7.908
 3521ETHY    C1 3441  23.288   4.695   8.052
 3522ETHY    C1 3442  23.502   4.242   8.248
 3523ETHY    C1 3443  23.794   3.854   8.467
 3524ETHY    C1 3444  24.153   3.539   8.705
 3525ETHY    C1 3445  24.570   3.302   8.958
 3526AUSL   AUS 3446  22.488   5.137   7.665
 3527AUSL   AUS 3447  22.375   5.394   8.012
 3528AUL    AUL 3448  22.337   5.016   7.992
 3529THSLK    S 3449  22.435   4.897   7.745
 3530ETHY    C1 3450  22.190   4.516   7.801
 3531ETHY    C1 3451  21.977   4.031   7.897
 3532ETHY    C1 3452  21.862   3.528   8.025
 3533ETHY    C1 3453  21.843   3.019   8.186
 3534ETHY    C1 3454  21.917   2.516   8.374
 3535THSLK    S 3455  22.197   5.226   8.133
 3536ETHY    C1 3456  21.909   4.908   8.289
 3537ETHY    C1 3457  21.609   4.548   8.552
 3538ETHY    C1 3458  21.366   4.222   8.896
 3539ETHY    C1 3459  21.182   3.939   9.309
 3540ETHY    C1 3460  21.058   3.705   9.783
 3541AUSL   AUS 3461  22.792   5.137   7.665
 3542AUSL   AUS 3462  22.488   5.137   7.338
 3543AUL    AUL 3463  22.640   4.829   7.502
 3544THSLK    S 3464  22.437   4.894   7.266
 3545ETHY    C1 3465  22.193   4.512   7.215
 3546ETHY    C1 3466  21.980   4.028   7.117
 3547ETHY    C1 3467  21.864   3.526   6.984
 3548ETHY    C1 3468  21.845   3.017   6.825
 3549ETHY    C1 3469  21.921   2.512   6.642
 3550THSLK    S 3470  22.749   4.881   7.749
 3551ETHY    C1 3471  22.639   4.445   7.821
 3552ETHY    C1 3472  22.596   3.919   7.928
 3553ETHY    C1 3473  22.653   3.407   8.059
 3554ETHY    C1 3474  22.806   2.919   8.213
 3555ETHY    C1 3475  23.048   2.466   8.388
 3556AUSL   AUS 3476  22.640   6.391   7.093
 3557AUSL   AUS 3477  23.057   6.321   7.237
 3558AUL    AUL 3478  22.943   6.605   7.011
 3559THSLK    S 3479  22.684   6.621   6.975
 3560ETHY    C1 3480  22.844   6.925   6.674
 3561ETHY    C1 3481  22.958   7.330   6.339
 3562ETHY    C1 3482  22.983   7.773   6.045
 3563ETHY    C1 3483  22.924   8.242   5.798
 3564ETHY    C1 3484  22.783   8.729   5.604
 3565THSLK    S 3485  23.244   6.442   7.085
 3566ETHY    C1 3486  23.618   6.598   6.876
 3567ETHY    C1 3487  24.016   6.862   6.629
 3568ETHY    C1 3488  24.349   7.206   6.395
 3569ETHY    C1 3489  24.611   7.618   6.184
 3570ETHY    C1 3490  24.802   8.092   5.998
 3571AUSL   AUS 3491  22.488   6.484   7.338
 3572AUSL   AUS 3492  22.375   6.227   6.992
 3573AUL    AUL 3493  22.337   6.605   7.011
 3574THSLK    S 3494  22.531   6.735   7.237
 3575ETHY    C1 3495  22.641   7.146   7.074
 3576ETHY    C1 3496  22.684   7.652   6.896
 3577ETHY    C1 3497  22.627   8.160   6.745
 3578ETHY    C1 3498  22.474   8.657   6.627
 3579ETHY    C1 3499  22.232   9.136   6.545
 3580THSLK    S 3500  22.261   6.362   6.802
 3581ETHY    C1 3501  22.195   6.534   6.385
 3582ETHY    C1 3502  22.052   6.786   5.932
 3583ETHY    C1 3503  21.843   7.085   5.544
 3584ETHY    C1 3504  21.577   7.423   5.230
 3585ETHY    C1 3505  21.261   7.796   4.993
 3586AUSL   AUS 3506  22.640   5.231   7.093
 3587AUSL   AUS 3507  22.224   5.300   7.237
 3588AUL    AUL 3508  22.337   5.016   7.011
 3589THSLK    S 3509  22.040   5.150   7.128
 3590ETHY    C1 3510  21.668   4.889   7.085
 3591ETHY    C1 3511  21.269   4.551   6.958
 3592ETHY    C1 3512  20.934   4.192   6.753
 3593ETHY    C1 3513  20.672   3.818   6.478
 3594ETHY    C1 3514  20.485   3.435   6.142
 3595THSLK    S 3515  22.600   4.972   7.019
 3596ETHY    C1 3516  22.443   4.566   6.885
 3597ETHY    C1 3517  22.328   4.086   6.671
 3598ETHY    C1 3518  22.301   3.627   6.404
 3599ETHY    C1 3519  22.361   3.196   6.094
 3600ETHY    C1 3520  22.505   2.801   5.751
 3601AUSL   AUS 3521  22.792   5.137   7.338
 3602AUSL   AUS 3522  22.905   5.394   6.992
 3603AUL    AUL 3523  22.943   5.016   7.011
 3604THSLK    S 3524  22.751   4.880   7.262
 3605ETHY    C1 3525  22.642   4.442   7.195
 3606ETHY    C1 3526  22.599   3.916   7.086
 3607ETHY    C1 3527  22.655   3.405   6.951
 3608ETHY    C1 3528  22.808   2.917   6.798
 3609ETHY    C1 3529  23.052   2.463   6.629
 3610THSLK    S 3530  23.025   5.204   6.853
 3611ETHY    C1 3531  23.094   4.818   6.621
 3612ETHY    C1 3532  23.236   4.410   6.300
 3613ETHY    C1 3533  23.443   4.074   5.942
 3614ETHY    C1 3534  23.709   3.817   5.559
 3615ETHY    C1 3535  24.029   3.639   5.158
 3616AUC    AUC 3536   3.824  47.495   7.502
 3617AUC    AUC 3537   4.070  47.495   7.350
 3618AUC    AUC 3538   4.070  47.495   7.653
 3619AUC    AUC 3539   3.579  47.495   7.350
 3620AUC    AUC 3540   3.579  47.495   7.653
 3621AUC    AUC 3541   3.672  47.740   7.502
 3622AUC    AUC 3542   3.976  47.740   7.502
 3623AUC    AUC 3543   3.672  47.249   7.502
 3624AUC    AUC 3544   3.976  47.249   7.502
 3625AUC    AUC 3545   3.824  47.343   7.747
 3626AUC    AUC 3546   3.824  47.646   7.747
 3627AUC    AUC 3547   3.824  47.343   7.256
 3628AUC    AUC 3548   3.824  47.646   7.256
 3629AUC    AUC 3549   4.315  47.495   7.198
 3630AUC    AUC 3550   4.315  47.495   7.502
 3631AUC    AUC 3551   4.315  47.495   7.805
 3632AUC    AUC 3552   3.333  47.495   7.198
 3633AUC    AUC 3553   3.333  47.495   7.502
 3634AUC    AUC 3554   3.333  47.495   7.805
 3635AUC    AUC 3555   3.521  47.985   7.502
 3636AUC    AUC 3556   3.824  47.985   7.502
 3637AUC    AUC 3557   4.127  47.985   7.502
 3638AUC    AUC 3558   3.521  47.004   7.502
 3639AUC    AUC 3559   3.824  47.004   7.502
 3640AUC    AUC 3560   4.127  47.004   7.502
 3641AUC    AUC 3561   3.824  47.191   7.992
 3642AUC    AUC 3562   3.824  47.495   7.992
 3643AUC    AUC 3563   3.824  47.798   7.992
 3644AUC    AUC 3564   3.824  47.191   7.011
 3645AUC    AUC 3565   3.824  47.495   7.011
 3646AUC    AUC 3566   3.824  47.798   7.011
 3647AUC    AUC 3567   4.070  47.343   7.899
 3648AUC    AUC 3568   4.070  47.646   7.899
 3649AUC    AUC 3569   4.070  47.343   7.105
 3650AUC    AUC 3570   4.070  47.646   7.105
 3651AUC    AUC 3571   3.579  47.343   7.899
 3652AUC    AUC 3572   3.579  47.646   7.899
 3653AUC    AUC 3573   3.579  47.343   7.105
 3654AUC    AUC 3574   3.579  47.646   7.105
 3655AUC    AUC 3575   4.221  47.740   7.350
 3656AUC    AUC 3576   4.221  47.740   7.653
 3657AUC    AUC 3577   3.427  47.740   7.350
 3658AUC    AUC 3578   3.427  47.740   7.653
 3659AUC    AUC 3579   4.221  47.249   7.350
 3660AUC    AUC 3580   4.221  47.249   7.653
 3661AUC    AUC 3581   3.427  47.249   7.350
 3662AUC    AUC 3582   3.427  47.249   7.653
 3663AUC    AUC 3583   3.672  47.892   7.747
 3664AUC    AUC 3584   3.976  47.892   7.747
 3665AUC    AUC 3585   3.672  47.097   7.747
 3666AUC    AUC 3586   3.976  47.097   7.747
 3667AUC    AUC 3587   3.672  47.892   7.256
 3668AUC    AUC 3588   3.976  47.892   7.256
 3669AUC    AUC 3589   3.672  47.097   7.256
 3670AUC    AUC 3590   3.976  47.097   7.256
 3671AUSL   AUS 3591   4.233  47.495   8.082
 3672AUSL   AUS 3592   4.089  47.078   8.012
 3673AUL    AUL 3593   4.315  47.191   8.296
 3674THSLK    S 3594   4.203  46.890   8.156
 3675ETHY    C1 3595   4.269  46.505   8.391
 3676ETHY    C1 3596   4.412  46.097   8.710
 3677ETHY    C1 3597   4.621  45.761   9.066
 3678ETHY    C1 3598   4.887  45.503   9.450
 3679ETHY    C1 3599   5.203  45.327   9.855
 3680THSLK    S 3600   4.329  47.445   8.326
 3681ETHY    C1 3601   4.545  47.259   8.681
 3682ETHY    C1 3602   4.820  47.124   9.124
 3683ETHY    C1 3603   5.101  47.094   9.575
 3684ETHY    C1 3604   5.379  47.163  10.025
 3685ETHY    C1 3605   5.648  47.331  10.466
 3686AUSL   AUS 3606   3.988  47.343   8.175
 3687AUSL   AUS 3607   3.661  47.646   8.175
 3688AUL    AUL 3608   3.824  47.495   8.483
 3689THSLK    S 3609   4.066  47.290   8.417
 3690ETHY    C1 3610   4.143  47.040   8.790
 3691ETHY    C1 3611   4.259  46.823   9.269
 3692ETHY    C1 3612   4.396  46.707   9.769
 3693ETHY    C1 3613   4.546  46.689  10.281
 3694ETHY    C1 3614   4.705  46.770  10.794
 3695THSLK    S 3615   3.574  47.603   8.431
 3696ETHY    C1 3616   3.492  47.491   8.864
 3697ETHY    C1 3617   3.378  47.445   9.388
 3698ETHY    C1 3618   3.246  47.503   9.901
 3699ETHY    C1 3619   3.095  47.656  10.389
 3700ETHY    C1 3620   2.929  47.900  10.844
 3701AUSL   AUS 3621   3.988  47.646   8.175
 3702AUSL   AUS 3622   4.334  47.759   7.918
 3703AUL    AUL 3623   4.315  47.798   8.296
 3704THSLK    S 3624   4.075  47.700   8.414
 3705ETHY    C1 3625   4.156  47.951   8.786
 3706ETHY    C1 3626   4.270  48.167   9.265
 3707ETHY    C1 3627   4.403  48.283   9.767
 3708ETHY    C1 3628   4.553  48.301  10.279
 3709ETHY    C1 3629   4.719  48.221  10.789
 3710THSLK    S 3630   4.508  47.861   8.080
 3711ETHY    C1 3631   4.872  47.871   8.354
 3712ETHY    C1 3632   5.288  47.973   8.680
 3713ETHY    C1 3633   5.668  48.172   8.995
 3714ETHY    C1 3634   6.003  48.459   9.296
 3715ETHY    C1 3635   6.284  48.827   9.577
 3716AUSL   AUS 3636   4.233  47.495   6.922
 3717AUSL   AUS 3637   4.089  47.911   6.992
 3718AUL    AUL 3638   4.315  47.798   6.707
 3719THSLK    S 3639   4.336  47.445   6.681
 3720ETHY    C1 3640   4.557  47.259   6.329
 3721ETHY    C1 3641   4.830  47.124   5.885
 3722ETHY    C1 3642   5.108  47.094   5.432
 3723ETHY    C1 3643   5.386  47.163   4.982
 3724ETHY    C1 3644   5.660  47.331   4.545
 3725THSLK    S 3645   4.267  48.026   6.825
 3726ETHY    C1 3646   4.555  48.131   6.488
 3727ETHY    C1 3647   4.855  48.335   6.090
 3728ETHY    C1 3648   5.098  48.623   5.714
 3729ETHY    C1 3649   5.282  48.987   5.371
 3730ETHY    C1 3650   5.406  49.418   5.065
 3731AUSL   AUS 3651   3.988  47.343   6.828
 3732AUSL   AUS 3652   4.334  47.230   7.085
 3733AUL    AUL 3653   4.315  47.191   6.707
 3734THSLK    S 3654   4.471  47.038   6.944
 3735ETHY    C1 3655   4.679  46.695   6.729
 3736ETHY    C1 3656   4.980  46.353   6.442
 3737ETHY    C1 3657   5.331  46.100   6.133
 3738ETHY    C1 3658   5.725  45.938   5.812
 3739ETHY    C1 3659   6.154  45.867   5.486
 3740THSLK    S 3660   4.075  47.289   6.590
 3741ETHY    C1 3661   4.156  47.038   6.217
 3742ETHY    C1 3662   4.270  46.822   5.738
 3743ETHY    C1 3663   4.403  46.706   5.236
 3744ETHY    C1 3664   4.553  46.688   4.725
 3745ETHY    C1 3665   4.719  46.768   4.214
 3746AUSL   AUS 3666   3.988  47.646   6.828
 3747AUSL   AUS 3667   3.661  47.343   6.828
 3748AUL    AUL 3668   3.824  47.495   6.520
 3749THSLK    S 3669   3.566  47.289   6.592
 3750ETHY    C1 3670   3.429  47.041   6.235
 3751ETHY    C1 3671   3.269  46.827   5.767
 3752ETHY    C1 3672   3.122  46.712   5.269
 3753ETHY    C1 3673   2.995  46.693   4.751
 3754ETHY    C1 3674   2.890  46.769   4.224
 3755THSLK    S 3675   4.091  47.604   6.578
 3756ETHY    C1 3676   4.232  47.489   6.160
 3757ETHY    C1 3677   4.390  47.442   5.647
 3758ETHY    C1 3678   4.533  47.498   5.138
 3759ETHY    C1 3679   4.661  47.652   4.643
 3760ETHY    C1 3680   4.772  47.900   4.174
 3761AUSL   AUS 3681   3.415  47.495   8.082
 3762AUSL   AUS 3682   3.559  47.911   8.012
 3763AUL    AUL 3683   3.333  47.798   8.296
 3764THSLK    S 3684   3.312  47.445   8.322
 3765ETHY    C1 3685   3.091  47.259   8.674
 3766ETHY    C1 3686   2.818  47.124   9.118
 3767ETHY    C1 3687   2.541  47.094   9.571
 3768ETHY    C1 3688   2.263  47.163  10.021
 3769ETHY    C1 3689   1.988  47.331  10.458
 3770THSLK    S 3690   3.439  48.040   8.202
 3771ETHY    C1 3691   3.370  48.209   8.620
 3772ETHY    C1 3692   3.228  48.462   9.073
 3773ETHY    C1 3693   3.022  48.763   9.460
 3774ETHY    C1 3694   2.755  49.102   9.775
 3775ETHY    C1 3695   2.435  49.469  10.013
 3776AUSL   AUS 3696   3.661  47.343   8.175
 3777AUSL   AUS 3697   3.314  47.230   7.918
 3778AUL    AUL 3698   3.333  47.191   8.296
 3779THSLK    S 3699   3.136  47.066   8.029
 3780ETHY    C1 3700   2.768  46.813   8.125
 3781ETHY    C1 3701   2.353  46.534   8.323
 3782ETHY    C1 3702   1.975  46.294   8.611
 3783ETHY    C1 3703   1.641  46.098   8.978
 3784ETHY    C1 3704   1.355  45.952   9.415
 3785THSLK    S 3705   3.558  47.291   8.410
 3786ETHY    C1 3706   3.416  47.044   8.766
 3787ETHY    C1 3707   3.258  46.829   9.233
 3788ETHY    C1 3708   3.115  46.713   9.733
 3789ETHY    C1 3709   2.988  46.695  10.250
 3790ETHY    C1 3710   2.876  46.773  10.775
 3791AUSL   AUS 3711   3.415  47.495   6.922
 3792AUSL   AUS 3712   3.559  47.078   6.992
 3793AUL    AUL 3713   3.333  47.191   6.707
 3794THSLK    S 3714   3.320  47.445   6.677
 3795ETHY    C1 3715   3.103  47.259   6.322
 3796ETHY    C1 3716   2.828  47.124   5.879
 3797ETHY    C1 3717   2.547  47.094   5.429
 3798ETHY    C1 3718   2.269  47.163   4.978
 3799ETHY    C1 3719   2.001  47.331   4.537
 3800THSLK    S 3720   3.387  46.904   6.872
 3801ETHY    C1 3721   3.102  46.583   6.717
 3802ETHY    C1 3722   2.801  46.224   6.453
 3803ETHY    C1 3723   2.556  45.901   6.109
 3804ETHY    C1 3724   2.372  45.618   5.696
 3805ETHY    C1 3725   2.253  45.378   5.223
 3806AUSL   AUS 3726   3.661  47.646   6.828
 3807AUSL   AUS 3727   3.314  47.759   7.085
 3808AUL    AUL 3728   3.333  47.798   6.707
 3809THSLK    S 3729   3.183  47.889   6.893
 3810ETHY    C1 3730   2.977  47.989   6.499
 3811ETHY    C1 3731   2.675  48.153   6.085
 3812ETHY    C1 3732   2.321  48.365   5.748
 3813ETHY    C1 3733   1.928  48.619   5.494
 3814ETHY    C1 3734   1.503  48.912   5.324
 3815THSLK    S 3735   3.582  47.605   6.571
 3816ETHY    C1 3736   3.505  47.493   6.136
 3817ETHY    C1 3737   3.389  47.448   5.612
 3818ETHY    C1 3738   3.253  47.504   5.101
 3819ETHY    C1 3739   3.103  47.658   4.613
 3820ETHY    C1 3740   2.943  47.903   4.156
 3821AUSL   AUS 3741   4.404  47.904   7.502
 3822AUSL   AUS 3742   4.334  47.759   7.085
 3823AUL    AUL 3743   4.618  47.985   7.198
 3824THSLK    S 3744   4.513  47.862   6.930
 3825ETHY    C1 3745   4.880  47.873   6.659
 3826ETHY    C1 3746   5.295  47.975   6.332
 3827ETHY    C1 3747   5.673  48.173   6.014
 3828ETHY    C1 3748   6.007  48.460   5.713
 3829ETHY    C1 3749   6.293  48.830   5.438
 3830THSLK    S 3750   4.672  47.960   7.506
 3831ETHY    C1 3751   5.124  48.021   7.508
 3832ETHY    C1 3752   5.638  48.180   7.507
 3833ETHY    C1 3753   6.106  48.434   7.505
 3834ETHY    C1 3754   6.519  48.771   7.506
 3835ETHY    C1 3755   6.871  49.185   7.509
 3836AUSL   AUS 3756   4.498  47.658   7.350
 3837AUSL   AUS 3757   4.498  47.331   7.653
 3838AUL    AUL 3758   4.806  47.495   7.502
 3839THSLK    S 3759   4.757  47.701   7.348
 3840ETHY    C1 3760   5.202  47.631   7.278
 3841ETHY    C1 3761   5.733  47.638   7.190
 3842ETHY    C1 3762   6.246  47.748   7.101
 3843ETHY    C1 3763   6.731  47.954   7.017
 3844ETHY    C1 3764   7.178  48.251   6.940
 3845THSLK    S 3765   4.730  47.193   7.662
 3846ETHY    C1 3766   5.076  46.904   7.728
 3847ETHY    C1 3767   5.537  46.637   7.809
 3848ETHY    C1 3768   6.034  46.468   7.892
 3849ETHY    C1 3769   6.555  46.396   7.980
 3850ETHY    C1 3770   7.090  46.422   8.071
 3851AUSL   AUS 3771   4.498  47.658   7.653
 3852AUSL   AUS 3772   4.241  48.005   7.766
 3853AUL    AUL 3773   4.618  47.985   7.805
 3854THSLK    S 3774   4.424  48.124   7.926
 3855ETHY    C1 3775   4.796  48.279   8.139
 3856ETHY    C1 3776   5.196  48.544   8.385
 3857ETHY    C1 3777   5.530  48.888   8.615
 3858ETHY    C1 3778   5.792  49.301   8.827
 3859ETHY    C1 3779   5.979  49.773   9.019
 3860THSLK    S 3780   4.756  47.701   7.664
 3861ETHY    C1 3781   5.200  47.631   7.738
 3862ETHY    C1 3782   5.731  47.638   7.825
 3863ETHY    C1 3783   6.245  47.748   7.910
 3864ETHY    C1 3784   6.729  47.954   7.994
 3865ETHY    C1 3785   7.176  48.251   8.078
 3866AUSL   AUS 3786   3.244  47.904   7.502
 3867AUSL   AUS 3787   3.314  47.759   7.918
 3868AUL    AUL 3788   3.030  47.985   7.805
 3869THSLK    S 3789   3.178  47.882   8.109
 3870ETHY    C1 3790   2.969  47.978   8.503
 3871ETHY    C1 3791   2.668  48.144   8.917
 3872ETHY    C1 3792   2.317  48.359   9.254
 3873ETHY    C1 3793   1.923  48.613   9.509
 3874ETHY    C1 3794   1.494  48.900   9.678
 3875THSLK    S 3795   3.028  48.044   7.506
 3876ETHY    C1 3796   2.772  48.422   7.508
 3877ETHY    C1 3797   2.399  48.810   7.507
 3878ETHY    C1 3798   1.963  49.116   7.505
 3879ETHY    C1 3799   1.477  49.334   7.506
 3880ETHY    C1 3800   0.950  49.464   7.509
 3881AUSL   AUS 3801   3.150  47.658   7.350
 3882AUSL   AUS 3802   3.408  48.005   7.237
 3883AUL    AUL 3803   3.030  47.985   7.198
 3884THSLK    S 3804   2.919  47.773   7.303
 3885ETHY    C1 3805   2.572  47.961   7.075
 3886ETHY    C1 3806   2.112  48.153   6.872
 3887ETHY    C1 3807   1.614  48.303   6.758
 3888ETHY    C1 3808   1.093  48.413   6.733
 3889ETHY    C1 3809   0.559  48.483   6.796
 3890THSLK    S 3810   3.292  48.170   7.058
 3891ETHY    C1 3811   3.176  48.486   6.750
 3892ETHY    C1 3812   2.962  48.864   6.432
 3893ETHY    C1 3813   2.670  49.233   6.183
 3894ETHY    C1 3814   2.312  49.586   6.008
 3895ETHY    C1 3815   1.894  49.919   5.909
 3896AUSL   AUS 3816   3.150  47.658   7.653
 3897AUSL   AUS 3817   3.150  47.331   7.350
 3898AUL    AUL 3818   2.842  47.495   7.502
 3899THSLK    S 3819   2.892  47.257   7.390
 3900ETHY    C1 3820   2.448  47.222   7.486
 3901ETHY    C1 3821   1.917  47.141   7.518
 3902ETHY    C1 3822   1.403  47.016   7.458
 3903ETHY    C1 3823   0.919  46.848   7.311
 3904ETHY    C1 3824   0.472  46.641   7.083
 3905THSLK    S 3825   2.917  47.765   7.704
 3906ETHY    C1 3826   2.570  47.949   7.935
 3907ETHY    C1 3827   2.110  48.142   8.137
 3908ETHY    C1 3828   1.613  48.297   8.249
 3909ETHY    C1 3829   1.092  48.407   8.274
 3910ETHY    C1 3830   0.556  48.470   8.213
 3911AUSL   AUS 3831   4.404  47.085   7.502
 3912AUSL   AUS 3832   4.334  47.230   7.918
 3913AUL    AUL 3833   4.618  47.004   7.805
 3914THSLK    S 3834   4.620  46.945   7.506
 3915ETHY    C1 3835   4.876  46.567   7.508
 3916ETHY    C1 3836   5.249  46.179   7.507
 3917ETHY    C1 3837   5.685  45.873   7.505
 3918ETHY    C1 3838   6.171  45.655   7.506
 3919ETHY    C1 3839   6.698  45.525   7.509
 3920THSLK    S 3840   4.466  47.040   8.066
 3921ETHY    C1 3841   4.671  46.697   8.285
 3922ETHY    C1 3842   4.973  46.355   8.570
 3923ETHY    C1 3843   5.327  46.102   8.877
 3924ETHY    C1 3844   5.721  45.939   9.198
 3925ETHY    C1 3845   6.145  45.869   9.529
 3926AUSL   AUS 3846   4.498  47.331   7.350
 3927AUSL   AUS 3847   4.241  46.984   7.237
 3928AUL    AUL 3848   4.618  47.004   7.198
 3929THSLK    S 3849   4.731  47.193   7.350
 3930ETHY    C1 3850   5.079  46.904   7.289
 3931ETHY    C1 3851   5.538  46.637   7.206
 3932ETHY    C1 3852   6.035  46.468   7.118
 3933ETHY    C1 3853   6.557  46.396   7.031
 3934ETHY    C1 3854   7.092  46.422   6.947
 3935THSLK    S 3855   4.360  46.794   7.104
 3936ETHY    C1 3856   4.477  46.377   6.963
 3937ETHY    C1 3857   4.691  45.923   6.765
 3938ETHY    C1 3858   4.981  45.537   6.543
 3939ETHY    C1 3859   5.340  45.222   6.306
 3940ETHY    C1 3860   5.760  44.983   6.058
 3941AUSL   AUS 3861   3.244  47.085   7.502
 3942AUSL   AUS 3862   3.314  47.230   7.085
 3943AUL    AUL 3863   3.030  47.004   7.198
 3944THSLK    S 3864   3.141  47.059   6.973
 3945ETHY    C1 3865   2.776  46.802   6.877
 3946ETHY    C1 3866   2.360  46.525   6.679
 3947ETHY    C1 3867   1.980  46.288   6.392
 3948ETHY    C1 3868   1.646  46.092   6.025
 3949ETHY    C1 3869   1.364  45.940   5.587
 3950THSLK    S 3870   2.976  47.029   7.506
 3951ETHY    C1 3871   2.524  46.968   7.508
 3952ETHY    C1 3872   2.010  46.809   7.507
 3953ETHY    C1 3873   1.542  46.555   7.505
 3954ETHY    C1 3874   1.129  46.218   7.506
 3955ETHY    C1 3875   0.777  45.804   7.509
 3956AUSL   AUS 3876   3.150  47.331   7.653
 3957AUSL   AUS 3877   3.408  46.984   7.766
 3958AUL    AUL 3878   3.030  47.004   7.805
 3959THSLK    S 3879   3.220  46.840   7.880
 3960ETHY    C1 3880   2.846  46.583   7.926
 3961ETHY    C1 3881   2.448  46.243   8.052
 3962ETHY    C1 3882   2.115  45.881   8.255
 3963ETHY    C1 3883   1.853  45.507   8.529
 3964ETHY    C1 3884   1.662  45.129   8.870
 3965THSLK    S 3885   2.891  47.264   7.617
 3966ETHY    C1 3886   2.446  47.234   7.524
 3967ETHY    C1 3887   1.915  47.152   7.490
 3968ETHY    C1 3888   1.402  47.023   7.549
 3969ETHY    C1 3889   0.918  46.855   7.696
 3970ETHY    C1 3890   0.470  46.653   7.928
 3971AUSL   AUS 3891   3.824  48.075   7.911
 3972AUSL   AUS 3892   3.408  48.005   7.766
 3973AUL    AUL 3893   3.521  48.289   7.992
 3974THSLK    S 3894   3.288  48.164   7.950
 3975ETHY    C1 3895   3.171  48.476   8.261
 3976ETHY    C1 3896   2.957  48.856   8.578
 3977ETHY    C1 3897   2.667  49.227   8.824
 3978ETHY    C1 3898   2.309  49.581   9.000
 3979ETHY    C1 3899   1.888  49.909   9.102
 3980THSLK    S 3900   3.864  48.301   8.035
 3981ETHY    C1 3901   4.021  48.603   8.339
 3982ETHY    C1 3902   4.136  49.009   8.672
 3983ETHY    C1 3903   4.163  49.453   8.964
 3984ETHY    C1 3904   4.103  49.922   9.211
 3985ETHY    C1 3905   3.959  50.406   9.410
 3986AUSL   AUS 3906   3.672  48.168   7.665
 3987AUSL   AUS 3907   3.976  48.168   7.338
 3988AUL    AUL 3908   3.824  48.476   7.502
 3989THSLK    S 3909   3.713  48.416   7.774
 3990ETHY    C1 3910   3.822  48.826   7.942
 3991ETHY    C1 3911   3.866  49.333   8.118
 3992ETHY    C1 3912   3.809  49.841   8.265
 3993ETHY    C1 3913   3.656  50.338   8.383
 3994ETHY    C1 3914   3.413  50.815   8.472
 3995THSLK    S 3915   4.029  48.403   7.241
 3996ETHY    C1 3916   4.274  48.759   7.094
 3997ETHY    C1 3917   4.487  49.224   6.927
 3998ETHY    C1 3918   4.602  49.722   6.779
 3999ETHY    C1 3919   4.622  50.241   6.655
 4000ETHY    C1 3920   4.547  50.770   6.558
 4001AUSL   AUS 3921   3.976  48.168   7.665
 4002AUSL   AUS 3922   4.089  47.911   8.012
 4003AUL    AUL 3923   4.127  48.289   7.992
 4004THSLK    S 3924   4.261  48.024   8.184
 4005ETHY    C1 3925   4.546  48.127   8.524
 4006ETHY    C1 3926   4.848  48.331   8.921
 4007ETHY    C1 3927   5.093  48.621   9.294
 4008ETHY    C1 3928   5.277  48.984   9.638
 4009ETHY    C1 3929   5.396  49.414   9.948
 4010THSLK    S 3930   4.027  48.402   7.771
 4011ETHY    C1 3931   4.271  48.756   7.922
 4012ETHY    C1 3932   4.484  49.222   8.087
 4013ETHY    C1 3933   4.600  49.721   8.231
 4014ETHY    C1 3934   4.619  50.239   8.356
 4015ETHY    C1 3935   4.544  50.767   8.458
 4016AUSL   AUS 3936   3.824  46.915   7.911
 4017AUSL   AUS 3937   4.241  46.984   7.766
 4018AUL    AUL 3938   4.127  46.700   7.992
 4019THSLK    S 3939   3.780  46.660   7.990
 4020ETHY    C1 3940   3.620  46.256   8.128
 4021ETHY    C1 3941   3.506  45.775   8.341
 4022ETHY    C1 3942   3.481  45.314   8.605
 4023ETHY    C1 3943   3.540  44.884   8.915
 4024ETHY    C1 3944   3.681  44.492   9.263
 4025THSLK    S 3945   4.356  46.795   7.908
 4026ETHY    C1 3946   4.472  46.379   8.052
 4027ETHY    C1 3947   4.686  45.926   8.248
 4028ETHY    C1 3948   4.978  45.538   8.467
 4029ETHY    C1 3949   5.337  45.223   8.705
 4030ETHY    C1 3950   5.754  44.986   8.958
 4031AUSL   AUS 3951   3.672  46.821   7.665
 4032AUSL   AUS 3952   3.559  47.078   8.012
 4033AUL    AUL 3953   3.521  46.700   7.992
 4034THSLK    S 3954   3.619  46.581   7.745
 4035ETHY    C1 3955   3.374  46.200   7.801
 4036ETHY    C1 3956   3.161  45.715   7.897
 4037ETHY    C1 3957   3.046  45.212   8.025
 4038ETHY    C1 3958   3.027  44.703   8.186
 4039ETHY    C1 3959   3.101  44.200   8.374
 4040THSLK    S 3960   3.381  46.910   8.133
 4041ETHY    C1 3961   3.093  46.592   8.289
 4042ETHY    C1 3962   2.793  46.232   8.552
 4043ETHY    C1 3963   2.550  45.906   8.896
 4044ETHY    C1 3964   2.366  45.623   9.309
 4045ETHY    C1 3965   2.242  45.389   9.783
 4046AUSL   AUS 3966   3.976  46.821   7.665
 4047AUSL   AUS 3967   3.672  46.821   7.338
 4048AUL    AUL 3968   3.824  46.513   7.502
 4049THSLK    S 3969   3.621  46.578   7.266
 4050ETHY    C1 3970   3.377  46.196   7.215
 4051ETHY    C1 3971   3.164  45.712   7.117
 4052ETHY    C1 3972   3.048  45.210   6.984
 4053ETHY    C1 3973   3.029  44.701   6.825
 4054ETHY    C1 3974   3.105  44.196   6.642
 4055THSLK    S 3975   3.933  46.565   7.749
 4056ETHY    C1 3976   3.823  46.129   7.821
 4057ETHY    C1 3977   3.780  45.603   7.928
 4058ETHY    C1 3978   3.837  45.091   8.059
 4059ETHY    C1 3979   3.990  44.603   8.213
 4060ETHY    C1 3980   4.232  44.150   8.388
 4061AUSL   AUS 3981   3.824  48.075   7.093
 4062AUSL   AUS 3982   4.241  48.005   7.237
 4063AUL    AUL 3983   4.127  48.289   7.011
 4064THSLK    S 3984   3.868  48.305   6.975
 4065ETHY    C1 3985   4.028  48.609   6.674
 4066ETHY    C1 3986   4.142  49.014   6.339
 4067ETHY    C1 3987   4.167  49.457   6.045
 4068ETHY    C1 3988   4.108  49.926   5.798
 4069ETHY    C1 3989   3.967  50.413   5.604
 4070THSLK    S 3990   4.428  48.126   7.085
 4071ETHY    C1 3991   4.802  48.282   6.876
 4072ETHY    C1 3992   5.200  48.546   6.629
 4073ETHY    C1 3993   5.533  48.890   6.395
 4074ETHY    C1 3994   5.795  49.302   6.184
 4075ETHY    C1 3995   5.986  49.776   5.998
 4076AUSL   AUS 3996   3.672  48.168   7.338
 4077AUSL   AUS 3997   3.559  47.911   6.992
 4078AUL    AUL 3998   3.521  48.289   7.011
 4079THSLK    S 3999   3.715  48.419   7.237
 4080ETHY    C1 4000   3.825  48.830   7.074
 4081ETHY    C1 4001   3.868  49.336   6.896
 4082ETHY    C1 4002   3.811  49.844   6.745
 4083ETHY    C1 4003   3.658  50.341   6.627
 4084ETHY    C1 4004   3.416  50.820   6.545
 4085THSLK    S 4005   3.445  48.046   6.802
 4086ETHY    C1 4006   3.379  48.218   6.385
 4087ETHY    C1 4007   3.236  48.470   5.932
 4088ETHY    C1 4008   3.027  48.769   5.544
 4089ETHY    C1 4009   2.761  49.107   5.230
 4090ETHY    C1 4010   2.445  49.480   4.993
 4091AUSL   AUS 4011   3.824  46.915   7.093
 4092AUSL   AUS 4012   3.408  46.984   7.237
 4093AUL    AUL 4013   3.521  46.700   7.011
 4094THSLK    S 4014   3.224  46.834   7.128
 4095ETHY    C1 4015   2.852  46.573   7.085
 4096ETHY    C1 4016   2.453  46.235   6.958
 4097ETHY    C1 4017   2.118  45.876   6.753
 4098ETHY    C1 4018   1.856  45.502   6.478
 4099ETHY    C1 4019   1.669  45.119   6.142
 4100THSLK    S 4020   3.784  46.656   7.019
 4101ETHY    C1 4021   3.627  46.250   6.885
 4102ETHY    C1 4022   3.512  45.770   6.671
 4103ETHY    C1 4023   3.485  45.311   6.404
 4104ETHY    C1 4024   3.545  44.880   6.094
 4105ETHY    C1 4025   3.689  44.485   5.751
 4106AUSL   AUS 4026   3.976  46.821   7.338
 4107AUSL   AUS 4027   4.089  47.078   6.992
 4108AUL    AUL 4028   4.127  46.700   7.011
 4109THSLK    S 4029   3.935  46.564   7.262
 4110ETHY    C1 4030   3.826  46.126   7.195
 4111ETHY    C1 4031   3.783  45.600   7.086
 4112ETHY    C1 4032   3.839  45.089   6.951
 4113ETHY    C1 4033   3.992  44.601   6.798
 4114ETHY    C1 4034   4.236  44.147   6.629
 4115THSLK    S 4035   4.209  46.888   6.853
 4116ETHY    C1 4036   4.278  46.502   6.621
 4117ETHY    C1 4037   4.420  46.094   6.300
 4118ETHY    C1 4038   4.627  45.758   5.942
 4119ETHY    C1 4039   4.893  45.501   5.559
 4120ETHY    C1 4040   5.213  45.323   5.158
 4121AUC    AUC 4041   1.847  31.907   7.502
 4122AUC    AUC 4042   2.093  31.907   7.350
 4123AUC    AUC 4043   2.093  31.907   7.653
 4124AUC    AUC 4044   1.602  31.907   7.350
 4125AUC    AUC 4045   1.602  31.907   7.653
 4126AUC    AUC 4046   1.695  32.152   7.502
 4127AUC    AUC 4047   1.999  32.152   7.502
 4128AUC    AUC 4048   1.695  31.661   7.502
 4129AUC    AUC 4049   1.999  31.661   7.502
 4130AUC    AUC 4050   1.847  31.755   7.747
 4131AUC    AUC 4051   1.847  32.058   7.747
 4132AUC    AUC 4052   1.847  31.755   7.256
 4133AUC    AUC 4053   1.847  32.058   7.256
 4134AUC    AUC 4054   2.338  31.907   7.198
 4135AUC    AUC 4055   2.338  31.907   7.502
 4136AUC    AUC 4056   2.338  31.907   7.805
 4137AUC    AUC 4057   1.356  31.907   7.198
 4138AUC    AUC 4058   1.356  31.907   7.502
 4139AUC    AUC 4059   1.356  31.907   7.805
 4140AUC    AUC 4060   1.544  32.397   7.502
 4141AUC    AUC 4061   1.847  32.397   7.502
 4142AUC    AUC 4062   2.150  32.397   7.502
 4143AUC    AUC 4063   1.544  31.416   7.502
 4144AUC    AUC 4064   1.847  31.416   7.502
 4145AUC    AUC 4065   2.150  31.416   7.502
 4146AUC    AUC 4066   1.847  31.603   7.992
 4147AUC    AUC 4067   1.847  31.907   7.992
 4148AUC    AUC 4068   1.847  32.210   7.992
 4149AUC    AUC 4069   1.847  31.603   7.011
 4150AUC    AUC 4070   1.847  31.907   7.011
 4151AUC    AUC 4071   1.847  32.210   7.011
 4152AUC    AUC 4072   2.093  31.755   7.899
 4153AUC    AUC 4073   2.093  32.058   7.899
 4154AUC    AUC 4074   2.093  31.755   7.105
 4155AUC    AUC 4075   2.093  32.058   7.105
 4156AUC    AUC 4076   1.602  31.755   7.899
 4157AUC    AUC 4077   1.602  32.058   7.899
 4158AUC    AUC 4078   1.602  31.755   7.105
 4159AUC    AUC 4079   1.602  32.058   7.105
 4160AUC    AUC 4080   2.244  32.152   7.350
 4161AUC    AUC 4081   2.244  32.152   7.653
 4162AUC    AUC 4082   1.450  32.152   7.350
 4163AUC    AUC 4083   1.450  32.152   7.653
 4164AUC    AUC 4084   2.244  31.661   7.350
 4165AUC    AUC 4085   2.244  31.661   7.653
 4166AUC    AUC 4086   1.450  31.661   7.350
 4167AUC    AUC 4087   1.450  31.661   7.653
 4168AUC    AUC 4088   1.695  32.304   7.747
 4169AUC    AUC 4089   1.999  32.304   7.747
 4170AUC    AUC 4090   1.695  31.509   7.747
 4171AUC    AUC 4091   1.999  31.509   7.747
 4172AUC    AUC 4092   1.695  32.304   7.256
 4173AUC    AUC 4093   1.999  32.304   7.256
 4174AUC    AUC 4094   1.695  31.509   7.256
 4175AUC    AUC 4095   1.999  31.509   7.256
 4176AUSL   AUS 4096   2.256  31.907   8.082
 4177AUSL   AUS 4097   2.112  31.490   8.012
 4178AUL    AUL 4098   2.338  31.603   8.296
 4179THSLK    S 4099   2.226  31.302   8.156
 4180ETHY    C1 4100   2.292  30.917   8.391
 4181ETHY    C1 4101   2.435  30.509   8.710
 4182ETHY    C1 4102   2.644  30.173   9.066
 4183ETHY    C1 4103   2.910  29.915   9.450
 4184ETHY    C1 4104   3.226  29.739   9.855
 4185THSLK    S 4105   2.352  31.857   8.326
 4186ETHY    C1 4106   2.568  31.671   8.681
 4187ETHY    C1 4107   2.843  31.536   9.124
 4188ETHY    C1 4108   3.124  31.506   9.575
 4189ETHY    C1 4109   3.402  31.575  10.025
 4190ETHY    C1 4110   3.671  31.743  10.466
 4191AUSL   AUS 4111   2.011  31.755   8.175
 4192AUSL   AUS 4112   1.684  32.058   8.175
 4193AUL    AUL 4113   1.847  31.907   8.483
 4194THSLK    S 4114   2.089  31.702   8.417
 4195ETHY    C1 4115   2.166  31.452   8.790
 4196ETHY    C1 4116   2.282  31.235   9.269
 4197ETHY    C1 4117   2.419  31.119   9.769
 4198ETHY    C1 4118   2.569  31.101  10.281
 4199ETHY    C1 4119   2.728  31.182  10.794
 4200THSLK    S 4120   1.597  32.015   8.431
 4201ETHY    C1 4121   1.515  31.903   8.864
 4202ETHY    C1 4122   1.401  31.857   9.388
 4203ETHY    C1 4123   1.269  31.915   9.901
 4204ETHY    C1 4124   1.118  32.068  10.389
 4205ETHY    C1 4125   0.952  32.312  10.844
 4206AUSL   AUS 4126   2.011  32.058   8.175
 4207AUSL   AUS 4127   2.357  32.171   7.918
 4208AUL    AUL 4128   2.338  32.210   8.296
 4209THSLK    S 4129   2.098  32.112   8.414
 4210ETHY    C1 4130   2.179  32.363   8.786
 4211ETHY    C1 4131   2.293  32.579   9.265
 4212ETHY    C1 4132   2.426  32.695   9.767
 4213ETHY    C1 4133   2.576  32.713  10.279
 4214ETHY    C1 4134   2.742  32.633  10.789
 4215THSLK    S 4135   2.531  32.273   8.080
 4216ETHY    C1 4136   2.895  32.283   8.354
 4217ETHY    C1 4137   3.311  32.385   8.680
 4218ETHY    C1 4138   3.691  32.584   8.995
 4219ETHY    C1 4139   4.026  32.871   9.296
 4220ETHY    C1 4140   4.307  33.239   9.577
 4221AUSL   AUS 4141   2.256  31.907   6.922
 4222AUSL   AUS 4142   2.112  32.323   6.992
 4223AUL    AUL 4143   2.338  32.210   6.707
 4224THSLK    S 4144   2.359  31.857   6.681
 4225ETHY    C1 4145   2.580  31.671   6.329
 4226ETHY    C1 4146   2.853  31.536   5.885
 4227ETHY    C1 4147   3.131  31.506   5.432
 4228ETHY    C1 4148   3.409  31.575   4.982
 4229ETHY    C1 4149   3.683  31.743   4.545
 4230THSLK    S 4150   2.290  32.438   6.825
 4231ETHY    C1 4151   2.578  32.543   6.488
 4232ETHY    C1 4152   2.878  32.747   6.090
 4233ETHY    C1 4153   3.121  33.035   5.714
 4234ETHY    C1 4154   3.305  33.399   5.371
 4235ETHY    C1 4155   3.429  33.830   5.065
 4236AUSL   AUS 4156   2.011  31.755   6.828
 4237AUSL   AUS 4157   2.357  31.642   7.085
 4238AUL    AUL 4158   2.338  31.603   6.707
 4239THSLK    S 4159   2.494  31.450   6.944
 4240ETHY    C1 4160   2.702  31.107   6.729
 4241ETHY    C1 4161   3.003  30.765   6.442
 4242ETHY    C1 4162   3.354  30.512   6.133
 4243ETHY    C1 4163   3.748  30.350   5.812
 4244ETHY    C1 4164   4.177  30.279   5.486
 4245THSLK    S 4165   2.098  31.701   6.590
 4246ETHY    C1 4166   2.179  31.450   6.217
 4247ETHY    C1 4167   2.293  31.234   5.738
 4248ETHY    C1 4168   2.426  31.118   5.236
 4249ETHY    C1 4169   2.576  31.100   4.725
 4250ETHY    C1 4170   2.742  31.180   4.214
 4251AUSL   AUS 4171   2.011  32.058   6.828
 4252AUSL   AUS 4172   1.684  31.755   6.828
 4253AUL    AUL 4173   1.847  31.907   6.520
 4254THSLK    S 4174   1.589  31.701   6.592
 4255ETHY    C1 4175   1.452  31.453   6.235
 4256ETHY    C1 4176   1.292  31.239   5.767
 4257ETHY    C1 4177   1.145  31.124   5.269
 4258ETHY    C1 4178   1.018  31.105   4.751
 4259ETHY    C1 4179   0.913  31.181   4.224
 4260THSLK    S 4180   2.114  32.016   6.578
 4261ETHY    C1 4181   2.255  31.901   6.160
 4262ETHY    C1 4182   2.413  31.854   5.647
 4263ETHY    C1 4183   2.556  31.910   5.138
 4264ETHY    C1 4184   2.684  32.064   4.643
 4265ETHY    C1 4185   2.795  32.312   4.174
 4266AUSL   AUS 4186   1.438  31.907   8.082
 4267AUSL   AUS 4187   1.582  32.323   8.012
 4268AUL    AUL 4188   1.356  32.210   8.296
 4269THSLK    S 4189   1.335  31.857   8.322
 4270ETHY    C1 4190   1.114  31.671   8.674
 4271ETHY    C1 4191   0.841  31.536   9.118
 4272ETHY    C1 4192   0.564  31.506   9.571
 4273ETHY    C1 4193   0.286  31.575  10.021
 4274ETHY    C1 4194   0.011  31.743  10.458
 4275THSLK    S 4195   1.462  32.452   8.202
 4276ETHY    C1 4196   1.393  32.621   8.620
 4277ETHY    C1 4197   1.251  32.874   9.073
 4278ETHY    C1 4198   1.045  33.175   9.460
 4279ETHY    C1 4199   0.778  33.514   9.775
 4280ETHY    C1 4200   0.458  33.881  10.013
 4281AUSL   AUS 4201   1.684  31.755   8.175
 4282AUSL   AUS 4202   1.337  31.642   7.918
 4283AUL    AUL 4203   1.356  31.603   8.296
 4284THSLK    S 4204   1.159  31.478   8.029
 4285ETHY    C1 4205   0.791  31.225   8.125
 4286ETHY    C1 4206   0.376  30.946   8.323
 4287ETHY    C1 4207  -0.002  30.706   8.611
 4288ETHY    C1 4208  -0.336  30.510   8.978
 4289ETHY    C1 4209  -0.622  30.364   9.415
 4290THSLK    S 4210   1.581  31.703   8.410
 4291ETHY    C1 4211   1.439  31.456   8.766
 4292ETHY    C1 4212   1.281  31.241   9.233
 4293ETHY    C1 4213   1.138  31.125   9.733
 4294ETHY    C1 4214   1.011  31.107  10.250
 4295ETHY    C1 4215   0.899  31.185  10.775
 4296AUSL   AUS 4216   1.438  31.907   6.922
 4297AUSL   AUS 4217   1.582  31.490   6.992
 4298AUL    AUL 4218   1.356  31.603   6.707
 4299THSLK    S 4219   1.343  31.857   6.677
 4300ETHY    C1 4220   1.126  31.671   6.322
 4301ETHY    C1 4221   0.851  31.536   5.879
 4302ETHY    C1 4222   0.570  31.506   5.429
 4303ETHY    C1 4223   0.292  31.575   4.978
 4304ETHY    C1 4224   0.024  31.743   4.537
 4305THSLK    S 4225   1.410  31.316   6.872
 4306ETHY    C1 4226   1.125  30.995   6.717
 4307ETHY    C1 4227   0.824  30.636   6.453
 4308ETHY    C1 4228   0.579  30.313   6.109
 4309ETHY    C1 4229   0.395  30.030   5.696
 4310ETHY    C1 4230   0.276  29.790   5.223
 4311AUSL   AUS 4231   1.684  32.058   6.828
 4312AUSL   AUS 4232   1.337  32.171   7.085
 4313AUL    AUL 4233   1.356  32.210   6.707
 4314THSLK    S 4234   1.206  32.301   6.893
 4315ETHY    C1 4235   1.000  32.401   6.499
 4316ETHY    C1 4236   0.698  32.565   6.085
 4317ETHY    C1 4237   0.344  32.777   5.748
 4318ETHY    C1 4238  -0.049  33.031   5.494
 4319ETHY    C1 4239  -0.474  33.324   5.324
 4320THSLK    S 4240   1.605  32.017   6.571
 4321ETHY    C1 4241   1.528  31.905   6.136
 4322ETHY    C1 4242   1.412  31.860   5.612
 4323ETHY    C1 4243   1.276  31.916   5.101
 4324ETHY    C1 4244   1.126  32.070   4.613
 4325ETHY    C1 4245   0.966  32.315   4.156
 4326AUSL   AUS 4246   2.427  32.316   7.502
 4327AUSL   AUS 4247   2.357  32.171   7.085
 4328AUL    AUL 4248   2.641  32.397   7.198
 4329THSLK    S 4249   2.536  32.274   6.930
 4330ETHY    C1 4250   2.903  32.285   6.659
 4331ETHY    C1 4251   3.318  32.387   6.332
 4332ETHY    C1 4252   3.696  32.585   6.014
 4333ETHY    C1 4253   4.030  32.872   5.713
 4334ETHY    C1 4254   4.316  33.242   5.438
 4335THSLK    S 4255   2.695  32.372   7.506
 4336ETHY    C1 4256   3.147  32.433   7.508
 4337ETHY    C1 4257   3.661  32.592   7.507
 4338ETHY    C1 4258   4.129  32.846   7.505
 4339ETHY    C1 4259   4.542  33.183   7.506
 4340ETHY    C1 4260   4.894  33.597   7.509
 4341AUSL   AUS 4261   2.521  32.070   7.350
 4342AUSL   AUS 4262   2.521  31.743   7.653
 4343AUL    AUL 4263   2.829  31.907   7.502
 4344THSLK    S 4264   2.780  32.113   7.348
 4345ETHY    C1 4265   3.225  32.043   7.278
 4346ETHY    C1 4266   3.756  32.050   7.190
 4347ETHY    C1 4267   4.269  32.160   7.101
 4348ETHY    C1 4268   4.754  32.366   7.017
 4349ETHY    C1 4269   5.201  32.663   6.940
 4350THSLK    S 4270   2.753  31.605   7.662
 4351ETHY    C1 4271   3.099  31.316   7.728
 4352ETHY    C1 4272   3.560  31.049   7.809
 4353ETHY    C1 4273   4.057  30.880   7.892
 4354ETHY    C1 4274   4.578  30.808   7.980
 4355ETHY    C1 4275   5.113  30.834   8.071
 4356AUSL   AUS 4276   2.521  32.070   7.653
 4357AUSL   AUS 4277   2.264  32.417   7.766
 4358AUL    AUL 4278   2.641  32.397   7.805
 4359THSLK    S 4279   2.447  32.536   7.926
 4360ETHY    C1 4280   2.819  32.691   8.139
 4361ETHY    C1 4281   3.219  32.956   8.385
 4362ETHY    C1 4282   3.553  33.300   8.615
 4363ETHY    C1 4283   3.815  33.713   8.827
 4364ETHY    C1 4284   4.002  34.185   9.019
 4365THSLK    S 4285   2.779  32.113   7.664
 4366ETHY    C1 4286   3.223  32.043   7.738
 4367ETHY    C1 4287   3.754  32.050   7.825
 4368ETHY    C1 4288   4.268  32.160   7.910
 4369ETHY    C1 4289   4.752  32.366   7.994
 4370ETHY    C1 4290   5.199  32.663   8.078
 4371AUSL   AUS 4291   1.267  32.316   7.502
 4372AUSL   AUS 4292   1.337  32.171   7.918
 4373AUL    AUL 4293   1.053  32.397   7.805
 4374THSLK    S 4294   1.201  32.294   8.109
 4375ETHY    C1 4295   0.992  32.390   8.503
 4376ETHY    C1 4296   0.691  32.556   8.917
 4377ETHY    C1 4297   0.340  32.771   9.254
 4378ETHY    C1 4298  -0.054  33.025   9.509
 4379ETHY    C1 4299  -0.483  33.312   9.678
 4380THSLK    S 4300   1.051  32.456   7.506
 4381ETHY    C1 4301   0.795  32.834   7.508
 4382ETHY    C1 4302   0.422  33.222   7.507
 4383ETHY    C1 4303  -0.014  33.528   7.505
 4384ETHY    C1 4304  -0.500  33.746   7.506
 4385ETHY    C1 4305  -1.027  33.876   7.509
 4386AUSL   AUS 4306   1.173  32.070   7.350
 4387AUSL   AUS 4307   1.431  32.417   7.237
 4388AUL    AUL 4308   1.053  32.397   7.198
 4389THSLK    S 4309   0.942  32.185   7.303
 4390ETHY    C1 4310   0.595  32.373   7.075
 4391ETHY    C1 4311   0.135  32.565   6.872
 4392ETHY    C1 4312  -0.363  32.715   6.758
 4393ETHY    C1 4313  -0.884  32.825   6.733
 4394ETHY    C1 4314  -1.418  32.895   6.796
 4395THSLK    S 4315   1.315  32.582   7.058
 4396ETHY    C1 4316   1.199  32.898   6.750
 4397ETHY    C1 4317   0.985  33.276   6.432
 4398ETHY    C1 4318   0.693  33.645   6.183
 4399ETHY    C1 4319   0.335  33.998   6.008
 4400ETHY    C1 4320  -0.083  34.331   5.909
 4401AUSL   AUS 4321   1.173  32.070   7.653
 4402AUSL   AUS 4322   1.173  31.743   7.350
 4403AUL    AUL 4323   0.865  31.907   7.502
 4404THSLK    S 4324   0.915  31.669   7.390
 4405ETHY    C1 4325   0.471  31.634   7.486
 4406ETHY    C1 4326  -0.060  31.553   7.518
 4407ETHY    C1 4327  -0.574  31.428   7.458
 4408ETHY    C1 4328  -1.058  31.260   7.311
 4409ETHY    C1 4329  -1.505  31.053   7.083
 4410THSLK    S 4330   0.940  32.177   7.704
 4411ETHY    C1 4331   0.593  32.361   7.935
 4412ETHY    C1 4332   0.133  32.554   8.137
 4413ETHY    C1 4333  -0.364  32.709   8.249
 4414ETHY    C1 4334  -0.885  32.819   8.274
 4415ETHY    C1 4335  -1.421  32.882   8.213
 4416AUSL   AUS 4336   2.427  31.497   7.502
 4417AUSL   AUS 4337   2.357  31.642   7.918
 4418AUL    AUL 4338   2.641  31.416   7.805
 4419THSLK    S 4339   2.643  31.357   7.506
 4420ETHY    C1 4340   2.899  30.979   7.508
 4421ETHY    C1 4341   3.272  30.591   7.507
 4422ETHY    C1 4342   3.708  30.285   7.505
 4423ETHY    C1 4343   4.194  30.067   7.506
 4424ETHY    C1 4344   4.721  29.937   7.509
 4425THSLK    S 4345   2.489  31.452   8.066
 4426ETHY    C1 4346   2.694  31.109   8.285
 4427ETHY    C1 4347   2.996  30.767   8.570
 4428ETHY    C1 4348   3.350  30.514   8.877
 4429ETHY    C1 4349   3.744  30.351   9.198
 4430ETHY    C1 4350   4.168  30.281   9.529
 4431AUSL   AUS 4351   2.521  31.743   7.350
 4432AUSL   AUS 4352   2.264  31.396   7.237
 4433AUL    AUL 4353   2.641  31.416   7.198
 4434THSLK    S 4354   2.754  31.605   7.350
 4435ETHY    C1 4355   3.102  31.316   7.289
 4436ETHY    C1 4356   3.561  31.049   7.206
 4437ETHY    C1 4357   4.058  30.880   7.118
 4438ETHY    C1 4358   4.580  30.808   7.031
 4439ETHY    C1 4359   5.115  30.834   6.947
 4440THSLK    S 4360   2.383  31.206   7.104
 4441ETHY    C1 4361   2.500  30.789   6.963
 4442ETHY    C1 4362   2.714  30.335   6.765
 4443ETHY    C1 4363   3.004  29.949   6.543
 4444ETHY    C1 4364   3.363  29.634   6.306
 4445ETHY    C1 4365   3.783  29.395   6.058
 4446AUSL   AUS 4366   1.267  31.497   7.502
 4447AUSL   AUS 4367   1.337  31.642   7.085
 4448AUL    AUL 4368   1.053  31.416   7.198
 4449THSLK    S 4369   1.164  31.471   6.973
 4450ETHY    C1 4370   0.799  31.214   6.877
 4451ETHY    C1 4371   0.383  30.937   6.679
 4452ETHY    C1 4372   0.003  30.700   6.392
 4453ETHY    C1 4373  -0.331  30.504   6.025
 4454ETHY    C1 4374  -0.613  30.352   5.587
 4455THSLK    S 4375   0.999  31.441   7.506
 4456ETHY    C1 4376   0.547  31.380   7.508
 4457ETHY    C1 4377   0.033  31.221   7.507
 4458ETHY    C1 4378  -0.435  30.967   7.505
 4459ETHY    C1 4379  -0.848  30.630   7.506
 4460ETHY    C1 4380  -1.200  30.216   7.509
 4461AUSL   AUS 4381   1.173  31.743   7.653
 4462AUSL   AUS 4382   1.431  31.396   7.766
 4463AUL    AUL 4383   1.053  31.416   7.805
 4464THSLK    S 4384   1.243  31.252   7.880
 4465ETHY    C1 4385   0.869  30.995   7.926
 4466ETHY    C1 4386   0.471  30.655   8.052
 4467ETHY    C1 4387   0.138  30.293   8.255
 4468ETHY    C1 4388  -0.124  29.919   8.529
 4469ETHY    C1 4389  -0.315  29.541   8.870
 4470THSLK    S 4390   0.914  31.676   7.617
 4471ETHY    C1 4391   0.469  31.646   7.524
 4472ETHY    C1 4392  -0.062  31.564   7.490
 4473ETHY    C1 4393  -0.575  31.435   7.549
 4474ETHY    C1 4394  -1.059  31.267   7.696
 4475ETHY    C1 4395  -1.507  31.065   7.928
 4476AUSL   AUS 4396   1.847  32.487   7.911
 4477AUSL   AUS 4397   1.431  32.417   7.766
 4478AUL    AUL 4398   1.544  32.701   7.992
 4479THSLK    S 4399   1.311  32.576   7.950
 4480ETHY    C1 4400   1.194  32.888   8.261
 4481ETHY    C1 4401   0.980  33.268   8.578
 4482ETHY    C1 4402   0.690  33.639   8.824
 4483ETHY    C1 4403   0.332  33.993   9.000
 4484ETHY    C1 4404  -0.089  34.321   9.102
 4485THSLK    S 4405   1.887  32.713   8.035
 4486ETHY    C1 4406   2.044  33.015   8.339
 4487ETHY    C1 4407   2.159  33.421   8.672
 4488ETHY    C1 4408   2.186  33.865   8.964
 4489ETHY    C1 4409   2.126  34.334   9.211
 4490ETHY    C1 4410   1.982  34.818   9.410
 4491AUSL   AUS 4411   1.695  32.580   7.665
 4492AUSL   AUS 4412   1.999  32.580   7.338
 4493AUL    AUL 4413   1.847  32.888   7.502
 4494THSLK    S 4414   1.736  32.828   7.774
 4495ETHY    C1 4415   1.845  33.238   7.942
 4496ETHY    C1 4416   1.889  33.745   8.118
 4497ETHY    C1 4417   1.832  34.253   8.265
 4498ETHY    C1 4418   1.679  34.750   8.383
 4499ETHY    C1 4419   1.436  35.227   8.472
 4500THSLK    S 4420   2.052  32.815   7.241
 4501ETHY    C1 4421   2.297  33.171   7.094
 4502ETHY    C1 4422   2.510  33.636   6.927
 4503ETHY    C1 4423   2.625  34.134   6.779
 4504ETHY    C1 4424   2.645  34.653   6.655
 4505ETHY    C1 4425   2.570  35.182   6.558
 4506AUSL   AUS 4426   1.999  32.580   7.665
 4507AUSL   AUS 4427   2.112  32.323   8.012
 4508AUL    AUL 4428   2.150  32.701   7.992
 4509THSLK    S 4429   2.284  32.436   8.184
 4510ETHY    C1 4430   2.569  32.539   8.524
 4511ETHY    C1 4431   2.871  32.743   8.921
 4512ETHY    C1 4432   3.116  33.033   9.294
 4513ETHY    C1 4433   3.300  33.396   9.638
 4514ETHY    C1 4434   3.419  33.826   9.948
 4515THSLK    S 4435   2.050  32.814   7.771
 4516ETHY    C1 4436   2.294  33.168   7.922
 4517ETHY    C1 4437   2.507  33.634   8.087
 4518ETHY    C1 4438   2.623  34.133   8.231
 4519ETHY    C1 4439   2.642  34.651   8.356
 4520ETHY    C1 4440   2.567  35.179   8.458
 4521AUSL   AUS 4441   1.847  31.327   7.911
 4522AUSL   AUS 4442   2.264  31.396   7.766
 4523AUL    AUL 4443   2.150  31.112   7.992
 4524THSLK    S 4444   1.803  31.072   7.990
 4525ETHY    C1 4445   1.643  30.668   8.128
 4526ETHY    C1 4446   1.529  30.187   8.341
 4527ETHY    C1 4447   1.504  29.726   8.605
 4528ETHY    C1 4448   1.563  29.296   8.915
 4529ETHY    C1 4449   1.704  28.904   9.263
 4530THSLK    S 4450   2.379  31.207   7.908
 4531ETHY    C1 4451   2.495  30.791   8.052
 4532ETHY    C1 4452   2.709  30.338   8.248
 4533ETHY    C1 4453   3.001  29.950   8.467
 4534ETHY    C1 4454   3.360  29.635   8.705
 4535ETHY    C1 4455   3.777  29.398   8.958
 4536AUSL   AUS 4456   1.695  31.233   7.665
 4537AUSL   AUS 4457   1.582  31.490   8.012
 4538AUL    AUL 4458   1.544  31.112   7.992
 4539THSLK    S 4459   1.642  30.993   7.745
 4540ETHY    C1 4460   1.397  30.612   7.801
 4541ETHY    C1 4461   1.184  30.127   7.897
 4542ETHY    C1 4462   1.069  29.624   8.025
 4543ETHY    C1 4463   1.050  29.115   8.186
 4544ETHY    C1 4464   1.124  28.612   8.374
 4545THSLK    S 4465   1.404  31.322   8.133
 4546ETHY    C1 4466   1.116  31.004   8.289
 4547ETHY    C1 4467   0.816  30.644   8.552
 4548ETHY    C1 4468   0.573  30.318   8.896
 4549ETHY    C1 4469   0.389  30.035   9.309
 4550ETHY    C1 4470   0.265  29.801   9.783
 4551AUSL   AUS 4471   1.999  31.233   7.665
 4552AUSL   AUS 4472   1.695  31.233   7.338
 4553AUL    AUL 4473   1.847  30.925   7.502
 4554THSLK    S 4474   1.644  30.990   7.266
 4555ETHY    C1 4475   1.400  30.608   7.215
 4556ETHY    C1 4476   1.187  30.124   7.117
 4557ETHY    C1 4477   1.071  29.622   6.984
 4558ETHY    C1 4478   1.052  29.113   6.825
 4559ETHY    C1 4479   1.128  28.608   6.642
 4560THSLK    S 4480   1.956  30.977   7.749
 4561ETHY    C1 4481   1.846  30.541   7.821
 4562ETHY    C1 4482   1.803  30.015   7.928
 4563ETHY    C1 4483   1.860  29.503   8.059
 4564ETHY    C1 4484   2.013  29.015   8.213
 4565ETHY    C1 4485   2.255  28.562   8.388
 4566AUSL   AUS 4486   1.847  32.487   7.093
 4567AUSL   AUS 4487   2.264  32.417   7.237
 4568AUL    AUL 4488   2.150  32.701   7.011
 4569THSLK    S 4489   1.891  32.717   6.975
 4570ETHY    C1 4490   2.051  33.021   6.674
 4571ETHY    C1 4491   2.165  33.426   6.339
 4572ETHY    C1 4492   2.190  33.869   6.045
 4573ETHY    C1 4493   2.131  34.338   5.798
 4574ETHY    C1 4494   1.990  34.825   5.604
 4575THSLK    S 4495   2.451  32.538   7.085
 4576ETHY    C1 4496   2.825  32.694   6.876
 4577ETHY    C1 4497   3.223  32.958   6.629
 4578ETHY    C1 4498   3.556  33.302   6.395
 4579ETHY    C1 4499   3.818  33.714   6.184
 4580ETHY    C1 4500   4.009  34.188   5.998
 4581AUSL   AUS 4501   1.695  32.580   7.338
 4582AUSL   AUS 4502   1.582  32.323   6.992
 4583AUL    AUL 4503   1.544  32.701   7.011
 4584THSLK    S 4504   1.738  32.831   7.237
 4585ETHY    C1 4505   1.848  33.242   7.074
 4586ETHY    C1 4506   1.891  33.748   6.896
 4587ETHY    C1 4507   1.834  34.256   6.745
 4588ETHY    C1 4508   1.681  34.753   6.627
 4589ETHY    C1 4509   1.439  35.232   6.545
 4590THSLK    S 4510   1.468  32.458   6.802
 4591ETHY    C1 4511   1.402  32.630   6.385
 4592ETHY    C1 4512   1.259  32.882   5.932
 4593ETHY    C1 4513   1.050  33.181   5.544
 4594ETHY    C1 4514   0.784  33.519   5.230
 4595ETHY    C1 4515   0.468  33.892   4.993
 4596AUSL   AUS 4516   1.847  31.327   7.093
 4597AUSL   AUS 4517   1.431  31.396   7.237
 4598AUL    AUL 4518   1.544  31.112   7.011
 4599THSLK    S 4519   1.247  31.246   7.128
 4600ETHY    C1 4520   0.875  30.985   7.085
 4601ETHY    C1 4521   0.476  30.647   6.958
 4602ETHY    C1 4522   0.141  30.288   6.753
 4603ETHY    C1 4523  -0.121  29.914   6.478
 4604ETHY    C1 4524  -0.308  29.531   6.142
 4605THSLK    S 4525   1.807  31.068   7.019
 4606ETHY    C1 4526   1.650  30.662   6.885
 4607ETHY    C1 4527   1.535  30.182   6.671
 4608ETHY    C1 4528   1.508  29.723   6.404
 4609ETHY    C1 4529   1.568  29.292   6.094
 4610ETHY    C1 4530   1.712  28.897   5.751
 4611AUSL   AUS 4531   1.999  31.233   7.338
 4612AUSL   AUS 4532   2.112  31.490   6.992
 4613AUL    AUL 4533   2.150  31.112   7.011
 4614THSLK    S 4534   1.958  30.976   7.262
 4615ETHY    C1 4535   1.849  30.538   7.195
 4616ETHY    C1 4536   1.806  30.012   7.086
 4617ETHY    C1 4537   1.862  29.501   6.951
 4618ETHY    C1 4538   2.015  29.013   6.798
 4619ETHY    C1 4539   2.259  28.559   6.629
 4620THSLK    S 4540   2.232  31.300   6.853
 4621ETHY    C1 4541   2.301  30.914   6.621
 4622ETHY    C1 4542   2.443  30.506   6.300
 4623ETHY    C1 4543   2.650  30.170   5.942
 4624ETHY    C1 4544   2.916  29.913   5.559
 4625ETHY    C1 4545   3.236  29.735   5.158
 4626AUC    AUC 4546  34.153   2.712   7.502
 4627AUC    AUC 4547  34.399   2.712   7.350
 4628AUC    AUC 4548  34.399   2.712   7.653
 4629AUC    AUC 4549  33.908   2.712   7.350
 4630AUC    AUC 4550  33.908   2.712   7.653
 4631AUC    AUC 4551  34.001   2.957   7.502
 4632AUC    AUC 4552  34.305   2.957   7.502
 4633AUC    AUC 4553  34.001   2.466   7.502
 4634AUC    AUC 4554  34.305   2.466   7.502
 4635AUC    AUC 4555  34.153   2.560   7.747
 4636AUC    AUC 4556  34.153   2.863   7.747
 4637AUC    AUC 4557  34.153   2.560   7.256
 4638AUC    AUC 4558  34.153   2.863   7.256
 4639AUC    AUC 4559  34.644   2.712   7.198
 4640AUC    AUC 4560  34.644   2.712   7.502
 4641AUC    AUC 4561  34.644   2.712   7.805
 4642AUC    AUC 4562  33.662   2.712   7.198
 4643AUC    AUC 4563  33.662   2.712   7.502
 4644AUC    AUC 4564  33.662   2.712   7.805
 4645AUC    AUC 4565  33.850   3.202   7.502
 4646AUC    AUC 4566  34.153   3.202   7.502
 4647AUC    AUC 4567  34.456   3.202   7.502
 4648AUC    AUC 4568  33.850   2.221   7.502
 4649AUC    AUC 4569  34.153   2.221   7.502
 4650AUC    AUC 4570  34.456   2.221   7.502
 4651AUC    AUC 4571  34.153   2.408   7.992
 4652AUC    AUC 4572  34.153   2.712   7.992
 4653AUC    AUC 4573  34.153   3.015   7.992
 4654AUC    AUC 4574  34.153   2.408   7.011
 4655AUC    AUC 4575  34.153   2.712   7.011
 4656AUC    AUC 4576  34.153   3.015   7.011
 4657AUC    AUC 4577  34.399   2.560   7.899
 4658AUC    AUC 4578  34.399   2.863   7.899
 4659AUC    AUC 4579  34.399   2.560   7.105
 4660AUC    AUC 4580  34.399   2.863   7.105
 4661AUC    AUC 4581  33.908   2.560   7.899
 4662AUC    AUC 4582  33.908   2.863   7.899
 4663AUC    AUC 4583  33.908   2.560   7.105
 4664AUC    AUC 4584  33.908   2.863   7.105
 4665AUC    AUC 4585  34.550   2.957   7.350
 4666AUC    AUC 4586  34.550   2.957   7.653
 4667AUC    AUC 4587  33.756   2.957   7.350
 4668AUC    AUC 4588  33.756   2.957   7.653
 4669AUC    AUC 4589  34.550   2.466   7.350
 4670AUC    AUC 4590  34.550   2.466   7.653
 4671AUC    AUC 4591  33.756   2.466   7.350
 4672AUC    AUC 4592  33.756   2.466   7.653
 4673AUC    AUC 4593  34.001   3.109   7.747
 4674AUC    AUC 4594  34.305   3.109   7.747
 4675AUC    AUC 4595  34.001   2.314   7.747
 4676AUC    AUC 4596  34.305   2.314   7.747
 4677AUC    AUC 4597  34.001   3.109   7.256
 4678AUC    AUC 4598  34.305   3.109   7.256
 4679AUC    AUC 4599  34.001   2.314   7.256
 4680AUC    AUC 4600  34.305   2.314   7.256
 4681AUSL   AUS 4601  34.562   2.712   8.082
 4682AUSL   AUS 4602  34.418   2.295   8.012
 4683AUL    AUL 4603  34.644   2.408   8.296
 4684THSLK    S 4604  34.532   2.107   8.156
 4685ETHY    C1 4605  34.598   1.722   8.391
 4686ETHY    C1 4606  34.741   1.314   8.710
 4687ETHY    C1 4607  34.950   0.978   9.066
 4688ETHY    C1 4608  35.216   0.720   9.450
 4689ETHY    C1 4609  35.532   0.544   9.855
 4690THSLK    S 4610  34.658   2.662   8.326
 4691ETHY    C1 4611  34.874   2.476   8.681
 4692ETHY    C1 4612  35.149   2.341   9.124
 4693ETHY    C1 4613  35.430   2.311   9.575
 4694ETHY    C1 4614  35.708   2.380  10.025
 4695ETHY    C1 4615  35.977   2.548  10.466
 4696AUSL   AUS 4616  34.317   2.560   8.175
 4697AUSL   AUS 4617  33.990   2.863   8.175
 4698AUL    AUL 4618  34.153   2.712   8.483
 4699THSLK    S 4619  34.395   2.507   8.417
 4700ETHY    C1 4620  34.472   2.257   8.790
 4701ETHY    C1 4621  34.588   2.040   9.269
 4702ETHY    C1 4622  34.725   1.924   9.769
 4703ETHY    C1 4623  34.875   1.906  10.281
 4704ETHY    C1 4624  35.034   1.987  10.794
 4705THSLK    S 4625  33.903   2.820   8.431
 4706ETHY    C1 4626  33.821   2.708   8.864
 4707ETHY    C1 4627  33.707   2.662   9.388
 4708ETHY    C1 4628  33.575   2.720   9.901
 4709ETHY    C1 4629  33.424   2.873  10.389
 4710ETHY    C1 4630  33.258   3.117  10.844
 4711AUSL   AUS 4631  34.317   2.863   8.175
 4712AUSL   AUS 4632  34.663   2.976   7.918
 4713AUL    AUL 4633  34.644   3.015   8.296
 4714THSLK    S 4634  34.404   2.917   8.414
 4715ETHY    C1 4635  34.485   3.168   8.786
 4716ETHY    C1 4636  34.599   3.384   9.265
 4717ETHY    C1 4637  34.732   3.500   9.767
 4718ETHY    C1 4638  34.882   3.518  10.279
 4719ETHY    C1 4639  35.048   3.438  10.789
 4720THSLK    S 4640  34.837   3.078   8.080
 4721ETHY    C1 4641  35.201   3.088   8.354
 4722ETHY    C1 4642  35.617   3.190   8.680
 4723ETHY    C1 4643  35.997   3.389   8.995
 4724ETHY    C1 4644  36.332   3.676   9.296
 4725ETHY    C1 4645  36.613   4.044   9.577
 4726AUSL   AUS 4646  34.562   2.712   6.922
 4727AUSL   AUS 4647  34.418   3.128   6.992
 4728AUL    AUL 4648  34.644   3.015   6.707
 4729THSLK    S 4649  34.665   2.662   6.681
 4730ETHY    C1 4650  34.886   2.476   6.329
 4731ETHY    C1 4651  35.159   2.341   5.885
 4732ETHY    C1 4652  35.437   2.311   5.432
 4733ETHY    C1 4653  35.715   2.380   4.982
 4734ETHY    C1 4654  35.989   2.548   4.545
 4735THSLK    S 4655  34.596   3.243   6.825
 4736ETHY    C1 4656  34.884   3.348   6.488
 4737ETHY    C1 4657  35.184   3.552   6.090
 4738ETHY    C1 4658  35.427   3.840   5.714
 4739ETHY    C1 4659  35.611   4.204   5.371
 4740ETHY    C1 4660  35.735   4.635   5.065
 4741AUSL   AUS 4661  34.317   2.560   6.828
 4742AUSL   AUS 4662  34.663   2.447   7.085
 4743AUL    AUL 4663  34.644   2.408   6.707
 4744THSLK    S 4664  34.800   2.255   6.944
 4745ETHY    C1 4665  35.008   1.912   6.729
 4746ETHY    C1 4666  35.309   1.570   6.442
 4747ETHY    C1 4667  35.660   1.317   6.133
 4748ETHY    C1 4668  36.054   1.155   5.812
 4749ETHY    C1 4669  36.483   1.084   5.486
 4750THSLK    S 4670  34.404   2.506   6.590
 4751ETHY    C1 4671  34.485   2.255   6.217
 4752ETHY    C1 4672  34.599   2.039   5.738
 4753ETHY    C1 4673  34.732   1.923   5.236
 4754ETHY    C1 4674  34.882   1.905   4.725
 4755ETHY    C1 4675  35.048   1.985   4.214
 4756AUSL   AUS 4676  34.317   2.863   6.828
 4757AUSL   AUS 4677  33.990   2.560   6.828
 4758AUL    AUL 4678  34.153   2.712   6.520
 4759THSLK    S 4679  33.895   2.506   6.592
 4760ETHY    C1 4680  33.758   2.258   6.235
 4761ETHY    C1 4681  33.598   2.044   5.767
 4762ETHY    C1 4682  33.451   1.929   5.269
 4763ETHY    C1 4683  33.324   1.910   4.751
 4764ETHY    C1 4684  33.219   1.986   4.224
 4765THSLK    S 4685  34.420   2.821   6.578
 4766ETHY    C1 4686  34.561   2.706   6.160
 4767ETHY    C1 4687  34.719   2.659   5.647
 4768ETHY    C1 4688  34.862   2.715   5.138
 4769ETHY    C1 4689  34.990   2.869   4.643
 4770ETHY    C1 4690  35.101   3.117   4.174
 4771AUSL   AUS 4691  33.744   2.712   8.082
 4772AUSL   AUS 4692  33.888   3.128   8.012
 4773AUL    AUL 4693  33.662   3.015   8.296
 4774THSLK    S 4694  33.641   2.662   8.322
 4775ETHY    C1 4695  33.420   2.476   8.674
 4776ETHY    C1 4696  33.147   2.341   9.118
 4777ETHY    C1 4697  32.870   2.311   9.571
 4778ETHY    C1 4698  32.592   2.380  10.021
 4779ETHY    C1 4699  32.317   2.548  10.458
 4780THSLK    S 4700  33.768   3.257   8.202
 4781ETHY    C1 4701  33.699   3.426   8.620
 4782ETHY    C1 4702  33.557   3.679   9.073
 4783ETHY    C1 4703  33.351   3.980   9.460
 4784ETHY    C1 4704  33.084   4.319   9.775
 4785ETHY    C1 4705  32.764   4.686  10.013
 4786AUSL   AUS 4706  33.990   2.560   8.175
 4787AUSL   AUS 4707  33.643   2.447   7.918
 4788AUL    AUL 4708  33.662   2.408   8.296
 4789THSLK    S 4709  33.465   2.283   8.029
 4790ETHY    C1 4710  33.097   2.030   8.125
 4791ETHY    C1 4711  32.682   1.751   8.323
 4792ETHY    C1 4712  32.304   1.511   8.611
 4793ETHY    C1 4713  31.970   1.315   8.978
 4794ETHY    C1 4714  31.684   1.169   9.415
 4795THSLK    S 4715  33.887   2.508   8.410
 4796ETHY    C1 4716  33.745   2.261   8.766
 4797ETHY    C1 4717  33.587   2.046   9.233
 4798ETHY    C1 4718  33.444   1.930   9.733
 4799ETHY    C1 4719  33.317   1.912  10.250
 4800ETHY    C1 4720  33.205   1.990  10.775
 4801AUSL   AUS 4721  33.744   2.712   6.922
 4802AUSL   AUS 4722  33.888   2.295   6.992
 4803AUL    AUL 4723  33.662   2.408   6.707
 4804THSLK    S 4724  33.649   2.662   6.677
 4805ETHY    C1 4725  33.432   2.476   6.322
 4806ETHY    C1 4726  33.157   2.341   5.879
 4807ETHY    C1 4727  32.876   2.311   5.429
 4808ETHY    C1 4728  32.598   2.380   4.978
 4809ETHY    C1 4729  32.330   2.548   4.537
 4810THSLK    S 4730  33.716   2.121   6.872
 4811ETHY    C1 4731  33.431   1.800   6.717
 4812ETHY    C1 4732  33.130   1.441   6.453
 4813ETHY    C1 4733  32.885   1.118   6.109
 4814ETHY    C1 4734  32.701   0.835   5.696
 4815ETHY    C1 4735  32.582   0.595   5.223
 4816AUSL   AUS 4736  33.990   2.863   6.828
 4817AUSL   AUS 4737  33.643   2.976   7.085
 4818AUL    AUL 4738  33.662   3.015   6.707
 4819THSLK    S 4739  33.512   3.106   6.893
 4820ETHY    C1 4740  33.306   3.206   6.499
 4821ETHY    C1 4741  33.004   3.370   6.085
 4822ETHY    C1 4742  32.650   3.582   5.748
 4823ETHY    C1 4743  32.257   3.836   5.494
 4824ETHY    C1 4744  31.832   4.129   5.324
 4825THSLK    S 4745  33.911   2.822   6.571
 4826ETHY    C1 4746  33.834   2.710   6.136
 4827ETHY    C1 4747  33.718   2.665   5.612
 4828ETHY    C1 4748  33.582   2.721   5.101
 4829ETHY    C1 4749  33.432   2.875   4.613
 4830ETHY    C1 4750  33.272   3.120   4.156
 4831AUSL   AUS 4751  34.733   3.121   7.502
 4832AUSL   AUS 4752  34.663   2.976   7.085
 4833AUL    AUL 4753  34.947   3.202   7.198
 4834THSLK    S 4754  34.842   3.079   6.930
 4835ETHY    C1 4755  35.209   3.090   6.659
 4836ETHY    C1 4756  35.624   3.192   6.332
 4837ETHY    C1 4757  36.002   3.390   6.014
 4838ETHY    C1 4758  36.336   3.677   5.713
 4839ETHY    C1 4759  36.622   4.047   5.438
 4840THSLK    S 4760  35.001   3.177   7.506
 4841ETHY    C1 4761  35.453   3.238   7.508
 4842ETHY    C1 4762  35.967   3.397   7.507
 4843ETHY    C1 4763  36.435   3.651   7.505
 4844ETHY    C1 4764  36.848   3.988   7.506
 4845ETHY    C1 4765  37.200   4.402   7.509
 4846AUSL   AUS 4766  34.827   2.875   7.350
 4847AUSL   AUS 4767  34.827   2.548   7.653
 4848AUL    AUL 4768  35.135   2.712   7.502
 4849THSLK    S 4769  35.086   2.918   7.348
 4850ETHY    C1 4770  35.531   2.848   7.278
 4851ETHY    C1 4771  36.062   2.855   7.190
 4852ETHY    C1 4772  36.575   2.965   7.101
 4853ETHY    C1 4773  37.060   3.171   7.017
 4854ETHY    C1 4774  37.507   3.468   6.940
 4855THSLK    S 4775  35.059   2.410   7.662
 4856ETHY    C1 4776  35.405   2.121   7.728
 4857ETHY    C1 4777  35.866   1.854   7.809
 4858ETHY    C1 4778  36.363   1.685   7.892
 4859ETHY    C1 4779  36.884   1.613   7.980
 4860ETHY    C1 4780  37.419   1.639   8.071
 4861AUSL   AUS 4781  34.827   2.875   7.653
 4862AUSL   AUS 4782  34.570   3.222   7.766
 4863AUL    AUL 4783  34.947   3.202   7.805
 4864THSLK    S 4784  34.753   3.341   7.926
 4865ETHY    C1 4785  35.125   3.496   8.139
 4866ETHY    C1 4786  35.525   3.761   8.385
 4867ETHY    C1 4787  35.859   4.105   8.615
 4868ETHY    C1 4788  36.121   4.518   8.827
 4869ETHY    C1 4789  36.308   4.990   9.019
 4870THSLK    S 4790  35.085   2.918   7.664
 4871ETHY    C1 4791  35.529   2.848   7.738
 4872ETHY    C1 4792  36.060   2.855   7.825
 4873ETHY    C1 4793  36.574   2.965   7.910
 4874ETHY    C1 4794  37.058   3.171   7.994
 4875ETHY    C1 4795  37.505   3.468   8.078
 4876AUSL   AUS 4796  33.573   3.121   7.502
 4877AUSL   AUS 4797  33.643   2.976   7.918
 4878AUL    AUL 4798  33.359   3.202   7.805
 4879THSLK    S 4799  33.507   3.099   8.109
 4880ETHY    C1 4800  33.298   3.195   8.503
 4881ETHY    C1 4801  32.997   3.361   8.917
 4882ETHY    C1 4802  32.646   3.576   9.254
 4883ETHY    C1 4803  32.252   3.830   9.509
 4884ETHY    C1 4804  31.823   4.117   9.678
 4885THSLK    S 4805  33.357   3.261   7.506
 4886ETHY    C1 4806  33.101   3.639   7.508
 4887ETHY    C1 4807  32.728   4.027   7.507
 4888ETHY    C1 4808  32.292   4.333   7.505
 4889ETHY    C1 4809  31.806   4.551   7.506
 4890ETHY    C1 4810  31.279   4.681   7.509
 4891AUSL   AUS 4811  33.479   2.875   7.350
 4892AUSL   AUS 4812  33.737   3.222   7.237
 4893AUL    AUL 4813  33.359   3.202   7.198
 4894THSLK    S 4814  33.248   2.990   7.303
 4895ETHY    C1 4815  32.901   3.178   7.075
 4896ETHY    C1 4816  32.441   3.370   6.872
 4897ETHY    C1 4817  31.943   3.520   6.758
 4898ETHY    C1 4818  31.422   3.630   6.733
 4899ETHY    C1 4819  30.888   3.700   6.796
 4900THSLK    S 4820  33.621   3.387   7.058
 4901ETHY    C1 4821  33.505   3.703   6.750
 4902ETHY    C1 4822  33.291   4.081   6.432
 4903ETHY    C1 4823  32.999   4.450   6.183
 4904ETHY    C1 4824  32.641   4.803   6.008
 4905ETHY    C1 4825  32.223   5.136   5.909
 4906AUSL   AUS 4826  33.479   2.875   7.653
 4907AUSL   AUS 4827  33.479   2.548   7.350
 4908AUL    AUL 4828  33.171   2.712   7.502
 4909THSLK    S 4829  33.221   2.474   7.390
 4910ETHY    C1 4830  32.777   2.439   7.486
 4911ETHY    C1 4831  32.246   2.358   7.518
 4912ETHY    C1 4832  31.732   2.233   7.458
 4913ETHY    C1 4833  31.248   2.065   7.311
 4914ETHY    C1 4834  30.801   1.858   7.083
 4915THSLK    S 4835  33.246   2.982   7.704
 4916ETHY    C1 4836  32.899   3.166   7.935
 4917ETHY    C1 4837  32.439   3.359   8.137
 4918ETHY    C1 4838  31.942   3.514   8.249
 4919ETHY    C1 4839  31.421   3.624   8.274
 4920ETHY    C1 4840  30.885   3.687   8.213
 4921AUSL   AUS 4841  34.733   2.302   7.502
 4922AUSL   AUS 4842  34.663   2.447   7.918
 4923AUL    AUL 4843  34.947   2.221   7.805
 4924THSLK    S 4844  34.949   2.162   7.506
 4925ETHY    C1 4845  35.205   1.784   7.508
 4926ETHY    C1 4846  35.578   1.396   7.507
 4927ETHY    C1 4847  36.014   1.090   7.505
 4928ETHY    C1 4848  36.500   0.872   7.506
 4929ETHY    C1 4849  37.027   0.742   7.509
 4930THSLK    S 4850  34.795   2.257   8.066
 4931ETHY    C1 4851  35.000   1.914   8.285
 4932ETHY    C1 4852  35.302   1.572   8.570
 4933ETHY    C1 4853  35.656   1.319   8.877
 4934ETHY    C1 4854  36.050   1.156   9.198
 4935ETHY    C1 4855  36.474   1.086   9.529
 4936AUSL   AUS 4856  34.827   2.548   7.350
 4937AUSL   AUS 4857  34.570   2.201   7.237
 4938AUL    AUL 4858  34.947   2.221   7.198
 4939THSLK    S 4859  35.060   2.410   7.350
 4940ETHY    C1 4860  35.408   2.121   7.289
 4941ETHY    C1 4861  35.867   1.854   7.206
 4942ETHY    C1 4862  36.364   1.685   7.118
 4943ETHY    C1 4863  36.886   1.613   7.031
 4944ETHY    C1 4864  37.421   1.639   6.947
 4945THSLK    S 4865  34.689   2.011   7.104
 4946ETHY    C1 4866  34.806   1.594   6.963
 4947ETHY    C1 4867  35.020   1.140   6.765
 4948ETHY    C1 4868  35.310   0.754   6.543
 4949ETHY    C1 4869  35.669   0.439   6.306
 4950ETHY    C1 4870  36.089   0.200   6.058
 4951AUSL   AUS 4871  33.573   2.302   7.502
 4952AUSL   AUS 4872  33.643   2.447   7.085
 4953AUL    AUL 4873  33.359   2.221   7.198
 4954THSLK    S 4874  33.470   2.276   6.973
 4955ETHY    C1 4875  33.105   2.019   6.877
 4956ETHY    C1 4876  32.689   1.742   6.679
 4957ETHY    C1 4877  32.309   1.505   6.392
 4958ETHY    C1 4878  31.975   1.309   6.025
 4959ETHY    C1 4879  31.693   1.157   5.587
 4960THSLK    S 4880  33.305   2.246   7.506
 4961ETHY    C1 4881  32.853   2.185   7.508
 4962ETHY    C1 4882  32.339   2.026   7.507
 4963ETHY    C1 4883  31.871   1.772   7.505
 4964ETHY    C1 4884  31.458   1.435   7.506
 4965ETHY    C1 4885  31.106   1.021   7.509
 4966AUSL   AUS 4886  33.479   2.548   7.653
 4967AUSL   AUS 4887  33.737   2.201   7.766
 4968AUL    AUL 4888  33.359   2.221   7.805
 4969THSLK    S 4889  33.549   2.057   7.880
 4970ETHY    C1 4890  33.175   1.800   7.926
 4971ETHY    C1 4891  32.777   1.460   8.052
 4972ETHY    C1 4892  32.444   1.098   8.255
 4973ETHY    C1 4893  32.182   0.724   8.529
 4974ETHY    C1 4894  31.991   0.346   8.870
 4975THSLK    S 4895  33.220   2.481   7.617
 4976ETHY    C1 4896  32.775   2.451   7.524
 4977ETHY    C1 4897  32.244   2.369   7.490
 4978ETHY    C1 4898  31.731   2.240   7.549
 4979ETHY    C1 4899  31.247   2.072   7.696
 4980ETHY    C1 4900  30.799   1.870   7.928
 4981AUSL   AUS 4901  34.153   3.292   7.911
 4982AUSL   AUS 4902  33.737   3.222   7.766
 4983AUL    AUL 4903  33.850   3.506   7.992
 4984THSLK    S 4904  33.617   3.381   7.950
 4985ETHY    C1 4905  33.500   3.693   8.261
 4986ETHY    C1 4906  33.286   4.073   8.578
 4987ETHY    C1 4907  32.996   4.444   8.824
 4988ETHY    C1 4908  32.638   4.798   9.000
 4989ETHY    C1 4909  32.217   5.126   9.102
 4990THSLK    S 4910  34.193   3.518   8.035
 4991ETHY    C1 4911  34.350   3.820   8.339
 4992ETHY    C1 4912  34.465   4.226   8.672
 4993ETHY    C1 4913  34.492   4.670   8.964
 4994ETHY    C1 4914  34.432   5.139   9.211
 4995ETHY    C1 4915  34.288   5.623   9.410
 4996AUSL   AUS 4916  34.001   3.385   7.665
 4997AUSL   AUS 4917  34.305   3.385   7.338
 4998AUL    AUL 4918  34.153   3.693   7.502
 4999THSLK    S 4919  34.042   3.633   7.774
 5000ETHY    C1 4920  34.151   4.043   7.942
 5001ETHY    C1 4921  34.195   4.550   8.118
 5002ETHY    C1 4922  34.138   5.058   8.265
 5003ETHY    C1 4923  33.985   5.555   8.383
 5004ETHY    C1 4924  33.742   6.032   8.472
 5005THSLK    S 4925  34.358   3.620   7.241
 5006ETHY    C1 4926  34.603   3.976   7.094
 5007ETHY    C1 4927  34.816   4.441   6.927
 5008ETHY    C1 4928  34.931   4.939   6.779
 5009ETHY    C1 4929  34.951   5.458   6.655
 5010ETHY    C1 4930  34.876   5.987   6.558
 5011AUSL   AUS 4931  34.305   3.385   7.665
 5012AUSL   AUS 4932  34.418   3.128   8.012
 5013AUL    AUL 4933  34.456   3.506   7.992
 5014THSLK    S 4934  34.590   3.241   8.184
 5015ETHY    C1 4935  34.875   3.344   8.524
 5016ETHY    C1 4936  35.177   3.548   8.921
 5017ETHY    C1 4937  35.422   3.838   9.294
 5018ETHY    C1 4938  35.606   4.201   9.638
 5019ETHY    C1 4939  35.725   4.631   9.948
 5020THSLK    S 4940  34.356   3.619   7.771
 5021ETHY    C1 4941  34.600   3.973   7.922
 5022ETHY    C1 4942  34.813   4.439   8.087
 5023ETHY    C1 4943  34.929   4.938   8.231
 5024ETHY    C1 4944  34.948   5.456   8.356
 5025ETHY    C1 4945  34.873   5.984   8.458
 5026AUSL   AUS 4946  34.153   2.132   7.911
 5027AUSL   AUS 4947  34.570   2.201   7.766
 5028AUL    AUL 4948  34.456   1.917   7.992
 5029THSLK    S 4949  34.109   1.877   7.990
 5030ETHY    C1 4950  33.949   1.473   8.128
 5031ETHY    C1 4951  33.835   0.992   8.341
 5032ETHY    C1 4952  33.810   0.531   8.605
 5033ETHY    C1 4953  33.869   0.101   8.915
 5034ETHY    C1 4954  34.010  -0.291   9.263
 5035THSLK    S 4955  34.685   2.012   7.908
 5036ETHY    C1 4956  34.801   1.596   8.052
 5037ETHY    C1 4957  35.015   1.143   8.248
 5038ETHY    C1 4958  35.307   0.755   8.467
 5039ETHY    C1 4959  35.666   0.440   8.705
 5040ETHY    C1 4960  36.083   0.203   8.958
 5041AUSL   AUS 4961  34.001   2.038   7.665
 5042AUSL   AUS 4962  33.888   2.295   8.012
 5043AUL    AUL 4963  33.850   1.917   7.992
 5044THSLK    S 4964  33.948   1.798   7.745
 5045ETHY    C1 4965  33.703   1.417   7.801
 5046ETHY    C1 4966  33.490   0.932   7.897
 5047ETHY    C1 4967  33.375   0.429   8.025
 5048ETHY    C1 4968  33.356  -0.080   8.186
 5049ETHY    C1 4969  33.430  -0.583   8.374
 5050THSLK    S 4970  33.710   2.127   8.133
 5051ETHY    C1 4971  33.422   1.809   8.289
 5052ETHY    C1 4972  33.122   1.449   8.552
 5053ETHY    C1 4973  32.879   1.123   8.896
 5054ETHY    C1 4974  32.695   0.840   9.309
 5055ETHY    C1 4975  32.571   0.606   9.783
 5056AUSL   AUS 4976  34.305   2.038   7.665
 5057AUSL   AUS 4977  34.001   2.038   7.338
 5058AUL    AUL 4978  34.153   1.730   7.502
 5059THSLK    S 4979  33.950   1.795   7.266
 5060ETHY    C1 4980  33.706   1.413   7.215
 5061ETHY    C1 4981  33.493   0.929   7.117
 5062ETHY    C1 4982  33.377   0.427   6.984
 5063ETHY    C1 4983  33.358  -0.082   6.825
 5064ETHY    C1 4984  33.434  -0.587   6.642
 5065THSLK    S 4985  34.262   1.782   7.749
 5066ETHY    C1 4986  34.152   1.346   7.821
 5067ETHY    C1 4987  34.109   0.820   7.928
 5068ETHY    C1 4988  34.166   0.308   8.059
 5069ETHY    C1 4989  34.319  -0.180   8.213
 5070ETHY    C1 4990  34.561  -0.633   8.388
 5071AUSL   AUS 4991  34.153   3.292   7.093
 5072AUSL   AUS 4992  34.570   3.222   7.237
 5073AUL    AUL 4993  34.456   3.506   7.011
 5074THSLK    S 4994  34.197   3.522   6.975
 5075ETHY    C1 4995  34.357   3.826   6.674
 5076ETHY    C1 4996  34.471   4.231   6.339
 5077ETHY    C1 4997  34.496   4.674   6.045
 5078ETHY    C1 4998  34.437   5.143   5.798
 5079ETHY    C1 4999  34.296   5.630   5.604
 5080THSLK    S 5000  34.757   3.343   7.085
 5081ETHY    C1 5001  35.131   3.499   6.876
 5082ETHY    C1 5002  35.529   3.763   6.629
 5083ETHY    C1 5003  35.862   4.107   6.395
 5084ETHY    C1 5004  36.124   4.519   6.184
 5085ETHY    C1 5005  36.315   4.993   5.998
 5086AUSL   AUS 5006  34.001   3.385   7.338
 5087AUSL   AUS 5007  33.888   3.128   6.992
 5088AUL    AUL 5008  33.850   3.506   7.011
 5089THSLK    S 5009  34.044   3.636   7.237
 5090ETHY    C1 5010  34.154   4.047   7.074
 5091ETHY    C1 5011  34.197   4.553   6.896
 5092ETHY    C1 5012  34.140   5.061   6.745
 5093ETHY    C1 5013  33.987   5.558   6.627
 5094ETHY    C1 5014  33.745   6.037   6.545
 5095THSLK    S 5015  33.774   3.263   6.802
 5096ETHY    C1 5016  33.708   3.435   6.385
 5097ETHY    C1 5017  33.565   3.687   5.932
 5098ETHY    C1 5018  33.356   3.986   5.544
 5099ETHY    C1 5019  33.090   4.324   5.230
 5100ETHY    C1 5020  32.774   4.697   4.993
 5101AUSL   AUS 5021  34.153   2.132   7.093
 5102AUSL   AUS 5022  33.737   2.201   7.237
 5103AUL    AUL 5023  33.850   1.917   7.011
 5104THSLK    S 5024  33.553   2.051   7.128
 5105ETHY    C1 5025  33.181   1.790   7.085
 5106ETHY    C1 5026  32.782   1.452   6.958
 5107ETHY    C1 5027  32.447   1.093   6.753
 5108ETHY    C1 5028  32.185   0.719   6.478
 5109ETHY    C1 5029  31.998   0.336   6.142
 5110THSLK    S 5030  34.113   1.873   7.019
 5111ETHY    C1 5031  33.956   1.467   6.885
 5112ETHY    C1 5032  33.841   0.987   6.671
 5113ETHY    C1 5033  33.814   0.528   6.404
 5114ETHY    C1 5034  33.874   0.097   6.094
 5115ETHY    C1 5035  34.018  -0.298   5.751
 5116AUSL   AUS 5036  34.305   2.038   7.338
 5117AUSL   AUS 5037  34.418   2.295   6.992
 5118AUL    AUL 5038  34.456   1.917   7.011
 5119THSLK    S 5039  34.264   1.781   7.262
 5120ETHY    C1 5040  34.155   1.343   7.195
 5121ETHY    C1 5041  34.112   0.817   7.086
 5122ETHY    C1 5042  34.168   0.306   6.951
 5123ETHY    C1 5043  34.321  -0.182   6.798
 5124ETHY    C1 5044  34.565  -0.636   6.629
 5125THSLK    S 5045  34.538   2.105   6.853
 5126ETHY    C1 5046  34.607   1.719   6.621
 5127ETHY    C1 5047  34.749   1.311   6.300
 5128ETHY    C1 5048  34.956   0.975   5.942
 5129ETHY    C1 5049  35.222   0.718   5.559
 5130ETHY    C1 5050  35.542   0.540   5.158
 5131POPC   NC3 5051  28.359  30.709   9.453
 5131POPC   PO4 5052  28.382  30.685   9.153
 5131POPC   GL1 5053  28.367  30.705   8.853
 5131POPC   GL2 5054  28.279  30.812   8.853
 5131POPC   C1A 5055  28.338  30.720   8.553
 5131POPC   D2A 5056  28.360  30.712   8.253
 5131POPC   C3A 5057  28.328  30.706   7.953
 5131POPC   C4A 5058  28.353  30.660   7.653
 5131POPC   C1B 5059  28.285  30.941   8.553
 5131POPC   C2B 5060  28.257  30.928   8.253
 5131POPC   C3B 5061  28.245  30.944   7.953
 5131POPC   C4B 5062  28.217  30.876   7.653
 5132POPC   NC3 5063  37.648   7.427   9.453
 5132POPC   PO4 5064  37.705   7.464   9.153
 5132POPC   GL1 5065  37.674   7.414   8.853
 5132POPC   GL2 5066  37.597   7.490   8.853
 5132POPC   C1A 5067  37.722   7.460   8.553
 5132POPC   D2A 5068  37.725   7.463   8.253
 5132POPC   C3A 5069  37.658   7.382   7.953
 5132POPC   C4A 5070  37.702   7.428   7.653
 5132POPC   C1B 5071  37.462   7.596   8.553
 5132POPC   C2B 5072  37.521   7.548   8.253
 5132POPC   C3B 5073  37.477   7.557   7.953
 5132POPC   C4B 5074  37.522   7.615   7.653
 5133POPC   NC3 5075  28.324  23.675   9.453
 5133POPC   PO4 5076  28.340  23.745   9.153
 5133POPC   GL1 5077  28.396  23.700   8.853
 5133POPC   GL2 5078  28.224  23.772   8.853
 5133POPC   C1A 5079  28.394  23.677   8.553
 5133POPC   D2A 5080  28.357  23.707   8.253
 5133POPC   C3A 5081  28.396  23.724   7.953
 5133POPC   C4A 5082  28.373  23.747   7.653
 5133POPC   C1B 5083  28.136  23.771   8.553
 5133POPC   C2B 5084  28.083  23.817   8.253
 5133POPC   C3B 5085  28.121  23.732   7.953
 5133POPC   C4B 5086  28.084  23.726   7.653
 5134POPC   NC3 5087  15.169  18.316   9.453
 5134POPC   PO4 5088  15.142  18.319   9.153
 5134POPC   GL1 5089  15.189  18.287   8.853
 5134POPC   GL2 5090  15.200  18.138   8.853
 5134POPC   C1A 5091  15.228  18.321   8.553
 5134POPC   D2A 5092  15.132  18.275   8.253
 5134POPC   C3A 5093  15.190  18.321   7.953
 5134POPC   C4A 5094  15.206  18.320   7.653
 5134POPC   C1B 5095  15.340  18.098   8.553
 5134POPC   C2B 5096  15.313  18.043   8.253
 5134POPC   C3B 5097  15.346  18.101   7.953
 5134POPC   C4B 5098  15.281  18.050   7.653
 5135POPC   NC3 5099  13.623  17.533   9.453
 5135POPC   PO4 5100  13.584  17.494   9.153
 5135POPC   GL1 5101  13.624  17.497   8.853
 5135POPC   GL2 5102  13.503  17.587   8.853
 5135POPC   C1A 5103  13.595  17.462   8.553
 5135POPC   D2A 5104  13.595  17.512   8.253
 5135POPC   C3A 5105  13.614  17.506   7.953
 5135POPC   C4A 5106  13.631  17.546   7.653
 5135POPC   C1B 5107  13.488  17.670   8.553
 5135POPC   C2B 5108  13.472  17.677   8.253
 5135POPC   C3B 5109  13.463  17.735   7.953
 5135POPC   C4B 5110  13.461  17.683   7.653
 5136POPC   NC3 5111   2.007  21.421   9.453
 5136POPC   PO4 5112   2.029  21.377   9.153
 5136POPC   GL1 5113   2.034  21.343   8.853
 5136POPC   GL2 5114   1.906  21.252   8.853
 5136POPC   C1A 5115   2.010  21.410   8.553
 5136POPC   D2A 5116   2.000  21.432   8.253
 5136POPC   C3A 5117   1.956  21.366   7.953
 5136POPC   C4A 5118   2.038  21.414   7.653
 5136POPC   C1B 5119   1.922  21.133   8.553
 5136POPC   C2B 5120   1.866  21.179   8.253
 5136POPC   C3B 5121   1.860  21.128   7.953
 5136POPC   C4B 5122   1.920  21.138   7.653
 5137POPC   NC3 5123   8.188  33.844   9.453
 5137POPC   PO4 5124   8.154  33.754   9.153
 5137POPC   GL1 5125   8.178  33.828   8.853
 5137POPC   GL2 5126   8.184  33.719   8.853
 5137POPC   C1A 5127   8.242  33.777   8.553
 5137POPC   D2A 5128   8.222  33.798   8.253
 5137POPC   C3A 5129   8.236  33.782   7.953
 5137POPC   C4A 5130   8.174  33.831   7.653
 5137POPC   C1B 5131   8.071  33.553   8.553
 5137POPC   C2B 5132   8.135  33.578   8.253
 5137POPC   C3B 5133   8.050  33.575   7.953
 5137POPC   C4B 5134   8.071  33.547   7.653
 5138POPC   NC3 5135  12.823  39.274   9.453
 5138POPC   PO4 5136  12.835  39.270   9.153
 5138POPC   GL1 5137  12.858  39.216   8.853
 5138POPC   GL2 5138  12.986  39.186   8.853
 5138POPC   C1A 5139  12.843  39.277   8.553
 5138POPC   D2A 5140  12.896  39.235   8.253
 5138POPC   C3A 5141  12.862  39.209   7.953
 5138POPC   C4A 5142  12.867  39.198   7.653
 5138POPC   C1B 5143  13.063  39.131   8.553
 5138POPC   C2B 5144  13.075  39.159   8.253
 5138POPC   C3B 5145  13.125  39.213   7.953
 5138POPC   C4B 5146  13.132  39.137   7.653
 5139POPC   NC3 5147   4.356  38.447   9.453
 5139POPC   PO4 5148   4.332  38.489   9.153
 5139POPC   GL1 5149   4.314  38.477   8.853
 5139POPC   GL2 5150   4.392  38.536   8.853
 5139POPC   C1A 5151   4.329  38.422   8.553
 5139POPC   D2A 5152   4.312  38.423   8.253
 5139POPC   C3A 5153   4.287  38.442   7.953
 5139POPC   C4A 5154   4.269  38.485   7.653
 5139POPC   C1B 5155   4.532  38.565   8.553
 5139POPC   C2B 5156   4.536  38.647   8.253
 5139POPC   C3B 5157   4.541  38.605   7.953
 5139POPC   C4B 5158   4.491  38.639   7.653
 5140POPC   NC3 5159  27.636  37.723   9.453
 5140POPC   PO4 5160  27.640  37.653   9.153
 5140POPC   GL1 5161  27.570  37.639   8.853
 5140POPC   GL2 5162  27.592  37.524   8.853
 5140POPC   C1A 5163  27.580  37.667   8.553
 5140POPC   D2A 5164  27.557  37.630   8.253
 5140POPC   C3A 5165  27.615  37.679   7.953
 5140POPC   C4A 5166  27.626  37.656   7.653
 5140POPC   C1B 5167  27.704  37.465   8.553
 5140POPC   C2B 5168  27.648  37.463   8.253
 5140POPC   C3B 5169  27.636  37.452   7.953
 5140POPC   C4B 5170  27.716  37.429   7.653
 5141POPC   NC3 5171   7.421  13.644   9.453
 5141POPC   PO4 5172   7.427  13.591   9.153
 5141POPC   GL1 5173   7.424  13.595   8.853
 5141POPC   GL2 5174   7.415  13.733   8.853
 5141POPC   C1A 5175   7.414  13.646   8.553
 5141POPC   D2A 5176   7.459  13.640   8.253
 5141POPC   C3A 5177   7.379  13.644   7.953
 5141POPC   C4A 5178   7.432  13.600   7.653
 5141POPC   C1B 5179   7.344  13.842   8.553
 5141POPC   C2B 5180   7.416  13.851   8.253
 5141POPC   C3B 5181   7.393  13.855   7.953
 5141POPC   C4B 5182   7.430  13.887   7.653
 5142POPC   NC3 5183  39.217  42.324   9.453
 5142POPC   PO4 5184  39.281  42.365   9.153
 5142POPC   GL1 5185  39.262  42.368   8.853
 5142POPC   GL2 5186  39.395  42.324   8.853
 5142POPC   C1A 5187  39.197  42.289   8.553
 5142POPC   D2A 5188  39.197  42.346   8.253
 5142POPC   C3A 5189  39.206  42.298   7.953
 5142POPC   C4A 5190  39.241  42.364   7.653
 5142POPC   C1B 5191  39.435  42.401   8.553
 5142POPC   C2B 5192  39.439  42.430   8.253
 5142POPC   C3B 5193  39.511  42.380   7.953
 5142POPC   C4B 5194  39.471  42.383   7.653
 5143POPC   NC3 5195  17.515   9.017   9.453
 5143POPC   PO4 5196  17.539   8.939   9.153
 5143POPC   GL1 5197  17.528   8.986   8.853
 5143POPC   GL2 5198  17.655   8.939   8.853
 5143POPC   C1A 5199  17.465   8.937   8.553
 5143POPC   D2A 5200  17.523   8.960   8.253
 5143POPC   C3A 5201  17.494   8.945   7.953
 5143POPC   C4A 5202  17.550   8.963   7.653
 5143POPC   C1B 5203  17.775   8.896   8.553
 5143POPC   C2B 5204  17.757   8.889   8.253
 5143POPC   C3B 5205  17.766   8.882   7.953
 5143POPC   C4B 5206  17.703   8.846   7.653
 5144POPC   NC3 5207   2.000  38.415   9.453
 5144POPC   PO4 5208   1.995  38.470   9.153
 5144POPC   GL1 5209   1.961  38.470   8.853
 5144POPC   GL2 5210   2.077  38.538   8.853
 5144POPC   C1A 5211   1.966  38.474   8.553
 5144POPC   D2A 5212   1.976  38.434   8.253
 5144POPC   C3A 5213   1.977  38.503   7.953
 5144POPC   C4A 5214   2.026  38.495   7.653
 5144POPC   C1B 5215   2.115  38.716   8.553
 5144POPC   C2B 5216   2.052  38.684   8.253
 5144POPC   C3B 5217   2.087  38.712   7.953
 5144POPC   C4B 5218   2.044  38.671   7.653
 5145POPC   NC3 5219  12.811   1.965   9.453
 5145POPC   PO4 5220  12.825   1.991   9.153
 5145POPC   GL1 5221  12.805   1.959   8.853
 5145POPC   GL2 5222  12.821   1.903   8.853
 5145POPC   C1A 5223  12.860   1.997   8.553
 5145POPC   D2A 5224  12.890   1.962   8.253
 5145POPC   C3A 5225  12.848   2.009   7.953
 5145POPC   C4A 5226  12.885   2.028   7.653
 5145POPC   C1B 5227  12.732   1.790   8.553
 5145POPC   C2B 5228  12.757   1.803   8.253
 5145POPC   C3B 5229  12.779   1.785   7.953
 5145POPC   C4B 5230  12.799   1.747   7.653
 5146POPC   NC3 5231  27.601  34.554   9.453
 5146POPC   PO4 5232  27.614  34.607   9.153
 5146POPC   GL1 5233  27.624  34.610   8.853
 5146POPC   GL2 5234  27.656  34.744   8.853
 5146POPC   C1A 5235  27.642  34.585   8.553
 5146POPC   D2A 5236  27.562  34.584   8.253
 5146POPC   C3A 5237  27.629  34.617   7.953
 5146POPC   C4A 5238  27.566  34.592   7.653
 5146POPC   C1B 5239  27.685  34.790   8.553
 5146POPC   C2B 5240  27.626  34.788   8.253
 5146POPC   C3B 5241  27.665  34.782   7.953
 5146POPC   C4B 5242  27.681  34.856   7.653
 5147POPC   NC3 5243   0.483  12.818   9.453
 5147POPC   PO4 5244   0.476  12.889   9.153
 5147POPC   GL1 5245   0.395  12.812   8.853
 5147POPC   GL2 5246   0.334  13.001   8.853
 5147POPC   C1A 5247   0.414  12.809   8.553
 5147POPC   D2A 5248   0.409  12.879   8.253
 5147POPC   C3A 5249   0.396  12.848   7.953
 5147POPC   C4A 5250   0.473  12.856   7.653
 5147POPC   C1B 5251   0.285  13.086   8.553
 5147POPC   C2B 5252   0.272  13.074   8.253
 5147POPC   C3B 5253   0.271  13.081   7.953
 5147POPC   C4B 5254   0.336  13.055   7.653
 5148POPC   NC3 5255  22.926  19.873   9.453
 5148POPC   PO4 5256  22.901  19.857   9.153
 5148POPC   GL1 5257  22.946  19.819   8.853
 5148POPC   GL2 5258  22.938  19.912   8.853
 5148POPC   C1A 5259  22.945  19.882   8.553
 5148POPC   D2A 5260  22.934  19.861   8.253
 5148POPC   C3A 5261  22.903  19.884   7.953
 5148POPC   C4A 5262  22.988  19.853   7.653
 5148POPC   C1B 5263  23.024  20.052   8.553
 5148POPC   C2B 5264  23.010  20.080   8.253
 5148POPC   C3B 5265  22.965  20.084   7.953
 5148POPC   C4B 5266  22.970  20.045   7.653
 5149POPC   NC3 5267   8.199  31.473   9.453
 5149POPC   PO4 5268   8.234  31.517   9.153
 5149POPC   GL1 5269   8.168  31.478   8.853
 5149POPC   GL2 5270   8.262  31.313   8.853
 5149POPC   C1A 5271   8.160  31.449   8.553
 5149POPC   D2A 5272   8.241  31.437   8.253
 5149POPC   C3A 5273   8.163  31.522   7.953
 5149POPC   C4A 5274   8.169  31.515   7.653
 5149POPC   C1B 5275   8.221  31.229   8.553
 5149POPC   C2B 5276   8.202  31.193   8.253
 5149POPC   C3B 5277   8.258  31.215   7.953
 5149POPC   C4B 5278   8.266  31.180   7.653
 5150POPC   NC3 5279  26.839  29.923   9.453
 5150POPC   PO4 5280  26.822  29.938   9.153
 5150POPC   GL1 5281  26.804  29.872   8.853
 5150POPC   GL2 5282  26.896  29.869   8.853
 5150POPC   C1A 5283  26.843  29.929   8.553
 5150POPC   D2A 5284  26.829  29.875   8.253
 5150POPC   C3A 5285  26.814  29.963   7.953
 5150POPC   C4A 5286  26.846  29.916   7.653
 5150POPC   C1B 5287  27.022  29.903   8.553
 5150POPC   C2B 5288  27.059  29.877   8.253
 5150POPC   C3B 5289  27.090  29.889   7.953
 5150POPC   C4B 5290  27.085  29.855   7.653
 5151POPC   NC3 5291   7.461  34.606   9.453
 5151POPC   PO4 5292   7.371  34.602   9.153
 5151POPC   GL1 5293   7.435  34.555   8.853
 5151POPC   GL2 5294   7.274  34.618   8.853
 5151POPC   C1A 5295   7.408  34.575   8.553
 5151POPC   D2A 5296   7.445  34.557   8.253
 5151POPC   C3A 5297   7.412  34.544   7.953
 5151POPC   C4A 5298   7.384  34.550   7.653
 5151POPC   C1B 5299   7.228  34.688   8.553
 5151POPC   C2B 5300   7.227  34.704   8.253
 5151POPC   C3B 5301   7.208  34.706   7.953
 5151POPC   C4B 5302   7.238  34.697   7.653
 5152POPC   NC3 5303  32.250   6.632   9.453
 5152POPC   PO4 5304  32.278   6.630   9.153
 5152POPC   GL1 5305  32.291   6.686   8.853
 5152POPC   GL2 5306  32.138   6.563   8.853
 5152POPC   C1A 5307  32.203   6.603   8.553
 5152POPC   D2A 5308  32.269   6.616   8.253
 5152POPC   C3A 5309  32.281   6.678   7.953
 5152POPC   C4A 5310  32.234   6.689   7.653
 5152POPC   C1B 5311  32.098   6.426   8.553
 5152POPC   C2B 5312  32.064   6.462   8.253
 5152POPC   C3B 5313  32.060   6.475   7.953
 5152POPC   C4B 5314  32.067   6.413   7.653
 5153POPC   NC3 5315  25.289  39.252   9.453
 5153POPC   PO4 5316  25.282  39.277   9.153
 5153POPC   GL1 5317  25.234  39.193   8.853
 5153POPC   GL2 5318  25.347  39.303   8.853
 5153POPC   C1A 5319  25.298  39.218   8.553
 5153POPC   D2A 5320  25.281  39.245   8.253
 5153POPC   C3A 5321  25.312  39.224   7.953
 5153POPC   C4A 5322  25.276  39.196   7.653
 5153POPC   C1B 5323  25.464  39.398   8.553
 5153POPC   C2B 5324  25.462  39.434   8.253
 5153POPC   C3B 5325  25.436  39.420   7.953
 5153POPC   C4B 5326  25.408  39.416   7.653
 5154POPC   NC3 5327  24.512  43.927   9.453
 5154POPC   PO4 5328  24.495  43.913   9.153
 5154POPC   GL1 5329  24.491  43.906   8.853
 5154POPC   GL2 5330  24.492  43.962   8.853
 5154POPC   C1A 5331  24.522  43.917   8.553
 5154POPC   D2A 5332  24.517  43.888   8.253
 5154POPC   C3A 5333  24.532  43.866   7.953
 5154POPC   C4A 5334  24.440  43.857   7.653
 5154POPC   C1B 5335  24.577  44.145   8.553
 5154POPC   C2B 5336  24.561  44.135   8.253
 5154POPC   C3B 5337  24.611  44.085   7.953
 5154POPC   C4B 5338  24.528  44.165   7.653
 5155POPC   NC3 5339  11.302   6.633   9.453
 5155POPC   PO4 5340  11.262   6.647   9.153
 5155POPC   GL1 5341  11.339   6.603   8.853
 5155POPC   GL2 5342  11.224   6.711   8.853
 5155POPC   C1A 5343  11.251   6.695   8.553
 5155POPC   D2A 5344  11.272   6.639   8.253
 5155POPC   C3A 5345  11.347   6.620   7.953
 5155POPC   C4A 5346  11.298   6.671   7.653
 5155POPC   C1B 5347  11.071   6.694   8.553
 5155POPC   C2B 5348  11.012   6.680   8.253
 5155POPC   C3B 5349  11.062   6.672   7.953
 5155POPC   C4B 5350  11.026   6.645   7.653
 5156POPC   NC3 5351  26.081  20.593   9.453
 5156POPC   PO4 5352  26.064  20.567   9.153
 5156POPC   GL1 5353  26.033  20.635   8.853
 5156POPC   GL2 5354  26.040  20.540   8.853
 5156POPC   C1A 5355  26.020  20.569   8.553
 5156POPC   D2A 5356  26.013  20.590   8.253
 5156POPC   C3A 5357  26.044  20.598   7.953
 5156POPC   C4A 5358  25.998  20.587   7.653
 5156POPC   C1B 5359  26.125  20.372   8.553
 5156POPC   C2B 5360  26.136  20.402   8.253
 5156POPC   C3B 5361  26.117  20.367   7.953
 5156POPC   C4B 5362  26.099  20.335   7.653
 5157POPC   NC3 5363  39.182  38.500   9.453
 5157POPC   PO4 5364  39.216  38.471   9.153
 5157POPC   GL1 5365  39.216  38.420   8.853
 5157POPC   GL2 5366  39.137  38.427   8.853
 5157POPC   C1A 5367  39.226  38.480   8.553
 5157POPC   D2A 5368  39.226  38.495   8.253
 5157POPC   C3A 5369  39.238  38.470   7.953
 5157POPC   C4A 5370  39.254  38.423   7.653
 5157POPC   C1B 5371  38.941  38.378   8.553
 5157POPC   C2B 5372  38.946  38.424   8.253
 5157POPC   C3B 5373  38.991  38.447   7.953
 5157POPC   C4B 5374  38.959  38.430   7.653
 5158POPC   NC3 5375  19.011  38.471   9.453
 5158POPC   PO4 5376  19.057  38.486   9.153
 5158POPC   GL1 5377  19.040  38.441   8.853
 5158POPC   GL2 5378  19.055  38.346   8.853
 5158POPC   C1A 5379  19.062  38.458   8.553
 5158POPC   D2A 5380  19.087  38.481   8.253
 5158POPC   C3A 5381  19.091  38.472   7.953
 5158POPC   C4A 5382  19.089  38.417   7.653
 5158POPC   C1B 5383  19.145  38.229   8.553
 5158POPC   C2B 5384  19.111  38.229   8.253
 5158POPC   C3B 5385  19.145  38.185   7.953
 5158POPC   C4B 5386  19.145  38.233   7.653
 5159POPC   NC3 5387  43.114  22.967   9.453
 5159POPC   PO4 5388  43.123  22.930   9.153
 5159POPC   GL1 5389  43.111  22.893   8.853
 5159POPC   GL2 5390  43.056  22.816   8.853
 5159POPC   C1A 5391  43.079  22.973   8.553
 5159POPC   D2A 5392  43.128  22.916   8.253
 5159POPC   C3A 5393  43.151  22.897   7.953
 5159POPC   C4A 5394  43.152  22.891   7.653
 5159POPC   C1B 5395  43.029  22.664   8.553
 5159POPC   C2B 5396  43.055  22.656   8.253
 5159POPC   C3B 5397  43.000  22.694   7.953
 5159POPC   C4B 5398  43.061  22.681   7.653
 5160POPC   NC3 5399  38.460   8.967   9.453
 5160POPC   PO4 5400  38.490   8.993   9.153
 5160POPC   GL1 5401  38.411   9.020   8.853
 5160POPC   GL2 5402  38.529   9.012   8.853
 5160POPC   C1A 5403  38.412   8.991   8.553
 5160POPC   D2A 5404  38.480   8.928   8.253
 5160POPC   C3A 5405  38.447   8.979   7.953
 5160POPC   C4A 5406  38.480   8.950   7.653
 5160POPC   C1B 5407  38.663   9.056   8.553
 5160POPC   C2B 5408  38.709   9.059   8.253
 5160POPC   C3B 5409  38.689   8.986   7.953
 5160POPC   C4B 5410  38.716   9.012   7.653
 5161POPC   NC3 5411   8.923  29.960   9.453
 5161POPC   PO4 5412   8.971  29.950   9.153
 5161POPC   GL1 5413   8.960  29.918   8.853
 5161POPC   GL2 5414   9.014  30.007   8.853
 5161POPC   C1A 5415   8.970  29.966   8.553
 5161POPC   D2A 5416   8.931  29.874   8.253
 5161POPC   C3A 5417   8.949  29.909   7.953
 5161POPC   C4A 5418   8.934  29.872   7.653
 5161POPC   C1B 5419   9.004  30.152   8.553
 5161POPC   C2B 5420   8.994  30.121   8.253
 5161POPC   C3B 5421   8.954  30.137   7.953
 5161POPC   C4B 5422   9.014  30.120   7.653
 5162POPC   NC3 5423  36.873  44.708   9.453
 5162POPC   PO4 5424  36.950  44.709   9.153
 5162POPC   GL1 5425  36.897  44.702   8.853
 5162POPC   GL2 5426  36.917  44.756   8.853
 5162POPC   C1A 5427  36.872  44.661   8.553
 5162POPC   D2A 5428  36.890  44.658   8.253
 5162POPC   C3A 5429  36.887  44.639   7.953
 5162POPC   C4A 5430  36.882  44.650   7.653
 5162POPC   C1B 5431  37.032  44.908   8.553
 5162POPC   C2B 5432  37.018  44.844   8.253
 5162POPC   C3B 5433  36.967  44.877   7.953
 5162POPC   C4B 5434  36.993  44.892   7.653
 5163POPC   NC3 5435  39.995  36.893   9.453
 5163POPC   PO4 5436  40.044  36.909   9.153
 5163POPC   GL1 5437  39.962  36.869   8.853
 5163POPC   GL2 5438  40.086  36.826   8.853
 5163POPC   C1A 5439  40.044  36.917   8.553
 5163POPC   D2A 5440  40.000  36.931   8.253
 5163POPC   C3A 5441  39.971  36.941   7.953
 5163POPC   C4A 5442  40.056  36.858   7.653
 5163POPC   C1B 5443  40.231  36.823   8.553
 5163POPC   C2B 5444  40.252  36.780   8.253
 5163POPC   C3B 5445  40.202  36.776   7.953
 5163POPC   C4B 5446  40.234  36.810   7.653
 5164POPC   NC3 5447  15.171  17.489   9.453
 5164POPC   PO4 5448  15.202  17.500   9.153
 5164POPC   GL1 5449  15.207  17.553   8.853
 5164POPC   GL2 5450  15.061  17.581   8.853
 5164POPC   C1A 5451  15.145  17.513   8.553
 5164POPC   D2A 5452  15.155  17.547   8.253
 5164POPC   C3A 5453  15.184  17.490   7.953
 5164POPC   C4A 5454  15.221  17.550   7.653
 5164POPC   C1B 5455  14.986  17.659   8.553
 5164POPC   C2B 5456  15.024  17.643   8.253
 5164POPC   C3B 5457  14.968  17.684   7.953
 5164POPC   C4B 5458  14.983  17.614   7.653
 5165POPC   NC3 5459   3.564  37.699   9.453
 5165POPC   PO4 5460   3.502  37.687   9.153
 5165POPC   GL1 5461   3.513  37.649   8.853
 5165POPC   GL2 5462   3.508  37.767   8.853
 5165POPC   C1A 5463   3.511  37.712   8.553
 5165POPC   D2A 5464   3.557  37.663   8.253
 5165POPC   C3A 5465   3.548  37.663   7.953
 5165POPC   C4A 5466   3.559  37.682   7.653
 5165POPC   C1B 5467   3.477  37.893   8.553
 5165POPC   C2B 5468   3.471  37.924   8.253
 5165POPC   C3B 5469   3.539  37.948   7.953
 5165POPC   C4B 5470   3.505  37.887   7.653
 5166POPC   NC3 5471  28.348  21.382   9.453
 5166POPC   PO4 5472  28.359  21.364   9.153
 5166POPC   GL1 5473  28.333  21.399   8.853
 5166POPC   GL2 5474  28.468  21.544   8.853
 5166POPC   C1A 5475  28.342  21.365   8.553
 5166POPC   D2A 5476  28.365  21.384   8.253
 5166POPC   C3A 5477  28.334  21.361   7.953
 5166POPC   C4A 5478  28.371  21.348   7.653
 5166POPC   C1B 5479  28.512  21.637   8.553
 5166POPC   C2B 5480  28.447  21.655   8.253
 5166POPC   C3B 5481  28.531  21.614   7.953
 5166POPC   C4B 5482  28.504  21.581   7.653
 5167POPC   NC3 5483  39.227  18.332   9.453
 5167POPC   PO4 5484  39.239  18.277   9.153
 5167POPC   GL1 5485  39.273  18.317   8.853
 5167POPC   GL2 5486  39.261  18.404   8.853
 5167POPC   C1A 5487  39.242  18.308   8.553
 5167POPC   D2A 5488  39.258  18.328   8.253
 5167POPC   C3A 5489  39.258  18.296   7.953
 5167POPC   C4A 5490  39.228  18.307   7.653
 5167POPC   C1B 5491  39.240  18.524   8.553
 5167POPC   C2B 5492  39.222  18.503   8.253
 5167POPC   C3B 5493  39.225  18.513   7.953
 5167POPC   C4B 5494  39.206  18.552   7.653
 5168POPC   NC3 5495  12.049  10.571   9.453
 5168POPC   PO4 5496  12.089  10.496   9.153
 5168POPC   GL1 5497  12.095  10.542   8.853
 5168POPC   GL2 5498  11.979  10.419   8.853
 5168POPC   C1A 5499  12.054  10.497   8.553
 5168POPC   D2A 5500  12.057  10.549   8.253
 5168POPC   C3A 5501  12.074  10.522   7.953
 5168POPC   C4A 5502  12.093  10.482   7.653
 5168POPC   C1B 5503  11.961  10.354   8.553
 5168POPC   C2B 5504  11.911  10.296   8.253
 5168POPC   C3B 5505  11.922  10.339   7.953
 5168POPC   C4B 5506  11.975  10.369   7.653
 5169POPC   NC3 5507  43.095  26.841   9.453
 5169POPC   PO4 5508  43.093  26.805   9.153
 5169POPC   GL1 5509  43.069  26.817   8.853
 5169POPC   GL2 5510  43.262  26.748   8.853
 5169POPC   C1A 5511  43.061  26.778   8.553
 5169POPC   D2A 5512  43.074  26.809   8.253
 5169POPC   C3A 5513  43.117  26.849   7.953
 5169POPC   C4A 5514  43.155  26.777   7.653
 5169POPC   C1B 5515  43.339  26.768   8.553
 5169POPC   C2B 5516  43.300  26.692   8.253
 5169POPC   C3B 5517  43.370  26.726   7.953
 5169POPC   C4B 5518  43.303  26.729   7.653
 5170POPC   NC3 5519  14.403  16.003   9.453
 5170POPC   PO4 5520  14.365  15.932   9.153
 5170POPC   GL1 5521  14.372  15.907   8.853
 5170POPC   GL2 5522  14.503  15.948   8.853
 5170POPC   C1A 5523  14.393  15.972   8.553
 5170POPC   D2A 5524  14.414  15.952   8.253
 5170POPC   C3A 5525  14.415  15.911   7.953
 5170POPC   C4A 5526  14.408  15.929   7.653
 5170POPC   C1B 5527  14.636  15.974   8.553
 5170POPC   C2B 5528  14.661  15.996   8.253
 5170POPC   C3B 5529  14.636  15.954   7.953
 5170POPC   C4B 5530  14.642  15.991   7.653
 5171POPC   NC3 5531  32.987  39.249   9.453
 5171POPC   PO4 5532  32.981  39.236   9.153
 5171POPC   GL1 5533  33.017  39.210   8.853
 5171POPC   GL2 5534  33.099  39.230   8.853
 5171POPC   C1A 5535  33.023  39.263   8.553
 5171POPC   D2A 5536  33.037  39.214   8.253
 5171POPC   C3A 5537  33.014  39.237   7.953
 5171POPC   C4A 5538  33.036  39.232   7.653
 5171POPC   C1B 5539  33.295  39.296   8.553
 5171POPC   C2B 5540  33.251  39.308   8.253
 5171POPC   C3B 5541  33.228  39.305   7.953
 5171POPC   C4B 5542  33.286  39.298   7.653
 5172POPC   NC3 5543  36.931  38.447   9.453
 5172POPC   PO4 5544  36.953  38.505   9.153
 5172POPC   GL1 5545  36.919  38.437   8.853
 5172POPC   GL2 5546  36.759  38.422   8.853
 5172POPC   C1A 5547  36.879  38.487   8.553
 5172POPC   D2A 5548  36.868  38.438   8.253
 5172POPC   C3A 5549  36.886  38.480   7.953
 5172POPC   C4A 5550  36.887  38.498   7.653
 5172POPC   C1B 5551  36.663  38.465   8.553
 5172POPC   C2B 5552  36.660  38.445   8.253
 5172POPC   C3B 5553  36.696  38.467   7.953
 5172POPC   C4B 5554  36.643  38.413   7.653
 5173POPC   NC3 5555  13.588   3.549   9.453
 5173POPC   PO4 5556  13.623   3.585   9.153
 5173POPC   GL1 5557  13.664   3.504   8.853
 5173POPC   GL2 5558  13.745   3.501   8.853
 5173POPC   C1A 5559  13.644   3.586   8.553
 5173POPC   D2A 5560  13.578   3.561   8.253
 5173POPC   C3A 5561  13.582   3.558   7.953
 5173POPC   C4A 5562  13.627   3.524   7.653
 5173POPC   C1B 5563  13.837   3.431   8.553
 5173POPC   C2B 5564  13.839   3.396   8.253
 5173POPC   C3B 5565  13.837   3.382   7.953
 5173POPC   C4B 5566  13.883   3.392   7.653
 5174POPC   NC3 5567  28.384  33.801   9.453
 5174POPC   PO4 5568  28.362  33.849   9.153
 5174POPC   GL1 5569  28.371  33.805   8.853
 5174POPC   GL2 5570  28.415  33.876   8.853
 5174POPC   C1A 5571  28.369  33.754   8.553
 5174POPC   D2A 5572  28.321  33.833   8.253
 5174POPC   C3A 5573  28.355  33.829   7.953
 5174POPC   C4A 5574  28.369  33.783   7.653
 5174POPC   C1B 5575  28.422  34.024   8.553
 5174POPC   C2B 5576  28.378  33.998   8.253
 5174POPC   C3B 5577  28.411  34.056   7.953
 5174POPC   C4B 5578  28.385  34.038   7.653
 5175POPC   NC3 5579  15.141  12.051   9.453
 5175POPC   PO4 5580  15.184  12.110   9.153
 5175POPC   GL1 5581  15.186  12.076   8.853
 5175POPC   GL2 5582  15.042  12.032   8.853
 5175POPC   C1A 5583  15.225  12.051   8.553
 5175POPC   D2A 5584  15.227  12.099   8.253
 5175POPC   C3A 5585  15.190  12.053   7.953
 5175POPC   C4A 5586  15.213  12.086   7.653
 5175POPC   C1B 5587  14.999  11.866   8.553
 5175POPC   C2B 5588  14.970  11.867   8.253
 5175POPC   C3B 5589  15.004  11.905   7.953
 5175POPC   C4B 5590  15.018  11.935   7.653
 5176POPC   NC3 5591   8.211  10.493   9.453
 5176POPC   PO4 5592   8.215  10.516   9.153
 5176POPC   GL1 5593   8.246  10.560   8.853
 5176POPC   GL2 5594   8.198  10.453   8.853
 5176POPC   C1A 5595   8.192  10.554   8.553
 5176POPC   D2A 5596   8.195  10.500   8.253
 5176POPC   C3A 5597   8.241  10.559   7.953
 5176POPC   C4A 5598   8.209  10.531   7.653
 5176POPC   C1B 5599   8.324  10.305   8.553
 5176POPC   C2B 5600   8.264  10.341   8.253
 5176POPC   C3B 5601   8.264  10.308   7.953
 5176POPC   C4B 5602   8.248  10.295   7.653
 5177POPC   NC3 5603   9.790  36.161   9.453
 5177POPC   PO4 5604   9.718  36.079   9.153
 5177POPC   GL1 5605   9.733  36.092   8.853
 5177POPC   GL2 5606   9.637  36.180   8.853
 5177POPC   C1A 5607   9.749  36.125   8.553
 5177POPC   D2A 5608   9.728  36.099   8.253
 5177POPC   C3A 5609   9.747  36.153   7.953
 5177POPC   C4A 5610   9.756  36.145   7.653
 5177POPC   C1B 5611   9.591  36.265   8.553
 5177POPC   C2B 5612   9.539  36.276   8.253
 5177POPC   C3B 5613   9.554  36.272   7.953
 5177POPC   C4B 5614   9.550  36.294   7.653
 5178POPC   NC3 5615   1.262  22.152   9.453
 5178POPC   PO4 5616   1.202  22.130   9.153
 5178POPC   GL1 5617   1.205  22.193   8.853
 5178POPC   GL2 5618   1.305  22.235   8.853
 5178POPC   C1A 5619   1.190  22.137   8.553
 5178POPC   D2A 5620   1.247  22.119   8.253
 5178POPC   C3A 5621   1.177  22.194   7.953
 5178POPC   C4A 5622   1.192  22.175   7.653
 5178POPC   C1B 5623   1.415  22.222   8.553
 5178POPC   C2B 5624   1.469  22.240   8.253
 5178POPC   C3B 5625   1.404  22.275   7.953
 5178POPC   C4B 5626   1.482  22.210   7.653
 5179POPC   NC3 5627  23.744   1.200   9.453
 5179POPC   PO4 5628  23.695   1.176   9.153
 5179POPC   GL1 5629  23.700   1.178   8.853
 5179POPC   GL2 5630  23.607   1.306   8.853
 5179POPC   C1A 5631  23.690   1.188   8.553
 5179POPC   D2A 5632  23.730   1.213   8.253
 5179POPC   C3A 5633  23.702   1.168   7.953
 5179POPC   C4A 5634  23.695   1.184   7.653
 5179POPC   C1B 5635  23.583   1.466   8.553
 5179POPC   C2B 5636  23.592   1.430   8.253
 5179POPC   C3B 5637  23.604   1.444   7.953
 5179POPC   C4B 5638  23.613   1.469   7.653
 5180POPC   NC3 5639  26.825  19.788   9.453
 5180POPC   PO4 5640  26.827  19.868   9.153
 5180POPC   GL1 5641  26.800  19.801   8.853
 5180POPC   GL2 5642  26.811  19.693   8.853
 5180POPC   C1A 5643  26.789  19.866   8.553
 5180POPC   D2A 5644  26.847  19.873   8.253
 5180POPC   C3A 5645  26.822  19.838   7.953
 5180POPC   C4A 5646  26.799  19.839   7.653
 5180POPC   C1B 5647  26.857  19.629   8.553
 5180POPC   C2B 5648  26.770  19.618   8.253
 5180POPC   C3B 5649  26.856  19.570   7.953
 5180POPC   C4B 5650  26.805  19.621   7.653
 5181POPC   NC3 5651   9.755  13.578   9.453
 5181POPC   PO4 5652   9.699  13.631   9.153
 5181POPC   GL1 5653   9.738  13.607   8.853
 5181POPC   GL2 5654   9.757  13.546   8.853
 5181POPC   C1A 5655   9.702  13.597   8.553
 5181POPC   D2A 5656   9.771  13.643   8.253
 5181POPC   C3A 5657   9.733  13.649   7.953
 5181POPC   C4A 5658   9.746  13.643   7.653
 5181POPC   C1B 5659   9.701  13.373   8.553
 5181POPC   C2B 5660   9.763  13.368   8.253
 5181POPC   C3B 5661   9.711  13.336   7.953
 5181POPC   C4B 5662   9.665  13.369   7.653
 5182POPC   NC3 5663  44.621  19.873   9.453
 5182POPC   PO4 5664  44.711  19.821   9.153
 5182POPC   GL1 5665  44.697  19.812   8.853
 5182POPC   GL2 5666  44.741  19.948   8.853
 5182POPC   C1A 5667  44.704  19.835   8.553
 5182POPC   D2A 5668  44.613  19.860   8.253
 5182POPC   C3A 5669  44.622  19.884   7.953
 5182POPC   C4A 5670  44.662  19.856   7.653
 5182POPC   C1B 5671  44.873  20.040   8.553
 5182POPC   C2B 5672  44.816  20.053   8.253
 5182POPC   C3B 5673  44.791  19.992   7.953
 5182POPC   C4B 5674  44.832  19.983   7.653
 5183POPC   NC3 5675  29.967  29.112   9.453
 5183POPC   PO4 5676  29.931  29.097   9.153
 5183POPC   GL1 5677  29.890  29.137   8.853
 5183POPC   GL2 5678  29.826  29.226   8.853
 5183POPC   C1A 5679  29.924  29.156   8.553
 5183POPC   D2A 5680  29.946  29.171   8.253
 5183POPC   C3A 5681  29.884  29.192   7.953
 5183POPC   C4A 5682  29.966  29.152   7.653
 5183POPC   C1B 5683  29.724  29.292   8.553
 5183POPC   C2B 5684  29.709  29.271   8.253
 5183POPC   C3B 5685  29.737  29.235   7.953
 5183POPC   C4B 5686  29.687  29.250   7.653
 5184POPC   NC3 5687  19.106  44.650   9.453
 5184POPC   PO4 5688  19.082  44.640   9.153
 5184POPC   GL1 5689  19.031  44.634   8.853
 5184POPC   GL2 5690  19.103  44.789   8.853
 5184POPC   C1A 5691  19.098  44.709   8.553
 5184POPC   D2A 5692  19.089  44.662   8.253
 5184POPC   C3A 5693  19.075  44.653   7.953
 5184POPC   C4A 5694  19.105  44.658   7.653
 5184POPC   C1B 5695  19.161  44.874   8.553
 5184POPC   C2B 5696  19.148  44.949   8.253
 5184POPC   C3B 5697  19.083  44.940   7.953
 5184POPC   C4B 5698  19.093  44.897   7.653
 5185POPC   NC3 5699  31.517  21.372   9.453
 5185POPC   PO4 5700  31.486  21.421   9.153
 5185POPC   GL1 5701  31.462  21.430   8.853
 5185POPC   GL2 5702  31.486  21.548   8.853
 5185POPC   C1A 5703  31.453  21.423   8.553
 5185POPC   D2A 5704  31.473  21.396   8.253
 5185POPC   C3A 5705  31.519  21.376   7.953
 5185POPC   C4A 5706  31.507  21.404   7.653
 5185POPC   C1B 5707  31.436  21.637   8.553
 5185POPC   C2B 5708  31.454  21.669   8.253
 5185POPC   C3B 5709  31.470  21.654   7.953
 5185POPC   C4B 5710  31.464  21.674   7.653
 5186POPC   NC3 5711  44.690  26.062   9.453
 5186POPC   PO4 5712  44.696  26.048   9.153
 5186POPC   GL1 5713  44.632  26.001   8.853
 5186POPC   GL2 5714  44.531  26.002   8.853
 5186POPC   C1A 5715  44.620  26.000   8.553
 5186POPC   D2A 5716  44.685  26.044   8.253
 5186POPC   C3A 5717  44.622  26.002   7.953
 5186POPC   C4A 5718  44.683  26.026   7.653
 5186POPC   C1B 5719  44.364  26.038   8.553
 5186POPC   C2B 5720  44.375  26.049   8.253
 5186POPC   C3B 5721  44.428  26.065   7.953
 5186POPC   C4B 5722  44.373  26.078   7.653
 5187POPC   NC3 5723   5.864  32.273   9.453
 5187POPC   PO4 5724   5.895  32.229   9.153
 5187POPC   GL1 5725   5.899  32.255   8.853
 5187POPC   GL2 5726   5.771  32.291   8.853
 5187POPC   C1A 5727   5.826  32.270   8.553
 5187POPC   D2A 5728   5.850  32.282   8.253
 5187POPC   C3A 5729   5.857  32.253   7.953
 5187POPC   C4A 5730   5.848  32.213   7.653
 5187POPC   C1B 5731   5.676  32.355   8.553
 5187POPC   C2B 5732   5.637  32.444   8.253
 5187POPC   C3B 5733   5.706  32.375   7.953
 5187POPC   C4B 5734   5.617  32.361   7.653
 5188POPC   NC3 5735  21.353  34.593   9.453
 5188POPC   PO4 5736  21.386  34.526   9.153
 5188POPC   GL1 5737  21.426  34.572   8.853
 5188POPC   GL2 5738  21.503  34.540   8.853
 5188POPC   C1A 5739  21.400  34.602   8.553
 5188POPC   D2A 5740  21.379  34.583   8.253
 5188POPC   C3A 5741  21.381  34.618   7.953
 5188POPC   C4A 5742  21.425  34.578   7.653
 5188POPC   C1B 5743  21.675  34.568   8.553
 5188POPC   C2B 5744  21.593  34.499   8.253
 5188POPC   C3B 5745  21.681  34.524   7.953
 5188POPC   C4B 5746  21.632  34.519   7.653
 5189POPC   NC3 5747  35.324   9.015   9.453
 5189POPC   PO4 5748  35.371   8.931   9.153
 5189POPC   GL1 5749  35.348   8.957   8.853
 5189POPC   GL2 5750  35.259   9.115   8.853
 5189POPC   C1A 5751  35.317   8.960   8.553
 5189POPC   D2A 5752  35.376   8.970   8.253
 5189POPC   C3A 5753  35.329   8.960   7.953
 5189POPC   C4A 5754  35.365   8.966   7.653
 5189POPC   C1B 5755  35.216   9.214   8.553
 5189POPC   C2B 5756  35.228   9.162   8.253
 5189POPC   C3B 5757  35.158   9.128   7.953
 5189POPC   C4B 5758  35.201   9.181   7.653
 5190POPC   NC3 5759  40.034   6.643   9.453
 5190POPC   PO4 5760  40.006   6.595   9.153
 5190POPC   GL1 5761  40.040   6.630   8.853
 5190POPC   GL2 5762  40.068   6.478   8.853
 5190POPC   C1A 5763  39.988   6.674   8.553
 5190POPC   D2A 5764  40.031   6.650   8.253
 5190POPC   C3A 5765  39.991   6.595   7.953
 5190POPC   C4A 5766  39.973   6.664   7.653
 5190POPC   C1B 5767  40.024   6.437   8.553
 5190POPC   C2B 5768  40.024   6.352   8.253
 5190POPC   C3B 5769  40.092   6.437   7.953
 5190POPC   C4B 5770  40.091   6.419   7.653
 5191POPC   NC3 5771  32.978  37.726   9.453
 5191POPC   PO4 5772  32.998  37.713   9.153
 5191POPC   GL1 5773  32.979  37.636   8.853
 5191POPC   GL2 5774  33.134  37.652   8.853
 5191POPC   C1A 5775  32.999  37.712   8.553
 5191POPC   D2A 5776  33.055  37.668   8.253
 5191POPC   C3A 5777  33.046  37.655   7.953
 5191POPC   C4A 5778  32.983  37.637   7.653
 5191POPC   C1B 5779  33.245  37.641   8.553
 5191POPC   C2B 5780  33.240  37.637   8.253
 5191POPC   C3B 5781  33.228  37.689   7.953
 5191POPC   C4B 5782  33.287  37.678   7.653
 5192POPC   NC3 5783  22.903  36.895   9.453
 5192POPC   PO4 5784  22.902  36.945   9.153
 5192POPC   GL1 5785  22.931  36.875   8.853
 5192POPC   GL2 5786  22.882  36.937   8.853
 5192POPC   C1A 5787  22.956  36.946   8.553
 5192POPC   D2A 5788  22.966  36.873   8.253
 5192POPC   C3A 5789  22.961  36.936   7.953
 5192POPC   C4A 5790  22.919  36.886   7.653
 5192POPC   C1B 5791  22.778  37.064   8.553
 5192POPC   C2B 5792  22.702  37.077   8.253
 5192POPC   C3B 5793  22.757  37.041   7.953
 5192POPC   C4B 5794  22.716  37.067   7.653
 5193POPC   NC3 5795  44.700  36.917   9.453
 5193POPC   PO4 5796  44.674  36.941   9.153
 5193POPC   GL1 5797  44.634  36.870   8.853
 5193POPC   GL2 5798  44.716  36.957   8.853
 5193POPC   C1A 5799  44.701  36.874   8.553
 5193POPC   D2A 5800  44.696  36.888   8.253
 5193POPC   C3A 5801  44.710  36.877   7.953
 5193POPC   C4A 5802  44.689  36.919   7.653
 5193POPC   C1B 5803  44.796  37.041   8.553
 5193POPC   C2B 5804  44.876  37.110   8.253
 5193POPC   C3B 5805  44.881  37.079   7.953
 5193POPC   C4B 5806  44.832  37.071   7.653
 5194POPC   NC3 5807  13.667  28.362   9.453
 5194POPC   PO4 5808  13.583  28.339   9.153
 5194POPC   GL1 5809  13.663  28.328   8.853
 5194POPC   GL2 5810  13.640  28.485   8.853
 5194POPC   C1A 5811  13.605  28.418   8.553
 5194POPC   D2A 5812  13.674  28.385   8.253
 5194POPC   C3A 5813  13.590  28.408   7.953
 5194POPC   C4A 5814  13.619  28.353   7.653
 5194POPC   C1B 5815  13.609  28.586   8.553
 5194POPC   C2B 5816  13.644  28.607   8.253
 5194POPC   C3B 5817  13.589  28.572   7.953
 5194POPC   C4B 5818  13.607  28.664   7.653
 5195POPC   NC3 5819  27.579   1.971   9.453
 5195POPC   PO4 5820  27.561   1.986   9.153
 5195POPC   GL1 5821  27.641   2.037   8.853
 5195POPC   GL2 5822  27.684   2.021   8.853
 5195POPC   C1A 5823  27.624   2.001   8.553
 5195POPC   D2A 5824  27.630   2.007   8.253
 5195POPC   C3A 5825  27.597   1.956   7.953
 5195POPC   C4A 5826  27.636   1.993   7.653
 5195POPC   C1B 5827  27.881   2.080   8.553
 5195POPC   C2B 5828  27.800   2.012   8.253
 5195POPC   C3B 5829  27.812   2.042   7.953
 5195POPC   C4B 5830  27.790   2.079   7.653
 5196POPC   NC3 5831  42.355  29.174   9.453
 5196POPC   PO4 5832  42.350  29.175   9.153
 5196POPC   GL1 5833  42.384  29.128   8.853
 5196POPC   GL2 5834  42.456  29.023   8.853
 5196POPC   C1A 5835  42.313  29.104   8.553
 5196POPC   D2A 5836  42.307  29.101   8.253
 5196POPC   C3A 5837  42.341  29.159   7.953
 5196POPC   C4A 5838  42.355  29.095   7.653
 5196POPC   C1B 5839  42.544  28.951   8.553
 5196POPC   C2B 5840  42.518  29.003   8.253
 5196POPC   C3B 5841  42.545  28.985   7.953
 5196POPC   C4B 5842  42.557  28.973   7.653
 5197POPC   NC3 5843  44.635  43.154   9.453
 5197POPC   PO4 5844  44.641  43.154   9.153
 5197POPC   GL1 5845  44.699  43.129   8.853
 5197POPC   GL2 5846  44.658  43.000   8.853
 5197POPC   C1A 5847  44.652  43.074   8.553
 5197POPC   D2A 5848  44.639  43.083   8.253
 5197POPC   C3A 5849  44.622  43.074   7.953
 5197POPC   C4A 5850  44.634  43.130   7.653
 5197POPC   C1B 5851  44.561  42.864   8.553
 5197POPC   C2B 5852  44.515  42.902   8.253
 5197POPC   C3B 5853  44.592  42.847   7.953
 5197POPC   C4B 5854  44.537  42.876   7.653
 5198POPC   NC3 5855   8.181  26.039   9.453
 5198POPC   PO4 5856   8.196  26.004   9.153
 5198POPC   GL1 5857   8.227  26.046   8.853
 5198POPC   GL2 5858   8.108  26.002   8.853
 5198POPC   C1A 5859   8.206  26.044   8.553
 5198POPC   D2A 5860   8.182  26.049   8.253
 5198POPC   C3A 5861   8.247  26.080   7.953
 5198POPC   C4A 5862   8.238  25.995   7.653
 5198POPC   C1B 5863   7.983  25.900   8.553
 5198POPC   C2B 5864   7.968  25.866   8.253
 5198POPC   C3B 5865   8.044  25.876   7.953
 5198POPC   C4B 5866   7.983  25.889   7.653
 5199POPC   NC3 5867   1.994  11.335   9.453
 5199POPC   PO4 5868   1.985  11.285   9.153
 5199POPC   GL1 5869   2.011  11.326   8.853
 5199POPC   GL2 5870   2.162  11.321   8.853
 5199POPC   C1A 5871   2.017  11.284   8.553
 5199POPC   D2A 5872   2.008  11.305   8.253
 5199POPC   C3A 5873   1.963  11.349   7.953
 5199POPC   C4A 5874   2.034  11.270   7.653
 5199POPC   C1B 5875   2.201  11.370   8.553
 5199POPC   C2B 5876   2.269  11.333   8.253
 5199POPC   C3B 5877   2.192  11.324   7.953
 5199POPC   C4B 5878   2.195  11.384   7.653
 5200POPC   NC3 5879  11.273  21.342   9.453
 5200POPC   PO4 5880  11.343  21.345   9.153
 5200POPC   GL1 5881  11.336  21.352   8.853
 5200POPC   GL2 5882  11.204  21.344   8.853
 5200POPC   C1A 5883  11.344  21.377   8.553
 5200POPC   D2A 5884  11.301  21.384   8.253
 5200POPC   C3A 5885  11.274  21.353   7.953
 5200POPC   C4A 5886  11.313  21.342   7.653
 5200POPC   C1B 5887  11.101  21.322   8.553
 5200POPC   C2B 5888  11.055  21.346   8.253
 5200POPC   C3B 5889  11.049  21.327   7.953
 5200POPC   C4B 5890  11.102  21.376   7.653
 5201POPC   NC3 5891   2.022  27.546   9.453
 5201POPC   PO4 5892   1.969  27.634   9.153
 5201POPC   GL1 5893   1.971  27.595   8.853
 5201POPC   GL2 5894   1.925  27.657   8.853
 5201POPC   C1A 5895   2.001  27.592   8.553
 5201POPC   D2A 5896   2.020  27.639   8.253
 5201POPC   C3A 5897   1.962  27.560   7.953
 5201POPC   C4A 5898   2.034  27.571   7.653
 5201POPC   C1B 5899   1.810  27.784   8.553
 5201POPC   C2B 5900   1.815  27.766   8.253
 5201POPC   C3B 5901   1.809  27.778   7.953
 5201POPC   C4B 5902   1.771  27.718   7.653
 5202POPC   NC3 5903  42.322  37.648   9.453
 5202POPC   PO4 5904  42.336  37.681   9.153
 5202POPC   GL1 5905  42.340  37.688   8.853
 5202POPC   GL2 5906  42.241  37.610   8.853
 5202POPC   C1A 5907  42.366  37.726   8.553
 5202POPC   D2A 5908  42.376  37.704   8.253
 5202POPC   C3A 5909  42.357  37.673   7.953
 5202POPC   C4A 5910  42.360  37.634   7.653
 5202POPC   C1B 5911  42.203  37.446   8.553
 5202POPC   C2B 5912  42.284  37.446   8.253
 5202POPC   C3B 5913  42.288  37.422   7.953
 5202POPC   C4B 5914  42.196  37.430   7.653
 5203POPC   NC3 5915  40.790  36.858   9.453
 5203POPC   PO4 5916  40.751  36.901   9.153
 5203POPC   GL1 5917  40.811  36.922   8.853
 5203POPC   GL2 5918  40.650  36.891   8.853
 5203POPC   C1A 5919  40.762  36.859   8.553
 5203POPC   D2A 5920  40.744  36.918   8.253
 5203POPC   C3A 5921  40.742  36.922   7.953
 5203POPC   C4A 5922  40.773  36.939   7.653
 5203POPC   C1B 5923  40.570  36.822   8.553
 5203POPC   C2B 5924  40.582  36.772   8.253
 5203POPC   C3B 5925  40.594  36.859   7.953
 5203POPC   C4B 5926  40.593  36.774   7.653
 5204POPC   NC3 5927  40.734  31.443   9.453
 5204POPC   PO4 5928  40.830  31.466   9.153
 5204POPC   GL1 5929  40.796  31.518   8.853
 5204POPC   GL2 5930  40.900  31.504   8.853
 5204POPC   C1A 5931  40.776  31.495   8.553
 5204POPC   D2A 5932  40.750  31.498   8.253
 5204POPC   C3A 5933  40.792  31.433   7.953
 5204POPC   C4A 5934  40.824  31.477   7.653
 5204POPC   C1B 5935  40.972  31.593   8.553
 5204POPC   C2B 5936  40.985  31.555   8.253
 5204POPC   C3B 5937  40.989  31.614   7.953
 5204POPC   C4B 5938  41.034  31.552   7.653
 5205POPC   NC3 5939  25.300   2.731   9.453
 5205POPC   PO4 5940  25.282   2.786   9.153
 5205POPC   GL1 5941  25.286   2.740   8.853
 5205POPC   GL2 5942  25.232   2.921   8.853
 5205POPC   C1A 5943  25.303   2.746   8.553
 5205POPC   D2A 5944  25.272   2.808   8.253
 5205POPC   C3A 5945  25.295   2.775   7.953
 5205POPC   C4A 5946  25.300   2.744   7.653
 5205POPC   C1B 5947  25.250   3.009   8.553
 5205POPC   C2B 5948  25.334   2.972   8.253
 5205POPC   C3B 5949  25.264   3.043   7.953
 5205POPC   C4B 5950  25.341   3.028   7.653
 5206POPC   NC3 5951   3.546  35.360   9.453
 5206POPC   PO4 5952   3.541  35.303   9.153
 5206POPC   GL1 5953   3.542  35.310   8.853
 5206POPC   GL2 5954   3.478  35.455   8.853
 5206POPC   C1A 5955   3.518  35.363   8.553
 5206POPC   D2A 5956   3.575  35.348   8.253
 5206POPC   C3A 5957   3.518  35.369   7.953
 5206POPC   C4A 5958   3.556  35.388   7.653
 5206POPC   C1B 5959   3.487  35.561   8.553
 5206POPC   C2B 5960   3.493  35.637   8.253
 5206POPC   C3B 5961   3.501  35.635   7.953
 5206POPC   C4B 5962   3.467  35.556   7.653
 5207POPC   NC3 5963  23.675  18.290   9.453
 5207POPC   PO4 5964  23.697  18.269   9.153
 5207POPC   GL1 5965  23.717  18.247   8.853
 5207POPC   GL2 5966  23.601  18.366   8.853
 5207POPC   C1A 5967  23.670  18.295   8.553
 5207POPC   D2A 5968  23.739  18.314   8.253
 5207POPC   C3A 5969  23.697  18.288   7.953
 5207POPC   C4A 5970  23.756  18.251   7.653
 5207POPC   C1B 5971  23.462  18.402   8.553
 5207POPC   C2B 5972  23.478  18.379   8.253
 5207POPC   C3B 5973  23.432  18.313   7.953
 5207POPC   C4B 5974  23.448  18.320   7.653
 5208POPC   NC3 5975  10.531  19.013   9.453
 5208POPC   PO4 5976  10.524  19.025   9.153
 5208POPC   GL1 5977  10.493  19.108   8.853
 5208POPC   GL2 5978  10.642  19.129   8.853
 5208POPC   C1A 5979  10.560  19.107   8.553
 5208POPC   D2A 5980  10.483  19.065   8.253
 5208POPC   C3A 5981  10.474  19.099   7.953
 5208POPC   C4A 5982  10.557  19.076   7.653
 5208POPC   C1B 5983  10.736  19.103   8.553
 5208POPC   C2B 5984  10.749  19.191   8.253
 5208POPC   C3B 5985  10.751  19.139   7.953
 5208POPC   C4B 5986  10.770  19.184   7.653
 5209POPC   NC3 5987  15.137  14.384   9.453
 5209POPC   PO4 5988  15.159  14.363   9.153
 5209POPC   GL1 5989  15.207  14.450   8.853
 5209POPC   GL2 5990  15.035  14.437   8.853
 5209POPC   C1A 5991  15.138  14.390   8.553
 5209POPC   D2A 5992  15.136  14.385   8.253
 5209POPC   C3A 5993  15.216  14.452   7.953
 5209POPC   C4A 5994  15.156  14.404   7.653
 5209POPC   C1B 5995  15.003  14.516   8.553
 5209POPC   C2B 5996  14.985  14.529   8.253
 5209POPC   C3B 5997  14.957  14.535   7.953
 5209POPC   C4B 5998  14.930  14.496   7.653
 5210POPC   NC3 5999  30.695  19.840   9.453
 5210POPC   PO4 6000  30.722  19.868   9.153
 5210POPC   GL1 6001  30.654  19.851   8.853
 5210POPC   GL2 6002  30.792  19.729   8.853
 5210POPC   C1A 6003  30.663  19.847   8.553
 5210POPC   D2A 6004  30.674  19.879   8.253
 5210POPC   C3A 6005  30.665  19.835   7.953
 5210POPC   C4A 6006  30.683  19.820   7.653
 5210POPC   C1B 6007  30.824  19.644   8.553
 5210POPC   C2B 6008  30.850  19.694   8.253
 5210POPC   C3B 6009  30.911  19.687   7.953
 5210POPC   C4B 6010  30.839  19.631   7.653
 5211POPC   NC3 6011   8.959  26.842   9.453
 5211POPC   PO4 6012   8.983  26.776   9.153
 5211POPC   GL1 6013   8.970  26.797   8.853
 5211POPC   GL2 6014   9.015  26.746   8.853
 5211POPC   C1A 6015   9.005  26.778   8.553
 5211POPC   D2A 6016   8.988  26.774   8.253
 5211POPC   C3A 6017   8.930  26.783   7.953
 5211POPC   C4A 6018   8.992  26.797   7.653
 5211POPC   C1B 6019   9.088  26.587   8.553
 5211POPC   C2B 6020   9.118  26.622   8.253
 5211POPC   C3B 6021   9.110  26.625   7.953
 5211POPC   C4B 6022   9.107  26.591   7.653
 5212POPC   NC3 6023  33.843  10.495   9.453
 5212POPC   PO4 6024  33.817  10.496   9.153
 5212POPC   GL1 6025  33.751  10.500   8.853
 5212POPC   GL2 6026  33.791  10.426   8.853
 5212POPC   C1A 6027  33.755  10.514   8.553
 5212POPC   D2A 6028  33.788  10.489   8.253
 5212POPC   C3A 6029  33.761  10.505   7.953
 5212POPC   C4A 6030  33.751  10.560   7.653
 5212POPC   C1B 6031  33.769  10.297   8.553
 5212POPC   C2B 6032  33.772  10.256   8.253
 5212POPC   C3B 6033  33.781  10.296   7.953
 5212POPC   C4B 6034  33.711  10.319   7.653
 5213POPC   NC3 6035  24.491  38.503   9.453
 5213POPC   PO4 6036  24.479  38.478   9.153
 5213POPC   GL1 6037  24.502  38.495   8.853
 5213POPC   GL2 6038  24.633  38.374   8.853
 5213POPC   C1A 6039  24.508  38.459   8.553
 5213POPC   D2A 6040  24.500  38.489   8.253
 5213POPC   C3A 6041  24.501  38.480   7.953
 5213POPC   C4A 6042  24.534  38.417   7.653
 5213POPC   C1B 6043  24.696  38.316   8.553
 5213POPC   C2B 6044  24.739  38.377   8.253
 5213POPC   C3B 6045  24.742  38.368   7.953
 5213POPC   C4B 6046  24.717  38.314   7.653
 5214POPC   NC3 6047  12.805  23.751   9.453
 5214POPC   PO4 6048  12.881  23.670   9.153
 5214POPC   GL1 6049  12.813  23.682   8.853
 5214POPC   GL2 6050  12.734  23.768   8.853
 5214POPC   C1A 6051  12.843  23.665   8.553
 5214POPC   D2A 6052  12.851  23.759   8.253
 5214POPC   C3A 6053  12.889  23.712   7.953
 5214POPC   C4A 6054  12.856  23.753   7.653
 5214POPC   C1B 6055  12.671  23.955   8.553
 5214POPC   C2B 6056  12.672  23.956   8.253
 5214POPC   C3B 6057  12.727  23.869   7.953
 5214POPC   C4B 6058  12.719  23.889   7.653
 5215POPC   NC3 6059   2.784  19.814   9.453
 5215POPC   PO4 6060   2.729  19.842   9.153
 5215POPC   GL1 6061   2.815  19.853   8.853
 5215POPC   GL2 6062   2.874  19.856   8.853
 5215POPC   C1A 6063   2.757  19.872   8.553
 5215POPC   D2A 6064   2.718  19.808   8.253
 5215POPC   C3A 6065   2.748  19.835   7.953
 5215POPC   C4A 6066   2.752  19.794   7.653
 5215POPC   C1B 6067   2.946  19.984   8.553
 5215POPC   C2B 6068   2.927  20.021   8.253
 5215POPC   C3B 6069   2.980  20.016   7.953
 5215POPC   C4B 6070   2.964  19.984   7.653
 5216POPC   NC3 6071   0.472  41.545   9.453
 5216POPC   PO4 6072   0.469  41.545   9.153
 5216POPC   GL1 6073   0.427  41.559   8.853
 5216POPC   GL2 6074   0.486  41.611   8.853
 5216POPC   C1A 6075   0.443  41.572   8.553
 5216POPC   D2A 6076   0.449  41.588   8.253
 5216POPC   C3A 6077   0.420  41.531   7.953
 5216POPC   C4A 6078   0.432  41.581   7.653
 5216POPC   C1B 6079   0.564  41.768   8.553
 5216POPC   C2B 6080   0.573  41.784   8.253
 5216POPC   C3B 6081   0.598  41.747   7.953
 5216POPC   C4B 6082   0.581  41.741   7.653
 5217POPC   NC3 6083  35.400  10.475   9.453
 5217POPC   PO4 6084  35.305  10.512   9.153
 5217POPC   GL1 6085  35.352  10.490   8.853
 5217POPC   GL2 6086  35.273  10.580   8.853
 5217POPC   C1A 6087  35.368  10.564   8.553
 5217POPC   D2A 6088  35.337  10.498   8.253
 5217POPC   C3A 6089  35.321  10.484   7.953
 5217POPC   C4A 6090  35.379  10.564   7.653
 5217POPC   C1B 6091  35.176  10.722   8.553
 5217POPC   C2B 6092  35.140  10.674   8.253
 5217POPC   C3B 6093  35.106  10.713   7.953
 5217POPC   C4B 6094  35.109  10.700   7.653
 5218POPC   NC3 6095  16.688  35.368   9.453
 5218POPC   PO4 6096  16.705  35.400   9.153
 5218POPC   GL1 6097  16.709  35.329   8.853
 5218POPC   GL2 6098  16.791  35.309   8.853
 5218POPC   C1A 6099  16.765  35.321   8.553
 5218POPC   D2A 6100  16.707  35.324   8.253
 5218POPC   C3A 6101  16.699  35.347   7.953
 5218POPC   C4A 6102  16.752  35.329   7.653
 5218POPC   C1B 6103  16.871  35.222   8.553
 5218POPC   C2B 6104  16.889  35.160   8.253
 5218POPC   C3B 6105  16.916  35.189   7.953
 5218POPC   C4B 6106  16.879  35.210   7.653
 5219POPC   NC3 6107  33.039  40.749   9.453
 5219POPC   PO4 6108  33.042  40.774   9.153
 5219POPC   GL1 6109  33.074  40.812   8.853
 5219POPC   GL2 6110  33.035  40.902   8.853
 5219POPC   C1A 6111  33.069  40.811   8.553
 5219POPC   D2A 6112  32.983  40.790   8.253
 5219POPC   C3A 6113  33.068  40.822   7.953
 5219POPC   C4A 6114  33.024  40.802   7.653
 5219POPC   C1B 6115  32.976  41.050   8.553
 5219POPC   C2B 6116  32.960  40.977   8.253
 5219POPC   C3B 6117  32.935  41.026   7.953
 5219POPC   C4B 6118  32.927  41.039   7.653
 5220POPC   NC3 6119  40.778  28.340   9.453
 5220POPC   PO4 6120  40.738  28.413   9.153
 5220POPC   GL1 6121  40.760  28.366   8.853
 5220POPC   GL2 6122  40.906  28.427   8.853
 5220POPC   C1A 6123  40.819  28.394   8.553
 5220POPC   D2A 6124  40.821  28.405   8.253
 5220POPC   C3A 6125  40.808  28.409   7.953
 5220POPC   C4A 6126  40.750  28.364   7.653
 5220POPC   C1B 6127  41.004  28.500   8.553
 5220POPC   C2B 6128  40.990  28.567   8.253
 5220POPC   C3B 6129  40.982  28.540   7.953
 5220POPC   C4B 6130  41.012  28.528   7.653
 5221POPC   NC3 6131  12.054  34.594   9.453
 5221POPC   PO4 6132  12.075  34.532   9.153
 5221POPC   GL1 6133  12.102  34.605   8.853
 5221POPC   GL2 6134  12.135  34.626   8.853
 5221POPC   C1A 6135  12.126  34.562   8.553
 5221POPC   D2A 6136  12.044  34.534   8.253
 5221POPC   C3A 6137  12.027  34.556   7.953
 5221POPC   C4A 6138  12.080  34.561   7.653
 5221POPC   C1B 6139  12.265  34.696   8.553
 5221POPC   C2B 6140  12.319  34.691   8.253
 5221POPC   C3B 6141  12.300  34.664   7.953
 5221POPC   C4B 6142  12.271  34.736   7.653
 5222POPC   NC3 6143  26.805   9.710   9.453
 5222POPC   PO4 6144  26.818   9.757   9.153
 5222POPC   GL1 6145  26.769   9.736   8.853
 5222POPC   GL2 6146  26.845   9.902   8.853
 5222POPC   C1A 6147  26.792   9.726   8.553
 5222POPC   D2A 6148  26.804   9.722   8.253
 5222POPC   C3A 6149  26.804   9.737   7.953
 5222POPC   C4A 6150  26.839   9.786   7.653
 5222POPC   C1B 6151  26.803   9.952   8.553
 5222POPC   C2B 6152  26.793   9.995   8.253
 5222POPC   C3B 6153  26.816   9.984   7.953
 5222POPC   C4B 6154  26.862   9.974   7.653
 5223POPC   NC3 6155   6.606  32.229   9.453
 5223POPC   PO4 6156   6.673  32.282   9.153
 5223POPC   GL1 6157   6.647  32.201   8.853
 5223POPC   GL2 6158   6.529  32.208   8.853
 5223POPC   C1A 6159   6.686  32.227   8.553
 5223POPC   D2A 6160   6.639  32.216   8.253
 5223POPC   C3A 6161   6.613  32.207   7.953
 5223POPC   C4A 6162   6.688  32.239   7.653
 5223POPC   C1B 6163   6.395  32.191   8.553
 5223POPC   C2B 6164   6.434  32.105   8.253
 5223POPC   C3B 6165   6.423  32.102   7.953
 5223POPC   C4B 6166   6.417  32.159   7.653
 5224POPC   NC3 6167  31.427   5.875   9.453
 5224POPC   PO4 6168  31.479   5.872   9.153
 5224POPC   GL1 6169  31.500   5.839   8.853
 5224POPC   GL2 6170  31.578   5.978   8.853
 5224POPC   C1A 6171  31.464   5.888   8.553
 5224POPC   D2A 6172  31.435   5.913   8.253
 5224POPC   C3A 6173  31.493   5.879   7.953
 5224POPC   C4A 6174  31.448   5.821   7.653
 5224POPC   C1B 6175  31.653   6.092   8.553
 5224POPC   C2B 6176  31.616   6.035   8.253
 5224POPC   C3B 6177  31.637   6.087   7.953
 5224POPC   C4B 6178  31.595   6.048   7.653
 5225POPC   NC3 6179  38.452   8.198   9.453
 5225POPC   PO4 6180  38.465   8.165   9.153
 5225POPC   GL1 6181  38.483   8.199   8.853
 5225POPC   GL2 6182  38.573   8.104   8.853
 5225POPC   C1A 6183  38.416   8.162   8.553
 5225POPC   D2A 6184  38.463   8.208   8.253
 5225POPC   C3A 6185  38.456   8.196   7.953
 5225POPC   C4A 6186  38.456   8.157   7.653
 5225POPC   C1B 6187  38.607   8.008   8.553
 5225POPC   C2B 6188  38.603   7.953   8.253
 5225POPC   C3B 6189  38.597   7.954   7.953
 5225POPC   C4B 6190  38.563   7.939   7.653
 5226POPC   NC3 6191  19.040   2.033   9.453
 5226POPC   PO4 6192  19.075   1.994   9.153
 5226POPC   GL1 6193  19.052   1.943   8.853
 5226POPC   GL2 6194  19.213   1.896   8.853
 5226POPC   C1A 6195  19.033   1.969   8.553
 5226POPC   D2A 6196  19.062   1.995   8.253
 5226POPC   C3A 6197  19.055   1.986   7.953
 5226POPC   C4A 6198  19.080   2.011   7.653
 5226POPC   C1B 6199  19.240   1.849   8.553
 5226POPC   C2B 6200  19.288   1.854   8.253
 5226POPC   C3B 6201  19.317   1.835   7.953
 5226POPC   C4B 6202  19.316   1.864   7.653
 5227POPC   NC3 6203  14.436   6.645   9.453
 5227POPC   PO4 6204  14.435   6.673   9.153
 5227POPC   GL1 6205  14.364   6.600   8.853
 5227POPC   GL2 6206  14.386   6.472   8.853
 5227POPC   C1A 6207  14.413   6.674   8.553
 5227POPC   D2A 6208  14.377   6.615   8.253
 5227POPC   C3A 6209  14.412   6.651   7.953
 5227POPC   C4A 6210  14.446   6.627   7.653
 5227POPC   C1B 6211  14.356   6.420   8.553
 5227POPC   C2B 6212  14.371   6.444   8.253
 5227POPC   C3B 6213  14.349   6.418   7.953
 5227POPC   C4B 6214  14.431   6.377   7.653
 5228POPC   NC3 6215  12.807   9.003   9.453
 5228POPC   PO4 6216  12.877   8.926   9.153
 5228POPC   GL1 6217  12.833   9.016   8.853
 5228POPC   GL2 6218  12.909   9.039   8.853
 5228POPC   C1A 6219  12.881   8.968   8.553
 5228POPC   D2A 6220  12.884   9.012   8.253
 5228POPC   C3A 6221  12.875   8.942   7.953
 5228POPC   C4A 6222  12.860   8.979   7.653
 5228POPC   C1B 6223  12.981   9.121   8.553
 5228POPC   C2B 6224  13.022   9.182   8.253
 5228POPC   C3B 6225  13.005   9.156   7.953
 5228POPC   C4B 6226  13.079   9.115   7.653
 5229POPC   NC3 6227  42.330  26.849   9.453
 5229POPC   PO4 6228  42.384  26.809   9.153
 5229POPC   GL1 6229  42.290  26.790   8.853
 5229POPC   GL2 6230  42.258  26.879   8.853
 5229POPC   C1A 6231  42.358  26.852   8.553
 5229POPC   D2A 6232  42.294  26.836   8.253
 5229POPC   C3A 6233  42.328  26.788   7.953
 5229POPC   C4A 6234  42.319  26.786   7.653
 5229POPC   C1B 6235  42.038  26.893   8.553
 5229POPC   C2B 6236  42.043  26.834   8.253
 5229POPC   C3B 6237  42.118  26.844   7.953
 5229POPC   C4B 6238  42.054  26.875   7.653
 5230POPC   NC3 6239   1.192   2.773   9.453
 5230POPC   PO4 6240   1.250   2.790   9.153
 5230POPC   GL1 6241   1.227   2.725   8.853
 5230POPC   GL2 6242   1.320   2.716   8.853
 5230POPC   C1A 6243   1.237   2.747   8.553
 5230POPC   D2A 6244   1.211   2.794   8.253
 5230POPC   C3A 6245   1.260   2.739   7.953
 5230POPC   C4A 6246   1.228   2.809   7.653
 5230POPC   C1B 6247   1.427   2.739   8.553
 5230POPC   C2B 6248   1.465   2.776   8.253
 5230POPC   C3B 6249   1.434   2.776   7.953
 5230POPC   C4B 6250   1.428   2.807   7.653
 5231POPC   NC3 6251  26.044  10.559   9.453
 5231POPC   PO4 6252  26.005  10.520   9.153
 5231POPC   GL1 6253  26.077  10.497   8.853
 5231POPC   GL2 6254  26.183  10.395   8.853
 5231POPC   C1A 6255  26.079  10.531   8.553
 5231POPC   D2A 6256  26.073  10.562   8.253
 5231POPC   C3A 6257  26.065  10.490   7.953
 5231POPC   C4A 6258  26.012  10.566   7.653
 5231POPC   C1B 6259  26.215  10.381   8.553
 5231POPC   C2B 6260  26.234  10.328   8.253
 5231POPC   C3B 6261  26.190  10.331   7.953
 5231POPC   C4B 6262  26.271  10.327   7.653
 5232POPC   NC3 6263  19.787  28.394   9.453
 5232POPC   PO4 6264  19.859  28.406   9.153
 5232POPC   GL1 6265  19.853  28.341   8.853
 5232POPC   GL2 6266  19.940  28.299   8.853
 5232POPC   C1A 6267  19.824  28.368   8.553
 5232POPC   D2A 6268  19.863  28.392   8.253
 5232POPC   C3A 6269  19.839  28.398   7.953
 5232POPC   C4A 6270  19.867  28.387   7.653
 5232POPC   C1B 6271  19.944  28.180   8.553
 5232POPC   C2B 6272  19.969  28.151   8.253
 5232POPC   C3B 6273  19.926  28.198   7.953
 5232POPC   C4B 6274  20.022  28.141   7.653
 5233POPC   NC3 6275  35.363  42.323   9.453
 5233POPC   PO4 6276  35.367  42.343   9.153
 5233POPC   GL1 6277  35.363  42.303   8.853
 5233POPC   GL2 6278  35.483  42.326   8.853
 5233POPC   C1A 6279  35.367  42.304   8.553
 5233POPC   D2A 6280  35.391  42.323   8.253
 5233POPC   C3A 6281  35.378  42.299   7.953
 5233POPC   C4A 6282  35.352  42.304   7.653
 5233POPC   C1B 6283  35.580  42.285   8.553
 5233POPC   C2B 6284  35.543  42.215   8.253
 5233POPC   C3B 6285  35.636  42.243   7.953
 5233POPC   C4B 6286  35.560  42.215   7.653
 5234POPC   NC3 6287  40.040   5.109   9.453
 5234POPC   PO4 6288  40.057   5.114   9.153
 5234POPC   GL1 6289  39.970   5.068   8.853
 5234POPC   GL2 6290  40.071   4.962   8.853
 5234POPC   C1A 6291  39.975   5.095   8.553
 5234POPC   D2A 6292  39.968   5.142   8.253
 5234POPC   C3A 6293  39.976   5.089   7.953
 5234POPC   C4A 6294  39.985   5.074   7.653
 5234POPC   C1B 6295  40.031   4.824   8.553
 5234POPC   C2B 6296  40.036   4.847   8.253
 5234POPC   C3B 6297  40.014   4.809   7.953
 5234POPC   C4B 6298  40.031   4.852   7.653
 5235POPC   NC3 6299  20.630  35.369   9.453
 5235POPC   PO4 6300  20.573  35.333   9.153
 5235POPC   GL1 6301  20.604  35.323   8.853
 5235POPC   GL2 6302  20.619  35.229   8.853
 5235POPC   C1A 6303  20.609  35.321   8.553
 5235POPC   D2A 6304  20.623  35.308   8.253
 5235POPC   C3A 6305  20.645  35.394   7.953
 5235POPC   C4A 6306  20.590  35.383   7.653
 5235POPC   C1B 6307  20.492  35.153   8.553
 5235POPC   C2B 6308  20.568  35.101   8.253
 5235POPC   C3B 6309  20.496  35.150   7.953
 5235POPC   C4B 6310  20.519  35.134   7.653
 5236POPC   NC3 6311  19.794   9.721   9.453
 5236POPC   PO4 6312  19.796   9.796   9.153
 5236POPC   GL1 6313  19.838   9.762   8.853
 5236POPC   GL2 6314  19.844   9.909   8.853
 5236POPC   C1A 6315  19.832   9.723   8.553
 5236POPC   D2A 6316  19.828   9.707   8.253
 5236POPC   C3A 6317  19.814   9.725   7.953
 5236POPC   C4A 6318  19.883   9.776   7.653
 5236POPC   C1B 6319  19.787   9.983   8.553
 5236POPC   C2B 6320  19.789  10.016   8.253
 5236POPC   C3B 6321  19.745   9.998   7.953
 5236POPC   C4B 6322  19.779  10.004   7.653
 5237POPC   NC3 6323  44.683   2.808   9.453
 5237POPC   PO4 6324  44.664   2.787   9.153
 5237POPC   GL1 6325  44.678   2.758   8.853
 5237POPC   GL2 6326  44.734   2.810   8.853
 5237POPC   C1A 6327  44.679   2.781   8.553
 5237POPC   D2A 6328  44.655   2.758   8.253
 5237POPC   C3A 6329  44.632   2.718   7.953
 5237POPC   C4A 6330  44.613   2.734   7.653
 5237POPC   C1B 6331  44.830   2.904   8.553
 5237POPC   C2B 6332  44.878   2.947   8.253
 5237POPC   C3B 6333  44.786   2.959   7.953
 5237POPC   C4B 6334  44.879   2.931   7.653
 5238POPC   NC3 6335  37.668  11.252   9.453
 5238POPC   PO4 6336  37.662  11.251   9.153
 5238POPC   GL1 6337  37.676  11.302   8.853
 5238POPC   GL2 6338  37.824  11.265   8.853
 5238POPC   C1A 6339  37.672  11.259   8.553
 5238POPC   D2A 6340  37.720  11.264   8.253
 5238POPC   C3A 6341  37.669  11.279   7.953
 5238POPC   C4A 6342  37.692  11.348   7.653
 5238POPC   C1B 6343  37.853  11.152   8.553
 5238POPC   C2B 6344  37.864  11.102   8.253
 5238POPC   C3B 6345  37.837  11.129   7.953
 5238POPC   C4B 6346  37.905  11.188   7.653
 5239POPC   NC3 6347  17.551  22.970   9.453
 5239POPC   PO4 6348  17.557  22.969   9.153
 5239POPC   GL1 6349  17.548  22.954   8.853
 5239POPC   GL2 6350  17.446  23.021   8.853
 5239POPC   C1A 6351  17.512  22.973   8.553
 5239POPC   D2A 6352  17.483  22.983   8.253
 5239POPC   C3A 6353  17.530  22.970   7.953
 5239POPC   C4A 6354  17.554  22.971   7.653
 5239POPC   C1B 6355  17.294  23.095   8.553
 5239POPC   C2B 6356  17.366  23.063   8.253
 5239POPC   C3B 6357  17.284  23.072   7.953
 5239POPC   C4B 6358  17.317  23.052   7.653
 5240POPC   NC3 6359  40.009   1.978   9.453
 5240POPC   PO4 6360  40.053   1.952   9.153
 5240POPC   GL1 6361  39.972   2.010   8.853
 5240POPC   GL2 6362  39.925   1.981   8.853
 5240POPC   C1A 6363  39.978   1.983   8.553
 5240POPC   D2A 6364  40.010   1.964   8.253
 5240POPC   C3A 6365  40.052   2.000   7.953
 5240POPC   C4A 6366  40.049   2.038   7.653
 5240POPC   C1B 6367  39.743   1.990   8.553
 5240POPC   C2B 6368  39.797   2.009   8.253
 5240POPC   C3B 6369  39.768   2.023   7.953
 5240POPC   C4B 6370  39.740   2.014   7.653
 5241POPC   NC3 6371  32.283  32.981   9.453
 5241POPC   PO4 6372  32.297  33.006   9.153
 5241POPC   GL1 6373  32.243  33.021   8.853
 5241POPC   GL2 6374  32.176  33.015   8.853
 5241POPC   C1A 6375  32.229  33.049   8.553
 5241POPC   D2A 6376  32.298  33.051   8.253
 5241POPC   C3A 6377  32.206  33.001   7.953
 5241POPC   C4A 6378  32.232  32.987   7.653
 5241POPC   C1B 6379  31.985  33.004   8.553
 5241POPC   C2B 6380  32.045  32.982   8.253
 5241POPC   C3B 6381  31.971  32.985   7.953
 5241POPC   C4B 6382  31.992  32.918   7.653
 5242POPC   NC3 6383   6.595  10.573   9.453
 5242POPC   PO4 6384   6.647  10.527   9.153
 5242POPC   GL1 6385   6.655  10.569   8.853
 5242POPC   GL2 6386   6.798  10.528   8.853
 5242POPC   C1A 6387   6.629  10.482   8.553
 5242POPC   D2A 6388   6.653  10.542   8.253
 5242POPC   C3A 6389   6.665  10.515   7.953
 5242POPC   C4A 6390   6.677  10.483   7.653
 5242POPC   C1B 6391   6.929  10.532   8.553
 5242POPC   C2B 6392   6.902  10.572   8.253
 5242POPC   C3B 6393   6.913  10.494   7.953
 5242POPC   C4B 6394   6.899  10.519   7.653
 5243POPC   NC3 6395  40.759  32.987   9.453
 5243POPC   PO4 6396  40.798  33.005   9.153
 5243POPC   GL1 6397  40.825  33.056   8.853
 5243POPC   GL2 6398  40.764  32.878   8.853
 5243POPC   C1A 6399  40.751  33.049   8.553
 5243POPC   D2A 6400  40.745  33.024   8.253
 5243POPC   C3A 6401  40.825  33.048   7.953
 5243POPC   C4A 6402  40.759  33.050   7.653
 5243POPC   C1B 6403  40.678  32.859   8.553
 5243POPC   C2B 6404  40.664  32.802   8.253
 5243POPC   C3B 6405  40.627  32.810   7.953
 5243POPC   C4B 6406  40.616  32.805   7.653
 5244POPC   NC3 6407   2.804  18.311   9.453
 5244POPC   PO4 6408   2.744  18.321   9.153
 5244POPC   GL1 6409   2.759  18.249   8.853
 5244POPC   GL2 6410   2.900  18.220   8.853
 5244POPC   C1A 6411   2.721  18.321   8.553
 5244POPC   D2A 6412   2.729  18.294   8.253
 5244POPC   C3A 6413   2.766  18.241   7.953
 5244POPC   C4A 6414   2.727  18.303   7.653
 5244POPC   C1B 6415   2.991  18.127   8.553
 5244POPC   C2B 6416   3.007  18.214   8.253
 5244POPC   C3B 6417   2.990  18.202   7.953
 5244POPC   C4B 6418   3.020  18.206   7.653
 5245POPC   NC3 6419  26.788  34.621   9.453
 5245POPC   PO4 6420  26.822  34.607   9.153
 5245POPC   GL1 6421  26.817  34.585   8.853
 5245POPC   GL2 6422  26.739  34.641   8.853
 5245POPC   C1A 6423  26.785  34.599   8.553
 5245POPC   D2A 6424  26.784  34.598   8.253
 5245POPC   C3A 6425  26.796  34.585   7.953
 5245POPC   C4A 6426  26.793  34.571   7.653
 5245POPC   C1B 6427  26.651  34.691   8.553
 5245POPC   C2B 6428  26.584  34.707   8.253
 5245POPC   C3B 6429  26.654  34.741   7.953
 5245POPC   C4B 6430  26.613  34.708   7.653
 5246POPC   NC3 6431  37.674  31.457   9.453
 5246POPC   PO4 6432  37.661  31.509   9.153
 5246POPC   GL1 6433  37.670  31.435   8.853
 5246POPC   GL2 6434  37.816  31.444   8.853
 5246POPC   C1A 6435  37.640  31.519   8.553
 5246POPC   D2A 6436  37.658  31.439   8.253
 5246POPC   C3A 6437  37.671  31.437   7.953
 5246POPC   C4A 6438  37.704  31.478   7.653
 5246POPC   C1B 6439  37.900  31.417   8.553
 5246POPC   C2B 6440  37.968  31.430   8.253
 5246POPC   C3B 6441  37.913  31.393   7.953
 5246POPC   C4B 6442  37.887  31.446   7.653
 5247POPC   NC3 6443  29.936  25.234   9.453
 5247POPC   PO4 6444  29.882  25.288   9.153
 5247POPC   GL1 6445  29.885  25.297   8.853
 5247POPC   GL2 6446  29.964  25.189   8.853
 5247POPC   C1A 6447  29.913  25.297   8.553
 5247POPC   D2A 6448  29.959  25.315   8.253
 5247POPC   C3A 6449  29.888  25.217   7.953
 5247POPC   C4A 6450  29.881  25.299   7.653
 5247POPC   C1B 6451  29.954  25.056   8.553
 5247POPC   C2B 6452  29.909  24.994   8.253
 5247POPC   C3B 6453  29.888  25.042   7.953
 5247POPC   C4B 6454  29.943  25.029   7.653
 5248POPC   NC3 6455  37.686  29.901   9.453
 5248POPC   PO4 6456  37.703  29.937   9.153
 5248POPC   GL1 6457  37.643  29.922   8.853
 5248POPC   GL2 6458  37.674  29.798   8.853
 5248POPC   C1A 6459  37.678  29.904   8.553
 5248POPC   D2A 6460  37.694  29.937   8.253
 5248POPC   C3A 6461  37.664  29.906   7.953
 5248POPC   C4A 6462  37.678  29.945   7.653
 5248POPC   C1B 6463  37.800  29.723   8.553
 5248POPC   C2B 6464  37.729  29.643   8.253
 5248POPC   C3B 6465  37.740  29.662   7.953
 5248POPC   C4B 6466  37.754  29.666   7.653
 5249POPC   NC3 6467  32.995  33.754   9.453
 5249POPC   PO4 6468  33.004  33.834   9.153
 5249POPC   GL1 6469  33.073  33.793   8.853
 5249POPC   GL2 6470  33.026  33.627   8.853
 5249POPC   C1A 6471  33.072  33.752   8.553
 5249POPC   D2A 6472  33.055  33.806   8.253
 5249POPC   C3A 6473  33.070  33.764   7.953
 5249POPC   C4A 6474  32.978  33.844   7.653
 5249POPC   C1B 6475  33.002  33.566   8.553
 5249POPC   C2B 6476  32.955  33.502   8.253
 5249POPC   C3B 6477  33.006  33.567   7.953
 5249POPC   C4B 6478  33.029  33.588   7.653
 5250POPC   NC3 6479  26.808  35.388   9.453
 5250POPC   PO4 6480  26.792  35.366   9.153
 5250POPC   GL1 6481  26.852  35.378   8.853
 5250POPC   GL2 6482  26.894  35.338   8.853
 5250POPC   C1A 6483  26.801  35.319   8.553
 5250POPC   D2A 6484  26.771  35.342   8.253
 5250POPC   C3A 6485  26.820  35.395   7.953
 5250POPC   C4A 6486  26.829  35.310   7.653
 5250POPC   C1B 6487  27.033  35.262   8.553
 5250POPC   C2B 6488  27.016  35.255   8.253
 5250POPC   C3B 6489  27.007  35.290   7.953
 5250POPC   C4B 6490  27.011  35.314   7.653
 5251POPC   NC3 6491  22.192  23.762   9.453
 5251POPC   PO4 6492  22.126  23.678   9.153
 5251POPC   GL1 6493  22.188  23.683   8.853
 5251POPC   GL2 6494  22.247  23.663   8.853
 5251POPC   C1A 6495  22.165  23.718   8.553
 5251POPC   D2A 6496  22.132  23.697   8.253
 5251POPC   C3A 6497  22.149  23.743   7.953
 5251POPC   C4A 6498  22.134  23.710   7.653
 5251POPC   C1B 6499  22.400  23.653   8.553
 5251POPC   C2B 6500  22.435  23.693   8.253
 5251POPC   C3B 6501  22.411  23.706   7.953
 5251POPC   C4B 6502  22.370  23.687   7.653
 5252POPC   NC3 6503  16.775  22.911   9.453
 5252POPC   PO4 6504  16.721  22.964   9.153
 5252POPC   GL1 6505  16.734  22.920   8.853
 5252POPC   GL2 6506  16.833  23.039   8.853
 5252POPC   C1A 6507  16.734  22.942   8.553
 5252POPC   D2A 6508  16.763  22.888   8.253
 5252POPC   C3A 6509  16.779  22.943   7.953
 5252POPC   C4A 6510  16.706  22.981   7.653
 5252POPC   C1B 6511  16.911  23.061   8.553
 5252POPC   C2B 6512  16.960  23.051   8.253
 5252POPC   C3B 6513  16.899  23.088   7.953
 5252POPC   C4B 6514  16.896  23.112   7.653
 5253POPC   NC3 6515  40.015  35.362   9.453
 5253POPC   PO4 6516  40.036  35.316   9.153
 5253POPC   GL1 6517  39.981  35.398   8.853
 5253POPC   GL2 6518  40.030  35.191   8.853
 5253POPC   C1A 6519  39.969  35.366   8.553
 5253POPC   D2A 6520  40.013  35.335   8.253
 5253POPC   C3A 6521  40.012  35.323   7.953
 5253POPC   C4A 6522  39.962  35.321   7.653
 5253POPC   C1B 6523  40.088  35.112   8.553
 5253POPC   C2B 6524  40.133  35.133   8.253
 5253POPC   C3B 6525  40.106  35.087   7.953
 5253POPC   C4B 6526  40.087  35.088   7.653
 5254POPC   NC3 6527  42.332   4.320   9.453
 5254POPC   PO4 6528  42.354   4.348   9.153
 5254POPC   GL1 6529  42.366   4.327   8.853
 5254POPC   GL2 6530  42.253   4.259   8.853
 5254POPC   C1A 6531  42.367   4.305   8.553
 5254POPC   D2A 6532  42.293   4.278   8.253
 5254POPC   C3A 6533  42.381   4.353   7.953
 5254POPC   C4A 6534  42.369   4.343   7.653
 5254POPC   C1B 6535  42.109   4.240   8.553
 5254POPC   C2B 6536  42.120   4.238   8.253
 5254POPC   C3B 6537  42.066   4.177   7.953
 5254POPC   C4B 6538  42.149   4.197   7.653
 5255POPC   NC3 6539  18.261  27.555   9.453
 5255POPC   PO4 6540  18.270  27.591   9.153
 5255POPC   GL1 6541  18.248  27.617   8.853
 5255POPC   GL2 6542  18.305  27.458   8.853
 5255POPC   C1A 6543  18.326  27.609   8.553
 5255POPC   D2A 6544  18.262  27.622   8.253
 5255POPC   C3A 6545  18.302  27.578   7.953
 5255POPC   C4A 6546  18.263  27.571   7.653
 5255POPC   C1B 6547  18.265  27.297   8.553
 5255POPC   C2B 6548  18.229  27.386   8.253
 5255POPC   C3B 6549  18.266  27.383   7.953
 5255POPC   C4B 6550  18.221  27.371   7.653
 5256POPC   NC3 6551  25.240  33.019   9.453
 5256POPC   PO4 6552  25.268  33.072   9.153
 5256POPC   GL1 6553  25.230  33.038   8.853
 5256POPC   GL2 6554  25.107  32.948   8.853
 5256POPC   C1A 6555  25.280  33.059   8.553
 5256POPC   D2A 6556  25.231  33.032   8.253
 5256POPC   C3A 6557  25.311  33.043   7.953
 5256POPC   C4A 6558  25.239  33.024   7.653
 5256POPC   C1B 6559  24.997  33.000   8.553
 5256POPC   C2B 6560  25.016  32.959   8.253
 5256POPC   C3B 6561  25.043  32.990   7.953
 5256POPC   C4B 6562  25.024  32.973   7.653
 5257POPC   NC3 6563  24.449  36.919   9.453
 5257POPC   PO4 6564  24.489  36.953   9.153
 5257POPC   GL1 6565  24.489  36.920   8.853
 5257POPC   GL2 6566  24.555  36.878   8.853
 5257POPC   C1A 6567  24.505  36.930   8.553
 5257POPC   D2A 6568  24.538  36.916   8.253
 5257POPC   C3A 6569  24.474  36.870   7.953
 5257POPC   C4A 6570  24.531  36.934   7.653
 5257POPC   C1B 6571  24.694  36.823   8.553
 5257POPC   C2B 6572  24.744  36.777   8.253
 5257POPC   C3B 6573  24.680  36.790   7.953
 5257POPC   C4B 6574  24.734  36.818   7.653
 5258POPC   NC3 6575  35.373  29.098   9.453
 5258POPC   PO4 6576  35.381  29.185   9.153
 5258POPC   GL1 6577  35.315  29.153   8.853
 5258POPC   GL2 6578  35.262  29.219   8.853
 5258POPC   C1A 6579  35.304  29.177   8.553
 5258POPC   D2A 6580  35.309  29.140   8.253
 5258POPC   C3A 6581  35.336  29.132   7.953
 5258POPC   C4A 6582  35.334  29.186   7.653
 5258POPC   C1B 6583  35.170  29.297   8.553
 5258POPC   C2B 6584  35.199  29.284   8.253
 5258POPC   C3B 6585  35.152  29.347   7.953
 5258POPC   C4B 6586  35.151  29.366   7.653
 5259POPC   NC3 6587   6.646  34.608   9.453
 5259POPC   PO4 6588   6.660  34.571   9.153
 5259POPC   GL1 6589   6.630  34.580   8.853
 5259POPC   GL2 6590   6.555  34.692   8.853
 5259POPC   C1A 6591   6.669  34.564   8.553
 5259POPC   D2A 6592   6.656  34.594   8.253
 5259POPC   C3A 6593   6.661  34.594   7.953
 5259POPC   C4A 6594   6.649  34.599   7.653
 5259POPC   C1B 6595   6.549  34.813   8.553
 5259POPC   C2B 6596   6.561  34.801   8.253
 5259POPC   C3B 6597   6.561  34.798   7.953
 5259POPC   C4B 6598   6.578  34.812   7.653
 5260POPC   NC3 6599  41.556  26.845   9.453
 5260POPC   PO4 6600  41.516  26.830   9.153
 5260POPC   GL1 6601  41.596  26.822   8.853
 5260POPC   GL2 6602  41.635  26.699   8.853
 5260POPC   C1A 6603  41.576  26.797   8.553
 5260POPC   D2A 6604  41.553  26.834   8.253
 5260POPC   C3A 6605  41.554  26.800   7.953
 5260POPC   C4A 6606  41.561  26.787   7.653
 5260POPC   C1B 6607  41.696  26.616   8.553
 5260POPC   C2B 6608  41.677  26.625   8.253
 5260POPC   C3B 6609  41.643  26.545   7.953
 5260POPC   C4B 6610  41.684  26.623   7.653
 5261POPC   NC3 6611   1.957   5.888   9.453
 5261POPC   PO4 6612   1.953   5.883   9.153
 5261POPC   GL1 6613   1.991   5.911   8.853
 5261POPC   GL2 6614   1.941   5.750   8.853
 5261POPC   C1A 6615   2.021   5.858   8.553
 5261POPC   D2A 6616   2.010   5.892   8.253
 5261POPC   C3A 6617   2.025   5.890   7.953
 5261POPC   C4A 6618   1.985   5.829   7.653
 5261POPC   C1B 6619   1.841   5.719   8.553
 5261POPC   C2B 6620   1.804   5.684   8.253
 5261POPC   C3B 6621   1.840   5.691   7.953
 5261POPC   C4B 6622   1.818   5.712   7.653
 5262POPC   NC3 6623  17.510  42.382   9.453
 5262POPC   PO4 6624  17.517  42.381   9.153
 5262POPC   GL1 6625  17.459  42.347   8.853
 5262POPC   GL2 6626  17.356  42.336   8.853
 5262POPC   C1A 6627  17.554  42.319   8.553
 5262POPC   D2A 6628  17.550  42.308   8.253
 5262POPC   C3A 6629  17.547  42.300   7.953
 5262POPC   C4A 6630  17.526  42.301   7.653
 5262POPC   C1B 6631  17.277  42.266   8.553
 5262POPC   C2B 6632  17.285  42.241   8.253
 5262POPC   C3B 6633  17.262  42.249   7.953
 5262POPC   C4B 6634  17.287  42.259   7.653
 5263POPC   NC3 6635  22.142  26.784   9.453
 5263POPC   PO4 6636  22.158  26.847   9.153
 5263POPC   GL1 6637  22.144  26.837   8.853
 5263POPC   GL2 6638  22.036  26.731   8.853
 5263POPC   C1A 6639  22.158  26.833   8.553
 5263POPC   D2A 6640  22.207  26.773   8.253
 5263POPC   C3A 6641  22.205  26.861   7.953
 5263POPC   C4A 6642  22.134  26.775   7.653
 5263POPC   C1B 6643  21.962  26.638   8.553
 5263POPC   C2B 6644  21.988  26.600   8.253
 5263POPC   C3B 6645  22.011  26.636   7.953
 5263POPC   C4B 6646  22.002  26.634   7.653
 5264POPC   NC3 6647  21.382  22.173   9.453
 5264POPC   PO4 6648  21.347  22.185   9.153
 5264POPC   GL1 6649  21.430  22.170   8.853
 5264POPC   GL2 6650  21.244  22.198   8.853
 5264POPC   C1A 6651  21.424  22.204   8.553
 5264POPC   D2A 6652  21.436  22.121   8.253
 5264POPC   C3A 6653  21.426  22.162   7.953
 5264POPC   C4A 6654  21.377  22.156   7.653
 5264POPC   C1B 6655  21.180  22.312   8.553
 5264POPC   C2B 6656  21.181  22.303   8.253
 5264POPC   C3B 6657  21.172  22.292   7.953
 5264POPC   C4B 6658  21.152  22.230   7.653
 5265POPC   NC3 6659  43.856  18.235   9.453
 5265POPC   PO4 6660  43.862  18.260   9.153
 5265POPC   GL1 6661  43.898  18.280   8.853
 5265POPC   GL2 6662  43.838  18.147   8.853
 5265POPC   C1A 6663  43.868  18.320   8.553
 5265POPC   D2A 6664  43.853  18.275   8.253
 5265POPC   C3A 6665  43.854  18.244   7.953
 5265POPC   C4A 6666  43.931  18.314   7.653
 5265POPC   C1B 6667  43.820  18.027   8.553
 5265POPC   C2B 6668  43.861  18.014   8.253
 5265POPC   C3B 6669  43.847  18.018   7.953
 5265POPC   C4B 6670  43.825  18.018   7.653
 5266POPC   NC3 6671  17.533  36.151   9.453
 5266POPC   PO4 6672  17.554  36.142   9.153
 5266POPC   GL1 6673  17.521  36.155   8.853
 5266POPC   GL2 6674  17.425  36.279   8.853
 5266POPC   C1A 6675  17.484  36.137   8.553
 5266POPC   D2A 6676  17.521  36.096   8.253
 5266POPC   C3A 6677  17.535  36.097   7.953
 5266POPC   C4A 6678  17.461  36.159   7.653
 5266POPC   C1B 6679  17.408  36.348   8.553
 5266POPC   C2B 6680  17.416  36.365   8.253
 5266POPC   C3B 6681  17.388  36.303   7.953
 5266POPC   C4B 6682  17.364  36.349   7.653
 5267POPC   NC3 6683  10.561   7.402   9.453
 5267POPC   PO4 6684  10.505   7.452   9.153
 5267POPC   GL1 6685  10.570   7.378   8.853
 5267POPC   GL2 6686  10.508   7.546   8.853
 5267POPC   C1A 6687  10.512   7.434   8.553
 5267POPC   D2A 6688  10.498   7.439   8.253
 5267POPC   C3A 6689  10.488   7.393   7.953
 5267POPC   C4A 6690  10.498   7.416   7.653
 5267POPC   C1B 6691  10.389   7.637   8.553
 5267POPC   C2B 6692  10.388   7.675   8.253
 5267POPC   C3B 6693  10.429   7.606   7.953
 5267POPC   C4B 6694  10.451   7.619   7.653
 5268POPC   NC3 6695  12.085   8.976   9.453
 5268POPC   PO4 6696  12.034   9.002   9.153
 5268POPC   GL1 6697  12.108   8.961   8.853
 5268POPC   GL2 6698  12.037   8.818   8.853
 5268POPC   C1A 6699  12.049   8.923   8.553
 5268POPC   D2A 6700  12.056   8.971   8.253
 5268POPC   C3A 6701  12.069   8.954   7.953
 5268POPC   C4A 6702  12.091   8.990   7.653
 5268POPC   C1B 6703  12.000   8.796   8.553
 5268POPC   C2B 6704  11.945   8.751   8.253
 5268POPC   C3B 6705  11.977   8.761   7.953
 5268POPC   C4B 6706  11.960   8.766   7.653
 5269POPC   NC3 6707  33.811  23.702   9.453
 5269POPC   PO4 6708  33.804  23.732   9.153
 5269POPC   GL1 6709  33.782  23.733   8.853
 5269POPC   GL2 6710  33.919  23.807   8.853
 5269POPC   C1A 6711  33.823  23.744   8.553
 5269POPC   D2A 6712  33.779  23.709   8.253
 5269POPC   C3A 6713  33.763  23.677   7.953
 5269POPC   C4A 6714  33.810  23.694   7.653
 5269POPC   C1B 6715  33.985  23.800   8.553
 5269POPC   C2B 6716  34.074  23.765   8.253
 5269POPC   C3B 6717  34.076  23.798   7.953
 5269POPC   C4B 6718  34.065  23.793   7.653
 5270POPC   NC3 6719  22.156   9.793   9.453
 5270POPC   PO4 6720  22.145   9.795   9.153
 5270POPC   GL1 6721  22.124   9.768   8.853
 5270POPC   GL2 6722  22.259   9.775   8.853
 5270POPC   C1A 6723  22.114   9.721   8.553
 5270POPC   D2A 6724  22.209   9.734   8.253
 5270POPC   C3A 6725  22.137   9.790   7.953
 5270POPC   C4A 6726  22.168   9.709   7.653
 5270POPC   C1B 6727  22.411   9.828   8.553
 5270POPC   C2B 6728  22.425   9.768   8.253
 5270POPC   C3B 6729  22.408   9.762   7.953
 5270POPC   C4B 6730  22.408   9.754   7.653
 5271POPC   NC3 6731  30.742  22.151   9.453
 5271POPC   PO4 6732  30.713  22.188   9.153
 5271POPC   GL1 6733  30.670  22.131   8.853
 5271POPC   GL2 6734  30.611  22.045   8.853
 5271POPC   C1A 6735  30.696  22.112   8.553
 5271POPC   D2A 6736  30.712  22.206   8.253
 5271POPC   C3A 6737  30.721  22.187   7.953
 5271POPC   C4A 6738  30.728  22.161   7.653
 5271POPC   C1B 6739  30.566  21.900   8.553
 5271POPC   C2B 6740  30.623  21.889   8.253
 5271POPC   C3B 6741  30.601  21.937   7.953
 5271POPC   C4B 6742  30.593  21.885   7.653
 5272POPC   NC3 6743  42.285  35.340   9.453
 5272POPC   PO4 6744  42.292  35.310   9.153
 5272POPC   GL1 6745  42.343  35.333   8.853
 5272POPC   GL2 6746  42.293  35.480   8.853
 5272POPC   C1A 6747  42.378  35.338   8.553
 5272POPC   D2A 6748  42.297  35.352   8.253
 5272POPC   C3A 6749  42.384  35.359   7.953
 5272POPC   C4A 6750  42.316  35.382   7.653
 5272POPC   C1B 6751  42.315  35.617   8.553
 5272POPC   C2B 6752  42.340  35.640   8.253
 5272POPC   C3B 6753  42.329  35.639   7.953
 5272POPC   C4B 6754  42.355  35.610   7.653
 5273POPC   NC3 6755  32.288   9.014   9.453
 5273POPC   PO4 6756  32.296   8.997   9.153
 5273POPC   GL1 6757  32.288   9.017   8.853
 5273POPC   GL2 6758  32.118   9.014   8.853
 5273POPC   C1A 6759  32.255   8.951   8.553
 5273POPC   D2A 6760  32.223   8.968   8.253
 5273POPC   C3A 6761  32.254   8.944   7.953
 5273POPC   C4A 6762  32.219   8.928   7.653
 5273POPC   C1B 6763  32.060   9.070   8.553
 5273POPC   C2B 6764  31.993   9.019   8.253
 5273POPC   C3B 6765  32.003   9.117   7.953
 5273POPC   C4B 6766  32.033   9.100   7.653
 5274POPC   NC3 6767  26.007  44.655   9.453
 5274POPC   PO4 6768  26.080  44.646   9.153
 5274POPC   GL1 6769  26.018  44.646   8.853
 5274POPC   GL2 6770  26.113  44.648   8.853
 5274POPC   C1A 6771  26.076  44.686   8.553
 5274POPC   D2A 6772  26.083  44.655   8.253
 5274POPC   C3A 6773  26.040  44.644   7.953
 5274POPC   C4A 6774  26.018  44.619   7.653
 5274POPC   C1B 6775  26.303  44.556   8.553
 5274POPC   C2B 6776  26.278  44.550   8.253
 5274POPC   C3B 6777  26.265  44.525   7.953
 5274POPC   C4B 6778  26.242  44.527   7.653
 5275POPC   NC3 6779  34.572  18.289   9.453
 5275POPC   PO4 6780  34.531  18.303   9.153
 5275POPC   GL1 6781  34.585  18.299   8.853
 5275POPC   GL2 6782  34.435  18.383   8.853
 5275POPC   C1A 6783  34.586  18.268   8.553
 5275POPC   D2A 6784  34.607  18.278   8.253
 5275POPC   C3A 6785  34.595  18.239   7.953
 5275POPC   C4A 6786  34.549  18.331   7.653
 5275POPC   C1B 6787  34.403  18.443   8.553
 5275POPC   C2B 6788  34.340  18.393   8.253
 5275POPC   C3B 6789  34.381  18.399   7.953
 5275POPC   C4B 6790  34.332  18.367   7.653
 5276POPC   NC3 6791  24.534  40.032   9.453
 5276POPC   PO4 6792  24.517  40.033   9.153
 5276POPC   GL1 6793  24.480  39.981   8.853
 5276POPC   GL2 6794  24.367  40.084   8.853
 5276POPC   C1A 6795  24.467  40.004   8.553
 5276POPC   D2A 6796  24.532  40.046   8.253
 5276POPC   C3A 6797  24.490  39.965   7.953
 5276POPC   C4A 6798  24.502  40.013   7.653
 5276POPC   C1B 6799  24.252  40.044   8.553
 5276POPC   C2B 6800  24.284  40.121   8.253
 5276POPC   C3B 6801  24.206  40.123   7.953
 5276POPC   C4B 6802  24.275  40.070   7.653
 5277POPC   NC3 6803  28.380  20.577   9.453
 5277POPC   PO4 6804  28.334  20.645   9.153
 5277POPC   GL1 6805  28.340  20.561   8.853
 5277POPC   GL2 6806  28.369  20.704   8.853
 5277POPC   C1A 6807  28.322  20.575   8.553
 5277POPC   D2A 6808  28.378  20.613   8.253
 5277POPC   C3A 6809  28.393  20.599   7.953
 5277POPC   C4A 6810  28.342  20.570   7.653
 5277POPC   C1B 6811  28.434  20.813   8.553
 5277POPC   C2B 6812  28.435  20.898   8.253
 5277POPC   C3B 6813  28.441  20.881   7.953
 5277POPC   C4B 6814  28.493  20.803   7.653
 5278POPC   NC3 6815  37.648  33.017   9.453
 5278POPC   PO4 6816  37.638  33.040   9.153
 5278POPC   GL1 6817  37.712  33.046   8.853
 5278POPC   GL2 6818  37.633  32.858   8.853
 5278POPC   C1A 6819  37.711  33.072   8.553
 5278POPC   D2A 6820  37.691  33.054   8.253
 5278POPC   C3A 6821  37.647  32.983   7.953
 5278POPC   C4A 6822  37.635  33.031   7.653
 5278POPC   C1B 6823  37.652  32.796   8.553
 5278POPC   C2B 6824  37.569  32.758   8.253
 5278POPC   C3B 6825  37.576  32.745   7.953
 5278POPC   C4B 6826  37.589  32.740   7.653
 5279POPC   NC3 6827  38.444   1.241   9.453
 5279POPC   PO4 6828  38.430   1.234   9.153
 5279POPC   GL1 6829  38.504   1.247   8.853
 5279POPC   GL2 6830  38.447   1.310   8.853
 5279POPC   C1A 6831  38.468   1.223   8.553
 5279POPC   D2A 6832  38.409   1.191   8.253
 5279POPC   C3A 6833  38.471   1.221   7.953
 5279POPC   C4A 6834  38.483   1.180   7.653
 5279POPC   C1B 6835  38.425   1.450   8.553
 5279POPC   C2B 6836  38.446   1.443   8.253
 5279POPC   C3B 6837  38.471   1.416   7.953
 5279POPC   C4B 6838  38.460   1.417   7.653
 5280POPC   NC3 6839  41.577  17.475   9.453
 5280POPC   PO4 6840  41.538  17.467   9.153
 5280POPC   GL1 6841  41.533  17.491   8.853
 5280POPC   GL2 6842  41.685  17.558   8.853
 5280POPC   C1A 6843  41.595  17.489   8.553
 5280POPC   D2A 6844  41.565  17.544   8.253
 5280POPC   C3A 6845  41.577  17.467   7.953
 5280POPC   C4A 6846  41.532  17.473   7.653
 5280POPC   C1B 6847  41.822  17.521   8.553
 5280POPC   C2B 6848  41.848  17.540   8.253
 5280POPC   C3B 6849  41.769  17.485   7.953
 5280POPC   C4B 6850  41.795  17.489   7.653
 5281POPC   NC3 6851   3.492  39.254   9.453
 5281POPC   PO4 6852   3.499  39.260   9.153
 5281POPC   GL1 6853   3.507  39.189   8.853
 5281POPC   GL2 6854   3.467  39.229   8.853
 5281POPC   C1A 6855   3.517  39.200   8.553
 5281POPC   D2A 6856   3.505  39.223   8.253
 5281POPC   C3A 6857   3.586  39.225   7.953
 5281POPC   C4A 6858   3.584  39.206   7.653
 5281POPC   C1B 6859   3.329  39.285   8.553
 5281POPC   C2B 6860   3.268  39.289   8.253
 5281POPC   C3B 6861   3.289  39.238   7.953
 5281POPC   C4B 6862   3.300  39.261   7.653
 5282POPC   NC3 6863  40.785   2.774   9.453
 5282POPC   PO4 6864  40.790   2.762   9.153
 5282POPC   GL1 6865  40.822   2.728   8.853
 5282POPC   GL2 6866  40.874   2.609   8.853
 5282POPC   C1A 6867  40.752   2.741   8.553
 5282POPC   D2A 6868  40.812   2.774   8.253
 5282POPC   C3A 6869  40.800   2.761   7.953
 5282POPC   C4A 6870  40.784   2.766   7.653
 5282POPC   C1B 6871  40.920   2.571   8.553
 5282POPC   C2B 6872  40.831   2.555   8.253
 5282POPC   C3B 6873  40.907   2.520   7.953
 5282POPC   C4B 6874  40.831   2.558   7.653
 5283POPC   NC3 6875  44.670   9.743   9.453
 5283POPC   PO4 6876  44.690   9.726   9.153
 5283POPC   GL1 6877  44.619   9.762   8.853
 5283POPC   GL2 6878  44.690   9.880   8.853
 5283POPC   C1A 6879  44.711   9.721   8.553
 5283POPC   D2A 6880  44.661   9.737   8.253
 5283POPC   C3A 6881  44.626   9.708   7.953
 5283POPC   C4A 6882  44.629   9.711   7.653
 5283POPC   C1B 6883  44.764   9.925   8.553
 5283POPC   C2B 6884  44.760   9.923   8.253
 5283POPC   C3B 6885  44.728   9.926   7.953
 5283POPC   C4B 6886  44.822   9.959   7.653
 5284POPC   NC3 6887  44.618  41.551   9.453
 5284POPC   PO4 6888  44.642  41.575   9.153
 5284POPC   GL1 6889  44.628  41.567   8.853
 5284POPC   GL2 6890  44.735  41.522   8.853
 5284POPC   C1A 6891  44.676  41.546   8.553
 5284POPC   D2A 6892  44.637  41.530   8.253
 5284POPC   C3A 6893  44.692  41.591   7.953
 5284POPC   C4A 6894  44.633  41.570   7.653
 5284POPC   C1B 6895  44.882  41.420   8.553
 5284POPC   C2B 6896  44.889  41.419   8.253
 5284POPC   C3B 6897  44.897  41.401   7.953
 5284POPC   C4B 6898  44.842  41.391   7.653
 5285POPC   NC3 6899  44.697   5.891   9.453
 5285POPC   PO4 6900  44.635   5.871   9.153
 5285POPC   GL1 6901  44.669   5.896   8.853
 5285POPC   GL2 6902  44.584   5.818   8.853
 5285POPC   C1A 6903  44.654   5.840   8.553
 5285POPC   D2A 6904  44.683   5.889   8.253
 5285POPC   C3A 6905  44.690   5.857   7.953
 5285POPC   C4A 6906  44.634   5.906   7.653
 5285POPC   C1B 6907  44.454   5.860   8.553
 5285POPC   C2B 6908  44.365   5.853   8.253
 5285POPC   C3B 6909  44.422   5.814   7.953
 5285POPC   C4B 6910  44.407   5.863   7.653
 5286POPC   NC3 6911  31.432  30.688   9.453
 5286POPC   PO4 6912  31.460  30.659   9.153
 5286POPC   GL1 6913  31.500  30.697   8.853
 5286POPC   GL2 6914  31.596  30.676   8.853
 5286POPC   C1A 6915  31.505  30.715   8.553
 5286POPC   D2A 6916  31.514  30.692   8.253
 5286POPC   C3A 6917  31.481  30.707   7.953
 5286POPC   C4A 6918  31.470  30.650   7.653
 5286POPC   C1B 6919  31.708  30.678   8.553
 5286POPC   C2B 6920  31.727  30.762   8.253
 5286POPC   C3B 6921  31.716  30.762   7.953
 5286POPC   C4B 6922  31.741  30.760   7.653
 5287POPC   NC3 6923  40.802  30.676   9.453
 5287POPC   PO4 6924  40.738  30.670   9.153
 5287POPC   GL1 6925  40.806  30.721   8.853
 5287POPC   GL2 6926  40.889  30.818   8.853
 5287POPC   C1A 6927  40.769  30.710   8.553
 5287POPC   D2A 6928  40.826  30.660   8.253
 5287POPC   C3A 6929  40.829  30.713   7.953
 5287POPC   C4A 6930  40.781  30.706   7.653
 5287POPC   C1B 6931  40.924  30.954   8.553
 5287POPC   C2B 6932  40.949  30.952   8.253
 5287POPC   C3B 6933  40.888  30.877   7.953
 5287POPC   C4B 6934  40.952  30.952   7.653
 5288POPC   NC3 6935  44.659  25.268   9.453
 5288POPC   PO4 6936  44.662  25.255   9.153
 5288POPC   GL1 6937  44.694  25.225   8.853
 5288POPC   GL2 6938  44.620  25.176   8.853
 5288POPC   C1A 6939  44.621  25.314   8.553
 5288POPC   D2A 6940  44.662  25.253   8.253
 5288POPC   C3A 6941  44.696  25.259   7.953
 5288POPC   C4A 6942  44.632  25.291   7.653
 5288POPC   C1B 6943  44.542  24.998   8.553
 5288POPC   C2B 6944  44.496  25.028   8.253
 5288POPC   C3B 6945  44.583  25.008   7.953
 5288POPC   C4B 6946  44.574  25.018   7.653
 5289POPC   NC3 6947  12.088  28.381   9.453
 5289POPC   PO4 6948  12.104  28.320   9.153
 5289POPC   GL1 6949  12.060  28.362   8.853
 5289POPC   GL2 6950  12.128  28.427   8.853
 5289POPC   C1A 6951  12.105  28.416   8.553
 5289POPC   D2A 6952  12.054  28.365   8.253
 5289POPC   C3A 6953  12.052  28.333   7.953
 5289POPC   C4A 6954  12.035  28.326   7.653
 5289POPC   C1B 6955  12.247  28.577   8.553
 5289POPC   C2B 6956  12.289  28.582   8.253
 5289POPC   C3B 6957  12.307  28.525   7.953
 5289POPC   C4B 6958  12.246  28.555   7.653
 5290POPC   NC3 6959  12.829  34.551   9.453
 5290POPC   PO4 6960  12.833  34.602   9.153
 5290POPC   GL1 6961  12.808  34.543   8.853
 5290POPC   GL2 6962  12.774  34.675   8.853
 5290POPC   C1A 6963  12.875  34.578   8.553
 5290POPC   D2A 6964  12.871  34.546   8.253
 5290POPC   C3A 6965  12.867  34.576   7.953
 5290POPC   C4A 6966  12.871  34.582   7.653
 5290POPC   C1B 6967  12.697  34.780   8.553
 5290POPC   C2B 6968  12.747  34.805   8.253
 5290POPC   C3B 6969  12.761  34.786   7.953
 5290POPC   C4B 6970  12.694  34.800   7.653
 5291POPC   NC3 6971  23.700  32.292   9.453
 5291POPC   PO4 6972  23.669  32.200   9.153
 5291POPC   GL1 6973  23.752  32.275   8.853
 5291POPC   GL2 6974  23.858  32.262   8.853
 5291POPC   C1A 6975  23.741  32.201   8.553
 5291POPC   D2A 6976  23.718  32.266   8.253
 5291POPC   C3A 6977  23.687  32.209   7.953
 5291POPC   C4A 6978  23.727  32.271   7.653
 5291POPC   C1B 6979  24.003  32.210   8.553
 5291POPC   C2B 6980  23.961  32.192   8.253
 5291POPC   C3B 6981  23.978  32.265   7.953
 5291POPC   C4B 6982  23.932  32.272   7.653
 5292POPC   NC3 6983  43.129   8.241   9.453
 5292POPC   PO4 6984  43.060   8.195   9.153
 5292POPC   GL1 6985  43.112   8.198   8.853
 5292POPC   GL2 6986  43.180   8.073   8.853
 5292POPC   C1A 6987  43.107   8.198   8.553
 5292POPC   D2A 6988  43.074   8.217   8.253
 5292POPC   C3A 6989  43.110   8.245   7.953
 5292POPC   C4A 6990  43.146   8.240   7.653
 5292POPC   C1B 6991  43.118   7.958   8.553
 5292POPC   C2B 6992  43.183   7.933   8.253
 5292POPC   C3B 6993  43.204   7.933   7.953
 5292POPC   C4B 6994  43.194   7.998   7.653
 5293POPC   NC3 6995  37.696  19.872   9.453
 5293POPC   PO4 6996  37.692  19.839   9.153
 5293POPC   GL1 6997  37.630  19.878   8.853
 5293POPC   GL2 6998  37.693  19.958   8.853
 5293POPC   C1A 6999  37.729  19.807   8.553
 5293POPC   D2A 7000  37.658  19.821   8.253
 5293POPC   C3A 7001  37.670  19.827   7.953
 5293POPC   C4A 7002  37.672  19.856   7.653
 5293POPC   C1B 7003  37.628  20.082   8.553
 5293POPC   C2B 7004  37.660  20.045   8.253
 5293POPC   C3B 7005  37.602  20.076   7.953
 5293POPC   C4B 7006  37.621  20.063   7.653
 5294POPC   NC3 7007   9.782  21.402   9.453
 5294POPC   PO4 7008   9.791  21.425   9.153
 5294POPC   GL1 7009   9.771  21.384   8.853
 5294POPC   GL2 7010   9.671  21.438   8.853
 5294POPC   C1A 7011   9.758  21.348   8.553
 5294POPC   D2A 7012   9.755  21.367   8.253
 5294POPC   C3A 7013   9.763  21.392   7.953
 5294POPC   C4A 7014   9.719  21.361   7.653
 5294POPC   C1B 7015   9.545  21.487   8.553
 5294POPC   C2B 7016   9.507  21.563   8.253
 5294POPC   C3B 7017   9.536  21.485   7.953
 5294POPC   C4B 7018   9.564  21.480   7.653
 5295POPC   NC3 7019  44.656  24.538   9.453
 5295POPC   PO4 7020  44.662  24.452   9.153
 5295POPC   GL1 7021  44.659  24.464   8.853
 5295POPC   GL2 7022  44.574  24.459   8.853
 5295POPC   C1A 7023  44.695  24.482   8.553
 5295POPC   D2A 7024  44.657  24.507   8.253
 5295POPC   C3A 7025  44.667  24.476   7.953
 5295POPC   C4A 7026  44.627  24.492   7.653
 5295POPC   C1B 7027  44.420  24.351   8.553
 5295POPC   C2B 7028  44.510  24.306   8.253
 5295POPC   C3B 7029  44.433  24.324   7.953
 5295POPC   C4B 7030  44.506  24.284   7.653
 5296POPC   NC3 7031  22.128  36.106   9.453
 5296POPC   PO4 7032  22.112  36.094   9.153
 5296POPC   GL1 7033  22.160  36.112   8.853
 5296POPC   GL2 7034  22.212  36.251   8.853
 5296POPC   C1A 7035  22.154  36.170   8.553
 5296POPC   D2A 7036  22.183  36.112   8.253
 5296POPC   C3A 7037  22.145  36.089   7.953
 5296POPC   C4A 7038  22.169  36.079   7.653
 5296POPC   C1B 7039  22.299  36.293   8.553
 5296POPC   C2B 7040  22.340  36.327   8.253
 5296POPC   C3B 7041  22.301  36.303   7.953
 5296POPC   C4B 7042  22.258  36.381   7.653
 5297POPC   NC3 7043  43.143  20.622   9.453
 5297POPC   PO4 7044  43.134  20.613   9.153
 5297POPC   GL1 7045  43.145  20.600   8.853
 5297POPC   GL2 7046  43.196  20.723   8.853
 5297POPC   C1A 7047  43.108  20.584   8.553
 5297POPC   D2A 7048  43.112  20.657   8.253
 5297POPC   C3A 7049  43.144  20.646   7.953
 5297POPC   C4A 7050  43.121  20.561   7.653
 5297POPC   C1B 7051  43.226  20.777   8.553
 5297POPC   C2B 7052  43.311  20.804   8.253
 5297POPC   C3B 7053  43.306  20.792   7.953
 5297POPC   C4B 7054  43.216  20.845   7.653
 5298POPC   NC3 7055  37.727  22.150   9.453
 5298POPC   PO4 7056  37.692  22.178   9.153
 5298POPC   GL1 7057  37.646  22.182   8.853
 5298POPC   GL2 7058  37.841  22.137   8.853
 5298POPC   C1A 7059  37.691  22.123   8.553
 5298POPC   D2A 7060  37.669  22.151   8.253
 5298POPC   C3A 7061  37.634  22.212   7.953
 5298POPC   C4A 7062  37.708  22.132   7.653
 5298POPC   C1B 7063  37.882  22.181   8.553
 5298POPC   C2B 7064  37.962  22.156   8.253
 5298POPC   C3B 7065  37.913  22.150   7.953
 5298POPC   C4B 7066  37.916  22.204   7.653
 5299POPC   NC3 7067   0.423  26.051   9.453
 5299POPC   PO4 7068   0.399  26.038   9.153
 5299POPC   GL1 7069   0.420  26.077   8.853
 5299POPC   GL2 7070   0.567  25.991   8.853
 5299POPC   C1A 7071   0.392  26.045   8.553
 5299POPC   D2A 7072   0.404  26.068   8.253
 5299POPC   C3A 7073   0.468  26.085   7.953
 5299POPC   C4A 7074   0.478  25.995   7.653
 5299POPC   C1B 7075   0.633  25.921   8.553
 5299POPC   C2B 7076   0.689  25.857   8.253
 5299POPC   C3B 7077   0.593  25.881   7.953
 5299POPC   C4B 7078   0.598  25.874   7.653
 5300POPC   NC3 7079  23.708  26.847   9.453
 5300POPC   PO4 7080  23.701  26.845   9.153
 5300POPC   GL1 7081  23.693  26.805   8.853
 5300POPC   GL2 7082  23.769  26.982   8.853
 5300POPC   C1A 7083  23.750  26.838   8.553
 5300POPC   D2A 7084  23.668  26.806   8.253
 5300POPC   C3A 7085  23.680  26.861   7.953
 5300POPC   C4A 7086  23.687  26.771   7.653
 5300POPC   C1B 7087  23.761  27.079   8.553
 5300POPC   C2B 7088  23.699  27.067   8.253
 5300POPC   C3B 7089  23.768  27.053   7.953
 5300POPC   C4B 7090  23.718  27.040   7.653
 5301POPC   NC3 7091  15.150   9.798   9.453
 5301POPC   PO4 7092  15.192   9.728   9.153
 5301POPC   GL1 7093  15.180   9.732   8.853
 5301POPC   GL2 7094  15.155   9.636   8.853
 5301POPC   C1A 7095  15.220   9.733   8.553
 5301POPC   D2A 7096  15.192   9.776   8.253
 5301POPC   C3A 7097  15.162   9.755   7.953
 5301POPC   C4A 7098  15.212   9.781   7.653
 5301POPC   C1B 7099  15.110   9.479   8.553
 5301POPC   C2B 7100  15.090   9.516   8.253
 5301POPC   C3B 7101  15.078   9.504   7.953
 5301POPC   C4B 7102  15.145   9.490   7.653
 5302POPC   NC3 7103  33.062  20.646   9.453
 5302POPC   PO4 7104  33.009  20.581   9.153
 5302POPC   GL1 7105  33.045  20.591   8.853
 5302POPC   GL2 7106  32.925  20.536   8.853
 5302POPC   C1A 7107  33.045  20.597   8.553
 5302POPC   D2A 7108  33.027  20.608   8.253
 5302POPC   C3A 7109  33.017  20.584   7.953
 5302POPC   C4A 7110  33.004  20.596   7.653
 5302POPC   C1B 7111  32.900  20.457   8.553
 5302POPC   C2B 7112  32.836  20.380   8.253
 5302POPC   C3B 7113  32.854  20.440   7.953
 5302POPC   C4B 7114  32.889  20.381   7.653
 5303POPC   NC3 7115   1.175  38.471   9.453
 5303POPC   PO4 7116   1.243  38.501   9.153
 5303POPC   GL1 7117   1.209  38.416   8.853
 5303POPC   GL2 7118   1.074  38.570   8.853
 5303POPC   C1A 7119   1.220  38.503   8.553
 5303POPC   D2A 7120   1.185  38.439   8.253
 5303POPC   C3A 7121   1.194  38.462   7.953
 5303POPC   C4A 7122   1.190  38.494   7.653
 5303POPC   C1B 7123   1.006  38.607   8.553
 5303POPC   C2B 7124   1.039  38.601   8.253
 5303POPC   C3B 7125   1.040  38.628   7.953
 5303POPC   C4B 7126   1.015  38.591   7.653
 5304POPC   NC3 7127  38.432  26.050   9.453
 5304POPC   PO4 7128  38.458  26.046   9.153
 5304POPC   GL1 7129  38.502  26.087   8.853
 5304POPC   GL2 7130  38.579  26.155   8.853
 5304POPC   C1A 7131  38.444  26.068   8.553
 5304POPC   D2A 7132  38.432  26.042   8.253
 5304POPC   C3A 7133  38.419  25.996   7.953
 5304POPC   C4A 7134  38.477  26.044   7.653
 5304POPC   C1B 7135  38.701  26.166   8.553
 5304POPC   C2B 7136  38.696  26.173   8.253
 5304POPC   C3B 7137  38.660  26.138   7.953
 5304POPC   C4B 7138  38.627  26.224   7.653
 5305POPC   NC3 7139  36.114  17.478   9.453
 5305POPC   PO4 7140  36.142  17.538   9.153
 5305POPC   GL1 7141  36.083  17.552   8.853
 5305POPC   GL2 7142  36.162  17.643   8.853
 5305POPC   C1A 7143  36.167  17.521   8.553
 5305POPC   D2A 7144  36.174  17.508   8.253
 5305POPC   C3A 7145  36.175  17.483   7.953
 5305POPC   C4A 7146  36.138  17.513   7.653
 5305POPC   C1B 7147  36.231  17.698   8.553
 5305POPC   C2B 7148  36.195  17.745   8.253
 5305POPC   C3B 7149  36.153  17.792   7.953
 5305POPC   C4B 7150  36.163  17.711   7.653
 5306POPC   NC3 7151  11.281  42.360   9.453
 5306POPC   PO4 7152  11.334  42.384   9.153
 5306POPC   GL1 7153  11.266  42.311   8.853
 5306POPC   GL2 7154  11.235  42.255   8.853
 5306POPC   C1A 7155  11.338  42.310   8.553
 5306POPC   D2A 7156  11.278  42.350   8.253
 5306POPC   C3A 7157  11.269  42.343   7.953
 5306POPC   C4A 7158  11.270  42.358   7.653
 5306POPC   C1B 7159  11.162  42.126   8.553
 5306POPC   C2B 7160  11.181  42.082   8.253
 5306POPC   C3B 7161  11.190  42.161   7.953
 5306POPC   C4B 7162  11.218  42.121   7.653
 5307POPC   NC3 7163   5.885  10.533   9.453
 5307POPC   PO4 7164   5.863  10.495   9.153
 5307POPC   GL1 7165   5.875  10.495   8.853
 5307POPC   GL2 7166   5.812  10.353   8.853
 5307POPC   C1A 7167   5.884  10.494   8.553
 5307POPC   D2A 7168   5.830  10.564   8.253
 5307POPC   C3A 7169   5.889  10.539   7.953
 5307POPC   C4A 7170   5.831  10.553   7.653
 5307POPC   C1B 7171   5.817  10.311   8.553
 5307POPC   C2B 7172   5.888  10.275   8.253
 5307POPC   C3B 7173   5.829  10.323   7.953
 5307POPC   C4B 7174   5.840  10.257   7.653
 5308POPC   NC3 7175  32.247  15.905   9.453
 5308POPC   PO4 7176  32.267  15.924   9.153
 5308POPC   GL1 7177  32.282  15.947   8.853
 5308POPC   GL2 7178  32.273  15.849   8.853
 5308POPC   C1A 7179  32.216  15.917   8.553
 5308POPC   D2A 7180  32.206  15.913   8.253
 5308POPC   C3A 7181  32.229  15.989   7.953
 5308POPC   C4A 7182  32.220  15.999   7.653
 5308POPC   C1B 7183  32.280  15.671   8.553
 5308POPC   C2B 7184  32.272  15.747   8.253
 5308POPC   C3B 7185  32.334  15.723   7.953
 5308POPC   C4B 7186  32.302  15.750   7.653
 5309POPC   NC3 7187  25.998  25.223   9.453
 5309POPC   PO4 7188  26.058  25.234   9.153
 5309POPC   GL1 7189  26.027  25.309   8.853
 5309POPC   GL2 7190  26.191  25.318   8.853
 5309POPC   C1A 7191  26.043  25.269   8.553
 5309POPC   D2A 7192  26.078  25.273   8.253
 5309POPC   C3A 7193  26.083  25.225   7.953
 5309POPC   C4A 7194  25.994  25.262   7.653
 5309POPC   C1B 7195  26.267  25.393   8.553
 5309POPC   C2B 7196  26.275  25.346   8.253
 5309POPC   C3B 7197  26.271  25.405   7.953
 5309POPC   C4B 7198  26.262  25.415   7.653
 5310POPC   NC3 7199  17.518  38.457   9.453
 5310POPC   PO4 7200  17.557  38.416   9.153
 5310POPC   GL1 7201  17.489  38.456   8.853
 5310POPC   GL2 7202  17.484  38.613   8.853
 5310POPC   C1A 7203  17.520  38.486   8.553
 5310POPC   D2A 7204  17.528  38.456   8.253
 5310POPC   C3A 7205  17.502  38.408   7.953
 5310POPC   C4A 7206  17.487  38.435   7.653
 5310POPC   C1B 7207  17.406  38.723   8.553
 5310POPC   C2B 7208  17.348  38.723   8.253
 5310POPC   C3B 7209  17.438  38.653   7.953
 5310POPC   C4B 7210  17.445  38.702   7.653
 5311POPC   NC3 7211  38.503  19.021   9.453
 5311POPC   PO4 7212  38.430  19.029   9.153
 5311POPC   GL1 7213  38.439  19.065   8.853
 5311POPC   GL2 7214  38.589  18.979   8.853
 5311POPC   C1A 7215  38.434  19.106   8.553
 5311POPC   D2A 7216  38.492  19.045   8.253
 5311POPC   C3A 7217  38.428  19.060   7.953
 5311POPC   C4A 7218  38.471  19.099   7.653
 5311POPC   C1B 7219  38.626  18.857   8.553
 5311POPC   C2B 7220  38.654  18.919   8.253
 5311POPC   C3B 7221  38.685  18.854   7.953
 5311POPC   C4B 7222  38.654  18.896   7.653
 5312POPC   NC3 7223  29.159  36.168   9.453
 5312POPC   PO4 7224  29.163  36.091   9.153
 5312POPC   GL1 7225  29.167  36.088   8.853
 5312POPC   GL2 7226  29.049  36.054   8.853
 5312POPC   C1A 7227  29.110  36.109   8.553
 5312POPC   D2A 7228  29.156  36.149   8.253
 5312POPC   C3A 7229  29.179  36.107   7.953
 5312POPC   C4A 7230  29.111  36.086   7.653
 5312POPC   C1B 7231  28.981  36.040   8.553
 5312POPC   C2B 7232  28.923  36.019   8.253
 5312POPC   C3B 7233  28.944  36.028   7.953
 5312POPC   C4B 7234  28.907  36.034   7.653
 5313POPC   NC3 7235  44.704  11.278   9.453
 5313POPC   PO4 7236  44.686  11.259   9.153
 5313POPC   GL1 7237  44.679  11.336   8.853
 5313POPC   GL2 7238  44.628  11.159   8.853
 5313POPC   C1A 7239  44.711  11.282   8.553
 5313POPC   D2A 7240  44.653  11.347   8.253
 5313POPC   C3A 7241  44.680  11.294   7.953
 5313POPC   C4A 7242  44.631  11.273   7.653
 5313POPC   C1B 7243  44.619  11.023   8.553
 5313POPC   C2B 7244  44.583  11.047   8.253
 5313POPC   C3B 7245  44.621  11.018   7.953
 5313POPC   C4B 7246  44.623  11.109   7.653
 5314POPC   NC3 7247  44.648  19.047   9.453
 5314POPC   PO4 7248  44.666  19.028   9.153
 5314POPC   GL1 7249  44.647  19.033   8.853
 5314POPC   GL2 7250  44.648  19.221   8.853
 5314POPC   C1A 7251  44.666  19.074   8.553
 5314POPC   D2A 7252  44.618  19.090   8.253
 5314POPC   C3A 7253  44.698  19.047   7.953
 5314POPC   C4A 7254  44.641  19.095   7.653
 5314POPC   C1B 7255  44.693  19.299   8.553
 5314POPC   C2B 7256  44.680  19.277   8.253
 5314POPC   C3B 7257  44.656  19.275   7.953
 5314POPC   C4B 7258  44.704  19.344   7.653
 5315POPC   NC3 7259  12.054  26.804   9.453
 5315POPC   PO4 7260  12.106  26.813   9.153
 5315POPC   GL1 7261  12.040  26.842   8.853
 5315POPC   GL2 7262  11.963  26.862   8.853
 5315POPC   C1A 7263  12.043  26.793   8.553
 5315POPC   D2A 7264  12.031  26.789   8.253
 5315POPC   C3A 7265  12.093  26.855   7.953
 5315POPC   C4A 7266  12.055  26.807   7.653
 5315POPC   C1B 7267  11.816  26.977   8.553
 5315POPC   C2B 7268  11.829  26.926   8.253
 5315POPC   C3B 7269  11.808  26.890   7.953
 5315POPC   C4B 7270  11.867  26.890   7.653
 5316POPC   NC3 7271  26.811  36.169   9.453
 5316POPC   PO4 7272  26.812  36.143   9.153
 5316POPC   GL1 7273  26.812  36.151   8.853
 5316POPC   GL2 7274  26.733  36.124   8.853
 5316POPC   C1A 7275  26.816  36.133   8.553
 5316POPC   D2A 7276  26.819  36.079   8.253
 5316POPC   C3A 7277  26.851  36.160   7.953
 5316POPC   C4A 7278  26.818  36.145   7.653
 5316POPC   C1B 7279  26.620  36.053   8.553
 5316POPC   C2B 7280  26.627  36.084   8.253
 5316POPC   C3B 7281  26.590  36.079   7.953
 5316POPC   C4B 7282  26.537  36.045   7.653
 5317POPC   NC3 7283   9.717  34.567   9.453
 5317POPC   PO4 7284   9.709  34.526   9.153
 5317POPC   GL1 7285   9.784  34.588   8.853
 5317POPC   GL2 7286   9.644  34.531   8.853
 5317POPC   C1A 7287   9.754  34.580   8.553
 5317POPC   D2A 7288   9.699  34.549   8.253
 5317POPC   C3A 7289   9.767  34.544   7.953
 5317POPC   C4A 7290   9.765  34.567   7.653
 5317POPC   C1B 7291   9.549  34.453   8.553
 5317POPC   C2B 7292   9.513  34.473   8.253
 5317POPC   C3B 7293   9.511  34.426   7.953
 5317POPC   C4B 7294   9.494  34.468   7.653
 5318POPC   NC3 7295   9.709   3.587   9.453
 5318POPC   PO4 7296   9.759   3.529   9.153
 5318POPC   GL1 7297   9.703   3.564   8.853
 5318POPC   GL2 7298   9.726   3.455   8.853
 5318POPC   C1A 7299   9.709   3.504   8.553
 5318POPC   D2A 7300   9.740   3.514   8.253
 5318POPC   C3A 7301   9.714   3.564   7.953
 5318POPC   C4A 7302   9.750   3.584   7.653
 5318POPC   C1B 7303   9.656   3.356   8.553
 5318POPC   C2B 7304   9.659   3.319   8.253
 5318POPC   C3B 7305   9.611   3.307   7.953
 5318POPC   C4B 7306   9.622   3.296   7.653
 5319POPC   NC3 7307  14.397  44.644   9.453
 5319POPC   PO4 7308  14.429  44.626   9.153
 5319POPC   GL1 7309  14.442  44.672   8.853
 5319POPC   GL2 7310  14.409  44.574   8.853
 5319POPC   C1A 7311  14.441  44.612   8.553
 5319POPC   D2A 7312  14.384  44.618   8.253
 5319POPC   C3A 7313  14.430  44.680   7.953
 5319POPC   C4A 7314  14.440  44.694   7.653
 5319POPC   C1B 7315  14.351  44.419   8.553
 5319POPC   C2B 7316  14.386  44.381   8.253
 5319POPC   C3B 7317  14.340  44.428   7.953
 5319POPC   C4B 7318  14.407  44.408   7.653
 5320POPC   NC3 7319  29.948  20.629   9.453
 5320POPC   PO4 7320  29.872  20.561   9.153
 5320POPC   GL1 7321  29.881  20.636   8.853
 5320POPC   GL2 7322  29.867  20.507   8.853
 5320POPC   C1A 7323  29.966  20.570   8.553
 5320POPC   D2A 7324  29.957  20.656   8.253
 5320POPC   C3A 7325  29.894  20.605   7.953
 5320POPC   C4A 7326  29.904  20.645   7.653
 5320POPC   C1B 7327  29.787  20.404   8.553
 5320POPC   C2B 7328  29.732  20.405   8.253
 5320POPC   C3B 7329  29.729  20.439   7.953
 5320POPC   C4B 7330  29.779  20.418   7.653
 5321POPC   NC3 7331   7.456  22.937   9.453
 5321POPC   PO4 7332   7.389  22.987   9.153
 5321POPC   GL1 7333   7.378  22.910   8.853
 5321POPC   GL2 7334   7.473  22.872   8.853
 5321POPC   C1A 7335   7.414  22.925   8.553
 5321POPC   D2A 7336   7.451  22.977   8.253
 5321POPC   C3A 7337   7.378  22.925   7.953
 5321POPC   C4A 7338   7.419  22.953   7.653
 5321POPC   C1B 7339   7.616  22.774   8.553
 5321POPC   C2B 7340   7.638  22.735   8.253
 5321POPC   C3B 7341   7.624  22.775   7.953
 5321POPC   C4B 7342   7.561  22.748   7.653
 5322POPC   NC3 7343  32.245   9.750   9.453
 5322POPC   PO4 7344  32.235   9.749   9.153
 5322POPC   GL1 7345  32.277   9.741   8.853
 5322POPC   GL2 7346  32.290   9.607   8.853
 5322POPC   C1A 7347  32.296   9.757   8.553
 5322POPC   D2A 7348  32.245   9.797   8.253
 5322POPC   C3A 7349  32.211   9.703   7.953
 5322POPC   C4A 7350  32.258   9.723   7.653
 5322POPC   C1B 7351  32.316   9.484   8.553
 5322POPC   C2B 7352  32.341   9.474   8.253
 5322POPC   C3B 7353  32.322   9.489   7.953
 5322POPC   C4B 7354  32.295   9.545   7.653
 5323POPC   NC3 7355  35.303  11.310   9.453
 5323POPC   PO4 7356  35.386  11.259   9.153
 5323POPC   GL1 7357  35.332  11.292   8.853
 5323POPC   GL2 7358  35.231  11.220   8.853
 5323POPC   C1A 7359  35.385  11.320   8.553
 5323POPC   D2A 7360  35.372  11.305   8.253
 5323POPC   C3A 7361  35.376  11.256   7.953
 5323POPC   C4A 7362  35.347  11.306   7.653
 5323POPC   C1B 7363  35.209  11.070   8.553
 5323POPC   C2B 7364  35.208  11.126   8.253
 5323POPC   C3B 7365  35.178  11.140   7.953
 5323POPC   C4B 7366  35.183  11.098   7.653
 5324POPC   NC3 7367  26.012  19.106   9.453
 5324POPC   PO4 7368  26.048  19.019   9.153
 5324POPC   GL1 7369  26.081  19.073   8.853
 5324POPC   GL2 7370  25.981  18.906   8.853
 5324POPC   C1A 7371  26.018  19.102   8.553
 5324POPC   D2A 7372  26.026  19.104   8.253
 5324POPC   C3A 7373  26.019  19.067   7.953
 5324POPC   C4A 7374  26.039  19.103   7.653
 5324POPC   C1B 7375  25.974  18.822   8.553
 5324POPC   C2B 7376  25.934  18.853   8.253
 5324POPC   C3B 7377  25.930  18.799   7.953
 5324POPC   C4B 7378  25.981  18.828   7.653
 5325POPC   NC3 7379  32.208  40.784   9.453
 5325POPC   PO4 7380  32.222  40.748   9.153
 5325POPC   GL1 7381  32.296  40.830   8.853
 5325POPC   GL2 7382  32.351  40.646   8.853
 5325POPC   C1A 7383  32.248  40.822   8.553
 5325POPC   D2A 7384  32.251  40.742   8.253
 5325POPC   C3A 7385  32.277  40.758   7.953
 5325POPC   C4A 7386  32.266  40.763   7.653
 5325POPC   C1B 7387  32.318  40.584   8.553
 5325POPC   C2B 7388  32.360  40.519   8.253
 5325POPC   C3B 7389  32.322  40.604   7.953
 5325POPC   C4B 7390  32.346  40.593   7.653
 5326POPC   NC3 7391  25.290  40.047   9.453
 5326POPC   PO4 7392  25.315  39.966   9.153
 5326POPC   GL1 7393  25.269  40.018   8.853
 5326POPC   GL2 7394  25.112  39.960   8.853
 5326POPC   C1A 7395  25.297  39.963   8.553
 5326POPC   D2A 7396  25.276  40.051   8.253
 5326POPC   C3A 7397  25.222  39.987   7.953
 5326POPC   C4A 7398  25.306  40.026   7.653
 5326POPC   C1B 7399  25.027  39.857   8.553
 5326POPC   C2B 7400  25.081  39.876   8.253
 5326POPC   C3B 7401  25.051  39.883   7.953
 5326POPC   C4B 7402  25.082  39.919   7.653
 5327POPC   NC3 7403  24.457  35.367   9.453
 5327POPC   PO4 7404  24.524  35.366   9.153
 5327POPC   GL1 7405  24.460  35.396   8.853
 5327POPC   GL2 7406  24.383  35.377   8.853
 5327POPC   C1A 7407  24.526  35.321   8.553
 5327POPC   D2A 7408  24.490  35.329   8.253
 5327POPC   C3A 7409  24.532  35.389   7.953
 5327POPC   C4A 7410  24.483  35.358   7.653
 5327POPC   C1B 7411  24.236  35.374   8.553
 5327POPC   C2B 7412  24.228  35.442   8.253
 5327POPC   C3B 7413  24.201  35.370   7.953
 5327POPC   C4B 7414  24.250  35.367   7.653
 5328POPC   NC3 7415  33.785  35.357   9.453
 5328POPC   PO4 7416  33.825  35.305   9.153
 5328POPC   GL1 7417  33.763  35.305   8.853
 5328POPC   GL2 7418  33.734  35.428   8.853
 5328POPC   C1A 7419  33.757  35.384   8.553
 5328POPC   D2A 7420  33.846  35.397   8.253
 5328POPC   C3A 7421  33.838  35.317   7.953
 5328POPC   C4A 7422  33.836  35.362   7.653
 5328POPC   C1B 7423  33.710  35.561   8.553
 5328POPC   C2B 7424  33.714  35.584   8.253
 5328POPC   C3B 7425  33.693  35.579   7.953
 5328POPC   C4B 7426  33.700  35.587   7.653
 5329POPC   NC3 7427  30.705  21.398   9.453
 5329POPC   PO4 7428  30.647  21.382   9.153
 5329POPC   GL1 7429  30.694  21.366   8.853
 5329POPC   GL2 7430  30.549  21.400   8.853
 5329POPC   C1A 7431  30.741  21.381   8.553
 5329POPC   D2A 7432  30.706  21.397   8.253
 5329POPC   C3A 7433  30.665  21.338   7.953
 5329POPC   C4A 7434  30.718  21.412   7.653
 5329POPC   C1B 7435  30.446  21.275   8.553
 5329POPC   C2B 7436  30.475  21.352   8.253
 5329POPC   C3B 7437  30.437  21.273   7.953
 5329POPC   C4B 7438  30.479  21.297   7.653
 5330POPC   NC3 7439  44.703   6.677   9.453
 5330POPC   PO4 7440  44.664   6.635   9.153
 5330POPC   GL1 7441  44.624   6.603   8.853
 5330POPC   GL2 7442  44.708   6.768   8.853
 5330POPC   C1A 7443  44.635   6.671   8.553
 5330POPC   D2A 7444  44.630   6.653   8.253
 5330POPC   C3A 7445  44.619   6.685   7.953
 5330POPC   C4A 7446  44.614   6.601   7.653
 5330POPC   C1B 7447  44.686   6.892   8.553
 5330POPC   C2B 7448  44.690   6.942   8.253
 5330POPC   C3B 7449  44.638   6.898   7.953
 5330POPC   C4B 7450  44.694   6.943   7.653
 5331POPC   NC3 7451   3.506  19.019   9.453
 5331POPC   PO4 7452   3.578  19.040   9.153
 5331POPC   GL1 7453   3.512  19.096   8.853
 5331POPC   GL2 7454   3.575  18.928   8.853
 5331POPC   C1A 7455   3.499  19.094   8.553
 5331POPC   D2A 7456   3.502  19.076   8.253
 5331POPC   C3A 7457   3.549  19.092   7.953
 5331POPC   C4A 7458   3.528  19.039   7.653
 5331POPC   C1B 7459   3.687  18.878   8.553
 5331POPC   C2B 7460   3.613  18.835   8.253
 5331POPC   C3B 7461   3.659  18.818   7.953
 5331POPC   C4B 7462   3.621  18.803   7.653
 5332POPC   NC3 7463  36.945  27.599   9.453
 5332POPC   PO4 7464  36.857  27.593   9.153
 5332POPC   GL1 7465  36.898  27.643   8.853
 5332POPC   GL2 7466  36.819  27.652   8.853
 5332POPC   C1A 7467  36.907  27.563   8.553
 5332POPC   D2A 7468  36.869  27.549   8.253
 5332POPC   C3A 7469  36.925  27.600   7.953
 5332POPC   C4A 7470  36.936  27.572   7.653
 5332POPC   C1B 7471  36.669  27.762   8.553
 5332POPC   C2B 7472  36.686  27.757   8.253
 5332POPC   C3B 7473  36.706  27.743   7.953
 5332POPC   C4B 7474  36.720  27.726   7.653
 5333POPC   NC3 7475  30.658   8.968   9.453
 5333POPC   PO4 7476  30.666   8.949   9.153
 5333POPC   GL1 7477  30.731   9.022   8.853
 5333POPC   GL2 7478  30.599   9.060   8.853
 5333POPC   C1A 7479  30.705   8.945   8.553
 5333POPC   D2A 7480  30.647   8.994   8.253
 5333POPC   C3A 7481  30.707   9.021   7.953
 5333POPC   C4A 7482  30.705   9.016   7.653
 5333POPC   C1B 7483  30.475   9.086   8.553
 5333POPC   C2B 7484  30.519   9.064   8.253
 5333POPC   C3B 7485  30.531   9.093   7.953
 5333POPC   C4B 7486  30.454   9.073   7.653
 5334POPC   NC3 7487  23.727  33.026   9.453
 5334POPC   PO4 7488  23.669  32.996   9.153
 5334POPC   GL1 7489  23.728  33.011   8.853
 5334POPC   GL2 7490  23.767  33.189   8.853
 5334POPC   C1A 7491  23.753  33.036   8.553
 5334POPC   D2A 7492  23.715  32.985   8.253
 5334POPC   C3A 7493  23.683  33.009   7.953
 5334POPC   C4A 7494  23.678  33.033   7.653
 5334POPC   C1B 7495  23.821  33.252   8.553
 5334POPC   C2B 7496  23.748  33.279   8.253
 5334POPC   C3B 7497  23.731  33.250   7.953
 5334POPC   C4B 7498  23.733  33.280   7.653
 5335POPC   NC3 7499  22.184  26.070   9.453
 5335POPC   PO4 7500  22.201  26.059   9.153
 5335POPC   GL1 7501  22.127  26.050   8.853
 5335POPC   GL2 7502  22.206  26.130   8.853
 5335POPC   C1A 7503  22.156  26.024   8.553
 5335POPC   D2A 7504  22.150  26.004   8.253
 5335POPC   C3A 7505  22.188  26.076   7.953
 5335POPC   C4A 7506  22.166  26.016   7.653
 5335POPC   C1B 7507  22.216  26.295   8.553
 5335POPC   C2B 7508  22.253  26.275   8.253
 5335POPC   C3B 7509  22.232  26.310   7.953
 5335POPC   C4B 7510  22.171  26.277   7.653
 5336POPC   NC3 7511  13.623  24.445   9.453
 5336POPC   PO4 7512  13.616  24.449   9.153
 5336POPC   GL1 7513  13.578  24.507   8.853
 5336POPC   GL2 7514  13.506  24.570   8.853
 5336POPC   C1A 7515  13.590  24.498   8.553
 5336POPC   D2A 7516  13.651  24.512   8.253
 5336POPC   C3A 7517  13.599  24.533   7.953
 5336POPC   C4A 7518  13.620  24.454   7.653
 5336POPC   C1B 7519  13.432  24.606   8.553
 5336POPC   C2B 7520  13.419  24.593   8.253
 5336POPC   C3B 7521  13.448  24.604   7.953
 5336POPC   C4B 7522  13.391  24.626   7.653
 5337POPC   NC3 7523  15.221  38.494   9.453
 5337POPC   PO4 7524  15.139  38.486   9.153
 5337POPC   GL1 7525  15.177  38.428   8.853
 5337POPC   GL2 7526  15.323  38.575   8.853
 5337POPC   C1A 7527  15.146  38.486   8.553
 5337POPC   D2A 7528  15.167  38.405   8.253
 5337POPC   C3A 7529  15.187  38.463   7.953
 5337POPC   C4A 7530  15.170  38.456   7.653
 5337POPC   C1B 7531  15.328  38.573   8.553
 5337POPC   C2B 7532  15.336  38.626   8.253
 5337POPC   C3B 7533  15.378  38.622   7.953
 5337POPC   C4B 7534  15.388  38.618   7.653
 5338POPC   NC3 7535   2.720   5.915   9.453
 5338POPC   PO4 7536   2.768   5.906   9.153
 5338POPC   GL1 7537   2.767   5.885   8.853
 5338POPC   GL2 7538   2.810   5.795   8.853
 5338POPC   C1A 7539   2.730   5.861   8.553
 5338POPC   D2A 7540   2.727   5.858   8.253
 5338POPC   C3A 7541   2.751   5.826   7.953
 5338POPC   C4A 7542   2.722   5.875   7.653
 5338POPC   C1B 7543   2.820   5.629   8.553
 5338POPC   C2B 7544   2.891   5.654   8.253
 5338POPC   C3B 7545   2.810   5.678   7.953
 5338POPC   C4B 7546   2.861   5.666   7.653
 5339POPC   NC3 7547  14.368   5.065   9.453
 5339POPC   PO4 7548  14.432   5.115   9.153
 5339POPC   GL1 7549  14.439   5.093   8.853
 5339POPC   GL2 7550  14.282   5.020   8.853
 5339POPC   C1A 7551  14.450   5.083   8.553
 5339POPC   D2A 7552  14.383   5.139   8.253
 5339POPC   C3A 7553  14.413   5.096   7.953
 5339POPC   C4A 7554  14.425   5.140   7.653
 5339POPC   C1B 7555  14.158   4.944   8.553
 5339POPC   C2B 7556  14.197   4.966   8.253
 5339POPC   C3B 7557  14.157   4.962   7.953
 5339POPC   C4B 7558  14.206   4.963   7.653
 5340POPC   NC3 7559  15.166  42.325   9.453
 5340POPC   PO4 7560  15.161  42.347   9.153
 5340POPC   GL1 7561  15.140  42.292   8.853
 5340POPC   GL2 7562  15.020  42.324   8.853
 5340POPC   C1A 7563  15.218  42.370   8.553
 5340POPC   D2A 7564  15.179  42.337   8.253
 5340POPC   C3A 7565  15.181  42.344   7.953
 5340POPC   C4A 7566  15.149  42.304   7.653
 5340POPC   C1B 7567  14.950  42.321   8.553
 5340POPC   C2B 7568  14.950  42.277   8.253
 5340POPC   C3B 7569  14.920  42.297   7.953
 5340POPC   C4B 7570  14.907  42.243   7.653
 5341POPC   NC3 7571  12.059   1.984   9.453
 5341POPC   PO4 7572  12.027   1.991   9.153
 5341POPC   GL1 7573  12.063   1.962   8.853
 5341POPC   GL2 7574  11.922   1.975   8.853
 5341POPC   C1A 7575  12.121   2.016   8.553
 5341POPC   D2A 7576  12.029   2.038   8.253
 5341POPC   C3A 7577  12.054   1.952   7.953
 5341POPC   C4A 7578  12.106   1.963   7.653
 5341POPC   C1B 7579  11.852   1.971   8.553
 5341POPC   C2B 7580  11.851   1.923   8.253
 5341POPC   C3B 7581  11.869   1.951   7.953
 5341POPC   C4B 7582  11.857   1.937   7.653
 5342POPC   NC3 7583  19.075  31.517   9.453
 5342POPC   PO4 7584  19.059  31.427   9.153
 5342POPC   GL1 7585  19.021  31.483   8.853
 5342POPC   GL2 7586  19.129  31.486   8.853
 5342POPC   C1A 7587  19.012  31.453   8.553
 5342POPC   D2A 7588  19.107  31.462   8.253
 5342POPC   C3A 7589  19.080  31.480   7.953
 5342POPC   C4A 7590  19.043  31.486   7.653
 5342POPC   C1B 7591  19.297  31.545   8.553
 5342POPC   C2B 7592  19.295  31.559   8.253
 5342POPC   C3B 7593  19.245  31.607   7.953
 5342POPC   C4B 7594  19.292  31.572   7.653
 5343POPC   NC3 7595  26.788  14.359   9.453
 5343POPC   PO4 7596  26.768  14.413   9.153
 5343POPC   GL1 7597  26.863  14.448   8.853
 5343POPC   GL2 7598  26.810  14.248   8.853
 5343POPC   C1A 7599  26.840  14.418   8.553
 5343POPC   D2A 7600  26.823  14.362   8.253
 5343POPC   C3A 7601  26.838  14.440   7.953
 5343POPC   C4A 7602  26.774  14.357   7.653
 5343POPC   C1B 7603  26.741  14.157   8.553
 5343POPC   C2B 7604  26.736  14.130   8.253
 5343POPC   C3B 7605  26.749  14.171   7.953
 5343POPC   C4B 7606  26.706  14.188   7.653
 5344POPC   NC3 7607  29.126  40.734   9.453
 5344POPC   PO4 7608  29.113  40.764   9.153
 5344POPC   GL1 7609  29.157  40.736   8.853
 5344POPC   GL2 7610  29.001  40.733   8.853
 5344POPC   C1A 7611  29.116  40.788   8.553
 5344POPC   D2A 7612  29.191  40.763   8.253
 5344POPC   C3A 7613  29.118  40.815   7.953
 5344POPC   C4A 7614  29.152  40.827   7.653
 5344POPC   C1B 7615  28.949  40.692   8.553
 5344POPC   C2B 7616  28.911  40.714   8.253
 5344POPC   C3B 7617  28.874  40.638   7.953
 5344POPC   C4B 7618  28.879  40.703   7.653
 5345POPC   NC3 7619  23.740  24.536   9.453
 5345POPC   PO4 7620  23.702  24.452   9.153
 5345POPC   GL1 7621  23.678  24.510   8.853
 5345POPC   GL2 7622  23.881  24.533   8.853
 5345POPC   C1A 7623  23.664  24.488   8.553
 5345POPC   D2A 7624  23.674  24.450   8.253
 5345POPC   C3A 7625  23.667  24.443   7.953
 5345POPC   C4A 7626  23.680  24.460   7.653
 5345POPC   C1B 7627  23.958  24.534   8.553
 5345POPC   C2B 7628  23.953  24.584   8.253
 5345POPC   C3B 7629  23.975  24.596   7.953
 5345POPC   C4B 7630  23.958  24.597   7.653
 5346POPC   NC3 7631   1.244  14.389   9.453
 5346POPC   PO4 7632   1.216  14.354   9.153
 5346POPC   GL1 7633   1.203  14.433   8.853
 5346POPC   GL2 7634   1.065  14.440   8.853
 5346POPC   C1A 7635   1.228  14.400   8.553
 5346POPC   D2A 7636   1.203  14.436   8.253
 5346POPC   C3A 7637   1.202  14.436   7.953
 5346POPC   C4A 7638   1.200  14.403   7.653
 5346POPC   C1B 7639   0.951  14.479   8.553
 5346POPC   C2B 7640   1.018  14.502   8.253
 5346POPC   C3B 7641   0.930  14.509   7.953
 5346POPC   C4B 7642   1.008  14.476   7.653
 5347POPC   NC3 7643  22.163  10.573   9.453
 5347POPC   PO4 7644  22.115  10.543   9.153
 5347POPC   GL1 7645  22.120  10.476   8.853
 5347POPC   GL2 7646  22.087  10.374   8.853
 5347POPC   C1A 7647  22.193  10.496   8.553
 5347POPC   D2A 7648  22.154  10.499   8.253
 5347POPC   C3A 7649  22.118  10.573   7.953
 5347POPC   C4A 7650  22.132  10.499   7.653
 5347POPC   C1B 7651  22.048  10.307   8.553
 5347POPC   C2B 7652  21.996  10.281   8.253
 5347POPC   C3B 7653  22.069  10.327   7.953
 5347POPC   C4B 7654  22.046  10.288   7.653
 5348POPC   NC3 7655   0.460   6.693   9.453
 5348POPC   PO4 7656   0.465   6.644   9.153
 5348POPC   GL1 7657   0.430   6.675   8.853
 5348POPC   GL2 7658   0.579   6.628   8.853
 5348POPC   C1A 7659   0.468   6.598   8.553
 5348POPC   D2A 7660   0.416   6.621   8.253
 5348POPC   C3A 7661   0.461   6.650   7.953
 5348POPC   C4A 7662   0.429   6.685   7.653
 5348POPC   C1B 7663   0.649   6.666   8.553
 5348POPC   C2B 7664   0.680   6.641   8.253
 5348POPC   C3B 7665   0.643   6.687   7.953
 5348POPC   C4B 7666   0.659   6.605   7.653
 5349POPC   NC3 7667  40.764   8.224   9.453
 5349POPC   PO4 7668  40.800   8.183   9.153
 5349POPC   GL1 7669  40.795   8.152   8.853
 5349POPC   GL2 7670  40.806   8.290   8.853
 5349POPC   C1A 7671  40.774   8.220   8.553
 5349POPC   D2A 7672  40.780   8.152   8.253
 5349POPC   C3A 7673  40.752   8.173   7.953
 5349POPC   C4A 7674  40.787   8.205   7.653
 5349POPC   C1B 7675  40.807   8.490   8.553
 5349POPC   C2B 7676  40.846   8.406   8.253
 5349POPC   C3B 7677  40.786   8.412   7.953
 5349POPC   C4B 7678  40.842   8.478   7.653
 5350POPC   NC3 7679  43.107  19.080   9.453
 5350POPC   PO4 7680  43.092  19.016   9.153
 5350POPC   GL1 7681  43.114  19.044   8.853
 5350POPC   GL2 7682  43.203  18.974   8.853
 5350POPC   C1A 7683  43.090  19.045   8.553
 5350POPC   D2A 7684  43.090  19.059   8.253
 5350POPC   C3A 7685  43.116  19.090   7.953
 5350POPC   C4A 7686  43.071  19.046   7.653
 5350POPC   C1B 7687  43.209  18.865   8.553
 5350POPC   C2B 7688  43.203  18.830   8.253
 5350POPC   C3B 7689  43.270  18.797   7.953
 5350POPC   C4B 7690  43.201  18.811   7.653
 5351POPC   NC3 7691  30.679  33.802   9.453
 5351POPC   PO4 7692  30.734  33.809   9.153
 5351POPC   GL1 7693  30.738  33.839   8.853
 5351POPC   GL2 7694  30.541  33.909   8.853
 5351POPC   C1A 7695  30.669  33.819   8.553
 5351POPC   D2A 7696  30.715  33.813   8.253
 5351POPC   C3A 7697  30.659  33.786   7.953
 5351POPC   C4A 7698  30.655  33.846   7.653
 5351POPC   C1B 7699  30.498  33.940   8.553
 5351POPC   C2B 7700  30.447  33.934   8.253
 5351POPC   C3B 7701  30.482  33.886   7.953
 5351POPC   C4B 7702  30.470  33.901   7.653
 5352POPC   NC3 7703  36.164  31.495   9.453
 5352POPC   PO4 7704  36.087  31.462   9.153
 5352POPC   GL1 7705  36.166  31.453   8.853
 5352POPC   GL2 7706  36.204  31.483   8.853
 5352POPC   C1A 7707  36.094  31.465   8.553
 5352POPC   D2A 7708  36.162  31.493   8.253
 5352POPC   C3A 7709  36.118  31.484   7.953
 5352POPC   C4A 7710  36.154  31.426   7.653
 5352POPC   C1B 7711  36.359  31.466   8.553
 5352POPC   C2B 7712  36.345  31.508   8.253
 5352POPC   C3B 7713  36.377  31.515   7.953
 5352POPC   C4B 7714  36.337  31.471   7.653
 5353POPC   NC3 7715  12.879  22.908   9.453
 5353POPC   PO4 7716  12.803  22.975   9.153
 5353POPC   GL1 7717  12.825  22.961   8.853
 5353POPC   GL2 7718  12.942  22.818   8.853
 5353POPC   C1A 7719  12.804  22.904   8.553
 5353POPC   D2A 7720  12.824  22.917   8.253
 5353POPC   C3A 7721  12.839  22.958   7.953
 5353POPC   C4A 7722  12.894  22.986   7.653
 5353POPC   C1B 7723  13.011  22.758   8.553
 5353POPC   C2B 7724  12.954  22.721   8.253
 5353POPC   C3B 7725  13.016  22.781   7.953
 5353POPC   C4B 7726  13.024  22.742   7.653
 5354POPC   NC3 7727  36.132  34.527   9.453
 5354POPC   PO4 7728  36.139  34.543   9.153
 5354POPC   GL1 7729  36.098  34.554   8.853
 5354POPC   GL2 7730  36.061  34.517   8.853
 5354POPC   C1A 7731  36.132  34.563   8.553
 5354POPC   D2A 7732  36.131  34.537   8.253
 5354POPC   C3A 7733  36.141  34.546   7.953
 5354POPC   C4A 7734  36.168  34.609   7.653
 5354POPC   C1B 7735  35.934  34.445   8.553
 5354POPC   C2B 7736  35.912  34.434   8.253
 5354POPC   C3B 7737  35.911  34.351   7.953
 5354POPC   C4B 7738  35.910  34.420   7.653
 5355POPC   NC3 7739  31.426   0.438   9.453
 5355POPC   PO4 7740  31.427   0.430   9.153
 5355POPC   GL1 7741  31.423   0.464   8.853
 5355POPC   GL2 7742  31.346   0.436   8.853
 5355POPC   C1A 7743  31.426   0.467   8.553
 5355POPC   D2A 7744  31.449   0.390   8.253
 5355POPC   C3A 7745  31.491   0.392   7.953
 5355POPC   C4A 7746  31.466   0.459   7.653
 5355POPC   C1B 7747  31.239   0.511   8.553
 5355POPC   C2B 7748  31.208   0.534   8.253
 5355POPC   C3B 7749  31.192   0.522   7.953
 5355POPC   C4B 7750  31.238   0.529   7.653
 5356POPC   NC3 7751  32.265  40.036   9.453
 5356POPC   PO4 7752  32.203  39.989   9.153
 5356POPC   GL1 7753  32.215  40.055   8.853
 5356POPC   GL2 7754  32.194  40.108   8.853
 5356POPC   C1A 7755  32.217  40.011   8.553
 5356POPC   D2A 7756  32.223  40.012   8.253
 5356POPC   C3A 7757  32.268  39.987   7.953
 5356POPC   C4A 7758  32.236  40.003   7.653
 5356POPC   C1B 7759  32.178  40.289   8.553
 5356POPC   C2B 7760  32.211  40.200   8.253
 5356POPC   C3B 7761  32.126  40.262   7.953
 5356POPC   C4B 7762  32.115  40.246   7.653
 5357POPC   NC3 7763  39.265  41.526   9.453
 5357POPC   PO4 7764  39.239  41.515   9.153
 5357POPC   GL1 7765  39.252  41.526   8.853
 5357POPC   GL2 7766  39.366  41.598   8.853
 5357POPC   C1A 7767  39.224  41.594   8.553
 5357POPC   D2A 7768  39.219  41.514   8.253
 5357POPC   C3A 7769  39.182  41.563   7.953
 5357POPC   C4A 7770  39.251  41.598   7.653
 5357POPC   C1B 7771  39.447  41.703   8.553
 5357POPC   C2B 7772  39.392  41.685   8.253
 5357POPC   C3B 7773  39.429  41.723   7.953
 5357POPC   C4B 7774  39.386  41.759   7.653
 5358POPC   NC3 7775   5.867  12.040   9.453
 5358POPC   PO4 7776   5.875  12.034   9.153
 5358POPC   GL1 7777   5.891  12.053   8.853
 5358POPC   GL2 7778   5.860  12.212   8.853
 5358POPC   C1A 7779   5.869  12.096   8.553
 5358POPC   D2A 7780   5.854  12.071   8.253
 5358POPC   C3A 7781   5.840  12.029   7.953
 5358POPC   C4A 7782   5.857  12.125   7.653
 5358POPC   C1B 7783   5.907  12.353   8.553
 5358POPC   C2B 7784   5.949  12.356   8.253
 5358POPC   C3B 7785   5.933  12.358   7.953
 5358POPC   C4B 7786   5.960  12.290   7.653
 5359POPC   NC3 7787  27.604  43.886   9.453
 5359POPC   PO4 7788  27.579  43.902   9.153
 5359POPC   GL1 7789  27.560  43.865   8.853
 5359POPC   GL2 7790  27.633  43.751   8.853
 5359POPC   C1A 7791  27.572  43.863   8.553
 5359POPC   D2A 7792  27.571  43.926   8.253
 5359POPC   C3A 7793  27.641  43.869   7.953
 5359POPC   C4A 7794  27.551  43.845   7.653
 5359POPC   C1B 7795  27.668  43.655   8.553
 5359POPC   C2B 7796  27.711  43.655   8.253
 5359POPC   C3B 7797  27.703  43.651   7.953
 5359POPC   C4B 7798  27.655  43.656   7.653
 5360POPC   NC3 7799   8.950  35.321   9.453
 5360POPC   PO4 7800   9.008  35.398   9.153
 5360POPC   GL1 7801   8.990  35.392   8.853
 5360POPC   GL2 7802   8.889  35.441   8.853
 5360POPC   C1A 7803   9.018  35.328   8.553
 5360POPC   D2A 7804   9.017  35.374   8.253
 5360POPC   C3A 7805   9.014  35.359   7.953
 5360POPC   C4A 7806   8.945  35.352   7.653
 5360POPC   C1B 7807   8.821  35.525   8.553
 5360POPC   C2B 7808   8.809  35.501   8.253
 5360POPC   C3B 7809   8.811  35.555   7.953
 5360POPC   C4B 7810   8.760  35.474   7.653
 5361POPC   NC3 7811   5.112  15.931   9.453
 5361POPC   PO4 7812   5.115  15.950   9.153
 5361POPC   GL1 7813   5.064  15.994   8.853
 5361POPC   GL2 7814   5.138  16.126   8.853
 5361POPC   C1A 7815   5.137  16.004   8.553
 5361POPC   D2A 7816   5.068  15.970   8.253
 5361POPC   C3A 7817   5.117  15.958   7.953
 5361POPC   C4A 7818   5.058  15.914   7.653
 5361POPC   C1B 7819   5.120  16.204   8.553
 5361POPC   C2B 7820   5.097  16.221   8.253
 5361POPC   C3B 7821   5.146  16.191   7.953
 5361POPC   C4B 7822   5.147  16.183   7.653
 5362POPC   NC3 7823   7.409  43.066   9.453
 5362POPC   PO4 7824   7.469  43.144   9.153
 5362POPC   GL1 7825   7.385  43.072   8.853
 5362POPC   GL2 7826   7.466  43.013   8.853
 5362POPC   C1A 7827   7.393  43.159   8.553
 5362POPC   D2A 7828   7.418  43.095   8.253
 5362POPC   C3A 7829   7.436  43.150   7.953
 5362POPC   C4A 7830   7.432  43.126   7.653
 5362POPC   C1B 7831   7.456  42.916   8.553
 5362POPC   C2B 7832   7.435  42.886   8.253
 5362POPC   C3B 7833   7.503  42.835   7.953
 5362POPC   C4B 7834   7.437  42.829   7.653
 5363POPC   NC3 7835   5.082  36.913   9.453
 5363POPC   PO4 7836   5.101  36.870   9.153
 5363POPC   GL1 7837   5.096  36.894   8.853
 5363POPC   GL2 7838   4.994  37.014   8.853
 5363POPC   C1A 7839   5.065  36.873   8.553
 5363POPC   D2A 7840   5.065  36.874   8.253
 5363POPC   C3A 7841   5.062  36.918   7.953
 5363POPC   C4A 7842   5.049  36.861   7.653
 5363POPC   C1B 7843   4.904  37.092   8.553
 5363POPC   C2B 7844   4.930  37.128   8.253
 5363POPC   C3B 7845   4.982  37.129   7.953
 5363POPC   C4B 7846   4.926  37.059   7.653
 5364POPC   NC3 7847  30.743  43.901   9.453
 5364POPC   PO4 7848  30.697  43.867   9.153
 5364POPC   GL1 7849  30.662  43.923   8.853
 5364POPC   GL2 7850  30.748  43.781   8.853
 5364POPC   C1A 7851  30.732  43.844   8.553
 5364POPC   D2A 7852  30.739  43.887   8.253
 5364POPC   C3A 7853  30.668  43.871   7.953
 5364POPC   C4A 7854  30.741  43.856   7.653
 5364POPC   C1B 7855  30.817  43.730   8.553
 5364POPC   C2B 7856  30.862  43.736   8.253
 5364POPC   C3B 7857  30.900  43.669   7.953
 5364POPC   C4B 7858  30.892  43.643   7.653
 5365POPC   NC3 7859   1.236  39.197   9.453
 5365POPC   PO4 7860   1.214  39.183   9.153
 5365POPC   GL1 7861   1.253  39.194   8.853
 5365POPC   GL2 7862   1.115  39.280   8.853
 5365POPC   C1A 7863   1.216  39.186   8.553
 5365POPC   D2A 7864   1.169  39.186   8.253
 5365POPC   C3A 7865   1.200  39.275   7.953
 5365POPC   C4A 7866   1.218  39.201   7.653
 5365POPC   C1B 7867   0.924  39.290   8.553
 5365POPC   C2B 7868   0.926  39.220   8.253
 5365POPC   C3B 7869   0.971  39.218   7.953
 5365POPC   C4B 7870   0.975  39.246   7.653
 5366POPC   NC3 7871  41.573  27.593   9.453
 5366POPC   PO4 7872  41.541  27.607   9.153
 5366POPC   GL1 7873  41.551  27.595   8.853
 5366POPC   GL2 7874  41.494  27.684   8.853
 5366POPC   C1A 7875  41.604  27.548   8.553
 5366POPC   D2A 7876  41.578  27.548   8.253
 5366POPC   C3A 7877  41.551  27.614   7.953
 5366POPC   C4A 7878  41.606  27.598   7.653
 5366POPC   C1B 7879  41.317  27.665   8.553
 5366POPC   C2B 7880  41.282  27.725   8.253
 5366POPC   C3B 7881  41.343  27.692   7.953
 5366POPC   C4B 7882  41.315  27.714   7.653
 5367POPC   NC3 7883  39.276  36.162   9.453
 5367POPC   PO4 7884  39.203  36.113   9.153
 5367POPC   GL1 7885  39.238  36.160   8.853
 5367POPC   GL2 7886  39.248  35.980   8.853
 5367POPC   C1A 7887  39.241  36.155   8.553
 5367POPC   D2A 7888  39.186  36.132   8.253
 5367POPC   C3A 7889  39.229  36.168   7.953
 5367POPC   C4A 7890  39.196  36.092   7.653
 5367POPC   C1B 7891  39.221  35.836   8.553
 5367POPC   C2B 7892  39.208  35.877   8.253
 5367POPC   C3B 7893  39.208  35.870   7.953
 5367POPC   C4B 7894  39.227  35.845   7.653
 5368POPC   NC3 7895   7.372  28.384   9.453
 5368POPC   PO4 7896   7.392  28.320   9.153
 5368POPC   GL1 7897   7.448  28.379   8.853
 5368POPC   GL2 7898   7.371  28.507   8.853
 5368POPC   C1A 7899   7.420  28.394   8.553
 5368POPC   D2A 7900   7.456  28.349   8.253
 5368POPC   C3A 7901   7.399  28.338   7.953
 5368POPC   C4A 7902   7.464  28.349   7.653
 5368POPC   C1B 7903   7.385  28.648   8.553
 5368POPC   C2B 7904   7.432  28.587   8.253
 5368POPC   C3B 7905   7.362  28.637   7.953
 5368POPC   C4B 7906   7.379  28.642   7.653
 5369POPC   NC3 7907  43.108  41.513   9.453
 5369POPC   PO4 7908  43.142  41.595   9.153
 5369POPC   GL1 7909  43.074  41.540   8.853
 5369POPC   GL2 7910  43.188  41.627   8.853
 5369POPC   C1A 7911  43.112  41.519   8.553
 5369POPC   D2A 7912  43.118  41.576   8.253
 5369POPC   C3A 7913  43.082  41.600   7.953
 5369POPC   C4A 7914  43.115  41.575   7.653
 5369POPC   C1B 7915  43.394  41.574   8.553
 5369POPC   C2B 7916  43.373  41.599   8.253
 5369POPC   C3B 7917  43.309  41.655   7.953
 5369POPC   C4B 7918  43.345  41.634   7.653
 5370POPC   NC3 7919   7.441  12.860   9.453
 5370POPC   PO4 7920   7.412  12.847   9.153
 5370POPC   GL1 7921   7.416  12.893   8.853
 5370POPC   GL2 7922   7.453  12.757   8.853
 5370POPC   C1A 7923   7.417  12.832   8.553
 5370POPC   D2A 7924   7.466  12.879   8.253
 5370POPC   C3A 7925   7.452  12.847   7.953
 5370POPC   C4A 7926   7.409  12.828   7.653
 5370POPC   C1B 7927   7.434  12.622   8.553
 5370POPC   C2B 7928   7.438  12.610   8.253
 5370POPC   C3B 7929   7.501  12.655   7.953
 5370POPC   C4B 7930   7.510  12.573   7.653
 5371POPC   NC3 7931   1.963  13.605   9.453
 5371POPC   PO4 7932   1.980  13.630   9.153
 5371POPC   GL1 7933   1.957  13.643   8.853
 5371POPC   GL2 7934   2.069  13.678   8.853
 5371POPC   C1A 7935   1.982  13.615   8.553
 5371POPC   D2A 7936   1.975  13.653   8.253
 5371POPC   C3A 7937   1.959  13.673   7.953
 5371POPC   C4A 7938   2.034  13.656   7.653
 5371POPC   C1B 7939   2.228  13.731   8.553
 5371POPC   C2B 7940   2.153  13.809   8.253
 5371POPC   C3B 7941   2.229  13.735   7.953
 5371POPC   C4B 7942   2.202  13.789   7.653
 5372POPC   NC3 7943  23.756  43.156   9.453
 5372POPC   PO4 7944  23.699  43.136   9.153
 5372POPC   GL1 7945  23.674  43.141   8.853
 5372POPC   GL2 7946  23.708  42.990   8.853
 5372POPC   C1A 7947  23.736  43.139   8.553
 5372POPC   D2A 7948  23.691  43.123   8.253
 5372POPC   C3A 7949  23.716  43.135   7.953
 5372POPC   C4A 7950  23.749  43.142   7.653
 5372POPC   C1B 7951  23.766  42.887   8.553
 5372POPC   C2B 7952  23.751  42.912   8.253
 5372POPC   C3B 7953  23.717  42.877   7.953
 5372POPC   C4B 7954  23.795  42.866   7.653
 5373POPC   NC3 7955  12.069  16.749   9.453
 5373POPC   PO4 7956  12.065  16.712   9.153
 5373POPC   GL1 7957  12.090  16.726   8.853
 5373POPC   GL2 7958  12.056  16.616   8.853
 5373POPC   C1A 7959  12.124  16.768   8.553
 5373POPC   D2A 7960  12.070  16.724   8.253
 5373POPC   C3A 7961  12.091  16.722   7.953
 5373POPC   C4A 7962  12.125  16.701   7.653
 5373POPC   C1B 7963  12.000  16.547   8.553
 5373POPC   C2B 7964  11.946  16.476   8.253
 5373POPC   C3B 7965  11.982  16.466   7.953
 5373POPC   C4B 7966  11.913  16.509   7.653
 5374POPC   NC3 7967  34.600   9.764   9.453
 5374POPC   PO4 7968  34.569   9.702   9.153
 5374POPC   GL1 7969  34.549   9.723   8.853
 5374POPC   GL2 7970  34.547   9.856   8.853
 5374POPC   C1A 7971  34.553   9.723   8.553
 5374POPC   D2A 7972  34.545   9.775   8.253
 5374POPC   C3A 7973  34.531   9.782   7.953
 5374POPC   C4A 7974  34.624   9.746   7.653
 5374POPC   C1B 7975  34.520  10.006   8.553
 5374POPC   C2B 7976  34.543  10.004   8.253
 5374POPC   C3B 7977  34.493   9.995   7.953
 5374POPC   C4B 7978  34.497   9.991   7.653
 5375POPC   NC3 7979  22.163  44.704   9.453
 5375POPC   PO4 7980  22.157  44.655   9.153
 5375POPC   GL1 7981  22.135  44.709   8.853
 5375POPC   GL2 7982  22.245  44.564   8.853
 5375POPC   C1A 7983  22.149  44.639   8.553
 5375POPC   D2A 7984  22.171  44.671   8.253
 5375POPC   C3A 7985  22.112  44.702   7.953
 5375POPC   C4A 7986  22.150  44.689   7.653
 5375POPC   C1B 7987  22.325  44.465   8.553
 5375POPC   C2B 7988  22.381  44.527   8.253
 5375POPC   C3B 7989  22.409  44.473   7.953
 5375POPC   C4B 7990  22.328  44.535   7.653
 5376POPC   NC3 7991  42.298  34.589   9.453
 5376POPC   PO4 7992  42.323  34.565   9.153
 5376POPC   GL1 7993  42.313  34.553   8.853
 5376POPC   GL2 7994  42.186  34.627   8.853
 5376POPC   C1A 7995  42.321  34.556   8.553
 5376POPC   D2A 7996  42.334  34.624   8.253
 5376POPC   C3A 7997  42.367  34.588   7.953
 5376POPC   C4A 7998  42.296  34.545   7.653
 5376POPC   C1B 7999  42.038  34.603   8.553
 5376POPC   C2B 8000  42.068  34.565   8.253
 5376POPC   C3B 8001  42.074  34.591   7.953
 5376POPC   C4B 8002  42.080  34.638   7.653
 5377POPC   NC3 8003   5.062  40.829   9.453
 5377POPC   PO4 8004   5.051  40.827   9.153
 5377POPC   GL1 8005   5.135  40.763   8.853
 5377POPC   GL2 8006   5.000  40.687   8.853
 5377POPC   C1A 8007   5.122  40.816   8.553
 5377POPC   D2A 8008   5.097  40.737   8.253
 5377POPC   C3A 8009   5.059  40.753   7.953
 5377POPC   C4A 8010   5.067  40.738   7.653
 5377POPC   C1B 8011   4.895  40.718   8.553
 5377POPC   C2B 8012   4.833  40.636   8.253
 5377POPC   C3B 8013   4.860  40.717   7.953
 5377POPC   C4B 8014   4.843  40.627   7.653
 5378POPC   NC3 8015   5.905  42.333   9.453
 5378POPC   PO4 8016   5.900  42.347   9.153
 5378POPC   GL1 8017   5.847  42.365   8.853
 5378POPC   GL2 8018   5.854  42.487   8.853
 5378POPC   C1A 8019   5.877  42.381   8.553
 5378POPC   D2A 8020   5.855  42.375   8.253
 5378POPC   C3A 8021   5.901  42.307   7.953
 5378POPC   C4A 8022   5.836  42.294   7.653
 5378POPC   C1B 8023   5.782  42.554   8.553
 5378POPC   C2B 8024   5.788  42.589   8.253
 5378POPC   C3B 8025   5.813  42.548   7.953
 5378POPC   C4B 8026   5.803  42.534   7.653
 5379POPC   NC3 8027   5.827  13.618   9.453
 5379POPC   PO4 8028   5.852  13.645   9.153
 5379POPC   GL1 8029   5.877  13.635   8.853
 5379POPC   GL2 8030   5.951  13.652   8.853
 5379POPC   C1A 8031   5.896  13.650   8.553
 5379POPC   D2A 8032   5.867  13.622   8.253
 5379POPC   C3A 8033   5.917  13.645   7.953
 5379POPC   C4A 8034   5.913  13.673   7.653
 5379POPC   C1B 8035   6.131  13.714   8.553
 5379POPC   C2B 8036   6.066  13.764   8.253
 5379POPC   C3B 8037   6.043  13.702   7.953
 5379POPC   C4B 8038   6.106  13.745   7.653
 5380POPC   NC3 8039  30.663  18.307   9.453
 5380POPC   PO4 8040  30.653  18.295   9.153
 5380POPC   GL1 8041  30.659  18.329   8.853
 5380POPC   GL2 8042  30.734  18.145   8.853
 5380POPC   C1A 8043  30.680  18.292   8.553
 5380POPC   D2A 8044  30.722  18.277   8.253
 5380POPC   C3A 8045  30.661  18.270   7.953
 5380POPC   C4A 8046  30.663  18.257   7.653
 5380POPC   C1B 8047  30.760  18.093   8.553
 5380POPC   C2B 8048  30.801  18.051   8.253
 5380POPC   C3B 8049  30.773  18.007   7.953
 5380POPC   C4B 8050  30.779  18.019   7.653
 5381POPC   NC3 8051  20.644   9.015   9.453
 5381POPC   PO4 8052  20.650   8.972   9.153
 5381POPC   GL1 8053  20.629   8.943   8.853
 5381POPC   GL2 8054  20.716   9.011   8.853
 5381POPC   C1A 8055  20.648   8.933   8.553
 5381POPC   D2A 8056  20.616   9.012   8.253
 5381POPC   C3A 8057  20.630   8.976   7.953
 5381POPC   C4A 8058  20.647   8.965   7.653
 5381POPC   C1B 8059  20.899   9.020   8.553
 5381POPC   C2B 8060  20.904   9.002   8.253
 5381POPC   C3B 8061  20.893   9.004   7.953
 5381POPC   C4B 8062  20.826   9.034   7.653
 5382POPC   NC3 8063   7.416  14.451   9.453
 5382POPC   PO4 8064   7.449  14.378   9.153
 5382POPC   GL1 8065   7.442  14.448   8.853
 5382POPC   GL2 8066   7.387  14.297   8.853
 5382POPC   C1A 8067   7.401  14.374   8.553
 5382POPC   D2A 8068   7.411  14.386   8.253
 5382POPC   C3A 8069   7.437  14.401   7.953
 5382POPC   C4A 8070   7.463  14.426   7.653
 5382POPC   C1B 8071   7.379  14.207   8.553
 5382POPC   C2B 8072   7.283  14.192   8.253
 5382POPC   C3B 8073   7.373  14.129   7.953
 5382POPC   C4B 8074   7.361  14.124   7.653
 5383POPC   NC3 8075  34.625  33.004   9.453
 5383POPC   PO4 8076  34.540  32.978   9.153
 5383POPC   GL1 8077  34.575  33.051   8.853
 5383POPC   GL2 8078  34.488  32.955   8.853
 5383POPC   C1A 8079  34.592  33.037   8.553
 5383POPC   D2A 8080  34.574  32.986   8.253
 5383POPC   C3A 8081  34.578  33.028   7.953
 5383POPC   C4A 8082  34.568  32.989   7.653
 5383POPC   C1B 8083  34.444  32.788   8.553
 5383POPC   C2B 8084  34.486  32.795   8.253
 5383POPC   C3B 8085  34.392  32.785   7.953
 5383POPC   C4B 8086  34.388  32.857   7.653
 5384POPC   NC3 8087  26.768  33.007   9.453
 5384POPC   PO4 8088  26.845  33.066   9.153
 5384POPC   GL1 8089  26.860  33.050   8.853
 5384POPC   GL2 8090  26.728  33.077   8.853
 5384POPC   C1A 8091  26.830  33.003   8.553
 5384POPC   D2A 8092  26.846  32.989   8.253
 5384POPC   C3A 8093  26.852  33.023   7.953
 5384POPC   C4A 8094  26.804  33.057   7.653
 5384POPC   C1B 8095  26.539  33.119   8.553
 5384POPC   C2B 8096  26.558  33.068   8.253
 5384POPC   C3B 8097  26.596  33.084   7.953
 5384POPC   C4B 8098  26.556  33.117   7.653
 5385POPC   NC3 8099   1.218  19.865   9.453
 5385POPC   PO4 8100   1.260  19.861   9.153
 5385POPC   GL1 8101   1.214  19.791   8.853
 5385POPC   GL2 8102   1.310  19.945   8.853
 5385POPC   C1A 8103   1.240  19.795   8.553
 5385POPC   D2A 8104   1.223  19.823   8.253
 5385POPC   C3A 8105   1.186  19.826   7.953
 5385POPC   C4A 8106   1.170  19.864   7.653
 5385POPC   C1B 8107   1.360  20.021   8.553
 5385POPC   C2B 8108   1.300  20.079   8.253
 5385POPC   C3B 8109   1.392  20.084   7.953
 5385POPC   C4B 8110   1.295  20.049   7.653
 5386POPC   NC3 8111  32.213  24.525   9.453
 5386POPC   PO4 8112  32.251  24.480   9.153
 5386POPC   GL1 8113  32.282  24.501   8.853
 5386POPC   GL2 8114  32.104  24.531   8.853
 5386POPC   C1A 8115  32.229  24.538   8.553
 5386POPC   D2A 8116  32.233  24.516   8.253
 5386POPC   C3A 8117  32.242  24.484   7.953
 5386POPC   C4A 8118  32.236  24.524   7.653
 5386POPC   C1B 8119  32.020  24.475   8.553
 5386POPC   C2B 8120  31.971  24.539   8.253
 5386POPC   C3B 8121  31.996  24.521   7.953
 5386POPC   C4B 8122  31.982  24.538   7.653
 5387POPC   NC3 8123  21.340  21.341   9.453
 5387POPC   PO4 8124  21.404  21.342   9.153
 5387POPC   GL1 8125  21.390  21.382   8.853
 5387POPC   GL2 8126  21.337  21.280   8.853
 5387POPC   C1A 8127  21.398  21.349   8.553
 5387POPC   D2A 8128  21.341  21.367   8.253
 5387POPC   C3A 8129  21.397  21.422   7.953
 5387POPC   C4A 8130  21.378  21.359   7.653
 5387POPC   C1B 8131  21.333  21.179   8.553
 5387POPC   C2B 8132  21.337  21.192   8.253
 5387POPC   C3B 8133  21.309  21.200   7.953
 5387POPC   C4B 8134  21.271  21.189   7.653
 5388POPC   NC3 8135  29.127   1.174   9.453
 5388POPC   PO4 8136  29.150   1.239   9.153
 5388POPC   GL1 8137  29.117   1.175   8.853
 5388POPC   GL2 8138  29.260   1.216   8.853
 5388POPC   C1A 8139  29.158   1.250   8.553
 5388POPC   D2A 8140  29.156   1.201   8.253
 5388POPC   C3A 8141  29.130   1.199   7.953
 5388POPC   C4A 8142  29.194   1.185   7.653
 5388POPC   C1B 8143  29.423   1.149   8.553
 5388POPC   C2B 8144  29.419   1.165   8.253
 5388POPC   C3B 8145  29.378   1.123   7.953
 5388POPC   C4B 8146  29.388   1.153   7.653
 5389POPC   NC3 8147  29.893  16.779   9.453
 5389POPC   PO4 8148  29.886  16.751   9.153
 5389POPC   GL1 8149  29.874  16.724   8.853
 5389POPC   GL2 8150  29.846  16.639   8.853
 5389POPC   C1A 8151  29.903  16.735   8.553
 5389POPC   D2A 8152  29.902  16.744   8.253
 5389POPC   C3A 8153  29.944  16.752   7.953
 5389POPC   C4A 8154  29.940  16.698   7.653
 5389POPC   C1B 8155  29.704  16.617   8.553
 5389POPC   C2B 8156  29.670  16.646   8.253
 5389POPC   C3B 8157  29.704  16.564   7.953
 5389POPC   C4B 8158  29.687  16.622   7.653
 5390POPC   NC3 8159   9.712  33.846   9.453
 5390POPC   PO4 8160   9.740  33.763   9.153
 5390POPC   GL1 8161   9.729  33.844   8.853
 5390POPC   GL2 8162   9.845  33.938   8.853
 5390POPC   C1A 8163   9.708  33.817   8.553
 5390POPC   D2A 8164   9.734  33.844   8.253
 5390POPC   C3A 8165   9.741  33.830   7.953
 5390POPC   C4A 8166   9.779  33.777   7.653
 5390POPC   C1B 8167   9.869  33.979   8.553
 5390POPC   C2B 8168   9.893  33.997   8.253
 5390POPC   C3B 8169   9.927  33.993   7.953
 5390POPC   C4B 8170   9.860  33.998   7.653
 5391POPC   NC3 8171   0.459  12.082   9.453
 5391POPC   PO4 8172   0.438  12.115   9.153
 5391POPC   GL1 8173   0.473  12.105   8.853
 5391POPC   GL2 8174   0.355  12.136   8.853
 5391POPC   C1A 8175   0.441  12.113   8.553
 5391POPC   D2A 8176   0.428  12.115   8.253
 5391POPC   C3A 8177   0.453  12.117   7.953
 5391POPC   C4A 8178   0.400  12.085   7.653
 5391POPC   C1B 8179   0.305  12.281   8.553
 5391POPC   C2B 8180   0.279  12.311   8.253
 5391POPC   C3B 8181   0.318  12.268   7.953
 5391POPC   C4B 8182   0.265  12.248   7.653
 5392POPC   NC3 8183  42.306   6.628   9.453
 5392POPC   PO4 8184  42.333   6.640   9.153
 5392POPC   GL1 8185  42.321   6.605   8.853
 5392POPC   GL2 8186  42.308   6.742   8.853
 5392POPC   C1A 8187  42.302   6.605   8.553
 5392POPC   D2A 8188  42.329   6.616   8.253
 5392POPC   C3A 8189  42.367   6.628   7.953
 5392POPC   C4A 8190  42.325   6.655   7.653
 5392POPC   C1B 8191  42.371   6.926   8.553
 5392POPC   C2B 8192  42.405   6.929   8.253
 5392POPC   C3B 8193  42.337   6.897   7.953
 5392POPC   C4B 8194  42.344   6.908   7.653
 5393POPC   NC3 8195  29.884  31.467   9.453
 5393POPC   PO4 8196  29.906  31.474   9.153
 5393POPC   GL1 8197  29.933  31.501   8.853
 5393POPC   GL2 8198  29.790  31.382   8.853
 5393POPC   C1A 8199  29.915  31.480   8.553
 5393POPC   D2A 8200  29.875  31.441   8.253
 5393POPC   C3A 8201  29.908  31.460   7.953
 5393POPC   C4A 8202  29.904  31.495   7.653
 5393POPC   C1B 8203  29.715  31.378   8.553
 5393POPC   C2B 8204  29.727  31.346   8.253
 5393POPC   C3B 8205  29.734  31.361   7.953
 5393POPC   C4B 8206  29.693  31.387   7.653
 5394POPC   NC3 8207  15.969  25.245   9.453
 5394POPC   PO4 8208  15.946  25.263   9.153
 5394POPC   GL1 8209  15.942  25.233   8.853
 5394POPC   GL2 8210  15.992  25.379   8.853
 5394POPC   C1A 8211  15.950  25.224   8.553
 5394POPC   D2A 8212  15.989  25.253   8.253
 5394POPC   C3A 8213  15.937  25.270   7.953
 5394POPC   C4A 8214  15.986  25.238   7.653
 5394POPC   C1B 8215  16.147  25.423   8.553
 5394POPC   C2B 8216  16.093  25.475   8.253
 5394POPC   C3B 8217  16.102  25.399   7.953
 5394POPC   C4B 8218  16.164  25.401   7.653
 5395POPC   NC3 8219  36.871  29.920   9.453
 5395POPC   PO4 8220  36.890  29.930   9.153
 5395POPC   GL1 8221  36.927  29.968   8.853
 5395POPC   GL2 8222  36.949  30.013   8.853
 5395POPC   C1A 8223  36.932  29.890   8.553
 5395POPC   D2A 8224  36.858  29.959   8.253
 5395POPC   C3A 8225  36.864  29.948   7.953
 5395POPC   C4A 8226  36.926  29.880   7.653
 5395POPC   C1B 8227  37.010  30.127   8.553
 5395POPC   C2B 8228  36.984  30.151   8.253
 5395POPC   C3B 8229  36.959  30.177   7.953
 5395POPC   C4B 8230  36.967  30.175   7.653
 5396POPC   NC3 8231   6.682  43.882   9.453
 5396POPC   PO4 8232   6.673  43.851   9.153
 5396POPC   GL1 8233   6.628  43.860   8.853
 5396POPC   GL2 8234   6.540  43.934   8.853
 5396POPC   C1A 8235   6.628  43.927   8.553
 5396POPC   D2A 8236   6.688  43.920   8.253
 5396POPC   C3A 8237   6.689  43.839   7.953
 5396POPC   C4A 8238   6.653  43.913   7.653
 5396POPC   C1B 8239   6.386  43.965   8.553
 5396POPC   C2B 8240   6.418  43.908   8.253
 5396POPC   C3B 8241   6.453  43.916   7.953
 5396POPC   C4B 8242   6.387  43.935   7.653
 5397POPC   NC3 8243  28.399  39.241   9.453
 5397POPC   PO4 8244  28.388  39.247   9.153
 5397POPC   GL1 8245  28.357  39.187   8.853
 5397POPC   GL2 8246  28.239  39.162   8.853
 5397POPC   C1A 8247  28.337  39.246   8.553
 5397POPC   D2A 8248  28.370  39.259   8.253
 5397POPC   C3A 8249  28.339  39.202   7.953
 5397POPC   C4A 8250  28.395  39.231   7.653
 5397POPC   C1B 8251  28.096  39.181   8.553
 5397POPC   C2B 8252  28.091  39.194   8.253
 5397POPC   C3B 8253  28.169  39.128   7.953
 5397POPC   C4B 8254  28.092  39.137   7.653
 5398POPC   NC3 8255  13.600   9.734   9.453
 5398POPC   PO4 8256  13.658   9.755   9.153
 5398POPC   GL1 8257  13.675   9.759   8.853
 5398POPC   GL2 8258  13.494   9.704   8.853
 5398POPC   C1A 8259  13.603   9.758   8.553
 5398POPC   D2A 8260  13.673   9.707   8.253
 5398POPC   C3A 8261  13.580   9.716   7.953
 5398POPC   C4A 8262  13.626   9.765   7.653
 5398POPC   C1B 8263  13.417   9.750   8.553
 5398POPC   C2B 8264  13.369   9.710   8.253
 5398POPC   C3B 8265  13.348   9.743   7.953
 5398POPC   C4B 8266  13.392   9.735   7.653
 5399POPC   NC3 8267   8.210  16.732   9.453
 5399POPC   PO4 8268   8.184  16.727   9.153
 5399POPC   GL1 8269   8.154  16.749   8.853
 5399POPC   GL2 8270   8.091  16.645   8.853
 5399POPC   C1A 8271   8.159  16.741   8.553
 5399POPC   D2A 8272   8.171  16.728   8.253
 5399POPC   C3A 8273   8.228  16.724   7.953
 5399POPC   C4A 8274   8.162  16.763   7.653
 5399POPC   C1B 8275   8.038  16.537   8.553
 5399POPC   C2B 8276   7.962  16.617   8.253
 5399POPC   C3B 8277   8.041  16.551   7.953
 5399POPC   C4B 8278   7.990  16.619   7.653
 5400POPC   NC3 8279  35.380  22.926   9.453
 5400POPC   PO4 8280  35.371  22.959   9.153
 5400POPC   GL1 8281  35.386  22.982   8.853
 5400POPC   GL2 8282  35.363  23.068   8.853
 5400POPC   C1A 8283  35.398  22.890   8.553
 5400POPC   D2A 8284  35.384  22.910   8.253
 5400POPC   C3A 8285  35.400  22.888   7.953
 5400POPC   C4A 8286  35.398  22.937   7.653
 5400POPC   C1B 8287  35.273  23.187   8.553
 5400POPC   C2B 8288  35.322  23.134   8.253
 5400POPC   C3B 8289  35.323  23.164   7.953
 5400POPC   C4B 8290  35.277  23.140   7.653
 5401POPC   NC3 8291  13.597  13.589   9.453
 5401POPC   PO4 8292  13.653  13.622   9.153
 5401POPC   GL1 8293  13.664  13.623   8.853
 5401POPC   GL2 8294  13.500  13.741   8.853
 5401POPC   C1A 8295  13.590  13.619   8.553
 5401POPC   D2A 8296  13.668  13.598   8.253
 5401POPC   C3A 8297  13.676  13.623   7.953
 5401POPC   C4A 8298  13.651  13.595   7.653
 5401POPC   C1B 8299  13.439  13.805   8.553
 5401POPC   C2B 8300  13.428  13.820   8.253
 5401POPC   C3B 8301  13.460  13.845   7.953
 5401POPC   C4B 8302  13.431  13.867   7.653
 5402POPC   NC3 8303   1.961   9.730   9.453
 5402POPC   PO4 8304   1.976   9.716   9.153
 5402POPC   GL1 8305   1.987   9.752   8.853
 5402POPC   GL2 8306   1.960   9.891   8.853
 5402POPC   C1A 8307   1.966   9.699   8.553
 5402POPC   D2A 8308   1.949   9.752   8.253
 5402POPC   C3A 8309   1.945   9.714   7.953
 5402POPC   C4A 8310   1.981   9.780   7.653
 5402POPC   C1B 8311   1.997   9.974   8.553
 5402POPC   C2B 8312   2.046   9.990   8.253
 5402POPC   C3B 8313   2.053  10.032   7.953
 5402POPC   C4B 8314   2.023   9.999   7.653
 5403POPC   NC3 8315  11.278   4.331   9.453
 5403POPC   PO4 8316  11.284   4.315   9.153
 5403POPC   GL1 8317  11.339   4.345   8.853
 5403POPC   GL2 8318  11.170   4.392   8.853
 5403POPC   C1A 8319  11.341   4.353   8.553
 5403POPC   D2A 8320  11.273   4.279   8.253
 5403POPC   C3A 8321  11.255   4.331   7.953
 5403POPC   C4A 8322  11.318   4.296   7.653
 5403POPC   C1B 8323  11.072   4.437   8.553
 5403POPC   C2B 8324  11.099   4.492   8.253
 5403POPC   C3B 8325  11.130   4.497   7.953
 5403POPC   C4B 8326  11.069   4.506   7.653
 5404POPC   NC3 8327  17.538  21.344   9.453
 5404POPC   PO4 8328  17.478  21.347   9.153
 5404POPC   GL1 8329  17.498  21.413   8.853
 5404POPC   GL2 8330  17.438  21.423   8.853
 5404POPC   C1A 8331  17.538  21.430   8.553
 5404POPC   D2A 8332  17.532  21.340   8.253
 5404POPC   C3A 8333  17.509  21.416   7.953
 5404POPC   C4A 8334  17.519  21.360   7.653
 5404POPC   C1B 8335  17.329  21.551   8.553
 5404POPC   C2B 8336  17.318  21.550   8.253
 5404POPC   C3B 8337  17.274  21.507   7.953
 5404POPC   C4B 8338  17.288  21.520   7.653
 5405POPC   NC3 8339  15.164  26.799   9.453
 5405POPC   PO4 8340  15.204  26.801   9.153
 5405POPC   GL1 8341  15.194  26.864   8.853
 5405POPC   GL2 8342  15.025  26.856   8.853
 5405POPC   C1A 8343  15.175  26.818   8.553
 5405POPC   D2A 8344  15.167  26.774   8.253
 5405POPC   C3A 8345  15.142  26.800   7.953
 5405POPC   C4A 8346  15.228  26.855   7.653
 5405POPC   C1B 8347  14.982  26.874   8.553
 5405POPC   C2B 8348  14.988  26.904   8.253
 5405POPC   C3B 8349  14.965  26.908   7.953
 5405POPC   C4B 8350  14.917  26.918   7.653
 5406POPC   NC3 8351  12.850  12.088   9.453
 5406POPC   PO4 8352  12.879  12.061   9.153
 5406POPC   GL1 8353  12.822  12.121   8.853
 5406POPC   GL2 8354  12.833  12.211   8.853
 5406POPC   C1A 8355  12.868  12.040   8.553
 5406POPC   D2A 8356  12.820  12.050   8.253
 5406POPC   C3A 8357  12.802  12.049   7.953
 5406POPC   C4A 8358  12.842  12.057   7.653
 5406POPC   C1B 8359  12.782  12.349   8.553
 5406POPC   C2B 8360  12.794  12.338   8.253
 5406POPC   C3B 8361  12.777  12.332   7.953
 5406POPC   C4B 8362  12.741  12.263   7.653
 5407POPC   NC3 8363  13.653   2.763   9.453
 5407POPC   PO4 8364  13.668   2.716   9.153
 5407POPC   GL1 8365  13.586   2.800   8.853
 5407POPC   GL2 8366  13.593   2.625   8.853
 5407POPC   C1A 8367  13.646   2.809   8.553
 5407POPC   D2A 8368  13.650   2.746   8.253
 5407POPC   C3A 8369  13.655   2.721   7.953
 5407POPC   C4A 8370  13.618   2.750   7.653
 5407POPC   C1B 8371  13.513   2.571   8.553
 5407POPC   C2B 8372  13.519   2.578   8.253
 5407POPC   C3B 8373  13.495   2.500   7.953
 5407POPC   C4B 8374  13.524   2.506   7.653
 5408POPC   NC3 8375   1.970  12.081   9.453
 5408POPC   PO4 8376   1.996  12.043   9.153
 5408POPC   GL1 8377   1.949  12.056   8.853
 5408POPC   GL2 8378   2.071  12.156   8.853
 5408POPC   C1A 8379   2.038  12.099   8.553
 5408POPC   D2A 8380   1.943  12.124   8.253
 5408POPC   C3A 8381   1.962  12.072   7.953
 5408POPC   C4A 8382   1.947  12.032   7.653
 5408POPC   C1B 8383   2.189  12.267   8.553
 5408POPC   C2B 8384   2.149  12.220   8.253
 5408POPC   C3B 8385   2.160  12.219   7.953
 5408POPC   C4B 8386   2.227  12.262   7.653
 5409POPC   NC3 8387   5.820  34.597   9.453
 5409POPC   PO4 8388   5.873  34.597   9.153
 5409POPC   GL1 8389   5.884  34.560   8.853
 5409POPC   GL2 8390   5.773  34.706   8.853
 5409POPC   C1A 8391   5.892  34.563   8.553
 5409POPC   D2A 8392   5.859  34.591   8.253
 5409POPC   C3A 8393   5.909  34.533   7.953
 5409POPC   C4A 8394   5.897  34.568   7.653
 5409POPC   C1B 8395   5.641  34.776   8.553
 5409POPC   C2B 8396   5.675  34.755   8.253
 5409POPC   C3B 8397   5.660  34.737   7.953
 5409POPC   C4B 8398   5.679  34.704   7.653
 5410POPC   NC3 8399  28.337  32.246   9.453
 5410POPC   PO4 8400  28.412  32.248   9.153
 5410POPC   GL1 8401  28.324  32.241   8.853
 5410POPC   GL2 8402  28.339  32.323   8.853
 5410POPC   C1A 8403  28.415  32.241   8.553
 5410POPC   D2A 8404  28.385  32.235   8.253
 5410POPC   C3A 8405  28.419  32.262   7.953
 5410POPC   C4A 8406  28.379  32.238   7.653
 5410POPC   C1B 8407  28.301  32.525   8.553
 5410POPC   C2B 8408  28.343  32.529   8.253
 5410POPC   C3B 8409  28.344  32.462   7.953
 5410POPC   C4B 8410  28.299  32.504   7.653
 5411POPC   NC3 8411  15.137  27.603   9.453
 5411POPC   PO4 8412  15.177  27.572   9.153
 5411POPC   GL1 8413  15.182  27.609   8.853
 5411POPC   GL2 8414  15.294  27.532   8.853
 5411POPC   C1A 8415  15.156  27.641   8.553
 5411POPC   D2A 8416  15.137  27.577   8.253
 5411POPC   C3A 8417  15.176  27.594   7.953
 5411POPC   C4A 8418  15.182  27.628   7.653
 5411POPC   C1B 8419  15.379  27.450   8.553
 5411POPC   C2B 8420  15.419  27.502   8.253
 5411POPC   C3B 8421  15.406  27.515   7.953
 5411POPC   C4B 8422  15.418  27.471   7.653
 5412POPC   NC3 8423  27.597  31.492   9.453
 5412POPC   PO4 8424  27.631  31.455   9.153
 5412POPC   GL1 8425  27.627  31.482   8.853
 5412POPC   GL2 8426  27.616  31.630   8.853
 5412POPC   C1A 8427  27.627  31.474   8.553
 5412POPC   D2A 8428  27.626  31.438   8.253
 5412POPC   C3A 8429  27.570  31.514   7.953
 5412POPC   C4A 8430  27.605  31.440   7.653
 5412POPC   C1B 8431  27.635  31.705   8.553
 5412POPC   C2B 8432  27.578  31.759   8.253
 5412POPC   C3B 8433  27.641  31.690   7.953
 5412POPC   C4B 8434  27.632  31.741   7.653
 5413POPC   NC3 8435   9.019  28.410   9.453
 5413POPC   PO4 8436   9.011  28.328   9.153
 5413POPC   GL1 8437   9.018  28.355   8.853
 5413POPC   GL2 8438   8.941  28.224   8.853
 5413POPC   C1A 8439   8.949  28.325   8.553
 5413POPC   D2A 8440   9.001  28.325   8.253
 5413POPC   C3A 8441   8.935  28.342   7.953
 5413POPC   C4A 8442   9.003  28.351   7.653
 5413POPC   C1B 8443   8.907  28.161   8.553
 5413POPC   C2B 8444   8.873  28.141   8.253
 5413POPC   C3B 8445   8.854  28.194   7.953
 5413POPC   C4B 8446   8.826  28.175   7.653
 5414POPC   NC3 8447  36.886  40.768   9.453
 5414POPC   PO4 8448  36.953  40.769   9.153
 5414POPC   GL1 8449  36.904  40.816   8.853
 5414POPC   GL2 8450  36.974  40.882   8.853
 5414POPC   C1A 8451  36.949  40.801   8.553
 5414POPC   D2A 8452  36.903  40.830   8.253
 5414POPC   C3A 8453  36.926  40.740   7.953
 5414POPC   C4A 8454  36.938  40.773   7.653
 5414POPC   C1B 8455  37.046  40.964   8.553
 5414POPC   C2B 8456  37.126  40.981   8.253
 5414POPC   C3B 8457  37.063  40.957   7.953
 5414POPC   C4B 8458  37.096  40.934   7.653
 5415POPC   NC3 8459  40.801  24.536   9.453
 5415POPC   PO4 8460  40.753  24.480   9.153
 5415POPC   GL1 8461  40.734  24.444   8.853
 5415POPC   GL2 8462  40.737  24.618   8.853
 5415POPC   C1A 8463  40.791  24.518   8.553
 5415POPC   D2A 8464  40.830  24.497   8.253
 5415POPC   C3A 8465  40.832  24.489   7.953
 5415POPC   C4A 8466  40.806  24.521   7.653
 5415POPC   C1B 8467  40.603  24.708   8.553
 5415POPC   C2B 8468  40.574  24.632   8.253
 5415POPC   C3B 8469  40.600  24.665   7.953
 5415POPC   C4B 8470  40.599  24.674   7.653
 5416POPC   NC3 8471  31.432  35.334   9.453
 5416POPC   PO4 8472  31.458  35.309   9.153
 5416POPC   GL1 8473  31.460  35.358   8.853
 5416POPC   GL2 8474  31.332  35.395   8.853
 5416POPC   C1A 8475  31.505  35.332   8.553
 5416POPC   D2A 8476  31.461  35.330   8.253
 5416POPC   C3A 8477  31.430  35.351   7.953
 5416POPC   C4A 8478  31.515  35.322   7.653
 5416POPC   C1B 8479  31.202  35.417   8.553
 5416POPC   C2B 8480  31.244  35.445   8.253
 5416POPC   C3B 8481  31.235  35.455   7.953
 5416POPC   C4B 8482  31.249  35.393   7.653
 5417POPC   NC3 8483  19.020  39.214   9.453
 5417POPC   PO4 8484  19.104  39.273   9.153
 5417POPC   GL1 8485  19.043  39.260   8.853
 5417POPC   GL2 8486  19.183  39.216   8.853
 5417POPC   C1A 8487  19.044  39.183   8.553
 5417POPC   D2A 8488  19.067  39.214   8.253
 5417POPC   C3A 8489  19.084  39.216   7.953
 5417POPC   C4A 8490  19.018  39.195   7.653
 5417POPC   C1B 8491  19.259  39.272   8.553
 5417POPC   C2B 8492  19.274  39.259   8.253
 5417POPC   C3B 8493  19.342  39.231   7.953
 5417POPC   C4B 8494  19.317  39.294   7.653
 5418POPC   NC3 8495  16.692  34.557   9.453
 5418POPC   PO4 8496  16.757  34.590   9.153
 5418POPC   GL1 8497  16.755  34.530   8.853
 5418POPC   GL2 8498  16.783  34.675   8.853
 5418POPC   C1A 8499  16.718  34.615   8.553
 5418POPC   D2A 8500  16.778  34.546   8.253
 5418POPC   C3A 8501  16.765  34.578   7.953
 5418POPC   C4A 8502  16.776  34.564   7.653
 5418POPC   C1B 8503  16.808  34.838   8.553
 5418POPC   C2B 8504  16.851  34.800   8.253
 5418POPC   C3B 8505  16.802  34.815   7.953
 5418POPC   C4B 8506  16.809  34.822   7.653
 5419POPC   NC3 8507   2.797  14.391   9.453
 5419POPC   PO4 8508   2.738  14.364   9.153
 5419POPC   GL1 8509   2.777  14.444   8.853
 5419POPC   GL2 8510   2.824  14.253   8.853
 5419POPC   C1A 8511   2.724  14.435   8.553
 5419POPC   D2A 8512   2.742  14.354   8.253
 5419POPC   C3A 8513   2.723  14.379   7.953
 5419POPC   C4A 8514   2.761  14.453   7.653
 5419POPC   C1B 8515   2.912  14.215   8.553
 5419POPC   C2B 8516   2.879  14.166   8.253
 5419POPC   C3B 8517   2.832  14.154   7.953
 5419POPC   C4B 8518   2.833  14.188   7.653
 5420POPC   NC3 8519  35.307  19.063   9.453
 5420POPC   PO4 8520  35.394  19.083   9.153
 5420POPC   GL1 8521  35.312  19.048   8.853
 5420POPC   GL2 8522  35.313  19.200   8.853
 5420POPC   C1A 8523  35.396  19.073   8.553
 5420POPC   D2A 8524  35.357  19.081   8.253
 5420POPC   C3A 8525  35.321  19.043   7.953
 5420POPC   C4A 8526  35.355  19.085   7.653
 5420POPC   C1B 8527  35.262  19.304   8.553
 5420POPC   C2B 8528  35.252  19.315   8.253
 5420POPC   C3B 8529  35.243  19.309   7.953
 5420POPC   C4B 8530  35.294  19.346   7.653
 5421POPC   NC3 8531   5.062  36.127   9.453
 5421POPC   PO4 8532   5.122  36.137   9.153
 5421POPC   GL1 8533   5.099  36.100   8.853
 5421POPC   GL2 8534   5.266  36.107   8.853
 5421POPC   C1A 8535   5.125  36.164   8.553
 5421POPC   D2A 8536   5.110  36.087   8.253
 5421POPC   C3A 8537   5.096  36.085   7.953
 5421POPC   C4A 8538   5.138  36.119   7.653
 5421POPC   C1B 8539   5.362  36.097   8.553
 5421POPC   C2B 8540   5.382  36.148   8.253
 5421POPC   C3B 8541   5.299  36.100   7.953
 5421POPC   C4B 8542   5.320  36.124   7.653
 5422POPC   NC3 8543  43.875   1.257   9.453
 5422POPC   PO4 8544  43.897   1.250   9.153
 5422POPC   GL1 8545  43.839   1.201   8.853
 5422POPC   GL2 8546  43.987   1.340   8.853
 5422POPC   C1A 8547  43.915   1.164   8.553
 5422POPC   D2A 8548  43.891   1.227   8.253
 5422POPC   C3A 8549  43.914   1.205   7.953
 5422POPC   C4A 8550  43.870   1.205   7.653
 5422POPC   C1B 8551  44.077   1.403   8.553
 5422POPC   C2B 8552  44.075   1.423   8.253
 5422POPC   C3B 8553  44.000   1.465   7.953
 5422POPC   C4B 8554  44.026   1.459   7.653
 5423POPC   NC3 8555  21.404  27.614   9.453
 5423POPC   PO4 8556  21.424  27.642   9.153
 5423POPC   GL1 8557  21.402  27.588   8.853
 5423POPC   GL2 8558  21.355  27.523   8.853
 5423POPC   C1A 8559  21.408  27.591   8.553
 5423POPC   D2A 8560  21.435  27.613   8.253
 5423POPC   C3A 8561  21.422  27.588   7.953
 5423POPC   C4A 8562  21.361  27.638   7.653
 5423POPC   C1B 8563  21.218  27.340   8.553
 5423POPC   C2B 8564  21.248  27.334   8.253
 5423POPC   C3B 8565  21.283  27.370   7.953
 5423POPC   C4B 8566  21.266  27.431   7.653
 5424POPC   NC3 8567  19.787  25.284   9.453
 5424POPC   PO4 8568  19.876  25.245   9.153
 5424POPC   GL1 8569  19.792  25.259   8.853
 5424POPC   GL2 8570  19.956  25.204   8.853
 5424POPC   C1A 8571  19.882  25.312   8.553
 5424POPC   D2A 8572  19.872  25.307   8.253
 5424POPC   C3A 8573  19.796  25.283   7.953
 5424POPC   C4A 8574  19.870  25.304   7.653
 5424POPC   C1B 8575  20.044  25.093   8.553
 5424POPC   C2B 8576  20.055  25.161   8.253
 5424POPC   C3B 8577  20.077  25.089   7.953
 5424POPC   C4B 8578  20.026  25.151   7.653
 5425POPC   NC3 8579  21.425  22.960   9.453
 5425POPC   PO4 8580  21.380  22.948   9.153
 5425POPC   GL1 8581  21.348  22.940   8.853
 5425POPC   GL2 8582  21.306  22.998   8.853
 5425POPC   C1A 8583  21.402  22.988   8.553
 5425POPC   D2A 8584  21.359  22.921   8.253
 5425POPC   C3A 8585  21.421  22.985   7.953
 5425POPC   C4A 8586  21.432  22.983   7.653
 5425POPC   C1B 8587  21.203  23.157   8.553
 5425POPC   C2B 8588  21.233  23.178   8.253
 5425POPC   C3B 8589  21.198  23.179   7.953
 5425POPC   C4B 8590  21.269  23.117   7.653
 5426POPC   NC3 8591  39.276  32.290   9.453
 5426POPC   PO4 8592  39.251  32.294   9.153
 5426POPC   GL1 8593  39.218  32.263   8.853
 5426POPC   GL2 8594  39.150  32.241   8.853
 5426POPC   C1A 8595  39.239  32.239   8.553
 5426POPC   D2A 8596  39.204  32.199   8.253
 5426POPC   C3A 8597  39.246  32.288   7.953
 5426POPC   C4A 8598  39.258  32.210   7.653
 5426POPC   C1B 8599  39.007  32.198   8.553
 5426POPC   C2B 8600  38.988  32.171   8.253
 5426POPC   C3B 8601  38.994  32.178   7.953
 5426POPC   C4B 8602  39.037  32.223   7.653
 5427POPC   NC3 8603  11.308  26.068   9.453
 5427POPC   PO4 8604  11.350  26.032   9.153
 5427POPC   GL1 8605  11.326  26.017   8.853
 5427POPC   GL2 8606  11.155  26.022   8.853
 5427POPC   C1A 8607  11.303  26.051   8.553
 5427POPC   D2A 8608  11.262  26.085   8.253
 5427POPC   C3A 8609  11.311  26.016   7.953
 5427POPC   C4A 8610  11.268  26.007   7.653
 5427POPC   C1B 8611  11.013  26.069   8.553
 5427POPC   C2B 8612  11.100  25.990   8.253
 5427POPC   C3B 8613  11.086  25.990   7.953
 5427POPC   C4B 8614  11.061  26.016   7.653
 5428POPC   NC3 8615  24.517  15.196   9.453
 5428POPC   PO4 8616  24.494  15.194   9.153
 5428POPC   GL1 8617  24.482  15.218   8.853
 5428POPC   GL2 8618  24.612  15.286   8.853
 5428POPC   C1A 8619  24.476  15.140   8.553
 5428POPC   D2A 8620  24.479  15.173   8.253
 5428POPC   C3A 8621  24.499  15.209   7.953
 5428POPC   C4A 8622  24.497  15.216   7.653
 5428POPC   C1B 8623  24.707  15.360   8.553
 5428POPC   C2B 8624  24.682  15.385   8.253
 5428POPC   C3B 8625  24.645  15.396   7.953
 5428POPC   C4B 8626  24.669  15.403   7.653
 5429POPC   NC3 8627  36.949  29.112   9.453
 5429POPC   PO4 8628  36.891  29.128   9.153
 5429POPC   GL1 8629  36.879  29.099   8.853
 5429POPC   GL2 8630  37.044  29.224   8.853
 5429POPC   C1A 8631  36.899  29.118   8.553
 5429POPC   D2A 8632  36.882  29.180   8.253
 5429POPC   C3A 8633  36.895  29.096   7.953
 5429POPC   C4A 8634  36.856  29.117   7.653
 5429POPC   C1B 8635  37.080  29.248   8.553
 5429POPC   C2B 8636  37.139  29.318   8.253
 5429POPC   C3B 8637  37.142  29.297   7.953
 5429POPC   C4B 8638  37.080  29.317   7.653
 5430POPC   NC3 8639  22.145   0.439   9.453
 5430POPC   PO4 8640  22.126   0.475   9.153
 5430POPC   GL1 8641  22.133   0.466   8.853
 5430POPC   GL2 8642  22.244   0.534   8.853
 5430POPC   C1A 8643  22.156   0.483   8.553
 5430POPC   D2A 8644  22.137   0.389   8.253
 5430POPC   C3A 8645  22.121   0.431   7.953
 5430POPC   C4A 8646  22.112   0.425   7.653
 5430POPC   C1B 8647  22.409   0.636   8.553
 5430POPC   C2B 8648  22.314   0.600   8.253
 5430POPC   C3B 8649  22.342   0.625   7.953
 5430POPC   C4B 8650  22.396   0.619   7.653
 5431POPC   NC3 8651   5.824  15.983   9.453
 5431POPC   PO4 8652   5.825  15.945   9.153
 5431POPC   GL1 8653   5.863  15.991   8.853
 5431POPC   GL2 8654   6.041  16.019   8.853
 5431POPC   C1A 8655   5.862  15.908   8.553
 5431POPC   D2A 8656   5.909  15.992   8.253
 5431POPC   C3A 8657   5.864  15.992   7.953
 5431POPC   C4A 8658   5.870  15.922   7.653
 5431POPC   C1B 8659   6.150  15.938   8.553
 5431POPC   C2B 8660   6.111  15.976   8.253
 5431POPC   C3B 8661   6.086  16.028   7.953
 5431POPC   C4B 8662   6.097  15.947   7.653
 5432POPC   NC3 8663  29.966  41.567   9.453
 5432POPC   PO4 8664  29.889  41.517   9.153
 5432POPC   GL1 8665  29.957  41.513   8.853
 5432POPC   GL2 8666  29.848  41.676   8.853
 5432POPC   C1A 8667  29.879  41.566   8.553
 5432POPC   D2A 8668  29.885  41.594   8.253
 5432POPC   C3A 8669  29.911  41.513   7.953
 5432POPC   C4A 8670  29.954  41.555   7.653
 5432POPC   C1B 8671  29.678  41.737   8.553
 5432POPC   C2B 8672  29.762  41.706   8.253
 5432POPC   C3B 8673  29.743  41.737   7.953
 5432POPC   C4B 8674  29.755  41.680   7.653
 5433POPC   NC3 8675  40.762  25.218   9.453
 5433POPC   PO4 8676  40.794  25.252   9.153
 5433POPC   GL1 8677  40.754  25.291   8.853
 5433POPC   GL2 8678  40.930  25.201   8.853
 5433POPC   C1A 8679  40.740  25.310   8.553
 5433POPC   D2A 8680  40.785  25.220   8.253
 5433POPC   C3A 8681  40.796  25.309   7.953
 5433POPC   C4A 8682  40.759  25.299   7.653
 5433POPC   C1B 8683  41.058  25.155   8.553
 5433POPC   C2B 8684  41.028  25.167   8.253
 5433POPC   C3B 8685  41.022  25.201   7.953
 5433POPC   C4B 8686  40.974  25.236   7.653
 5434POPC   NC3 8687  25.245  38.482   9.453
 5434POPC   PO4 8688  25.286  38.430   9.153
 5434POPC   GL1 8689  25.311  38.414   8.853
 5434POPC   GL2 8690  25.275  38.355   8.853
 5434POPC   C1A 8691  25.235  38.504   8.553
 5434POPC   D2A 8692  25.238  38.429   8.253
 5434POPC   C3A 8693  25.234  38.439   7.953
 5434POPC   C4A 8694  25.279  38.454   7.653
 5434POPC   C1B 8695  25.321  38.252   8.553
 5434POPC   C2B 8696  25.385  38.264   8.253
 5434POPC   C3B 8697  25.412  38.251   7.953
 5434POPC   C4B 8698  25.352  38.230   7.653
 5435POPC   NC3 8699   5.883  36.152   9.453
 5435POPC   PO4 8700   5.838  36.129   9.153
 5435POPC   GL1 8701   5.869  36.167   8.853
 5435POPC   GL2 8702   5.976  36.198   8.853
 5435POPC   C1A 8703   5.827  36.120   8.553
 5435POPC   D2A 8704   5.882  36.126   8.253
 5435POPC   C3A 8705   5.905  36.089   7.953
 5435POPC   C4A 8706   5.820  36.113   7.653
 5435POPC   C1B 8707   6.048  36.253   8.553
 5435POPC   C2B 8708   6.099  36.257   8.253
 5435POPC   C3B 8709   6.050  36.251   7.953
 5435POPC   C4B 8710   6.088  36.290   7.653
 5436POPC   NC3 8711  17.529  37.722   9.453
 5436POPC   PO4 8712  17.551  37.718   9.153
 5436POPC   GL1 8713  17.497  37.680   8.853
 5436POPC   GL2 8714  17.437  37.787   8.853
 5436POPC   C1A 8715  17.481  37.662   8.553
 5436POPC   D2A 8716  17.537  37.633   8.253
 5436POPC   C3A 8717  17.511  37.689   7.953
 5436POPC   C4A 8718  17.473  37.637   7.653
 5436POPC   C1B 8719  17.262  37.798   8.553
 5436POPC   C2B 8720  17.319  37.786   8.253
 5436POPC   C3B 8721  17.326  37.818   7.953
 5436POPC   C4B 8722  17.294  37.839   7.653
 5437POPC   NC3 8723  19.858  22.170   9.453
 5437POPC   PO4 8724  19.869  22.149   9.153
 5437POPC   GL1 8725  19.871  22.151   8.853
 5437POPC   GL2 8726  19.797  22.299   8.853
 5437POPC   C1A 8727  19.881  22.195   8.553
 5437POPC   D2A 8728  19.797  22.113   8.253
 5437POPC   C3A 8729  19.814  22.126   7.953
 5437POPC   C4A 8730  19.798  22.190   7.653
 5437POPC   C1B 8731  19.758  22.419   8.553
 5437POPC   C2B 8732  19.771  22.394   8.253
 5437POPC   C3B 8733  19.764  22.403   7.953
 5437POPC   C4B 8734  19.771  22.453   7.653
 5438POPC   NC3 8735   7.412  16.734   9.453
 5438POPC   PO4 8736   7.458  16.727   9.153
 5438POPC   GL1 8737   7.391  16.780   8.853
 5438POPC   GL2 8738   7.517  16.834   8.853
 5438POPC   C1A 8739   7.416  16.738   8.553
 5438POPC   D2A 8740   7.468  16.749   8.253
 5438POPC   C3A 8741   7.455  16.713   7.953
 5438POPC   C4A 8742   7.460  16.699   7.653
 5438POPC   C1B 8743   7.577  16.917   8.553
 5438POPC   C2B 8744   7.627  16.851   8.253
 5438POPC   C3B 8745   7.659  16.937   7.953
 5438POPC   C4B 8746   7.644  16.860   7.653
 5439POPC   NC3 8747  42.295   5.085   9.453
 5439POPC   PO4 8748  42.314   5.063   9.153
 5439POPC   GL1 8749  42.360   5.062   8.853
 5439POPC   GL2 8750  42.392   5.018   8.853
 5439POPC   C1A 8751  42.305   5.143   8.553
 5439POPC   D2A 8752  42.285   5.116   8.253
 5439POPC   C3A 8753  42.356   5.115   7.953
 5439POPC   C4A 8754  42.355   5.059   7.653
 5439POPC   C1B 8755  42.485   4.902   8.553
 5439POPC   C2B 8756  42.563   4.948   8.253
 5439POPC   C3B 8757  42.482   4.918   7.953
 5439POPC   C4B 8758  42.497   4.964   7.653
 5440POPC   NC3 8759  18.330   3.563   9.453
 5440POPC   PO4 8760  18.285   3.570   9.153
 5440POPC   GL1 8761  18.281   3.517   8.853
 5440POPC   GL2 8762  18.292   3.412   8.853
 5440POPC   C1A 8763  18.236   3.535   8.553
 5440POPC   D2A 8764  18.251   3.541   8.253
 5440POPC   C3A 8765  18.257   3.526   7.953
 5440POPC   C4A 8766  18.280   3.554   7.653
 5440POPC   C1B 8767  18.238   3.321   8.553
 5440POPC   C2B 8768  18.218   3.288   8.253
 5440POPC   C3B 8769  18.212   3.287   7.953
 5440POPC   C4B 8770  18.210   3.303   7.653
 5441POPC   NC3 8771  29.173   2.764   9.453
 5441POPC   PO4 8772  29.147   2.771   9.153
 5441POPC   GL1 8773  29.132   2.716   8.853
 5441POPC   GL2 8774  29.116   2.850   8.853
 5441POPC   C1A 8775  29.163   2.771   8.553
 5441POPC   D2A 8776  29.166   2.745   8.253
 5441POPC   C3A 8777  29.108   2.797   7.953
 5441POPC   C4A 8778  29.099   2.751   7.653
 5441POPC   C1B 8779  29.106   2.986   8.553
 5441POPC   C2B 8780  29.138   3.039   8.253
 5441POPC   C3B 8781  29.105   3.014   7.953
 5441POPC   C4B 8782  29.161   3.056   7.653
 5442POPC   NC3 8783  40.761  18.293   9.453
 5442POPC   PO4 8784  40.796  18.330   9.153
 5442POPC   GL1 8785  40.816  18.316   8.853
 5442POPC   GL2 8786  40.692  18.356   8.853
 5442POPC   C1A 8787  40.774  18.327   8.553
 5442POPC   D2A 8788  40.749  18.311   8.253
 5442POPC   C3A 8789  40.798  18.309   7.953
 5442POPC   C4A 8790  40.749  18.307   7.653
 5442POPC   C1B 8791  40.613  18.399   8.553
 5442POPC   C2B 8792  40.595  18.404   8.253
 5442POPC   C3B 8793  40.618  18.493   7.953
 5442POPC   C4B 8794  40.590  18.408   7.653
 5443POPC   NC3 8795  43.841   5.113   9.453
 5443POPC   PO4 8796  43.872   5.061   9.153
 5443POPC   GL1 8797  43.863   5.122   8.853
 5443POPC   GL2 8798  43.749   4.987   8.853
 5443POPC   C1A 8799  43.902   5.117   8.553
 5443POPC   D2A 8800  43.867   5.104   8.253
 5443POPC   C3A 8801  43.861   5.136   7.953
 5443POPC   C4A 8802  43.882   5.120   7.653
 5443POPC   C1B 8803  43.693   4.942   8.553
 5443POPC   C2B 8804  43.736   4.902   8.253
 5443POPC   C3B 8805  43.703   4.920   7.953
 5443POPC   C4B 8806  43.686   4.898   7.653
 5444POPC   NC3 8807  40.776  38.467   9.453
 5444POPC   PO4 8808  40.795  38.416   9.153
 5444POPC   GL1 8809  40.797  38.442   8.853
 5444POPC   GL2 8810  40.789  38.363   8.853
 5444POPC   C1A 8811  40.787  38.450   8.553
 5444POPC   D2A 8812  40.795  38.459   8.253
 5444POPC   C3A 8813  40.751  38.442   7.953
 5444POPC   C4A 8814  40.813  38.481   7.653
 5444POPC   C1B 8815  40.861  38.244   8.553
 5444POPC   C2B 8816  40.855  38.264   8.253
 5444POPC   C3B 8817  40.929  38.208   7.953
 5444POPC   C4B 8818  40.841  38.204   7.653
 5445POPC   NC3 8819   7.381  25.289   9.453
 5445POPC   PO4 8820   7.419  25.287   9.153
 5445POPC   GL1 8821   7.395  25.284   8.853
 5445POPC   GL2 8822   7.349  25.315   8.853
 5445POPC   C1A 8823   7.439  25.305   8.553
 5445POPC   D2A 8824   7.466  25.219   8.253
 5445POPC   C3A 8825   7.428  25.267   7.953
 5445POPC   C4A 8826   7.416  25.236   7.653
 5445POPC   C1B 8827   7.163  25.376   8.553
 5445POPC   C2B 8828   7.226  25.383   8.253
 5445POPC   C3B 8829   7.164  25.351   7.953
 5445POPC   C4B 8830   7.228  25.380   7.653
 5446POPC   NC3 8831  35.312  29.927   9.453
 5446POPC   PO4 8832  35.355  29.872   9.153
 5446POPC   GL1 8833  35.373  29.873   8.853
 5446POPC   GL2 8834  35.310  29.775   8.853
 5446POPC   C1A 8835  35.346  29.970   8.553
 5446POPC   D2A 8836  35.313  29.969   8.253
 5446POPC   C3A 8837  35.385  29.898   7.953
 5446POPC   C4A 8838  35.382  29.906   7.653
 5446POPC   C1B 8839  35.285  29.727   8.553
 5446POPC   C2B 8840  35.297  29.700   8.253
 5446POPC   C3B 8841  35.283  29.731   7.953
 5446POPC   C4B 8842  35.291  29.649   7.653
 5447POPC   NC3 8843  13.655  26.825   9.453
 5447POPC   PO4 8844  13.591  26.824   9.153
 5447POPC   GL1 8845  13.641  26.792   8.853
 5447POPC   GL2 8846  13.495  26.761   8.853
 5447POPC   C1A 8847  13.660  26.829   8.553
 5447POPC   D2A 8848  13.671  26.862   8.253
 5447POPC   C3A 8849  13.614  26.809   7.953
 5447POPC   C4A 8850  13.588  26.796   7.653
 5447POPC   C1B 8851  13.384  26.733   8.553
 5447POPC   C2B 8852  13.343  26.739   8.253
 5447POPC   C3B 8853  13.349  26.712   7.953
 5447POPC   C4B 8854  13.425  26.785   7.653
 5448POPC   NC3 8855  31.446  19.021   9.453
 5448POPC   PO4 8856  31.488  19.102   9.153
 5448POPC   GL1 8857  31.475  19.106   8.853
 5448POPC   GL2 8858  31.564  19.040   8.853
 5448POPC   C1A 8859  31.471  19.059   8.553
 5448POPC   D2A 8860  31.473  19.075   8.253
 5448POPC   C3A 8861  31.515  19.047   7.953
 5448POPC   C4A 8862  31.456  19.088   7.653
 5448POPC   C1B 8863  31.679  19.035   8.553
 5448POPC   C2B 8864  31.741  19.107   8.253
 5448POPC   C3B 8865  31.755  19.039   7.953
 5448POPC   C4B 8866  31.689  19.113   7.653
 5449POPC   NC3 8867   1.191   9.770   9.453
 5449POPC   PO4 8868   1.169   9.736   9.153
 5449POPC   GL1 8869   1.177   9.704   8.853
 5449POPC   GL2 8870   1.290   9.751   8.853
 5449POPC   C1A 8871   1.219   9.730   8.553
 5449POPC   D2A 8872   1.175   9.760   8.253
 5449POPC   C3A 8873   1.219   9.731   7.953
 5449POPC   C4A 8874   1.171   9.744   7.653
 5449POPC   C1B 8875   1.451   9.751   8.553
 5449POPC   C2B 8876   1.444   9.819   8.253
 5449POPC   C3B 8877   1.419   9.747   7.953
 5449POPC   C4B 8878   1.426   9.768   7.653
 5450POPC   NC3 8879  14.406  23.701   9.453
 5450POPC   PO4 8880  14.432  23.740   9.153
 5450POPC   GL1 8881  14.435  23.756   8.853
 5450POPC   GL2 8882  14.494  23.781   8.853
 5450POPC   C1A 8883  14.415  23.724   8.553
 5450POPC   D2A 8884  14.447  23.761   8.253
 5450POPC   C3A 8885  14.367  23.762   7.953
 5450POPC   C4A 8886  14.369  23.749   7.653
 5450POPC   C1B 8887  14.599  23.789   8.553
 5450POPC   C2B 8888  14.603  23.856   8.253
 5450POPC   C3B 8889  14.599  23.839   7.953
 5450POPC   C4B 8890  14.586  23.863   7.653
 5451POPC   NC3 8891  34.531  14.441   9.453
 5451POPC   PO4 8892  34.558  14.384   9.153
 5451POPC   GL1 8893  34.546  14.390   8.853
 5451POPC   GL2 8894  34.573  14.561   8.853
 5451POPC   C1A 8895  34.580  14.403   8.553
 5451POPC   D2A 8896  34.535  14.434   8.253
 5451POPC   C3A 8897  34.531  14.450   7.953
 5451POPC   C4A 8898  34.578  14.414   7.653
 5451POPC   C1B 8899  34.619  14.695   8.553
 5451POPC   C2B 8900  34.676  14.657   8.253
 5451POPC   C3B 8901  34.588  14.666   7.953
 5451POPC   C4B 8902  34.677  14.697   7.653
 5452POPC   NC3 8903  11.338  24.532   9.453
 5452POPC   PO4 8904  11.308  24.479   9.153
 5452POPC   GL1 8905  11.251  24.485   8.853
 5452POPC   GL2 8906  11.229  24.356   8.853
 5452POPC   C1A 8907  11.250  24.473   8.553
 5452POPC   D2A 8908  11.293  24.448   8.253
 5452POPC   C3A 8909  11.319  24.464   7.953
 5452POPC   C4A 8910  11.313  24.463   7.653
 5452POPC   C1B 8911  11.126  24.275   8.553
 5452POPC   C2B 8912  11.132  24.253   8.253
 5452POPC   C3B 8913  11.115  24.292   7.953
 5452POPC   C4B 8914  11.155  24.271   7.653
 5453POPC   NC3 8915  30.714  24.516   9.453
 5453POPC   PO4 8916  30.691  24.504   9.153
 5453POPC   GL1 8917  30.656  24.478   8.853
 5453POPC   GL2 8918  30.612  24.570   8.853
 5453POPC   C1A 8919  30.669  24.465   8.553
 5453POPC   D2A 8920  30.744  24.463   8.253
 5453POPC   C3A 8921  30.716  24.513   7.953
 5453POPC   C4A 8922  30.656  24.468   7.653
 5453POPC   C1B 8923  30.579  24.674   8.553
 5453POPC   C2B 8924  30.571  24.741   8.253
 5453POPC   C3B 8925  30.517  24.685   7.953
 5453POPC   C4B 8926  30.517  24.651   7.653
 5454POPC   NC3 8927   8.165  22.900   9.453
 5454POPC   PO4 8928   8.153  22.906   9.153
 5454POPC   GL1 8929   8.226  22.972   8.853
 5454POPC   GL2 8930   8.236  23.010   8.853
 5454POPC   C1A 8931   8.185  22.953   8.553
 5454POPC   D2A 8932   8.154  22.928   8.253
 5454POPC   C3A 8933   8.220  22.889   7.953
 5454POPC   C4A 8934   8.232  22.964   7.653
 5454POPC   C1B 8935   8.330  23.136   8.553
 5454POPC   C2B 8936   8.349  23.120   8.253
 5454POPC   C3B 8937   8.377  23.169   7.953
 5454POPC   C4B 8938   8.346  23.172   7.653
 5455POPC   NC3 8939  23.679  25.245   9.453
 5455POPC   PO4 8940  23.744  25.284   9.153
 5455POPC   GL1 8941  23.686  25.232   8.853
 5455POPC   GL2 8942  23.827  25.372   8.853
 5455POPC   C1A 8943  23.713  25.254   8.553
 5455POPC   D2A 8944  23.667  25.314   8.253
 5455POPC   C3A 8945  23.752  25.246   7.953
 5455POPC   C4A 8946  23.690  25.282   7.653
 5455POPC   C1B 8947  23.900  25.441   8.553
 5455POPC   C2B 8948  23.914  25.407   8.253
 5455POPC   C3B 8949  23.886  25.403   7.953
 5455POPC   C4B 8950  23.940  25.402   7.653
 5456POPC   NC3 8951  37.707  44.694   9.453
 5456POPC   PO4 8952  37.719  44.661   9.153
 5456POPC   GL1 8953  37.642  44.693   8.853
 5456POPC   GL2 8954  37.657  44.558   8.853
 5456POPC   C1A 8955  37.684  44.647   8.553
 5456POPC   D2A 8956  37.662  44.625   8.253
 5456POPC   C3A 8957  37.662  44.663   7.953
 5456POPC   C4A 8958  37.706  44.618   7.653
 5456POPC   C1B 8959  37.643  44.438   8.553
 5456POPC   C2B 8960  37.578  44.408   8.253
 5456POPC   C3B 8961  37.604  44.383   7.953
 5456POPC   C4B 8962  37.645  44.456   7.653
 5457POPC   NC3 8963  33.044   8.156   9.453
 5457POPC   PO4 8964  33.029   8.213   9.153
 5457POPC   GL1 8965  33.068   8.176   8.853
 5457POPC   GL2 8966  32.858   8.259   8.853
 5457POPC   C1A 8967  33.045   8.224   8.553
 5457POPC   D2A 8968  33.011   8.176   8.253
 5457POPC   C3A 8969  33.063   8.233   7.953
 5457POPC   C4A 8970  32.998   8.163   7.653
 5457POPC   C1B 8971  32.733   8.241   8.553
 5457POPC   C2B 8972  32.744   8.288   8.253
 5457POPC   C3B 8973  32.778   8.218   7.953
 5457POPC   C4B 8974  32.817   8.232   7.653
 5458POPC   NC3 8975  25.306  23.725   9.453
 5458POPC   PO4 8976  25.261  23.750   9.153
 5458POPC   GL1 8977  25.267  23.671   8.853
 5458POPC   GL2 8978  25.124  23.718   8.853
 5458POPC   C1A 8979  25.290  23.703   8.553
 5458POPC   D2A 8980  25.243  23.727   8.253
 5458POPC   C3A 8981  25.234  23.691   7.953
 5458POPC   C4A 8982  25.236  23.670   7.653
 5458POPC   C1B 8983  25.069  23.649   8.553
 5458POPC   C2B 8984  24.974  23.714   8.253
 5458POPC   C3B 8985  25.061  23.632   7.953
 5458POPC   C4B 8986  24.993  23.661   7.653
 5459POPC   NC3 8987  43.110  30.672   9.453
 5459POPC   PO4 8988  43.078  30.676   9.153
 5459POPC   GL1 8989  43.107  30.653   8.853
 5459POPC   GL2 8990  43.146  30.594   8.853
 5459POPC   C1A 8991  43.122  30.688   8.553
 5459POPC   D2A 8992  43.068  30.683   8.253
 5459POPC   C3A 8993  43.109  30.702   7.953
 5459POPC   C4A 8994  43.104  30.673   7.653
 5459POPC   C1B 8995  43.189  30.425   8.553
 5459POPC   C2B 8996  43.160  30.493   8.253
 5459POPC   C3B 8997  43.141  30.440   7.953
 5459POPC   C4B 8998  43.105  30.492   7.653
 5460POPC   NC3 8999  10.561  33.792   9.453
 5460POPC   PO4 9000  10.552  33.826   9.153
 5460POPC   GL1 9001  10.554  33.818   8.853
 5460POPC   GL2 9002  10.695  33.789   8.853
 5460POPC   C1A 9003  10.563  33.786   8.553
 5460POPC   D2A 9004  10.543  33.827   8.253
 5460POPC   C3A 9005  10.535  33.828   7.953
 5460POPC   C4A 9006  10.484  33.850   7.653
 5460POPC   C1B 9007  10.809  33.731   8.553
 5460POPC   C2B 9008  10.763  33.756   8.253
 5460POPC   C3B 9009  10.816  33.729   7.953
 5460POPC   C4B 9010  10.813  33.783   7.653
 5461POPC   NC3 9011  26.850   2.002   9.453
 5461POPC   PO4 9012  26.789   2.023   9.153
 5461POPC   GL1 9013  26.865   2.037   8.853
 5461POPC   GL2 9014  26.749   2.084   8.853
 5461POPC   C1A 9015  26.793   1.976   8.553
 5461POPC   D2A 9016  26.813   1.962   8.253
 5461POPC   C3A 9017  26.803   1.990   7.953
 5461POPC   C4A 9018  26.823   1.949   7.653
 5461POPC   C1B 9019  26.612   2.128   8.553
 5461POPC   C2B 9020  26.561   2.110   8.253
 5461POPC   C3B 9021  26.558   2.087   7.953
 5461POPC   C4B 9022  26.632   2.060   7.653
 5462POPC   NC3 9023  17.536  36.933   9.453
 5462POPC   PO4 9024  17.498  36.860   9.153
 5462POPC   GL1 9025  17.479  36.891   8.853
 5462POPC   GL2 9026  17.436  37.022   8.853
 5462POPC   C1A 9027  17.509  36.945   8.553
 5462POPC   D2A 9028  17.501  36.950   8.253
 5462POPC   C3A 9029  17.497  36.932   7.953
 5462POPC   C4A 9030  17.557  36.897   7.653
 5462POPC   C1B 9031  17.433  37.179   8.553
 5462POPC   C2B 9032  17.428  37.109   8.253
 5462POPC   C3B 9033  17.403  37.156   7.953
 5462POPC   C4B 9034  17.386  37.133   7.653
 5463POPC   NC3 9035   9.794   6.642   9.453
 5463POPC   PO4 9036   9.744   6.636   9.153
 5463POPC   GL1 9037   9.790   6.654   8.853
 5463POPC   GL2 9038   9.810   6.572   8.853
 5463POPC   C1A 9039   9.723   6.678   8.553
 5463POPC   D2A 9040   9.765   6.677   8.253
 5463POPC   C3A 9041   9.775   6.610   7.953
 5463POPC   C4A 9042   9.765   6.649   7.653
 5463POPC   C1B 9043   9.940   6.438   8.553
 5463POPC   C2B 9044   9.970   6.423   8.253
 5463POPC   C3B 9045   9.895   6.422   7.953
 5463POPC   C4B 9046   9.957   6.478   7.653
 5464POPC   NC3 9047   7.391  15.193   9.453
 5464POPC   PO4 9048   7.425  15.158   9.153
 5464POPC   GL1 9049   7.446  15.170   8.853
 5464POPC   GL2 9050   7.347  15.046   8.853
 5464POPC   C1A 9051   7.381  15.134   8.553
 5464POPC   D2A 9052   7.463  15.221   8.253
 5464POPC   C3A 9053   7.404  15.213   7.953
 5464POPC   C4A 9054   7.448  15.180   7.653
 5464POPC   C1B 9055   7.252  14.973   8.553
 5464POPC   C2B 9056   7.217  14.965   8.253
 5464POPC   C3B 9057   7.289  15.050   7.953
 5464POPC   C4B 9058   7.282  14.965   7.653
 5465POPC   NC3 9059   2.744  12.849   9.453
 5465POPC   PO4 9060   2.729  12.836   9.153
 5465POPC   GL1 9061   2.734  12.864   8.853
 5465POPC   GL2 9062   2.870  12.973   8.853
 5465POPC   C1A 9063   2.775  12.829   8.553
 5465POPC   D2A 9064   2.731  12.823   8.253
 5465POPC   C3A 9065   2.741  12.898   7.953
 5465POPC   C4A 9066   2.775  12.852   7.653
 5465POPC   C1B 9067   2.857  13.067   8.553
 5465POPC   C2B 9068   2.912  13.064   8.253
 5465POPC   C3B 9069   2.898  13.057   7.953
 5465POPC   C4B 9070   2.924  13.103   7.653
 5466POPC   NC3 9071  20.623  16.764   9.453
 5466POPC   PO4 9072  20.590  16.723   9.153
 5466POPC   GL1 9073  20.648  16.708   8.853
 5466POPC   GL2 9074  20.474  16.657   8.853
 5466POPC   C1A 9075  20.627  16.775   8.553
 5466POPC   D2A 9076  20.613  16.726   8.253
 5466POPC   C3A 9077  20.593  16.728   7.953
 5466POPC   C4A 9078  20.637  16.762   7.653
 5466POPC   C1B 9079  20.391  16.629   8.553
 5466POPC   C2B 9080  20.448  16.555   8.253
 5466POPC   C3B 9081  20.366  16.563   7.953
 5466POPC   C4B 9082  20.439  16.607   7.653
 5467POPC   NC3 9083   5.139  35.385   9.453
 5467POPC   PO4 9084   5.090  35.365   9.153
 5467POPC   GL1 9085   5.131  35.384   8.853
 5467POPC   GL2 9086   5.213  35.313   8.853
 5467POPC   C1A 9087   5.110  35.378   8.553
 5467POPC   D2A 9088   5.097  35.387   8.253
 5467POPC   C3A 9089   5.110  35.377   7.953
 5467POPC   C4A 9090   5.070  35.332   7.653
 5467POPC   C1B 9091   5.379  35.332   8.553
 5467POPC   C2B 9092   5.369  35.334   8.253
 5467POPC   C3B 9093   5.307  35.330   7.953
 5467POPC   C4B 9094   5.366  35.359   7.653
 5468POPC   NC3 9095   8.150  19.069   9.453
 5468POPC   PO4 9096   8.231  19.058   9.153
 5468POPC   GL1 9097   8.180  19.093   8.853
 5468POPC   GL2 9098   8.270  19.164   8.853
 5468POPC   C1A 9099   8.213  19.104   8.553
 5468POPC   D2A 9100   8.156  19.050   8.253
 5468POPC   C3A 9101   8.217  19.081   7.953
 5468POPC   C4A 9102   8.226  19.097   7.653
 5468POPC   C1B 9103   8.422  19.147   8.553
 5468POPC   C2B 9104   8.467  19.159   8.253
 5468POPC   C3B 9105   8.469  19.121   7.953
 5468POPC   C4B 9106   8.447  19.151   7.653
 5469POPC   NC3 9107   9.729  17.549   9.453
 5469POPC   PO4 9108   9.740  17.548   9.153
 5469POPC   GL1 9109   9.789  17.465   8.853
 5469POPC   GL2 9110   9.619  17.509   8.853
 5469POPC   C1A 9111   9.707  17.464   8.553
 5469POPC   D2A 9112   9.711  17.465   8.253
 5469POPC   C3A 9113   9.713  17.521   7.953
 5469POPC   C4A 9114   9.747  17.458   7.653
 5469POPC   C1B 9115   9.466  17.464   8.553
 5469POPC   C2B 9116   9.535  17.479   8.253
 5469POPC   C3B 9117   9.527  17.510   7.953
 5469POPC   C4B 9118   9.521  17.471   7.653
 5470POPC   NC3 9119  16.745  44.666   9.453
 5470POPC   PO4 9120  16.772  44.687   9.153
 5470POPC   GL1 9121  16.758  44.670   8.853
 5470POPC   GL2 9122  16.863  44.635   8.853
 5470POPC   C1A 9123  16.710  44.626   8.553
 5470POPC   D2A 9124  16.733  44.694   8.253
 5470POPC   C3A 9125  16.757  44.622   7.953
 5470POPC   C4A 9126  16.728  44.692   7.653
 5470POPC   C1B 9127  16.986  44.607   8.553
 5470POPC   C2B 9128  16.958  44.540   8.253
 5470POPC   C3B 9129  17.008  44.580   7.953
 5470POPC   C4B 9130  16.992  44.601   7.653
 5471POPC   NC3 9131  38.423  26.791   9.453
 5471POPC   PO4 9132  38.407  26.854   9.153
 5471POPC   GL1 9133  38.441  26.822   8.853
 5471POPC   GL2 9134  38.328  26.898   8.853
 5471POPC   C1A 9135  38.441  26.825   8.553
 5471POPC   D2A 9136  38.490  26.817   8.253
 5471POPC   C3A 9137  38.436  26.838   7.953
 5471POPC   C4A 9138  38.464  26.814   7.653
 5471POPC   C1B 9139  38.315  27.052   8.553
 5471POPC   C2B 9140  38.299  27.039   8.253
 5471POPC   C3B 9141  38.261  27.052   7.953
 5471POPC   C4B 9142  38.274  27.050   7.653
 5472POPC   NC3 9143  10.487  12.833   9.453
 5472POPC   PO4 9144  10.511  12.888   9.153
 5472POPC   GL1 9145  10.562  12.855   8.853
 5472POPC   GL2 9146  10.369  12.867   8.853
 5472POPC   C1A 9147  10.513  12.868   8.553
 5472POPC   D2A 9148  10.520  12.813   8.253
 5472POPC   C3A 9149  10.505  12.811   7.953
 5472POPC   C4A 9150  10.560  12.885   7.653
 5472POPC   C1B 9151  10.273  12.944   8.553
 5472POPC   C2B 9152  10.350  12.947   8.253
 5472POPC   C3B 9153  10.348  12.991   7.953
 5472POPC   C4B 9154  10.319  12.972   7.653
 5473POPC   NC3 9155  26.065  13.581   9.453
 5473POPC   PO4 9156  26.029  13.626   9.153
 5473POPC   GL1 9157  26.020  13.644   8.853
 5473POPC   GL2 9158  26.035  13.735   8.853
 5473POPC   C1A 9159  26.041  13.610   8.553
 5473POPC   D2A 9160  26.017  13.662   8.253
 5473POPC   C3A 9161  26.048  13.661   7.953
 5473POPC   C4A 9162  26.082  13.628   7.653
 5473POPC   C1B 9163  26.133  13.912   8.553
 5473POPC   C2B 9164  26.129  13.903   8.253
 5473POPC   C3B 9165  26.154  13.871   7.953
 5473POPC   C4B 9166  26.149  13.917   7.653
 5474POPC   NC3 9167   8.947   5.079   9.453
 5474POPC   PO4 9168   8.995   5.118   9.153
 5474POPC   GL1 9169   9.015   5.140   8.853
 5474POPC   GL2 9170   9.038   5.209   8.853
 5474POPC   C1A 9171   8.940   5.091   8.553
 5474POPC   D2A 9172   8.964   5.103   8.253
 5474POPC   C3A 9173   9.011   5.074   7.953
 5474POPC   C4A 9174   9.021   5.053   7.653
 5474POPC   C1B 9175   9.047   5.288   8.553
 5474POPC   C2B 9176   9.026   5.310   8.253
 5474POPC   C3B 9177   9.096   5.338   7.953
 5474POPC   C4B 9178   9.056   5.345   7.653
 5475POPC   NC3 9179  30.740  29.889   9.453
 5475POPC   PO4 9180  30.682  29.904   9.153
 5475POPC   GL1 9181  30.736  29.886   8.853
 5475POPC   GL2 9182  30.770  29.797   8.853
 5475POPC   C1A 9183  30.716  29.942   8.553
 5475POPC   D2A 9184  30.648  29.891   8.253
 5475POPC   C3A 9185  30.679  29.924   7.953
 5475POPC   C4A 9186  30.669  29.931   7.653
 5475POPC   C1B 9187  30.853  29.759   8.553
 5475POPC   C2B 9188  30.872  29.769   8.253
 5475POPC   C3B 9189  30.857  29.676   7.953
 5475POPC   C4B 9190  30.827  29.702   7.653
 5476POPC   NC3 9191  33.763  21.364   9.453
 5476POPC   PO4 9192  33.760  21.435   9.153
 5476POPC   GL1 9193  33.767  21.424   8.853
 5476POPC   GL2 9194  33.812  21.497   8.853
 5476POPC   C1A 9195  33.829  21.398   8.553
 5476POPC   D2A 9196  33.821  21.344   8.253
 5476POPC   C3A 9197  33.767  21.435   7.953
 5476POPC   C4A 9198  33.814  21.341   7.653
 5476POPC   C1B 9199  33.750  21.646   8.553
 5476POPC   C2B 9200  33.798  21.622   8.253
 5476POPC   C3B 9201  33.752  21.617   7.953
 5476POPC   C4B 9202  33.732  21.644   7.653
 5477POPC   NC3 9203  17.488  25.259   9.453
 5477POPC   PO4 9204  17.492  25.238   9.153
 5477POPC   GL1 9205  17.521  25.277   8.853
 5477POPC   GL2 9206  17.428  25.207   8.853
 5477POPC   C1A 9207  17.459  25.291   8.553
 5477POPC   D2A 9208  17.481  25.277   8.253
 5477POPC   C3A 9209  17.534  25.240   7.953
 5477POPC   C4A 9210  17.487  25.264   7.653
 5477POPC   C1B 9211  17.255  25.224   8.553
 5477POPC   C2B 9212  17.285  25.252   8.253
 5477POPC   C3B 9213  17.284  25.227   7.953
 5477POPC   C4B 9214  17.213  25.193   7.653
 5478POPC   NC3 9215  12.824  42.314   9.453
 5478POPC   PO4 9216  12.841  42.372   9.153
 5478POPC   GL1 9217  12.882  42.351   8.853
 5478POPC   GL2 9218  12.945  42.487   8.853
 5478POPC   C1A 9219  12.849  42.348   8.553
 5478POPC   D2A 9220  12.867  42.306   8.253
 5478POPC   C3A 9221  12.854  42.341   7.953
 5478POPC   C4A 9222  12.870  42.339   7.653
 5478POPC   C1B 9223  12.987  42.552   8.553
 5478POPC   C2B 9224  13.012  42.508   8.253
 5478POPC   C3B 9225  12.954  42.592   7.953
 5478POPC   C4B 9226  12.935  42.543   7.653
 5479POPC   NC3 9227  34.559  12.122   9.453
 5479POPC   PO4 9228  34.589  12.071   9.153
 5479POPC   GL1 9229  34.616  12.083   8.853
 5479POPC   GL2 9230  34.456  12.105   8.853
 5479POPC   C1A 9231  34.582  12.063   8.553
 5479POPC   D2A 9232  34.601  12.099   8.253
 5479POPC   C3A 9233  34.583  12.079   7.953
 5479POPC   C4A 9234  34.579  12.059   7.653
 5479POPC   C1B 9235  34.367  12.244   8.553
 5479POPC   C2B 9236  34.425  12.259   8.253
 5479POPC   C3B 9237  34.426  12.241   7.953
 5479POPC   C4B 9238  34.331  12.245   7.653
 5480POPC   NC3 9239  10.492  15.974   9.453
 5480POPC   PO4 9240  10.555  15.943   9.153
 5480POPC   GL1 9241  10.568  15.962   8.853
 5480POPC   GL2 9242  10.462  16.057   8.853
 5480POPC   C1A 9243  10.505  15.982   8.553
 5480POPC   D2A 9244  10.517  15.987   8.253
 5480POPC   C3A 9245  10.529  15.919   7.953
 5480POPC   C4A 9246  10.512  15.964   7.653
 5480POPC   C1B 9247  10.440  16.150   8.553
 5480POPC   C2B 9248  10.441  16.144   8.253
 5480POPC   C3B 9249  10.397  16.227   7.953
 5480POPC   C4B 9250  10.394  16.173   7.653
 5481POPC   NC3 9251  43.862   2.017   9.453
 5481POPC   PO4 9252  43.838   2.034   9.153
 5481POPC   GL1 9253  43.907   1.948   8.853
 5481POPC   GL2 9254  43.829   1.939   8.853
 5481POPC   C1A 9255  43.891   1.943   8.553
 5481POPC   D2A 9256  43.911   1.974   8.253
 5481POPC   C3A 9257  43.885   1.981   7.953
 5481POPC   C4A 9258  43.924   1.951   7.653
 5481POPC   C1B 9259  43.725   1.781   8.553
 5481POPC   C2B 9260  43.715   1.826   8.253
 5481POPC   C3B 9261  43.730   1.781   7.953
 5481POPC   C4B 9262  43.680   1.846   7.653
 5482POPC   NC3 9263  26.855  13.665   9.453
 5482POPC   PO4 9264  26.797  13.657   9.153
 5482POPC   GL1 9265  26.799  13.663   8.853
 5482POPC   GL2 9266  26.908  13.703   8.853
 5482POPC   C1A 9267  26.839  13.617   8.553
 5482POPC   D2A 9268  26.836  13.615   8.253
 5482POPC   C3A 9269  26.855  13.663   7.953
 5482POPC   C4A 9270  26.782  13.586   7.653
 5482POPC   C1B 9271  27.020  13.787   8.553
 5482POPC   C2B 9272  27.064  13.755   8.253
 5482POPC   C3B 9273  27.074  13.781   7.953
 5482POPC   C4B 9274  27.016  13.739   7.653
 5483POPC   NC3 9275  13.610  37.673   9.453
 5483POPC   PO4 9276  13.646  37.658   9.153
 5483POPC   GL1 9277  13.643  37.686   8.853
 5483POPC   GL2 9278  13.564  37.589   8.853
 5483POPC   C1A 9279  13.643  37.648   8.553
 5483POPC   D2A 9280  13.678  37.726   8.253
 5483POPC   C3A 9281  13.667  37.647   7.953
 5483POPC   C4A 9282  13.602  37.666   7.653
 5483POPC   C1B 9283  13.585  37.485   8.553
 5483POPC   C2B 9284  13.588  37.452   8.253
 5483POPC   C3B 9285  13.539  37.424   7.953
 5483POPC   C4B 9286  13.558  37.450   7.653
 5484POPC   NC3 9287  22.123  31.449   9.453
 5484POPC   PO4 9288  22.131  31.483   9.153
 5484POPC   GL1 9289  22.114  31.490   8.853
 5484POPC   GL2 9290  22.058  31.572   8.853
 5484POPC   C1A 9291  22.125  31.468   8.553
 5484POPC   D2A 9292  22.194  31.441   8.253
 5484POPC   C3A 9293  22.164  31.441   7.953
 5484POPC   C4A 9294  22.205  31.492   7.653
 5484POPC   C1B 9295  22.017  31.621   8.553
 5484POPC   C2B 9296  21.995  31.631   8.253
 5484POPC   C3B 9297  21.980  31.622   7.953
 5484POPC   C4B 9298  21.961  31.662   7.653
 5485POPC   NC3 9299   8.991  22.967   9.453
 5485POPC   PO4 9300   8.992  22.921   9.153
 5485POPC   GL1 9301   8.995  22.947   8.853
 5485POPC   GL2 9302   8.938  22.791   8.853
 5485POPC   C1A 9303   8.981  22.892   8.553
 5485POPC   D2A 9304   8.929  22.979   8.253
 5485POPC   C3A 9305   8.951  22.982   7.953
 5485POPC   C4A 9306   8.974  22.983   7.653
 5485POPC   C1B 9307   8.828  22.769   8.553
 5485POPC   C2B 9308   8.874  22.738   8.253
 5485POPC   C3B 9309   8.854  22.704   7.953
 5485POPC   C4B 9310   8.799  22.692   7.653
 5486POPC   NC3 9311  21.397  40.816   9.453
 5486POPC   PO4 9312  21.392  40.788   9.153
 5486POPC   GL1 9313  21.424  40.742   8.853
 5486POPC   GL2 9314  21.552  40.763   8.853
 5486POPC   C1A 9315  21.384  40.765   8.553
 5486POPC   D2A 9316  21.356  40.797   8.253
 5486POPC   C3A 9317  21.384  40.800   7.953
 5486POPC   C4A 9318  21.362  40.743   7.653
 5486POPC   C1B 9319  21.661  40.710   8.553
 5486POPC   C2B 9320  21.640  40.739   8.253
 5486POPC   C3B 9321  21.652  40.717   7.953
 5486POPC   C4B 9322  21.588  40.782   7.653
 5487POPC   NC3 9323  19.851  32.253   9.453
 5487POPC   PO4 9324  19.794  32.260   9.153
 5487POPC   GL1 9325  19.824  32.220   8.853
 5487POPC   GL2 9326  19.931  32.174   8.853
 5487POPC   C1A 9327  19.786  32.245   8.553
 5487POPC   D2A 9328  19.801  32.272   8.253
 5487POPC   C3A 9329  19.868  32.244   7.953
 5487POPC   C4A 9330  19.824  32.261   7.653
 5487POPC   C1B 9331  19.997  32.091   8.553
 5487POPC   C2B 9332  19.955  32.068   8.253
 5487POPC   C3B 9333  19.993  32.044   7.953
 5487POPC   C4B 9334  20.018  32.093   7.653
 5488POPC   NC3 9335  12.066  15.155   9.453
 5488POPC   PO4 9336  12.057  15.219   9.153
 5488POPC   GL1 9337  12.041  15.164   8.853
 5488POPC   GL2 9338  12.109  15.283   8.853
 5488POPC   C1A 9339  12.053  15.146   8.553
 5488POPC   D2A 9340  12.056  15.228   8.253
 5488POPC   C3A 9341  12.050  15.217   7.953
 5488POPC   C4A 9342  12.060  15.179   7.653
 5488POPC   C1B 9343  12.134  15.440   8.553
 5488POPC   C2B 9344  12.160  15.446   8.253
 5488POPC   C3B 9345  12.160  15.406   7.953
 5488POPC   C4B 9346  12.118  15.420   7.653
 5489POPC   NC3 9347  41.519   3.532   9.453
 5489POPC   PO4 9348  41.608   3.536   9.153
 5489POPC   GL1 9349  41.538   3.495   8.853
 5489POPC   GL2 9350  41.650   3.626   8.853
 5489POPC   C1A 9351  41.538   3.538   8.553
 5489POPC   D2A 9352  41.528   3.581   8.253
 5489POPC   C3A 9353  41.518   3.589   7.953
 5489POPC   C4A 9354  41.519   3.590   7.653
 5489POPC   C1B 9355  41.697   3.697   8.553
 5489POPC   C2B 9356  41.768   3.730   8.253
 5489POPC   C3B 9357  41.695   3.760   7.953
 5489POPC   C4B 9358  41.692   3.727   7.653
 5490POPC   NC3 9359   4.333  12.884   9.453
 5490POPC   PO4 9360   4.353  12.827   9.153
 5490POPC   GL1 9361   4.286  12.810   8.853
 5490POPC   GL2 9362   4.391  12.870   8.853
 5490POPC   C1A 9363   4.290  12.842   8.553
 5490POPC   D2A 9364   4.328  12.889   8.253
 5490POPC   C3A 9365   4.277  12.816   7.953
 5490POPC   C4A 9366   4.332  12.893   7.653
 5490POPC   C1B 9367   4.549  12.940   8.553
 5490POPC   C2B 9368   4.509  12.967   8.253
 5490POPC   C3B 9369   4.545  12.929   7.953
 5490POPC   C4B 9370   4.563  12.987   7.653
 5491POPC   NC3 9371  25.220  30.719   9.453
 5491POPC   PO4 9372  25.293  30.723   9.153
 5491POPC   GL1 9373  25.310  30.670   8.853
 5491POPC   GL2 9374  25.201  30.773   8.853
 5491POPC   C1A 9375  25.261  30.717   8.553
 5491POPC   D2A 9376  25.271  30.670   8.253
 5491POPC   C3A 9377  25.238  30.685   7.953
 5491POPC   C4A 9378  25.223  30.692   7.653
 5491POPC   C1B 9379  25.247  30.894   8.553
 5491POPC   C2B 9380  25.215  30.948   8.253
 5491POPC   C3B 9381  25.183  30.939   7.953
 5491POPC   C4B 9382  25.209  30.942   7.653
 5492POPC   NC3 9383  29.193   5.845   9.453
 5492POPC   PO4 9384  29.156   5.914   9.153
 5492POPC   GL1 9385  29.155   5.899   8.853
 5492POPC   GL2 9386  29.115   6.004   8.853
 5492POPC   C1A 9387  29.163   5.866   8.553
 5492POPC   D2A 9388  29.113   5.829   8.253
 5492POPC   C3A 9389  29.178   5.864   7.953
 5492POPC   C4A 9390  29.163   5.899   7.653
 5492POPC   C1B 9391  29.104   6.136   8.553
 5492POPC   C2B 9392  29.092   6.152   8.253
 5492POPC   C3B 9393  29.189   6.079   7.953
 5492POPC   C4B 9394  29.114   6.086   7.653
 5493POPC   NC3 9395  22.143  37.659   9.453
 5493POPC   PO4 9396  22.203  37.646   9.153
 5493POPC   GL1 9397  22.148  37.678   8.853
 5493POPC   GL2 9398  22.124  37.619   8.853
 5493POPC   C1A 9399  22.194  37.677   8.553
 5493POPC   D2A 9400  22.175  37.640   8.253
 5493POPC   C3A 9401  22.168  37.689   7.953
 5493POPC   C4A 9402  22.158  37.661   7.653
 5493POPC   C1B 9403  22.020  37.504   8.553
 5493POPC   C2B 9404  22.015  37.483   8.253
 5493POPC   C3B 9405  22.028  37.463   7.953
 5493POPC   C4B 9406  21.970  37.458   7.653
 5494POPC   NC3 9407  19.050  34.526   9.453
 5494POPC   PO4 9408  19.031  34.593   9.153
 5494POPC   GL1 9409  19.037  34.566   8.853
 5494POPC   GL2 9410  19.226  34.527   8.853
 5494POPC   C1A 9411  19.060  34.542   8.553
 5494POPC   D2A 9412  19.093  34.593   8.253
 5494POPC   C3A 9413  19.087  34.590   7.953
 5494POPC   C4A 9414  19.094  34.535   7.653
 5494POPC   C1B 9415  19.269  34.595   8.553
 5494POPC   C2B 9416  19.281  34.561   8.253
 5494POPC   C3B 9417  19.346  34.560   7.953
 5494POPC   C4B 9418  19.267  34.549   7.653
 5495POPC   NC3 9419  22.132  43.926   9.453
 5495POPC   PO4 9420  22.184  43.920   9.153
 5495POPC   GL1 9421  22.163  43.854   8.853
 5495POPC   GL2 9422  22.216  43.975   8.853
 5495POPC   C1A 9423  22.152  43.886   8.553
 5495POPC   D2A 9424  22.156  43.885   8.253
 5495POPC   C3A 9425  22.177  43.918   7.953
 5495POPC   C4A 9426  22.156  43.853   7.653
 5495POPC   C1B 9427  22.227  44.082   8.553
 5495POPC   C2B 9428  22.300  44.072   8.253
 5495POPC   C3B 9429  22.293  44.089   7.953
 5495POPC   C4B 9430  22.206  44.126   7.653
 5496POPC   NC3 9431  18.294  21.359   9.453
 5496POPC   PO4 9432  18.327  21.398   9.153
 5496POPC   GL1 9433  18.279  21.348   8.853
 5496POPC   GL2 9434  18.363  21.268   8.853
 5496POPC   C1A 9435  18.256  21.371   8.553
 5496POPC   D2A 9436  18.306  21.407   8.253
 5496POPC   C3A 9437  18.267  21.382   7.953
 5496POPC   C4A 9438  18.325  21.427   7.653
 5496POPC   C1B 9439  18.411  21.200   8.553
 5496POPC   C2B 9440  18.439  21.190   8.253
 5496POPC   C3B 9441  18.417  21.186   7.953
 5496POPC   C4B 9442  18.436  21.185   7.653
 5497POPC   NC3 9443  27.569   9.718   9.453
 5497POPC   PO4 9444  27.583   9.765   9.153
 5497POPC   GL1 9445  27.597   9.751   8.853
 5497POPC   GL2 9446  27.475   9.829   8.853
 5497POPC   C1A 9447  27.631   9.797   8.553
 5497POPC   D2A 9448  27.635   9.731   8.253
 5497POPC   C3A 9449  27.614   9.749   7.953
 5497POPC   C4A 9450  27.607   9.706   7.653
 5497POPC   C1B 9451  27.365   9.908   8.553
 5497POPC   C2B 9452  27.435   9.952   8.253
 5497POPC   C3B 9453  27.362   9.873   7.953
 5497POPC   C4B 9454  27.369   9.955   7.653
 5498POPC   NC3 9455  22.918  33.034   9.453
 5498POPC   PO4 9456  22.961  33.042   9.153
 5498POPC   GL1 9457  22.919  33.069   8.853
 5498POPC   GL2 9458  22.956  33.119   8.853
 5498POPC   C1A 9459  22.909  33.011   8.553
 5498POPC   D2A 9460  22.984  33.040   8.253
 5498POPC   C3A 9461  22.948  33.027   7.953
 5498POPC   C4A 9462  22.925  32.999   7.653
 5498POPC   C1B 9463  23.010  33.218   8.553
 5498POPC   C2B 9464  23.081  33.232   8.253
 5498POPC   C3B 9465  23.030  33.211   7.953
 5498POPC   C4B 9466  23.012  33.282   7.653
 5499POPC   NC3 9467  34.563  19.828   9.453
 5499POPC   PO4 9468  34.618  19.840   9.153
 5499POPC   GL1 9469  34.584  19.863   8.853
 5499POPC   GL2 9470  34.464  19.687   8.853
 5499POPC   C1A 9471  34.597  19.804   8.553
 5499POPC   D2A 9472  34.605  19.813   8.253
 5499POPC   C3A 9473  34.539  19.797   7.953
 5499POPC   C4A 9474  34.554  19.804   7.653
 5499POPC   C1B 9475  34.395  19.619   8.553
 5499POPC   C2B 9476  34.431  19.677   8.253
 5499POPC   C3B 9477  34.390  19.653   7.953
 5499POPC   C4B 9478  34.374  19.670   7.653
 5500POPC   NC3 9479  22.155  39.198   9.453
 5500POPC   PO4 9480  22.194  39.213   9.153
 5500POPC   GL1 9481  22.199  39.231   8.853
 5500POPC   GL2 9482  22.154  39.375   8.853
 5500POPC   C1A 9483  22.173  39.234   8.553
 5500POPC   D2A 9484  22.126  39.185   8.253
 5500POPC   C3A 9485  22.177  39.221   7.953
 5500POPC   C4A 9486  22.133  39.185   7.653
 5500POPC   C1B 9487  22.255  39.479   8.553
 5500POPC   C2B 9488  22.203  39.455   8.253
 5500POPC   C3B 9489  22.248  39.482   7.953
 5500POPC   C4B 9490  22.226  39.447   7.653
 5501POPC   NC3 9491   8.227   0.476   9.453
 5501POPC   PO4 9492   8.186   0.417   9.153
 5501POPC   GL1 9493   8.238   0.397   8.853
 5501POPC   GL2 9494   8.151   0.575   8.853
 5501POPC   C1A 9495   8.189   0.407   8.553
 5501POPC   D2A 9496   8.179   0.473   8.253
 5501POPC   C3A 9497   8.162   0.409   7.953
 5501POPC   C4A 9498   8.170   0.465   7.653
 5501POPC   C1B 9499   8.011   0.655   8.553
 5501POPC   C2B 9500   8.021   0.653   8.253
 5501POPC   C3B 9501   8.036   0.620   7.953
 5501POPC   C4B 9502   8.003   0.673   7.653
 5502POPC   NC3 9503  30.716  29.179   9.453
 5502POPC   PO4 9504  30.655  29.148   9.153
 5502POPC   GL1 9505  30.654  29.098   8.853
 5502POPC   GL2 9506  30.575  29.183   8.853
 5502POPC   C1A 9507  30.661  29.180   8.553
 5502POPC   D2A 9508  30.651  29.111   8.253
 5502POPC   C3A 9509  30.658  29.131   7.953
 5502POPC   C4A 9510  30.706  29.097   7.653
 5502POPC   C1B 9511  30.431  29.174   8.553
 5502POPC   C2B 9512  30.496  29.203   8.253
 5502POPC   C3B 9513  30.427  29.154   7.953
 5502POPC   C4B 9514  30.406  29.154   7.653
 5503POPC   NC3 9515  20.614  38.452   9.453
 5503POPC   PO4 9516  20.569  38.471   9.153
 5503POPC   GL1 9517  20.642  38.441   8.853
 5503POPC   GL2 9518  20.758  38.420   8.853
 5503POPC   C1A 9519  20.605  38.472   8.553
 5503POPC   D2A 9520  20.582  38.470   8.253
 5503POPC   C3A 9521  20.561  38.477   7.953
 5503POPC   C4A 9522  20.628  38.407   7.653
 5503POPC   C1B 9523  20.851  38.430   8.553
 5503POPC   C2B 9524  20.807  38.416   8.253
 5503POPC   C3B 9525  20.838  38.350   7.953
 5503POPC   C4B 9526  20.828  38.409   7.653
 5504POPC   NC3 9527  12.052  17.481   9.453
 5504POPC   PO4 9528  12.116  17.480   9.153
 5504POPC   GL1 9529  12.090  17.470   8.853
 5504POPC   GL2 9530  12.192  17.491   8.853
 5504POPC   C1A 9531  12.065  17.552   8.553
 5504POPC   D2A 9532  12.096  17.460   8.253
 5504POPC   C3A 9533  12.083  17.480   7.953
 5504POPC   C4A 9534  12.050  17.553   7.653
 5504POPC   C1B 9535  12.269  17.415   8.553
 5504POPC   C2B 9536  12.320  17.406   8.253
 5504POPC   C3B 9537  12.313  17.407   7.953
 5504POPC   C4B 9538  12.280  17.415   7.653
 5505POPC   NC3 9539  29.892   5.870   9.453
 5505POPC   PO4 9540  29.927   5.847   9.153
 5505POPC   GL1 9541  29.957   5.892   8.853
 5505POPC   GL2 9542  29.862   5.940   8.853
 5505POPC   C1A 9543  29.910   5.884   8.553
 5505POPC   D2A 9544  29.962   5.874   8.253
 5505POPC   C3A 9545  29.891   5.846   7.953
 5505POPC   C4A 9546  29.945   5.839   7.653
 5505POPC   C1B 9547  29.752   6.032   8.553
 5505POPC   C2B 9548  29.789   6.124   8.253
 5505POPC   C3B 9549  29.790   6.066   7.953
 5505POPC   C4B 9550  29.743   6.029   7.653
 5506POPC   NC3 9551  21.409  36.151   9.453
 5506POPC   PO4 9552  21.361  36.107   9.153
 5506POPC   GL1 9553  21.411  36.160   8.853
 5506POPC   GL2 9554  21.247  36.237   8.853
 5506POPC   C1A 9555  21.410  36.134   8.553
 5506POPC   D2A 9556  21.390  36.089   8.253
 5506POPC   C3A 9557  21.428  36.089   7.953
 5506POPC   C4A 9558  21.387  36.099   7.653
 5506POPC   C1B 9559  21.204  36.237   8.553
 5506POPC   C2B 9560  21.165  36.257   8.253
 5506POPC   C3B 9561  21.183  36.318   7.953
 5506POPC   C4B 9562  21.227  36.297   7.653
 5507POPC   NC3 9563  29.119  34.564   9.453
 5507POPC   PO4 9564  29.156  34.564   9.153
 5507POPC   GL1 9565  29.193  34.567   8.853
 5507POPC   GL2 9566  29.011  34.445   8.853
 5507POPC   C1A 9567  29.162  34.570   8.553
 5507POPC   D2A 9568  29.149  34.528   8.253
 5507POPC   C3A 9569  29.165  34.616   7.953
 5507POPC   C4A 9570  29.123  34.570   7.653
 5507POPC   C1B 9571  28.917  34.418   8.553
 5507POPC   C2B 9572  28.966  34.424   8.253
 5507POPC   C3B 9573  29.007  34.421   7.953
 5507POPC   C4B 9574  28.999  34.449   7.653
 5508POPC   NC3 9575  15.218  40.765   9.453
 5508POPC   PO4 9576  15.158  40.804   9.153
 5508POPC   GL1 9577  15.151  40.794   8.853
 5508POPC   GL2 9578  15.054  40.852   8.853
 5508POPC   C1A 9579  15.141  40.769   8.553
 5508POPC   D2A 9580  15.196  40.786   8.253
 5508POPC   C3A 9581  15.227  40.738   7.953
 5508POPC   C4A 9582  15.148  40.805   7.653
 5508POPC   C1B 9583  15.008  40.949   8.553
 5508POPC   C2B 9584  15.021  40.998   8.253
 5508POPC   C3B 9585  15.000  41.017   7.953
 5508POPC   C4B 9586  15.051  41.001   7.653
 5509POPC   NC3 9587  36.881  19.086   9.453
 5509POPC   PO4 9588  36.869  19.100   9.153
 5509POPC   GL1 9589  36.945  19.085   8.853
 5509POPC   GL2 9590  36.852  18.928   8.853
 5509POPC   C1A 9591  36.912  19.023   8.553
 5509POPC   D2A 9592  36.867  19.017   8.253
 5509POPC   C3A 9593  36.905  19.033   7.953
 5509POPC   C4A 9594  36.886  19.082   7.653
 5509POPC   C1B 9595  36.808  18.850   8.553
 5509POPC   C2B 9596  36.766  18.845   8.253
 5509POPC   C3B 9597  36.819  18.855   7.953
 5509POPC   C4B 9598  36.781  18.836   7.653
 5510POPC   NC3 9599  20.617  43.070   9.453
 5510POPC   PO4 9600  20.637  43.079   9.153
 5510POPC   GL1 9601  20.627  43.131   8.853
 5510POPC   GL2 9602  20.550  43.059   8.853
 5510POPC   C1A 9603  20.578  43.154   8.553
 5510POPC   D2A 9604  20.623  43.121   8.253
 5510POPC   C3A 9605  20.614  43.151   7.953
 5510POPC   C4A 9606  20.636  43.103   7.653
 5510POPC   C1B 9607  20.399  42.989   8.553
 5510POPC   C2B 9608  20.466  42.908   8.253
 5510POPC   C3B 9609  20.391  42.978   7.953
 5510POPC   C4B 9610  20.413  42.971   7.653
 5511POPC   NC3 9611  33.754  32.270   9.453
 5511POPC   PO4 9612  33.839  32.223   9.153
 5511POPC   GL1 9613  33.836  32.296   8.853
 5511POPC   GL2 9614  33.800  32.112   8.853
 5511POPC   C1A 9615  33.836  32.206   8.553
 5511POPC   D2A 9616  33.754  32.297   8.253
 5511POPC   C3A 9617  33.818  32.243   7.953
 5511POPC   C4A 9618  33.779  32.199   7.653
 5511POPC   C1B 9619  33.739  31.993   8.553
 5511POPC   C2B 9620  33.720  32.012   8.253
 5511POPC   C3B 9621  33.722  31.971   7.953
 5511POPC   C4B 9622  33.698  32.052   7.653
 5512POPC   NC3 9623  30.658  39.186   9.453
 5512POPC   PO4 9624  30.685  39.254   9.153
 5512POPC   GL1 9625  30.680  39.218   8.853
 5512POPC   GL2 9626  30.538  39.306   8.853
 5512POPC   C1A 9627  30.673  39.210   8.553
 5512POPC   D2A 9628  30.691  39.234   8.253
 5512POPC   C3A 9629  30.690  39.207   7.953
 5512POPC   C4A 9630  30.668  39.240   7.653
 5512POPC   C1B 9631  30.415  39.322   8.553
 5512POPC   C2B 9632  30.413  39.253   8.253
 5512POPC   C3B 9633  30.430  39.246   7.953
 5512POPC   C4B 9634  30.423  39.336   7.653
 5513POPC   NC3 9635  36.105  16.731   9.453
 5513POPC   PO4 9636  36.088  16.740   9.153
 5513POPC   GL1 9637  36.153  16.712   8.853
 5513POPC   GL2 9638  36.132  16.841   8.853
 5513POPC   C1A 9639  36.170  16.705   8.553
 5513POPC   D2A 9640  36.095  16.708   8.253
 5513POPC   C3A 9641  36.102  16.694   7.953
 5513POPC   C4A 9642  36.175  16.713   7.653
 5513POPC   C1B 9643  36.219  16.925   8.553
 5513POPC   C2B 9644  36.196  16.951   8.253
 5513POPC   C3B 9645  36.231  16.952   7.953
 5513POPC   C4B 9646  36.199  16.969   7.653
 5514POPC   NC3 9647  11.324  22.948   9.453
 5514POPC   PO4 9648  11.283  22.911   9.153
 5514POPC   GL1 9649  11.344  22.919   8.853
 5514POPC   GL2 9650  11.471  22.970   8.853
 5514POPC   C1A 9651  11.255  22.907   8.553
 5514POPC   D2A 9652  11.276  22.913   8.253
 5514POPC   C3A 9653  11.251  22.926   7.953
 5514POPC   C4A 9654  11.321  22.908   7.653
 5514POPC   C1B 9655  11.557  22.960   8.553
 5514POPC   C2B 9656  11.579  23.007   8.253
 5514POPC   C3B 9657  11.573  22.980   7.953
 5514POPC   C4B 9658  11.558  23.018   7.653
 5515POPC   NC3 9659  27.553   5.097   9.453
 5515POPC   PO4 9660  27.595   5.045   9.153
 5515POPC   GL1 9661  27.549   5.063   8.853
 5515POPC   GL2 9662  27.582   5.005   8.853
 5515POPC   C1A 9663  27.585   5.062   8.553
 5515POPC   D2A 9664  27.627   5.049   8.253
 5515POPC   C3A 9665  27.631   5.085   7.953
 5515POPC   C4A 9666  27.622   5.107   7.653
 5515POPC   C1B 9667  27.541   4.884   8.553
 5515POPC   C2B 9668  27.593   4.854   8.253
 5515POPC   C3B 9669  27.586   4.841   7.953
 5515POPC   C4B 9670  27.555   4.866   7.653
 5516POPC   NC3 9671  36.914  35.388   9.453
 5516POPC   PO4 9672  36.940  35.345   9.153
 5516POPC   GL1 9673  36.891  35.400   8.853
 5516POPC   GL2 9674  36.813  35.344   8.853
 5516POPC   C1A 9675  36.950  35.304   8.553
 5516POPC   D2A 9676  36.919  35.391   8.253
 5516POPC   C3A 9677  36.942  35.350   7.953
 5516POPC   C4A 9678  36.915  35.322   7.653
 5516POPC   C1B 9679  36.718  35.243   8.553
 5516POPC   C2B 9680  36.623  35.242   8.253
 5516POPC   C3B 9681  36.702  35.272   7.953
 5516POPC   C4B 9682  36.714  35.283   7.653
 5517POPC   NC3 9683  10.551   8.996   9.453
 5517POPC   PO4 9684  10.509   8.970   9.153
 5517POPC   GL1 9685  10.535   8.958   8.853
 5517POPC   GL2 9686  10.631   9.097   8.853
 5517POPC   C1A 9687  10.543   8.994   8.553
 5517POPC   D2A 9688  10.535   8.954   8.253
 5517POPC   C3A 9689  10.537   8.981   7.953
 5517POPC   C4A 9690  10.538   8.959   7.653
 5517POPC   C1B 9691  10.698   9.169   8.553
 5517POPC   C2B 9692  10.679   9.128   8.253
 5517POPC   C3B 9693  10.736   9.112   7.953
 5517POPC   C4B 9694  10.695   9.097   7.653
 5518POPC   NC3 9695  19.010  35.365   9.453
 5518POPC   PO4 9696  19.107  35.331   9.153
 5518POPC   GL1 9697  19.009  35.304   8.853
 5518POPC   GL2 9698  18.897  35.408   8.853
 5518POPC   C1A 9699  19.057  35.328   8.553
 5518POPC   D2A 9700  19.073  35.303   8.253
 5518POPC   C3A 9701  19.077  35.320   7.953
 5518POPC   C4A 9702  19.092  35.333   7.653
 5518POPC   C1B 9703  18.787  35.426   8.553
 5518POPC   C2B 9704  18.790  35.428   8.253
 5518POPC   C3B 9705  18.776  35.429   7.953
 5518POPC   C4B 9706  18.789  35.412   7.653
 5519POPC   NC3 9707  12.865  25.294   9.453
 5519POPC   PO4 9708  12.885  25.305   9.153
 5519POPC   GL1 9709  12.865  25.287   8.853
 5519POPC   GL2 9710  12.965  25.266   8.853
 5519POPC   C1A 9711  12.833  25.223   8.553
 5519POPC   D2A 9712  12.848  25.234   8.253
 5519POPC   C3A 9713  12.859  25.270   7.953
 5519POPC   C4A 9714  12.807  25.240   7.653
 5519POPC   C1B 9715  13.145  25.318   8.553
 5519POPC   C2B 9716  13.070  25.260   8.253
 5519POPC   C3B 9717  13.104  25.265   7.953
 5519POPC   C4B 9718  13.114  25.282   7.653
 5520POPC   NC3 9719  31.438  37.638   9.453
 5520POPC   PO4 9720  31.451  37.663   9.153
 5520POPC   GL1 9721  31.459  37.661   8.853
 5520POPC   GL2 9722  31.427  37.601   8.853
 5520POPC   C1A 9723  31.460  37.714   8.553
 5520POPC   D2A 9724  31.433  37.695   8.253
 5520POPC   C3A 9725  31.456  37.684   7.953
 5520POPC   C4A 9726  31.486  37.657   7.653
 5520POPC   C1B 9727  31.373  37.441   8.553
 5520POPC   C2B 9728  31.325  37.464   8.253
 5520POPC   C3B 9729  31.370  37.476   7.953
 5520POPC   C4B 9730  31.337  37.463   7.653
 5521POPC   NC3 9731  18.270   2.767   9.453
 5521POPC   PO4 9732  18.270   2.787   9.153
 5521POPC   GL1 9733  18.261   2.738   8.853
 5521POPC   GL2 9734  18.360   2.786   8.853
 5521POPC   C1A 9735  18.248   2.736   8.553
 5521POPC   D2A 9736  18.239   2.809   8.253
 5521POPC   C3A 9737  18.284   2.765   7.953
 5521POPC   C4A 9738  18.240   2.805   7.653
 5521POPC   C1B 9739  18.506   2.864   8.553
 5521POPC   C2B 9740  18.477   2.865   8.253
 5521POPC   C3B 9741  18.476   2.882   7.953
 5521POPC   C4B 9742  18.521   2.833   7.653
 5522POPC   NC3 9743   5.087  12.841   9.453
 5522POPC   PO4 9744   5.123  12.888   9.153
 5522POPC   GL1 9745   5.088  12.872   8.853
 5522POPC   GL2 9746   4.960  12.825   8.853
 5522POPC   C1A 9747   5.051  12.827   8.553
 5522POPC   D2A 9748   5.132  12.878   8.253
 5522POPC   C3A 9749   5.084  12.876   7.953
 5522POPC   C4A 9750   5.082  12.833   7.653
 5522POPC   C1B 9751   4.862  12.871   8.553
 5522POPC   C2B 9752   4.878  12.859   8.253
 5522POPC   C3B 9753   4.841  12.882   7.953
 5522POPC   C4B 9754   4.868  12.847   7.653
 5523POPC   NC3 9755  37.672  20.603   9.453
 5523POPC   PO4 9756  37.635  20.640   9.153
 5523POPC   GL1 9757  37.632  20.567   8.853
 5523POPC   GL2 9758  37.556  20.623   8.853
 5523POPC   C1A 9759  37.717  20.564   8.553
 5523POPC   D2A 9760  37.718  20.650   8.253
 5523POPC   C3A 9761  37.676  20.571   7.953
 5523POPC   C4A 9762  37.630  20.654   7.653
 5523POPC   C1B 9763  37.436  20.642   8.553
 5523POPC   C2B 9764  37.451  20.645   8.253
 5523POPC   C3B 9765  37.452  20.685   7.953
 5523POPC   C4B 9766  37.468  20.703   7.653
 5524POPC   NC3 9767  38.426  36.937   9.453
 5524POPC   PO4 9768  38.488  36.944   9.153
 5524POPC   GL1 9769  38.421  36.902   8.853
 5524POPC   GL2 9770  38.532  37.036   8.853
 5524POPC   C1A 9771  38.503  36.910   8.553
 5524POPC   D2A 9772  38.447  36.904   8.253
 5524POPC   C3A 9773  38.439  36.864   7.953
 5524POPC   C4A 9774  38.503  36.932   7.653
 5524POPC   C1B 9775  38.606  37.041   8.553
 5524POPC   C2B 9776  38.637  37.052   8.253
 5524POPC   C3B 9777  38.580  37.047   7.953
 5524POPC   C4B 9778  38.671  37.102   7.653
 5525POPC   NC3 9779  36.161  32.265   9.453
 5525POPC   PO4 9780  36.088  32.204   9.153
 5525POPC   GL1 9781  36.125  32.251   8.853
 5525POPC   GL2 9782  36.016  32.172   8.853
 5525POPC   C1A 9783  36.158  32.259   8.553
 5525POPC   D2A 9784  36.169  32.245   8.253
 5525POPC   C3A 9785  36.170  32.208   7.953
 5525POPC   C4A 9786  36.169  32.229   7.653
 5525POPC   C1B 9787  35.959  32.095   8.553
 5525POPC   C2B 9788  35.897  32.119   8.253
 5525POPC   C3B 9789  35.935  32.116   7.953
 5525POPC   C4B 9790  35.912  32.092   7.653
 5526POPC   NC3 9791  20.585   2.037   9.453
 5526POPC   PO4 9792  20.564   1.974   9.153
 5526POPC   GL1 9793  20.657   2.024   8.853
 5526POPC   GL2 9794  20.574   1.820   8.853
 5526POPC   C1A 9795  20.588   2.038   8.553
 5526POPC   D2A 9796  20.635   1.959   8.253
 5526POPC   C3A 9797  20.657   1.968   7.953
 5526POPC   C4A 9798  20.581   2.034   7.653
 5526POPC   C1B 9799  20.650   1.708   8.553
 5526POPC   C2B 9800  20.611   1.778   8.253
 5526POPC   C3B 9801  20.648   1.754   7.953
 5526POPC   C4B 9802  20.607   1.723   7.653
 5527POPC   NC3 9803  20.587   9.727   9.453
 5527POPC   PO4 9804  20.594   9.757   9.153
 5527POPC   GL1 9805  20.625   9.701   8.853
 5527POPC   GL2 9806  20.519   9.831   8.853
 5527POPC   C1A 9807  20.570   9.713   8.553
 5527POPC   D2A 9808  20.641   9.753   8.253
 5527POPC   C3A 9809  20.602   9.722   7.953
 5527POPC   C4A 9810  20.589   9.762   7.653
 5527POPC   C1B 9811  20.461   9.926   8.553
 5527POPC   C2B 9812  20.456   9.950   8.253
 5527POPC   C3B 9813  20.461   9.921   7.953
 5527POPC   C4B 9814  20.452   9.991   7.653
 5528POPC   NC3 9815  37.650  42.354   9.453
 5528POPC   PO4 9816  37.642  42.375   9.153
 5528POPC   GL1 9817  37.633  42.300   8.853
 5528POPC   GL2 9818  37.576  42.347   8.853
 5528POPC   C1A 9819  37.667  42.303   8.553
 5528POPC   D2A 9820  37.718  42.322   8.253
 5528POPC   C3A 9821  37.647  42.287   7.953
 5528POPC   C4A 9822  37.724  42.313   7.653
 5528POPC   C1B 9823  37.510  42.476   8.553
 5528POPC   C2B 9824  37.504  42.479   8.253
 5528POPC   C3B 9825  37.464  42.456   7.953
 5528POPC   C4B 9826  37.417  42.477   7.653
 5529POPC   NC3 9827  25.245  19.807   9.453
 5529POPC   PO4 9828  25.264  19.838   9.153
 5529POPC   GL1 9829  25.278  19.811   8.853
 5529POPC   GL2 9830  25.348  19.890   8.853
 5529POPC   C1A 9831  25.244  19.834   8.553
 5529POPC   D2A 9832  25.287  19.814   8.253
 5529POPC   C3A 9833  25.290  19.836   7.953
 5529POPC   C4A 9834  25.227  19.789   7.653
 5529POPC   C1B 9835  25.494  19.880   8.553
 5529POPC   C2B 9836  25.540  19.875   8.253
 5529POPC   C3B 9837  25.535  19.891   7.953
 5529POPC   C4B 9838  25.515  19.842   7.653
 5530POPC   NC3 9839   4.361  39.253   9.453
 5530POPC   PO4 9840   4.280  39.230   9.153
 5530POPC   GL1 9841   4.314  39.227   8.853
 5530POPC   GL2 9842   4.296  39.356   8.853
 5530POPC   C1A 9843   4.355  39.244   8.553
 5530POPC   D2A 9844   4.329  39.213   8.253
 5530POPC   C3A 9845   4.339  39.195   7.953
 5530POPC   C4A 9846   4.285  39.232   7.653
 5530POPC   C1B 9847   4.324  39.483   8.553
 5530POPC   C2B 9848   4.261  39.470   8.253
 5530POPC   C3B 9849   4.319  39.467   7.953
 5530POPC   C4B 9850   4.259  39.484   7.653
 5531POPC   NC3 9851  30.745  41.519   9.453
 5531POPC   PO4 9852  30.711  41.595   9.153
 5531POPC   GL1 9853  30.730  41.561   8.853
 5531POPC   GL2 9854  30.597  41.445   8.853
 5531POPC   C1A 9855  30.690  41.594   8.553
 5531POPC   D2A 9856  30.681  41.515   8.253
 5531POPC   C3A 9857  30.718  41.530   7.953
 5531POPC   C4A 9858  30.724  41.608   7.653
 5531POPC   C1B 9859  30.509  41.395   8.553
 5531POPC   C2B 9860  30.511  41.384   8.253
 5531POPC   C3B 9861  30.487  41.416   7.953
 5531POPC   C4B 9862  30.508  41.423   7.653
 5532POPC   NC3 9863  15.927  10.547   9.453
 5532POPC   PO4 9864  15.915  10.497   9.153
 5532POPC   GL1 9865  15.966  10.543   8.853
 5532POPC   GL2 9866  15.998  10.568   8.853
 5532POPC   C1A 9867  16.005  10.520   8.553
 5532POPC   D2A 9868  15.919  10.501   8.253
 5532POPC   C3A 9869  15.960  10.477   7.953
 5532POPC   C4A 9870  15.954  10.496   7.653
 5532POPC   C1B 9871  16.118  10.706   8.553
 5532POPC   C2B 9872  16.101  10.741   8.253
 5532POPC   C3B 9873  16.083  10.685   7.953
 5532POPC   C4B 9874  16.147  10.728   7.653
 5533POPC   NC3 9875  12.059  12.899   9.453
 5533POPC   PO4 9876  12.115  12.901   9.153
 5533POPC   GL1 9877  12.047  12.825   8.853
 5533POPC   GL2 9878  11.960  12.926   8.853
 5533POPC   C1A 9879  12.049  12.843   8.553
 5533POPC   D2A 9880  12.052  12.827   8.253
 5533POPC   C3A 9881  12.081  12.802   7.953
 5533POPC   C4A 9882  12.094  12.837   7.653
 5533POPC   C1B 9883  11.894  12.991   8.553
 5533POPC   C2B 9884  11.822  13.019   8.253
 5533POPC   C3B 9885  11.847  12.975   7.953
 5533POPC   C4B 9886  11.878  12.990   7.653
 5534POPC   NC3 9887  22.148  42.381   9.453
 5534POPC   PO4 9888  22.127  42.311   9.153
 5534POPC   GL1 9889  22.117  42.336   8.853
 5534POPC   GL2 9890  22.227  42.393   8.853
 5534POPC   C1A 9891  22.174  42.376   8.553
 5534POPC   D2A 9892  22.137  42.343   8.253
 5534POPC   C3A 9893  22.123  42.356   7.953
 5534POPC   C4A 9894  22.127  42.354   7.653
 5534POPC   C1B 9895  22.389  42.493   8.553
 5534POPC   C2B 9896  22.360  42.442   8.253
 5534POPC   C3B 9897  22.384  42.459   7.953
 5534POPC   C4B 9898  22.309  42.443   7.653
 5535POPC   NC3 9899  12.815  21.379   9.453
 5535POPC   PO4 9900  12.881  21.414   9.153
 5535POPC   GL1 9901  12.886  21.401   8.853
 5535POPC   GL2 9902  12.811  21.311   8.853
 5535POPC   C1A 9903  12.866  21.370   8.553
 5535POPC   D2A 9904  12.863  21.341   8.253
 5535POPC   C3A 9905  12.897  21.360   7.953
 5535POPC   C4A 9906  12.854  21.356   7.653
 5535POPC   C1B 9907  12.759  21.191   8.553
 5535POPC   C2B 9908  12.740  21.146   8.253
 5535POPC   C3B 9909  12.728  21.194   7.953
 5535POPC   C4B 9910  12.803  21.142   7.653
 5536POPC   NC3 9911  22.953  36.100   9.453
 5536POPC   PO4 9912  22.975  36.101   9.153
 5536POPC   GL1 9913  22.969  36.134   8.853
 5536POPC   GL2 9914  23.012  36.104   8.853
 5536POPC   C1A 9915  22.940  36.083   8.553
 5536POPC   D2A 9916  22.948  36.161   8.253
 5536POPC   C3A 9917  22.945  36.090   7.953
 5536POPC   C4A 9918  22.906  36.125   7.653
 5536POPC   C1B 9919  23.213  36.041   8.553
 5536POPC   C2B 9920  23.160  36.102   8.253
 5536POPC   C3B 9921  23.180  36.097   7.953
 5536POPC   C4B 9922  23.198  36.052   7.653
 5537POPC   NC3 9923   1.986  36.875   9.453
 5537POPC   PO4 9924   2.023  36.914   9.153
 5537POPC   GL1 9925   1.994  36.945   8.853
 5537POPC   GL2 9926   2.084  36.966   8.853
 5537POPC   C1A 9927   2.017  36.908   8.553
 5537POPC   D2A 9928   1.987  36.903   8.253
 5537POPC   C3A 9929   1.969  36.952   7.953
 5537POPC   C4A 9930   1.978  36.951   7.653
 5537POPC   C1B 9931   2.206  36.932   8.553
 5537POPC   C2B 9932   2.236  36.997   8.253
 5537POPC   C3B 9933   2.218  36.935   7.953
 5537POPC   C4B 9934   2.252  37.005   7.653
 5538POPC   NC3 9935   2.745  41.540   9.453
 5538POPC   PO4 9936   2.741  41.570   9.153
 5538POPC   GL1 9937   2.750  41.557   8.853
 5538POPC   GL2 9938   2.634  41.547   8.853
 5538POPC   C1A 9939   2.735  41.540   8.553
 5538POPC   D2A 9940   2.814  41.534   8.253
 5538POPC   C3A 9941   2.748  41.601   7.953
 5538POPC   C4A 9942   2.793  41.554   7.653
 5538POPC   C1B 9943   2.500  41.527   8.553
 5538POPC   C2B 9944   2.562  41.522   8.253
 5538POPC   C3B 9945   2.558  41.482   7.953
 5538POPC   C4B 9946   2.570  41.470   7.653
 5539POPC   NC3 9947  11.324   2.743   9.453
 5539POPC   PO4 9948  11.306   2.783   9.153
 5539POPC   GL1 9949  11.322   2.771   8.853
 5539POPC   GL2 9950  11.170   2.694   8.853
 5539POPC   C1A 9951  11.304   2.767   8.553
 5539POPC   D2A 9952  11.277   2.742   8.253
 5539POPC   C3A 9953  11.333   2.753   7.953
 5539POPC   C4A 9954  11.279   2.792   7.653
 5539POPC   C1B 9955  11.121   2.687   8.553
 5539POPC   C2B 9956  11.100   2.607   8.253
 5539POPC   C3B 9957  11.082   2.601   7.953
 5539POPC   C4B 9958  11.097   2.675   7.653
 5540POPC   NC3 9959  27.605  18.313   9.453
 5540POPC   PO4 9960  27.643  18.285   9.153
 5540POPC   GL1 9961  27.589  18.330   8.853
 5540POPC   GL2 9962  27.569  18.129   8.853
 5540POPC   C1A 9963  27.608  18.323   8.553
 5540POPC   D2A 9964  27.553  18.317   8.253
 5540POPC   C3A 9965  27.626  18.272   7.953
 5540POPC   C4A 9966  27.633  18.296   7.653
 5540POPC   C1B 9967  27.485  18.064   8.553
 5540POPC   C2B 9968  27.531  18.065   8.253
 5540POPC   C3B 9969  27.500  18.089   7.953
 5540POPC   C4B 9970  27.495  18.055   7.653
 5541POPC   NC3 9971  17.460   0.399   9.453
 5541POPC   PO4 9972  17.479   0.483   9.153
 5541POPC   GL1 9973  17.488   0.441   8.853
 5541POPC   GL2 9974  17.373   0.380   8.853
 5541POPC   C1A 9975  17.468   0.404   8.553
 5541POPC   D2A 9976  17.494   0.447   8.253
 5541POPC   C3A 9977  17.463   0.473   7.953
 5541POPC   C4A 9978  17.548   0.432   7.653
 5541POPC   C1B 9979  17.365   0.306   8.553
 5541POPC   C2B 9980  17.315   0.243   8.253
 5541POPC   C3B 9981  17.338   0.297   7.953
 5541POPC   C4B 9982  17.351   0.218   7.653
 5542POPC   NC3 9983   0.431  10.480   9.453
 5542POPC   PO4 9984   0.480  10.528   9.153
 5542POPC   GL1 9985   0.480  10.486   8.853
 5542POPC   GL2 9986   0.491  10.415   8.853
 5542POPC   C1A 9987   0.438  10.536   8.553
 5542POPC   D2A 9988   0.485  10.513   8.253
 5542POPC   C3A 9989   0.484  10.520   7.953
 5542POPC   C4A 9990   0.410  10.528   7.653
 5542POPC   C1B 9991   0.527  10.315   8.553
 5542POPC   C2B 9992   0.486  10.259   8.253
 5542POPC   C3B 9993   0.545  10.337   7.953
 5542POPC   C4B 9994   0.530  10.269   7.653
 5543POPC   NC3 9995  19.092  22.903   9.453
 5543POPC   PO4 9996  19.038  22.902   9.153
 5543POPC   GL1 9997  19.074  22.945   8.853
 5543POPC   GL2 9998  19.052  23.083   8.853
 5543POPC   C1A 9999  19.041  22.909   8.553
 5543POPC   D2A10000  19.020  22.984   8.253
 5543POPC   C3A10001  19.079  22.912   7.953
 5543POPC   C4A10002  19.101  22.933   7.653
 5543POPC   C1B10003  19.063  23.211   8.553
 5543POPC   C2B10004  19.017  23.217   8.253
 5543POPC   C3B10005  19.103  23.180   7.953
 5543POPC   C4B10006  19.027  23.165   7.653
 5544POPC   NC310007  30.681  42.324   9.453
 5544POPC   PO410008  30.736  42.358   9.153
 5544POPC   GL110009  30.683  42.329   8.853
 5544POPC   GL210010  30.694  42.203   8.853
 5544POPC   C1A10011  30.713  42.316   8.553
 5544POPC   D2A10012  30.705  42.336   8.253
 5544POPC   C3A10013  30.684  42.318   7.953
 5544POPC   C4A10014  30.738  42.319   7.653
 5544POPC   C1B10015  30.708  42.051   8.553
 5544POPC   C2B10016  30.737  42.100   8.253
 5544POPC   C3B10017  30.756  42.119   7.953
 5544POPC   C4B10018  30.683  42.038   7.653
 5545POPC   NC310019  37.700  40.005   9.453
 5545POPC   PO410020  37.670  40.047   9.153
 5545POPC   GL110021  37.660  39.976   8.853
 5545POPC   GL210022  37.827  39.984   8.853
 5545POPC   C1A10023  37.725  39.991   8.553
 5545POPC   D2A10024  37.641  40.039   8.253
 5545POPC   C3A10025  37.719  40.028   7.953
 5545POPC   C4A10026  37.672  40.028   7.653
 5545POPC   C1B10027  37.924  39.870   8.553
 5545POPC   C2B10028  37.903  39.954   8.253
 5545POPC   C3B10029  37.883  39.879   7.953
 5545POPC   C4B10030  37.871  39.871   7.653
 5546POPC   NC310031  38.429  18.297   9.453
 5546POPC   PO410032  38.431  18.306   9.153
 5546POPC   GL110033  38.501  18.287   8.853
 5546POPC   GL210034  38.543  18.257   8.853
 5546POPC   C1A10035  38.459  18.282   8.553
 5546POPC   D2A10036  38.494  18.289   8.253
 5546POPC   C3A10037  38.457  18.263   7.953
 5546POPC   C4A10038  38.463  18.298   7.653
 5546POPC   C1B10039  38.678  18.163   8.553
 5546POPC   C2B10040  38.672  18.177   8.253
 5546POPC   C3B10041  38.652  18.239   7.953
 5546POPC   C4B10042  38.733  18.220   7.653
 5547POPC   NC310043  16.762   3.524   9.453
 5547POPC   PO410044  16.725   3.510   9.153
 5547POPC   GL110045  16.741   3.525   8.853
 5547POPC   GL210046  16.858   3.495   8.853
 5547POPC   C1A10047  16.742   3.588   8.553
 5547POPC   D2A10048  16.740   3.574   8.253
 5547POPC   C3A10049  16.711   3.536   7.953
 5547POPC   C4A10050  16.742   3.509   7.653
 5547POPC   C1B10051  16.948   3.487   8.553
 5547POPC   C2B10052  17.004   3.526   8.253
 5547POPC   C3B10053  16.966   3.540   7.953
 5547POPC   C4B10054  17.026   3.482   7.653
 5548POPC   NC310055  12.896  26.798   9.453
 5548POPC   PO410056  12.879  26.829   9.153
 5548POPC   GL110057  12.815  26.786   8.853
 5548POPC   GL210058  12.889  26.935   8.853
 5548POPC   C1A10059  12.893  26.847   8.553
 5548POPC   D2A10060  12.871  26.804   8.253
 5548POPC   C3A10061  12.832  26.865   7.953
 5548POPC   C4A10062  12.825  26.815   7.653
 5548POPC   C1B10063  12.926  27.074   8.553
 5548POPC   C2B10064  12.899  27.092   8.253
 5548POPC   C3B10065  12.933  27.009   7.953
 5548POPC   C4B10066  12.903  27.079   7.653
 5549POPC   NC310067   6.694   8.192   9.453
 5549POPC   PO410068   6.604   8.232   9.153
 5549POPC   GL110069   6.674   8.235   8.853
 5549POPC   GL210070   6.742   8.278   8.853
 5549POPC   C1A10071   6.690   8.238   8.553
 5549POPC   D2A10072   6.689   8.239   8.253
 5549POPC   C3A10073   6.667   8.226   7.953
 5549POPC   C4A10074   6.616   8.193   7.653
 5549POPC   C1B10075   6.911   8.309   8.553
 5549POPC   C2B10076   6.859   8.347   8.253
 5549POPC   C3B10077   6.845   8.320   7.953
 5549POPC   C4B10078   6.836   8.316   7.653
 5550POPC   NC310079  29.950   6.623   9.453
 5550POPC   PO410080  29.901   6.668   9.153
 5550POPC   GL110081  29.947   6.672   8.853
 5550POPC   GL210082  29.993   6.743   8.853
 5550POPC   C1A10083  29.893   6.665   8.553
 5550POPC   D2A10084  29.967   6.615   8.253
 5550POPC   C3A10085  29.970   6.676   7.953
 5550POPC   C4A10086  29.921   6.615   7.653
 5550POPC   C1B10087  30.066   6.889   8.553
 5550POPC   C2B10088  30.097   6.887   8.253
 5550POPC   C3B10089  30.114   6.882   7.953
 5550POPC   C4B10090  30.049   6.868   7.653
 5551POPC   NC310091  37.725  17.510   9.453
 5551POPC   PO410092  37.701  17.471   9.153
 5551POPC   GL110093  37.721  17.517   8.853
 5551POPC   GL210094  37.666  17.676   8.853
 5551POPC   C1A10095  37.720  17.471   8.553
 5551POPC   D2A10096  37.663  17.555   8.253
 5551POPC   C3A10097  37.729  17.486   7.953
 5551POPC   C4A10098  37.665  17.509   7.653
 5551POPC   C1B10099  37.686  17.786   8.553
 5551POPC   C2B10100  37.642  17.709   8.253
 5551POPC   C3B10101  37.662  17.756   7.953
 5551POPC   C4B10102  37.721  17.800   7.653
 5552POPC   NC310103  24.459  26.789   9.453
 5552POPC   PO410104  24.505  26.775   9.153
 5552POPC   GL110105  24.536  26.865   8.853
 5552POPC   GL210106  24.576  26.726   8.853
 5552POPC   C1A10107  24.510  26.797   8.553
 5552POPC   D2A10108  24.511  26.813   8.253
 5552POPC   C3A10109  24.483  26.822   7.953
 5552POPC   C4A10110  24.446  26.826   7.653
 5552POPC   C1B10111  24.747  26.697   8.553
 5552POPC   C2B10112  24.680  26.669   8.253
 5552POPC   C3B10113  24.755  26.731   7.953
 5552POPC   C4B10114  24.719  26.711   7.653
 5553POPC   NC310115  42.340   8.202   9.453
 5553POPC   PO410116  42.307   8.186   9.153
 5553POPC   GL110117  42.316   8.245   8.853
 5553POPC   GL210118  42.256   8.259   8.853
 5553POPC   C1A10119  42.320   8.216   8.553
 5553POPC   D2A10120  42.357   8.196   8.253
 5553POPC   C3A10121  42.340   8.181   7.953
 5553POPC   C4A10122  42.315   8.159   7.653
 5553POPC   C1B10123  42.148   8.289   8.553
 5553POPC   C2B10124  42.090   8.385   8.253
 5553POPC   C3B10125  42.130   8.326   7.953
 5553POPC   C4B10126  42.152   8.362   7.653
 5554POPC   NC310127  33.803  19.062   9.453
 5554POPC   PO410128  33.827  19.051   9.153
 5554POPC   GL110129  33.818  19.051   8.853
 5554POPC   GL210130  33.834  18.899   8.853
 5554POPC   C1A10131  33.773  19.056   8.553
 5554POPC   D2A10132  33.783  19.046   8.253
 5554POPC   C3A10133  33.822  19.093   7.953
 5554POPC   C4A10134  33.758  19.092   7.653
 5554POPC   C1B10135  33.830  18.828   8.553
 5554POPC   C2B10136  33.770  18.794   8.253
 5554POPC   C3B10137  33.803  18.842   7.953
 5554POPC   C4B10138  33.745  18.855   7.653
 5555POPC   NC310139   8.953  17.540   9.453
 5555POPC   PO410140   8.935  17.544   9.153
 5555POPC   GL110141   8.953  17.461   8.853
 5555POPC   GL210142   9.045  17.416   8.853
 5555POPC   C1A10143   8.958  17.523   8.553
 5555POPC   D2A10144   8.929  17.511   8.253
 5555POPC   C3A10145   8.985  17.535   7.953
 5555POPC   C4A10146   9.008  17.484   7.653
 5555POPC   C1B10147   9.149  17.273   8.553
 5555POPC   C2B10148   9.112  17.277   8.253
 5555POPC   C3B10149   9.181  17.340   7.953
 5555POPC   C4B10150   9.087  17.300   7.653
 5556POPC   NC310151  12.875   8.198   9.453
 5556POPC   PO410152  12.880   8.229   9.153
 5556POPC   GL110153  12.809   8.238   8.853
 5556POPC   GL210154  12.755   8.248   8.853
 5556POPC   C1A10155  12.815   8.151   8.553
 5556POPC   D2A10156  12.890   8.164   8.253
 5556POPC   C3A10157  12.859   8.153   7.953
 5556POPC   C4A10158  12.862   8.218   7.653
 5556POPC   C1B10159  12.668   8.276   8.553
 5556POPC   C2B10160  12.600   8.260   8.253
 5556POPC   C3B10161  12.579   8.263   7.953
 5556POPC   C4B10162  12.594   8.311   7.653
 5557POPC   NC310163  11.334  16.768   9.453
 5557POPC   PO410164  11.292  16.693   9.153
 5557POPC   GL110165  11.344  16.725   8.853
 5557POPC   GL210166  11.263  16.788   8.853
 5557POPC   C1A10167  11.350  16.754   8.553
 5557POPC   D2A10168  11.315  16.769   8.253
 5557POPC   C3A10169  11.306  16.767   7.953
 5557POPC   C4A10170  11.329  16.747   7.653
 5557POPC   C1B10171  11.193  16.967   8.553
 5557POPC   C2B10172  11.159  16.890   8.253
 5557POPC   C3B10173  11.142  16.899   7.953
 5557POPC   C4B10174  11.191  16.975   7.653
 5558POPC   NC310175  42.338  33.824   9.453
 5558POPC   PO410176  42.383  33.816   9.153
 5558POPC   GL110177  42.359  33.834   8.853
 5558POPC   GL210178  42.413  33.843   8.853
 5558POPC   C1A10179  42.357  33.801   8.553
 5558POPC   D2A10180  42.346  33.831   8.253
 5558POPC   C3A10181  42.331  33.834   7.953
 5558POPC   C4A10182  42.308  33.752   7.653
 5558POPC   C1B10183  42.546  33.798   8.553
 5558POPC   C2B10184  42.548  33.750   8.253
 5558POPC   C3B10185  42.544  33.776   7.953
 5558POPC   C4B10186  42.601  33.831   7.653
 5559POPC   NC310187  17.488   2.774   9.453
 5559POPC   PO410188  17.486   2.763   9.153
 5559POPC   GL110189  17.458   2.790   8.853
 5559POPC   GL210190  17.590   2.697   8.853
 5559POPC   C1A10191  17.541   2.790   8.553
 5559POPC   D2A10192  17.526   2.797   8.253
 5559POPC   C3A10193  17.459   2.778   7.953
 5559POPC   C4A10194  17.493   2.748   7.653
 5559POPC   C1B10195  17.704   2.607   8.553
 5559POPC   C2B10196  17.700   2.523   8.253
 5559POPC   C3B10197  17.623   2.598   7.953
 5559POPC   C4B10198  17.699   2.618   7.653
 5560POPC   NC310199  22.167  28.371   9.453
 5560POPC   PO410200  22.152  28.339   9.153
 5560POPC   GL110201  22.112  28.383   8.853
 5560POPC   GL210202  22.069  28.264   8.853
 5560POPC   C1A10203  22.170  28.349   8.553
 5560POPC   D2A10204  22.182  28.340   8.253
 5560POPC   C3A10205  22.157  28.394   7.953
 5560POPC   C4A10206  22.174  28.381   7.653
 5560POPC   C1B10207  21.926  28.200   8.553
 5560POPC   C2B10208  21.895  28.295   8.253
 5560POPC   C3B10209  21.977  28.243   7.953
 5560POPC   C4B10210  21.971  28.198   7.653
 5561POPC   NC310211  39.188  29.871   9.453
 5561POPC   PO410212  39.186  29.898   9.153
 5561POPC   GL110213  39.191  29.927   8.853
 5561POPC   GL210214  39.337  29.814   8.853
 5561POPC   C1A10215  39.239  29.943   8.553
 5561POPC   D2A10216  39.198  29.959   8.253
 5561POPC   C3A10217  39.216  29.893   7.953
 5561POPC   C4A10218  39.246  29.917   7.653
 5561POPC   C1B10219  39.404  29.729   8.553
 5561POPC   C2B10220  39.360  29.698   8.253
 5561POPC   C3B10221  39.341  29.694   7.953
 5561POPC   C4B10222  39.424  29.696   7.653
 5562POPC   NC310223   5.869  27.545   9.453
 5562POPC   PO410224   5.840  27.599   9.153
 5562POPC   GL110225   5.907  27.561   8.853
 5562POPC   GL210226   5.892  27.526   8.853
 5562POPC   C1A10227   5.856  27.606   8.553
 5562POPC   D2A10228   5.822  27.628   8.253
 5562POPC   C3A10229   5.873  27.619   7.953
 5562POPC   C4A10230   5.823  27.622   7.653
 5562POPC   C1B10231   5.991  27.432   8.553
 5562POPC   C2B10232   6.011  27.397   8.253
 5562POPC   C3B10233   6.022  27.350   7.953
 5562POPC   C4B10234   6.039  27.400   7.653
 5563POPC   NC310235  43.841  37.665   9.453
 5563POPC   PO410236  43.882  37.639   9.153
 5563POPC   GL110237  43.908  37.655   8.853
 5563POPC   GL210238  44.001  37.545   8.853
 5563POPC   C1A10239  43.870  37.717   8.553
 5563POPC   D2A10240  43.898  37.728   8.253
 5563POPC   C3A10241  43.856  37.707   7.953
 5563POPC   C4A10242  43.925  37.697   7.653
 5563POPC   C1B10243  44.034  37.482   8.553
 5563POPC   C2B10244  44.013  37.465   8.253
 5563POPC   C3B10245  44.046  37.450   7.953
 5563POPC   C4B10246  44.010  37.524   7.653
 5564POPC   NC310247  37.640  36.946   9.453
 5564POPC   PO410248  37.689  36.856   9.153
 5564POPC   GL110249  37.657  36.863   8.853
 5564POPC   GL210250  37.594  36.858   8.853
 5564POPC   C1A10251  37.644  36.874   8.553
 5564POPC   D2A10252  37.686  36.859   8.253
 5564POPC   C3A10253  37.704  36.854   7.953
 5564POPC   C4A10254  37.680  36.909   7.653
 5564POPC   C1B10255  37.446  36.851   8.553
 5564POPC   C2B10256  37.382  36.891   8.253
 5564POPC   C3B10257  37.431  36.833   7.953
 5564POPC   C4B10258  37.391  36.901   7.653
 5565POPC   NC310259   8.178   8.176   9.453
 5565POPC   PO410260   8.234   8.170   9.153
 5565POPC   GL110261   8.235   8.199   8.853
 5565POPC   GL210262   8.285   8.134   8.853
 5565POPC   C1A10263   8.215   8.165   8.553
 5565POPC   D2A10264   8.242   8.203   8.253
 5565POPC   C3A10265   8.212   8.174   7.953
 5565POPC   C4A10266   8.190   8.203   7.653
 5565POPC   C1B10267   8.446   8.094   8.553
 5565POPC   C2B10268   8.421   8.087   8.253
 5565POPC   C3B10269   8.410   8.076   7.953
 5565POPC   C4B10270   8.428   8.137   7.653
 5566POPC   NC310271  39.232  33.777   9.453
 5566POPC   PO410272  39.202  33.756   9.153
 5566POPC   GL110273  39.238  33.759   8.853
 5566POPC   GL210274  39.232  33.713   8.853
 5566POPC   C1A10275  39.248  33.784   8.553
 5566POPC   D2A10276  39.206  33.843   8.253
 5566POPC   C3A10277  39.200  33.768   7.953
 5566POPC   C4A10278  39.221  33.786   7.653
 5566POPC   C1B10279  39.288  33.579   8.553
 5566POPC   C2B10280  39.251  33.570   8.253
 5566POPC   C3B10281  39.248  33.566   7.953
 5566POPC   C4B10282  39.306  33.509   7.653
 5567POPC   NC310283  34.532  17.481   9.453
 5567POPC   PO410284  34.561  17.539   9.153
 5567POPC   GL110285  34.549  17.514   8.853
 5567POPC   GL210286  34.555  17.646   8.853
 5567POPC   C1A10287  34.584  17.466   8.553
 5567POPC   D2A10288  34.586  17.512   8.253
 5567POPC   C3A10289  34.539  17.468   7.953
 5567POPC   C4A10290  34.546  17.556   7.653
 5567POPC   C1B10291  34.566  17.747   8.553
 5567POPC   C2B10292  34.625  17.727   8.253
 5567POPC   C3B10293  34.625  17.752   7.953
 5567POPC   C4B10294  34.626  17.750   7.653
 5568POPC   NC310295   7.422  31.507   9.453
 5568POPC   PO410296   7.393  31.467   9.153
 5568POPC   GL110297   7.466  31.515   8.853
 5568POPC   GL210298   7.272  31.400   8.853
 5568POPC   C1A10299   7.432  31.492   8.553
 5568POPC   D2A10300   7.407  31.429   8.253
 5568POPC   C3A10301   7.399  31.495   7.953
 5568POPC   C4A10302   7.393  31.452   7.653
 5568POPC   C1B10303   7.150  31.448   8.553
 5568POPC   C2B10304   7.168  31.434   8.253
 5568POPC   C3B10305   7.182  31.365   7.953
 5568POPC   C4B10306   7.207  31.387   7.653
 5569POPC   NC310307  34.548  29.927   9.453
 5569POPC   PO410308  34.546  29.875   9.153
 5569POPC   GL110309  34.567  29.953   8.853
 5569POPC   GL210310  34.630  29.777   8.853
 5569POPC   C1A10311  34.601  29.883   8.553
 5569POPC   D2A10312  34.542  29.898   8.253
 5569POPC   C3A10313  34.595  29.900   7.953
 5569POPC   C4A10314  34.565  29.944   7.653
 5569POPC   C1B10315  34.707  29.764   8.553
 5569POPC   C2B10316  34.777  29.773   8.253
 5569POPC   C3B10317  34.731  29.732   7.953
 5569POPC   C4B10318  34.694  29.757   7.653
 5570POPC   NC310319  16.747   8.246   9.453
 5570POPC   PO410320  16.762   8.215   9.153
 5570POPC   GL110321  16.689   8.242   8.853
 5570POPC   GL210322  16.783   8.284   8.853
 5570POPC   C1A10323  16.779   8.200   8.553
 5570POPC   D2A10324  16.700   8.210   8.253
 5570POPC   C3A10325  16.731   8.171   7.953
 5570POPC   C4A10326  16.781   8.212   7.653
 5570POPC   C1B10327  16.939   8.356   8.553
 5570POPC   C2B10328  16.904   8.435   8.253
 5570POPC   C3B10329  16.931   8.410   7.953
 5570POPC   C4B10330  16.923   8.347   7.653
 5571POPC   NC310331  12.095   2.803   9.453
 5571POPC   PO410332  12.042   2.801   9.153
 5571POPC   GL110333  12.114   2.792   8.853
 5571POPC   GL210334  12.006   2.895   8.853
 5571POPC   C1A10335  12.066   2.780   8.553
 5571POPC   D2A10336  12.053   2.787   8.253
 5571POPC   C3A10337  12.094   2.759   7.953
 5571POPC   C4A10338  12.070   2.803   7.653
 5571POPC   C1B10339  12.040   3.021   8.553
 5571POPC   C2B10340  11.979   3.002   8.253
 5571POPC   C3B10341  12.011   2.967   7.953
 5571POPC   C4B10342  12.009   3.016   7.653
 5572POPC   NC310343  11.338  43.873   9.453
 5572POPC   PO410344  11.266  43.935   9.153
 5572POPC   GL110345  11.254  43.890   8.853
 5572POPC   GL210346  11.165  43.913   8.853
 5572POPC   C1A10347  11.282  43.854   8.553
 5572POPC   D2A10348  11.285  43.914   8.253
 5572POPC   C3A10349  11.301  43.847   7.953
 5572POPC   C4A10350  11.316  43.911   7.653
 5572POPC   C1B10351  11.038  43.957   8.553
 5572POPC   C2B10352  11.041  43.910   8.253
 5572POPC   C3B10353  11.038  43.975   7.953
 5572POPC   C4B10354  11.098  43.977   7.653
 5573POPC   NC310355  42.375  29.932   9.453
 5573POPC   PO410356  42.371  29.967   9.153
 5573POPC   GL110357  42.354  29.932   8.853
 5573POPC   GL210358  42.466  29.909   8.853
 5573POPC   C1A10359  42.360  29.910   8.553
 5573POPC   D2A10360  42.337  29.903   8.253
 5573POPC   C3A10361  42.309  29.963   7.953
 5573POPC   C4A10362  42.302  29.927   7.653
 5573POPC   C1B10363  42.547  30.023   8.553
 5573POPC   C2B10364  42.542  29.958   8.253
 5573POPC   C3B10365  42.612  29.958   7.953
 5573POPC   C4B10366  42.556  29.977   7.653
 5574POPC   NC310367  26.071  22.897   9.453
 5574POPC   PO410368  26.066  22.909   9.153
 5574POPC   GL110369  26.073  22.940   8.853
 5574POPC   GL210370  25.902  22.950   8.853
 5574POPC   C1A10371  26.005  22.919   8.553
 5574POPC   D2A10372  26.087  22.898   8.253
 5574POPC   C3A10373  26.050  22.935   7.953
 5574POPC   C4A10374  26.078  22.902   7.653
 5574POPC   C1B10375  25.774  23.054   8.553
 5574POPC   C2B10376  25.782  23.055   8.253
 5574POPC   C3B10377  25.867  23.029   7.953
 5574POPC   C4B10378  25.833  23.027   7.653
 5575POPC   NC310379   2.022  17.534   9.453
 5575POPC   PO410380   1.950  17.546   9.153
 5575POPC   GL110381   1.963  17.484   8.853
 5575POPC   GL210382   2.079  17.497   8.853
 5575POPC   C1A10383   1.954  17.502   8.553
 5575POPC   D2A10384   2.009  17.503   8.253
 5575POPC   C3A10385   1.988  17.544   7.953
 5575POPC   C4A10386   1.952  17.512   7.653
 5575POPC   C1B10387   2.256  17.490   8.553
 5575POPC   C2B10388   2.215  17.563   8.253
 5575POPC   C3B10389   2.239  17.542   7.953
 5575POPC   C4B10390   2.261  17.533   7.653
 5576POPC   NC310391  34.600  15.139   9.453
 5576POPC   PO410392  34.610  15.172   9.153
 5576POPC   GL110393  34.587  15.183   8.853
 5576POPC   GL210394  34.524  15.061   8.853
 5576POPC   C1A10395  34.573  15.188   8.553
 5576POPC   D2A10396  34.567  15.217   8.253
 5576POPC   C3A10397  34.624  15.181   7.953
 5576POPC   C4A10398  34.626  15.148   7.653
 5576POPC   C1B10399  34.466  14.937   8.553
 5576POPC   C2B10400  34.449  14.987   8.253
 5576POPC   C3B10401  34.451  15.023   7.953
 5576POPC   C4B10402  34.418  14.969   7.653
 5577POPC   NC310403  38.465  42.363   9.453
 5577POPC   PO410404  38.474  42.335   9.153
 5577POPC   GL110405  38.454  42.309   8.853
 5577POPC   GL210406  38.347  42.248   8.853
 5577POPC   C1A10407  38.500  42.354   8.553
 5577POPC   D2A10408  38.431  42.313   8.253
 5577POPC   C3A10409  38.462  42.331   7.953
 5577POPC   C4A10410  38.460  42.331   7.653
 5577POPC   C1B10411  38.368  42.078   8.553
 5577POPC   C2B10412  38.301  42.164   8.253
 5577POPC   C3B10413  38.356  42.090   7.953
 5577POPC   C4B10414  38.303  42.092   7.653
 5578POPC   NC310415   4.365  42.335   9.453
 5578POPC   PO410416   4.335  42.348   9.153
 5578POPC   GL110417   4.281  42.381   8.853
 5578POPC   GL210418   4.441  42.339   8.853
 5578POPC   C1A10419   4.312  42.293   8.553
 5578POPC   D2A10420   4.364  42.337   8.253
 5578POPC   C3A10421   4.333  42.297   7.953
 5578POPC   C4A10422   4.302  42.332   7.653
 5578POPC   C1B10423   4.528  42.418   8.553
 5578POPC   C2B10424   4.550  42.432   8.253
 5578POPC   C3B10425   4.571  42.404   7.953
 5578POPC   C4B10426   4.516  42.423   7.653
 5579POPC   NC310427  33.063  24.506   9.453
 5579POPC   PO410428  33.064  24.483   9.153
 5579POPC   GL110429  33.052  24.477   8.853
 5579POPC   GL210430  32.976  24.623   8.853
 5579POPC   C1A10431  33.013  24.485   8.553
 5579POPC   D2A10432  33.020  24.465   8.253
 5579POPC   C3A10433  32.993  24.459   7.953
 5579POPC   C4A10434  33.055  24.457   7.653
 5579POPC   C1B10435  32.863  24.678   8.553
 5579POPC   C2B10436  32.816  24.637   8.253
 5579POPC   C3B10437  32.832  24.642   7.953
 5579POPC   C4B10438  32.878  24.715   7.653
 5580POPC   NC310439  40.736  21.415   9.453
 5580POPC   PO410440  40.749  21.424   9.153
 5580POPC   GL110441  40.774  21.362   8.853
 5580POPC   GL210442  40.654  21.464   8.853
 5580POPC   C1A10443  40.787  21.338   8.553
 5580POPC   D2A10444  40.750  21.425   8.253
 5580POPC   C3A10445  40.777  21.406   7.953
 5580POPC   C4A10446  40.769  21.401   7.653
 5580POPC   C1B10447  40.583  21.568   8.553
 5580POPC   C2B10448  40.533  21.534   8.253
 5580POPC   C3B10449  40.561  21.581   7.953
 5580POPC   C4B10450  40.613  21.530   7.653
 5581POPC   NC310451   1.964   2.772   9.453
 5581POPC   PO410452   2.006   2.729   9.153
 5581POPC   GL110453   1.944   2.768   8.853
 5581POPC   GL210454   1.972   2.934   8.853
 5581POPC   C1A10455   2.024   2.718   8.553
 5581POPC   D2A10456   1.988   2.789   8.253
 5581POPC   C3A10457   2.012   2.768   7.953
 5581POPC   C4A10458   1.954   2.744   7.653
 5581POPC   C1B10459   2.034   2.972   8.553
 5581POPC   C2B10460   2.036   2.967   8.253
 5581POPC   C3B10461   2.052   3.017   7.953
 5581POPC   C4B10462   1.956   3.019   7.653
 5582POPC   NC310463  12.811  12.817   9.453
 5582POPC   PO410464  12.835  12.878   9.153
 5582POPC   GL110465  12.832  12.866   8.853
 5582POPC   GL210466  12.916  12.908   8.853
 5582POPC   C1A10467  12.825  12.886   8.553
 5582POPC   D2A10468  12.824  12.883   8.253
 5582POPC   C3A10469  12.883  12.826   7.953
 5582POPC   C4A10470  12.817  12.836   7.653
 5582POPC   C1B10471  13.041  13.003   8.553
 5582POPC   C2B10472  13.029  13.031   8.253
 5582POPC   C3B10473  13.092  13.011   7.953
 5582POPC   C4B10474  13.088  12.996   7.653
 5583POPC   NC310475  22.896  15.227   9.453
 5583POPC   PO410476  22.889  15.203   9.153
 5583POPC   GL110477  22.909  15.166   8.853
 5583POPC   GL210478  23.012  15.257   8.853
 5583POPC   C1A10479  22.915  15.183   8.553
 5583POPC   D2A10480  22.928  15.179   8.253
 5583POPC   C3A10481  22.930  15.197   7.953
 5583POPC   C4A10482  22.926  15.174   7.653
 5583POPC   C1B10483  23.044  15.399   8.553
 5583POPC   C2B10484  23.079  15.459   8.253
 5583POPC   C3B10485  23.013  15.431   7.953
 5583POPC   C4B10486  23.027  15.432   7.653
 5584POPC   NC310487  22.122  19.096   9.453
 5584POPC   PO410488  22.177  19.029   9.153
 5584POPC   GL110489  22.161  19.050   8.853
 5584POPC   GL210490  22.076  18.980   8.853
 5584POPC   C1A10491  22.133  19.074   8.553
 5584POPC   D2A10492  22.136  19.010   8.253
 5584POPC   C3A10493  22.181  19.100   7.953
 5584POPC   C4A10494  22.144  19.041   7.653
 5584POPC   C1B10495  21.937  18.922   8.553
 5584POPC   C2B10496  21.919  18.938   8.253
 5584POPC   C3B10497  21.984  18.965   7.953
 5584POPC   C4B10498  21.963  18.975   7.653
 5585POPC   NC310499  41.523  23.718   9.453
 5585POPC   PO410500  41.585  23.689   9.153
 5585POPC   GL110501  41.577  23.668   8.853
 5585POPC   GL210502  41.711  23.657   8.853
 5585POPC   C1A10503  41.551  23.731   8.553
 5585POPC   D2A10504  41.516  23.742   8.253
 5585POPC   C3A10505  41.517  23.699   7.953
 5585POPC   C4A10506  41.600  23.685   7.653
 5585POPC   C1B10507  41.854  23.646   8.553
 5585POPC   C2B10508  41.756  23.616   8.253
 5585POPC   C3B10509  41.784  23.711   7.953
 5585POPC   C4B10510  41.788  23.638   7.653
 5586POPC   NC310511  20.594  26.833   9.453
 5586POPC   PO410512  20.581  26.857   9.153
 5586POPC   GL110513  20.655  26.856   8.853
 5586POPC   GL210514  20.634  26.898   8.853
 5586POPC   C1A10515  20.565  26.834   8.553
 5586POPC   D2A10516  20.583  26.770   8.253
 5586POPC   C3A10517  20.651  26.832   7.953
 5586POPC   C4A10518  20.594  26.794   7.653
 5586POPC   C1B10519  20.520  27.031   8.553
 5586POPC   C2B10520  20.607  27.058   8.253
 5586POPC   C3B10521  20.589  27.107   7.953
 5586POPC   C4B10522  20.540  27.060   7.653
 5587POPC   NC310523   9.782   1.984   9.453
 5587POPC   PO410524   9.719   1.974   9.153
 5587POPC   GL110525   9.722   1.993   8.853
 5587POPC   GL210526   9.659   1.904   8.853
 5587POPC   C1A10527   9.734   1.969   8.553
 5587POPC   D2A10528   9.746   2.002   8.253
 5587POPC   C3A10529   9.732   1.986   7.953
 5587POPC   C4A10530   9.746   1.941   7.653
 5587POPC   C1B10531   9.525   1.804   8.553
 5587POPC   C2B10532   9.583   1.817   8.253
 5587POPC   C3B10533   9.570   1.825   7.953
 5587POPC   C4B10534   9.599   1.824   7.653
 5588POPC   NC310535  23.692  33.784   9.453
 5588POPC   PO410536  23.704  33.807   9.153
 5588POPC   GL110537  23.751  33.812   8.853
 5588POPC   GL210538  23.808  33.806   8.853
 5588POPC   C1A10539  23.719  33.840   8.553
 5588POPC   D2A10540  23.698  33.835   8.253
 5588POPC   C3A10541  23.683  33.792   7.953
 5588POPC   C4A10542  23.739  33.827   7.653
 5588POPC   C1B10543  23.938  33.918   8.553
 5588POPC   C2B10544  23.921  33.825   8.253
 5588POPC   C3B10545  23.970  33.842   7.953
 5588POPC   C4B10546  23.991  33.896   7.653
 5589POPC   NC310547  18.323   4.297   9.453
 5589POPC   PO410548  18.249   4.298   9.153
 5589POPC   GL110549  18.286   4.273   8.853
 5589POPC   GL210550  18.170   4.218   8.853
 5589POPC   C1A10551  18.260   4.366   8.553
 5589POPC   D2A10552  18.263   4.355   8.253
 5589POPC   C3A10553  18.293   4.289   7.953
 5589POPC   C4A10554  18.326   4.310   7.653
 5589POPC   C1B10555  18.062   4.129   8.553
 5589POPC   C2B10556  18.110   4.196   8.253
 5589POPC   C3B10557  18.136   4.142   7.953
 5589POPC   C4B10558  18.079   4.167   7.653
 5590POPC   NC310559  30.708  32.978   9.453
 5590POPC   PO410560  30.741  32.995   9.153
 5590POPC   GL110561  30.733  32.979   8.853
 5590POPC   GL210562  30.821  32.978   8.853
 5590POPC   C1A10563  30.731  33.026   8.553
 5590POPC   D2A10564  30.692  33.059   8.253
 5590POPC   C3A10565  30.728  33.073   7.953
 5590POPC   C4A10566  30.649  33.018   7.653
 5590POPC   C1B10567  30.924  33.023   8.553
 5590POPC   C2B10568  30.960  33.068   8.253
 5590POPC   C3B10569  30.972  33.059   7.953
 5590POPC   C4B10570  30.961  32.979   7.653
 5591POPC   NC310571  33.757  28.343   9.453
 5591POPC   PO410572  33.818  28.385   9.153
 5591POPC   GL110573  33.801  28.340   8.853
 5591POPC   GL210574  33.666  28.383   8.853
 5591POPC   C1A10575  33.761  28.373   8.553
 5591POPC   D2A10576  33.794  28.356   8.253
 5591POPC   C3A10577  33.770  28.369   7.953
 5591POPC   C4A10578  33.814  28.372   7.653
 5591POPC   C1B10579  33.582  28.409   8.553
 5591POPC   C2B10580  33.553  28.463   8.253
 5591POPC   C3B10581  33.591  28.437   7.953
 5591POPC   C4B10582  33.544  28.441   7.653
 5592POPC   NC310583   8.167   8.968   9.453
 5592POPC   PO410584   8.198   9.022   9.153
 5592POPC   GL110585   8.171   8.974   8.853
 5592POPC   GL210586   8.142   8.843   8.853
 5592POPC   C1A10587   8.163   9.017   8.553
 5592POPC   D2A10588   8.235   9.010   8.253
 5592POPC   C3A10589   8.215   8.949   7.953
 5592POPC   C4A10590   8.152   8.941   7.653
 5592POPC   C1B10591   8.101   8.763   8.553
 5592POPC   C2B10592   8.122   8.735   8.253
 5592POPC   C3B10593   8.137   8.780   7.953
 5592POPC   C4B10594   8.163   8.752   7.653
 5593POPC   NC310595  24.441  44.654   9.453
 5593POPC   PO410596  24.443  44.641   9.153
 5593POPC   GL110597  24.482  44.662   8.853
 5593POPC   GL210598  24.414  44.538   8.853
 5593POPC   C1A10599  24.504  44.661   8.553
 5593POPC   D2A10600  24.469  44.700   8.253
 5593POPC   C3A10601  24.502  44.637   7.953
 5593POPC   C4A10602  24.447  44.681   7.653
 5593POPC   C1B10603  24.423  44.381   8.553
 5593POPC   C2B10604  24.430  44.429   8.253
 5593POPC   C3B10605  24.393  44.411   7.953
 5593POPC   C4B10606  24.466  44.424   7.653
 5594POPC   NC310607  11.306  12.088   9.453
 5594POPC   PO410608  11.296  12.035   9.153
 5594POPC   GL110609  11.316  12.036   8.853
 5594POPC   GL210610  11.224  11.958   8.853
 5594POPC   C1A10611  11.337  12.048   8.553
 5594POPC   D2A10612  11.309  12.111   8.253
 5594POPC   C3A10613  11.270  12.119   7.953
 5594POPC   C4A10614  11.302  12.036   7.653
 5594POPC   C1B10615  11.236  11.807   8.553
 5594POPC   C2B10616  11.219  11.792   8.253
 5594POPC   C3B10617  11.261  11.836   7.953
 5594POPC   C4B10618  11.261  11.846   7.653
 5595POPC   NC310619  28.395  32.982   9.453
 5595POPC   PO410620  28.411  33.041   9.153
 5595POPC   GL110621  28.354  32.999   8.853
 5595POPC   GL210622  28.294  32.912   8.853
 5595POPC   C1A10623  28.337  32.991   8.553
 5595POPC   D2A10624  28.379  32.977   8.253
 5595POPC   C3A10625  28.350  33.037   7.953
 5595POPC   C4A10626  28.323  33.060   7.653
 5595POPC   C1B10627  28.297  32.816   8.553
 5595POPC   C2B10628  28.322  32.752   8.253
 5595POPC   C3B10629  28.334  32.757   7.953
 5595POPC   C4B10630  28.263  32.742   7.653
 5596POPC   NC310631  36.086  41.547   9.453
 5596POPC   PO410632  36.111  41.578   9.153
 5596POPC   GL110633  36.146  41.534   8.853
 5596POPC   GL210634  36.058  41.626   8.853
 5596POPC   C1A10635  36.108  41.587   8.553
 5596POPC   D2A10636  36.154  41.527   8.253
 5596POPC   C3A10637  36.086  41.577   7.953
 5596POPC   C4A10638  36.147  41.548   7.653
 5596POPC   C1B10639  35.917  41.703   8.553
 5596POPC   C2B10640  35.892  41.648   8.253
 5596POPC   C3B10641  35.874  41.642   7.953
 5596POPC   C4B10642  35.939  41.641   7.653
 5597POPC   NC310643  15.217  13.598   9.453
 5597POPC   PO410644  15.130  13.578   9.153
 5597POPC   GL110645  15.227  13.595   8.853
 5597POPC   GL210646  15.218  13.782   8.853
 5597POPC   C1A10647  15.148  13.656   8.553
 5597POPC   D2A10648  15.178  13.615   8.253
 5597POPC   C3A10649  15.189  13.615   7.953
 5597POPC   C4A10650  15.197  13.594   7.653
 5597POPC   C1B10651  15.174  13.888   8.553
 5597POPC   C2B10652  15.223  13.839   8.253
 5597POPC   C3B10653  15.180  13.840   7.953
 5597POPC   C4B10654  15.231  13.894   7.653
 5598POPC   NC310655  14.411  13.645   9.453
 5598POPC   PO410656  14.453  13.664   9.153
 5598POPC   GL110657  14.380  13.609   8.853
 5598POPC   GL210658  14.480  13.545   8.853
 5598POPC   C1A10659  14.440  13.641   8.553
 5598POPC   D2A10660  14.369  13.623   8.253
 5598POPC   C3A10661  14.396  13.596   7.953
 5598POPC   C4A10662  14.403  13.655   7.653
 5598POPC   C1B10663  14.570  13.490   8.553
 5598POPC   C2B10664  14.560  13.518   8.253
 5598POPC   C3B10665  14.644  13.503   7.953
 5598POPC   C4B10666  14.622  13.461   7.653
 5599POPC   NC310667  40.012   8.195   9.453
 5599POPC   PO410668  39.991   8.242   9.153
 5599POPC   GL110669  39.970   8.226   8.853
 5599POPC   GL210670  40.107   8.156   8.853
 5599POPC   C1A10671  39.983   8.163   8.553
 5599POPC   D2A10672  39.969   8.166   8.253
 5599POPC   C3A10673  40.010   8.211   7.953
 5599POPC   C4A10674  40.008   8.239   7.653
 5599POPC   C1B10675  40.161   8.027   8.553
 5599POPC   C2B10676  40.184   8.016   8.253
 5599POPC   C3B10677  40.195   8.014   7.953
 5599POPC   C4B10678  40.155   8.072   7.653
 5600POPC   NC310679  15.185  10.496   9.453
 5600POPC   PO410680  15.213  10.562   9.153
 5600POPC   GL110681  15.178  10.476   8.853
 5600POPC   GL210682  15.331  10.494   8.853
 5600POPC   C1A10683  15.161  10.494   8.553
 5600POPC   D2A10684  15.154  10.490   8.253
 5600POPC   C3A10685  15.137  10.540   7.953
 5600POPC   C4A10686  15.205  10.541   7.653
 5600POPC   C1B10687  15.426  10.399   8.553
 5600POPC   C2B10688  15.352  10.432   8.253
 5600POPC   C3B10689  15.382  10.446   7.953
 5600POPC   C4B10690  15.397  10.357   7.653
 5601POPC   NC310691  39.263  26.052   9.453
 5601POPC   PO410692  39.266  25.998   9.153
 5601POPC   GL110693  39.196  26.084   8.853
 5601POPC   GL210694  39.130  25.961   8.853
 5601POPC   C1A10695  39.192  26.071   8.553
 5601POPC   D2A10696  39.206  26.051   8.253
 5601POPC   C3A10697  39.255  26.032   7.953
 5601POPC   C4A10698  39.230  26.087   7.653
 5601POPC   C1B10699  39.037  25.961   8.553
 5601POPC   C2B10700  39.043  25.955   8.253
 5601POPC   C3B10701  39.036  25.918   7.953
 5601POPC   C4B10702  38.992  25.949   7.653
 5602POPC   NC310703  29.952  38.500   9.453
 5602POPC   PO410704  29.935  38.475   9.153
 5602POPC   GL110705  29.887  38.489   8.853
 5602POPC   GL210706  29.937  38.363   8.853
 5602POPC   C1A10707  29.948  38.435   8.553
 5602POPC   D2A10708  29.906  38.505   8.253
 5602POPC   C3A10709  29.938  38.451   7.953
 5602POPC   C4A10710  29.900  38.425   7.653
 5602POPC   C1B10711  29.973  38.163   8.553
 5602POPC   C2B10712  30.013  38.204   8.253
 5602POPC   C3B10713  30.010  38.224   7.953
 5602POPC   C4B10714  29.978  38.256   7.653
 5603POPC   NC310715  18.243  24.476   9.453
 5603POPC   PO410716  18.245  24.456   9.153
 5603POPC   GL110717  18.265  24.535   8.853
 5603POPC   GL210718  18.446  24.562   8.853
 5603POPC   C1A10719  18.277  24.497   8.553
 5603POPC   D2A10720  18.292  24.454   8.253
 5603POPC   C3A10721  18.284  24.486   7.953
 5603POPC   C4A10722  18.327  24.493   7.653
 5603POPC   C1B10723  18.543  24.519   8.553
 5603POPC   C2B10724  18.560  24.499   8.253
 5603POPC   C3B10725  18.479  24.584   7.953
 5603POPC   C4B10726  18.490  24.539   7.653
 5604POPC   NC310727  43.840  26.017   9.453
 5604POPC   PO410728  43.877  26.041   9.153
 5604POPC   GL110729  43.842  26.024   8.853
 5604POPC   GL210730  44.031  26.072   8.853
 5604POPC   C1A10731  43.926  26.076   8.553
 5604POPC   D2A10732  43.902  26.049   8.253
 5604POPC   C3A10733  43.847  26.054   7.953
 5604POPC   C4A10734  43.874  26.052   7.653
 5604POPC   C1B10735  44.118  26.084   8.553
 5604POPC   C2B10736  44.174  26.056   8.253
 5604POPC   C3B10737  44.087  26.103   7.953
 5604POPC   C4B10738  44.158  26.131   7.653
 5605POPC   NC310739  29.154   7.390   9.453
 5605POPC   PO410740  29.177   7.465   9.153
 5605POPC   GL110741  29.129   7.460   8.853
 5605POPC   GL210742  29.210   7.498   8.853
 5605POPC   C1A10743  29.181   7.397   8.553
 5605POPC   D2A10744  29.168   7.431   8.253
 5605POPC   C3A10745  29.146   7.442   7.953
 5605POPC   C4A10746  29.163   7.375   7.653
 5605POPC   C1B10747  29.232   7.704   8.553
 5605POPC   C2B10748  29.248   7.673   8.253
 5605POPC   C3B10749  29.187   7.673   7.953
 5605POPC   C4B10750  29.195   7.645   7.653
 5606POPC   NC310751  26.847  20.624   9.453
 5606POPC   PO410752  26.850  20.613   9.153
 5606POPC   GL110753  26.849  20.656   8.853
 5606POPC   GL210754  26.735  20.540   8.853
 5606POPC   C1A10755  26.817  20.626   8.553
 5606POPC   D2A10756  26.816  20.645   8.253
 5606POPC   C3A10757  26.811  20.639   7.953
 5606POPC   C4A10758  26.771  20.650   7.653
 5606POPC   C1B10759  26.541  20.515   8.553
 5606POPC   C2B10760  26.549  20.609   8.253
 5606POPC   C3B10761  26.588  20.541   7.953
 5606POPC   C4B10762  26.621  20.601   7.653
 5607POPC   NC310763  30.677  40.820   9.453
 5607POPC   PO410764  30.701  40.769   9.153
 5607POPC   GL110765  30.746  40.781   8.853
 5607POPC   GL210766  30.606  40.889   8.853
 5607POPC   C1A10767  30.720  40.785   8.553
 5607POPC   D2A10768  30.694  40.752   8.253
 5607POPC   C3A10769  30.706  40.789   7.953
 5607POPC   C4A10770  30.671  40.814   7.653
 5607POPC   C1B10771  30.531  41.018   8.553
 5607POPC   C2B10772  30.487  40.928   8.253
 5607POPC   C3B10773  30.578  40.928   7.953
 5607POPC   C4B10774  30.508  40.972   7.653
 5608POPC   NC310775   5.859  19.800   9.453
 5608POPC   PO410776   5.868  19.853   9.153
 5608POPC   GL110777   5.912  19.852   8.853
 5608POPC   GL210778   5.967  19.950   8.853
 5608POPC   C1A10779   5.880  19.785   8.553
 5608POPC   D2A10780   5.891  19.803   8.253
 5608POPC   C3A10781   5.904  19.812   7.953
 5608POPC   C4A10782   5.847  19.798   7.653
 5608POPC   C1B10783   5.985  20.023   8.553
 5608POPC   C2B10784   5.964  20.028   8.253
 5608POPC   C3B10785   6.020  20.029   7.953
 5608POPC   C4B10786   6.009  20.025   7.653
 5609POPC   NC310787   8.190   1.990   9.453
 5609POPC   PO410788   8.190   2.019   9.153
 5609POPC   GL110789   8.236   2.026   8.853
 5609POPC   GL210790   8.202   2.155   8.853
 5609POPC   C1A10791   8.230   2.005   8.553
 5609POPC   D2A10792   8.183   2.003   8.253
 5609POPC   C3A10793   8.243   1.940   7.953
 5609POPC   C4A10794   8.182   1.973   7.653
 5609POPC   C1B10795   8.258   2.265   8.553
 5609POPC   C2B10796   8.249   2.206   8.253
 5609POPC   C3B10797   8.289   2.266   7.953
 5609POPC   C4B10798   8.231   2.226   7.653
 5610POPC   NC310799  26.085  30.676   9.453
 5610POPC   PO410800  26.022  30.718   9.153
 5610POPC   GL110801  26.005  30.701   8.853
 5610POPC   GL210802  26.116  30.562   8.853
 5610POPC   C1A10803  26.068  30.707   8.553
 5610POPC   D2A10804  26.031  30.718   8.253
 5610POPC   C3A10805  26.068  30.719   7.953
 5610POPC   C4A10806  26.041  30.706   7.653
 5610POPC   C1B10807  26.073  30.419   8.553
 5610POPC   C2B10808  26.049  30.454   8.253
 5610POPC   C3B10809  26.121  30.468   7.953
 5610POPC   C4B10810  26.143  30.471   7.653
 5611POPC   NC310811  16.735  39.183   9.453
 5611POPC   PO410812  16.741  39.195   9.153
 5611POPC   GL110813  16.771  39.211   8.853
 5611POPC   GL210814  16.831  39.290   8.853
 5611POPC   C1A10815  16.760  39.237   8.553
 5611POPC   D2A10816  16.769  39.202   8.253
 5611POPC   C3A10817  16.722  39.226   7.953
 5611POPC   C4A10818  16.740  39.256   7.653
 5611POPC   C1B10819  16.976  39.288   8.553
 5611POPC   C2B10820  16.975  39.323   8.253
 5611POPC   C3B10821  16.966  39.289   7.953
 5611POPC   C4B10822  16.955  39.287   7.653
 5612POPC   NC310823   1.222   5.901   9.453
 5612POPC   PO410824   1.254   5.848   9.153
 5612POPC   GL110825   1.203   5.827   8.853
 5612POPC   GL210826   1.326   5.939   8.853
 5612POPC   C1A10827   1.224   5.833   8.553
 5612POPC   D2A10828   1.208   5.821   8.253
 5612POPC   C3A10829   1.244   5.866   7.953
 5612POPC   C4A10830   1.177   5.833   7.653
 5612POPC   C1B10831   1.469   5.937   8.553
 5612POPC   C2B10832   1.466   5.993   8.253
 5612POPC   C3B10833   1.443   5.951   7.953
 5612POPC   C4B10834   1.440   5.899   7.653
 5613POPC   NC310835  18.278  40.825   9.453
 5613POPC   PO410836  18.324  40.766   9.153
 5613POPC   GL110837  18.314  40.796   8.853
 5613POPC   GL210838  18.369  40.697   8.853
 5613POPC   C1A10839  18.329  40.805   8.553
 5613POPC   D2A10840  18.268  40.784   8.253
 5613POPC   C3A10841  18.265  40.787   7.953
 5613POPC   C4A10842  18.283  40.763   7.653
 5613POPC   C1B10843  18.511  40.676   8.553
 5613POPC   C2B10844  18.470  40.654   8.253
 5613POPC   C3B10845  18.493  40.681   7.953
 5613POPC   C4B10846  18.511  40.706   7.653
 5614POPC   NC310847  34.584  11.339   9.453
 5614POPC   PO410848  34.570  11.332   9.153
 5614POPC   GL110849  34.572  11.268   8.853
 5614POPC   GL210850  34.488  11.371   8.853
 5614POPC   C1A10851  34.544  11.279   8.553
 5614POPC   D2A10852  34.561  11.349   8.253
 5614POPC   C3A10853  34.622  11.302   7.953
 5614POPC   C4A10854  34.536  11.345   7.653
 5614POPC   C1B10855  34.426  11.433   8.553
 5614POPC   C2B10856  34.380  11.528   8.253
 5614POPC   C3B10857  34.401  11.504   7.953
 5614POPC   C4B10858  34.416  11.509   7.653
 5615POPC   NC310859  37.679  10.558   9.453
 5615POPC   PO410860  37.639  10.521   9.153
 5615POPC   GL110861  37.633  10.493   8.853
 5615POPC   GL210862  37.831  10.450   8.853
 5615POPC   C1A10863  37.688  10.569   8.553
 5615POPC   D2A10864  37.709  10.483   8.253
 5615POPC   C3A10865  37.684  10.538   7.953
 5615POPC   C4A10866  37.710  10.522   7.653
 5615POPC   C1B10867  37.903  10.492   8.553
 5615POPC   C2B10868  37.949  10.475   8.253
 5615POPC   C3B10869  37.954  10.501   7.953
 5615POPC   C4B10870  37.939  10.512   7.653
 5616POPC   NC310871  19.050  43.100   9.453
 5616POPC   PO410872  19.060  43.091   9.153
 5616POPC   GL110873  19.093  43.144   8.853
 5616POPC   GL210874  18.974  43.118   8.853
 5616POPC   C1A10875  19.092  43.095   8.553
 5616POPC   D2A10876  19.107  43.138   8.253
 5616POPC   C3A10877  19.040  43.098   7.953
 5616POPC   C4A10878  19.105  43.079   7.653
 5616POPC   C1B10879  18.783  43.246   8.553
 5616POPC   C2B10880  18.818  43.238   8.253
 5616POPC   C3B10881  18.875  43.179   7.953
 5616POPC   C4B10882  18.834  43.170   7.653
 5617POPC   NC310883  30.731   5.067   9.453
 5617POPC   PO410884  30.702   5.127   9.153
 5617POPC   GL110885  30.702   5.103   8.853
 5617POPC   GL210886  30.640   5.166   8.853
 5617POPC   C1A10887  30.655   5.085   8.553
 5617POPC   D2A10888  30.663   5.106   8.253
 5617POPC   C3A10889  30.670   5.072   7.953
 5617POPC   C4A10890  30.720   5.082   7.653
 5617POPC   C1B10891  30.599   5.270   8.553
 5617POPC   C2B10892  30.604   5.349   8.253
 5617POPC   C3B10893  30.613   5.282   7.953
 5617POPC   C4B10894  30.623   5.272   7.653
 5618POPC   NC310895  21.436  10.494   9.453
 5618POPC   PO410896  21.426  10.478   9.153
 5618POPC   GL110897  21.349  10.499   8.853
 5618POPC   GL210898  21.442  10.408   8.853
 5618POPC   C1A10899  21.394  10.494   8.553
 5618POPC   D2A10900  21.413  10.557   8.253
 5618POPC   C3A10901  21.407  10.488   7.953
 5618POPC   C4A10902  21.347  10.540   7.653
 5618POPC   C1B10903  21.386  10.297   8.553
 5618POPC   C2B10904  21.377  10.265   8.253
 5618POPC   C3B10905  21.452  10.307   7.953
 5618POPC   C4B10906  21.373  10.258   7.653
 5619POPC   NC310907  24.450   2.798   9.453
 5619POPC   PO410908  24.489   2.769   9.153
 5619POPC   GL110909  24.446   2.770   8.853
 5619POPC   GL210910  24.393   2.735   8.853
 5619POPC   C1A10911  24.457   2.800   8.553
 5619POPC   D2A10912  24.474   2.802   8.253
 5619POPC   C3A10913  24.481   2.726   7.953
 5619POPC   C4A10914  24.511   2.784   7.653
 5619POPC   C1B10915  24.226   2.678   8.553
 5619POPC   C2B10916  24.283   2.729   8.253
 5619POPC   C3B10917  24.208   2.715   7.953
 5619POPC   C4B10918  24.267   2.664   7.653
 5620POPC   NC310919  36.120  29.110   9.453
 5620POPC   PO410920  36.110  29.186   9.153
 5620POPC   GL110921  36.171  29.177   8.853
 5620POPC   GL210922  36.142  29.245   8.853
 5620POPC   C1A10923  36.109  29.111   8.553
 5620POPC   D2A10924  36.118  29.141   8.253
 5620POPC   C3A10925  36.082  29.157   7.953
 5620POPC   C4A10926  36.131  29.143   7.653
 5620POPC   C1B10927  36.056  29.378   8.553
 5620POPC   C2B10928  36.142  29.416   8.253
 5620POPC   C3B10929  36.138  29.365   7.953
 5620POPC   C4B10930  36.115  29.367   7.653
 5621POPC   NC310931  32.279  23.728   9.453
 5621POPC   PO410932  32.249  23.711   9.153
 5621POPC   GL110933  32.285  23.674   8.853
 5621POPC   GL210934  32.205  23.793   8.853
 5621POPC   C1A10935  32.251  23.670   8.553
 5621POPC   D2A10936  32.215  23.740   8.253
 5621POPC   C3A10937  32.258  23.740   7.953
 5621POPC   C4A10938  32.263  23.738   7.653
 5621POPC   C1B10939  32.157  23.962   8.553
 5621POPC   C2B10940  32.160  23.981   8.253
 5621POPC   C3B10941  32.091  23.974   7.953
 5621POPC   C4B10942  32.107  23.947   7.653
 5622POPC   NC310943  14.358  12.092   9.453
 5622POPC   PO410944  14.396  12.114   9.153
 5622POPC   GL110945  14.357  12.063   8.853
 5622POPC   GL210946  14.555  11.973   8.853
 5622POPC   C1A10947  14.367  12.110   8.553
 5622POPC   D2A10948  14.410  12.044   8.253
 5622POPC   C3A10949  14.409  12.084   7.953
 5622POPC   C4A10950  14.397  12.086   7.653
 5622POPC   C1B10951  14.621  11.939   8.553
 5622POPC   C2B10952  14.624  11.910   8.253
 5622POPC   C3B10953  14.641  11.921   7.953
 5622POPC   C4B10954  14.624  11.967   7.653
 5623POPC   NC310955   8.992  26.021   9.453
 5623POPC   PO410956   8.939  26.083   9.153
 5623POPC   GL110957   8.982  26.062   8.853
 5623POPC   GL210958   8.967  25.931   8.853
 5623POPC   C1A10959   9.021  26.034   8.553
 5623POPC   D2A10960   8.981  26.004   8.253
 5623POPC   C3A10961   8.942  26.020   7.953
 5623POPC   C4A10962   8.925  26.053   7.653
 5623POPC   C1B10963   8.985  25.751   8.553
 5623POPC   C2B10964   9.048  25.746   8.253
 5623POPC   C3B10965   9.027  25.759   7.953
 5623POPC   C4B10966   8.972  25.779   7.653
 5624POPC   NC310967   1.985  16.769   9.453
 5624POPC   PO410968   2.037  16.703   9.153
 5624POPC   GL110969   2.011  16.724   8.853
 5624POPC   GL210970   2.074  16.727   8.853
 5624POPC   C1A10971   1.973  16.715   8.553
 5624POPC   D2A10972   1.960  16.714   8.253
 5624POPC   C3A10973   1.948  16.685   7.953
 5624POPC   C4A10974   2.015  16.752   7.653
 5624POPC   C1B10975   2.289  16.720   8.553
 5624POPC   C2B10976   2.257  16.790   8.253
 5624POPC   C3B10977   2.216  16.750   7.953
 5624POPC   C4B10978   2.281  16.743   7.653
 5625POPC   NC310979  44.658  21.358   9.453
 5625POPC   PO410980  44.621  21.350   9.153
 5625POPC   GL110981  44.702  21.370   8.853
 5625POPC   GL210982  44.718  21.491   8.853
 5625POPC   C1A10983  44.639  21.362   8.553
 5625POPC   D2A10984  44.621  21.384   8.253
 5625POPC   C3A10985  44.619  21.375   7.953
 5625POPC   C4A10986  44.662  21.347   7.653
 5625POPC   C1B10987  44.887  21.506   8.553
 5625POPC   C2B10988  44.833  21.536   8.253
 5625POPC   C3B10989  44.823  21.576   7.953
 5625POPC   C4B10990  44.821  21.558   7.653
 5626POPC   NC310991   9.006   0.458   9.453
 5626POPC   PO410992   8.975   0.417   9.153
 5626POPC   GL110993   8.931   0.410   8.853
 5626POPC   GL210994   9.098   0.416   8.853
 5626POPC   C1A10995   8.942   0.413   8.553
 5626POPC   D2A10996   8.955   0.451   8.253
 5626POPC   C3A10997   8.993   0.466   7.953
 5626POPC   C4A10998   8.943   0.481   7.653
 5626POPC   C1B10999   9.196   0.397   8.553
 5626POPC   C2B11000   9.195   0.412   8.253
 5626POPC   C3B11001   9.243   0.397   7.953
 5626POPC   C4B11002   9.203   0.378   7.653
 5627POPC   NC311003   1.978  12.848   9.453
 5627POPC   PO411004   2.038  12.898   9.153
 5627POPC   GL111005   1.957  12.898   8.853
 5627POPC   GL211006   2.057  12.931   8.853
 5627POPC   C1A11007   2.020  12.817   8.553
 5627POPC   D2A11008   2.033  12.863   8.253
 5627POPC   C3A11009   2.026  12.843   7.953
 5627POPC   C4A11010   1.979  12.830   7.653
 5627POPC   C1B11011   2.171  13.005   8.553
 5627POPC   C2B11012   2.188  12.969   8.253
 5627POPC   C3B11013   2.198  13.017   7.953
 5627POPC   C4B11014   2.207  12.997   7.653
 5628POPC   NC311015  32.981  32.244   9.453
 5628POPC   PO411016  32.992  32.204   9.153
 5628POPC   GL111017  33.009  32.200   8.853
 5628POPC   GL211018  32.972  32.110   8.853
 5628POPC   C1A11019  33.011  32.201   8.553
 5628POPC   D2A11020  32.990  32.238   8.253
 5628POPC   C3A11021  33.046  32.206   7.953
 5628POPC   C4A11022  33.013  32.280   7.653
 5628POPC   C1B11023  33.045  32.027   8.553
 5628POPC   C2B11024  33.036  32.041   8.253
 5628POPC   C3B11025  33.050  31.991   7.953
 5628POPC   C4B11026  33.041  31.957   7.653
 5629POPC   NC311027  31.445  25.993   9.453
 5629POPC   PO411028  31.507  26.060   9.153
 5629POPC   GL111029  31.474  26.082   8.853
 5629POPC   GL211030  31.366  25.909   8.853
 5629POPC   C1A11031  31.442  26.019   8.553
 5629POPC   D2A11032  31.493  26.087   8.253
 5629POPC   C3A11033  31.488  26.082   7.953
 5629POPC   C4A11034  31.454  26.038   7.653
 5629POPC   C1B11035  31.311  25.866   8.553
 5629POPC   C2B11036  31.331  25.816   8.253
 5629POPC   C3B11037  31.295  25.891   7.953
 5629POPC   C4B11038  31.301  25.885   7.653
 5630POPC   NC311039  24.486  39.223   9.453
 5630POPC   PO411040  24.530  39.249   9.153
 5630POPC   GL111041  24.487  39.210   8.853
 5630POPC   GL211042  24.541  39.314   8.853
 5630POPC   C1A11043  24.451  39.237   8.553
 5630POPC   D2A11044  24.500  39.184   8.253
 5630POPC   C3A11045  24.527  39.219   7.953
 5630POPC   C4A11046  24.506  39.238   7.653
 5630POPC   C1B11047  24.589  39.457   8.553
 5630POPC   C2B11048  24.637  39.462   8.253
 5630POPC   C3B11049  24.645  39.425   7.953
 5630POPC   C4B11050  24.640  39.490   7.653
 5631POPC   NC311051  11.275   5.050   9.453
 5631POPC   PO411052  11.313   5.113   9.153
 5631POPC   GL111053  11.315   5.086   8.853
 5631POPC   GL211054  11.317   5.001   8.853
 5631POPC   C1A11055  11.259   5.118   8.553
 5631POPC   D2A11056  11.256   5.043   8.253
 5631POPC   C3A11057  11.304   5.060   7.953
 5631POPC   C4A11058  11.293   5.098   7.653
 5631POPC   C1B11059  11.365   4.871   8.553
 5631POPC   C2B11060  11.417   4.818   8.253
 5631POPC   C3B11061  11.351   4.825   7.953
 5631POPC   C4B11062  11.331   4.859   7.653
 5632POPC   NC311063   9.750  28.403   9.453
 5632POPC   PO411064   9.721  28.366   9.153
 5632POPC   GL111065   9.699  28.327   8.853
 5632POPC   GL211066   9.684  28.289   8.853
 5632POPC   C1A11067   9.786  28.369   8.553
 5632POPC   D2A11068   9.739  28.345   8.253
 5632POPC   C3A11069   9.779  28.321   7.953
 5632POPC   C4A11070   9.742  28.393   7.653
 5632POPC   C1B11071   9.623  28.159   8.553
 5632POPC   C2B11072   9.572  28.211   8.253
 5632POPC   C3B11073   9.587  28.183   7.953
 5632POPC   C4B11074   9.540  28.159   7.653
 5633POPC   NC311075   5.892  17.509   9.453
 5633POPC   PO411076   5.919  17.462   9.153
 5633POPC   GL111077   5.836  17.555   8.853
 5633POPC   GL211078   5.765  17.383   8.853
 5633POPC   C1A11079   5.898  17.502   8.553
 5633POPC   D2A11080   5.822  17.546   8.253
 5633POPC   C3A11081   5.826  17.522   7.953
 5633POPC   C4A11082   5.842  17.483   7.653
 5633POPC   C1B11083   5.717  17.362   8.553
 5633POPC   C2B11084   5.742  17.353   8.253
 5633POPC   C3B11085   5.680  17.342   7.953
 5633POPC   C4B11086   5.663  17.361   7.653
 5634POPC   NC311087  26.797  29.104   9.453
 5634POPC   PO411088  26.784  29.129   9.153
 5634POPC   GL111089  26.797  29.099   8.853
 5634POPC   GL211090  26.787  29.074   8.853
 5634POPC   C1A11091  26.796  29.193   8.553
 5634POPC   D2A11092  26.863  29.144   8.253
 5634POPC   C3A11093  26.863  29.190   7.953
 5634POPC   C4A11094  26.814  29.098   7.653
 5634POPC   C1B11095  26.633  28.911   8.553
 5634POPC   C2B11096  26.670  28.979   8.253
 5634POPC   C3B11097  26.626  28.946   7.953
 5634POPC   C4B11098  26.681  28.911   7.653
 5635POPC   NC311099  10.510  32.221   9.453
 5635POPC   PO411100  10.569  32.260   9.153
 5635POPC   GL111101  10.487  32.249   8.853
 5635POPC   GL211102  10.607  32.095   8.853
 5635POPC   C1A11103  10.532  32.253   8.553
 5635POPC   D2A11104  10.490  32.199   8.253
 5635POPC   C3A11105  10.477  32.245   7.953
 5635POPC   C4A11106  10.533  32.290   7.653
 5635POPC   C1B11107  10.543  31.963   8.553
 5635POPC   C2B11108  10.626  32.012   8.253
 5635POPC   C3B11109  10.604  31.966   7.953
 5635POPC   C4B11110  10.553  32.027   7.653
 5636POPC   NC311111  32.273  22.183   9.453
 5636POPC   PO411112  32.242  22.175   9.153
 5636POPC   GL111113  32.284  22.167   8.853
 5636POPC   GL211114  32.333  22.180   8.853
 5636POPC   C1A11115  32.276  22.137   8.553
 5636POPC   D2A11116  32.278  22.159   8.253
 5636POPC   C3A11117  32.226  22.170   7.953
 5636POPC   C4A11118  32.241  22.191   7.653
 5636POPC   C1B11119  32.468  22.198   8.553
 5636POPC   C2B11120  32.514  22.171   8.253
 5636POPC   C3B11121  32.497  22.141   7.953
 5636POPC   C4B11122  32.454  22.193   7.653
 5637POPC   NC311123  15.151  19.072   9.453
 5637POPC   PO411124  15.214  19.061   9.153
 5637POPC   GL111125  15.158  19.068   8.853
 5637POPC   GL211126  15.153  19.229   8.853
 5637POPC   C1A11127  15.164  19.103   8.553
 5637POPC   D2A11128  15.157  19.095   8.253
 5637POPC   C3A11129  15.171  19.056   7.953
 5637POPC   C4A11130  15.133  19.041   7.653
 5637POPC   C1B11131  15.135  19.261   8.553
 5637POPC   C2B11132  15.121  19.312   8.253
 5637POPC   C3B11133  15.171  19.326   7.953
 5637POPC   C4B11134  15.124  19.300   7.653
 5638POPC   NC311135   8.177  33.048   9.453
 5638POPC   PO411136   8.167  33.066   9.153
 5638POPC   GL111137   8.188  33.025   8.853
 5638POPC   GL211138   8.096  33.032   8.853
 5638POPC   C1A11139   8.157  33.073   8.553
 5638POPC   D2A11140   8.185  33.045   8.253
 5638POPC   C3A11141   8.223  33.022   7.953
 5638POPC   C4A11142   8.162  32.992   7.653
 5638POPC   C1B11143   7.939  32.910   8.553
 5638POPC   C2B11144   7.930  32.937   8.253
 5638POPC   C3B11145   7.926  32.892   7.953
 5638POPC   C4B11146   7.971  32.941   7.653
 5639POPC   NC311147  35.313  31.425   9.453
 5639POPC   PO411148  35.326  31.433   9.153
 5639POPC   GL111149  35.363  31.491   8.853
 5639POPC   GL211150  35.219  31.538   8.853
 5639POPC   C1A11151  35.375  31.442   8.553
 5639POPC   D2A11152  35.372  31.444   8.253
 5639POPC   C3A11153  35.397  31.457   7.953
 5639POPC   C4A11154  35.346  31.500   7.653
 5639POPC   C1B11155  35.082  31.472   8.553
 5639POPC   C2B11156  35.105  31.510   8.253
 5639POPC   C3B11157  35.056  31.555   7.953
 5639POPC   C4B11158  35.083  31.473   7.653
 5640POPC   NC311159  36.099  40.750   9.453
 5640POPC   PO411160  36.085  40.815   9.153
 5640POPC   GL111161  36.147  40.773   8.853
 5640POPC   GL211162  36.165  40.734   8.853
 5640POPC   C1A11163  36.138  40.785   8.553
 5640POPC   D2A11164  36.091  40.800   8.253
 5640POPC   C3A11165  36.113  40.831   7.953
 5640POPC   C4A11166  36.158  40.738   7.653
 5640POPC   C1B11167  36.242  40.543   8.553
 5640POPC   C2B11168  36.289  40.553   8.253
 5640POPC   C3B11169  36.291  40.550   7.953
 5640POPC   C4B11170  36.275  40.548   7.653
 5641POPC   NC311171  18.245  36.943   9.453
 5641POPC   PO411172  18.248  36.949   9.153
 5641POPC   GL111173  18.317  36.868   8.853
 5641POPC   GL211174  18.221  36.958   8.853
 5641POPC   C1A11175  18.255  36.900   8.553
 5641POPC   D2A11176  18.258  36.933   8.253
 5641POPC   C3A11177  18.319  36.879   7.953
 5641POPC   C4A11178  18.263  36.920   7.653
 5641POPC   C1B11179  18.042  37.054   8.553
 5641POPC   C2B11180  18.035  37.047   8.253
 5641POPC   C3B11181  18.088  37.049   7.953
 5641POPC   C4B11182  18.088  37.003   7.653
 5642POPC   NC311183   8.993  23.763   9.453
 5642POPC   PO411184   9.011  23.701   9.153
 5642POPC   GL111185   8.946  23.699   8.853
 5642POPC   GL211186   9.134  23.735   8.853
 5642POPC   C1A11187   8.956  23.742   8.553
 5642POPC   D2A11188   8.962  23.758   8.253
 5642POPC   C3A11189   9.006  23.714   7.953
 5642POPC   C4A11190   9.001  23.697   7.653
 5642POPC   C1B11191   9.241  23.729   8.553
 5642POPC   C2B11192   9.199  23.749   8.253
 5642POPC   C3B11193   9.235  23.707   7.953
 5642POPC   C4B11194   9.215  23.671   7.653
 5643POPC   NC311195  19.792   3.572   9.453
 5643POPC   PO411196  19.828   3.529   9.153
 5643POPC   GL111197  19.807   3.528   8.853
 5643POPC   GL211198  19.881   3.604   8.853
 5643POPC   C1A11199  19.832   3.573   8.553
 5643POPC   D2A11200  19.847   3.554   8.253
 5643POPC   C3A11201  19.883   3.548   7.953
 5643POPC   C4A11202  19.825   3.584   7.653
 5643POPC   C1B11203  20.014   3.734   8.553
 5643POPC   C2B11204  20.067   3.693   8.253
 5643POPC   C3B11205  20.041   3.655   7.953
 5643POPC   C4B11206  20.046   3.718   7.653
 5644POPC   NC311207  40.733   9.761   9.453
 5644POPC   PO411208  40.761   9.785   9.153
 5644POPC   GL111209  40.756   9.712   8.853
 5644POPC   GL211210  40.865   9.747   8.853
 5644POPC   C1A11211  40.743   9.778   8.553
 5644POPC   D2A11212  40.738   9.794   8.253
 5644POPC   C3A11213  40.775   9.699   7.953
 5644POPC   C4A11214  40.795   9.708   7.653
 5644POPC   C1B11215  41.056   9.669   8.553
 5644POPC   C2B11216  41.048   9.725   8.253
 5644POPC   C3B11217  41.005   9.711   7.953
 5644POPC   C4B11218  41.048   9.694   7.653
 5645POPC   NC311219  25.285  15.215   9.453
 5645POPC   PO411220  25.227  15.140   9.153
 5645POPC   GL111221  25.270  15.203   8.853
 5645POPC   GL211222  25.349  15.309   8.853
 5645POPC   C1A11223  25.232  15.209   8.553
 5645POPC   D2A11224  25.279  15.177   8.253
 5645POPC   C3A11225  25.217  15.144   7.953
 5645POPC   C4A11226  25.235  15.174   7.653
 5645POPC   C1B11227  25.404  15.410   8.553
 5645POPC   C2B11228  25.422  15.422   8.253
 5645POPC   C3B11229  25.407  15.370   7.953
 5645POPC   C4B11230  25.384  15.383   7.653
 5646POPC   NC311231  21.355   8.948   9.453
 5646POPC   PO411232  21.339   8.971   9.153
 5646POPC   GL111233  21.434   8.983   8.853
 5646POPC   GL211234  21.341   8.845   8.853
 5646POPC   C1A11235  21.379   8.936   8.553
 5646POPC   D2A11236  21.361   9.003   8.253
 5646POPC   C3A11237  21.363   8.975   7.953
 5646POPC   C4A11238  21.393   8.995   7.653
 5646POPC   C1B11239  21.268   8.769   8.553
 5646POPC   C2B11240  21.283   8.711   8.253
 5646POPC   C3B11241  21.327   8.785   7.953
 5646POPC   C4B11242  21.301   8.768   7.653
 5647POPC   NC311243   5.878   5.870   9.453
 5647POPC   PO411244   5.846   5.870   9.153
 5647POPC   GL111245   5.905   5.892   8.853
 5647POPC   GL211246   5.894   5.701   8.853
 5647POPC   C1A11247   5.858   5.850   8.553
 5647POPC   D2A11248   5.826   5.830   8.253
 5647POPC   C3A11249   5.881   5.855   7.953
 5647POPC   C4A11250   5.852   5.842   7.653
 5647POPC   C1B11251   5.981   5.587   8.553
 5647POPC   C2B11252   5.888   5.664   8.253
 5647POPC   C3B11253   5.935   5.632   7.953
 5647POPC   C4B11254   5.926   5.599   7.653
 5648POPC   NC311255  22.951  38.418   9.453
 5648POPC   PO411256  22.966  38.461   9.153
 5648POPC   GL111257  22.890  38.488   8.853
 5648POPC   GL211258  23.063  38.489   8.853
 5648POPC   C1A11259  22.934  38.438   8.553
 5648POPC   D2A11260  22.986  38.476   8.253
 5648POPC   C3A11261  22.892  38.495   7.953
 5648POPC   C4A11262  22.905  38.418   7.653
 5648POPC   C1B11263  23.214  38.462   8.553
 5648POPC   C2B11264  23.209  38.444   8.253
 5648POPC   C3B11265  23.141  38.434   7.953
 5648POPC   C4B11266  23.234  38.387   7.653
 5649POPC   NC311267  15.225   5.855   9.453
 5649POPC   PO411268  15.229   5.915   9.153
 5649POPC   GL111269  15.203   5.858   8.853
 5649POPC   GL211270  15.121   5.745   8.853
 5649POPC   C1A11271  15.154   5.892   8.553
 5649POPC   D2A11272  15.226   5.914   8.253
 5649POPC   C3A11273  15.159   5.861   7.953
 5649POPC   C4A11274  15.158   5.905   7.653
 5649POPC   C1B11275  15.127   5.631   8.553
 5649POPC   C2B11276  15.113   5.644   8.253
 5649POPC   C3B11277  15.175   5.624   7.953
 5649POPC   C4B11278  15.130   5.609   7.653
 5650POPC   NC311279  26.076  24.499   9.453
 5650POPC   PO411280  26.062  24.527   9.153
 5650POPC   GL111281  26.039  24.510   8.853
 5650POPC   GL211282  26.166  24.526   8.853
 5650POPC   C1A11283  26.066  24.499   8.553
 5650POPC   D2A11284  26.066  24.519   8.253
 5650POPC   C3A11285  26.059  24.470   7.953
 5650POPC   C4A11286  26.049  24.528   7.653
 5650POPC   C1B11287  26.289  24.478   8.553
 5650POPC   C2B11288  26.304  24.533   8.253
 5650POPC   C3B11289  26.284  24.508   7.953
 5650POPC   C4B11290  26.245  24.481   7.653
 5651POPC   NC311291  30.655   7.422   9.453
 5651POPC   PO411292  30.744   7.434   9.153
 5651POPC   GL111293  30.736   7.404   8.853
 5651POPC   GL211294  30.717   7.577   8.853
 5651POPC   C1A11295  30.728   7.393   8.553
 5651POPC   D2A11296  30.719   7.395   8.253
 5651POPC   C3A11297  30.695   7.465   7.953
 5651POPC   C4A11298  30.701   7.371   7.653
 5651POPC   C1B11299  30.604   7.712   8.553
 5651POPC   C2B11300  30.695   7.675   8.253
 5651POPC   C3B11301  30.629   7.704   7.953
 5651POPC   C4B11302  30.663   7.685   7.653
 5652POPC   NC311303   3.552  11.250   9.453
 5652POPC   PO411304   3.508  11.310   9.153
 5652POPC   GL111305   3.564  11.335   8.853
 5652POPC   GL211306   3.428  11.366   8.853
 5652POPC   C1A11307   3.499  11.337   8.553
 5652POPC   D2A11308   3.525  11.291   8.253
 5652POPC   C3A11309   3.544  11.287   7.953
 5652POPC   C4A11310   3.588  11.266   7.653
 5652POPC   C1B11311   3.326  11.442   8.553
 5652POPC   C2B11312   3.340  11.408   8.253
 5652POPC   C3B11313   3.383  11.398   7.953
 5652POPC   C4B11314   3.311  11.447   7.653
 5653POPC   NC311315  25.220  15.914   9.453
 5653POPC   PO411316  25.271  15.968   9.153
 5653POPC   GL111317  25.274  15.934   8.853
 5653POPC   GL211318  25.369  16.046   8.853
 5653POPC   C1A11319  25.280  15.997   8.553
 5653POPC   D2A11320  25.224  15.916   8.253
 5653POPC   C3A11321  25.286  15.980   7.953
 5653POPC   C4A11322  25.247  15.976   7.653
 5653POPC   C1B11323  25.458  16.078   8.553
 5653POPC   C2B11324  25.417  16.080   8.253
 5653POPC   C3B11325  25.482  16.146   7.953
 5653POPC   C4B11326  25.454  16.116   7.653
 5654POPC   NC311327  38.459  41.587   9.453
 5654POPC   PO411328  38.495  41.560   9.153
 5654POPC   GL111329  38.461  41.565   8.853
 5654POPC   GL211330  38.485  41.476   8.853
 5654POPC   C1A11331  38.442  41.536   8.553
 5654POPC   D2A11332  38.413  41.586   8.253
 5654POPC   C3A11333  38.470  41.563   7.953
 5654POPC   C4A11334  38.440  41.556   7.653
 5654POPC   C1B11335  38.602  41.373   8.553
 5654POPC   C2B11336  38.625  41.369   8.253
 5654POPC   C3B11337  38.573  41.367   7.953
 5654POPC   C4B11338  38.608  41.322   7.653
 5655POPC   NC311339  17.552  10.508   9.453
 5655POPC   PO411340  17.465  10.526   9.153
 5655POPC   GL111341  17.552  10.482   8.853
 5655POPC   GL211342  17.605  10.443   8.853
 5655POPC   C1A11343  17.540  10.475   8.553
 5655POPC   D2A11344  17.479  10.507   8.253
 5655POPC   C3A11345  17.502  10.535   7.953
 5655POPC   C4A11346  17.520  10.491   7.653
 5655POPC   C1B11347  17.723  10.384   8.553
 5655POPC   C2B11348  17.674  10.360   8.253
 5655POPC   C3B11349  17.673  10.366   7.953
 5655POPC   C4B11350  17.687  10.413   7.653
 5656POPC   NC311351  15.916   0.390   9.453
 5656POPC   PO411352  15.972   0.414   9.153
 5656POPC   GL111353  15.986   0.412   8.853
 5656POPC   GL211354  16.033   0.339   8.853
 5656POPC   C1A11355  15.967   0.437   8.553
 5656POPC   D2A11356  15.998   0.417   8.253
 5656POPC   C3A11357  15.921   0.417   7.953
 5656POPC   C4A11358  15.909   0.413   7.653
 5656POPC   C1B11359  16.073   0.239   8.553
 5656POPC   C2B11360  16.050   0.242   8.253
 5656POPC   C3B11361  15.989   0.195   7.953
 5656POPC   C4B11362  16.049   0.163   7.653
 5657POPC   NC311363  44.628   8.147   9.453
 5657POPC   PO411364  44.617   8.234   9.153
 5657POPC   GL111365  44.673   8.214   8.853
 5657POPC   GL211366  44.732   8.234   8.853
 5657POPC   C1A11367  44.676   8.182   8.553
 5657POPC   D2A11368  44.680   8.187   8.253
 5657POPC   C3A11369  44.626   8.157   7.953
 5657POPC   C4A11370  44.699   8.215   7.653
 5657POPC   C1B11371  44.885   8.376   8.553
 5657POPC   C2B11372  44.816   8.356   8.253
 5657POPC   C3B11373  44.865   8.310   7.953
 5657POPC   C4B11374  44.888   8.378   7.653
 5658POPC   NC311375   2.790  39.182   9.453
 5658POPC   PO411376   2.717  39.198   9.153
 5658POPC   GL111377   2.784  39.185   8.853
 5658POPC   GL211378   2.789  39.314   8.853
 5658POPC   C1A11379   2.717  39.228   8.553
 5658POPC   D2A11380   2.794  39.229   8.253
 5658POPC   C3A11381   2.801  39.278   7.953
 5658POPC   C4A11382   2.791  39.275   7.653
 5658POPC   C1B11383   2.742  39.441   8.553
 5658POPC   C2B11384   2.764  39.455   8.253
 5658POPC   C3B11385   2.804  39.508   7.953
 5658POPC   C4B11386   2.793  39.462   7.653
 5659POPC   NC311387   5.112   9.767   9.453
 5659POPC   PO411388   5.114   9.794   9.153
 5659POPC   GL111389   5.139   9.765   8.853
 5659POPC   GL211390   4.995   9.641   8.853
 5659POPC   C1A11391   5.117   9.769   8.553
 5659POPC   D2A11392   5.051   9.784   8.253
 5659POPC   C3A11393   5.102   9.749   7.953
 5659POPC   C4A11394   5.135   9.741   7.653
 5659POPC   C1B11395   4.915   9.574   8.553
 5659POPC   C2B11396   4.915   9.550   8.253
 5659POPC   C3B11397   4.886   9.601   7.953
 5659POPC   C4B11398   4.883   9.561   7.653
 5660POPC   NC311399   4.268  14.354   9.453
 5660POPC   PO411400   4.311  14.383   9.153
 5660POPC   GL111401   4.303  14.426   8.853
 5660POPC   GL211402   4.262  14.269   8.853
 5660POPC   C1A11403   4.291  14.406   8.553
 5660POPC   D2A11404   4.275  14.392   8.253
 5660POPC   C3A11405   4.289  14.425   7.953
 5660POPC   C4A11406   4.284  14.406   7.653
 5660POPC   C1B11407   4.239  14.129   8.553
 5660POPC   C2B11408   4.300  14.144   8.253
 5660POPC   C3B11409   4.284  14.137   7.953
 5660POPC   C4B11410   4.268  14.189   7.653
 5661POPC   NC311411  26.053  15.218   9.453
 5661POPC   PO411412  26.007  15.158   9.153
 5661POPC   GL111413  26.026  15.191   8.853
 5661POPC   GL211414  25.949  15.282   8.853
 5661POPC   C1A11415  26.042  15.214   8.553
 5661POPC   D2A11416  26.050  15.176   8.253
 5661POPC   C3A11417  26.027  15.139   7.953
 5661POPC   C4A11418  26.091  15.222   7.653
 5661POPC   C1B11419  25.852  15.305   8.553
 5661POPC   C2B11420  25.847  15.335   8.253
 5661POPC   C3B11421  25.858  15.363   7.953
 5661POPC   C4B11422  25.821  15.269   7.653
 5662POPC   NC311423  18.251  43.137   9.453
 5662POPC   PO411424  18.247  43.152   9.153
 5662POPC   GL111425  18.319  43.083   8.853
 5662POPC   GL211426  18.311  43.012   8.853
 5662POPC   C1A11427  18.326  43.099   8.553
 5662POPC   D2A11428  18.302  43.088   8.253
 5662POPC   C3A11429  18.316  43.067   7.953
 5662POPC   C4A11430  18.263  43.112   7.653
 5662POPC   C1B11431  18.426  42.943   8.553
 5662POPC   C2B11432  18.413  42.871   8.253
 5662POPC   C3B11433  18.437  42.890   7.953
 5662POPC   C4B11434  18.412  42.905   7.653
 5663POPC   NC311435  43.117   6.612   9.453
 5663POPC   PO411436  43.124   6.604   9.153
 5663POPC   GL111437  43.084   6.693   8.853
 5663POPC   GL211438  43.241   6.732   8.853
 5663POPC   C1A11439  43.098   6.688   8.553
 5663POPC   D2A11440  43.117   6.602   8.253
 5663POPC   C3A11441  43.120   6.677   7.953
 5663POPC   C4A11442  43.105   6.630   7.653
 5663POPC   C1B11443  43.283   6.752   8.553
 5663POPC   C2B11444  43.381   6.726   8.253
 5663POPC   C3B11445  43.307   6.731   7.953
 5663POPC   C4B11446  43.302   6.748   7.653
 5664POPC   NC311447   3.591  40.824   9.453
 5664POPC   PO411448   3.586  40.782   9.153
 5664POPC   GL111449   3.547  40.769   8.853
 5664POPC   GL211450   3.565  40.646   8.853
 5664POPC   C1A11451   3.590  40.769   8.553
 5664POPC   D2A11452   3.590  40.786   8.253
 5664POPC   C3A11453   3.564  40.819   7.953
 5664POPC   C4A11454   3.568  40.765   7.653
 5664POPC   C1B11455   3.534  40.576   8.553
 5664POPC   C2B11456   3.490  40.550   8.253
 5664POPC   C3B11457   3.476  40.571   7.953
 5664POPC   C4B11458   3.467  40.532   7.653
 5665POPC   NC311459  21.344  43.128   9.453
 5665POPC   PO411460  21.385  43.094   9.153
 5665POPC   GL111461  21.422  43.126   8.853
 5665POPC   GL211462  21.265  43.249   8.853
 5665POPC   C1A11463  21.349  43.127   8.553
 5665POPC   D2A11464  21.426  43.137   8.253
 5665POPC   C3A11465  21.436  43.136   7.953
 5665POPC   C4A11466  21.426  43.074   7.653
 5665POPC   C1B11467  21.178  43.279   8.553
 5665POPC   C2B11468  21.263  43.277   8.253
 5665POPC   C3B11469  21.224  43.258   7.953
 5665POPC   C4B11470  21.231  43.335   7.653
 5666POPC   NC311471  22.201  24.515   9.453
 5666POPC   PO411472  22.122  24.496   9.153
 5666POPC   GL111473  22.123  24.530   8.853
 5666POPC   GL211474  22.315  24.554   8.853
 5666POPC   C1A11475  22.131  24.494   8.553
 5666POPC   D2A11476  22.156  24.463   8.253
 5666POPC   C3A11477  22.132  24.480   7.953
 5666POPC   C4A11478  22.180  24.522   7.653
 5666POPC   C1B11479  22.390  24.592   8.553
 5666POPC   C2B11480  22.440  24.620   8.253
 5666POPC   C3B11481  22.360  24.591   7.953
 5666POPC   C4B11482  22.373  24.532   7.653
 5667POPC   NC311483  21.351  18.305   9.453
 5667POPC   PO411484  21.354  18.262   9.153
 5667POPC   GL111485  21.420  18.270   8.853
 5667POPC   GL211486  21.269  18.241   8.853
 5667POPC   C1A11487  21.419  18.289   8.553
 5667POPC   D2A11488  21.345  18.312   8.253
 5667POPC   C3A11489  21.353  18.250   7.953
 5667POPC   C4A11490  21.357  18.258   7.653
 5667POPC   C1B11491  21.099  18.293   8.553
 5667POPC   C2B11492  21.185  18.222   8.253
 5667POPC   C3B11493  21.125  18.298   7.953
 5667POPC   C4B11494  21.185  18.264   7.653
 5668POPC   NC311495  26.006   4.317   9.453
 5668POPC   PO411496  26.055   4.350   9.153
 5668POPC   GL111497  26.044   4.351   8.853
 5668POPC   GL211498  26.012   4.234   8.853
 5668POPC   C1A11499  26.015   4.270   8.553
 5668POPC   D2A11500  26.016   4.364   8.253
 5668POPC   C3A11501  25.994   4.321   7.953
 5668POPC   C4A11502  26.075   4.272   7.653
 5668POPC   C1B11503  26.087   4.023   8.553
 5668POPC   C2B11504  26.009   4.117   8.253
 5668POPC   C3B11505  26.052   4.052   7.953
 5668POPC   C4B11506  26.092   4.037   7.653
 5669POPC   NC311507  11.272  20.611   9.453
 5669POPC   PO411508  11.267  20.577   9.153
 5669POPC   GL111509  11.327  20.597   8.853
 5669POPC   GL211510  11.221  20.498   8.853
 5669POPC   C1A11511  11.286  20.614   8.553
 5669POPC   D2A11512  11.285  20.602   8.253
 5669POPC   C3A11513  11.336  20.597   7.953
 5669POPC   C4A11514  11.304  20.614   7.653
 5669POPC   C1B11515  11.241  20.374   8.553
 5669POPC   C2B11516  11.167  20.363   8.253
 5669POPC   C3B11517  11.185  20.378   7.953
 5669POPC   C4B11518  11.239  20.399   7.653
 5670POPC   NC311519   8.203  43.880   9.453
 5670POPC   PO411520   8.193  43.852   9.153
 5670POPC   GL111521   8.148  43.842   8.853
 5670POPC   GL211522   8.108  44.041   8.853
 5670POPC   C1A11523   8.182  43.934   8.553
 5670POPC   D2A11524   8.169  43.838   8.253
 5670POPC   C3A11525   8.214  43.880   7.953
 5670POPC   C4A11526   8.166  43.840   7.653
 5670POPC   C1B11527   8.106  44.083   8.553
 5670POPC   C2B11528   8.093  44.139   8.253
 5670POPC   C3B11529   8.113  44.172   7.953
 5670POPC   C4B11530   8.116  44.121   7.653
 5671POPC   NC311531  40.735  22.986   9.453
 5671POPC   PO411532  40.815  22.891   9.153
 5671POPC   GL111533  40.827  22.983   8.853
 5671POPC   GL211534  40.754  23.039   8.853
 5671POPC   C1A11535  40.738  22.978   8.553
 5671POPC   D2A11536  40.784  22.953   8.253
 5671POPC   C3A11537  40.792  22.934   7.953
 5671POPC   C4A11538  40.795  22.982   7.653
 5671POPC   C1B11539  40.713  23.219   8.553
 5671POPC   C2B11540  40.692  23.192   8.253
 5671POPC   C3B11541  40.685  23.185   7.953
 5671POPC   C4B11542  40.682  23.196   7.653
 5672POPC   NC311543   5.866  22.141   9.453
 5672POPC   PO411544   5.908  22.144   9.153
 5672POPC   GL111545   5.875  22.194   8.853
 5672POPC   GL211546   5.869  22.310   8.853
 5672POPC   C1A11547   5.911  22.113   8.553
 5672POPC   D2A11548   5.860  22.116   8.253
 5672POPC   C3A11549   5.852  22.118   7.953
 5672POPC   C4A11550   5.873  22.143   7.653
 5672POPC   C1B11551   5.944  22.436   8.553
 5672POPC   C2B11552   5.964  22.359   8.253
 5672POPC   C3B11553   5.972  22.366   7.953
 5672POPC   C4B11554   5.979  22.351   7.653
 5673POPC   NC311555  32.288  16.770   9.453
 5673POPC   PO411556  32.241  16.720   9.153
 5673POPC   GL111557  32.252  16.771   8.853
 5673POPC   GL211558  32.151  16.642   8.853
 5673POPC   C1A11559  32.279  16.682   8.553
 5673POPC   D2A11560  32.287  16.728   8.253
 5673POPC   C3A11561  32.216  16.760   7.953
 5673POPC   C4A11562  32.228  16.716   7.653
 5673POPC   C1B11563  32.110  16.487   8.553
 5673POPC   C2B11564  32.100  16.551   8.253
 5673POPC   C3B11565  32.162  16.517   7.953
 5673POPC   C4B11566  32.143  16.534   7.653
 5674POPC   NC311567   5.886  30.721   9.453
 5674POPC   PO411568   5.839  30.694   9.153
 5674POPC   GL111569   5.865  30.724   8.853
 5674POPC   GL211570   5.904  30.591   8.853
 5674POPC   C1A11571   5.908  30.660   8.553
 5674POPC   D2A11572   5.896  30.714   8.253
 5674POPC   C3A11573   5.855  30.736   7.953
 5674POPC   C4A11574   5.860  30.744   7.653
 5674POPC   C1B11575   5.836  30.469   8.553
 5674POPC   C2B11576   5.909  30.485   8.253
 5674POPC   C3B11577   5.857  30.469   7.953
 5674POPC   C4B11578   5.850  30.420   7.653
 5675POPC   NC311579  29.162  22.942   9.453
 5675POPC   PO411580  29.140  22.952   9.153
 5675POPC   GL111581  29.160  22.898   8.853
 5675POPC   GL211582  29.050  23.036   8.853
 5675POPC   C1A11583  29.115  22.945   8.553
 5675POPC   D2A11584  29.140  22.900   8.253
 5675POPC   C3A11585  29.119  22.968   7.953
 5675POPC   C4A11586  29.143  22.957   7.653
 5675POPC   C1B11587  29.036  23.128   8.553
 5675POPC   C2B11588  29.053  23.156   8.253
 5675POPC   C3B11589  29.053  23.131   7.953
 5675POPC   C4B11590  29.056  23.130   7.653
 5676POPC   NC311591  38.420   2.021   9.453
 5676POPC   PO411592  38.440   1.941   9.153
 5676POPC   GL111593  38.427   2.015   8.853
 5676POPC   GL211594  38.505   1.883   8.853
 5676POPC   C1A11595  38.412   2.023   8.553
 5676POPC   D2A11596  38.429   1.951   8.253
 5676POPC   C3A11597  38.427   2.030   7.953
 5676POPC   C4A11598  38.496   2.020   7.653
 5676POPC   C1B11599  38.590   1.716   8.553
 5676POPC   C2B11600  38.529   1.789   8.253
 5676POPC   C3B11601  38.502   1.796   7.953
 5676POPC   C4B11602  38.542   1.728   7.653
 5677POPC   NC311603  20.566  40.807   9.453
 5677POPC   PO411604  20.563  40.760   9.153
 5677POPC   GL111605  20.652  40.767   8.853
 5677POPC   GL211606  20.466  40.719   8.853
 5677POPC   C1A11607  20.568  40.825   8.553
 5677POPC   D2A11608  20.652  40.829   8.253
 5677POPC   C3A11609  20.642  40.762   7.953
 5677POPC   C4A11610  20.604  40.739   7.653
 5677POPC   C1B11611  20.376  40.691   8.553
 5677POPC   C2B11612  20.371  40.654   8.253
 5677POPC   C3B11613  20.403  40.718   7.953
 5677POPC   C4B11614  20.342  40.629   7.653
 5678POPC   NC311615   2.032  36.169   9.453
 5678POPC   PO411616   2.007  36.130   9.153
 5678POPC   GL111617   1.975  36.135   8.853
 5678POPC   GL211618   1.957  36.000   8.853
 5678POPC   C1A11619   2.023  36.138   8.553
 5678POPC   D2A11620   1.958  36.154   8.253
 5678POPC   C3A11621   1.951  36.136   7.953
 5678POPC   C4A11622   1.944  36.113   7.653
 5678POPC   C1B11623   1.885  35.858   8.553
 5678POPC   C2B11624   1.877  35.879   8.253
 5678POPC   C3B11625   1.958  35.931   7.953
 5678POPC   C4B11626   1.907  35.900   7.653
 5679POPC   NC311627  43.095  40.737   9.453
 5679POPC   PO411628  43.096  40.790   9.153
 5679POPC   GL111629  43.127  40.829   8.853
 5679POPC   GL211630  43.026  40.710   8.853
 5679POPC   C1A11631  43.076  40.773   8.553
 5679POPC   D2A11632  43.088  40.820   8.253
 5679POPC   C3A11633  43.120  40.755   7.953
 5679POPC   C4A11634  43.144  40.766   7.653
 5679POPC   C1B11635  43.013  40.522   8.553
 5679POPC   C2B11636  42.930  40.576   8.253
 5679POPC   C3B11637  42.948  40.612   7.953
 5679POPC   C4B11638  42.980  40.556   7.653
 5680POPC   NC311639   9.785   2.786   9.453
 5680POPC   PO411640   9.770   2.728   9.153
 5680POPC   GL111641   9.744   2.717   8.853
 5680POPC   GL211642   9.673   2.652   8.853
 5680POPC   C1A11643   9.749   2.773   8.553
 5680POPC   D2A11644   9.702   2.772   8.253
 5680POPC   C3A11645   9.776   2.812   7.953
 5680POPC   C4A11646   9.761   2.798   7.653
 5680POPC   C1B11647   9.633   2.504   8.553
 5680POPC   C2B11648   9.620   2.583   8.253
 5680POPC   C3B11649   9.639   2.505   7.953
 5680POPC   C4B11650   9.648   2.567   7.653
 5681POPC   NC311651   5.845  43.853   9.453
 5681POPC   PO411652   5.910  43.841   9.153
 5681POPC   GL111653   5.854  43.893   8.853
 5681POPC   GL211654   5.855  43.982   8.853
 5681POPC   C1A11655   5.896  43.910   8.553
 5681POPC   D2A11656   5.854  43.868   8.253
 5681POPC   C3A11657   5.858  43.855   7.953
 5681POPC   C4A11658   5.820  43.913   7.653
 5681POPC   C1B11659   5.920  44.171   8.553
 5681POPC   C2B11660   5.887  44.178   8.253
 5681POPC   C3B11661   5.854  44.126   7.953
 5681POPC   C4B11662   5.933  44.113   7.653
 5682POPC   NC311663  23.689   9.766   9.453
 5682POPC   PO411664  23.743   9.735   9.153
 5682POPC   GL111665  23.761   9.706   8.853
 5682POPC   GL211666  23.659   9.827   8.853
 5682POPC   C1A11667  23.686   9.790   8.553
 5682POPC   D2A11668  23.700   9.797   8.253
 5682POPC   C3A11669  23.694   9.733   7.953
 5682POPC   C4A11670  23.757   9.735   7.653
 5682POPC   C1B11671  23.554  10.011   8.553
 5682POPC   C2B11672  23.607   9.978   8.253
 5682POPC   C3B11673  23.614   9.958   7.953
 5682POPC   C4B11674  23.582   9.963   7.653
 5683POPC   NC311675  43.893   0.455   9.453
 5683POPC   PO411676  43.907   0.457   9.153
 5683POPC   GL111677  43.926   0.452   8.853
 5683POPC   GL211678  43.780   0.345   8.853
 5683POPC   C1A11679  43.890   0.480   8.553
 5683POPC   D2A11680  43.887   0.477   8.253
 5683POPC   C3A11681  43.931   0.436   7.953
 5683POPC   C4A11682  43.881   0.454   7.653
 5683POPC   C1B11683  43.776   0.202   8.553
 5683POPC   C2B11684  43.708   0.194   8.253
 5683POPC   C3B11685  43.785   0.245   7.953
 5683POPC   C4B11686  43.747   0.198   7.653
 5684POPC   NC311687   6.681   1.940   9.453
 5684POPC   PO411688   6.686   1.990   9.153
 5684POPC   GL111689   6.648   2.017   8.853
 5684POPC   GL211690   6.739   1.877   8.853
 5684POPC   C1A11691   6.609   2.027   8.553
 5684POPC   D2A11692   6.615   1.971   8.253
 5684POPC   C3A11693   6.667   2.000   7.953
 5684POPC   C4A11694   6.673   1.987   7.653
 5684POPC   C1B11695   6.783   1.792   8.553
 5684POPC   C2B11696   6.868   1.832   8.253
 5684POPC   C3B11697   6.797   1.833   7.953
 5684POPC   C4B11698   6.852   1.782   7.653
 5685POPC   NC311699  22.196  38.445   9.453
 5685POPC   PO411700  22.146  38.447   9.153
 5685POPC   GL111701  22.145  38.487   8.853
 5685POPC   GL211702  22.044  38.570   8.853
 5685POPC   C1A11703  22.211  38.497   8.553
 5685POPC   D2A11704  22.163  38.499   8.253
 5685POPC   C3A11705  22.141  38.446   7.953
 5685POPC   C4A11706  22.123  38.438   7.653
 5685POPC   C1B11707  22.007  38.631   8.553
 5685POPC   C2B11708  21.981  38.588   8.253
 5685POPC   C3B11709  21.929  38.567   7.953
 5685POPC   C4B11710  22.009  38.569   7.653
 5686POPC   NC311711  40.789   1.212   9.453
 5686POPC   PO411712  40.785   1.173   9.153
 5686POPC   GL111713  40.815   1.180   8.853
 5686POPC   GL211714  40.777   1.083   8.853
 5686POPC   C1A11715  40.764   1.181   8.553
 5686POPC   D2A11716  40.784   1.219   8.253
 5686POPC   C3A11717  40.814   1.203   7.953
 5686POPC   C4A11718  40.748   1.200   7.653
 5686POPC   C1B11719  40.815   1.006   8.553
 5686POPC   C2B11720  40.822   0.924   8.253
 5686POPC   C3B11721  40.834   0.930   7.953
 5686POPC   C4B11722  40.864   0.952   7.653
 5687POPC   NC311723  40.054  38.430   9.453
 5687POPC   PO411724  40.057  38.461   9.153
 5687POPC   GL111725  39.979  38.460   8.853
 5687POPC   GL211726  40.071  38.312   8.853
 5687POPC   C1A11727  40.011  38.431   8.553
 5687POPC   D2A11728  39.991  38.482   8.253
 5687POPC   C3A11729  40.015  38.486   7.953
 5687POPC   C4A11730  40.011  38.436   7.653
 5687POPC   C1B11731  40.077  38.236   8.553
 5687POPC   C2B11732  40.062  38.178   8.253
 5687POPC   C3B11733  40.056  38.191   7.953
 5687POPC   C4B11734  40.064  38.249   7.653
 5688POPC   NC311735  19.796  37.640   9.453
 5688POPC   PO411736  19.791  37.684   9.153
 5688POPC   GL111737  19.876  37.668   8.853
 5688POPC   GL211738  19.714  37.721   8.853
 5688POPC   C1A11739  19.785  37.638   8.553
 5688POPC   D2A11740  19.869  37.712   8.253
 5688POPC   C3A11741  19.815  37.630   7.953
 5688POPC   C4A11742  19.853  37.666   7.653
 5688POPC   C1B11743  19.635  37.770   8.553
 5688POPC   C2B11744  19.571  37.717   8.253
 5688POPC   C3B11745  19.575  37.736   7.953
 5688POPC   C4B11746  19.635  37.738   7.653
 5689POPC   NC311747  40.759  19.859   9.453
 5689POPC   PO411748  40.733  19.849   9.153
 5689POPC   GL111749  40.816  19.787   8.853
 5689POPC   GL211750  40.777  19.918   8.853
 5689POPC   C1A11751  40.798  19.822   8.553
 5689POPC   D2A11752  40.777  19.817   8.253
 5689POPC   C3A11753  40.755  19.867   7.953
 5689POPC   C4A11754  40.755  19.865   7.653
 5689POPC   C1B11755  40.706  20.079   8.553
 5689POPC   C2B11756  40.728  20.085   8.253
 5689POPC   C3B11757  40.711  20.076   7.953
 5689POPC   C4B11758  40.717  20.048   7.653
 5690POPC   NC311759  11.251  26.850   9.453
 5690POPC   PO411760  11.255  26.777   9.153
 5690POPC   GL111761  11.271  26.823   8.853
 5690POPC   GL211762  11.308  26.742   8.853
 5690POPC   C1A11763  11.332  26.799   8.553
 5690POPC   D2A11764  11.318  26.782   8.253
 5690POPC   C3A11765  11.318  26.849   7.953
 5690POPC   C4A11766  11.347  26.779   7.653
 5690POPC   C1B11767  11.331  26.547   8.553
 5690POPC   C2B11768  11.331  26.606   8.253
 5690POPC   C3B11769  11.420  26.581   7.953
 5690POPC   C4B11770  11.424  26.534   7.653
 5691POPC   NC311771  18.296  19.786   9.453
 5691POPC   PO411772  18.319  19.842   9.153
 5691POPC   GL111773  18.246  19.837   8.853
 5691POPC   GL211774  18.159  19.822   8.853
 5691POPC   C1A11775  18.287  19.810   8.553
 5691POPC   D2A11776  18.301  19.870   8.253
 5691POPC   C3A11777  18.312  19.864   7.953
 5691POPC   C4A11778  18.276  19.790   7.653
 5691POPC   C1B11779  18.026  19.796   8.553
 5691POPC   C2B11780  18.007  19.798   8.253
 5691POPC   C3B11781  18.068  19.810   7.953
 5691POPC   C4B11782  17.993  19.860   7.653
 5692POPC   NC311783   4.344  10.518   9.453
 5692POPC   PO411784   4.319  10.517   9.153
 5692POPC   GL111785   4.303  10.517   8.853
 5692POPC   GL211786   4.198  10.556   8.853
 5692POPC   C1A11787   4.305  10.517   8.553
 5692POPC   D2A11788   4.272  10.494   8.253
 5692POPC   C3A11789   4.335  10.520   7.953
 5692POPC   C4A11790   4.303  10.499   7.653
 5692POPC   C1B11791   4.068  10.653   8.553
 5692POPC   C2B11792   4.101  10.568   8.253
 5692POPC   C3B11793   4.113  10.640   7.953
 5692POPC   C4B11794   4.080  10.573   7.653
 5693POPC   NC311795  23.686  27.638   9.453
 5693POPC   PO411796  23.679  27.555   9.153
 5693POPC   GL111797  23.675  27.563   8.853
 5693POPC   GL211798  23.551  27.525   8.853
 5693POPC   C1A11799  23.761  27.602   8.553
 5693POPC   D2A11800  23.681  27.628   8.253
 5693POPC   C3A11801  23.674  27.566   7.953
 5693POPC   C4A11802  23.742  27.639   7.653
 5693POPC   C1B11803  23.452  27.522   8.553
 5693POPC   C2B11804  23.454  27.508   8.253
 5693POPC   C3B11805  23.505  27.510   7.953
 5693POPC   C4B11806  23.444  27.589   7.653
 5694POPC   NC311807  21.360  26.041   9.453
 5694POPC   PO411808  21.428  26.041   9.153
 5694POPC   GL111809  21.362  26.038   8.853
 5694POPC   GL211810  21.535  26.082   8.853
 5694POPC   C1A11811  21.429  26.049   8.553
 5694POPC   D2A11812  21.417  26.076   8.253
 5694POPC   C3A11813  21.350  26.035   7.953
 5694POPC   C4A11814  21.392  26.054   7.653
 5694POPC   C1B11815  21.606  26.131   8.553
 5694POPC   C2B11816  21.661  26.095   8.253
 5694POPC   C3B11817  21.569  26.100   7.953
 5694POPC   C4B11818  21.648  26.176   7.653
 5695POPC   NC311819   9.722  33.037   9.453
 5695POPC   PO411820   9.774  33.023   9.153
 5695POPC   GL111821   9.744  33.068   8.853
 5695POPC   GL211822   9.906  33.092   8.853
 5695POPC   C1A11823   9.761  33.003   8.553
 5695POPC   D2A11824   9.705  33.071   8.253
 5695POPC   C3A11825   9.762  33.046   7.953
 5695POPC   C4A11826   9.718  32.997   7.653
 5695POPC   C1B11827   9.992  33.118   8.553
 5695POPC   C2B11828  10.001  33.087   8.253
 5695POPC   C3B11829   9.953  33.134   7.953
 5695POPC   C4B11830   9.934  33.100   7.653
 5696POPC   NC311831  41.587  33.055   9.453
 5696POPC   PO411832  41.593  33.006   9.153
 5696POPC   GL111833  41.606  33.055   8.853
 5696POPC   GL211834  41.449  32.943   8.853
 5696POPC   C1A11835  41.509  33.012   8.553
 5696POPC   D2A11836  41.525  33.052   8.253
 5696POPC   C3A11837  41.589  33.023   7.953
 5696POPC   C4A11838  41.577  33.031   7.653
 5696POPC   C1B11839  41.361  32.897   8.553
 5696POPC   C2B11840  41.307  32.889   8.253
 5696POPC   C3B11841  41.389  32.935   7.953
 5696POPC   C4B11842  41.384  32.855   7.653
 5697POPC   NC311843   9.776  41.531   9.453
 5697POPC   PO411844   9.725  41.511   9.153
 5697POPC   GL111845   9.746  41.550   8.853
 5697POPC   GL211846   9.779  41.661   8.853
 5697POPC   C1A11847   9.775  41.522   8.553
 5697POPC   D2A11848   9.762  41.571   8.253
 5697POPC   C3A11849   9.726  41.542   7.953
 5697POPC   C4A11850   9.716  41.546   7.653
 5697POPC   C1B11851   9.851  41.757   8.553
 5697POPC   C2B11852   9.843  41.846   8.253
 5697POPC   C3B11853   9.849  41.775   7.953
 5697POPC   C4B11854   9.772  41.833   7.653
 5698POPC   NC311855  15.933  21.400   9.453
 5698POPC   PO411856  15.920  21.425   9.153
 5698POPC   GL111857  15.971  21.385   8.853
 5698POPC   GL211858  15.928  21.532   8.853
 5698POPC   C1A11859  15.918  21.405   8.553
 5698POPC   D2A11860  15.985  21.424   8.253
 5698POPC   C3A11861  15.964  21.364   7.953
 5698POPC   C4A11862  15.935  21.355   7.653
 5698POPC   C1B11863  15.891  21.661   8.553
 5698POPC   C2B11864  15.874  21.602   8.253
 5698POPC   C3B11865  15.852  21.662   7.953
 5698POPC   C4B11866  15.882  21.585   7.653
 5699POPC   NC311867   9.781  27.617   9.453
 5699POPC   PO411868   9.788  27.584   9.153
 5699POPC   GL111869   9.715  27.548   8.853
 5699POPC   GL211870   9.759  27.444   8.853
 5699POPC   C1A11871   9.741  27.639   8.553
 5699POPC   D2A11872   9.735  27.568   8.253
 5699POPC   C3A11873   9.766  27.599   7.953
 5699POPC   C4A11874   9.732  27.614   7.653
 5699POPC   C1B11875   9.808  27.339   8.553
 5699POPC   C2B11876   9.871  27.350   8.253
 5699POPC   C3B11877   9.880  27.311   7.953
 5699POPC   C4B11878   9.875  27.318   7.653
 5700POPC   NC311879  42.342  20.613   9.453
 5700POPC   PO411880  42.372  20.569   9.153
 5700POPC   GL111881  42.288  20.567   8.853
 5700POPC   GL211882  42.465  20.619   8.853
 5700POPC   C1A11883  42.323  20.628   8.553
 5700POPC   D2A11884  42.369  20.569   8.253
 5700POPC   C3A11885  42.356  20.642   7.953
 5700POPC   C4A11886  42.374  20.611   7.653
 5700POPC   C1B11887  42.543  20.700   8.553
 5700POPC   C2B11888  42.620  20.640   8.253
 5700POPC   C3B11889  42.598  20.669   7.953
 5700POPC   C4B11890  42.536  20.662   7.653
 5701POPC   NC311891  13.603  15.919   9.453
 5701POPC   PO411892  13.653  15.934   9.153
 5701POPC   GL111893  13.636  15.990   8.853
 5701POPC   GL211894  13.708  15.891   8.853
 5701POPC   C1A11895  13.605  16.002   8.553
 5701POPC   D2A11896  13.673  15.967   8.253
 5701POPC   C3A11897  13.630  15.949   7.953
 5701POPC   C4A11898  13.652  15.929   7.653
 5701POPC   C1B11899  13.829  15.798   8.553
 5701POPC   C2B11900  13.809  15.819   8.253
 5701POPC   C3B11901  13.811  15.810   7.953
 5701POPC   C4B11902  13.853  15.820   7.653
 5702POPC   NC311903  29.899  39.247   9.453
 5702POPC   PO411904  29.908  39.210   9.153
 5702POPC   GL111905  29.933  39.204   8.853
 5702POPC   GL211906  29.826  39.111   8.853
 5702POPC   C1A11907  29.904  39.236   8.553
 5702POPC   D2A11908  29.970  39.215   8.253
 5702POPC   C3A11909  29.882  39.262   7.953
 5702POPC   C4A11910  29.879  39.183   7.653
 5702POPC   C1B11911  29.709  39.032   8.553
 5702POPC   C2B11912  29.689  39.045   8.253
 5702POPC   C3B11913  29.675  39.065   7.953
 5702POPC   C4B11914  29.729  39.104   7.653
 5703POPC   NC311915   9.764   1.206   9.453
 5703POPC   PO411916   9.700   1.227   9.153
 5703POPC   GL111917   9.774   1.220   8.853
 5703POPC   GL211918   9.698   1.089   8.853
 5703POPC   C1A11919   9.771   1.197   8.553
 5703POPC   D2A11920   9.758   1.230   8.253
 5703POPC   C3A11921   9.764   1.172   7.953
 5703POPC   C4A11922   9.752   1.231   7.653
 5703POPC   C1B11923   9.634   0.966   8.553
 5703POPC   C2B11924   9.658   0.955   8.253
 5703POPC   C3B11925   9.623   0.969   7.953
 5703POPC   C4B11926   9.696   0.946   7.653
 5704POPC   NC311927   8.957  20.656   9.453
 5704POPC   PO411928   8.959  20.599   9.153
 5704POPC   GL111929   8.961  20.595   8.853
 5704POPC   GL211930   9.028  20.455   8.853
 5704POPC   C1A11931   8.999  20.618   8.553
 5704POPC   D2A11932   8.968  20.582   8.253
 5704POPC   C3A11933   8.995  20.641   7.953
 5704POPC   C4A11934   8.965  20.580   7.653
 5704POPC   C1B11935   9.010  20.416   8.553
 5704POPC   C2B11936   9.079  20.414   8.253
 5704POPC   C3B11937   9.010  20.403   7.953
 5704POPC   C4B11938   9.002  20.382   7.653
 5705POPC   NC311939  36.099  36.121   9.453
 5705POPC   PO411940  36.081  36.171   9.153
 5705POPC   GL111941  36.116  36.168   8.853
 5705POPC   GL211942  36.151  36.056   8.853
 5705POPC   C1A11943  36.166  36.140   8.553
 5705POPC   D2A11944  36.172  36.138   8.253
 5705POPC   C3A11945  36.164  36.092   7.953
 5705POPC   C4A11946  36.108  36.113   7.653
 5705POPC   C1B11947  36.165  35.909   8.553
 5705POPC   C2B11948  36.224  35.906   8.253
 5705POPC   C3B11949  36.222  35.868   7.953
 5705POPC   C4B11950  36.242  35.841   7.653
 5706POPC   NC311951  14.378  22.932   9.453
 5706POPC   PO411952  14.370  22.919   9.153
 5706POPC   GL111953  14.414  22.909   8.853
 5706POPC   GL211954  14.250  22.856   8.853
 5706POPC   C1A11955  14.437  22.938   8.553
 5706POPC   D2A11956  14.425  22.915   8.253
 5706POPC   C3A11957  14.367  22.904   7.953
 5706POPC   C4A11958  14.439  22.911   7.653
 5706POPC   C1B11959  14.207  22.801   8.553
 5706POPC   C2B11960  14.206  22.800   8.253
 5706POPC   C3B11961  14.178  22.855   7.953
 5706POPC   C4B11962  14.225  22.771   7.653
 5707POPC   NC311963  39.242  29.137   9.453
 5707POPC   PO411964  39.271  29.110   9.153
 5707POPC   GL111965  39.189  29.178   8.853
 5707POPC   GL211966  39.305  29.205   8.853
 5707POPC   C1A11967  39.198  29.179   8.553
 5707POPC   D2A11968  39.280  29.145   8.253
 5707POPC   C3A11969  39.278  29.149   7.953
 5707POPC   C4A11970  39.193  29.160   7.653
 5707POPC   C1B11971  39.449  29.199   8.553
 5707POPC   C2B11972  39.449  29.238   8.253
 5707POPC   C3B11973  39.492  29.196   7.953
 5707POPC   C4B11974  39.519  29.180   7.653
 5708POPC   NC311975   6.671  18.271   9.453
 5708POPC   PO411976   6.606  18.292   9.153
 5708POPC   GL111977   6.687  18.254   8.853
 5708POPC   GL211978   6.592  18.161   8.853
 5708POPC   C1A11979   6.674  18.290   8.553
 5708POPC   D2A11980   6.660  18.244   8.253
 5708POPC   C3A11981   6.666  18.325   7.953
 5708POPC   C4A11982   6.689  18.311   7.653
 5708POPC   C1B11983   6.445  18.042   8.553
 5708POPC   C2B11984   6.491  18.093   8.253
 5708POPC   C3B11985   6.519  18.125   7.953
 5708POPC   C4B11986   6.469  18.110   7.653
 5709POPC   NC311987  12.867  40.047   9.453
 5709POPC   PO411988  12.877  39.982   9.153
 5709POPC   GL111989  12.840  40.006   8.853
 5709POPC   GL211990  12.753  40.036   8.853
 5709POPC   C1A11991  12.896  39.963   8.553
 5709POPC   D2A11992  12.877  39.966   8.253
 5709POPC   C3A11993  12.807  40.019   7.953
 5709POPC   C4A11994  12.845  40.044   7.653
 5709POPC   C1B11995  12.589  39.995   8.553
 5709POPC   C2B11996  12.651  39.994   8.253
 5709POPC   C3B11997  12.562  40.004   7.953
 5709POPC   C4B11998  12.557  40.014   7.653
 5710POPC   NC311999   4.277  21.346   9.453
 5710POPC   PO412000   4.367  21.338   9.153
 5710POPC   GL112001   4.353  21.377   8.853
 5710POPC   GL212002   4.446  21.334   8.853
 5710POPC   C1A12003   4.309  21.430   8.553
 5710POPC   D2A12004   4.333  21.403   8.253
 5710POPC   C3A12005   4.283  21.410   7.953
 5710POPC   C4A12006   4.321  21.399   7.653
 5710POPC   C1B12007   4.474  21.251   8.553
 5710POPC   C2B12008   4.529  21.254   8.253
 5710POPC   C3B12009   4.491  21.178   7.953
 5710POPC   C4B12010   4.535  21.189   7.653
 5711POPC   NC312011  24.468  22.204   9.453
 5711POPC   PO412012  24.465  22.159   9.153
 5711POPC   GL112013  24.441  22.182   8.853
 5711POPC   GL212014  24.418  22.236   8.853
 5711POPC   C1A12015  24.510  22.144   8.553
 5711POPC   D2A12016  24.468  22.146   8.253
 5711POPC   C3A12017  24.482  22.207   7.953
 5711POPC   C4A12018  24.487  22.156   7.653
 5711POPC   C1B12019  24.413  22.435   8.553
 5711POPC   C2B12020  24.472  22.418   8.253
 5711POPC   C3B12021  24.405  22.386   7.953
 5711POPC   C4B12022  24.414  22.376   7.653
 5712POPC   NC312023  32.229  41.534   9.453
 5712POPC   PO412024  32.207  41.530   9.153
 5712POPC   GL112025  32.258  41.561   8.853
 5712POPC   GL212026  32.233  41.494   8.853
 5712POPC   C1A12027  32.272  41.605   8.553
 5712POPC   D2A12028  32.292  41.550   8.253
 5712POPC   C3A12029  32.225  41.543   7.953
 5712POPC   C4A12030  32.291  41.510   7.653
 5712POPC   C1B12031  32.116  41.341   8.553
 5712POPC   C2B12032  32.172  41.320   8.253
 5712POPC   C3B12033  32.149  41.316   7.953
 5712POPC   C4B12034  32.146  41.358   7.653
 5713POPC   NC312035  30.732  17.516   9.453
 5713POPC   PO412036  30.671  17.525   9.153
 5713POPC   GL112037  30.691  17.477   8.853
 5713POPC   GL212038  30.825  17.436   8.853
 5713POPC   C1A12039  30.699  17.490   8.553
 5713POPC   D2A12040  30.654  17.518   8.253
 5713POPC   C3A12041  30.671  17.483   7.953
 5713POPC   C4A12042  30.659  17.526   7.653
 5713POPC   C1B12043  30.907  17.459   8.553
 5713POPC   C2B12044  30.926  17.496   8.253
 5713POPC   C3B12045  30.918  17.411   7.953
 5713POPC   C4B12046  30.986  17.441   7.653
 5714POPC   NC312047  17.535  44.663   9.453
 5714POPC   PO412048  17.474  44.710   9.153
 5714POPC   GL112049  17.550  44.619   8.853
 5714POPC   GL212050  17.433  44.614   8.853
 5714POPC   C1A12051  17.462  44.625   8.553
 5714POPC   D2A12052  17.550  44.681   8.253
 5714POPC   C3A12053  17.495  44.637   7.953
 5714POPC   C4A12054  17.493  44.709   7.653
 5714POPC   C1B12055  17.362  44.480   8.553
 5714POPC   C2B12056  17.324  44.501   8.253
 5714POPC   C3B12057  17.349  44.469   7.953
 5714POPC   C4B12058  17.357  44.504   7.653
 5715POPC   NC312059  15.135  15.136   9.453
 5715POPC   PO412060  15.162  15.189   9.153
 5715POPC   GL112061  15.224  15.139   8.853
 5715POPC   GL212062  15.039  15.188   8.853
 5715POPC   C1A12063  15.210  15.229   8.553
 5715POPC   D2A12064  15.157  15.201   8.253
 5715POPC   C3A12065  15.175  15.147   7.953
 5715POPC   C4A12066  15.166  15.151   7.653
 5715POPC   C1B12067  14.937  15.263   8.553
 5715POPC   C2B12068  14.967  15.259   8.253
 5715POPC   C3B12069  14.966  15.252   7.953
 5715POPC   C4B12070  14.929  15.276   7.653
 5716POPC   NC312071   3.586  18.248   9.453
 5716POPC   PO412072   3.496  18.260   9.153
 5716POPC   GL112073   3.518  18.238   8.853
 5716POPC   GL212074   3.574  18.438   8.853
 5716POPC   C1A12075   3.578  18.267   8.553
 5716POPC   D2A12076   3.583  18.321   8.253
 5716POPC   C3A12077   3.495  18.323   7.953
 5716POPC   C4A12078   3.585  18.299   7.653
 5716POPC   C1B12079   3.573  18.540   8.553
 5716POPC   C2B12080   3.535  18.538   8.253
 5716POPC   C3B12081   3.548  18.575   7.953
 5716POPC   C4B12082   3.527  18.486   7.653
 5717POPC   NC312083  10.519  27.623   9.453
 5717POPC   PO412084  10.483  27.605   9.153
 5717POPC   GL112085  10.535  27.560   8.853
 5717POPC   GL212086  10.420  27.546   8.853
 5717POPC   C1A12087  10.551  27.625   8.553
 5717POPC   D2A12088  10.551  27.629   8.253
 5717POPC   C3A12089  10.502  27.595   7.953
 5717POPC   C4A12090  10.513  27.547   7.653
 5717POPC   C1B12091  10.255  27.524   8.553
 5717POPC   C2B12092  10.305  27.558   8.253
 5717POPC   C3B12093  10.284  27.533   7.953
 5717POPC   C4B12094  10.256  27.527   7.653
 5718POPC   NC312095   6.684   9.715   9.453
 5718POPC   PO412096   6.616   9.744   9.153
 5718POPC   GL112097   6.685   9.708   8.853
 5718POPC   GL212098   6.755   9.726   8.853
 5718POPC   C1A12099   6.599   9.787   8.553
 5718POPC   D2A12100   6.693   9.792   8.253
 5718POPC   C3A12101   6.605   9.771   7.953
 5718POPC   C4A12102   6.656   9.708   7.653
 5718POPC   C1B12103   6.862   9.662   8.553
 5718POPC   C2B12104   6.911   9.695   8.253
 5718POPC   C3B12105   6.897   9.670   7.953
 5718POPC   C4B12106   6.915   9.680   7.653
 5719POPC   NC312107  39.241  37.706   9.453
 5719POPC   PO412108  39.233  37.668   9.153
 5719POPC   GL112109  39.259  37.655   8.853
 5719POPC   GL212110  39.203  37.837   8.853
 5719POPC   C1A12111  39.187  37.630   8.553
 5719POPC   D2A12112  39.192  37.640   8.253
 5719POPC   C3A12113  39.267  37.682   7.953
 5719POPC   C4A12114  39.218  37.638   7.653
 5719POPC   C1B12115  39.257  37.901   8.553
 5719POPC   C2B12116  39.199  37.932   8.253
 5719POPC   C3B12117  39.240  37.973   7.953
 5719POPC   C4B12118  39.222  37.933   7.653
 5720POPC   NC312119   9.778  29.900   9.453
 5720POPC   PO412120   9.762  29.970   9.153
 5720POPC   GL112121   9.789  29.896   8.853
 5720POPC   GL212122   9.825  30.036   8.853
 5720POPC   C1A12123   9.720  29.874   8.553
 5720POPC   D2A12124   9.714  29.916   8.253
 5720POPC   C3A12125   9.789  29.965   7.953
 5720POPC   C4A12126   9.700  29.939   7.653
 5720POPC   C1B12127   9.866  30.144   8.553
 5720POPC   C2B12128   9.792  30.185   8.253
 5720POPC   C3B12129   9.869  30.136   7.953
 5720POPC   C4B12130   9.842  30.143   7.653
 5721POPC   NC312131  19.103  33.754   9.453
 5721POPC   PO412132  19.092  33.774   9.153
 5721POPC   GL112133  19.097  33.820   8.853
 5721POPC   GL212134  19.072  33.913   8.853
 5721POPC   C1A12135  19.031  33.792   8.553
 5721POPC   D2A12136  19.074  33.763   8.253
 5721POPC   C3A12137  19.056  33.847   7.953
 5721POPC   C4A12138  19.031  33.824   7.653
 5721POPC   C1B12139  19.001  34.019   8.553
 5721POPC   C2B12140  18.996  34.006   8.253
 5721POPC   C3B12141  19.052  33.998   7.953
 5721POPC   C4B12142  19.044  34.070   7.653
 5722POPC   NC312143  12.867  24.500   9.453
 5722POPC   PO412144  12.826  24.460   9.153
 5722POPC   GL112145  12.872  24.533   8.853
 5722POPC   GL212146  12.736  24.605   8.853
 5722POPC   C1A12147  12.819  24.448   8.553
 5722POPC   D2A12148  12.864  24.490   8.253
 5722POPC   C3A12149  12.863  24.502   7.953
 5722POPC   C4A12150  12.871  24.486   7.653
 5722POPC   C1B12151  12.702  24.717   8.553
 5722POPC   C2B12152  12.705  24.686   8.253
 5722POPC   C3B12153  12.748  24.703   7.953
 5722POPC   C4B12154  12.700  24.712   7.653
 5723POPC   NC312155  16.770  28.401   9.453
 5723POPC   PO412156  16.723  28.322   9.153
 5723POPC   GL112157  16.712  28.350   8.853
 5723POPC   GL212158  16.743  28.250   8.853
 5723POPC   C1A12159  16.683  28.346   8.553
 5723POPC   D2A12160  16.710  28.399   8.253
 5723POPC   C3A12161  16.764  28.330   7.953
 5723POPC   C4A12162  16.733  28.409   7.653
 5723POPC   C1B12163  16.711  28.084   8.553
 5723POPC   C2B12164  16.784  28.114   8.253
 5723POPC   C3B12165  16.784  28.074   7.953
 5723POPC   C4B12166  16.780  28.112   7.653
 5724POPC   NC312167  14.382  19.073   9.453
 5724POPC   PO412168  14.412  19.070   9.153
 5724POPC   GL112169  14.379  19.058   8.853
 5724POPC   GL212170  14.485  18.959   8.853
 5724POPC   C1A12171  14.401  19.084   8.553
 5724POPC   D2A12172  14.410  19.099   8.253
 5724POPC   C3A12173  14.407  19.088   7.953
 5724POPC   C4A12174  14.409  19.066   7.653
 5724POPC   C1B12175  14.558  18.908   8.553
 5724POPC   C2B12176  14.624  18.924   8.253
 5724POPC   C3B12177  14.595  18.839   7.953
 5724POPC   C4B12178  14.585  18.864   7.653
 5725POPC   NC312179  22.920  35.357   9.453
 5725POPC   PO412180  22.939  35.380   9.153
 5725POPC   GL112181  22.958  35.389   8.853
 5725POPC   GL212182  22.990  35.240   8.853
 5725POPC   C1A12183  22.932  35.346   8.553
 5725POPC   D2A12184  22.983  35.306   8.253
 5725POPC   C3A12185  22.942  35.376   7.953
 5725POPC   C4A12186  22.899  35.364   7.653
 5725POPC   C1B12187  23.034  35.139   8.553
 5725POPC   C2B12188  23.057  35.146   8.253
 5725POPC   C3B12189  23.090  35.139   7.953
 5725POPC   C4B12190  23.049  35.184   7.653
 5726POPC   NC312191  36.901  21.339   9.453
 5726POPC   PO412192  36.921  21.351   9.153
 5726POPC   GL112193  36.893  21.400   8.853
 5726POPC   GL212194  36.825  21.504   8.853
 5726POPC   C1A12195  36.928  21.344   8.553
 5726POPC   D2A12196  36.905  21.373   8.253
 5726POPC   C3A12197  36.883  21.378   7.953
 5726POPC   C4A12198  36.927  21.379   7.653
 5726POPC   C1B12199  36.667  21.516   8.553
 5726POPC   C2B12200  36.759  21.527   8.253
 5726POPC   C3B12201  36.679  21.503   7.953
 5726POPC   C4B12202  36.756  21.515   7.653
 5727POPC   NC312203  29.169  31.521   9.453
 5727POPC   PO412204  29.168  31.441   9.153
 5727POPC   GL112205  29.122  31.471   8.853
 5727POPC   GL212206  29.060  31.544   8.853
 5727POPC   C1A12207  29.183  31.485   8.553
 5727POPC   D2A12208  29.117  31.494   8.253
 5727POPC   C3A12209  29.167  31.520   7.953
 5727POPC   C4A12210  29.108  31.514   7.653
 5727POPC   C1B12211  28.937  31.591   8.553
 5727POPC   C2B12212  28.907  31.543   8.253
 5727POPC   C3B12213  28.927  31.537   7.953
 5727POPC   C4B12214  28.909  31.527   7.653
 5728POPC   NC312215   6.663  42.324   9.453
 5728POPC   PO412216   6.620  42.331   9.153
 5728POPC   GL112217   6.663  42.373   8.853
 5728POPC   GL212218   6.618  42.481   8.853
 5728POPC   C1A12219   6.635  42.352   8.553
 5728POPC   D2A12220   6.625  42.311   8.253
 5728POPC   C3A12221   6.634  42.316   7.953
 5728POPC   C4A12222   6.658  42.293   7.653
 5728POPC   C1B12223   6.640  42.586   8.553
 5728POPC   C2B12224   6.628  42.539   8.253
 5728POPC   C3B12225   6.605  42.593   7.953
 5728POPC   C4B12226   6.614  42.594   7.653
 5729POPC   NC312227   4.322  18.260   9.453
 5729POPC   PO412228   4.286  18.240   9.153
 5729POPC   GL112229   4.274  18.322   8.853
 5729POPC   GL212230   4.414  18.209   8.853
 5729POPC   C1A12231   4.310  18.304   8.553
 5729POPC   D2A12232   4.335  18.320   8.253
 5729POPC   C3A12233   4.342  18.264   7.953
 5729POPC   C4A12234   4.364  18.242   7.653
 5729POPC   C1B12235   4.569  18.195   8.553
 5729POPC   C2B12236   4.518  18.154   8.253
 5729POPC   C3B12237   4.587  18.121   7.953
 5729POPC   C4B12238   4.546  18.211   7.653
 5730POPC   NC312239  18.313  42.372   9.453
 5730POPC   PO412240  18.324  42.343   9.153
 5730POPC   GL112241  18.285  42.361   8.853
 5730POPC   GL212242  18.248  42.496   8.853
 5730POPC   C1A12243  18.268  42.285   8.553
 5730POPC   D2A12244  18.315  42.349   8.253
 5730POPC   C3A12245  18.239  42.359   7.953
 5730POPC   C4A12246  18.263  42.312   7.653
 5730POPC   C1B12247  18.213  42.536   8.553
 5730POPC   C2B12248  18.267  42.626   8.253
 5730POPC   C3B12249  18.207  42.597   7.953
 5730POPC   C4B12250  18.261  42.608   7.653
 5731POPC   NC312251  40.030  40.799   9.453
 5731POPC   PO412252  40.008  40.828   9.153
 5731POPC   GL112253  39.965  40.815   8.853
 5731POPC   GL212254  40.081  40.730   8.853
 5731POPC   C1A12255  39.971  40.821   8.553
 5731POPC   D2A12256  40.047  40.762   8.253
 5731POPC   C3A12257  39.963  40.736   7.953
 5731POPC   C4A12258  40.018  40.784   7.653
 5731POPC   C1B12259  40.206  40.786   8.553
 5731POPC   C2B12260  40.213  40.732   8.253
 5731POPC   C3B12261  40.237  40.768   7.953
 5731POPC   C4B12262  40.255  40.763   7.653
 5732POPC   NC312263   5.901  15.185   9.453
 5732POPC   PO412264   5.850  15.177   9.153
 5732POPC   GL112265   5.861  15.172   8.853
 5732POPC   GL212266   5.938  15.343   8.853
 5732POPC   C1A12267   5.867  15.136   8.553
 5732POPC   D2A12268   5.892  15.203   8.253
 5732POPC   C3A12269   5.838  15.181   7.953
 5732POPC   C4A12270   5.851  15.136   7.653
 5732POPC   C1B12271   5.895  15.434   8.553
 5732POPC   C2B12272   5.955  15.422   8.253
 5732POPC   C3B12273   5.881  15.380   7.953
 5732POPC   C4B12274   5.961  15.457   7.653
 5733POPC   NC312275  31.452  36.114   9.453
 5733POPC   PO412276  31.452  36.117   9.153
 5733POPC   GL112277  31.445  36.106   8.853
 5733POPC   GL212278  31.327  36.041   8.853
 5733POPC   C1A12279  31.467  36.127   8.553
 5733POPC   D2A12280  31.486  36.178   8.253
 5733POPC   C3A12281  31.458  36.125   7.953
 5733POPC   C4A12282  31.479  36.081   7.653
 5733POPC   C1B12283  31.289  35.992   8.553
 5733POPC   C2B12284  31.300  36.018   8.253
 5733POPC   C3B12285  31.240  35.976   7.953
 5733POPC   C4B12286  31.251  35.967   7.653
 5734POPC   NC312287  38.411  22.932   9.453
 5734POPC   PO412288  38.439  22.950   9.153
 5734POPC   GL112289  38.413  22.972   8.853
 5734POPC   GL212290  38.305  22.988   8.853
 5734POPC   C1A12291  38.447  22.977   8.553
 5734POPC   D2A12292  38.414  22.972   8.253
 5734POPC   C3A12293  38.409  22.951   7.953
 5734POPC   C4A12294  38.497  22.889   7.653
 5734POPC   C1B12295  38.165  22.907   8.553
 5734POPC   C2B12296  38.249  22.911   8.253
 5734POPC   C3B12297  38.160  22.900   7.953
 5734POPC   C4B12298  38.214  22.905   7.653
 5735POPC   NC312299   5.916  18.295   9.453
 5735POPC   PO412300   5.904  18.324   9.153
 5735POPC   GL112301   5.841  18.324   8.853
 5735POPC   GL212302   5.911  18.159   8.853
 5735POPC   C1A12303   5.849  18.295   8.553
 5735POPC   D2A12304   5.848  18.269   8.253
 5735POPC   C3A12305   5.827  18.246   7.953
 5735POPC   C4A12306   5.895  18.327   7.653
 5735POPC   C1B12307   5.966  18.011   8.553
 5735POPC   C2B12308   5.927  18.030   8.253
 5735POPC   C3B12309   5.977  18.079   7.953
 5735POPC   C4B12310   5.975  18.086   7.653
 5736POPC   NC312311  18.300   5.828   9.453
 5736POPC   PO412312  18.315   5.836   9.153
 5736POPC   GL112313  18.307   5.870   8.853
 5736POPC   GL212314  18.206   5.797   8.853
 5736POPC   C1A12315  18.256   5.848   8.553
 5736POPC   D2A12316  18.279   5.846   8.253
 5736POPC   C3A12317  18.285   5.915   7.953
 5736POPC   C4A12318  18.321   5.912   7.653
 5736POPC   C1B12319  18.167   5.693   8.553
 5736POPC   C2B12320  18.129   5.683   8.253
 5736POPC   C3B12321  18.117   5.656   7.953
 5736POPC   C4B12322  18.179   5.641   7.653
 5737POPC   NC312323  20.628  29.175   9.453
 5737POPC   PO412324  20.565  29.103   9.153
 5737POPC   GL112325  20.615  29.161   8.853
 5737POPC   GL212326  20.648  29.290   8.853
 5737POPC   C1A12327  20.600  29.168   8.553
 5737POPC   D2A12328  20.582  29.181   8.253
 5737POPC   C3A12329  20.618  29.158   7.953
 5737POPC   C4A12330  20.601  29.099   7.653
 5737POPC   C1B12331  20.633  29.406   8.553
 5737POPC   C2B12332  20.705  29.421   8.253
 5737POPC   C3B12333  20.634  29.423   7.953
 5737POPC   C4B12334  20.668  29.373   7.653
 5738POPC   NC312335  14.365  22.135   9.453
 5738POPC   PO412336  14.410  22.167   9.153
 5738POPC   GL112337  14.361  22.149   8.853
 5738POPC   GL212338  14.237  22.155   8.853
 5738POPC   C1A12339  14.394  22.156   8.553
 5738POPC   D2A12340  14.444  22.139   8.253
 5738POPC   C3A12341  14.386  22.125   7.953
 5738POPC   C4A12342  14.449  22.131   7.653
 5738POPC   C1B12343  14.166  22.195   8.553
 5738POPC   C2B12344  14.159  22.221   8.253
 5738POPC   C3B12345  14.154  22.282   7.953
 5738POPC   C4B12346  14.122  22.218   7.653
 5739POPC   NC312347   0.436  17.496   9.453
 5739POPC   PO412348   0.468  17.535   9.153
 5739POPC   GL112349   0.485  17.557   8.853
 5739POPC   GL212350   0.336  17.570   8.853
 5739POPC   C1A12351   0.453  17.551   8.553
 5739POPC   D2A12352   0.467  17.554   8.253
 5739POPC   C3A12353   0.467  17.470   7.953
 5739POPC   C4A12354   0.463  17.486   7.653
 5739POPC   C1B12355   0.190  17.602   8.553
 5739POPC   C2B12356   0.248  17.562   8.253
 5739POPC   C3B12357   0.192  17.581   7.953
 5739POPC   C4B12358   0.255  17.556   7.653
 5740POPC   NC312359  42.294  17.517   9.453
 5740POPC   PO412360  42.382  17.473   9.153
 5740POPC   GL112361  42.326  17.547   8.853
 5740POPC   GL212362  42.362  17.368   8.853
 5740POPC   C1A12363  42.356  17.527   8.553
 5740POPC   D2A12364  42.354  17.512   8.253
 5740POPC   C3A12365  42.349  17.467   7.953
 5740POPC   C4A12366  42.349  17.466   7.653
 5740POPC   C1B12367  42.490  17.333   8.553
 5740POPC   C2B12368  42.404  17.273   8.253
 5740POPC   C3B12369  42.489  17.272   7.953
 5740POPC   C4B12370  42.448  17.334   7.653
 5741POPC   NC312371  40.748   0.402   9.453
 5741POPC   PO412372  40.815   0.396   9.153
 5741POPC   GL112373  40.831   0.451   8.853
 5741POPC   GL212374  40.800   0.527   8.853
 5741POPC   C1A12375  40.826   0.403   8.553
 5741POPC   D2A12376  40.787   0.423   8.253
 5741POPC   C3A12377  40.742   0.445   7.953
 5741POPC   C4A12378  40.816   0.450   7.653
 5741POPC   C1B12379  40.822   0.657   8.553
 5741POPC   C2B12380  40.862   0.717   8.253
 5741POPC   C3B12381  40.877   0.720   7.953
 5741POPC   C4B12382  40.905   0.674   7.653
 5742POPC   NC312383  32.279  32.209   9.453
 5742POPC   PO412384  32.205  32.296   9.153
 5742POPC   GL112385  32.220  32.216   8.853
 5742POPC   GL212386  32.343  32.280   8.853
 5742POPC   C1A12387  32.242  32.240   8.553
 5742POPC   D2A12388  32.285  32.224   8.253
 5742POPC   C3A12389  32.284  32.253   7.953
 5742POPC   C4A12390  32.246  32.250   7.653
 5742POPC   C1B12391  32.470  32.425   8.553
 5742POPC   C2B12392  32.420  32.381   8.253
 5742POPC   C3B12393  32.415  32.402   7.953
 5742POPC   C4B12394  32.492  32.408   7.653
 5743POPC   NC312395  27.626  15.956   9.453
 5743POPC   PO412396  27.641  15.979   9.153
 5743POPC   GL112397  27.583  15.965   8.853
 5743POPC   GL212398  27.655  15.889   8.853
 5743POPC   C1A12399  27.560  15.997   8.553
 5743POPC   D2A12400  27.595  15.910   8.253
 5743POPC   C3A12401  27.601  15.951   7.953
 5743POPC   C4A12402  27.573  15.943   7.653
 5743POPC   C1B12403  27.761  15.732   8.553
 5743POPC   C2B12404  27.787  15.810   8.253
 5743POPC   C3B12405  27.794  15.781   7.953
 5743POPC   C4B12406  27.734  15.734   7.653
 5744POPC   NC312407  11.344   1.197   9.453
 5744POPC   PO412408  11.275   1.164   9.153
 5744POPC   GL112409  11.269   1.197   8.853
 5744POPC   GL212410  11.179   1.226   8.853
 5744POPC   C1A12411  11.337   1.171   8.553
 5744POPC   D2A12412  11.336   1.257   8.253
 5744POPC   C3A12413  11.290   1.188   7.953
 5744POPC   C4A12414  11.251   1.182   7.653
 5744POPC   C1B12415  11.083   1.292   8.553
 5744POPC   C2B12416  11.057   1.264   8.253
 5744POPC   C3B12417  11.096   1.291   7.953
 5744POPC   C4B12418  11.056   1.249   7.653
 5745POPC   NC312419   5.047  29.174   9.453
 5745POPC   PO412420   5.053  29.121   9.153
 5745POPC   GL112421   5.074  29.178   8.853
 5745POPC   GL212422   5.214  29.193   8.853
 5745POPC   C1A12423   5.074  29.114   8.553
 5745POPC   D2A12424   5.072  29.174   8.253
 5745POPC   C3A12425   5.073  29.100   7.953
 5745POPC   C4A12426   5.084  29.175   7.653
 5745POPC   C1B12427   5.275  29.297   8.553
 5745POPC   C2B12428   5.278  29.321   8.253
 5745POPC   C3B12429   5.227  29.380   7.953
 5745POPC   C4B12430   5.299  29.301   7.653
 5746POPC   NC312431  18.317   0.434   9.453
 5746POPC   PO412432  18.258   0.465   9.153
 5746POPC   GL112433  18.242   0.437   8.853
 5746POPC   GL212434  18.373   0.428   8.853
 5746POPC   C1A12435  18.242   0.484   8.553
 5746POPC   D2A12436  18.298   0.454   8.253
 5746POPC   C3A12437  18.293   0.429   7.953
 5746POPC   C4A12438  18.276   0.405   7.653
 5746POPC   C1B12439  18.467   0.335   8.553
 5746POPC   C2B12440  18.505   0.362   8.253
 5746POPC   C3B12441  18.514   0.288   7.953
 5746POPC   C4B12442  18.477   0.298   7.653
 5747POPC   NC312443  19.790   7.465   9.453
 5747POPC   PO412444  19.794   7.455   9.153
 5747POPC   GL112445  19.883   7.386   8.853
 5747POPC   GL212446  19.830   7.250   8.853
 5747POPC   C1A12447  19.877   7.383   8.553
 5747POPC   D2A12448  19.878   7.375   8.253
 5747POPC   C3A12449  19.800   7.460   7.953
 5747POPC   C4A12450  19.868   7.403   7.653
 5747POPC   C1B12451  19.829   7.160   8.553
 5747POPC   C2B12452  19.815   7.178   8.253
 5747POPC   C3B12453  19.825   7.195   7.953
 5747POPC   C4B12454  19.825   7.134   7.653
 5748POPC   NC312455  19.797  42.324   9.453
 5748POPC   PO412456  19.812  42.317   9.153
 5748POPC   GL112457  19.791  42.347   8.853
 5748POPC   GL212458  19.892  42.411   8.853
 5748POPC   C1A12459  19.818  42.293   8.553
 5748POPC   D2A12460  19.812  42.328   8.253
 5748POPC   C3A12461  19.802  42.380   7.953
 5748POPC   C4A12462  19.786  42.322   7.653
 5748POPC   C1B12463  19.958  42.569   8.553
 5748POPC   C2B12464  19.987  42.503   8.253
 5748POPC   C3B12465  19.954  42.555   7.953
 5748POPC   C4B12466  19.937  42.591   7.653
 5749POPC   NC312467   1.992  44.653   9.453
 5749POPC   PO412468   2.030  44.633   9.153
 5749POPC   GL112469   1.978  44.633   8.853
 5749POPC   GL212470   2.110  44.641   8.853
 5749POPC   C1A12471   2.025  44.682   8.553
 5749POPC   D2A12472   2.023  44.648   8.253
 5749POPC   C3A12473   1.976  44.666   7.953
 5749POPC   C4A12474   1.985  44.711   7.653
 5749POPC   C1B12475   2.181  44.534   8.553
 5749POPC   C2B12476   2.167  44.515   8.253
 5749POPC   C3B12477   2.166  44.527   7.953
 5749POPC   C4B12478   2.232  44.515   7.653
 5750POPC   NC312479  14.385  20.650   9.453
 5750POPC   PO412480  14.387  20.571   9.153
 5750POPC   GL112481  14.384  20.574   8.853
 5750POPC   GL212482  14.352  20.462   8.853
 5750POPC   C1A12483  14.415  20.601   8.553
 5750POPC   D2A12484  14.401  20.623   8.253
 5750POPC   C3A12485  14.410  20.563   7.953
 5750POPC   C4A12486  14.410  20.570   7.653
 5750POPC   C1B12487  14.293  20.420   8.553
 5750POPC   C2B12488  14.281  20.387   8.253
 5750POPC   C3B12489  14.330  20.414   7.953
 5750POPC   C4B12490  14.261  20.416   7.653
 5751POPC   NC312491  18.323   1.253   9.453
 5751POPC   PO412492  18.305   1.215   9.153
 5751POPC   GL112493  18.322   1.228   8.853
 5751POPC   GL212494  18.422   1.194   8.853
 5751POPC   C1A12495  18.311   1.225   8.553
 5751POPC   D2A12496  18.288   1.238   8.253
 5751POPC   C3A12497  18.248   1.212   7.953
 5751POPC   C4A12498  18.309   1.244   7.653
 5751POPC   C1B12499  18.505   1.211   8.553
 5751POPC   C2B12500  18.524   1.162   8.253
 5751POPC   C3B12501  18.545   1.229   7.953
 5751POPC   C4B12502  18.568   1.156   7.653
 5752POPC   NC312503  37.652  16.730   9.453
 5752POPC   PO412504  37.716  16.709   9.153
 5752POPC   GL112505  37.678  16.723   8.853
 5752POPC   GL212506  37.571  16.817   8.853
 5752POPC   C1A12507  37.699  16.774   8.553
 5752POPC   D2A12508  37.654  16.775   8.253
 5752POPC   C3A12509  37.656  16.741   7.953
 5752POPC   C4A12510  37.681  16.694   7.653
 5752POPC   C1B12511  37.487  16.844   8.553
 5752POPC   C2B12512  37.505  16.824   8.253
 5752POPC   C3B12513  37.481  16.893   7.953
 5752POPC   C4B12514  37.426  16.874   7.653
 5753POPC   NC312515   0.432  43.103   9.453
 5753POPC   PO412516   0.458  43.072   9.153
 5753POPC   GL112517   0.459  43.138   8.853
 5753POPC   GL212518   0.368  43.166   8.853
 5753POPC   C1A12519   0.403  43.148   8.553
 5753POPC   D2A12520   0.478  43.082   8.253
 5753POPC   C3A12521   0.479  43.107   7.953
 5753POPC   C4A12522   0.427  43.080   7.653
 5753POPC   C1B12523   0.250  43.229   8.553
 5753POPC   C2B12524   0.208  43.209   8.253
 5753POPC   C3B12525   0.185  43.294   7.953
 5753POPC   C4B12526   0.240  43.296   7.653
 5754POPC   NC312527  22.938  41.521   9.453
 5754POPC   PO412528  22.905  41.557   9.153
 5754POPC   GL112529  22.979  41.599   8.853
 5754POPC   GL212530  22.795  41.565   8.853
 5754POPC   C1A12531  22.947  41.527   8.553
 5754POPC   D2A12532  22.972  41.556   8.253
 5754POPC   C3A12533  22.985  41.513   7.953
 5754POPC   C4A12534  22.911  41.556   7.653
 5754POPC   C1B12535  22.734  41.523   8.553
 5754POPC   C2B12536  22.727  41.543   8.253
 5754POPC   C3B12537  22.674  41.465   7.953
 5754POPC   C4B12538  22.646  41.524   7.653
 5755POPC   NC312539  15.963  43.121   9.453
 5755POPC   PO412540  15.991  43.127   9.153
 5755POPC   GL112541  15.979  43.120   8.853
 5755POPC   GL212542  15.949  43.268   8.853
 5755POPC   C1A12543  15.989  43.063   8.553
 5755POPC   D2A12544  15.988  43.074   8.253
 5755POPC   C3A12545  15.978  43.071   7.953
 5755POPC   C4A12546  15.927  43.082   7.653
 5755POPC   C1B12547  16.011  43.309   8.553
 5755POPC   C2B12548  15.995  43.394   8.253
 5755POPC   C3B12549  16.040  43.361   7.953
 5755POPC   C4B12550  15.987  43.314   7.653
 5756POPC   NC312551  22.964  21.367   9.453
 5756POPC   PO412552  22.955  21.347   9.153
 5756POPC   GL112553  22.917  21.382   8.853
 5756POPC   GL212554  23.099  21.351   8.853
 5756POPC   C1A12555  22.903  21.400   8.553
 5756POPC   D2A12556  22.904  21.395   8.253
 5756POPC   C3A12557  22.923  21.356   7.953
 5756POPC   C4A12558  22.935  21.399   7.653
 5756POPC   C1B12559  23.142  21.289   8.553
 5756POPC   C2B12560  23.124  21.307   8.253
 5756POPC   C3B12561  23.207  21.243   7.953
 5756POPC   C4B12562  23.212  21.240   7.653
 5757POPC   NC312563  10.564  29.147   9.453
 5757POPC   PO412564  10.478  29.144   9.153
 5757POPC   GL112565  10.502  29.173   8.853
 5757POPC   GL212566  10.654  29.282   8.853
 5757POPC   C1A12567  10.568  29.186   8.553
 5757POPC   D2A12568  10.568  29.116   8.253
 5757POPC   C3A12569  10.505  29.124   7.953
 5757POPC   C4A12570  10.545  29.175   7.653
 5757POPC   C1B12571  10.727  29.337   8.553
 5757POPC   C2B12572  10.698  29.290   8.253
 5757POPC   C3B12573  10.678  29.356   7.953
 5757POPC   C4B12574  10.653  29.328   7.653
 5758POPC   NC312575  22.897  13.596   9.453
 5758POPC   PO412576  22.923  13.653   9.153
 5758POPC   GL112577  22.984  13.644   8.853
 5758POPC   GL212578  23.031  13.698   8.853
 5758POPC   C1A12579  22.911  13.663   8.553
 5758POPC   D2A12580  22.952  13.626   8.253
 5758POPC   C3A12581  22.936  13.614   7.953
 5758POPC   C4A12582  22.962  13.600   7.653
 5758POPC   C1B12583  23.104  13.844   8.553
 5758POPC   C2B12584  23.107  13.797   8.253
 5758POPC   C3B12585  23.145  13.799   7.953
 5758POPC   C4B12586  23.157  13.811   7.653
 5759POPC   NC312587  22.912  15.973   9.453
 5759POPC   PO412588  22.945  15.965   9.153
 5759POPC   GL112589  22.956  15.935   8.853
 5759POPC   GL212590  22.971  15.864   8.853
 5759POPC   C1A12591  22.986  15.922   8.553
 5759POPC   D2A12592  22.951  15.932   8.253
 5759POPC   C3A12593  22.986  15.930   7.953
 5759POPC   C4A12594  22.892  15.969   7.653
 5759POPC   C1B12595  22.977  15.670   8.553
 5759POPC   C2B12596  23.008  15.749   8.253
 5759POPC   C3B12597  22.960  15.719   7.953
 5759POPC   C4B12598  22.939  15.658   7.653
 5760POPC   NC312599  16.767  21.365   9.453
 5760POPC   PO412600  16.738  21.399   9.153
 5760POPC   GL112601  16.749  21.347   8.853
 5760POPC   GL212602  16.793  21.292   8.853
 5760POPC   C1A12603  16.727  21.412   8.553
 5760POPC   D2A12604  16.681  21.379   8.253
 5760POPC   C3A12605  16.733  21.363   7.953
 5760POPC   C4A12606  16.764  21.357   7.653
 5760POPC   C1B12607  16.936  21.182   8.553
 5760POPC   C2B12608  16.889  21.149   8.253
 5760POPC   C3B12609  16.884  21.205   7.953
 5760POPC   C4B12610  16.905  21.207   7.653
 5761POPC   NC312611   2.731   9.745   9.453
 5761POPC   PO412612   2.784   9.734   9.153
 5761POPC   GL112613   2.749   9.756   8.853
 5761POPC   GL212614   2.864   9.843   8.853
 5761POPC   C1A12615   2.783   9.791   8.553
 5761POPC   D2A12616   2.814   9.739   8.253
 5761POPC   C3A12617   2.769   9.752   7.953
 5761POPC   C4A12618   2.803   9.716   7.653
 5761POPC   C1B12619   3.007   9.857   8.553
 5761POPC   C2B12620   3.013   9.860   8.253
 5761POPC   C3B12621   3.000   9.809   7.953
 5761POPC   C4B12622   2.950   9.853   7.653
 5762POPC   NC312623  13.615  21.402   9.453
 5762POPC   PO412624  13.634  21.345   9.153
 5762POPC   GL112625  13.667  21.386   8.853
 5762POPC   GL212626  13.632  21.549   8.853
 5762POPC   C1A12627  13.645  21.343   8.553
 5762POPC   D2A12628  13.662  21.424   8.253
 5762POPC   C3A12629  13.673  21.373   7.953
 5762POPC   C4A12630  13.658  21.389   7.653
 5762POPC   C1B12631  13.639  21.640   8.553
 5762POPC   C2B12632  13.620  21.648   8.253
 5762POPC   C3B12633  13.670  21.654   7.953
 5762POPC   C4B12634  13.689  21.621   7.653
 5763POPC   NC312635  40.051  39.217   9.453
 5763POPC   PO412636  39.979  39.185   9.153
 5763POPC   GL112637  39.983  39.183   8.853
 5763POPC   GL212638  39.926  39.305   8.853
 5763POPC   C1A12639  39.962  39.206   8.553
 5763POPC   D2A12640  39.996  39.200   8.253
 5763POPC   C3A12641  40.028  39.259   7.953
 5763POPC   C4A12642  40.013  39.263   7.653
 5763POPC   C1B12643  39.951  39.439   8.553
 5763POPC   C2B12644  39.932  39.463   8.253
 5763POPC   C3B12645  39.967  39.482   7.953
 5763POPC   C4B12646  39.944  39.481   7.653
 5764POPC   NC312647  17.501  39.963   9.453
 5764POPC   PO412648  17.502  40.001   9.153
 5764POPC   GL112649  17.521  40.026   8.853
 5764POPC   GL212650  17.624  39.877   8.853
 5764POPC   C1A12651  17.523  40.005   8.553
 5764POPC   D2A12652  17.520  39.961   8.253
 5764POPC   C3A12653  17.461  39.960   7.953
 5764POPC   C4A12654  17.508  40.046   7.653
 5764POPC   C1B12655  17.689  39.799   8.553
 5764POPC   C2B12656  17.693  39.808   8.253
 5764POPC   C3B12657  17.664  39.821   7.953
 5764POPC   C4B12658  17.679  39.809   7.653
 5765POPC   NC312659   8.967  14.383   9.453
 5765POPC   PO412660   9.002  14.358   9.153
 5765POPC   GL112661   9.011  14.369   8.853
 5765POPC   GL212662   9.105  14.443   8.853
 5765POPC   C1A12663   8.943  14.410   8.553
 5765POPC   D2A12664   8.931  14.425   8.253
 5765POPC   C3A12665   9.011  14.412   7.953
 5765POPC   C4A12666   9.009  14.431   7.653
 5765POPC   C1B12667   9.141  14.490   8.553
 5765POPC   C2B12668   9.154  14.513   8.253
 5765POPC   C3B12669   9.177  14.538   7.953
 5765POPC   C4B12670   9.147  14.503   7.653
 5766POPC   NC312671  41.519  16.763   9.453
 5766POPC   PO412672  41.570  16.749   9.153
 5766POPC   GL112673  41.596  16.767   8.853
 5766POPC   GL212674  41.680  16.649   8.853
 5766POPC   C1A12675  41.578  16.716   8.553
 5766POPC   D2A12676  41.514  16.713   8.253
 5766POPC   C3A12677  41.584  16.697   7.953
 5766POPC   C4A12678  41.509  16.736   7.653
 5766POPC   C1B12679  41.736  16.552   8.553
 5766POPC   C2B12680  41.723  16.601   8.253
 5766POPC   C3B12681  41.791  16.535   7.953
 5766POPC   C4B12682  41.738  16.570   7.653
 5767POPC   NC312683  23.672  36.096   9.453
 5767POPC   PO412684  23.761  36.104   9.153
 5767POPC   GL112685  23.714  36.107   8.853
 5767POPC   GL212686  23.570  36.190   8.853
 5767POPC   C1A12687  23.688  36.099   8.553
 5767POPC   D2A12688  23.665  36.081   8.253
 5767POPC   C3A12689  23.708  36.088   7.953
 5767POPC   C4A12690  23.743  36.090   7.653
 5767POPC   C1B12691  23.487  36.298   8.553
 5767POPC   C2B12692  23.535  36.285   8.253
 5767POPC   C3B12693  23.496  36.331   7.953
 5767POPC   C4B12694  23.476  36.266   7.653
 5768POPC   NC312695  12.826  35.382   9.453
 5768POPC   PO412696  12.859  35.346   9.153
 5768POPC   GL112697  12.834  35.373   8.853
 5768POPC   GL212698  12.930  35.380   8.853
 5768POPC   C1A12699  12.846  35.379   8.553
 5768POPC   D2A12700  12.862  35.320   8.253
 5768POPC   C3A12701  12.898  35.376   7.953
 5768POPC   C4A12702  12.830  35.313   7.653
 5768POPC   C1B12703  13.133  35.445   8.553
 5768POPC   C2B12704  13.049  35.448   8.253
 5768POPC   C3B12705  13.093  35.445   7.953
 5768POPC   C4B12706  13.122  35.467   7.653
 5769POPC   NC312707  43.915   8.202   9.453
 5769POPC   PO412708  43.855   8.205   9.153
 5769POPC   GL112709  43.850   8.223   8.853
 5769POPC   GL212710  43.874   8.043   8.853
 5769POPC   C1A12711  43.873   8.239   8.553
 5769POPC   D2A12712  43.904   8.153   8.253
 5769POPC   C3A12713  43.875   8.186   7.953
 5769POPC   C4A12714  43.925   8.240   7.653
 5769POPC   C1B12715  43.781   7.959   8.553
 5769POPC   C2B12716  43.764   7.996   8.253
 5769POPC   C3B12717  43.803   7.963   7.953
 5769POPC   C4B12718  43.775   7.991   7.653
 5770POPC   NC312719  25.236  12.880   9.453
 5770POPC   PO412720  25.256  12.831   9.153
 5770POPC   GL112721  25.288  12.878   8.853
 5770POPC   GL212722  25.204  12.714   8.853
 5770POPC   C1A12723  25.290  12.871   8.553
 5770POPC   D2A12724  25.290  12.808   8.253
 5770POPC   C3A12725  25.281  12.883   7.953
 5770POPC   C4A12726  25.262  12.879   7.653
 5770POPC   C1B12727  25.127  12.625   8.553
 5770POPC   C2B12728  25.134  12.613   8.253
 5770POPC   C3B12729  25.124  12.674   7.953
 5770POPC   C4B12730  25.109  12.641   7.653
 5771POPC   NC312731  22.958   1.253   9.453
 5771POPC   PO412732  22.934   1.200   9.153
 5771POPC   GL112733  22.897   1.218   8.853
 5771POPC   GL212734  22.884   1.309   8.853
 5771POPC   C1A12735  22.920   1.219   8.553
 5771POPC   D2A12736  22.917   1.179   8.253
 5771POPC   C3A12737  22.956   1.258   7.953
 5771POPC   C4A12738  22.963   1.227   7.653
 5771POPC   C1B12739  22.819   1.412   8.553
 5771POPC   C2B12740  22.885   1.403   8.253
 5771POPC   C3B12741  22.801   1.431   7.953
 5771POPC   C4B12742  22.884   1.407   7.653
 5772POPC   NC312743   9.022  36.915   9.453
 5772POPC   PO412744   8.973  36.867   9.153
 5772POPC   GL112745   8.945  36.908   8.853
 5772POPC   GL212746   9.111  36.840   8.853
 5772POPC   C1A12747   8.946  36.909   8.553
 5772POPC   D2A12748   8.942  36.922   8.253
 5772POPC   C3A12749   8.997  36.860   7.953
 5772POPC   C4A12750   8.933  36.952   7.653
 5772POPC   C1B12751   9.117  36.711   8.553
 5772POPC   C2B12752   9.191  36.719   8.253
 5772POPC   C3B12753   9.167  36.727   7.953
 5772POPC   C4B12754   9.151  36.712   7.653
 5773POPC   NC312755  43.840   2.735   9.453
 5773POPC   PO412756  43.856   2.761   9.153
 5773POPC   GL112757  43.899   2.732   8.853
 5773POPC   GL212758  43.773   2.882   8.853
 5773POPC   C1A12759  43.891   2.768   8.553
 5773POPC   D2A12760  43.889   2.758   8.253
 5773POPC   C3A12761  43.859   2.740   7.953
 5773POPC   C4A12762  43.886   2.758   7.653
 5773POPC   C1B12763  43.660   2.936   8.553
 5773POPC   C2B12764  43.709   2.926   8.253
 5773POPC   C3B12765  43.707   2.945   7.953
 5773POPC   C4B12766  43.647   2.969   7.653
 5774POPC   NC312767  38.427   0.405   9.453
 5774POPC   PO412768  38.424   0.455   9.153
 5774POPC   GL112769  38.468   0.449   8.853
 5774POPC   GL212770  38.425   0.364   8.853
 5774POPC   C1A12771  38.425   0.418   8.553
 5774POPC   D2A12772  38.436   0.461   8.253
 5774POPC   C3A12773  38.430   0.477   7.953
 5774POPC   C4A12774  38.414   0.438   7.653
 5774POPC   C1B12775  38.432   0.180   8.553
 5774POPC   C2B12776  38.398   0.167   8.253
 5774POPC   C3B12777  38.401   0.245   7.953
 5774POPC   C4B12778  38.433   0.169   7.653
 5775POPC   NC312779  27.549  17.539   9.453
 5775POPC   PO412780  27.599  17.464   9.153
 5775POPC   GL112781  27.558  17.499   8.853
 5775POPC   GL212782  27.603  17.357   8.853
 5775POPC   C1A12783  27.612  17.542   8.553
 5775POPC   D2A12784  27.564  17.509   8.253
 5775POPC   C3A12785  27.607  17.550   7.953
 5775POPC   C4A12786  27.637  17.551   7.653
 5775POPC   C1B12787  27.499  17.283   8.553
 5775POPC   C2B12788  27.550  17.300   8.253
 5775POPC   C3B12789  27.487  17.226   7.953
 5775POPC   C4B12790  27.523  17.225   7.653
 5776POPC   NC312791   5.122  22.980   9.453
 5776POPC   PO412792   5.119  22.903   9.153
 5776POPC   GL112793   5.138  22.967   8.853
 5776POPC   GL212794   5.062  22.814   8.853
 5776POPC   C1A12795   5.116  22.981   8.553
 5776POPC   D2A12796   5.049  22.930   8.253
 5776POPC   C3A12797   5.120  22.961   7.953
 5776POPC   C4A12798   5.132  22.952   7.653
 5776POPC   C1B12799   5.026  22.682   8.553
 5776POPC   C2B12800   5.117  22.729   8.253
 5776POPC   C3B12801   5.092  22.686   7.953
 5776POPC   C4B12802   5.106  22.651   7.653
 5777POPC   NC312803  34.545  13.655   9.453
 5777POPC   PO412804  34.567  13.643   9.153
 5777POPC   GL112805  34.576  13.605   8.853
 5777POPC   GL212806  34.444  13.724   8.853
 5777POPC   C1A12807  34.588  13.654   8.553
 5777POPC   D2A12808  34.619  13.639   8.253
 5777POPC   C3A12809  34.558  13.669   7.953
 5777POPC   C4A12810  34.568  13.624   7.653
 5777POPC   C1B12811  34.374  13.735   8.553
 5777POPC   C2B12812  34.323  13.798   8.253
 5777POPC   C3B12813  34.351  13.799   7.953
 5777POPC   C4B12814  34.370  13.761   7.653
 5778POPC   NC312815  13.582  14.358   9.453
 5778POPC   PO412816  13.633  14.453   9.153
 5778POPC   GL112817  13.630  14.373   8.853
 5778POPC   GL212818  13.504  14.380   8.853
 5778POPC   C1A12819  13.677  14.373   8.553
 5778POPC   D2A12820  13.614  14.389   8.253
 5778POPC   C3A12821  13.612  14.448   7.953
 5778POPC   C4A12822  13.582  14.403   7.653
 5778POPC   C1B12823  13.346  14.305   8.553
 5778POPC   C2B12824  13.379  14.328   8.253
 5778POPC   C3B12825  13.341  14.357   7.953
 5778POPC   C4B12826  13.344  14.298   7.653
 5779POPC   NC312827   7.440  33.803   9.453
 5779POPC   PO412828   7.383  33.763   9.153
 5779POPC   GL112829   7.433  33.777   8.853
 5779POPC   GL212830   7.299  33.738   8.853
 5779POPC   C1A12831   7.397  33.815   8.553
 5779POPC   D2A12832   7.445  33.766   8.253
 5779POPC   C3A12833   7.431  33.767   7.953
 5779POPC   C4A12834   7.471  33.818   7.653
 5779POPC   C1B12835   7.304  33.634   8.553
 5779POPC   C2B12836   7.272  33.575   8.253
 5779POPC   C3B12837   7.247  33.630   7.953
 5779POPC   C4B12838   7.216  33.568   7.653
 5780POPC   NC312839  26.062  31.455   9.453
 5780POPC   PO412840  26.059  31.444   9.153
 5780POPC   GL112841  26.045  31.486   8.853
 5780POPC   GL212842  25.900  31.567   8.853
 5780POPC   C1A12843  26.075  31.431   8.553
 5780POPC   D2A12844  26.017  31.457   8.253
 5780POPC   C3A12845  26.000  31.471   7.953
 5780POPC   C4A12846  26.045  31.502   7.653
 5780POPC   C1B12847  25.873  31.578   8.553
 5780POPC   C2B12848  25.791  31.647   8.253
 5780POPC   C3B12849  25.792  31.648   7.953
 5780POPC   C4B12850  25.860  31.582   7.653
 5781POPC   NC312851  39.983  27.586   9.453
 5781POPC   PO412852  39.992  27.613   9.153
 5781POPC   GL112853  40.020  27.639   8.853
 5781POPC   GL212854  40.083  27.523   8.853
 5781POPC   C1A12855  40.011  27.585   8.553
 5781POPC   D2A12856  40.024  27.566   8.253
 5781POPC   C3A12857  39.997  27.556   7.953
 5781POPC   C4A12858  40.045  27.635   7.653
 5781POPC   C1B12859  40.266  27.419   8.553
 5781POPC   C2B12860  40.250  27.433   8.253
 5781POPC   C3B12861  40.248  27.438   7.953
 5781POPC   C4B12862  40.209  27.439   7.653
 5782POPC   NC312863  24.495  13.595   9.453
 5782POPC   PO412864  24.454  13.623   9.153
 5782POPC   GL112865  24.455  13.666   8.853
 5782POPC   GL212866  24.428  13.724   8.853
 5782POPC   C1A12867  24.467  13.619   8.553
 5782POPC   D2A12868  24.463  13.613   8.253
 5782POPC   C3A12869  24.447  13.619   7.953
 5782POPC   C4A12870  24.452  13.658   7.653
 5782POPC   C1B12871  24.361  13.807   8.553
 5782POPC   C2B12872  24.367  13.836   8.253
 5782POPC   C3B12873  24.321  13.881   7.953
 5782POPC   C4B12874  24.364  13.861   7.653
 5783POPC   NC312875  22.896  24.528   9.453
 5783POPC   PO412876  22.915  24.507   9.153
 5783POPC   GL112877  22.937  24.482   8.853
 5783POPC   GL212878  23.036  24.348   8.853
 5783POPC   C1A12879  22.900  24.499   8.553
 5783POPC   D2A12880  22.980  24.486   8.253
 5783POPC   C3A12881  22.940  24.518   7.953
 5783POPC   C4A12882  22.892  24.449   7.653
 5783POPC   C1B12883  23.087  24.258   8.553
 5783POPC   C2B12884  23.097  24.299   8.253
 5783POPC   C3B12885  23.058  24.328   7.953
 5783POPC   C4B12886  23.036  24.290   7.653
 5784POPC   NC312887  20.635  33.057   9.453
 5784POPC   PO412888  20.622  33.029   9.153
 5784POPC   GL112889  20.653  32.984   8.853
 5784POPC   GL212890  20.622  33.183   8.853
 5784POPC   C1A12891  20.606  33.037   8.553
 5784POPC   D2A12892  20.598  33.024   8.253
 5784POPC   C3A12893  20.587  33.065   7.953
 5784POPC   C4A12894  20.615  33.047   7.653
 5784POPC   C1B12895  20.685  33.276   8.553
 5784POPC   C2B12896  20.705  33.312   8.253
 5784POPC   C3B12897  20.678  33.271   7.953
 5784POPC   C4B12898  20.659  33.219   7.653
 5785POPC   NC312899   8.929  33.067   9.453
 5785POPC   PO412900   9.022  33.023   9.153
 5785POPC   GL112901   9.003  33.028   8.853
 5785POPC   GL212902   9.009  32.886   8.853
 5785POPC   C1A12903   8.994  32.986   8.553
 5785POPC   D2A12904   9.002  32.978   8.253
 5785POPC   C3A12905   8.936  33.053   7.953
 5785POPC   C4A12906   8.939  32.976   7.653
 5785POPC   C1B12907   8.922  32.786   8.553
 5785POPC   C2B12908   8.907  32.775   8.253
 5785POPC   C3B12909   8.988  32.734   7.953
 5785POPC   C4B12910   8.979  32.773   7.653
 5786POPC   NC312911  23.689  42.372   9.453
 5786POPC   PO412912  23.703  42.349   9.153
 5786POPC   GL112913  23.692  42.316   8.853
 5786POPC   GL212914  23.665  42.235   8.853
 5786POPC   C1A12915  23.689  42.341   8.553
 5786POPC   D2A12916  23.691  42.311   8.253
 5786POPC   C3A12917  23.740  42.366   7.953
 5786POPC   C4A12918  23.691  42.312   7.653
 5786POPC   C1B12919  23.697  42.115   8.553
 5786POPC   C2B12920  23.713  42.051   8.253
 5786POPC   C3B12921  23.715  42.076   7.953
 5786POPC   C4B12922  23.700  42.089   7.653
 5787POPC   NC312923  11.287  43.145   9.453
 5787POPC   PO412924  11.276  43.062   9.153
 5787POPC   GL112925  11.327  43.135   8.853
 5787POPC   GL212926  11.342  43.012   8.853
 5787POPC   C1A12927  11.272  43.106   8.553
 5787POPC   D2A12928  11.340  43.129   8.253
 5787POPC   C3A12929  11.327  43.151   7.953
 5787POPC   C4A12930  11.269  43.160   7.653
 5787POPC   C1B12931  11.338  42.875   8.553
 5787POPC   C2B12932  11.324  42.894   8.253
 5787POPC   C3B12933  11.371  42.883   7.953
 5787POPC   C4B12934  11.415  42.848   7.653
 5788POPC   NC312935   1.222  20.593   9.453
 5788POPC   PO412936   1.264  20.571   9.153
 5788POPC   GL112937   1.214  20.590   8.853
 5788POPC   GL212938   1.352  20.490   8.853
 5788POPC   C1A12939   1.250  20.626   8.553
 5788POPC   D2A12940   1.245  20.604   8.253
 5788POPC   C3A12941   1.231  20.628   7.953
 5788POPC   C4A12942   1.223  20.563   7.653
 5788POPC   C1B12943   1.372  20.472   8.553
 5788POPC   C2B12944   1.448  20.471   8.253
 5788POPC   C3B12945   1.394  20.490   7.953
 5788POPC   C4B12946   1.414  20.453   7.653
 5789POPC   NC312947  19.861  34.543   9.453
 5789POPC   PO412948  19.825  34.567   9.153
 5789POPC   GL112949  19.880  34.530   8.853
 5789POPC   GL212950  19.728  34.602   8.853
 5789POPC   C1A12951  19.787  34.611   8.553
 5789POPC   D2A12952  19.793  34.579   8.253
 5789POPC   C3A12953  19.839  34.602   7.953
 5789POPC   C4A12954  19.850  34.581   7.653
 5789POPC   C1B12955  19.612  34.559   8.553
 5789POPC   C2B12956  19.636  34.513   8.253
 5789POPC   C3B12957  19.624  34.520   7.953
 5789POPC   C4B12958  19.566  34.513   7.653
 5790POPC   NC312959  41.570  44.699   9.453
 5790POPC   PO412960  41.563  44.703   9.153
 5790POPC   GL112961  41.544  44.689   8.853
 5790POPC   GL212962  41.661  44.712   8.853
 5790POPC   C1A12963  41.577  44.701   8.553
 5790POPC   D2A12964  41.509  44.689   8.253
 5790POPC   C3A12965  41.596  44.668   7.953
 5790POPC   C4A12966  41.575  44.615   7.653
 5790POPC   C1B12967  41.779  44.662   8.553
 5790POPC   C2B12968  41.831  44.697   8.253
 5790POPC   C3B12969  41.813  44.637   7.953
 5790POPC   C4B12970  41.832  44.706   7.653
 5791POPC   NC312971  23.704  13.651   9.453
 5791POPC   PO412972  23.696  13.674   9.153
 5791POPC   GL112973  23.721  13.659   8.853
 5791POPC   GL212974  23.654  13.529   8.853
 5791POPC   C1A12975  23.676  13.633   8.553
 5791POPC   D2A12976  23.677  13.645   8.253
 5791POPC   C3A12977  23.708  13.584   7.953
 5791POPC   C4A12978  23.664  13.643   7.653
 5791POPC   C1B12979  23.586  13.368   8.553
 5791POPC   C2B12980  23.640  13.363   8.253
 5791POPC   C3B12981  23.612  13.432   7.953
 5791POPC   C4B12982  23.568  13.436   7.653
 5792POPC   NC312983  21.430  33.799   9.453
 5792POPC   PO412984  21.435  33.820   9.153
 5792POPC   GL112985  21.432  33.800   8.853
 5792POPC   GL212986  21.255  33.684   8.853
 5792POPC   C1A12987  21.426  33.801   8.553
 5792POPC   D2A12988  21.342  33.785   8.253
 5792POPC   C3A12989  21.368  33.755   7.953
 5792POPC   C4A12990  21.435  33.843   7.653
 5792POPC   C1B12991  21.186  33.665   8.553
 5792POPC   C2B12992  21.186  33.694   8.253
 5792POPC   C3B12993  21.186  33.715   7.953
 5792POPC   C4B12994  21.179  33.644   7.653
 5793POPC   NC312995   5.893  14.362   9.453
 5793POPC   PO412996   5.904  14.402   9.153
 5793POPC   GL112997   5.859  14.422   8.853
 5793POPC   GL212998   5.981  14.413   8.853
 5793POPC   C1A12999   5.913  14.364   8.553
 5793POPC   D2A13000   5.916  14.395   8.253
 5793POPC   C3A13001   5.828  14.373   7.953
 5793POPC   C4A13002   5.846  14.452   7.653
 5793POPC   C1B13003   6.147  14.509   8.553
 5793POPC   C2B13004   6.062  14.460   8.253
 5793POPC   C3B13005   6.093  14.520   7.953
 5793POPC   C4B13006   6.059  14.531   7.653
 5794POPC   NC313007  24.516  19.837   9.453
 5794POPC   PO413008  24.506  19.860   9.153
 5794POPC   GL113009  24.475  19.863   8.853
 5794POPC   GL213010  24.410  19.982   8.853
 5794POPC   C1A13011  24.535  19.807   8.553
 5794POPC   D2A13012  24.521  19.798   8.253
 5794POPC   C3A13013  24.450  19.841   7.953
 5794POPC   C4A13014  24.483  19.830   7.653
 5794POPC   C1B13015  24.365  20.059   8.553
 5794POPC   C2B13016  24.410  20.080   8.253
 5794POPC   C3B13017  24.378  20.114   7.953
 5794POPC   C4B13018  24.384  20.038   7.653
 5795POPC   NC313019  15.213   6.629   9.453
 5795POPC   PO413020  15.172   6.646   9.153
 5795POPC   GL113021  15.194   6.669   8.853
 5795POPC   GL213022  15.246   6.573   8.853
 5795POPC   C1A13023  15.138   6.603   8.553
 5795POPC   D2A13024  15.164   6.615   8.253
 5795POPC   C3A13025  15.193   6.652   7.953
 5795POPC   C4A13026  15.166   6.659   7.653
 5795POPC   C1B13027  15.380   6.430   8.553
 5795POPC   C2B13028  15.345   6.468   8.253
 5795POPC   C3B13029  15.379   6.511   7.953
 5795POPC   C4B13030  15.319   6.428   7.653
 5796POPC   NC313031  18.271  18.242   9.453
 5796POPC   PO413032  18.327  18.314   9.153
 5796POPC   GL113033  18.241  18.298   8.853
 5796POPC   GL213034  18.124  18.319   8.853
 5796POPC   C1A13035  18.295  18.271   8.553
 5796POPC   D2A13036  18.304  18.233   8.253
 5796POPC   C3A13037  18.260  18.314   7.953
 5796POPC   C4A13038  18.280  18.312   7.653
 5796POPC   C1B13039  18.060  18.391   8.553
 5796POPC   C2B13040  18.067  18.387   8.253
 5796POPC   C3B13041  18.030  18.347   7.953
 5796POPC   C4B13042  18.019  18.366   7.653
 5797POPC   NC313043   6.672  13.637   9.453
 5797POPC   PO413044   6.653  13.668   9.153
 5797POPC   GL113045   6.661  13.642   8.853
 5797POPC   GL213046   6.622  13.730   8.853
 5797POPC   C1A13047   6.677  13.674   8.553
 5797POPC   D2A13048   6.673  13.579   8.253
 5797POPC   C3A13049   6.650  13.644   7.953
 5797POPC   C4A13050   6.666  13.621   7.653
 5797POPC   C1B13051   6.541  13.809   8.553
 5797POPC   C2B13052   6.488  13.859   8.253
 5797POPC   C3B13053   6.489  13.834   7.953
 5797POPC   C4B13054   6.566  13.854   7.653
 5798POPC   NC313055  37.728   9.717   9.453
 5798POPC   PO413056  37.658   9.787   9.153
 5798POPC   GL113057  37.702   9.725   8.853
 5798POPC   GL213058  37.602   9.751   8.853
 5798POPC   C1A13059  37.664   9.749   8.553
 5798POPC   D2A13060  37.645   9.782   8.253
 5798POPC   C3A13061  37.713   9.718   7.953
 5798POPC   C4A13062  37.686   9.730   7.653
 5798POPC   C1B13063  37.419   9.753   8.553
 5798POPC   C2B13064  37.426   9.812   8.253
 5798POPC   C3B13065  37.400   9.826   7.953
 5798POPC   C4B13066  37.441   9.795   7.653
 5799POPC   NC313067   4.318  17.507   9.453
 5799POPC   PO413068   4.339  17.518   9.153
 5799POPC   GL113069   4.363  17.538   8.853
 5799POPC   GL213070   4.254  17.649   8.853
 5799POPC   C1A13071   4.353  17.516   8.553
 5799POPC   D2A13072   4.286  17.515   8.253
 5799POPC   C3A13073   4.302  17.544   7.953
 5799POPC   C4A13074   4.347  17.503   7.653
 5799POPC   C1B13075   4.208  17.707   8.553
 5799POPC   C2B13076   4.151  17.717   8.253
 5799POPC   C3B13077   4.117  17.700   7.953
 5799POPC   C4B13078   4.202  17.681   7.653
 5800POPC   NC313079  35.353  34.582   9.453
 5800POPC   PO413080  35.327  34.527   9.153
 5800POPC   GL113081  35.314  34.530   8.853
 5800POPC   GL213082  35.373  34.480   8.853
 5800POPC   C1A13083  35.363  34.533   8.553
 5800POPC   D2A13084  35.364  34.600   8.253
 5800POPC   C3A13085  35.336  34.596   7.953
 5800POPC   C4A13086  35.331  34.603   7.653
 5800POPC   C1B13087  35.502  34.341   8.553
 5800POPC   C2B13088  35.425  34.319   8.253
 5800POPC   C3B13089  35.440  34.370   7.953
 5800POPC   C4B13090  35.472  34.340   7.653
 5801POPC   NC313091  36.923  17.542   9.453
 5801POPC   PO413092  36.875  17.519   9.153
 5801POPC   GL113093  36.927  17.553   8.853
 5801POPC   GL213094  36.910  17.637   8.853
 5801POPC   C1A13095  36.868  17.482   8.553
 5801POPC   D2A13096  36.941  17.499   8.253
 5801POPC   C3A13097  36.902  17.517   7.953
 5801POPC   C4A13098  36.926  17.466   7.653
 5801POPC   C1B13099  36.914  17.749   8.553
 5801POPC   C2B13100  36.962  17.767   8.253
 5801POPC   C3B13101  36.966  17.742   7.953
 5801POPC   C4B13102  36.948  17.800   7.653
 5802POPC   NC313103  27.614  10.490   9.453
 5802POPC   PO413104  27.637  10.485   9.153
 5802POPC   GL113105  27.586  10.493   8.853
 5802POPC   GL213106  27.710  10.569   8.853
 5802POPC   C1A13107  27.590  10.490   8.553
 5802POPC   D2A13108  27.631  10.485   8.253
 5802POPC   C3A13109  27.636  10.511   7.953
 5802POPC   C4A13110  27.550  10.489   7.653
 5802POPC   C1B13111  27.827  10.580   8.553
 5802POPC   C2B13112  27.848  10.556   8.253
 5802POPC   C3B13113  27.812  10.487   7.953
 5802POPC   C4B13114  27.829  10.523   7.653
 5803POPC   NC313115   2.803  16.756   9.453
 5803POPC   PO413116   2.759  16.701   9.153
 5803POPC   GL113117   2.724  16.693   8.853
 5803POPC   GL213118   2.664  16.753   8.853
 5803POPC   C1A13119   2.777  16.780   8.553
 5803POPC   D2A13120   2.743  16.757   8.253
 5803POPC   C3A13121   2.781  16.775   7.953
 5803POPC   C4A13122   2.756  16.681   7.653
 5803POPC   C1B13123   2.517  16.821   8.553
 5803POPC   C2B13124   2.514  16.841   8.253
 5803POPC   C3B13125   2.501  16.847   7.953
 5803POPC   C4B13126   2.556  16.840   7.653
 5804POPC   NC313127  41.529  39.200   9.453
 5804POPC   PO413128  41.573  39.267   9.153
 5804POPC   GL113129  41.550  39.251   8.853
 5804POPC   GL213130  41.493  39.285   8.853
 5804POPC   C1A13131  41.540  39.214   8.553
 5804POPC   D2A13132  41.580  39.275   8.253
 5804POPC   C3A13133  41.542  39.193   7.953
 5804POPC   C4A13134  41.517  39.234   7.653
 5804POPC   C1B13135  41.366  39.448   8.553
 5804POPC   C2B13136  41.359  39.449   8.253
 5804POPC   C3B13137  41.406  39.431   7.953
 5804POPC   C4B13138  41.362  39.416   7.653
 5805POPC   NC313139  14.437  15.228   9.453
 5805POPC   PO413140  14.356  15.183   9.153
 5805POPC   GL113141  14.410  15.163   8.853
 5805POPC   GL213142  14.391  15.282   8.853
 5805POPC   C1A13143  14.409  15.134   8.553
 5805POPC   D2A13144  14.399  15.140   8.253
 5805POPC   C3A13145  14.363  15.202   7.953
 5805POPC   C4A13146  14.395  15.196   7.653
 5805POPC   C1B13147  14.396  15.429   8.553
 5805POPC   C2B13148  14.392  15.426   8.253
 5805POPC   C3B13149  14.349  15.443   7.953
 5805POPC   C4B13150  14.440  15.422   7.653
 5806POPC   NC313151  35.371  12.029   9.453
 5806POPC   PO413152  35.312  12.088   9.153
 5806POPC   GL113153  35.388  12.027   8.853
 5806POPC   GL213154  35.496  12.139   8.853
 5806POPC   C1A13155  35.343  12.077   8.553
 5806POPC   D2A13156  35.368  12.077   8.253
 5806POPC   C3A13157  35.318  12.095   7.953
 5806POPC   C4A13158  35.312  12.110   7.653
 5806POPC   C1B13159  35.568  12.228   8.553
 5806POPC   C2B13160  35.566  12.186   8.253
 5806POPC   C3B13161  35.535  12.173   7.953
 5806POPC   C4B13162  35.539  12.172   7.653
 5807POPC   NC313163  14.392  37.672   9.453
 5807POPC   PO413164  14.448  37.726   9.153
 5807POPC   GL113165  14.429  37.637   8.853
 5807POPC   GL213166  14.446  37.601   8.853
 5807POPC   C1A13167  14.412  37.644   8.553
 5807POPC   D2A13168  14.407  37.713   8.253
 5807POPC   C3A13169  14.355  37.680   7.953
 5807POPC   C4A13170  14.357  37.633   7.653
 5807POPC   C1B13171  14.458  37.438   8.553
 5807POPC   C2B13172  14.430  37.386   8.253
 5807POPC   C3B13173  14.483  37.458   7.953
 5807POPC   C4B13174  14.482  37.392   7.653
 5808POPC   NC313175   1.957  14.430   9.453
 5808POPC   PO413176   1.948  14.354   9.153
 5808POPC   GL113177   1.970  14.434   8.853
 5808POPC   GL213178   2.031  14.318   8.853
 5808POPC   C1A13179   2.022  14.402   8.553
 5808POPC   D2A13180   1.988  14.391   8.253
 5808POPC   C3A13181   1.942  14.396   7.953
 5808POPC   C4A13182   2.021  14.373   7.653
 5808POPC   C1B13183   2.139  14.174   8.553
 5808POPC   C2B13184   2.165  14.157   8.253
 5808POPC   C3B13185   2.155  14.220   7.953
 5808POPC   C4B13186   2.151  14.201   7.653
 5809POPC   NC313187  43.880  41.571   9.453
 5809POPC   PO413188  43.922  41.522   9.153
 5809POPC   GL113189  43.858  41.572   8.853
 5809POPC   GL213190  43.836  41.453   8.853
 5809POPC   C1A13191  43.873  41.585   8.553
 5809POPC   D2A13192  43.865  41.513   8.253
 5809POPC   C3A13193  43.921  41.606   7.953
 5809POPC   C4A13194  43.856  41.597   7.653
 5809POPC   C1B13195  43.814  41.289   8.553
 5809POPC   C2B13196  43.835  41.325   8.253
 5809POPC   C3B13197  43.766  41.366   7.953
 5809POPC   C4B13198  43.780  41.292   7.653
 5810POPC   NC313199   3.526  19.831   9.453
 5810POPC   PO413200   3.527  19.818   9.153
 5810POPC   GL113201   3.500  19.806   8.853
 5810POPC   GL213202   3.480  19.927   8.853
 5810POPC   C1A13203   3.565  19.848   8.553
 5810POPC   D2A13204   3.580  19.881   8.253
 5810POPC   C3A13205   3.560  19.865   7.953
 5810POPC   C4A13206   3.576  19.883   7.653
 5810POPC   C1B13207   3.274  19.937   8.553
 5810POPC   C2B13208   3.339  19.930   8.253
 5810POPC   C3B13209   3.276  19.966   7.953
 5810POPC   C4B13210   3.334  19.937   7.653
 5811POPC   NC313211   8.929  10.566   9.453
 5811POPC   PO413212   8.954  10.569   9.153
 5811POPC   GL113213   8.948  10.524   8.853
 5811POPC   GL213214   9.115  10.505   8.853
 5811POPC   C1A13215   9.002  10.497   8.553
 5811POPC   D2A13216   8.924  10.498   8.253
 5811POPC   C3A13217   9.001  10.508   7.953
 5811POPC   C4A13218   8.950  10.562   7.653
 5811POPC   C1B13219   9.214  10.457   8.553
 5811POPC   C2B13220   9.269  10.505   8.253
 5811POPC   C3B13221   9.241  10.452   7.953
 5811POPC   C4B13222   9.178  10.485   7.653
 5812POPC   NC313223  41.578  40.814   9.453
 5812POPC   PO413224  41.518  40.801   9.153
 5812POPC   GL113225  41.600  40.764   8.853
 5812POPC   GL213226  41.496  40.915   8.853
 5812POPC   C1A13227  41.528  40.785   8.553
 5812POPC   D2A13228  41.545  40.774   8.253
 5812POPC   C3A13229  41.549  40.826   7.953
 5812POPC   C4A13230  41.589  40.755   7.653
 5812POPC   C1B13231  41.398  41.000   8.553
 5812POPC   C2B13232  41.451  40.979   8.253
 5812POPC   C3B13233  41.439  41.040   7.953
 5812POPC   C4B13234  41.425  40.973   7.653
 5813POPC   NC313235  33.028  22.181   9.453
 5813POPC   PO413236  33.045  22.138   9.153
 5813POPC   GL113237  33.007  22.153   8.853
 5813POPC   GL213238  32.902  22.080   8.853
 5813POPC   C1A13239  32.995  22.116   8.553
 5813POPC   D2A13240  33.065  22.136   8.253
 5813POPC   C3A13241  33.038  22.113   7.953
 5813POPC   C4A13242  33.036  22.163   7.653
 5813POPC   C1B13243  32.816  22.042   8.553
 5813POPC   C2B13244  32.814  22.021   8.253
 5813POPC   C3B13245  32.863  22.013   7.953
 5813POPC   C4B13246  32.856  21.990   7.653
 5814POPC   NC313247  25.266  43.900   9.453
 5814POPC   PO413248  25.313  43.866   9.153
 5814POPC   GL113249  25.223  43.918   8.853
 5814POPC   GL213250  25.387  43.938   8.853
 5814POPC   C1A13251  25.295  43.895   8.553
 5814POPC   D2A13252  25.227  43.858   8.253
 5814POPC   C3A13253  25.289  43.869   7.953
 5814POPC   C4A13254  25.261  43.846   7.653
 5814POPC   C1B13255  25.450  44.030   8.553
 5814POPC   C2B13256  25.472  43.982   8.253
 5814POPC   C3B13257  25.506  43.983   7.953
 5814POPC   C4B13258  25.447  44.000   7.653
 5815POPC   NC313259  43.921  33.838   9.453
 5815POPC   PO413260  43.925  33.800   9.153
 5815POPC   GL113261  43.870  33.808   8.853
 5815POPC   GL213262  43.808  33.729   8.853
 5815POPC   C1A13263  43.837  33.772   8.553
 5815POPC   D2A13264  43.929  33.810   8.253
 5815POPC   C3A13265  43.905  33.841   7.953
 5815POPC   C4A13266  43.844  33.811   7.653
 5815POPC   C1B13267  43.740  33.592   8.553
 5815POPC   C2B13268  43.789  33.525   8.253
 5815POPC   C3B13269  43.797  33.601   7.953
 5815POPC   C4B13270  43.822  33.611   7.653
 5816POPC   NC313271  21.344  35.330   9.453
 5816POPC   PO413272  21.375  35.396   9.153
 5816POPC   GL113273  21.343  35.383   8.853
 5816POPC   GL213274  21.430  35.437   8.853
 5816POPC   C1A13275  21.359  35.310   8.553
 5816POPC   D2A13276  21.403  35.386   8.253
 5816POPC   C3A13277  21.384  35.363   7.953
 5816POPC   C4A13278  21.431  35.316   7.653
 5816POPC   C1B13279  21.421  35.610   8.553
 5816POPC   C2B13280  21.381  35.566   8.253
 5816POPC   C3B13281  21.407  35.633   7.953
 5816POPC   C4B13282  21.365  35.601   7.653
 5817POPC   NC313283   2.790  29.183   9.453
 5817POPC   PO413284   2.728  29.181   9.153
 5817POPC   GL113285   2.752  29.120   8.853
 5817POPC   GL213286   2.700  29.282   8.853
 5817POPC   C1A13287   2.758  29.171   8.553
 5817POPC   D2A13288   2.776  29.112   8.253
 5817POPC   C3A13289   2.716  29.177   7.953
 5817POPC   C4A13290   2.784  29.167   7.653
 5817POPC   C1B13291   2.667  29.344   8.553
 5817POPC   C2B13292   2.671  29.347   8.253
 5817POPC   C3B13293   2.700  29.433   7.953
 5817POPC   C4B13294   2.695  29.408   7.653
 5818POPC   NC313295  12.894  11.273   9.453
 5818POPC   PO413296  12.814  11.286   9.153
 5818POPC   GL113297  12.877  11.306   8.853
 5818POPC   GL213298  12.824  11.440   8.853
 5818POPC   C1A13299  12.876  11.333   8.553
 5818POPC   D2A13300  12.833  11.328   8.253
 5818POPC   C3A13301  12.842  11.315   7.953
 5818POPC   C4A13302  12.836  11.291   7.653
 5818POPC   C1B13303  12.686  11.531   8.553
 5818POPC   C2B13304  12.734  11.469   8.253
 5818POPC   C3B13305  12.761  11.535   7.953
 5818POPC   C4B13306  12.679  11.530   7.653
 5819POPC   NC313307  39.968  33.774   9.453
 5819POPC   PO413308  39.964  33.834   9.153
 5819POPC   GL113309  39.958  33.841   8.853
 5819POPC   GL213310  39.933  33.741   8.853
 5819POPC   C1A13311  40.055  33.774   8.553
 5819POPC   D2A13312  39.958  33.798   8.253
 5819POPC   C3A13313  40.054  33.751   7.953
 5819POPC   C4A13314  39.960  33.776   7.653
 5819POPC   C1B13315  39.726  33.744   8.553
 5819POPC   C2B13316  39.767  33.726   8.253
 5819POPC   C3B13317  39.781  33.789   7.953
 5819POPC   C4B13318  39.777  33.709   7.653
 5820POPC   NC313319   4.303   7.386   9.453
 5820POPC   PO413320   4.291   7.373   9.153
 5820POPC   GL113321   4.273   7.427   8.853
 5820POPC   GL213322   4.233   7.381   8.853
 5820POPC   C1A13323   4.332   7.453   8.553
 5820POPC   D2A13324   4.353   7.390   8.253
 5820POPC   C3A13325   4.353   7.400   7.953
 5820POPC   C4A13326   4.317   7.461   7.653
 5820POPC   C1B13327   4.064   7.447   8.553
 5820POPC   C2B13328   4.051   7.407   8.253
 5820POPC   C3B13329   4.071   7.442   7.953
 5820POPC   C4B13330   4.029   7.408   7.653
 5821POPC   NC313331  43.080   8.966   9.453
 5821POPC   PO413332  43.155   8.934   9.153
 5821POPC   GL113333  43.130   8.966   8.853
 5821POPC   GL213334  43.213   9.044   8.853
 5821POPC   C1A13335  43.124   8.982   8.553
 5821POPC   D2A13336  43.077   8.939   8.253
 5821POPC   C3A13337  43.091   8.997   7.953
 5821POPC   C4A13338  43.150   8.922   7.653
 5821POPC   C1B13339  43.392   9.016   8.553
 5821POPC   C2B13340  43.328   9.059   8.253
 5821POPC   C3B13341  43.322   9.095   7.953
 5821POPC   C4B13342  43.335   9.037   7.653
 5822POPC   NC313343   0.426  38.427   9.453
 5822POPC   PO413344   0.469  38.462   9.153
 5822POPC   GL113345   0.438  38.464   8.853
 5822POPC   GL213346   0.386  38.386   8.853
 5822POPC   C1A13347   0.392  38.421   8.553
 5822POPC   D2A13348   0.407  38.430   8.253
 5822POPC   C3A13349   0.468  38.435   7.953
 5822POPC   C4A13350   0.453  38.493   7.653
 5822POPC   C1B13351   0.291  38.325   8.553
 5822POPC   C2B13352   0.302  38.238   8.253
 5822POPC   C3B13353   0.289  38.286   7.953
 5822POPC   C4B13354   0.238  38.290   7.653
 5823POPC   NC313355  38.449  32.984   9.453
 5823POPC   PO413356  38.436  33.071   9.153
 5823POPC   GL113357  38.461  33.037   8.853
 5823POPC   GL213358  38.389  32.904   8.853
 5823POPC   C1A13359  38.463  33.069   8.553
 5823POPC   D2A13360  38.460  33.054   8.253
 5823POPC   C3A13361  38.492  33.009   7.953
 5823POPC   C4A13362  38.436  32.976   7.653
 5823POPC   C1B13363  38.264  32.907   8.553
 5823POPC   C2B13364  38.238  32.826   8.253
 5823POPC   C3B13365  38.281  32.825   7.953
 5823POPC   C4B13366  38.284  32.835   7.653
 5824POPC   NC313367  39.997  23.737   9.453
 5824POPC   PO413368  39.978  23.685   9.153
 5824POPC   GL113369  39.973  23.695   8.853
 5824POPC   GL213370  39.937  23.828   8.853
 5824POPC   C1A13371  39.965  23.724   8.553
 5824POPC   D2A13372  40.028  23.737   8.253
 5824POPC   C3A13373  40.012  23.736   7.953
 5824POPC   C4A13374  39.961  23.704   7.653
 5824POPC   C1B13375  39.887  23.899   8.553
 5824POPC   C2B13376  39.858  23.895   8.253
 5824POPC   C3B13377  39.862  23.954   7.953
 5824POPC   C4B13378  39.920  23.908   7.653
 5825POPC   NC313379  26.822  28.374   9.453
 5825POPC   PO413380  26.782  28.374   9.153
 5825POPC   GL113381  26.856  28.365   8.853
 5825POPC   GL213382  26.736  28.356   8.853
 5825POPC   C1A13383  26.844  28.372   8.553
 5825POPC   D2A13384  26.771  28.415   8.253
 5825POPC   C3A13385  26.854  28.333   7.953
 5825POPC   C4A13386  26.861  28.390   7.653
 5825POPC   C1B13387  26.562  28.272   8.553
 5825POPC   C2B13388  26.546  28.277   8.253
 5825POPC   C3B13389  26.625  28.277   7.953
 5825POPC   C4B13390  26.560  28.303   7.653
 5826POPC   NC313391  44.689  37.683   9.453
 5826POPC   PO413392  44.638  37.665   9.153
 5826POPC   GL113393  44.679  37.646   8.853
 5826POPC   GL213394  44.748  37.754   8.853
 5826POPC   C1A13395  44.645  37.678   8.553
 5826POPC   D2A13396  44.651  37.663   8.253
 5826POPC   C3A13397  44.626  37.685   7.953
 5826POPC   C4A13398  44.655  37.696   7.653
 5826POPC   C1B13399  44.906  37.846   8.553
 5826POPC   C2B13400  44.905  37.815   8.253
 5826POPC   C3B13401  44.921  37.762   7.953
 5826POPC   C4B13402  44.864  37.825   7.653
 5827POPC   NC313403  14.382  42.341   9.453
 5827POPC   PO413404  14.379  42.364   9.153
 5827POPC   GL113405  14.387  42.378   8.853
 5827POPC   GL213406  14.465  42.350   8.853
 5827POPC   C1A13407  14.377  42.310   8.553
 5827POPC   D2A13408  14.415  42.379   8.253
 5827POPC   C3A13409  14.448  42.325   7.953
 5827POPC   C4A13410  14.356  42.360   7.653
 5827POPC   C1B13411  14.577  42.435   8.553
 5827POPC   C2B13412  14.628  42.495   8.253
 5827POPC   C3B13413  14.665  42.443   7.953
 5827POPC   C4B13414  14.660  42.475   7.653
 5828POPC   NC313415  36.879  26.067   9.453
 5828POPC   PO413416  36.860  26.021   9.153
 5828POPC   GL113417  36.942  26.028   8.853
 5828POPC   GL213418  37.029  26.015   8.853
 5828POPC   C1A13419  36.940  26.016   8.553
 5828POPC   D2A13420  36.883  25.997   8.253
 5828POPC   C3A13421  36.953  26.085   7.953
 5828POPC   C4A13422  36.886  26.066   7.653
 5828POPC   C1B13423  37.134  25.998   8.553
 5828POPC   C2B13424  37.109  26.063   8.253
 5828POPC   C3B13425  37.187  26.061   7.953
 5828POPC   C4B13426  37.133  26.063   7.653
 5829POPC   NC313427  22.926  28.367   9.453
 5829POPC   PO413428  22.889  28.329   9.153
 5829POPC   GL113429  22.985  28.352   8.853
 5829POPC   GL213430  22.844  28.255   8.853
 5829POPC   C1A13431  22.973  28.328   8.553
 5829POPC   D2A13432  22.907  28.355   8.253
 5829POPC   C3A13433  22.939  28.386   7.953
 5829POPC   C4A13434  22.965  28.395   7.653
 5829POPC   C1B13435  22.725  28.226   8.553
 5829POPC   C2B13436  22.709  28.256   8.253
 5829POPC   C3B13437  22.736  28.222   7.953
 5829POPC   C4B13438  22.770  28.248   7.653
 5830POPC   NC313439  24.528  31.423   9.453
 5830POPC   PO413440  24.443  31.467   9.153
 5830POPC   GL113441  24.529  31.439   8.853
 5830POPC   GL213442  24.538  31.593   8.853
 5830POPC   C1A13443  24.508  31.494   8.553
 5830POPC   D2A13444  24.485  31.468   8.253
 5830POPC   C3A13445  24.472  31.467   7.953
 5830POPC   C4A13446  24.493  31.502   7.653
 5830POPC   C1B13447  24.648  31.635   8.553
 5830POPC   C2B13448  24.649  31.661   8.253
 5830POPC   C3B13449  24.593  31.720   7.953
 5830POPC   C4B13450  24.594  31.648   7.653
 5831POPC   NC313451  36.855  41.568   9.453
 5831POPC   PO413452  36.884  41.578   9.153
 5831POPC   GL113453  36.909  41.523   8.853
 5831POPC   GL213454  36.986  41.468   8.853
 5831POPC   C1A13455  36.936  41.553   8.553
 5831POPC   D2A13456  36.932  41.513   8.253
 5831POPC   C3A13457  36.854  41.573   7.953
 5831POPC   C4A13458  36.948  41.602   7.653
 5831POPC   C1B13459  37.050  41.370   8.553
 5831POPC   C2B13460  37.034  41.376   8.253
 5831POPC   C3B13461  36.970  41.381   7.953
 5831POPC   C4B13462  37.034  41.309   7.653
 5832POPC   NC313463  34.550   6.607   9.453
 5832POPC   PO413464  34.563   6.627   9.153
 5832POPC   GL113465  34.548   6.621   8.853
 5832POPC   GL213466  34.576   6.489   8.853
 5832POPC   C1A13467  34.544   6.643   8.553
 5832POPC   D2A13468  34.557   6.664   8.253
 5832POPC   C3A13469  34.578   6.689   7.953
 5832POPC   C4A13470  34.615   6.669   7.653
 5832POPC   C1B13471  34.467   6.428   8.553
 5832POPC   C2B13472  34.504   6.366   8.253
 5832POPC   C3B13473  34.537   6.384   7.953
 5832POPC   C4B13474  34.508   6.416   7.653
 5833POPC   NC313475  16.766  27.619   9.453
 5833POPC   PO413476  16.743  27.634   9.153
 5833POPC   GL113477  16.757  27.551   8.853
 5833POPC   GL213478  16.634  27.656   8.853
 5833POPC   C1A13479  16.755  27.630   8.553
 5833POPC   D2A13480  16.685  27.583   8.253
 5833POPC   C3A13481  16.709  27.638   7.953
 5833POPC   C4A13482  16.712  27.632   7.653
 5833POPC   C1B13483  16.465  27.709   8.553
 5833POPC   C2B13484  16.551  27.662   8.253
 5833POPC   C3B13485  16.474  27.678   7.953
 5833POPC   C4B13486  16.515  27.712   7.653
 5834POPC   NC313487  40.772   5.113   9.453
 5834POPC   PO413488  40.784   5.113   9.153
 5834POPC   GL113489  40.770   5.138   8.853
 5834POPC   GL213490  40.649   5.063   8.853
 5834POPC   C1A13491  40.781   5.131   8.553
 5834POPC   D2A13492  40.791   5.126   8.253
 5834POPC   C3A13493  40.808   5.124   7.953
 5834POPC   C4A13494  40.817   5.048   7.653
 5834POPC   C1B13495  40.557   5.173   8.553
 5834POPC   C2B13496  40.574   5.144   8.253
 5834POPC   C3B13497  40.529   5.166   7.953
 5834POPC   C4B13498  40.504   5.096   7.653
 5835POPC   NC313499  36.098  15.967   9.453
 5835POPC   PO413500  36.111  15.921   9.153
 5835POPC   GL113501  36.091  15.991   8.853
 5835POPC   GL213502  36.221  15.918   8.853
 5835POPC   C1A13503  36.154  16.005   8.553
 5835POPC   D2A13504  36.175  15.925   8.253
 5835POPC   C3A13505  36.117  15.999   7.953
 5835POPC   C4A13506  36.112  16.001   7.653
 5835POPC   C1B13507  36.324  15.874   8.553
 5835POPC   C2B13508  36.344  15.782   8.253
 5835POPC   C3B13509  36.368  15.809   7.953
 5835POPC   C4B13510  36.318  15.812   7.653
 5836POPC   NC313511  39.960   3.564   9.453
 5836POPC   PO413512  39.974   3.546   9.153
 5836POPC   GL113513  39.963   3.556   8.853
 5836POPC   GL213514  40.115   3.532   8.853
 5836POPC   C1A13515  39.999   3.499   8.553
 5836POPC   D2A13516  39.962   3.495   8.253
 5836POPC   C3A13517  40.003   3.550   7.953
 5836POPC   C4A13518  40.012   3.576   7.653
 5836POPC   C1B13519  40.201   3.479   8.553
 5836POPC   C2B13520  40.246   3.428   8.253
 5836POPC   C3B13521  40.237   3.441   7.953
 5836POPC   C4B13522  40.264   3.452   7.653
 5837POPC   NC313523   6.616  35.341   9.453
 5837POPC   PO413524   6.643  35.333   9.153
 5837POPC   GL113525   6.616  35.391   8.853
 5837POPC   GL213526   6.758  35.479   8.853
 5837POPC   C1A13527   6.695  35.397   8.553
 5837POPC   D2A13528   6.595  35.334   8.253
 5837POPC   C3A13529   6.610  35.365   7.953
 5837POPC   C4A13530   6.656  35.334   7.653
 5837POPC   C1B13531   6.829  35.526   8.553
 5837POPC   C2B13532   6.838  35.524   8.253
 5837POPC   C3B13533   6.870  35.529   7.953
 5837POPC   C4B13534   6.797  35.547   7.653
 5838POPC   NC313535  28.389   1.186   9.453
 5838POPC   PO413536  28.373   1.229   9.153
 5838POPC   GL113537  28.321   1.184   8.853
 5838POPC   GL213538  28.431   1.133   8.853
 5838POPC   C1A13539  28.327   1.186   8.553
 5838POPC   D2A13540  28.362   1.235   8.253
 5838POPC   C3A13541  28.387   1.211   7.953
 5838POPC   C4A13542  28.355   1.200   7.653
 5838POPC   C1B13543  28.551   1.054   8.553
 5838POPC   C2B13544  28.565   1.075   8.253
 5838POPC   C3B13545  28.535   1.056   7.953
 5838POPC   C4B13546  28.526   1.064   7.653
 5839POPC   NC313547   1.240  10.574   9.453
 5839POPC   PO413548   1.253  10.573   9.153
 5839POPC   GL113549   1.205  10.530   8.853
 5839POPC   GL213550   1.263  10.451   8.853
 5839POPC   C1A13551   1.216  10.566   8.553
 5839POPC   D2A13552   1.244  10.476   8.253
 5839POPC   C3A13553   1.227  10.487   7.953
 5839POPC   C4A13554   1.240  10.574   7.653
 5839POPC   C1B13555   1.387  10.349   8.553
 5839POPC   C2B13556   1.346  10.388   8.253
 5839POPC   C3B13557   1.360  10.345   7.953
 5839POPC   C4B13558   1.418  10.303   7.653
 5840POPC   NC313559  43.898  21.436   9.453
 5840POPC   PO413560  43.865  21.417   9.153
 5840POPC   GL113561  43.909  21.353   8.853
 5840POPC   GL213562  43.755  21.339   8.853
 5840POPC   C1A13563  43.859  21.348   8.553
 5840POPC   D2A13564  43.875  21.380   8.253
 5840POPC   C3A13565  43.855  21.361   7.953
 5840POPC   C4A13566  43.851  21.350   7.653
 5840POPC   C1B13567  43.664  21.250   8.553
 5840POPC   C2B13568  43.652  21.296   8.253
 5840POPC   C3B13569  43.641  21.214   7.953
 5840POPC   C4B13570  43.700  21.207   7.653
 5841POPC   NC313571   9.789  32.219   9.453
 5841POPC   PO413572   9.796  32.292   9.153
 5841POPC   GL113573   9.778  32.284   8.853
 5841POPC   GL213574   9.803  32.077   8.853
 5841POPC   C1A13575   9.767  32.262   8.553
 5841POPC   D2A13576   9.774  32.236   8.253
 5841POPC   C3A13577   9.797  32.290   7.953
 5841POPC   C4A13578   9.715  32.277   7.653
 5841POPC   C1B13579   9.833  31.972   8.553
 5841POPC   C2B13580   9.836  31.979   8.253
 5841POPC   C3B13581   9.789  31.974   7.953
 5841POPC   C4B13582   9.785  31.993   7.653
 5842POPC   NC313583  41.602  19.068   9.453
 5842POPC   PO413584  41.608  19.065   9.153
 5842POPC   GL113585  41.556  19.074   8.853
 5842POPC   GL213586  41.478  18.984   8.853
 5842POPC   C1A13587  41.598  19.104   8.553
 5842POPC   D2A13588  41.602  19.087   8.253
 5842POPC   C3A13589  41.606  19.046   7.953
 5842POPC   C4A13590  41.547  19.100   7.653
 5842POPC   C1B13591  41.309  18.970   8.553
 5842POPC   C2B13592  41.308  19.005   8.253
 5842POPC   C3B13593  41.277  19.034   7.953
 5842POPC   C4B13594  41.267  18.983   7.653
 5843POPC   NC313595   8.225  13.636   9.453
 5843POPC   PO413596   8.218  13.658   9.153
 5843POPC   GL113597   8.237  13.663   8.853
 5843POPC   GL213598   8.255  13.571   8.853
 5843POPC   C1A13599   8.220  13.661   8.553
 5843POPC   D2A13600   8.190  13.610   8.253
 5843POPC   C3A13601   8.216  13.603   7.953
 5843POPC   C4A13602   8.199  13.594   7.653
 5843POPC   C1B13603   8.391  13.437   8.553
 5843POPC   C2B13604   8.332  13.427   8.253
 5843POPC   C3B13605   8.339  13.480   7.953
 5843POPC   C4B13606   8.396  13.482   7.653
 5844POPC   NC313607  11.272  12.880   9.453
 5844POPC   PO413608  11.339  12.814   9.153
 5844POPC   GL113609  11.333  12.819   8.853
 5844POPC   GL213610  11.230  12.851   8.853
 5844POPC   C1A13611  11.257  12.895   8.553
 5844POPC   D2A13612  11.305  12.865   8.253
 5844POPC   C3A13613  11.259  12.852   7.953
 5844POPC   C4A13614  11.267  12.839   7.653
 5844POPC   C1B13615  11.019  12.773   8.553
 5844POPC   C2B13616  11.028  12.797   8.253
 5844POPC   C3B13617  11.055  12.740   7.953
 5844POPC   C4B13618  11.088  12.747   7.653
 5845POPC   NC313619  38.419   9.734   9.453
 5845POPC   PO413620  38.408   9.721   9.153
 5845POPC   GL113621  38.482   9.728   8.853
 5845POPC   GL213622  38.337   9.821   8.853
 5845POPC   C1A13623  38.459   9.706   8.553
 5845POPC   D2A13624  38.439   9.770   8.253
 5845POPC   C3A13625  38.437   9.752   7.953
 5845POPC   C4A13626  38.466   9.787   7.653
 5845POPC   C1B13627  38.275   9.848   8.553
 5845POPC   C2B13628  38.275   9.851   8.253
 5845POPC   C3B13629  38.211   9.893   7.953
 5845POPC   C4B13630  38.291   9.928   7.653
 5846POPC   NC313631  23.669  12.857   9.453
 5846POPC   PO413632  23.762  12.877   9.153
 5846POPC   GL113633  23.722  12.828   8.853
 5846POPC   GL213634  23.640  12.910   8.853
 5846POPC   C1A13635  23.731  12.901   8.553
 5846POPC   D2A13636  23.666  12.856   8.253
 5846POPC   C3A13637  23.719  12.811   7.953
 5846POPC   C4A13638  23.672  12.900   7.653
 5846POPC   C1B13639  23.443  12.952   8.553
 5846POPC   C2B13640  23.438  12.933   8.253
 5846POPC   C3B13641  23.507  12.902   7.953
 5846POPC   C4B13642  23.461  12.976   7.653
 5847POPC   NC313643  28.390  17.545   9.453
 5847POPC   PO413644  28.376  17.537   9.153
 5847POPC   GL113645  28.320  17.553   8.853
 5847POPC   GL213646  28.424  17.644   8.853
 5847POPC   C1A13647  28.381  17.466   8.553
 5847POPC   D2A13648  28.370  17.549   8.253
 5847POPC   C3A13649  28.351  17.496   7.953
 5847POPC   C4A13650  28.388  17.501   7.653
 5847POPC   C1B13651  28.434  17.697   8.553
 5847POPC   C2B13652  28.457  17.773   8.253
 5847POPC   C3B13653  28.488  17.750   7.953
 5847POPC   C4B13654  28.454  17.701   7.653
 5848POPC   NC313655   5.907   7.384   9.453
 5848POPC   PO413656   5.827   7.418   9.153
 5848POPC   GL113657   5.858   7.468   8.853
 5848POPC   GL213658   5.885   7.534   8.853
 5848POPC   C1A13659   5.822   7.395   8.553
 5848POPC   D2A13660   5.834   7.454   8.253
 5848POPC   C3A13661   5.856   7.400   7.953
 5848POPC   C4A13662   5.844   7.387   7.653
 5848POPC   C1B13663   5.846   7.715   8.553
 5848POPC   C2B13664   5.898   7.655   8.253
 5848POPC   C3B13665   5.873   7.708   7.953
 5848POPC   C4B13666   5.887   7.624   7.653
 5849POPC   NC313667   5.917  11.261   9.453
 5849POPC   PO413668   5.844  11.250   9.153
 5849POPC   GL113669   5.821  11.324   8.853
 5849POPC   GL213670   6.024  11.336   8.853
 5849POPC   C1A13671   5.883  11.301   8.553
 5849POPC   D2A13672   5.854  11.252   8.253
 5849POPC   C3A13673   5.835  11.334   7.953
 5849POPC   C4A13674   5.912  11.256   7.653
 5849POPC   C1B13675   6.110  11.426   8.553
 5849POPC   C2B13676   6.058  11.405   8.253
 5849POPC   C3B13677   6.119  11.441   7.953
 5849POPC   C4B13678   6.094  11.364   7.653
 5850POPC   NC313679  27.561  26.859   9.453
 5850POPC   PO413680  27.633  26.848   9.153
 5850POPC   GL113681  27.600  26.781   8.853
 5850POPC   GL213682  27.531  26.903   8.853
 5850POPC   C1A13683  27.550  26.850   8.553
 5850POPC   D2A13684  27.594  26.780   8.253
 5850POPC   C3A13685  27.576  26.839   7.953
 5850POPC   C4A13686  27.584  26.865   7.653
 5850POPC   C1B13687  27.393  26.904   8.553
 5850POPC   C2B13688  27.352  26.964   8.253
 5850POPC   C3B13689  27.323  26.926   7.953
 5850POPC   C4B13690  27.341  26.978   7.653
 5851POPC   NC313691  28.320  15.931   9.453
 5851POPC   PO413692  28.331  15.989   9.153
 5851POPC   GL113693  28.340  15.998   8.853
 5851POPC   GL213694  28.314  15.860   8.853
 5851POPC   C1A13695  28.412  15.925   8.553
 5851POPC   D2A13696  28.322  15.959   8.253
 5851POPC   C3A13697  28.332  15.939   7.953
 5851POPC   C4A13698  28.353  15.938   7.653
 5851POPC   C1B13699  28.274  15.683   8.553
 5851POPC   C2B13700  28.227  15.760   8.253
 5851POPC   C3B13701  28.237  15.726   7.953
 5851POPC   C4B13702  28.256  15.698   7.653
 5852POPC   NC313703  40.759  35.380   9.453
 5852POPC   PO413704  40.786  35.376   9.153
 5852POPC   GL113705  40.824  35.331   8.853
 5852POPC   GL213706  40.903  35.303   8.853
 5852POPC   C1A13707  40.737  35.400   8.553
 5852POPC   D2A13708  40.768  35.344   8.253
 5852POPC   C3A13709  40.783  35.318   7.953
 5852POPC   C4A13710  40.781  35.340   7.653
 5852POPC   C1B13711  40.964  35.124   8.553
 5852POPC   C2B13712  40.934  35.191   8.253
 5852POPC   C3B13713  40.998  35.193   7.953
 5852POPC   C4B13714  40.974  35.205   7.653
 5853POPC   NC313715   7.422  30.721   9.453
 5853POPC   PO413716   7.455  30.706   9.153
 5853POPC   GL113717   7.446  30.739   8.853
 5853POPC   GL213718   7.442  30.789   8.853
 5853POPC   C1A13719   7.457  30.697   8.553
 5853POPC   D2A13720   7.451  30.654   8.253
 5853POPC   C3A13721   7.424  30.673   7.953
 5853POPC   C4A13722   7.397  30.700   7.653
 5853POPC   C1B13723   7.505  30.930   8.553
 5853POPC   C2B13724   7.532  30.927   8.253
 5853POPC   C3B13725   7.482  30.887   7.953
 5853POPC   C4B13726   7.478  30.943   7.653
 5854POPC   NC313727  41.566   0.480   9.453
 5854POPC   PO413728  41.510   0.398   9.153
 5854POPC   GL113729  41.566   0.394   8.853
 5854POPC   GL213730  41.453   0.452   8.853
 5854POPC   C1A13731  41.575   0.415   8.553
 5854POPC   D2A13732  41.511   0.475   8.253
 5854POPC   C3A13733  41.573   0.474   7.953
 5854POPC   C4A13734  41.602   0.420   7.653
 5854POPC   C1B13735  41.297   0.574   8.553
 5854POPC   C2B13736  41.284   0.566   8.253
 5854POPC   C3B13737  41.286   0.508   7.953
 5854POPC   C4B13738  41.328   0.546   7.653
 5855POPC   NC313739  44.688  16.716   9.453
 5855POPC   PO413740  44.680  16.757   9.153
 5855POPC   GL113741  44.699  16.775   8.853
 5855POPC   GL213742  44.568  16.794   8.853
 5855POPC   C1A13743  44.621  16.708   8.553
 5855POPC   D2A13744  44.705  16.726   8.253
 5855POPC   C3A13745  44.615  16.778   7.953
 5855POPC   C4A13746  44.641  16.763   7.653
 5855POPC   C1B13747  44.553  16.980   8.553
 5855POPC   C2B13748  44.502  16.980   8.253
 5855POPC   C3B13749  44.572  16.903   7.953
 5855POPC   C4B13750  44.507  16.942   7.653
 5856POPC   NC313751  37.678   1.194   9.453
 5856POPC   PO413752  37.647   1.208   9.153
 5856POPC   GL113753  37.684   1.177   8.853
 5856POPC   GL213754  37.638   1.118   8.853
 5856POPC   C1A13755  37.725   1.250   8.553
 5856POPC   D2A13756  37.631   1.217   8.253
 5856POPC   C3A13757  37.669   1.181   7.953
 5856POPC   C4A13758  37.647   1.259   7.653
 5856POPC   C1B13759  37.533   1.035   8.553
 5856POPC   C2B13760  37.602   1.037   8.253
 5856POPC   C3B13761  37.568   1.043   7.953
 5856POPC   C4B13762  37.563   0.983   7.653
 5857POPC   NC313763  22.915   0.395   9.453
 5857POPC   PO413764  22.930   0.437   9.153
 5857POPC   GL113765  22.917   0.473   8.853
 5857POPC   GL213766  23.008   0.474   8.853
 5857POPC   C1A13767  22.947   0.398   8.553
 5857POPC   D2A13768  22.902   0.443   8.253
 5857POPC   C3A13769  22.902   0.483   7.953
 5857POPC   C4A13770  22.898   0.414   7.653
 5857POPC   C1B13771  23.179   0.555   8.553
 5857POPC   C2B13772  23.175   0.529   8.253
 5857POPC   C3B13773  23.188   0.497   7.953
 5857POPC   C4B13774  23.128   0.566   7.653
 5858POPC   NC313775  38.495  33.779   9.453
 5858POPC   PO413776  38.428  33.822   9.153
 5858POPC   GL113777  38.493  33.801   8.853
 5858POPC   GL213778  38.372  33.953   8.853
 5858POPC   C1A13779  38.460  33.790   8.553
 5858POPC   D2A13780  38.459  33.846   8.253
 5858POPC   C3A13781  38.411  33.826   7.953
 5858POPC   C4A13782  38.452  33.815   7.653
 5858POPC   C1B13783  38.389  34.066   8.553
 5858POPC   C2B13784  38.359  33.994   8.253
 5858POPC   C3B13785  38.364  33.987   7.953
 5858POPC   C4B13786  38.340  34.014   7.653
 5859POPC   NC313787  21.387  24.452   9.453
 5859POPC   PO413788  21.389  24.511   9.153
 5859POPC   GL113789  21.419  24.516   8.853
 5859POPC   GL213790  21.535  24.532   8.853
 5859POPC   C1A13791  21.383  24.530   8.553
 5859POPC   D2A13792  21.359  24.483   8.253
 5859POPC   C3A13793  21.361  24.506   7.953
 5859POPC   C4A13794  21.341  24.495   7.653
 5859POPC   C1B13795  21.632  24.606   8.553
 5859POPC   C2B13796  21.612  24.595   8.253
 5859POPC   C3B13797  21.627  24.628   7.953
 5859POPC   C4B13798  21.610  24.649   7.653
 5860POPC   NC313799   4.315  29.192   9.453
 5860POPC   PO413800   4.342  29.161   9.153
 5860POPC   GL113801   4.338  29.155   8.853
 5860POPC   GL213802   4.202  29.141   8.853
 5860POPC   C1A13803   4.310  29.115   8.553
 5860POPC   D2A13804   4.342  29.100   8.253
 5860POPC   C3A13805   4.343  29.142   7.953
 5860POPC   C4A13806   4.336  29.142   7.653
 5860POPC   C1B13807   4.073  29.258   8.553
 5860POPC   C2B13808   4.072  29.223   8.253
 5860POPC   C3B13809   4.049  29.193   7.953
 5860POPC   C4B13810   4.093  29.188   7.653
 5861POPC   NC313811  26.060  15.990   9.453
 5861POPC   PO413812  26.046  15.947   9.153
 5861POPC   GL113813  25.995  15.983   8.853
 5861POPC   GL213814  26.010  15.819   8.853
 5861POPC   C1A13815  26.032  16.004   8.553
 5861POPC   D2A13816  26.078  15.977   8.253
 5861POPC   C3A13817  26.060  15.948   7.953
 5861POPC   C4A13818  26.010  15.971   7.653
 5861POPC   C1B13819  25.953  15.712   8.553
 5861POPC   C2B13820  26.009  15.767   8.253
 5861POPC   C3B13821  25.972  15.749   7.953
 5861POPC   C4B13822  25.995  15.682   7.653
 5862POPC   NC313823  29.896  37.634   9.453
 5862POPC   PO413824  29.961  37.660   9.153
 5862POPC   GL113825  29.940  37.658   8.853
 5862POPC   GL213826  30.027  37.619   8.853
 5862POPC   C1A13827  29.903  37.638   8.553
 5862POPC   D2A13828  29.937  37.688   8.253
 5862POPC   C3A13829  29.935  37.727   7.953
 5862POPC   C4A13830  29.877  37.679   7.653
 5862POPC   C1B13831  30.178  37.608   8.553
 5862POPC   C2B13832  30.183  37.603   8.253
 5862POPC   C3B13833  30.214  37.602   7.953
 5862POPC   C4B13834  30.186  37.656   7.653
 5863POPC   NC313835   2.813   8.925   9.453
 5863POPC   PO413836   2.791   8.999   9.153
 5863POPC   GL113837   2.765   8.975   8.853
 5863POPC   GL213838   2.674   8.991   8.853
 5863POPC   C1A13839   2.728   8.982   8.553
 5863POPC   D2A13840   2.803   9.002   8.253
 5863POPC   C3A13841   2.777   8.938   7.953
 5863POPC   C4A13842   2.793   8.926   7.653
 5863POPC   C1B13843   2.585   9.052   8.553
 5863POPC   C2B13844   2.532   9.116   8.253
 5863POPC   C3B13845   2.546   9.045   7.953
 5863POPC   C4B13846   2.566   9.099   7.653
 5864POPC   NC313847  11.273  34.582   9.453
 5864POPC   PO413848  11.321  34.585   9.153
 5864POPC   GL113849  11.285  34.578   8.853
 5864POPC   GL213850  11.201  34.605   8.853
 5864POPC   C1A13851  11.319  34.622   8.553
 5864POPC   D2A13852  11.344  34.527   8.253
 5864POPC   C3A13853  11.320  34.571   7.953
 5864POPC   C4A13854  11.265  34.574   7.653
 5864POPC   C1B13855  11.106  34.604   8.553
 5864POPC   C2B13856  11.098  34.678   8.253
 5864POPC   C3B13857  11.046  34.680   7.953
 5864POPC   C4B13858  11.091  34.637   7.653
 5865POPC   NC313859   1.218  43.066   9.453
 5865POPC   PO413860   1.230  43.143   9.153
 5865POPC   GL113861   1.195  43.091   8.853
 5865POPC   GL213862   1.158  42.971   8.853
 5865POPC   C1A13863   1.176  43.120   8.553
 5865POPC   D2A13864   1.190  43.128   8.253
 5865POPC   C3A13865   1.169  43.084   7.953
 5865POPC   C4A13866   1.189  43.127   7.653
 5865POPC   C1B13867   1.074  42.840   8.553
 5865POPC   C2B13868   1.130  42.910   8.253
 5865POPC   C3B13869   1.116  42.931   7.953
 5865POPC   C4B13870   1.157  42.914   7.653
 5866POPC   NC313871  41.538   7.417   9.453
 5866POPC   PO413872  41.598   7.412   9.153
 5866POPC   GL113873  41.604   7.386   8.853
 5866POPC   GL213874  41.429   7.467   8.853
 5866POPC   C1A13875  41.601   7.402   8.553
 5866POPC   D2A13876  41.516   7.449   8.253
 5866POPC   C3A13877  41.593   7.395   7.953
 5866POPC   C4A13878  41.599   7.439   7.653
 5866POPC   C1B13879  41.306   7.502   8.553
 5866POPC   C2B13880  41.311   7.513   8.253
 5866POPC   C3B13881  41.312   7.498   7.953
 5866POPC   C4B13882  41.352   7.429   7.653
 5867POPC   NC313883  26.001  19.835   9.453
 5867POPC   PO413884  26.053  19.860   9.153
 5867POPC   GL113885  26.018  19.822   8.853
 5867POPC   GL213886  25.918  19.922   8.853
 5867POPC   C1A13887  26.023  19.821   8.553
 5867POPC   D2A13888  26.085  19.838   8.253
 5867POPC   C3A13889  26.064  19.843   7.953
 5867POPC   C4A13890  26.089  19.875   7.653
 5867POPC   C1B13891  25.825  19.951   8.553
 5867POPC   C2B13892  25.833  19.900   8.253
 5867POPC   C3B13893  25.862  19.953   7.953
 5867POPC   C4B13894  25.768  19.940   7.653
 5868POPC   NC313895  34.613  23.763   9.453
 5868POPC   PO413896  34.585  23.713   9.153
 5868POPC   GL113897  34.534  23.700   8.853
 5868POPC   GL213898  34.683  23.835   8.853
 5868POPC   C1A13899  34.558  23.679   8.553
 5868POPC   D2A13900  34.606  23.710   8.253
 5868POPC   C3A13901  34.559  23.711   7.953
 5868POPC   C4A13902  34.563  23.677   7.653
 5868POPC   C1B13903  34.670  23.936   8.553
 5868POPC   C2B13904  34.684  23.955   8.253
 5868POPC   C3B13905  34.666  23.976   7.953
 5868POPC   C4B13906  34.668  23.943   7.653
 5869POPC   NC313907  28.387  29.185   9.453
 5869POPC   PO413908  28.354  29.153   9.153
 5869POPC   GL113909  28.397  29.114   8.853
 5869POPC   GL213910  28.392  28.981   8.853
 5869POPC   C1A13911  28.395  29.180   8.553
 5869POPC   D2A13912  28.410  29.190   8.253
 5869POPC   C3A13913  28.407  29.098   7.953
 5869POPC   C4A13914  28.333  29.153   7.653
 5869POPC   C1B13915  28.386  28.862   8.553
 5869POPC   C2B13916  28.407  28.915   8.253
 5869POPC   C3B13917  28.425  28.940   7.953
 5869POPC   C4B13918  28.377  28.896   7.653
 5870POPC   NC313919  16.705  22.206   9.453
 5870POPC   PO413920  16.751  22.166   9.153
 5870POPC   GL113921  16.691  22.135   8.853
 5870POPC   GL213922  16.829  22.051   8.853
 5870POPC   C1A13923  16.760  22.131   8.553
 5870POPC   D2A13924  16.706  22.159   8.253
 5870POPC   C3A13925  16.737  22.120   7.953
 5870POPC   C4A13926  16.684  22.137   7.653
 5870POPC   C1B13927  16.823  21.897   8.553
 5870POPC   C2B13928  16.828  21.940   8.253
 5870POPC   C3B13929  16.814  21.939   7.953
 5870POPC   C4B13930  16.875  21.988   7.653
 5871POPC   NC313931  32.998   7.380   9.453
 5871POPC   PO413932  33.040   7.421   9.153
 5871POPC   GL113933  33.014   7.458   8.853
 5871POPC   GL213934  33.053   7.534   8.853
 5871POPC   C1A13935  33.069   7.405   8.553
 5871POPC   D2A13936  33.032   7.394   8.253
 5871POPC   C3A13937  33.036   7.374   7.953
 5871POPC   C4A13938  33.002   7.413   7.653
 5871POPC   C1B13939  33.083   7.645   8.553
 5871POPC   C2B13940  33.110   7.679   8.253
 5871POPC   C3B13941  33.101   7.679   7.953
 5871POPC   C4B13942  33.083   7.700   7.653
 5872POPC   NC313943  29.134  29.139   9.453
 5872POPC   PO413944  29.158  29.183   9.153
 5872POPC   GL113945  29.185  29.191   8.853
 5872POPC   GL213946  29.080  29.242   8.853
 5872POPC   C1A13947  29.129  29.125   8.553
 5872POPC   D2A13948  29.096  29.167   8.253
 5872POPC   C3A13949  29.146  29.181   7.953
 5872POPC   C4A13950  29.184  29.169   7.653
 5872POPC   C1B13951  28.941  29.354   8.553
 5872POPC   C2B13952  28.946  29.319   8.253
 5872POPC   C3B13953  28.962  29.336   7.953
 5872POPC   C4B13954  28.915  29.299   7.653
 5873POPC   NC313955  15.927  36.939   9.453
 5873POPC   PO413956  15.932  36.903   9.153
 5873POPC   GL113957  15.977  36.875   8.853
 5873POPC   GL213958  16.061  36.802   8.853
 5873POPC   C1A13959  15.917  36.889   8.553
 5873POPC   D2A13960  15.971  36.876   8.253
 5873POPC   C3A13961  15.975  36.918   7.953
 5873POPC   C4A13962  15.962  36.880   7.653
 5873POPC   C1B13963  16.076  36.740   8.553
 5873POPC   C2B13964  16.081  36.711   8.253
 5873POPC   C3B13965  16.107  36.692   7.953
 5873POPC   C4B13966  16.142  36.689   7.653
 5874POPC   NC313967   2.727  21.357   9.453
 5874POPC   PO413968   2.768  21.431   9.153
 5874POPC   GL113969   2.726  21.338   8.853
 5874POPC   GL213970   2.794  21.220   8.853
 5874POPC   C1A13971   2.755  21.341   8.553
 5874POPC   D2A13972   2.801  21.374   8.253
 5874POPC   C3A13973   2.754  21.436   7.953
 5874POPC   C4A13974   2.742  21.353   7.653
 5874POPC   C1B13975   2.761  21.127   8.553
 5874POPC   C2B13976   2.804  21.107   8.253
 5874POPC   C3B13977   2.837  21.157   7.953
 5874POPC   C4B13978   2.831  21.172   7.653
 5875POPC   NC313979  10.524  13.589   9.453
 5875POPC   PO413980  10.572  13.664   9.153
 5875POPC   GL113981  10.547  13.589   8.853
 5875POPC   GL213982  10.632  13.723   8.853
 5875POPC   C1A13983  10.524  13.582   8.553
 5875POPC   D2A13984  10.534  13.611   8.253
 5875POPC   C3A13985  10.510  13.637   7.953
 5875POPC   C4A13986  10.509  13.665   7.653
 5875POPC   C1B13987  10.736  13.784   8.553
 5875POPC   C2B13988  10.728  13.785   8.253
 5875POPC   C3B13989  10.722  13.804   7.953
 5875POPC   C4B13990  10.730  13.763   7.653
 5876POPC   NC313991  25.994   0.486   9.453
 5876POPC   PO413992  26.054   0.445   9.153
 5876POPC   GL113993  26.020   0.391   8.853
 5876POPC   GL213994  26.187   0.462   8.853
 5876POPC   C1A13995  26.091   0.398   8.553
 5876POPC   D2A13996  26.081   0.461   8.253
 5876POPC   C3A13997  26.058   0.433   7.953
 5876POPC   C4A13998  26.048   0.396   7.653
 5876POPC   C1B13999  26.324   0.495   8.553
 5876POPC   C2B14000  26.283   0.472   8.253
 5876POPC   C3B14001  26.269   0.469   7.953
 5876POPC   C4B14002  26.305   0.507   7.653
 5877POPC   NC314003  10.513  26.085   9.453
 5877POPC   PO414004  10.519  26.056   9.153
 5877POPC   GL114005  10.565  26.043   8.853
 5877POPC   GL214006  10.441  25.924   8.853
 5877POPC   C1A14007  10.570  26.065   8.553
 5877POPC   D2A14008  10.561  26.026   8.253
 5877POPC   C3A14009  10.567  26.052   7.953
 5877POPC   C4A14010  10.539  26.025   7.653
 5877POPC   C1B14011  10.417  25.873   8.553
 5877POPC   C2B14012  10.419  25.843   8.253
 5877POPC   C3B14013  10.366  25.845   7.953
 5877POPC   C4B14014  10.397  25.829   7.653
 5878POPC   NC314015  30.685  25.282   9.453
 5878POPC   PO414016  30.678  25.294   9.153
 5878POPC   GL114017  30.746  25.300   8.853
 5878POPC   GL214018  30.753  25.365   8.853
 5878POPC   C1A14019  30.719  25.284   8.553
 5878POPC   D2A14020  30.716  25.219   8.253
 5878POPC   C3A14021  30.681  25.302   7.953
 5878POPC   C4A14022  30.659  25.275   7.653
 5878POPC   C1B14023  30.802  25.470   8.553
 5878POPC   C2B14024  30.810  25.429   8.253
 5878POPC   C3B14025  30.845  25.443   7.953
 5878POPC   C4B14026  30.873  25.417   7.653
 5879POPC   NC314027   8.173  12.861   9.453
 5879POPC   PO414028   8.177  12.837   9.153
 5879POPC   GL114029   8.176  12.861   8.853
 5879POPC   GL214030   8.095  12.943   8.853
 5879POPC   C1A14031   8.238  12.864   8.553
 5879POPC   D2A14032   8.177  12.867   8.253
 5879POPC   C3A14033   8.188  12.891   7.953
 5879POPC   C4A14034   8.247  12.862   7.653
 5879POPC   C1B14035   7.978  12.926   8.553
 5879POPC   C2B14036   7.921  12.987   8.253
 5879POPC   C3B14037   7.977  12.963   7.953
 5879POPC   C4B14038   7.925  12.904   7.653
 5880POPC   NC314039  25.246  42.337   9.453
 5880POPC   PO414040  25.248  42.348   9.153
 5880POPC   GL114041  25.237  42.296   8.853
 5880POPC   GL214042  25.399  42.313   8.853
 5880POPC   C1A14043  25.223  42.340   8.553
 5880POPC   D2A14044  25.263  42.319   8.253
 5880POPC   C3A14045  25.231  42.320   7.953
 5880POPC   C4A14046  25.281  42.333   7.653
 5880POPC   C1B14047  25.468  42.244   8.553
 5880POPC   C2B14048  25.468  42.177   8.253
 5880POPC   C3B14049  25.449  42.189   7.953
 5880POPC   C4B14050  25.511  42.244   7.653
 5881POPC   NC314051   8.168   2.774   9.453
 5881POPC   PO414052   8.224   2.734   9.153
 5881POPC   GL114053   8.171   2.795   8.853
 5881POPC   GL214054   8.075   2.784   8.853
 5881POPC   C1A14055   8.180   2.800   8.553
 5881POPC   D2A14056   8.148   2.802   8.253
 5881POPC   C3A14057   8.197   2.780   7.953
 5881POPC   C4A14058   8.223   2.716   7.653
 5881POPC   C1B14059   7.907   2.657   8.553
 5881POPC   C2B14060   7.982   2.680   8.253
 5881POPC   C3B14061   7.993   2.734   7.953
 5881POPC   C4B14062   7.990   2.704   7.653
 5882POPC   NC314063  33.788  17.468   9.453
 5882POPC   PO414064  33.816  17.475   9.153
 5882POPC   GL114065  33.789  17.550   8.853
 5882POPC   GL214066  33.737  17.609   8.853
 5882POPC   C1A14067  33.753  17.462   8.553
 5882POPC   D2A14068  33.800  17.501   8.253
 5882POPC   C3A14069  33.785  17.536   7.953
 5882POPC   C4A14070  33.824  17.511   7.653
 5882POPC   C1B14071  33.682  17.729   8.553
 5882POPC   C2B14072  33.696  17.736   8.253
 5882POPC   C3B14073  33.621  17.694   7.953
 5882POPC   C4B14074  33.628  17.751   7.653
 5883POPC   NC314075  29.885   1.987   9.453
 5883POPC   PO414076  29.950   1.944   9.153
 5883POPC   GL114077  29.929   1.997   8.853
 5883POPC   GL214078  29.986   1.890   8.853
 5883POPC   C1A14079  29.915   2.020   8.553
 5883POPC   D2A14080  29.889   1.945   8.253
 5883POPC   C3A14081  29.922   1.966   7.953
 5883POPC   C4A14082  29.907   2.004   7.653
 5883POPC   C1B14083  30.084   1.807   8.553
 5883POPC   C2B14084  30.044   1.764   8.253
 5883POPC   C3B14085  30.094   1.792   7.953
 5883POPC   C4B14086  30.085   1.854   7.653
 5884POPC   NC314087  19.069  22.159   9.453
 5884POPC   PO414088  19.022  22.198   9.153
 5884POPC   GL114089  19.062  22.165   8.853
 5884POPC   GL214090  18.951  22.255   8.853
 5884POPC   C1A14091  19.012  22.147   8.553
 5884POPC   D2A14092  19.015  22.161   8.253
 5884POPC   C3A14093  19.068  22.156   7.953
 5884POPC   C4A14094  19.053  22.169   7.653
 5884POPC   C1B14095  18.856  22.371   8.553
 5884POPC   C2B14096  18.845  22.381   8.253
 5884POPC   C3B14097  18.870  22.379   7.953
 5884POPC   C4B14098  18.913  22.354   7.653
 5885POPC   NC314099   8.990  43.107   9.453
 5885POPC   PO414100   8.996  43.154   9.153
 5885POPC   GL114101   8.940  43.138   8.853
 5885POPC   GL214102   9.116  43.075   8.853
 5885POPC   C1A14103   8.929  43.069   8.553
 5885POPC   D2A14104   8.943  43.119   8.253
 5885POPC   C3A14105   8.983  43.141   7.953
 5885POPC   C4A14106   8.996  43.079   7.653
 5885POPC   C1B14107   9.213  43.119   8.553
 5885POPC   C2B14108   9.192  43.078   8.253
 5885POPC   C3B14109   9.173  43.060   7.953
 5885POPC   C4B14110   9.190  43.104   7.653
 5886POPC   NC314111  32.251   8.156   9.453
 5886POPC   PO414112  32.283   8.221   9.153
 5886POPC   GL114113  32.246   8.244   8.853
 5886POPC   GL214114  32.266   8.294   8.853
 5886POPC   C1A14115  32.265   8.227   8.553
 5886POPC   D2A14116  32.221   8.165   8.253
 5886POPC   C3A14117  32.283   8.219   7.953
 5886POPC   C4A14118  32.243   8.223   7.653
 5886POPC   C1B14119  32.234   8.479   8.553
 5886POPC   C2B14120  32.212   8.404   8.253
 5886POPC   C3B14121  32.210   8.495   7.953
 5886POPC   C4B14122  32.221   8.410   7.653
 5887POPC   NC314123  25.222  25.225   9.453
 5887POPC   PO414124  25.216  25.308   9.153
 5887POPC   GL114125  25.271  25.256   8.853
 5887POPC   GL214126  25.214  25.346   8.853
 5887POPC   C1A14127  25.296  25.216   8.553
 5887POPC   D2A14128  25.248  25.295   8.253
 5887POPC   C3A14129  25.285  25.256   7.953
 5887POPC   C4A14130  25.301  25.308   7.653
 5887POPC   C1B14131  25.114  25.526   8.553
 5887POPC   C2B14132  25.121  25.521   8.253
 5887POPC   C3B14133  25.150  25.455   7.953
 5887POPC   C4B14134  25.109  25.506   7.653
 5888POPC   NC314135   4.269  40.805   9.453
 5888POPC   PO414136   4.291  40.757   9.153
 5888POPC   GL114137   4.367  40.734   8.853
 5888POPC   GL214138   4.428  40.797   8.853
 5888POPC   C1A14139   4.303  40.774   8.553
 5888POPC   D2A14140   4.272  40.752   8.253
 5888POPC   C3A14141   4.365  40.763   7.953
 5888POPC   C4A14142   4.335  40.823   7.653
 5888POPC   C1B14143   4.579  40.757   8.553
 5888POPC   C2B14144   4.591  40.758   8.253
 5888POPC   C3B14145   4.553  40.725   7.953
 5888POPC   C4B14146   4.579  40.788   7.653
 5889POPC   NC314147  28.333  35.312   9.453
 5889POPC   PO414148  28.413  35.303   9.153
 5889POPC   GL114149  28.379  35.367   8.853
 5889POPC   GL214150  28.479  35.358   8.853
 5889POPC   C1A14151  28.342  35.338   8.553
 5889POPC   D2A14152  28.399  35.389   8.253
 5889POPC   C3A14153  28.363  35.306   7.953
 5889POPC   C4A14154  28.367  35.355   7.653
 5889POPC   C1B14155  28.603  35.301   8.553
 5889POPC   C2B14156  28.654  35.248   8.253
 5889POPC   C3B14157  28.558  35.310   7.953
 5889POPC   C4B14158  28.652  35.285   7.653
 5890POPC   NC314159  16.682  18.244   9.453
 5890POPC   PO414160  16.755  18.270   9.153
 5890POPC   GL114161  16.694  18.273   8.853
 5890POPC   GL214162  16.895  18.334   8.853
 5890POPC   C1A14163  16.753  18.266   8.553
 5890POPC   D2A14164  16.684  18.316   8.253
 5890POPC   C3A14165  16.711  18.272   7.953
 5890POPC   C4A14166  16.775  18.247   7.653
 5890POPC   C1B14167  16.977  18.294   8.553
 5890POPC   C2B14168  16.945  18.325   8.253
 5890POPC   C3B14169  17.005  18.326   7.953
 5890POPC   C4B14170  16.973  18.339   7.653
 5891POPC   NC314171  11.317  36.889   9.453
 5891POPC   PO414172  11.259  36.941   9.153
 5891POPC   GL114173  11.328  36.914   8.853
 5891POPC   GL214174  11.270  36.786   8.853
 5891POPC   C1A14175  11.253  36.875   8.553
 5891POPC   D2A14176  11.323  36.920   8.253
 5891POPC   C3A14177  11.332  36.884   7.953
 5891POPC   C4A14178  11.271  36.914   7.653
 5891POPC   C1B14179  11.305  36.620   8.553
 5891POPC   C2B14180  11.318  36.613   8.253
 5891POPC   C3B14181  11.344  36.656   7.953
 5891POPC   C4B14182  11.290  36.649   7.653
 5892POPC   NC314183   8.154  25.221   9.453
 5892POPC   PO414184   8.234  25.290   9.153
 5892POPC   GL114185   8.245  25.262   8.853
 5892POPC   GL214186   8.092  25.247   8.853
 5892POPC   C1A14187   8.237  25.239   8.553
 5892POPC   D2A14188   8.184  25.222   8.253
 5892POPC   C3A14189   8.210  25.268   7.953
 5892POPC   C4A14190   8.195  25.276   7.653
 5892POPC   C1B14191   7.950  25.348   8.553
 5892POPC   C2B14192   7.943  25.350   8.253
 5892POPC   C3B14193   7.969  25.285   7.953
 5892POPC   C4B14194   7.974  25.334   7.653
 5893POPC   NC314195  29.140  25.222   9.453
 5893POPC   PO414196  29.141  25.245   9.153
 5893POPC   GL114197  29.156  25.298   8.853
 5893POPC   GL214198  28.992  25.322   8.853
 5893POPC   C1A14199  29.188  25.253   8.553
 5893POPC   D2A14200  29.176  25.290   8.253
 5893POPC   C3A14201  29.189  25.216   7.953
 5893POPC   C4A14202  29.195  25.237   7.653
 5893POPC   C1B14203  28.890  25.314   8.553
 5893POPC   C2B14204  28.875  25.276   8.253
 5893POPC   C3B14205  28.935  25.337   7.953
 5893POPC   C4B14206  28.870  25.249   7.653
 5894POPC   NC314207   0.460  24.511   9.453
 5894POPC   PO414208   0.474  24.461   9.153
 5894POPC   GL114209   0.440  24.533   8.853
 5894POPC   GL214210   0.518  24.602   8.853
 5894POPC   C1A14211   0.480  24.454   8.553
 5894POPC   D2A14212   0.454  24.506   8.253
 5894POPC   C3A14213   0.471  24.485   7.953
 5894POPC   C4A14214   0.448  24.538   7.653
 5894POPC   C1B14215   0.646  24.625   8.553
 5894POPC   C2B14216   0.649  24.697   8.253
 5894POPC   C3B14217   0.616  24.629   7.953
 5894POPC   C4B14218   0.605  24.601   7.653
 5895POPC   NC314219  32.295  29.880   9.453
 5895POPC   PO414220  32.279  29.914   9.153
 5895POPC   GL114221  32.205  29.941   8.853
 5895POPC   GL214222  32.176  29.818   8.853
 5895POPC   C1A14223  32.255  29.918   8.553
 5895POPC   D2A14224  32.279  29.877   8.253
 5895POPC   C3A14225  32.289  29.882   7.953
 5895POPC   C4A14226  32.224  29.969   7.653
 5895POPC   C1B14227  32.064  29.804   8.553
 5895POPC   C2B14228  32.019  29.766   8.253
 5895POPC   C3B14229  32.016  29.805   7.953
 5895POPC   C4B14230  32.066  29.793   7.653
 5896POPC   NC314231   8.197  26.785   9.453
 5896POPC   PO414232   8.157  26.813   9.153
 5896POPC   GL114233   8.235  26.863   8.853
 5896POPC   GL214234   8.053  26.810   8.853
 5896POPC   C1A14235   8.204  26.810   8.553
 5896POPC   D2A14236   8.194  26.781   8.253
 5896POPC   C3A14237   8.179  26.777   7.953
 5896POPC   C4A14238   8.189  26.780   7.653
 5896POPC   C1B14239   7.916  26.809   8.553
 5896POPC   C2B14240   7.902  26.744   8.253
 5896POPC   C3B14241   7.963  26.769   7.953
 5896POPC   C4B14242   7.923  26.763   7.653
 5897POPC   NC314243  43.905  15.999   9.453
 5897POPC   PO414244  43.909  15.988   9.153
 5897POPC   GL114245  43.870  15.907   8.853
 5897POPC   GL214246  43.798  15.959   8.853
 5897POPC   C1A14247  43.838  15.925   8.553
 5897POPC   D2A14248  43.878  15.962   8.253
 5897POPC   C3A14249  43.837  15.974   7.953
 5897POPC   C4A14250  43.845  15.987   7.653
 5897POPC   C1B14251  43.671  16.022   8.553
 5897POPC   C2B14252  43.649  16.032   8.253
 5897POPC   C3B14253  43.690  16.053   7.953
 5897POPC   C4B14254  43.676  16.023   7.653
 5898POPC   NC314255  19.842  44.624   9.453
 5898POPC   PO414256  19.872  44.673   9.153
 5898POPC   GL114257  19.797  44.691   8.853
 5898POPC   GL214258  19.927  44.577   8.853
 5898POPC   C1A14259  19.856  44.695   8.553
 5898POPC   D2A14260  19.860  44.653   8.253
 5898POPC   C3A14261  19.841  44.711   7.953
 5898POPC   C4A14262  19.873  44.634   7.653
 5898POPC   C1B14263  19.953  44.453   8.553
 5898POPC   C2B14264  19.977  44.450   8.253
 5898POPC   C3B14265  20.008  44.459   7.953
 5898POPC   C4B14266  20.021  44.436   7.653
 5899POPC   NC314267  28.354   5.102   9.453
 5899POPC   PO414268  28.343   5.127   9.153
 5899POPC   GL114269  28.410   5.051   8.853
 5899POPC   GL214270  28.359   5.002   8.853
 5899POPC   C1A14271  28.345   5.062   8.553
 5899POPC   D2A14272  28.342   5.079   8.253
 5899POPC   C3A14273  28.329   5.106   7.953
 5899POPC   C4A14274  28.339   5.141   7.653
 5899POPC   C1B14275  28.297   4.855   8.553
 5899POPC   C2B14276  28.306   4.889   8.253
 5899POPC   C3B14277  28.310   4.896   7.953
 5899POPC   C4B14278  28.345   4.809   7.653
 5900POPC   NC314279  34.563  30.738   9.453
 5900POPC   PO414280  34.535  30.711   9.153
 5900POPC   GL114281  34.546  30.698   8.853
 5900POPC   GL214282  34.557  30.569   8.853
 5900POPC   C1A14283  34.608  30.703   8.553
 5900POPC   D2A14284  34.526  30.694   8.253
 5900POPC   C3A14285  34.538  30.709   7.953
 5900POPC   C4A14286  34.547  30.696   7.653
 5900POPC   C1B14287  34.551  30.435   8.553
 5900POPC   C2B14288  34.624  30.469   8.253
 5900POPC   C3B14289  34.626  30.442   7.953
 5900POPC   C4B14290  34.545  30.486   7.653
 5901POPC   NC314291  12.841  13.656   9.453
 5901POPC   PO414292  12.856  13.584   9.153
 5901POPC   GL114293  12.871  13.640   8.853
 5901POPC   GL214294  12.882  13.466   8.853
 5901POPC   C1A14295  12.802  13.645   8.553
 5901POPC   D2A14296  12.856  13.606   8.253
 5901POPC   C3A14297  12.855  13.660   7.953
 5901POPC   C4A14298  12.815  13.672   7.653
 5901POPC   C1B14299  12.847  13.358   8.553
 5901POPC   C2B14300  12.818  13.425   8.253
 5901POPC   C3B14301  12.828  13.397   7.953
 5901POPC   C4B14302  12.833  13.364   7.653
 5902POPC   NC314303  41.536  43.135   9.453
 5902POPC   PO414304  41.538  43.126   9.153
 5902POPC   GL114305  41.527  43.112   8.853
 5902POPC   GL214306  41.687  43.067   8.853
 5902POPC   C1A14307  41.532  43.078   8.553
 5902POPC   D2A14308  41.535  43.139   8.253
 5902POPC   C3A14309  41.525  43.144   7.953
 5902POPC   C4A14310  41.590  43.073   7.653
 5902POPC   C1B14311  41.828  43.116   8.553
 5902POPC   C2B14312  41.776  43.060   8.253
 5902POPC   C3B14313  41.810  43.095   7.953
 5902POPC   C4B14314  41.765  43.054   7.653
 5903POPC   NC314315  23.687   0.426   9.453
 5903POPC   PO414316  23.740   0.482   9.153
 5903POPC   GL114317  23.751   0.448   8.853
 5903POPC   GL214318  23.685   0.568   8.853
 5903POPC   C1A14319  23.757   0.474   8.553
 5903POPC   D2A14320  23.683   0.482   8.253
 5903POPC   C3A14321  23.735   0.442   7.953
 5903POPC   C4A14322  23.705   0.466   7.653
 5903POPC   C1B14323  23.677   0.662   8.553
 5903POPC   C2B14324  23.631   0.675   8.253
 5903POPC   C3B14325  23.657   0.685   7.953
 5903POPC   C4B14326  23.600   0.645   7.653
 5904POPC   NC314327  10.502  14.367   9.453
 5904POPC   PO414328  10.518  14.424   9.153
 5904POPC   GL114329  10.534  14.449   8.853
 5904POPC   GL214330  10.583  14.471   8.853
 5904POPC   C1A14331  10.521  14.425   8.553
 5904POPC   D2A14332  10.559  14.373   8.253
 5904POPC   C3A14333  10.559  14.361   7.953
 5904POPC   C4A14334  10.510  14.433   7.653
 5904POPC   C1B14335  10.744  14.550   8.553
 5904POPC   C2B14336  10.712  14.509   8.253
 5904POPC   C3B14337  10.775  14.526   7.953
 5904POPC   C4B14338  10.767  14.549   7.653
 5905POPC   NC314339  27.569  13.639   9.453
 5905POPC   PO414340  27.606  13.642   9.153
 5905POPC   GL114341  27.612  13.670   8.853
 5905POPC   GL214342  27.672  13.508   8.853
 5905POPC   C1A14343  27.605  13.601   8.553
 5905POPC   D2A14344  27.556  13.666   8.253
 5905POPC   C3A14345  27.642  13.662   7.953
 5905POPC   C4A14346  27.562  13.661   7.653
 5905POPC   C1B14347  27.814  13.504   8.553
 5905POPC   C2B14348  27.806  13.451   8.253
 5905POPC   C3B14349  27.842  13.518   7.953
 5905POPC   C4B14350  27.793  13.518   7.653
 5906POPC   NC314351   8.991   2.756   9.453
 5906POPC   PO414352   8.998   2.764   9.153
 5906POPC   GL114353   8.958   2.813   8.853
 5906POPC   GL214354   8.948   2.644   8.853
 5906POPC   C1A14355   8.929   2.810   8.553
 5906POPC   D2A14356   9.001   2.754   8.253
 5906POPC   C3A14357   9.002   2.775   7.953
 5906POPC   C4A14358   8.944   2.804   7.653
 5906POPC   C1B14359   8.898   2.571   8.553
 5906POPC   C2B14360   8.859   2.591   8.253
 5906POPC   C3B14361   8.827   2.586   7.953
 5906POPC   C4B14362   8.866   2.566   7.653
 5907POPC   NC314363   3.577  27.595   9.453
 5907POPC   PO414364   3.515  27.578   9.153
 5907POPC   GL114365   3.519  27.614   8.853
 5907POPC   GL214366   3.671  27.604   8.853
 5907POPC   C1A14367   3.582  27.588   8.553
 5907POPC   D2A14368   3.569  27.612   8.253
 5907POPC   C3A14369   3.586  27.636   7.953
 5907POPC   C4A14370   3.558  27.595   7.653
 5907POPC   C1B14371   3.822  27.551   8.553
 5907POPC   C2B14372   3.803  27.560   8.253
 5907POPC   C3B14373   3.839  27.538   7.953
 5907POPC   C4B14374   3.800  27.533   7.653
 5908POPC   NC314375  29.888  29.891   9.453
 5908POPC   PO414376  29.916  29.936   9.153
 5908POPC   GL114377  29.952  29.892   8.853
 5908POPC   GL214378  29.992  30.068   8.853
 5908POPC   C1A14379  29.908  29.966   8.553
 5908POPC   D2A14380  29.953  29.960   8.253
 5908POPC   C3A14381  29.954  29.945   7.953
 5908POPC   C4A14382  29.902  29.963   7.653
 5908POPC   C1B14383  29.961  30.171   8.553
 5908POPC   C2B14384  30.019  30.138   8.253
 5908POPC   C3B14385  30.004  30.179   7.953
 5908POPC   C4B14386  30.034  30.205   7.653
 5909POPC   NC314387   7.379  33.039   9.453
 5909POPC   PO414388   7.392  33.068   9.153
 5909POPC   GL114389   7.379  32.994   8.853
 5909POPC   GL214390   7.315  32.974   8.853
 5909POPC   C1A14391   7.375  32.988   8.553
 5909POPC   D2A14392   7.426  33.036   8.253
 5909POPC   C3A14393   7.392  32.999   7.953
 5909POPC   C4A14394   7.468  33.029   7.653
 5909POPC   C1B14395   7.192  32.899   8.553
 5909POPC   C2B14396   7.257  32.840   8.253
 5909POPC   C3B14397   7.257  32.901   7.953
 5909POPC   C4B14398   7.219  32.907   7.653
 5910POPC   NC314399   6.657  11.344   9.453
 5910POPC   PO414400   6.628  11.274   9.153
 5910POPC   GL114401   6.601  11.347   8.853
 5910POPC   GL214402   6.475  11.300   8.853
 5910POPC   C1A14403   6.642  11.275   8.553
 5910POPC   D2A14404   6.643  11.349   8.253
 5910POPC   C3A14405   6.604  11.253   7.953
 5910POPC   C4A14406   6.596  11.261   7.653
 5910POPC   C1B14407   6.432  11.325   8.553
 5910POPC   C2B14408   6.378  11.305   8.253
 5910POPC   C3B14409   6.346  11.340   7.953
 5910POPC   C4B14410   6.361  11.346   7.653
 5911POPC   NC314411  43.894  25.315   9.453
 5911POPC   PO414412  43.852  25.236   9.153
 5911POPC   GL114413  43.838  25.260   8.853
 5911POPC   GL214414  43.952  25.171   8.853
 5911POPC   C1A14415  43.856  25.294   8.553
 5911POPC   D2A14416  43.900  25.274   8.253
 5911POPC   C3A14417  43.921  25.261   7.953
 5911POPC   C4A14418  43.861  25.236   7.653
 5911POPC   C1B14419  44.076  25.044   8.553
 5911POPC   C2B14420  44.048  25.088   8.253
 5911POPC   C3B14421  44.077  25.028   7.953
 5911POPC   C4B14422  44.054  25.083   7.653
 5912POPC   NC314423  13.672  39.254   9.453
 5912POPC   PO414424  13.606  39.217   9.153
 5912POPC   GL114425  13.635  39.274   8.853
 5912POPC   GL214426  13.727  39.121   8.853
 5912POPC   C1A14427  13.648  39.263   8.553
 5912POPC   D2A14428  13.645  39.254   8.253
 5912POPC   C3A14429  13.589  39.185   7.953
 5912POPC   C4A14430  13.677  39.217   7.653
 5912POPC   C1B14431  13.781  38.978   8.553
 5912POPC   C2B14432  13.731  38.984   8.253
 5912POPC   C3B14433  13.772  39.000   7.953
 5912POPC   C4B14434  13.802  39.005   7.653
 5913POPC   NC314435  18.317   8.967   9.453
 5913POPC   PO414436  18.316   8.988   9.153
 5913POPC   GL114437  18.326   8.987   8.853
 5913POPC   GL214438  18.374   8.816   8.853
 5913POPC   C1A14439  18.312   8.944   8.553
 5913POPC   D2A14440  18.288   9.001   8.253
 5913POPC   C3A14441  18.261   8.949   7.953
 5913POPC   C4A14442  18.293   8.923   7.653
 5913POPC   C1B14443  18.387   8.737   8.553
 5913POPC   C2B14444  18.390   8.764   8.253
 5913POPC   C3B14445  18.398   8.754   7.953
 5913POPC   C4B14446  18.335   8.767   7.653
 5914POPC   NC314447  18.274  36.108   9.453
 5914POPC   PO414448  18.330  36.164   9.153
 5914POPC   GL114449  18.278  36.091   8.853
 5914POPC   GL214450  18.236  36.266   8.853
 5914POPC   C1A14451  18.233  36.146   8.553
 5914POPC   D2A14452  18.276  36.128   8.253
 5914POPC   C3A14453  18.240  36.143   7.953
 5914POPC   C4A14454  18.274  36.086   7.653
 5914POPC   C1B14455  18.100  36.317   8.553
 5914POPC   C2B14456  18.106  36.330   8.253
 5914POPC   C3B14457  18.157  36.332   7.953
 5914POPC   C4B14458  18.142  36.356   7.653
 5915POPC   NC314459  31.446  33.786   9.453
 5915POPC   PO414460  31.511  33.809   9.153
 5915POPC   GL114461  31.486  33.766   8.853
 5915POPC   GL214462  31.395  33.724   8.853
 5915POPC   C1A14463  31.508  33.768   8.553
 5915POPC   D2A14464  31.517  33.801   8.253
 5915POPC   C3A14465  31.444  33.798   7.953
 5915POPC   C4A14466  31.502  33.780   7.653
 5915POPC   C1B14467  31.281  33.601   8.553
 5915POPC   C2B14468  31.307  33.588   8.253
 5915POPC   C3B14469  31.286  33.582   7.953
 5915POPC   C4B14470  31.306  33.646   7.653
 5916POPC   NC314471  41.604  30.679   9.453
 5916POPC   PO414472  41.557  30.649   9.153
 5916POPC   GL114473  41.600  30.671   8.853
 5916POPC   GL214474  41.569  30.607   8.853
 5916POPC   C1A14475  41.542  30.668   8.553
 5916POPC   D2A14476  41.585  30.721   8.253
 5916POPC   C3A14477  41.605  30.734   7.953
 5916POPC   C4A14478  41.562  30.701   7.653
 5916POPC   C1B14479  41.613  30.449   8.553
 5916POPC   C2B14480  41.604  30.455   8.253
 5916POPC   C3B14481  41.596  30.440   7.953
 5916POPC   C4B14482  41.665  30.426   7.653
 5917POPC   NC314483  43.076  11.347   9.453
 5917POPC   PO414484  43.117  11.285   9.153
 5917POPC   GL114485  43.070  11.256   8.853
 5917POPC   GL214486  43.239  11.424   8.853
 5917POPC   C1A14487  43.095  11.262   8.553
 5917POPC   D2A14488  43.067  11.256   8.253
 5917POPC   C3A14489  43.125  11.268   7.953
 5917POPC   C4A14490  43.125  11.285   7.653
 5917POPC   C1B14491  43.295  11.462   8.553
 5917POPC   C2B14492  43.307  11.427   8.253
 5917POPC   C3B14493  43.319  11.464   7.953
 5917POPC   C4B14494  43.299  11.474   7.653
 5918POPC   NC314495  28.359   9.752   9.453
 5918POPC   PO414496  28.393   9.724   9.153
 5918POPC   GL114497  28.400   9.731   8.853
 5918POPC   GL214498  28.237   9.760   8.853
 5918POPC   C1A14499  28.390   9.755   8.553
 5918POPC   D2A14500  28.413   9.760   8.253
 5918POPC   C3A14501  28.416   9.730   7.953
 5918POPC   C4A14502  28.373   9.710   7.653
 5918POPC   C1B14503  28.080   9.807   8.553
 5918POPC   C2B14504  28.110   9.793   8.253
 5918POPC   C3B14505  28.163   9.775   7.953
 5918POPC   C4B14506  28.082   9.783   7.653
 5919POPC   NC314507   5.097  19.879   9.453
 5919POPC   PO414508   5.089  19.803   9.153
 5919POPC   GL114509   5.049  19.788   8.853
 5919POPC   GL214510   5.123  19.921   8.853
 5919POPC   C1A14511   5.120  19.869   8.553
 5919POPC   D2A14512   5.116  19.791   8.253
 5919POPC   C3A14513   5.136  19.878   7.953
 5919POPC   C4A14514   5.143  19.862   7.653
 5919POPC   C1B14515   5.111  20.055   8.553
 5919POPC   C2B14516   5.070  20.125   8.253
 5919POPC   C3B14517   5.048  20.093   7.953
 5919POPC   C4B14518   5.102  20.050   7.653
 5920POPC   NC314519  35.341  15.988   9.453
 5920POPC   PO414520  35.357  15.915   9.153
 5920POPC   GL114521  35.352  15.945   8.853
 5920POPC   GL214522  35.311  16.041   8.853
 5920POPC   C1A14523  35.361  15.912   8.553
 5920POPC   D2A14524  35.340  15.942   8.253
 5920POPC   C3A14525  35.344  15.951   7.953
 5920POPC   C4A14526  35.319  15.918   7.653
 5920POPC   C1B14527  35.337  16.192   8.553
 5920POPC   C2B14528  35.317  16.161   8.253
 5920POPC   C3B14529  35.298  16.161   7.953
 5920POPC   C4B14530  35.294  16.183   7.653
 5921POPC   NC314531   3.516  42.292   9.453
 5921POPC   PO414532   3.513  42.294   9.153
 5921POPC   GL114533   3.515  42.320   8.853
 5921POPC   GL214534   3.678  42.283   8.853
 5921POPC   C1A14535   3.577  42.372   8.553
 5921POPC   D2A14536   3.496  42.337   8.253
 5921POPC   C3A14537   3.568  42.307   7.953
 5921POPC   C4A14538   3.580  42.336   7.653
 5921POPC   C1B14539   3.772  42.316   8.553
 5921POPC   C2B14540   3.801  42.291   8.253
 5921POPC   C3B14541   3.806  42.231   7.953
 5921POPC   C4B14542   3.791  42.304   7.653
 5922POPC   NC314543  16.762  20.584   9.453
 5922POPC   PO414544  16.780  20.604   9.153
 5922POPC   GL114545  16.688  20.582   8.853
 5922POPC   GL214546  16.628  20.590   8.853
 5922POPC   C1A14547  16.698  20.577   8.553
 5922POPC   D2A14548  16.683  20.587   8.253
 5922POPC   C3A14549  16.687  20.647   7.953
 5922POPC   C4A14550  16.776  20.575   7.653
 5922POPC   C1B14551  16.445  20.638   8.553
 5922POPC   C2B14552  16.481  20.658   8.253
 5922POPC   C3B14553  16.469  20.647   7.953
 5922POPC   C4B14554  16.478  20.591   7.653
 5923POPC   NC314555  11.277  19.098   9.453
 5923POPC   PO414556  11.300  19.013   9.153
 5923POPC   GL114557  11.328  19.023   8.853
 5923POPC   GL214558  11.310  19.154   8.853
 5923POPC   C1A14559  11.280  19.038   8.553
 5923POPC   D2A14560  11.279  19.046   8.253
 5923POPC   C3A14561  11.324  19.074   7.953
 5923POPC   C4A14562  11.273  19.011   7.653
 5923POPC   C1B14563  11.305  19.351   8.553
 5923POPC   C2B14564  11.274  19.261   8.253
 5923POPC   C3B14565  11.299  19.288   7.953
 5923POPC   C4B14566  11.266  19.346   7.653
 5924POPC   NC314567   8.978  30.649   9.453
 5924POPC   PO414568   8.966  30.686   9.153
 5924POPC   GL114569   8.938  30.671   8.853
 5924POPC   GL214570   9.141  30.653   8.853
 5924POPC   C1A14571   8.942  30.713   8.553
 5924POPC   D2A14572   8.959  30.695   8.253
 5924POPC   C3A14573   8.953  30.688   7.953
 5924POPC   C4A14574   8.950  30.649   7.653
 5924POPC   C1B14575   9.265  30.666   8.553
 5924POPC   C2B14576   9.199  30.695   8.253
 5924POPC   C3B14577   9.265  30.678   7.953
 5924POPC   C4B14578   9.240  30.618   7.653
 5925POPC   NC314579  44.642  42.323   9.453
 5925POPC   PO414580  44.701  42.294   9.153
 5925POPC   GL114581  44.633  42.345   8.853
 5925POPC   GL214582  44.539  42.305   8.853
 5925POPC   C1A14583  44.690  42.353   8.553
 5925POPC   D2A14584  44.681  42.301   8.253
 5925POPC   C3A14585  44.663  42.322   7.953
 5925POPC   C4A14586  44.635  42.305   7.653
 5925POPC   C1B14587  44.436  42.281   8.553
 5925POPC   C2B14588  44.428  42.284   8.253
 5925POPC   C3B14589  44.417  42.342   7.953
 5925POPC   C4B14590  44.440  42.325   7.653
 5926POPC   NC314591  26.061  34.617   9.453
 5926POPC   PO414592  26.010  34.543   9.153
 5926POPC   GL114593  26.063  34.581   8.853
 5926POPC   GL214594  25.942  34.556   8.853
 5926POPC   C1A14595  26.042  34.527   8.553
 5926POPC   D2A14596  25.994  34.612   8.253
 5926POPC   C3A14597  26.020  34.556   7.953
 5926POPC   C4A14598  26.052  34.578   7.653
 5926POPC   C1B14599  25.838  34.545   8.553
 5926POPC   C2B14600  25.782  34.563   8.253
 5926POPC   C3B14601  25.822  34.635   7.953
 5926POPC   C4B14602  25.782  34.572   7.653
 5927POPC   NC314603  31.503  32.284   9.453
 5927POPC   PO414604  31.451  32.282   9.153
 5927POPC   GL114605  31.433  32.283   8.853
 5927POPC   GL214606  31.389  32.361   8.853
 5927POPC   C1A14607  31.474  32.254   8.553
 5927POPC   D2A14608  31.441  32.226   8.253
 5927POPC   C3A14609  31.477  32.276   7.953
 5927POPC   C4A14610  31.454  32.267   7.653
 5927POPC   C1B14611  31.392  32.460   8.553
 5927POPC   C2B14612  31.375  32.437   8.253
 5927POPC   C3B14613  31.330  32.474   7.953
 5927POPC   C4B14614  31.332  32.492   7.653
 5928POPC   NC314615  43.863   6.645   9.453
 5928POPC   PO414616  43.860   6.645   9.153
 5928POPC   GL114617  43.874   6.629   8.853
 5928POPC   GL214618  43.919   6.500   8.853
 5928POPC   C1A14619  43.890   6.644   8.553
 5928POPC   D2A14620  43.897   6.595   8.253
 5928POPC   C3A14621  43.892   6.670   7.953
 5928POPC   C4A14622  43.880   6.630   7.653
 5928POPC   C1B14623  43.980   6.449   8.553
 5928POPC   C2B14624  43.953   6.381   8.253
 5928POPC   C3B14625  43.922   6.353   7.953
 5928POPC   C4B14626  43.900   6.369   7.653
 5929POPC   NC314627  43.838  13.598   9.453
 5929POPC   PO414628  43.852  13.677   9.153
 5929POPC   GL114629  43.853  13.672   8.853
 5929POPC   GL214630  43.884  13.792   8.853
 5929POPC   C1A14631  43.936  13.592   8.553
 5929POPC   D2A14632  43.918  13.597   8.253
 5929POPC   C3A14633  43.854  13.594   7.953
 5929POPC   C4A14634  43.848  13.650   7.653
 5929POPC   C1B14635  43.861  13.843   8.553
 5929POPC   C2B14636  43.862  13.925   8.253
 5929POPC   C3B14637  43.833  13.880   7.953
 5929POPC   C4B14638  43.896  13.850   7.653
 5930POPC   NC314639  10.491  33.002   9.453
 5930POPC   PO414640  10.558  33.011   9.153
 5930POPC   GL114641  10.544  32.991   8.853
 5930POPC   GL214642  10.653  33.100   8.853
 5930POPC   C1A14643  10.569  33.035   8.553
 5930POPC   D2A14644  10.513  32.984   8.253
 5930POPC   C3A14645  10.507  32.985   7.953
 5930POPC   C4A14646  10.496  33.052   7.653
 5930POPC   C1B14647  10.664  33.235   8.553
 5930POPC   C2B14648  10.705  33.160   8.253
 5930POPC   C3B14649  10.711  33.229   7.953
 5930POPC   C4B14650  10.688  33.239   7.653
 5931POPC   NC314651  29.180  32.991   9.453
 5931POPC   PO414652  29.126  33.017   9.153
 5931POPC   GL114653  29.156  32.995   8.853
 5931POPC   GL214654  29.234  33.125   8.853
 5931POPC   C1A14655  29.124  32.974   8.553
 5931POPC   D2A14656  29.148  33.018   8.253
 5931POPC   C3A14657  29.145  32.995   7.953
 5931POPC   C4A14658  29.105  33.015   7.653
 5931POPC   C1B14659  29.315  33.234   8.553
 5931POPC   C2B14660  29.295  33.227   8.253
 5931POPC   C3B14661  29.310  33.241   7.953
 5931POPC   C4B14662  29.309  33.230   7.653
 5932POPC   NC314663  33.815  25.248   9.453
 5932POPC   PO414664  33.849  25.284   9.153
 5932POPC   GL114665  33.828  25.315   8.853
 5932POPC   GL214666  33.641  25.347   8.853
 5932POPC   C1A14667  33.833  25.219   8.553
 5932POPC   D2A14668  33.813  25.294   8.253
 5932POPC   C3A14669  33.765  25.281   7.953
 5932POPC   C4A14670  33.815  25.252   7.653
 5932POPC   C1B14671  33.591  25.285   8.553
 5932POPC   C2B14672  33.600  25.376   8.253
 5932POPC   C3B14673  33.597  25.352   7.953
 5932POPC   C4B14674  33.601  25.321   7.653
 5933POPC   NC314675  10.481  22.956   9.453
 5933POPC   PO414676  10.526  22.931   9.153
 5933POPC   GL114677  10.493  22.894   8.853
 5933POPC   GL214678  10.524  23.041   8.853
 5933POPC   C1A14679  10.571  22.958   8.553
 5933POPC   D2A14680  10.517  22.939   8.253
 5933POPC   C3A14681  10.557  22.974   7.953
 5933POPC   C4A14682  10.539  22.978   7.653
 5933POPC   C1B14683  10.639  23.224   8.553
 5933POPC   C2B14684  10.627  23.201   8.253
 5933POPC   C3B14685  10.612  23.126   7.953
 5933POPC   C4B14686  10.564  23.220   7.653
 5934POPC   NC314687  18.257  17.491   9.453
 5934POPC   PO414688  18.284  17.462   9.153
 5934POPC   GL114689  18.235  17.505   8.853
 5934POPC   GL214690  18.322  17.353   8.853
 5934POPC   C1A14691  18.274  17.557   8.553
 5934POPC   D2A14692  18.271  17.528   8.253
 5934POPC   C3A14693  18.241  17.541   7.953
 5934POPC   C4A14694  18.256  17.523   7.653
 5934POPC   C1B14695  18.412  17.301   8.553
 5934POPC   C2B14696  18.350  17.223   8.253
 5934POPC   C3B14697  18.396  17.242   7.953
 5934POPC   C4B14698  18.377  17.272   7.653
 5935POPC   NC314699  15.906  37.705   9.453
 5935POPC   PO414700  15.996  37.643   9.153
 5935POPC   GL114701  15.937  37.674   8.853
 5935POPC   GL214702  16.019  37.546   8.853
 5935POPC   C1A14703  15.917  37.719   8.553
 5935POPC   D2A14704  15.944  37.637   8.253
 5935POPC   C3A14705  15.921  37.675   7.953
 5935POPC   C4A14706  15.918  37.685   7.653
 5935POPC   C1B14707  16.094  37.523   8.553
 5935POPC   C2B14708  16.108  37.538   8.253
 5935POPC   C3B14709  16.140  37.467   7.953
 5935POPC   C4B14710  16.139  37.544   7.653
 5936POPC   NC314711  12.813  43.854   9.453
 5936POPC   PO414712  12.815  43.844   9.153
 5936POPC   GL114713  12.874  43.863   8.853
 5936POPC   GL214714  12.931  43.939   8.853
 5936POPC   C1A14715  12.880  43.900   8.553
 5936POPC   D2A14716  12.874  43.934   8.253
 5936POPC   C3A14717  12.895  43.913   7.953
 5936POPC   C4A14718  12.866  43.911   7.653
 5936POPC   C1B14719  13.021  43.973   8.553
 5936POPC   C2B14720  13.048  44.052   8.253
 5936POPC   C3B14721  13.029  44.026   7.953
 5936POPC   C4B14722  13.036  44.004   7.653
 5937POPC   NC314723  14.401  33.809   9.453
 5937POPC   PO414724  14.413  33.751   9.153
 5937POPC   GL114725  14.364  33.808   8.853
 5937POPC   GL214726  14.336  33.691   8.853
 5937POPC   C1A14727  14.405  33.755   8.553
 5937POPC   D2A14728  14.429  33.793   8.253
 5937POPC   C3A14729  14.391  33.837   7.953
 5937POPC   C4A14730  14.419  33.842   7.653
 5937POPC   C1B14731  14.230  33.635   8.553
 5937POPC   C2B14732  14.228  33.582   8.253
 5937POPC   C3B14733  14.198  33.600   7.953
 5937POPC   C4B14734  14.234  33.610   7.653
 5938POPC   NC314735   5.903  31.449   9.453
 5938POPC   PO414736   5.852  31.490   9.153
 5938POPC   GL114737   5.823  31.436   8.853
 5938POPC   GL214738   5.819  31.346   8.853
 5938POPC   C1A14739   5.840  31.445   8.553
 5938POPC   D2A14740   5.826  31.509   8.253
 5938POPC   C3A14741   5.907  31.467   7.953
 5938POPC   C4A14742   5.821  31.483   7.653
 5938POPC   C1B14743   5.808  31.215   8.553
 5938POPC   C2B14744   5.724  31.252   8.253
 5938POPC   C3B14745   5.745  31.250   7.953
 5938POPC   C4B14746   5.726  31.266   7.653
 5939POPC   NC314747  22.965  17.554   9.453
 5939POPC   PO414748  22.930  17.539   9.153
 5939POPC   GL114749  22.959  17.459   8.853
 5939POPC   GL214750  22.823  17.419   8.853
 5939POPC   C1A14751  22.952  17.476   8.553
 5939POPC   D2A14752  22.923  17.486   8.253
 5939POPC   C3A14753  22.930  17.461   7.953
 5939POPC   C4A14754  22.983  17.550   7.653
 5939POPC   C1B14755  22.717  17.391   8.553
 5939POPC   C2B14756  22.735  17.441   8.253
 5939POPC   C3B14757  22.714  17.377   7.953
 5939POPC   C4B14758  22.715  17.385   7.653
 5940POPC   NC314759   8.181  15.214   9.453
 5940POPC   PO414760   8.176  15.202   9.153
 5940POPC   GL114761   8.157  15.150   8.853
 5940POPC   GL214762   8.249  15.014   8.853
 5940POPC   C1A14763   8.153  15.217   8.553
 5940POPC   D2A14764   8.199  15.176   8.253
 5940POPC   C3A14765   8.192  15.174   7.953
 5940POPC   C4A14766   8.149  15.140   7.653
 5940POPC   C1B14767   8.251  14.926   8.553
 5940POPC   C2B14768   8.295  14.962   8.253
 5940POPC   C3B14769   8.280  14.949   7.953
 5940POPC   C4B14770   8.239  14.984   7.653
 5941POPC   NC314771  16.683   1.209   9.453
 5941POPC   PO414772  16.687   1.226   9.153
 5941POPC   GL114773  16.731   1.227   8.853
 5941POPC   GL214774  16.640   1.293   8.853
 5941POPC   C1A14775  16.753   1.197   8.553
 5941POPC   D2A14776  16.709   1.235   8.253
 5941POPC   C3A14777  16.759   1.213   7.953
 5941POPC   C4A14778  16.768   1.221   7.653
 5941POPC   C1B14779  16.540   1.457   8.553
 5941POPC   C2B14780  16.557   1.417   8.253
 5941POPC   C3B14781  16.607   1.456   7.953
 5941POPC   C4B14782  16.543   1.417   7.653
 5942POPC   NC314783  30.743   8.230   9.453
 5942POPC   PO414784  30.647   8.243   9.153
 5942POPC   GL114785  30.685   8.191   8.853
 5942POPC   GL214786  30.620   8.185   8.853
 5942POPC   C1A14787  30.704   8.203   8.553
 5942POPC   D2A14788  30.721   8.197   8.253
 5942POPC   C3A14789  30.721   8.163   7.953
 5942POPC   C4A14790  30.692   8.177   7.653
 5942POPC   C1B14791  30.455   8.199   8.553
 5942POPC   C2B14792  30.442   8.248   8.253
 5942POPC   C3B14793  30.438   8.243   7.953
 5942POPC   C4B14794  30.436   8.279   7.653
 5943POPC   NC314795  34.568  42.318   9.453
 5943POPC   PO414796  34.603  42.299   9.153
 5943POPC   GL114797  34.553  42.292   8.853
 5943POPC   GL214798  34.438  42.350   8.853
 5943POPC   C1A14799  34.550  42.358   8.553
 5943POPC   D2A14800  34.527  42.381   8.253
 5943POPC   C3A14801  34.557  42.325   7.953
 5943POPC   C4A14802  34.623  42.324   7.653
 5943POPC   C1B14803  34.380  42.447   8.553
 5943POPC   C2B14804  34.348  42.356   8.253
 5943POPC   C3B14805  34.307  42.442   7.953
 5943POPC   C4B14806  34.349  42.381   7.653
 5944POPC   NC314807  34.579   7.407   9.453
 5944POPC   PO414808  34.530   7.413   9.153
 5944POPC   GL114809  34.564   7.461   8.853
 5944POPC   GL214810  34.665   7.453   8.853
 5944POPC   C1A14811  34.616   7.470   8.553
 5944POPC   D2A14812  34.581   7.419   8.253
 5944POPC   C3A14813  34.593   7.462   7.953
 5944POPC   C4A14814  34.613   7.416   7.653
 5944POPC   C1B14815  34.759   7.528   8.553
 5944POPC   C2B14816  34.794   7.545   8.253
 5944POPC   C3B14817  34.750   7.604   7.953
 5944POPC   C4B14818  34.832   7.515   7.653
 5945POPC   NC314819   0.449   9.798   9.453
 5945POPC   PO414820   0.405   9.725   9.153
 5945POPC   GL114821   0.420   9.788   8.853
 5945POPC   GL214822   0.366   9.720   8.853
 5945POPC   C1A14823   0.413   9.708   8.553
 5945POPC   D2A14824   0.392   9.754   8.253
 5945POPC   C3A14825   0.445   9.773   7.953
 5945POPC   C4A14826   0.425   9.743   7.653
 5945POPC   C1B14827   0.182   9.718   8.553
 5945POPC   C2B14828   0.208   9.661   8.253
 5945POPC   C3B14829   0.188   9.728   7.953
 5945POPC   C4B14830   0.225   9.665   7.653
 5946POPC   NC314831   7.373  44.612   9.453
 5946POPC   PO414832   7.384  44.705   9.153
 5946POPC   GL114833   7.417  44.683   8.853
 5946POPC   GL214834   7.339  44.745   8.853
 5946POPC   C1A14835   7.419  44.629   8.553
 5946POPC   D2A14836   7.461  44.647   8.253
 5946POPC   C3A14837   7.462  44.643   7.953
 5946POPC   C4A14838   7.409  44.708   7.653
 5946POPC   C1B14839   7.194  44.750   8.553
 5946POPC   C2B14840   7.193  44.813   8.253
 5946POPC   C3B14841   7.252  44.778   7.953
 5946POPC   C4B14842   7.205  44.810   7.653
 5947POPC   NC314843  29.941  33.768   9.453
 5947POPC   PO414844  29.930  33.754   9.153
 5947POPC   GL114845  29.931  33.757   8.853
 5947POPC   GL214846  29.850  33.921   8.853
 5947POPC   C1A14847  29.951  33.849   8.553
 5947POPC   D2A14848  29.873  33.815   8.253
 5947POPC   C3A14849  29.907  33.791   7.953
 5947POPC   C4A14850  29.926  33.843   7.653
 5947POPC   C1B14851  29.906  34.037   8.553
 5947POPC   C2B14852  29.861  34.011   8.253
 5947POPC   C3B14853  29.830  33.998   7.953
 5947POPC   C4B14854  29.902  34.083   7.653
 5948POPC   NC314855  18.260  23.754   9.453
 5948POPC   PO414856  18.272  23.716   9.153
 5948POPC   GL114857  18.281  23.664   8.853
 5948POPC   GL214858  18.406  23.853   8.853
 5948POPC   C1A14859  18.250  23.711   8.553
 5948POPC   D2A14860  18.296  23.747   8.253
 5948POPC   C3A14861  18.323  23.697   7.953
 5948POPC   C4A14862  18.291  23.679   7.653
 5948POPC   C1B14863  18.471  23.858   8.553
 5948POPC   C2B14864  18.449  23.853   8.253
 5948POPC   C3B14865  18.403  23.926   7.953
 5948POPC   C4B14866  18.451  23.894   7.653
 5949POPC   NC314867  16.777  36.936   9.453
 5949POPC   PO414868  16.705  36.944   9.153
 5949POPC   GL114869  16.729  36.916   8.853
 5949POPC   GL214870  16.877  36.854   8.853
 5949POPC   C1A14871  16.742  36.893   8.553
 5949POPC   D2A14872  16.766  36.936   8.253
 5949POPC   C3A14873  16.708  36.946   7.953
 5949POPC   C4A14874  16.774  36.952   7.653
 5949POPC   C1B14875  16.988  36.812   8.553
 5949POPC   C2B14876  16.936  36.891   8.253
 5949POPC   C3B14877  17.005  36.836   7.953
 5949POPC   C4B14878  16.966  36.874   7.653
 5950POPC   NC314879  19.819  19.051   9.453
 5950POPC   PO414880  19.812  19.043   9.153
 5950POPC   GL114881  19.830  19.058   8.853
 5950POPC   GL214882  19.776  19.193   8.853
 5950POPC   C1A14883  19.817  19.029   8.553
 5950POPC   D2A14884  19.834  19.100   8.253
 5950POPC   C3A14885  19.815  19.056   7.953
 5950POPC   C4A14886  19.808  19.029   7.653
 5950POPC   C1B14887  19.788  19.316   8.553
 5950POPC   C2B14888  19.803  19.320   8.253
 5950POPC   C3B14889  19.809  19.333   7.953
 5950POPC   C4B14890  19.824  19.284   7.653
 5951POPC   NC314891  29.889   0.438   9.453
 5951POPC   PO414892  29.941   0.466   9.153
 5951POPC   GL114893  29.942   0.394   8.853
 5951POPC   GL214894  29.892   0.360   8.853
 5951POPC   C1A14895  29.939   0.419   8.553
 5951POPC   D2A14896  29.941   0.450   8.253
 5951POPC   C3A14897  29.930   0.441   7.953
 5951POPC   C4A14898  29.889   0.464   7.653
 5951POPC   C1B14899  29.883   0.160   8.553
 5951POPC   C2B14900  29.861   0.183   8.253
 5951POPC   C3B14901  29.882   0.165   7.953
 5951POPC   C4B14902  29.868   0.211   7.653
 5952POPC   NC314903   5.081  20.658   9.453
 5952POPC   PO414904   5.064  20.616   9.153
 5952POPC   GL114905   5.082  20.658   8.853
 5952POPC   GL214906   5.039  20.490   8.853
 5952POPC   C1A14907   5.126  20.623   8.553
 5952POPC   D2A14908   5.071  20.592   8.253
 5952POPC   C3A14909   5.047  20.583   7.953
 5952POPC   C4A14910   5.135  20.624   7.653
 5952POPC   C1B14911   4.888  20.421   8.553
 5952POPC   C2B14912   4.937  20.450   8.253
 5952POPC   C3B14913   4.932  20.418   7.953
 5952POPC   C4B14914   4.963  20.437   7.653
 5953POPC   NC314915  14.358  36.863   9.453
 5953POPC   PO414916  14.441  36.886   9.153
 5953POPC   GL114917  14.390  36.936   8.853
 5953POPC   GL214918  14.318  36.820   8.853
 5953POPC   C1A14919  14.390  36.876   8.553
 5953POPC   D2A14920  14.376  36.878   8.253
 5953POPC   C3A14921  14.413  36.855   7.953
 5953POPC   C4A14922  14.388  36.912   7.653
 5953POPC   C1B14923  14.298  36.707   8.553
 5953POPC   C2B14924  14.248  36.642   8.253
 5953POPC   C3B14925  14.321  36.698   7.953
 5953POPC   C4B14926  14.290  36.660   7.653
 5954POPC   NC314927  29.152  42.315   9.453
 5954POPC   PO414928  29.148  42.346   9.153
 5954POPC   GL114929  29.155  42.379   8.853
 5954POPC   GL214930  29.017  42.395   8.853
 5954POPC   C1A14931  29.142  42.292   8.553
 5954POPC   D2A14932  29.134  42.381   8.253
 5954POPC   C3A14933  29.131  42.373   7.953
 5954POPC   C4A14934  29.138  42.315   7.653
 5954POPC   C1B14935  28.909  42.408   8.553
 5954POPC   C2B14936  28.850  42.372   8.253
 5954POPC   C3B14937  28.879  42.331   7.953
 5954POPC   C4B14938  28.931  42.367   7.653
 5955POPC   NC314939  29.920   4.364   9.453
 5955POPC   PO414940  29.911   4.360   9.153
 5955POPC   GL114941  29.892   4.302   8.853
 5955POPC   GL214942  29.878   4.428   8.853
 5955POPC   C1A14943  29.905   4.299   8.553
 5955POPC   D2A14944  29.969   4.351   8.253
 5955POPC   C3A14945  29.897   4.314   7.953
 5955POPC   C4A14946  29.942   4.359   7.653
 5955POPC   C1B14947  29.731   4.458   8.553
 5955POPC   C2B14948  29.755   4.494   8.253
 5955POPC   C3B14949  29.775   4.473   7.953
 5955POPC   C4B14950  29.745   4.463   7.653
 5956POPC   NC314951  19.066  32.240   9.453
 5956POPC   PO414952  19.033  32.224   9.153
 5956POPC   GL114953  19.109  32.291   8.853
 5956POPC   GL214954  19.124  32.296   8.853
 5956POPC   C1A14955  19.057  32.295   8.553
 5956POPC   D2A14956  19.041  32.233   8.253
 5956POPC   C3A14957  19.035  32.264   7.953
 5956POPC   C4A14958  19.025  32.204   7.653
 5956POPC   C1B14959  19.220  32.363   8.553
 5956POPC   C2B14960  19.230  32.446   8.253
 5956POPC   C3B14961  19.279  32.384   7.953
 5956POPC   C4B14962  19.231  32.411   7.653
 5957POPC   NC314963   2.723  37.670   9.453
 5957POPC   PO414964   2.770  37.712   9.153
 5957POPC   GL114965   2.779  37.714   8.853
 5957POPC   GL214966   2.755  37.579   8.853
 5957POPC   C1A14967   2.768  37.635   8.553
 5957POPC   D2A14968   2.731  37.724   8.253
 5957POPC   C3A14969   2.791  37.693   7.953
 5957POPC   C4A14970   2.806  37.691   7.653
 5957POPC   C1B14971   2.701  37.427   8.553
 5957POPC   C2B14972   2.646  37.459   8.253
 5957POPC   C3B14973   2.659  37.407   7.953
 5957POPC   C4B14974   2.650  37.442   7.653
 5958POPC   NC314975   1.238   7.431   9.453
 5958POPC   PO414976   1.178   7.439   9.153
 5958POPC   GL114977   1.212   7.374   8.853
 5958POPC   GL214978   1.120   7.388   8.853
 5958POPC   C1A14979   1.198   7.394   8.553
 5958POPC   D2A14980   1.235   7.439   8.253
 5958POPC   C3A14981   1.250   7.383   7.953
 5958POPC   C4A14982   1.222   7.416   7.653
 5958POPC   C1B14983   0.993   7.297   8.553
 5958POPC   C2B14984   1.000   7.329   8.253
 5958POPC   C3B14985   1.035   7.279   7.953
 5958POPC   C4B14986   0.998   7.304   7.653
 5959POPC   NC314987  32.297  33.849   9.453
 5959POPC   PO414988  32.254  33.787   9.153
 5959POPC   GL114989  32.199  33.816   8.853
 5959POPC   GL214990  32.406  33.798   8.853
 5959POPC   C1A14991  32.250  33.773   8.553
 5959POPC   D2A14992  32.255  33.768   8.253
 5959POPC   C3A14993  32.237  33.757   7.953
 5959POPC   C4A14994  32.240  33.783   7.653
 5959POPC   C1B14995  32.519  33.916   8.553
 5959POPC   C2B14996  32.439  33.885   8.253
 5959POPC   C3B14997  32.518  33.837   7.953
 5959POPC   C4B14998  32.448  33.897   7.653
 5960POPC   NC314999   5.082  18.283   9.453
 5960POPC   PO415000   5.083  18.261   9.153
 5960POPC   GL115001   5.100  18.261   8.853
 5960POPC   GL215002   5.241  18.312   8.853
 5960POPC   C1A15003   5.107  18.327   8.553
 5960POPC   D2A15004   5.118  18.296   8.253
 5960POPC   C3A15005   5.062  18.281   7.953
 5960POPC   C4A15006   5.074  18.281   7.653
 5960POPC   C1B15007   5.336  18.246   8.553
 5960POPC   C2B15008   5.388  18.278   8.253
 5960POPC   C3B15009   5.322  18.279   7.953
 5960POPC   C4B15010   5.346  18.309   7.653
 5961POPC   NC315011   7.378   5.061   9.453
 5961POPC   PO415012   7.461   5.132   9.153
 5961POPC   GL115013   7.372   5.096   8.853
 5961POPC   GL215014   7.353   4.959   8.853
 5961POPC   C1A15015   7.419   5.073   8.553
 5961POPC   D2A15016   7.404   5.094   8.253
 5961POPC   C3A15017   7.461   5.067   7.953
 5961POPC   C4A15018   7.420   5.076   7.653
 5961POPC   C1B15019   7.226   4.918   8.553
 5961POPC   C2B15020   7.272   4.863   8.253
 5961POPC   C3B15021   7.261   4.878   7.953
 5961POPC   C4B15022   7.261   4.933   7.653
 5962POPC   NC315023  14.357  38.490   9.453
 5962POPC   PO415024  14.383  38.498   9.153
 5962POPC   GL115025  14.417  38.463   8.853
 5962POPC   GL215026  14.465  38.379   8.853
 5962POPC   C1A15027  14.377  38.475   8.553
 5962POPC   D2A15028  14.370  38.406   8.253
 5962POPC   C3A15029  14.362  38.491   7.953
 5962POPC   C4A15030  14.429  38.442   7.653
 5962POPC   C1B15031  14.578  38.292   8.553
 5962POPC   C2B15032  14.634  38.352   8.253
 5962POPC   C3B15033  14.585  38.301   7.953
 5962POPC   C4B15034  14.558  38.329   7.653
 5963POPC   NC315035   3.562  14.403   9.453
 5963POPC   PO415036   3.508  14.444   9.153
 5963POPC   GL115037   3.545  14.394   8.853
 5963POPC   GL215038   3.629  14.306   8.853
 5963POPC   C1A15039   3.526  14.409   8.553
 5963POPC   D2A15040   3.504  14.371   8.253
 5963POPC   C3A15041   3.549  14.417   7.953
 5963POPC   C4A15042   3.570  14.418   7.653
 5963POPC   C1B15043   3.608  14.138   8.553
 5963POPC   C2B15044   3.645  14.190   8.253
 5963POPC   C3B15045   3.641  14.146   7.953
 5963POPC   C4B15046   3.586  14.160   7.653
 5964POPC   NC315047  10.532  20.579   9.453
 5964POPC   PO415048  10.488  20.629   9.153
 5964POPC   GL115049  10.563  20.632   8.853
 5964POPC   GL215050  10.635  20.507   8.853
 5964POPC   C1A15051  10.474  20.611   8.553
 5964POPC   D2A15052  10.497  20.609   8.253
 5964POPC   C3A15053  10.477  20.657   7.953
 5964POPC   C4A15054  10.565  20.564   7.653
 5964POPC   C1B15055  10.721  20.439   8.553
 5964POPC   C2B15056  10.701  20.454   8.253
 5964POPC   C3B15057  10.719  20.449   7.953
 5964POPC   C4B15058  10.694  20.447   7.653
 5965POPC   NC315059   8.198   7.463   9.453
 5965POPC   PO415060   8.223   7.400   9.153
 5965POPC   GL115061   8.215   7.444   8.853
 5965POPC   GL215062   8.222   7.531   8.853
 5965POPC   C1A15063   8.167   7.381   8.553
 5965POPC   D2A15064   8.228   7.432   8.253
 5965POPC   C3A15065   8.217   7.470   7.953
 5965POPC   C4A15066   8.192   7.447   7.653
 5965POPC   C1B15067   8.130   7.690   8.553
 5965POPC   C2B15068   8.170   7.681   8.253
 5965POPC   C3B15069   8.121   7.669   7.953
 5965POPC   C4B15070   8.142   7.641   7.653
 5966POPC   NC315071  33.042  43.139   9.453
 5966POPC   PO415072  33.067  43.106   9.153
 5966POPC   GL115073  33.054  43.157   8.853
 5966POPC   GL215074  33.092  43.013   8.853
 5966POPC   C1A15075  33.046  43.078   8.553
 5966POPC   D2A15076  33.042  43.107   8.253
 5966POPC   C3A15077  33.003  43.153   7.953
 5966POPC   C4A15078  33.049  43.133   7.653
 5966POPC   C1B15079  33.245  43.006   8.553
 5966POPC   C2B15080  33.228  42.977   8.253
 5966POPC   C3B15081  33.269  42.999   7.953
 5966POPC   C4B15082  33.198  42.979   7.653
 5967POPC   NC315083  27.562  12.847   9.453
 5967POPC   PO415084  27.545  12.815   9.153
 5967POPC   GL115085  27.637  12.840   8.853
 5967POPC   GL215086  27.702  12.706   8.853
 5967POPC   C1A15087  27.556  12.815   8.553
 5967POPC   D2A15088  27.634  12.880   8.253
 5967POPC   C3A15089  27.608  12.861   7.953
 5967POPC   C4A15090  27.596  12.862   7.653
 5967POPC   C1B15091  27.776  12.653   8.553
 5967POPC   C2B15092  27.775  12.623   8.253
 5967POPC   C3B15093  27.770  12.644   7.953
 5967POPC   C4B15094  27.722  12.697   7.653
 5968POPC   NC315095  28.388  29.901   9.453
 5968POPC   PO415096  28.337  29.919   9.153
 5968POPC   GL115097  28.396  29.904   8.853
 5968POPC   GL215098  28.256  29.927   8.853
 5968POPC   C1A15099  28.361  29.952   8.553
 5968POPC   D2A15100  28.325  29.887   8.253
 5968POPC   C3A15101  28.388  29.901   7.953
 5968POPC   C4A15102  28.400  29.879   7.653
 5968POPC   C1B15103  28.171  29.890   8.553
 5968POPC   C2B15104  28.170  29.859   8.253
 5968POPC   C3B15105  28.140  29.851   7.953
 5968POPC   C4B15106  28.139  29.878   7.653
 5969POPC   NC315107  33.008  18.265   9.453
 5969POPC   PO415108  33.027  18.246   9.153
 5969POPC   GL115109  33.051  18.265   8.853
 5969POPC   GL215110  32.907  18.239   8.853
 5969POPC   C1A15111  33.057  18.274   8.553
 5969POPC   D2A15112  33.004  18.310   8.253
 5969POPC   C3A15113  33.021  18.314   7.953
 5969POPC   C4A15114  32.999  18.302   7.653
 5969POPC   C1B15115  32.779  18.177   8.553
 5969POPC   C2B15116  32.818  18.095   8.253
 5969POPC   C3B15117  32.819  18.161   7.953
 5969POPC   C4B15118  32.782  18.122   7.653
 5970POPC   NC315119  11.272  44.627   9.453
 5970POPC   PO415120  11.270  44.629   9.153
 5970POPC   GL115121  11.252  44.690   8.853
 5970POPC   GL215122  11.342  44.782   8.853
 5970POPC   C1A15123  11.290  44.669   8.553
 5970POPC   D2A15124  11.277  44.664   8.253
 5970POPC   C3A15125  11.281  44.674   7.953
 5970POPC   C4A15126  11.275  44.641   7.653
 5970POPC   C1B15127  11.373  44.914   8.553
 5970POPC   C2B15128  11.306  44.857   8.253
 5970POPC   C3B15129  11.378  44.894   7.953
 5970POPC   C4B15130  11.383  44.951   7.653
 5971POPC   NC315131  16.699  26.859   9.453
 5971POPC   PO415132  16.683  26.838   9.153
 5971POPC   GL115133  16.755  26.781   8.853
 5971POPC   GL215134  16.767  26.712   8.853
 5971POPC   C1A15135  16.767  26.814   8.553
 5971POPC   D2A15136  16.774  26.799   8.253
 5971POPC   C3A15137  16.681  26.781   7.953
 5971POPC   C4A15138  16.748  26.850   7.653
 5971POPC   C1B15139  16.707  26.556   8.553
 5971POPC   C2B15140  16.798  26.540   8.253
 5971POPC   C3B15141  16.743  26.546   7.953
 5971POPC   C4B15142  16.710  26.568   7.653
 5972POPC   NC315143   8.986  15.158   9.453
 5972POPC   PO415144   8.983  15.194   9.153
 5972POPC   GL115145   8.943  15.132   8.853
 5972POPC   GL215146   8.861  15.220   8.853
 5972POPC   C1A15147   9.013  15.144   8.553
 5972POPC   D2A15148   8.930  15.146   8.253
 5972POPC   C3A15149   8.951  15.215   7.953
 5972POPC   C4A15150   8.982  15.134   7.653
 5972POPC   C1B15151   8.780  15.378   8.553
 5972POPC   C2B15152   8.804  15.339   8.253
 5972POPC   C3B15153   8.811  15.342   7.953
 5972POPC   C4B15154   8.789  15.350   7.653
 5973POPC   NC315155  36.129  10.522   9.453
 5973POPC   PO415156  36.167  10.476   9.153
 5973POPC   GL115157  36.079  10.574   8.853
 5973POPC   GL215158  36.059  10.473   8.853
 5973POPC   C1A15159  36.117  10.503   8.553
 5973POPC   D2A15160  36.157  10.530   8.253
 5973POPC   C3A15161  36.127  10.565   7.953
 5973POPC   C4A15162  36.176  10.499   7.653
 5973POPC   C1B15163  35.903  10.379   8.553
 5973POPC   C2B15164  35.972  10.380   8.253
 5973POPC   C3B15165  35.923  10.362   7.953
 5973POPC   C4B15166  35.969  10.415   7.653
 5974POPC   NC315167  15.137  26.051   9.453
 5974POPC   PO415168  15.225  26.030   9.153
 5974POPC   GL115169  15.222  26.010   8.853
 5974POPC   GL215170  15.169  26.144   8.853
 5974POPC   C1A15171  15.198  26.064   8.553
 5974POPC   D2A15172  15.208  26.084   8.253
 5974POPC   C3A15173  15.191  26.023   7.953
 5974POPC   C4A15174  15.207  26.080   7.653
 5974POPC   C1B15175  15.218  26.279   8.553
 5974POPC   C2B15176  15.180  26.326   8.253
 5974POPC   C3B15177  15.187  26.247   7.953
 5974POPC   C4B15178  15.154  26.264   7.653
 5975POPC   NC315179  12.828  15.962   9.453
 5975POPC   PO415180  12.878  15.999   9.153
 5975POPC   GL115181  12.869  15.923   8.853
 5975POPC   GL215182  12.950  15.934   8.853
 5975POPC   C1A15183  12.855  15.942   8.553
 5975POPC   D2A15184  12.854  15.934   8.253
 5975POPC   C3A15185  12.829  15.929   7.953
 5975POPC   C4A15186  12.806  15.978   7.653
 5975POPC   C1B15187  13.118  16.026   8.553
 5975POPC   C2B15188  13.089  15.958   8.253
 5975POPC   C3B15189  13.052  15.954   7.953
 5975POPC   C4B15190  13.143  16.001   7.653
 5976POPC   NC315191  22.137  40.818   9.453
 5976POPC   PO415192  22.189  40.823   9.153
 5976POPC   GL115193  22.143  40.794   8.853
 5976POPC   GL215194  22.185  40.657   8.853
 5976POPC   C1A15195  22.126  40.736   8.553
 5976POPC   D2A15196  22.207  40.832   8.253
 5976POPC   C3A15197  22.144  40.831   7.953
 5976POPC   C4A15198  22.163  40.742   7.653
 5976POPC   C1B15199  22.316  40.521   8.553
 5976POPC   C2B15200  22.327  40.527   8.253
 5976POPC   C3B15201  22.311  40.532   7.953
 5976POPC   C4B15202  22.295  40.568   7.653
 5977POPC   NC315203  15.145  39.984   9.453
 5977POPC   PO415204  15.175  40.044   9.153
 5977POPC   GL115205  15.148  40.044   8.853
 5977POPC   GL215206  15.073  40.104   8.853
 5977POPC   C1A15207  15.218  39.976   8.553
 5977POPC   D2A15208  15.182  40.033   8.253
 5977POPC   C3A15209  15.159  39.984   7.953
 5977POPC   C4A15210  15.164  40.049   7.653
 5977POPC   C1B15211  14.972  40.093   8.553
 5977POPC   C2B15212  14.988  40.108   8.253
 5977POPC   C3B15213  14.975  40.164   7.953
 5977POPC   C4B15214  14.964  40.148   7.653
 5978POPC   NC315215  19.814  43.923   9.453
 5978POPC   PO415216  19.873  43.868   9.153
 5978POPC   GL115217  19.815  43.905   8.853
 5978POPC   GL215218  19.934  43.920   8.853
 5978POPC   C1A15219  19.839  43.891   8.553
 5978POPC   D2A15220  19.880  43.923   8.253
 5978POPC   C3A15221  19.875  43.907   7.953
 5978POPC   C4A15222  19.855  43.849   7.653
 5978POPC   C1B15223  20.060  43.910   8.553
 5978POPC   C2B15224  20.085  43.917   8.253
 5978POPC   C3B15225  20.099  43.923   7.953
 5978POPC   C4B15226  20.047  43.975   7.653
 5979POPC   NC315227  16.771  17.527   9.453
 5979POPC   PO415228  16.742  17.553   9.153
 5979POPC   GL115229  16.737  17.524   8.853
 5979POPC   GL215230  16.698  17.584   8.853
 5979POPC   C1A15231  16.737  17.463   8.553
 5979POPC   D2A15232  16.749  17.459   8.253
 5979POPC   C3A15233  16.750  17.535   7.953
 5979POPC   C4A15234  16.686  17.511   7.653
 5979POPC   C1B15235  16.685  17.795   8.553
 5979POPC   C2B15236  16.699  17.779   8.253
 5979POPC   C3B15237  16.748  17.729   7.953
 5979POPC   C4B15238  16.687  17.757   7.653
 5980POPC   NC315239  42.286   3.554   9.453
 5980POPC   PO415240  42.338   3.512   9.153
 5980POPC   GL115241  42.353   3.524   8.853
 5980POPC   GL215242  42.251   3.451   8.853
 5980POPC   C1A15243  42.315   3.528   8.553
 5980POPC   D2A15244  42.304   3.503   8.253
 5980POPC   C3A15245  42.286   3.501   7.953
 5980POPC   C4A15246  42.292   3.549   7.653
 5980POPC   C1B15247  42.222   3.396   8.553
 5980POPC   C2B15248  42.204   3.300   8.253
 5980POPC   C3B15249  42.137   3.356   7.953
 5980POPC   C4B15250  42.170   3.360   7.653
 5981POPC   NC315251  20.590  31.480   9.453
 5981POPC   PO415252  20.608  31.475   9.153
 5981POPC   GL115253  20.657  31.520   8.853
 5981POPC   GL215254  20.692  31.586   8.853
 5981POPC   C1A15255  20.582  31.475   8.553
 5981POPC   D2A15256  20.646  31.510   8.253
 5981POPC   C3A15257  20.587  31.502   7.953
 5981POPC   C4A15258  20.634  31.446   7.653
 5981POPC   C1B15259  20.793  31.710   8.553
 5981POPC   C2B15260  20.782  31.701   8.253
 5981POPC   C3B15261  20.750  31.640   7.953
 5981POPC   C4B15262  20.774  31.653   7.653
 5982POPC   NC315263  22.208   8.241   9.453
 5982POPC   PO415264  22.130   8.201   9.153
 5982POPC   GL115265  22.157   8.148   8.853
 5982POPC   GL215266  22.033   8.145   8.853
 5982POPC   C1A15267  22.146   8.225   8.553
 5982POPC   D2A15268  22.127   8.149   8.253
 5982POPC   C3A15269  22.186   8.175   7.953
 5982POPC   C4A15270  22.115   8.191   7.653
 5982POPC   C1B15271  21.972   8.127   8.553
 5982POPC   C2B15272  21.947   8.132   8.253
 5982POPC   C3B15273  21.919   8.067   7.953
 5982POPC   C4B15274  21.876   8.074   7.653
 5983POPC   NC315275   6.651   7.430   9.453
 5983POPC   PO415276   6.674   7.443   9.153
 5983POPC   GL115277   6.642   7.386   8.853
 5983POPC   GL215278   6.690   7.281   8.853
 5983POPC   C1A15279   6.649   7.372   8.553
 5983POPC   D2A15280   6.669   7.437   8.253
 5983POPC   C3A15281   6.679   7.432   7.953
 5983POPC   C4A15282   6.673   7.465   7.653
 5983POPC   C1B15283   6.748   7.206   8.553
 5983POPC   C2B15284   6.744   7.142   8.253
 5983POPC   C3B15285   6.793   7.218   7.953
 5983POPC   C4B15286   6.694   7.206   7.653
 5984POPC   NC315287  43.923  11.319   9.453
 5984POPC   PO415288  43.878  11.266   9.153
 5984POPC   GL115289  43.923  11.323   8.853
 5984POPC   GL215290  43.947  11.415   8.853
 5984POPC   C1A15291  43.899  11.338   8.553
 5984POPC   D2A15292  43.916  11.343   8.253
 5984POPC   C3A15293  43.853  11.291   7.953
 5984POPC   C4A15294  43.877  11.305   7.653
 5984POPC   C1B15295  44.013  11.532   8.553
 5984POPC   C2B15296  44.085  11.508   8.253
 5984POPC   C3B15297  44.057  11.504   7.953
 5984POPC   C4B15298  44.020  11.491   7.653
 5985POPC   NC315299  18.286  10.500   9.453
 5985POPC   PO415300  18.275  10.495   9.153
 5985POPC   GL115301  18.246  10.492   8.853
 5985POPC   GL215302  18.154  10.503   8.853
 5985POPC   C1A15303  18.329  10.512   8.553
 5985POPC   D2A15304  18.295  10.530   8.253
 5985POPC   C3A15305  18.245  10.496   7.953
 5985POPC   C4A15306  18.313  10.521   7.653
 5985POPC   C1B15307  18.049  10.392   8.553
 5985POPC   C2B15308  18.012  10.384   8.253
 5985POPC   C3B15309  18.012  10.437   7.953
 5985POPC   C4B15310  18.021  10.460   7.653
 5986POPC   NC315311  28.396  18.239   9.453
 5986POPC   PO415312  28.365  18.307   9.153
 5986POPC   GL115313  28.375  18.285   8.853
 5986POPC   GL215314  28.430  18.354   8.853
 5986POPC   C1A15315  28.404  18.313   8.553
 5986POPC   D2A15316  28.414  18.275   8.253
 5986POPC   C3A15317  28.344  18.328   7.953
 5986POPC   C4A15318  28.381  18.331   7.653
 5986POPC   C1B15319  28.456  18.509   8.553
 5986POPC   C2B15320  28.463  18.569   8.253
 5986POPC   C3B15321  28.455  18.522   7.953
 5986POPC   C4B15322  28.484  18.514   7.653
 5987POPC   NC315323  22.918  23.675   9.453
 5987POPC   PO415324  22.965  23.699   9.153
 5987POPC   GL115325  22.947  23.713   8.853
 5987POPC   GL215326  22.944  23.614   8.853
 5987POPC   C1A15327  22.908  23.751   8.553
 5987POPC   D2A15328  22.950  23.743   8.253
 5987POPC   C3A15329  22.930  23.744   7.953
 5987POPC   C4A15330  22.927  23.745   7.653
 5987POPC   C1B15331  22.950  23.475   8.553
 5987POPC   C2B15332  22.899  23.509   8.253
 5987POPC   C3B15333  22.910  23.474   7.953
 5987POPC   C4B15334  22.887  23.460   7.653
 5988POPC   NC315335   0.438  21.398   9.453
 5988POPC   PO415336   0.393  21.372   9.153
 5988POPC   GL115337   0.447  21.357   8.853
 5988POPC   GL215338   0.308  21.318   8.853
 5988POPC   C1A15339   0.391  21.382   8.553
 5988POPC   D2A15340   0.453  21.418   8.253
 5988POPC   C3A15341   0.487  21.355   7.953
 5988POPC   C4A15342   0.395  21.355   7.653
 5988POPC   C1B15343   0.293  21.235   8.553
 5988POPC   C2B15344   0.252  21.234   8.253
 5988POPC   C3B15345   0.249  21.159   7.953
 5988POPC   C4B15346   0.260  21.205   7.653
 5989POPC   NC315347  38.418  29.099   9.453
 5989POPC   PO415348  38.481  29.134   9.153
 5989POPC   GL115349  38.424  29.132   8.853
 5989POPC   GL215350  38.357  29.113   8.853
 5989POPC   C1A15351  38.413  29.187   8.553
 5989POPC   D2A15352  38.467  29.171   8.253
 5989POPC   C3A15353  38.446  29.148   7.953
 5989POPC   C4A15354  38.451  29.144   7.653
 5989POPC   C1B15355  38.212  29.130   8.553
 5989POPC   C2B15356  38.220  29.067   8.253
 5989POPC   C3B15357  38.209  29.084   7.953
 5989POPC   C4B15358  38.170  29.145   7.653
 5990POPC   NC315359  41.544  20.573   9.453
 5990POPC   PO415360  41.511  20.592   9.153
 5990POPC   GL115361  41.543  20.657   8.853
 5990POPC   GL215362  41.406  20.536   8.853
 5990POPC   C1A15363  41.580  20.587   8.553
 5990POPC   D2A15364  41.558  20.566   8.253
 5990POPC   C3A15365  41.521  20.650   7.953
 5990POPC   C4A15366  41.580  20.640   7.653
 5990POPC   C1B15367  41.339  20.548   8.553
 5990POPC   C2B15368  41.314  20.538   8.253
 5990POPC   C3B15369  41.350  20.475   7.953
 5990POPC   C4B15370  41.292  20.479   7.653
 5991POPC   NC315371  32.242  28.383   9.453
 5991POPC   PO415372  32.227  28.347   9.153
 5991POPC   GL115373  32.252  28.405   8.853
 5991POPC   GL215374  32.157  28.463   8.853
 5991POPC   C1A15375  32.222  28.326   8.553
 5991POPC   D2A15376  32.284  28.409   8.253
 5991POPC   C3A15377  32.269  28.323   7.953
 5991POPC   C4A15378  32.243  28.341   7.653
 5991POPC   C1B15379  32.080  28.542   8.553
 5991POPC   C2B15380  32.115  28.528   8.253
 5991POPC   C3B15381  32.064  28.544   7.953
 5991POPC   C4B15382  32.062  28.518   7.653
 5992POPC   NC315383  25.281  16.690   9.453
 5992POPC   PO415384  25.233  16.757   9.153
 5992POPC   GL115385  25.286  16.766   8.853
 5992POPC   GL215386  25.228  16.887   8.853
 5992POPC   C1A15387  25.297  16.681   8.553
 5992POPC   D2A15388  25.283  16.696   8.253
 5992POPC   C3A15389  25.261  16.761   7.953
 5992POPC   C4A15390  25.266  16.715   7.653
 5992POPC   C1B15391  25.250  16.945   8.553
 5992POPC   C2B15392  25.236  17.003   8.253
 5992POPC   C3B15393  25.259  16.935   7.953
 5992POPC   C4B15394  25.243  16.974   7.653
 5993POPC   NC315395   5.888   8.971   9.453
 5993POPC   PO415396   5.826   8.980   9.153
 5993POPC   GL115397   5.912   8.998   8.853
 5993POPC   GL215398   5.912   9.075   8.853
 5993POPC   C1A15399   5.881   8.935   8.553
 5993POPC   D2A15400   5.869   9.006   8.253
 5993POPC   C3A15401   5.862   8.967   7.953
 5993POPC   C4A15402   5.917   9.018   7.653
 5993POPC   C1B15403   5.995   9.194   8.553
 5993POPC   C2B15404   6.000   9.203   8.253
 5993POPC   C3B15405   6.002   9.181   7.953
 5993POPC   C4B15406   6.008   9.161   7.653
 5994POPC   NC315407  40.036  37.688   9.453
 5994POPC   PO415408  39.981  37.653   9.153
 5994POPC   GL115409  39.972  37.713   8.853
 5994POPC   GL215410  40.063  37.546   8.853
 5994POPC   C1A15411  39.988  37.690   8.553
 5994POPC   D2A15412  39.966  37.654   8.253
 5994POPC   C3A15413  40.042  37.665   7.953
 5994POPC   C4A15414  40.020  37.681   7.653
 5994POPC   C1B15415  40.096  37.445   8.553
 5994POPC   C2B15416  40.011  37.396   8.253
 5994POPC   C3B15417  40.047  37.404   7.953
 5994POPC   C4B15418  40.059  37.467   7.653
 5995POPC   NC315419  26.069   2.009   9.453
 5995POPC   PO415420  26.071   2.022   9.153
 5995POPC   GL115421  26.072   1.948   8.853
 5995POPC   GL215422  26.127   1.855   8.853
 5995POPC   C1A15423  25.996   2.000   8.553
 5995POPC   D2A15424  26.011   1.960   8.253
 5995POPC   C3A15425  26.012   1.981   7.953
 5995POPC   C4A15426  26.013   2.015   7.653
 5995POPC   C1B15427  26.151   1.804   8.553
 5995POPC   C2B15428  26.161   1.816   8.253
 5995POPC   C3B15429  26.216   1.829   7.953
 5995POPC   C4B15430  26.178   1.774   7.653
 5996POPC   NC315431  40.049  26.085   9.453
 5996POPC   PO415432  40.000  25.994   9.153
 5996POPC   GL115433  40.006  26.050   8.853
 5996POPC   GL215434  40.121  26.060   8.853
 5996POPC   C1A15435  39.961  26.029   8.553
 5996POPC   D2A15436  40.009  26.070   8.253
 5996POPC   C3A15437  40.023  26.064   7.953
 5996POPC   C4A15438  39.998  26.074   7.653
 5996POPC   C1B15439  40.210  25.962   8.553
 5996POPC   C2B15440  40.291  25.975   8.253
 5996POPC   C3B15441  40.284  25.957   7.953
 5996POPC   C4B15442  40.232  26.036   7.653
 5997POPC   NC315443  23.678  21.353   9.453
 5997POPC   PO415444  23.716  21.402   9.153
 5997POPC   GL115445  23.716  21.344   8.853
 5997POPC   GL215446  23.633  21.288   8.853
 5997POPC   C1A15447  23.732  21.391   8.553
 5997POPC   D2A15448  23.745  21.348   8.253
 5997POPC   C3A15449  23.725  21.339   7.953
 5997POPC   C4A15450  23.695  21.391   7.653
 5997POPC   C1B15451  23.600  21.187   8.553
 5997POPC   C2B15452  23.611  21.145   8.253
 5997POPC   C3B15453  23.620  21.118   7.953
 5997POPC   C4B15454  23.615  21.122   7.653
 5998POPC   NC315455  27.622   8.947   9.453
 5998POPC   PO415456  27.624   9.008   9.153
 5998POPC   GL115457  27.556   8.956   8.853
 5998POPC   GL215458  27.670   9.025   8.853
 5998POPC   C1A15459  27.604   8.994   8.553
 5998POPC   D2A15460  27.639   8.933   8.253
 5998POPC   C3A15461  27.545   8.997   7.953
 5998POPC   C4A15462  27.551   8.950   7.653
 5998POPC   C1B15463  27.763   9.203   8.553
 5998POPC   C2B15464  27.719   9.222   8.253
 5998POPC   C3B15465  27.749   9.221   7.953
 5998POPC   C4B15466  27.786   9.171   7.653
 5999POPC   NC315467  11.262  31.448   9.453
 5999POPC   PO415468  11.288  31.438   9.153
 5999POPC   GL115469  11.316  31.426   8.853
 5999POPC   GL215470  11.394  31.511   8.853
 5999POPC   C1A15471  11.326  31.441   8.553
 5999POPC   D2A15472  11.294  31.464   8.253
 5999POPC   C3A15473  11.344  31.484   7.953
 5999POPC   C4A15474  11.341  31.443   7.653
 5999POPC   C1B15475  11.543  31.582   8.553
 5999POPC   C2B15476  11.551  31.608   8.253
 5999POPC   C3B15477  11.480  31.622   7.953
 5999POPC   C4B15478  11.480  31.591   7.653
 6000POPC   NC315479  15.969   9.017   9.453
 6000POPC   PO415480  15.912   8.938   9.153
 6000POPC   GL115481  15.974   8.957   8.853
 6000POPC   GL215482  15.978   9.110   8.853
 6000POPC   C1A15483  16.000   8.927   8.553
 6000POPC   D2A15484  15.989   9.020   8.253
 6000POPC   C3A15485  15.941   8.966   7.953
 6000POPC   C4A15486  16.000   9.006   7.653
 6000POPC   C1B15487  15.918   9.194   8.553
 6000POPC   C2B15488  15.924   9.213   8.253
 6000POPC   C3B15489  15.946   9.254   7.953
 6000POPC   C4B15490  15.920   9.195   7.653
 6001POPC   NC315491   1.197  41.568   9.453
 6001POPC   PO415492   1.243  41.575   9.153
 6001POPC   GL115493   1.261  41.587   8.853
 6001POPC   GL215494   1.060  41.602   8.853
 6001POPC   C1A15495   1.255  41.558   8.553
 6001POPC   D2A15496   1.186  41.554   8.253
 6001POPC   C3A15497   1.247  41.588   7.953
 6001POPC   C4A15498   1.168  41.545   7.653
 6001POPC   C1B15499   0.949  41.586   8.553
 6001POPC   C2B15500   1.005  41.636   8.253
 6001POPC   C3B15501   0.950  41.573   7.953
 6001POPC   C4B15502   1.001  41.650   7.653
 6002POPC   NC315503  39.230   5.890   9.453
 6002POPC   PO415504  39.219   5.904   9.153
 6002POPC   GL115505  39.184   5.907   8.853
 6002POPC   GL215506  39.234   5.706   8.853
 6002POPC   C1A15507  39.211   5.873   8.553
 6002POPC   D2A15508  39.251   5.902   8.253
 6002POPC   C3A15509  39.205   5.863   7.953
 6002POPC   C4A15510  39.260   5.885   7.653
 6002POPC   C1B15511  39.187   5.605   8.553
 6002POPC   C2B15512  39.260   5.631   8.253
 6002POPC   C3B15513  39.249   5.574   7.953
 6002POPC   C4B15514  39.204   5.644   7.653
 6003POPC   NC315515  29.191  28.328   9.453
 6003POPC   PO415516  29.119  28.359   9.153
 6003POPC   GL115517  29.143  28.389   8.853
 6003POPC   GL215518  29.141  28.245   8.853
 6003POPC   C1A15519  29.171  28.354   8.553
 6003POPC   D2A15520  29.137  28.363   8.253
 6003POPC   C3A15521  29.162  28.345   7.953
 6003POPC   C4A15522  29.105  28.396   7.653
 6003POPC   C1B15523  29.091  28.112   8.553
 6003POPC   C2B15524  29.028  28.111   8.253
 6003POPC   C3B15525  29.025  28.098   7.953
 6003POPC   C4B15526  29.085  28.089   7.653
 6004POPC   NC315527  35.339  27.579   9.453
 6004POPC   PO415528  35.339  27.639   9.153
 6004POPC   GL115529  35.308  27.575   8.853
 6004POPC   GL215530  35.466  27.587   8.853
 6004POPC   C1A15531  35.390  27.578   8.553
 6004POPC   D2A15532  35.304  27.560   8.253
 6004POPC   C3A15533  35.344  27.563   7.953
 6004POPC   C4A15534  35.354  27.573   7.653
 6004POPC   C1B15535  35.579  27.628   8.553
 6004POPC   C2B15536  35.638  27.635   8.253
 6004POPC   C3B15537  35.617  27.578   7.953
 6004POPC   C4B15538  35.608  27.551   7.653
 6005POPC   NC315539   6.673  28.418   9.453
 6005POPC   PO415540   6.689  28.321   9.153
 6005POPC   GL115541   6.636  28.361   8.853
 6005POPC   GL215542   6.624  28.526   8.853
 6005POPC   C1A15543   6.627  28.375   8.553
 6005POPC   D2A15544   6.669  28.399   8.253
 6005POPC   C3A15545   6.638  28.392   7.953
 6005POPC   C4A15546   6.643  28.407   7.653
 6005POPC   C1B15547   6.537  28.614   8.553
 6005POPC   C2B15548   6.531  28.654   8.253
 6005POPC   C3B15549   6.582  28.566   7.953
 6005POPC   C4B15550   6.602  28.650   7.653
 6006POPC   NC315551  25.290  19.038   9.453
 6006POPC   PO415552  25.268  19.054   9.153
 6006POPC   GL115553  25.300  19.071   8.853
 6006POPC   GL215554  25.136  19.010   8.853
 6006POPC   C1A15555  25.306  19.086   8.553
 6006POPC   D2A15556  25.243  19.026   8.253
 6006POPC   C3A15557  25.303  19.051   7.953
 6006POPC   C4A15558  25.303  19.057   7.653
 6006POPC   C1B15559  25.015  18.997   8.553
 6006POPC   C2B15560  25.085  18.924   8.253
 6006POPC   C3B15561  25.006  18.966   7.953
 6006POPC   C4B15562  25.024  18.927   7.653
 6007POPC   NC315563  19.046  26.803   9.453
 6007POPC   PO415564  19.053  26.855   9.153
 6007POPC   GL115565  19.010  26.808   8.853
 6007POPC   GL215566  19.141  26.738   8.853
 6007POPC   C1A15567  19.108  26.833   8.553
 6007POPC   D2A15568  19.062  26.819   8.253
 6007POPC   C3A15569  19.014  26.811   7.953
 6007POPC   C4A15570  19.054  26.834   7.653
 6007POPC   C1B15571  19.211  26.566   8.553
 6007POPC   C2B15572  19.203  26.565   8.253
 6007POPC   C3B15573  19.191  26.657   7.953
 6007POPC   C4B15574  19.190  26.588   7.653
 6008POPC   NC315575  19.833  29.887   9.453
 6008POPC   PO415576  19.793  29.924   9.153
 6008POPC   GL115577  19.884  29.919   8.853
 6008POPC   GL215578  19.787  30.004   8.853
 6008POPC   C1A15579  19.846  29.893   8.553
 6008POPC   D2A15580  19.877  29.891   8.253
 6008POPC   C3A15581  19.807  29.940   7.953
 6008POPC   C4A15582  19.812  29.911   7.653
 6008POPC   C1B15583  19.788  30.129   8.553
 6008POPC   C2B15584  19.733  30.105   8.253
 6008POPC   C3B15585  19.770  30.152   7.953
 6008POPC   C4B15586  19.713  30.115   7.653
 6009POPC   NC315587  31.436  36.945   9.453
 6009POPC   PO415588  31.495  36.870   9.153
 6009POPC   GL115589  31.437  36.921   8.853
 6009POPC   GL215590  31.567  36.857   8.853
 6009POPC   C1A15591  31.465  36.876   8.553
 6009POPC   D2A15592  31.444  36.856   8.253
 6009POPC   C3A15593  31.500  36.871   7.953
 6009POPC   C4A15594  31.507  36.952   7.653
 6009POPC   C1B15595  31.710  36.770   8.553
 6009POPC   C2B15596  31.693  36.792   8.253
 6009POPC   C3B15597  31.713  36.810   7.953
 6009POPC   C4B15598  31.743  36.839   7.653
 6010POPC   NC315599  41.523  34.534   9.453
 6010POPC   PO415600  41.531  34.594   9.153
 6010POPC   GL115601  41.589  34.576   8.853
 6010POPC   GL215602  41.517  34.488   8.853
 6010POPC   C1A15603  41.541  34.545   8.553
 6010POPC   D2A15604  41.519  34.557   8.253
 6010POPC   C3A15605  41.536  34.561   7.953
 6010POPC   C4A15606  41.603  34.559   7.653
 6010POPC   C1B15607  41.486  34.372   8.553
 6010POPC   C2B15608  41.495  34.321   8.253
 6010POPC   C3B15609  41.448  34.379   7.953
 6010POPC   C4B15610  41.485  34.315   7.653
 6011POPC   NC315611   3.508  41.516   9.453
 6011POPC   PO415612   3.577  41.547   9.153
 6011POPC   GL115613   3.503  41.527   8.853
 6011POPC   GL215614   3.473  41.630   8.853
 6011POPC   C1A15615   3.517  41.577   8.553
 6011POPC   D2A15616   3.541  41.573   8.253
 6011POPC   C3A15617   3.563  41.563   7.953
 6011POPC   C4A15618   3.513  41.567   7.653
 6011POPC   C1B15619   3.342  41.664   8.553
 6011POPC   C2B15620   3.313  41.661   8.253
 6011POPC   C3B15621   3.324  41.753   7.953
 6011POPC   C4B15622   3.367  41.749   7.653
 6012POPC   NC315623  28.344  38.502   9.453
 6012POPC   PO415624  28.385  38.432   9.153
 6012POPC   GL115625  28.384  38.453   8.853
 6012POPC   GL215626  28.354  38.574   8.853
 6012POPC   C1A15627  28.410  38.435   8.553
 6012POPC   D2A15628  28.348  38.437   8.253
 6012POPC   C3A15629  28.320  38.490   7.953
 6012POPC   C4A15630  28.402  38.436   7.653
 6012POPC   C1B15631  28.295  38.671   8.553
 6012POPC   C2B15632  28.359  38.695   8.253
 6012POPC   C3B15633  28.359  38.749   7.953
 6012POPC   C4B15634  28.297  38.659   7.653
 6013POPC   NC315635  26.810   1.260   9.453
 6013POPC   PO415636  26.786   1.170   9.153
 6013POPC   GL115637  26.785   1.252   8.853
 6013POPC   GL215638  26.870   1.334   8.853
 6013POPC   C1A15639  26.810   1.229   8.553
 6013POPC   D2A15640  26.838   1.166   8.253
 6013POPC   C3A15641  26.848   1.173   7.953
 6013POPC   C4A15642  26.789   1.230   7.653
 6013POPC   C1B15643  26.859   1.506   8.553
 6013POPC   C2B15644  26.850   1.440   8.253
 6013POPC   C3B15645  26.847   1.444   7.953
 6013POPC   C4B15646  26.813   1.424   7.653
 6014POPC   NC315647  13.665  36.947   9.453
 6014POPC   PO415648  13.647  36.858   9.153
 6014POPC   GL115649  13.631  36.874   8.853
 6014POPC   GL215650  13.690  36.987   8.853
 6014POPC   C1A15651  13.677  36.915   8.553
 6014POPC   D2A15652  13.676  36.933   8.253
 6014POPC   C3A15653  13.641  36.905   7.953
 6014POPC   C4A15654  13.603  36.937   7.653
 6014POPC   C1B15655  13.807  37.009   8.553
 6014POPC   C2B15656  13.894  36.974   8.253
 6014POPC   C3B15657  13.813  37.005   7.953
 6014POPC   C4B15658  13.896  36.984   7.653
 6015POPC   NC315659  29.916   2.722   9.453
 6015POPC   PO415660  29.938   2.723   9.153
 6015POPC   GL115661  29.878   2.765   8.853
 6015POPC   GL215662  30.011   2.672   8.853
 6015POPC   C1A15663  29.878   2.739   8.553
 6015POPC   D2A15664  29.881   2.726   8.253
 6015POPC   C3A15665  29.875   2.793   7.953
 6015POPC   C4A15666  29.950   2.801   7.653
 6015POPC   C1B15667  30.127   2.587   8.553
 6015POPC   C2B15668  30.087   2.606   8.253
 6015POPC   C3B15669  30.085   2.558   7.953
 6015POPC   C4B15670  30.137   2.617   7.653
 6016POPC   NC315671  42.362  19.077   9.453
 6016POPC   PO415672  42.306  19.089   9.153
 6016POPC   GL115673  42.338  19.054   8.853
 6016POPC   GL215674  42.414  18.994   8.853
 6016POPC   C1A15675  42.337  19.102   8.553
 6016POPC   D2A15676  42.288  19.085   8.253
 6016POPC   C3A15677  42.373  19.009   7.953
 6016POPC   C4A15678  42.341  19.062   7.653
 6016POPC   C1B15679  42.541  18.978   8.553
 6016POPC   C2B15680  42.609  19.001   8.253
 6016POPC   C3B15681  42.537  19.022   7.953
 6016POPC   C4B15682  42.623  18.980   7.653
 6017POPC   NC315683  24.462  19.052   9.453
 6017POPC   PO415684  24.486  19.056   9.153
 6017POPC   GL115685  24.477  19.016   8.853
 6017POPC   GL215686  24.400  18.964   8.853
 6017POPC   C1A15687  24.522  19.040   8.553
 6017POPC   D2A15688  24.447  19.031   8.253
 6017POPC   C3A15689  24.491  19.067   7.953
 6017POPC   C4A15690  24.508  19.094   7.653
 6017POPC   C1B15691  24.290  18.853   8.553
 6017POPC   C2B15692  24.289  18.894   8.253
 6017POPC   C3B15693  24.352  18.903   7.953
 6017POPC   C4B15694  24.309  18.834   7.653
 6018POPC   NC315695  40.827  33.754   9.453
 6018POPC   PO415696  40.809  33.817   9.153
 6018POPC   GL115697  40.738  33.799   8.853
 6018POPC   GL215698  40.644  33.835   8.853
 6018POPC   C1A15699  40.755  33.767   8.553
 6018POPC   D2A15700  40.758  33.813   8.253
 6018POPC   C3A15701  40.791  33.770   7.953
 6018POPC   C4A15702  40.796  33.813   7.653
 6018POPC   C1B15703  40.522  33.923   8.553
 6018POPC   C2B15704  40.529  33.904   8.253
 6018POPC   C3B15705  40.538  33.915   7.953
 6018POPC   C4B15706  40.588  33.940   7.653
 6019POPC   NC315707  41.594  38.468   9.453
 6019POPC   PO415708  41.566  38.423   9.153
 6019POPC   GL115709  41.560  38.460   8.853
 6019POPC   GL215710  41.491  38.376   8.853
 6019POPC   C1A15711  41.573  38.478   8.553
 6019POPC   D2A15712  41.553  38.416   8.253
 6019POPC   C3A15713  41.580  38.422   7.953
 6019POPC   C4A15714  41.571  38.438   7.653
 6019POPC   C1B15715  41.382  38.339   8.553
 6019POPC   C2B15716  41.335  38.259   8.253
 6019POPC   C3B15717  41.388  38.338   7.953
 6019POPC   C4B15718  41.337  38.249   7.653
 6020POPC   NC315719   8.209   5.861   9.453
 6020POPC   PO415720   8.185   5.830   9.153
 6020POPC   GL115721   8.199   5.880   8.853
 6020POPC   GL215722   8.331   5.943   8.853
 6020POPC   C1A15723   8.183   5.845   8.553
 6020POPC   D2A15724   8.209   5.902   8.253
 6020POPC   C3A15725   8.176   5.826   7.953
 6020POPC   C4A15726   8.165   5.912   7.653
 6020POPC   C1B15727   8.413   5.968   8.553
 6020POPC   C2B15728   8.379   5.977   8.253
 6020POPC   C3B15729   8.412   6.059   7.953
 6020POPC   C4B15730   8.376   5.984   7.653
 6021POPC   NC315731  20.560  19.092   9.453
 6021POPC   PO415732  20.622  19.039   9.153
 6021POPC   GL115733  20.639  19.083   8.853
 6021POPC   GL215734  20.670  18.956   8.853
 6021POPC   C1A15735  20.565  19.054   8.553
 6021POPC   D2A15736  20.587  19.025   8.253
 6021POPC   C3A15737  20.600  19.055   7.953
 6021POPC   C4A15738  20.609  19.026   7.653
 6021POPC   C1B15739  20.604  18.826   8.553
 6021POPC   C2B15740  20.643  18.858   8.253
 6021POPC   C3B15741  20.590  18.834   7.953
 6021POPC   C4B15742  20.628  18.772   7.653
 6022POPC   NC315743  38.456  24.465   9.453
 6022POPC   PO415744  38.413  24.462   9.153
 6022POPC   GL115745  38.405  24.452   8.853
 6022POPC   GL215746  38.561  24.433   8.853
 6022POPC   C1A15747  38.463  24.455   8.553
 6022POPC   D2A15748  38.445  24.461   8.253
 6022POPC   C3A15749  38.448  24.531   7.953
 6022POPC   C4A15750  38.415  24.536   7.653
 6022POPC   C1B15751  38.627  24.325   8.553
 6022POPC   C2B15752  38.606  24.250   8.253
 6022POPC   C3B15753  38.557  24.306   7.953
 6022POPC   C4B15754  38.573  24.261   7.653
 6023POPC   NC315755  33.782  20.628   9.453
 6023POPC   PO415756  33.831  20.621   9.153
 6023POPC   GL115757  33.802  20.637   8.853
 6023POPC   GL215758  33.832  20.777   8.853
 6023POPC   C1A15759  33.792  20.614   8.553
 6023POPC   D2A15760  33.813  20.620   8.253
 6023POPC   C3A15761  33.765  20.564   7.953
 6023POPC   C4A15762  33.839  20.586   7.653
 6023POPC   C1B15763  33.815  20.844   8.553
 6023POPC   C2B15764  33.808  20.902   8.253
 6023POPC   C3B15765  33.801  20.893   7.953
 6023POPC   C4B15766  33.862  20.814   7.653
 6024POPC   NC315767  12.804   3.575   9.453
 6024POPC   PO415768  12.840   3.568   9.153
 6024POPC   GL115769  12.852   3.569   8.853
 6024POPC   GL215770  12.843   3.393   8.853
 6024POPC   C1A15771  12.886   3.574   8.553
 6024POPC   D2A15772  12.830   3.537   8.253
 6024POPC   C3A15773  12.833   3.567   7.953
 6024POPC   C4A15774  12.851   3.575   7.653
 6024POPC   C1B15775  12.731   3.270   8.553
 6024POPC   C2B15776  12.767   3.340   8.253
 6024POPC   C3B15777  12.753   3.317   7.953
 6024POPC   C4B15778  12.735   3.345   7.653
 6025POPC   NC315779   9.759  43.905   9.453
 6025POPC   PO415780   9.714  43.930   9.153
 6025POPC   GL115781   9.752  43.854   8.853
 6025POPC   GL215782   9.690  43.834   8.853
 6025POPC   C1A15783   9.731  43.925   8.553
 6025POPC   D2A15784   9.731  43.851   8.253
 6025POPC   C3A15785   9.743  43.892   7.953
 6025POPC   C4A15786   9.749  43.866   7.653
 6025POPC   C1B15787   9.596  43.721   8.553
 6025POPC   C2B15788   9.555  43.716   8.253
 6025POPC   C3B15789   9.547  43.659   7.953
 6025POPC   C4B15790   9.570  43.719   7.653
 6026POPC   NC315791   7.440   1.972   9.453
 6026POPC   PO415792   7.429   2.026   9.153
 6026POPC   GL115793   7.443   2.017   8.853
 6026POPC   GL215794   7.305   1.956   8.853
 6026POPC   C1A15795   7.391   2.027   8.553
 6026POPC   D2A15796   7.467   2.016   8.253
 6026POPC   C3A15797   7.467   1.979   7.953
 6026POPC   C4A15798   7.433   1.995   7.653
 6026POPC   C1B15799   7.199   2.025   8.553
 6026POPC   C2B15800   7.199   1.985   8.253
 6026POPC   C3B15801   7.194   2.036   7.953
 6026POPC   C4B15802   7.183   1.979   7.653
 6027POPC   NC315803   0.389  22.183   9.453
 6027POPC   PO415804   0.442  22.210   9.153
 6027POPC   GL115805   0.436  22.164   8.853
 6027POPC   GL215806   0.444  22.247   8.853
 6027POPC   C1A15807   0.444  22.211   8.553
 6027POPC   D2A15808   0.453  22.193   8.253
 6027POPC   C3A15809   0.449  22.123   7.953
 6027POPC   C4A15810   0.406  22.142   7.653
 6027POPC   C1B15811   0.424  22.419   8.553
 6027POPC   C2B15812   0.393  22.429   8.253
 6027POPC   C3B15813   0.447  22.434   7.953
 6027POPC   C4B15814   0.461  22.369   7.653
 6028POPC   NC315815  22.937  29.141   9.453
 6028POPC   PO415816  22.903  29.166   9.153
 6028POPC   GL115817  22.980  29.173   8.853
 6028POPC   GL215818  23.105  29.100   8.853
 6028POPC   C1A15819  22.963  29.181   8.553
 6028POPC   D2A15820  22.961  29.162   8.253
 6028POPC   C3A15821  22.972  29.116   7.953
 6028POPC   C4A15822  22.979  29.146   7.653
 6028POPC   C1B15823  23.206  29.117   8.553
 6028POPC   C2B15824  23.221  29.154   8.253
 6028POPC   C3B15825  23.194  29.111   7.953
 6028POPC   C4B15826  23.142  29.164   7.653
 6029POPC   NC315827  36.094  27.604   9.453
 6029POPC   PO415828  36.082  27.588   9.153
 6029POPC   GL115829  36.150  27.544   8.853
 6029POPC   GL215830  36.071  27.482   8.853
 6029POPC   C1A15831  36.107  27.640   8.553
 6029POPC   D2A15832  36.120  27.555   8.253
 6029POPC   C3A15833  36.169  27.583   7.953
 6029POPC   C4A15834  36.167  27.546   7.653
 6029POPC   C1B15835  36.023  27.373   8.553
 6029POPC   C2B15836  35.961  27.373   8.253
 6029POPC   C3B15837  36.030  27.370   7.953
 6029POPC   C4B15838  35.982  27.403   7.653
 6030POPC   NC315839   1.236   6.659   9.453
 6030POPC   PO415840   1.185   6.653   9.153
 6030POPC   GL115841   1.177   6.601   8.853
 6030POPC   GL215842   1.247   6.477   8.853
 6030POPC   C1A15843   1.217   6.603   8.553
 6030POPC   D2A15844   1.166   6.690   8.253
 6030POPC   C3A15845   1.189   6.664   7.953
 6030POPC   C4A15846   1.180   6.653   7.653
 6030POPC   C1B15847   1.247   6.378   8.553
 6030POPC   C2B15848   1.291   6.367   8.253
 6030POPC   C3B15849   1.282   6.374   7.953
 6030POPC   C4B15850   1.277   6.384   7.653
 6031POPC   NC315851   6.611  15.146   9.453
 6031POPC   PO415852   6.606  15.200   9.153
 6031POPC   GL115853   6.626  15.226   8.853
 6031POPC   GL215854   6.788  15.191   8.853
 6031POPC   C1A15855   6.652  15.181   8.553
 6031POPC   D2A15856   6.621  15.208   8.253
 6031POPC   C3A15857   6.628  15.184   7.953
 6031POPC   C4A15858   6.619  15.143   7.653
 6031POPC   C1B15859   6.913  15.230   8.553
 6031POPC   C2B15860   6.830  15.272   8.253
 6031POPC   C3B15861   6.912  15.251   7.953
 6031POPC   C4B15862   6.919  15.234   7.653
 6032POPC   NC315863   1.989  20.588   9.453
 6032POPC   PO415864   2.037  20.631   9.153
 6032POPC   GL115865   1.990  20.627   8.853
 6032POPC   GL215866   2.072  20.665   8.853
 6032POPC   C1A15867   1.996  20.565   8.553
 6032POPC   D2A15868   1.957  20.648   8.253
 6032POPC   C3A15869   2.027  20.608   7.953
 6032POPC   C4A15870   1.966  20.614   7.653
 6032POPC   C1B15871   2.260  20.704   8.553
 6032POPC   C2B15872   2.249  20.758   8.253
 6032POPC   C3B15873   2.255  20.689   7.953
 6032POPC   C4B15874   2.168  20.678   7.653
 6033POPC   NC315875   8.932   8.951   9.453
 6033POPC   PO415876   9.013   8.932   9.153
 6033POPC   GL115877   8.957   8.983   8.853
 6033POPC   GL215878   9.017   8.879   8.853
 6033POPC   C1A15879   8.929   8.947   8.553
 6033POPC   D2A15880   9.005   9.002   8.253
 6033POPC   C3A15881   8.940   8.958   7.953
 6033POPC   C4A15882   8.995   9.006   7.653
 6033POPC   C1B15883   9.020   8.693   8.553
 6033POPC   C2B15884   9.003   8.766   8.253
 6033POPC   C3B15885   9.031   8.720   7.953
 6033POPC   C4B15886   8.995   8.763   7.653
 6034POPC   NC315887  21.363  25.233   9.453
 6034POPC   PO415888  21.417  25.259   9.153
 6034POPC   GL115889  21.373  25.218   8.853
 6034POPC   GL215890  21.412  25.382   8.853
 6034POPC   C1A15891  21.383  25.219   8.553
 6034POPC   D2A15892  21.353  25.281   8.253
 6034POPC   C3A15893  21.353  25.233   7.953
 6034POPC   C4A15894  21.381  25.224   7.653
 6034POPC   C1B15895  21.484  25.498   8.553
 6034POPC   C2B15896  21.496  25.455   8.253
 6034POPC   C3B15897  21.487  25.469   7.953
 6034POPC   C4B15898  21.451  25.530   7.653
 6035POPC   NC315899  22.970   9.766   9.453
 6035POPC   PO415900  22.953   9.737   9.153
 6035POPC   GL115901  22.974   9.705   8.853
 6035POPC   GL215902  22.873   9.621   8.853
 6035POPC   C1A15903  22.922   9.782   8.553
 6035POPC   D2A15904  22.974   9.762   8.253
 6035POPC   C3A15905  22.965   9.776   7.953
 6035POPC   C4A15906  22.916   9.701   7.653
 6035POPC   C1B15907  22.776   9.591   8.553
 6035POPC   C2B15908  22.772   9.515   8.253
 6035POPC   C3B15909  22.783   9.527   7.953
 6035POPC   C4B15910  22.789   9.530   7.653
 6036POPC   NC315911  33.063   6.640   9.453
 6036POPC   PO415912  32.981   6.617   9.153
 6036POPC   GL115913  32.974   6.630   8.853
 6036POPC   GL215914  32.964   6.759   8.853
 6036POPC   C1A15915  33.007   6.635   8.553
 6036POPC   D2A15916  33.065   6.621   8.253
 6036POPC   C3A15917  33.036   6.602   7.953
 6036POPC   C4A15918  32.991   6.607   7.653
 6036POPC   C1B15919  32.889   6.857   8.553
 6036POPC   C2B15920  32.923   6.892   8.253
 6036POPC   C3B15921  32.868   6.869   7.953
 6036POPC   C4B15922  32.835   6.798   7.653
 6037POPC   NC315923  19.786  20.613   9.453
 6037POPC   PO415924  19.831  20.659   9.153
 6037POPC   GL115925  19.801  20.631   8.853
 6037POPC   GL215926  19.838  20.455   8.853
 6037POPC   C1A15927  19.845  20.576   8.553
 6037POPC   D2A15928  19.791  20.621   8.253
 6037POPC   C3A15929  19.796  20.587   7.953
 6037POPC   C4A15930  19.790  20.594   7.653
 6037POPC   C1B15931  19.771  20.352   8.553
 6037POPC   C2B15932  19.794  20.318   8.253
 6037POPC   C3B15933  19.747  20.360   7.953
 6037POPC   C4B15934  19.805  20.390   7.653
 6038POPC   NC315935  17.547  29.149   9.453
 6038POPC   PO415936  17.478  29.154   9.153
 6038POPC   GL115937  17.462  29.153   8.853
 6038POPC   GL215938  17.435  29.293   8.853
 6038POPC   C1A15939  17.487  29.166   8.553
 6038POPC   D2A15940  17.536  29.193   8.253
 6038POPC   C3A15941  17.503  29.155   7.953
 6038POPC   C4A15942  17.476  29.141   7.653
 6038POPC   C1B15943  17.436  29.401   8.553
 6038POPC   C2B15944  17.456  29.365   8.253
 6038POPC   C3B15945  17.391  29.349   7.953
 6038POPC   C4B15946  17.374  29.355   7.653
 6039POPC   NC315947  19.875   8.936   9.453
 6039POPC   PO415948  19.821   8.943   9.153
 6039POPC   GL115949  19.830   8.928   8.853
 6039POPC   GL215950  19.872   9.115   8.853
 6039POPC   C1A15951  19.821   9.000   8.553
 6039POPC   D2A15952  19.858   9.011   8.253
 6039POPC   C3A15953  19.858   8.986   7.953
 6039POPC   C4A15954  19.851   8.994   7.653
 6039POPC   C1B15955  19.909   9.158   8.553
 6039POPC   C2B15956  19.972   9.202   8.253
 6039POPC   C3B15957  19.961   9.221   7.953
 6039POPC   C4B15958  19.918   9.189   7.653
 6040POPC   NC315959  39.261  33.000   9.453
 6040POPC   PO415960  39.233  33.055   9.153
 6040POPC   GL115961  39.258  33.010   8.853
 6040POPC   GL215962  39.289  33.150   8.853
 6040POPC   C1A15963  39.273  32.989   8.553
 6040POPC   D2A15964  39.200  33.007   8.253
 6040POPC   C3A15965  39.211  33.052   7.953
 6040POPC   C4A15966  39.237  33.046   7.653
 6040POPC   C1B15967  39.429  33.193   8.553
 6040POPC   C2B15968  39.441  33.222   8.253
 6040POPC   C3B15969  39.437  33.202   7.953
 6040POPC   C4B15970  39.353  33.244   7.653
 6041POPC   NC315971  36.872  18.315   9.453
 6041POPC   PO415972  36.898  18.269   9.153
 6041POPC   GL115973  36.931  18.280   8.853
 6041POPC   GL215974  37.034  18.318   8.853
 6041POPC   C1A15975  36.917  18.250   8.553
 6041POPC   D2A15976  36.907  18.281   8.253
 6041POPC   C3A15977  36.903  18.287   7.953
 6041POPC   C4A15978  36.861  18.299   7.653
 6041POPC   C1B15979  37.184  18.328   8.553
 6041POPC   C2B15980  37.168  18.338   8.253
 6041POPC   C3B15981  37.165  18.331   7.953
 6041POPC   C4B15982  37.196  18.282   7.653
 6042POPC   NC315983   1.953  43.153   9.453
 6042POPC   PO415984   1.952  43.156   9.153
 6042POPC   GL115985   1.978  43.156   8.853
 6042POPC   GL215986   1.983  42.977   8.853
 6042POPC   C1A15987   1.967  43.063   8.553
 6042POPC   D2A15988   2.019  43.090   8.253
 6042POPC   C3A15989   2.011  43.102   7.953
 6042POPC   C4A15990   1.946  43.070   7.653
 6042POPC   C1B15991   2.008  42.893   8.553
 6042POPC   C2B15992   1.992  42.875   8.253
 6042POPC   C3B15993   2.063  42.883   7.953
 6042POPC   C4B15994   2.032  42.892   7.653
 6043POPC   NC315995  21.401  36.875   9.453
 6043POPC   PO415996  21.423  36.944   9.153
 6043POPC   GL115997  21.374  36.914   8.853
 6043POPC   GL215998  21.492  36.922   8.853
 6043POPC   C1A15999  21.401  36.877   8.553
 6043POPC   D2A16000  21.345  36.937   8.253
 6043POPC   C3A16001  21.342  36.922   7.953
 6043POPC   C4A16002  21.404  36.863   7.653
 6043POPC   C1B16003  21.628  37.032   8.553
 6043POPC   C2B16004  21.661  37.041   8.253
 6043POPC   C3B16005  21.577  36.995   7.953
 6043POPC   C4B16006  21.587  37.045   7.653
 6044POPC   NC316007   3.554  34.617   9.453
 6044POPC   PO416008   3.532  34.559   9.153
 6044POPC   GL116009   3.563  34.530   8.853
 6044POPC   GL216010   3.491  34.422   8.853
 6044POPC   C1A16011   3.520  34.618   8.553
 6044POPC   D2A16012   3.561  34.580   8.253
 6044POPC   C3A16013   3.506  34.620   7.953
 6044POPC   C4A16014   3.539  34.530   7.653
 6044POPC   C1B16015   3.487  34.288   8.553
 6044POPC   C2B16016   3.504  34.378   8.253
 6044POPC   C3B16017   3.542  34.307   7.953
 6044POPC   C4B16018   3.539  34.282   7.653
 6045POPC   NC316019  22.133  32.255   9.453
 6045POPC   PO416020  22.142  32.235   9.153
 6045POPC   GL116021  22.163  32.205   8.853
 6045POPC   GL216022  22.089  32.374   8.853
 6045POPC   C1A16023  22.178  32.255   8.553
 6045POPC   D2A16024  22.166  32.267   8.253
 6045POPC   C3A16025  22.152  32.215   7.953
 6045POPC   C4A16026  22.168  32.291   7.653
 6045POPC   C1B16027  22.106  32.526   8.553
 6045POPC   C2B16028  22.055  32.526   8.253
 6045POPC   C3B16029  22.064  32.454   7.953
 6045POPC   C4B16030  22.127  32.510   7.653
 6046POPC   NC316031  27.605  44.705   9.453
 6046POPC   PO416032  27.566  44.690   9.153
 6046POPC   GL116033  27.604  44.647   8.853
 6046POPC   GL216034  27.545  44.738   8.853
 6046POPC   C1A16035  27.556  44.701   8.553
 6046POPC   D2A16036  27.640  44.690   8.253
 6046POPC   C3A16037  27.545  44.666   7.953
 6046POPC   C4A16038  27.594  44.623   7.653
 6046POPC   C1B16039  27.450  44.864   8.553
 6046POPC   C2B16040  27.398  44.880   8.253
 6046POPC   C3B16041  27.425  44.844   7.953
 6046POPC   C4B16042  27.401  44.846   7.653
 6047POPC   NC316043  30.737   2.740   9.453
 6047POPC   PO416044  30.699   2.797   9.153
 6047POPC   GL116045  30.673   2.720   8.853
 6047POPC   GL216046  30.793   2.775   8.853
 6047POPC   C1A16047  30.659   2.727   8.553
 6047POPC   D2A16048  30.737   2.799   8.253
 6047POPC   C3A16049  30.698   2.759   7.953
 6047POPC   C4A16050  30.738   2.750   7.653
 6047POPC   C1B16051  30.909   2.847   8.553
 6047POPC   C2B16052  30.952   2.852   8.253
 6047POPC   C3B16053  30.886   2.860   7.953
 6047POPC   C4B16054  30.885   2.798   7.653
 6048POPC   NC316055  15.972  19.053   9.453
 6048POPC   PO416056  15.924  19.108   9.153
 6048POPC   GL116057  15.970  19.036   8.853
 6048POPC   GL216058  15.985  18.957   8.853
 6048POPC   C1A16059  15.988  19.074   8.553
 6048POPC   D2A16060  15.914  19.029   8.253
 6048POPC   C3A16061  15.923  19.068   7.953
 6048POPC   C4A16062  15.984  19.038   7.653
 6048POPC   C1B16063  15.984  18.823   8.553
 6048POPC   C2B16064  16.057  18.818   8.253
 6048POPC   C3B16065  16.019  18.851   7.953
 6048POPC   C4B16066  16.006  18.794   7.653
 6049POPC   NC316067  19.060  23.713   9.453
 6049POPC   PO416068  19.029  23.756   9.153
 6049POPC   GL116069  19.043  23.691   8.853
 6049POPC   GL216070  19.125  23.753   8.853
 6049POPC   C1A16071  19.078  23.690   8.553
 6049POPC   D2A16072  19.107  23.744   8.253
 6049POPC   C3A16073  19.094  23.696   7.953
 6049POPC   C4A16074  19.049  23.684   7.653
 6049POPC   C1B16075  19.324  23.846   8.553
 6049POPC   C2B16076  19.302  23.777   8.253
 6049POPC   C3B16077  19.327  23.779   7.953
 6049POPC   C4B16078  19.334  23.859   7.653
 6050POPC   NC316079  18.239  28.374   9.453
 6050POPC   PO416080  18.279  28.335   9.153
 6050POPC   GL116081  18.312  28.336   8.853
 6050POPC   GL216082  18.372  28.406   8.853
 6050POPC   C1A16083  18.325  28.388   8.553
 6050POPC   D2A16084  18.326  28.332   8.253
 6050POPC   C3A16085  18.256  28.399   7.953
 6050POPC   C4A16086  18.236  28.383   7.653
 6050POPC   C1B16087  18.560  28.358   8.553
 6050POPC   C2B16088  18.541  28.312   8.253
 6050POPC   C3B16089  18.540  28.371   7.953
 6050POPC   C4B16090  18.496  28.390   7.653
 6051POPC   NC316091  19.817  23.741   9.453
 6051POPC   PO416092  19.858  23.712   9.153
 6051POPC   GL116093  19.801  23.732   8.853
 6051POPC   GL216094  19.768  23.578   8.853
 6051POPC   C1A16095  19.846  23.685   8.553
 6051POPC   D2A16096  19.796  23.738   8.253
 6051POPC   C3A16097  19.809  23.750   7.953
 6051POPC   C4A16098  19.853  23.732   7.653
 6051POPC   C1B16099  19.802  23.432   8.553
 6051POPC   C2B16100  19.762  23.444   8.253
 6051POPC   C3B16101  19.821  23.449   7.953
 6051POPC   C4B16102  19.758  23.466   7.653
 6052POPC   NC316103  42.312   1.247   9.453
 6052POPC   PO416104  42.341   1.171   9.153
 6052POPC   GL116105  42.361   1.175   8.853
 6052POPC   GL216106  42.379   1.059   8.853
 6052POPC   C1A16107  42.303   1.190   8.553
 6052POPC   D2A16108  42.318   1.201   8.253
 6052POPC   C3A16109  42.302   1.199   7.953
 6052POPC   C4A16110  42.343   1.209   7.653
 6052POPC   C1B16111  42.419   0.985   8.553
 6052POPC   C2B16112  42.374   1.010   8.253
 6052POPC   C3B16113  42.381   1.016   7.953
 6052POPC   C4B16114  42.366   0.990   7.653
 6053POPC   NC316115  34.551   8.962   9.453
 6053POPC   PO416116  34.600   9.016   9.153
 6053POPC   GL116117  34.599   8.940   8.853
 6053POPC   GL216118  34.554   9.131   8.853
 6053POPC   C1A16119  34.528   8.933   8.553
 6053POPC   D2A16120  34.621   8.975   8.253
 6053POPC   C3A16121  34.591   8.935   7.953
 6053POPC   C4A16122  34.527   8.960   7.653
 6053POPC   C1B16123  34.502   9.182   8.553
 6053POPC   C2B16124  34.481   9.256   8.253
 6053POPC   C3B16125  34.567   9.219   7.953
 6053POPC   C4B16126  34.487   9.225   7.653
 6054POPC   NC316127  31.490  34.602   9.453
 6054POPC   PO416128  31.424  34.615   9.153
 6054POPC   GL116129  31.478  34.616   8.853
 6054POPC   GL216130  31.432  34.678   8.853
 6054POPC   C1A16131  31.468  34.557   8.553
 6054POPC   D2A16132  31.495  34.621   8.253
 6054POPC   C3A16133  31.480  34.563   7.953
 6054POPC   C4A16134  31.488  34.610   7.653
 6054POPC   C1B16135  31.285  34.764   8.553
 6054POPC   C2B16136  31.314  34.713   8.253
 6054POPC   C3B16137  31.315  34.711   7.953
 6054POPC   C4B16138  31.268  34.755   7.653
 6055POPC   NC316139  33.772  36.928   9.453
 6055POPC   PO416140  33.794  36.931   9.153
 6055POPC   GL116141  33.828  36.871   8.853
 6055POPC   GL216142  33.740  36.958   8.853
 6055POPC   C1A16143  33.806  36.867   8.553
 6055POPC   D2A16144  33.752  36.933   8.253
 6055POPC   C3A16145  33.750  36.919   7.953
 6055POPC   C4A16146  33.808  36.868   7.653
 6055POPC   C1B16147  33.568  37.074   8.553
 6055POPC   C2B16148  33.565  37.038   8.253
 6055POPC   C3B16149  33.599  37.052   7.953
 6055POPC   C4B16150  33.599  37.073   7.653
 6056POPC   NC316151  24.539  33.785   9.453
 6056POPC   PO416152  24.488  33.778   9.153
 6056POPC   GL116153  24.511  33.793   8.853
 6056POPC   GL216154  24.647  33.788   8.853
 6056POPC   C1A16155  24.499  33.770   8.553
 6056POPC   D2A16156  24.509  33.755   8.253
 6056POPC   C3A16157  24.468  33.756   7.953
 6056POPC   C4A16158  24.468  33.779   7.653
 6056POPC   C1B16159  24.769  33.664   8.553
 6056POPC   C2B16160  24.745  33.747   8.253
 6056POPC   C3B16161  24.748  33.678   7.953
 6056POPC   C4B16162  24.744  33.702   7.653
 6057POPC   NC316163   2.746  38.475   9.453
 6057POPC   PO416164   2.794  38.437   9.153
 6057POPC   GL116165   2.778  38.478   8.853
 6057POPC   GL216166   2.779  38.308   8.853
 6057POPC   C1A16167   2.763  38.450   8.553
 6057POPC   D2A16168   2.810  38.437   8.253
 6057POPC   C3A16169   2.806  38.407   7.953
 6057POPC   C4A16170   2.770  38.464   7.653
 6057POPC   C1B16171   2.718  38.214   8.553
 6057POPC   C2B16172   2.664  38.232   8.253
 6057POPC   C3B16173   2.741  38.199   7.953
 6057POPC   C4B16174   2.664  38.198   7.653
 6058POPC   NC316175  10.507  25.263   9.453
 6058POPC   PO416176  10.571  25.286   9.153
 6058POPC   GL116177  10.499  25.307   8.853
 6058POPC   GL216178  10.507  25.362   8.853
 6058POPC   C1A16179  10.541  25.271   8.553
 6058POPC   D2A16180  10.544  25.250   8.253
 6058POPC   C3A16181  10.546  25.243   7.953
 6058POPC   C4A16182  10.478  25.286   7.653
 6058POPC   C1B16183  10.557  25.469   8.553
 6058POPC   C2B16184  10.539  25.490   8.253
 6058POPC   C3B16185  10.584  25.486   7.953
 6058POPC   C4B16186  10.565  25.540   7.653
 6059POPC   NC316187  22.905  34.610   9.453
 6059POPC   PO416188  22.942  34.621   9.153
 6059POPC   GL116189  22.922  34.581   8.853
 6059POPC   GL216190  22.872  34.662   8.853
 6059POPC   C1A16191  22.914  34.531   8.553
 6059POPC   D2A16192  22.890  34.572   8.253
 6059POPC   C3A16193  22.978  34.586   7.953
 6059POPC   C4A16194  22.910  34.543   7.653
 6059POPC   C1B16195  22.689  34.733   8.553
 6059POPC   C2B16196  22.720  34.676   8.253
 6059POPC   C3B16197  22.709  34.718   7.953
 6059POPC   C4B16198  22.761  34.693   7.653
 6060POPC   NC316199  25.250  13.660   9.453
 6060POPC   PO416200  25.219  13.628   9.153
 6060POPC   GL116201  25.251  13.643   8.853
 6060POPC   GL216202  25.316  13.553   8.853
 6060POPC   C1A16203  25.290  13.644   8.553
 6060POPC   D2A16204  25.293  13.642   8.253
 6060POPC   C3A16205  25.299  13.607   7.953
 6060POPC   C4A16206  25.315  13.616   7.653
 6060POPC   C1B16207  25.314  13.374   8.553
 6060POPC   C2B16208  25.360  13.399   8.253
 6060POPC   C3B16209  25.326  13.346   7.953
 6060POPC   C4B16210  25.270  13.394   7.653
 6061POPC   NC316211  29.919  22.903   9.453
 6061POPC   PO416212  29.892  22.906   9.153
 6061POPC   GL116213  29.889  22.968   8.853
 6061POPC   GL216214  29.789  22.945   8.853
 6061POPC   C1A16215  29.928  22.910   8.553
 6061POPC   D2A16216  29.928  22.904   8.253
 6061POPC   C3A16217  29.918  22.924   7.953
 6061POPC   C4A16218  29.947  22.936   7.653
 6061POPC   C1B16219  29.709  22.868   8.553
 6061POPC   C2B16220  29.715  22.835   8.253
 6061POPC   C3B16221  29.704  22.914   7.953
 6061POPC   C4B16222  29.679  22.839   7.653
 6062POPC   NC316223  19.031   9.735   9.453
 6062POPC   PO416224  19.013   9.791   9.153
 6062POPC   GL116225  19.058   9.726   8.853
 6062POPC   GL216226  19.159   9.783   8.853
 6062POPC   C1A16227  19.087   9.708   8.553
 6062POPC   D2A16228  19.067   9.731   8.253
 6062POPC   C3A16229  19.080   9.730   7.953
 6062POPC   C4A16230  19.100   9.739   7.653
 6062POPC   C1B16231  19.286   9.824   8.553
 6062POPC   C2B16232  19.297   9.818   8.253
 6062POPC   C3B16233  19.323   9.801   7.953
 6062POPC   C4B16234  19.268   9.791   7.653
 6063POPC   NC316235  38.430  44.698   9.453
 6063POPC   PO416236  38.464  44.633   9.153
 6063POPC   GL116237  38.414  44.689   8.853
 6063POPC   GL216238  38.546  44.696   8.853
 6063POPC   C1A16239  38.426  44.619   8.553
 6063POPC   D2A16240  38.443  44.667   8.253
 6063POPC   C3A16241  38.420  44.689   7.953
 6063POPC   C4A16242  38.462  44.697   7.653
 6063POPC   C1B16243  38.646  44.763   8.553
 6063POPC   C2B16244  38.627  44.780   8.253
 6063POPC   C3B16245  38.640  44.771   7.953
 6063POPC   C4B16246  38.697  44.834   7.653
 6064POPC   NC316247  22.908  19.043   9.453
 6064POPC   PO416248  22.957  19.086   9.153
 6064POPC   GL116249  22.890  19.078   8.853
 6064POPC   GL216250  23.067  19.173   8.853
 6064POPC   C1A16251  22.979  19.095   8.553
 6064POPC   D2A16252  22.926  19.088   8.253
 6064POPC   C3A16253  22.950  19.049   7.953
 6064POPC   C4A16254  22.988  19.009   7.653
 6064POPC   C1B16255  23.128  19.295   8.553
 6064POPC   C2B16256  23.070  19.225   8.253
 6064POPC   C3B16257  23.093  19.234   7.953
 6064POPC   C4B16258  23.138  19.300   7.653
 6065POPC   NC316259  16.751   9.725   9.453
 6065POPC   PO416260  16.731   9.774   9.153
 6065POPC   GL116261  16.749   9.707   8.853
 6065POPC   GL216262  16.656   9.805   8.853
 6065POPC   C1A16263  16.732   9.702   8.553
 6065POPC   D2A16264  16.728   9.767   8.253
 6065POPC   C3A16265  16.764   9.757   7.953
 6065POPC   C4A16266  16.769   9.741   7.653
 6065POPC   C1B16267  16.560   9.950   8.553
 6065POPC   C2B16268  16.594   9.951   8.253
 6065POPC   C3B16269  16.524   9.962   7.953
 6065POPC   C4B16270  16.554   9.956   7.653
 6066POPC   NC316271  39.975   2.792   9.453
 6066POPC   PO416272  40.023   2.735   9.153
 6066POPC   GL116273  39.973   2.775   8.853
 6066POPC   GL216274  39.850   2.783   8.853
 6066POPC   C1A16275  40.038   2.793   8.553
 6066POPC   D2A16276  40.053   2.767   8.253
 6066POPC   C3A16277  40.023   2.803   7.953
 6066POPC   C4A16278  40.051   2.740   7.653
 6066POPC   C1B16279  39.754   2.761   8.553
 6066POPC   C2B16280  39.773   2.810   8.253
 6066POPC   C3B16281  39.742   2.848   7.953
 6066POPC   C4B16282  39.748   2.763   7.653
 6067POPC   NC316283  37.669  36.082   9.453
 6067POPC   PO416284  37.643  36.112   9.153
 6067POPC   GL116285  37.690  36.160   8.853
 6067POPC   GL216286  37.763  36.058   8.853
 6067POPC   C1A16287  37.717  36.154   8.553
 6067POPC   D2A16288  37.702  36.085   8.253
 6067POPC   C3A16289  37.688  36.097   7.953
 6067POPC   C4A16290  37.723  36.146   7.653
 6067POPC   C1B16291  37.848  35.928   8.553
 6067POPC   C2B16292  37.844  35.952   8.253
 6067POPC   C3B16293  37.782  35.889   7.953
 6067POPC   C4B16294  37.777  35.899   7.653
 6068POPC   NC316295  42.335  28.339   9.453
 6068POPC   PO416296  42.341  28.392   9.153
 6068POPC   GL116297  42.365  28.331   8.853
 6068POPC   GL216298  42.424  28.441   8.853
 6068POPC   C1A16299  42.316  28.346   8.553
 6068POPC   D2A16300  42.360  28.378   8.253
 6068POPC   C3A16301  42.319  28.349   7.953
 6068POPC   C4A16302  42.309  28.372   7.653
 6068POPC   C1B16303  42.525  28.519   8.553
 6068POPC   C2B16304  42.548  28.472   8.253
 6068POPC   C3B16305  42.576  28.519   7.953
 6068POPC   C4B16306  42.507  28.505   7.653
 6069POPC   NC316307  20.660  33.750   9.453
 6069POPC   PO416308  20.576  33.790   9.153
 6069POPC   GL116309  20.657  33.776   8.853
 6069POPC   GL216310  20.465  33.792   8.853
 6069POPC   C1A16311  20.581  33.827   8.553
 6069POPC   D2A16312  20.623  33.789   8.253
 6069POPC   C3A16313  20.615  33.820   7.953
 6069POPC   C4A16314  20.645  33.775   7.653
 6069POPC   C1B16315  20.330  33.861   8.553
 6069POPC   C2B16316  20.381  33.870   8.253
 6069POPC   C3B16317  20.417  33.848   7.953
 6069POPC   C4B16318  20.393  33.839   7.653
 6070POPC   NC316319  25.254   8.192   9.453
 6070POPC   PO416320  25.230   8.153   9.153
 6070POPC   GL116321  25.294   8.154   8.853
 6070POPC   GL216322  25.184   8.284   8.853
 6070POPC   C1A16323  25.219   8.172   8.553
 6070POPC   D2A16324  25.260   8.191   8.253
 6070POPC   C3A16325  25.255   8.159   7.953
 6070POPC   C4A16326  25.281   8.204   7.653
 6070POPC   C1B16327  25.149   8.354   8.553
 6070POPC   C2B16328  25.133   8.356   8.253
 6070POPC   C3B16329  25.167   8.364   7.953
 6070POPC   C4B16330  25.109   8.364   7.653
 6071POPC   NC316331  34.600  16.001   9.453
 6071POPC   PO416332  34.565  15.949   9.153
 6071POPC   GL116333  34.532  16.004   8.853
 6071POPC   GL216334  34.638  15.880   8.853
 6071POPC   C1A16335  34.556  15.934   8.553
 6071POPC   D2A16336  34.620  15.966   8.253
 6071POPC   C3A16337  34.614  16.001   7.953
 6071POPC   C4A16338  34.587  15.926   7.653
 6071POPC   C1B16339  34.669  15.698   8.553
 6071POPC   C2B16340  34.632  15.740   8.253
 6071POPC   C3B16341  34.625  15.690   7.953
 6071POPC   C4B16342  34.688  15.730   7.653
 6072POPC   NC316343  37.710  25.222   9.453
 6072POPC   PO416344  37.651  25.248   9.153
 6072POPC   GL116345  37.689  25.308   8.853
 6072POPC   GL216346  37.760  25.317   8.853
 6072POPC   C1A16347  37.706  25.261   8.553
 6072POPC   D2A16348  37.727  25.220   8.253
 6072POPC   C3A16349  37.699  25.253   7.953
 6072POPC   C4A16350  37.667  25.311   7.653
 6072POPC   C1B16351  37.890  25.372   8.553
 6072POPC   C2B16352  37.895  25.354   8.253
 6072POPC   C3B16353  37.923  25.338   7.953
 6072POPC   C4B16354  37.898  25.404   7.653
 6073POPC   NC316355  10.557  23.725   9.453
 6073POPC   PO416356  10.559  23.696   9.153
 6073POPC   GL116357  10.509  23.742   8.853
 6073POPC   GL216358  10.473  23.632   8.853
 6073POPC   C1A16359  10.531  23.664   8.553
 6073POPC   D2A16360  10.530  23.744   8.253
 6073POPC   C3A16361  10.488  23.666   7.953
 6073POPC   C4A16362  10.552  23.671   7.653
 6073POPC   C1B16363  10.467  23.495   8.553
 6073POPC   C2B16364  10.481  23.421   8.253
 6073POPC   C3B16365  10.423  23.464   7.953
 6073POPC   C4B16366  10.453  23.431   7.653
 6074POPC   NC316367  39.209  19.039   9.453
 6074POPC   PO416368  39.248  19.082   9.153
 6074POPC   GL116369  39.186  19.058   8.853
 6074POPC   GL216370  39.216  19.143   8.853
 6074POPC   C1A16371  39.281  19.053   8.553
 6074POPC   D2A16372  39.266  19.078   8.253
 6074POPC   C3A16373  39.260  19.020   7.953
 6074POPC   C4A16374  39.256  19.031   7.653
 6074POPC   C1B16375  39.279  19.258   8.553
 6074POPC   C2B16376  39.229  19.328   8.253
 6074POPC   C3B16377  39.303  19.300   7.953
 6074POPC   C4B16378  39.314  19.302   7.653
 6075POPC   NC316379  21.370  32.264   9.453
 6075POPC   PO416380  21.348  32.209   9.153
 6075POPC   GL116381  21.337  32.254   8.853
 6075POPC   GL216382  21.228  32.281   8.853
 6075POPC   C1A16383  21.369  32.229   8.553
 6075POPC   D2A16384  21.364  32.203   8.253
 6075POPC   C3A16385  21.405  32.283   7.953
 6075POPC   C4A16386  21.417  32.293   7.653
 6075POPC   C1B16387  21.144  32.362   8.553
 6075POPC   C2B16388  21.182  32.384   8.253
 6075POPC   C3B16389  21.134  32.384   7.953
 6075POPC   C4B16390  21.152  32.380   7.653
 6076POPC   NC316391  43.918  32.977   9.453
 6076POPC   PO416392  43.877  33.010   9.153
 6076POPC   GL116393  43.911  32.976   8.853
 6076POPC   GL216394  43.781  33.057   8.853
 6076POPC   C1A16395  43.893  33.071   8.553
 6076POPC   D2A16396  43.854  32.977   8.253
 6076POPC   C3A16397  43.915  33.060   7.953
 6076POPC   C4A16398  43.897  33.005   7.653
 6076POPC   C1B16399  43.609  33.111   8.553
 6076POPC   C2B16400  43.633  33.152   8.253
 6076POPC   C3B16401  43.627  33.142   7.953
 6076POPC   C4B16402  43.682  33.159   7.653
 6077POPC   NC316403  31.481  40.749   9.453
 6077POPC   PO416404  31.465  40.764   9.153
 6077POPC   GL116405  31.434  40.819   8.853
 6077POPC   GL216406  31.380  40.778   8.853
 6077POPC   C1A16407  31.506  40.797   8.553
 6077POPC   D2A16408  31.522  40.769   8.253
 6077POPC   C3A16409  31.483  40.765   7.953
 6077POPC   C4A16410  31.518  40.832   7.653
 6077POPC   C1B16411  31.259  40.747   8.553
 6077POPC   C2B16412  31.253  40.743   8.253
 6077POPC   C3B16413  31.226  40.747   7.953
 6077POPC   C4B16414  31.219  40.790   7.653
 6078POPC   NC316415  30.657  44.684   9.453
 6078POPC   PO416416  30.678  44.619   9.153
 6078POPC   GL116417  30.655  44.645   8.853
 6078POPC   GL216418  30.769  44.731   8.853
 6078POPC   C1A16419  30.689  44.679   8.553
 6078POPC   D2A16420  30.737  44.637   8.253
 6078POPC   C3A16421  30.732  44.655   7.953
 6078POPC   C4A16422  30.703  44.634   7.653
 6078POPC   C1B16423  30.828  44.830   8.553
 6078POPC   C2B16424  30.831  44.812   8.253
 6078POPC   C3B16425  30.850  44.850   7.953
 6078POPC   C4B16426  30.883  44.886   7.653
 6079POPC   NC316427  41.587  35.310   9.453
 6079POPC   PO416428  41.597  35.358   9.153
 6079POPC   GL116429  41.538  35.319   8.853
 6079POPC   GL216430  41.640  35.214   8.853
 6079POPC   C1A16431  41.561  35.382   8.553
 6079POPC   D2A16432  41.593  35.380   8.253
 6079POPC   C3A16433  41.589  35.345   7.953
 6079POPC   C4A16434  41.583  35.356   7.653
 6079POPC   C1B16435  41.699  35.150   8.553
 6079POPC   C2B16436  41.774  35.210   8.253
 6079POPC   C3B16437  41.688  35.138   7.953
 6079POPC   C4B16438  41.776  35.208   7.653
 6080POPC   NC316439  12.852  40.794   9.453
 6080POPC   PO416440  12.861  40.761   9.153
 6080POPC   GL116441  12.881  40.762   8.853
 6080POPC   GL216442  12.948  40.701   8.853
 6080POPC   C1A16443  12.895  40.814   8.553
 6080POPC   D2A16444  12.851  40.790   8.253
 6080POPC   C3A16445  12.818  40.819   7.953
 6080POPC   C4A16446  12.837  40.793   7.653
 6080POPC   C1B16447  13.084  40.641   8.553
 6080POPC   C2B16448  13.073  40.593   8.253
 6080POPC   C3B16449  13.040  40.634   7.953
 6080POPC   C4B16450  13.049  40.642   7.653
 6081POPC   NC316451  40.807  39.237   9.453
 6081POPC   PO416452  40.770  39.270   9.153
 6081POPC   GL116453  40.780  39.203   8.853
 6081POPC   GL216454  40.833  39.294   8.853
 6081POPC   C1A16455  40.826  39.224   8.553
 6081POPC   D2A16456  40.828  39.251   8.253
 6081POPC   C3A16457  40.811  39.248   7.953
 6081POPC   C4A16458  40.826  39.190   7.653
 6081POPC   C1B16459  40.937  39.478   8.553
 6081POPC   C2B16460  40.973  39.398   8.253
 6081POPC   C3B16461  40.951  39.390   7.953
 6081POPC   C4B16462  40.925  39.395   7.653
 6082POPC   NC316463  12.868  26.042   9.453
 6082POPC   PO416464  12.873  25.998   9.153
 6082POPC   GL116465  12.841  26.064   8.853
 6082POPC   GL216466  12.711  26.115   8.853
 6082POPC   C1A16467  12.807  26.075   8.553
 6082POPC   D2A16468  12.856  26.025   8.253
 6082POPC   C3A16469  12.878  26.051   7.953
 6082POPC   C4A16470  12.900  26.034   7.653
 6082POPC   C1B16471  12.632  26.180   8.553
 6082POPC   C2B16472  12.628  26.136   8.253
 6082POPC   C3B16473  12.674  26.207   7.953
 6082POPC   C4B16474  12.622  26.219   7.653
 6083POPC   NC316475  34.584  43.121   9.453
 6083POPC   PO416476  34.542  43.123   9.153
 6083POPC   GL116477  34.607  43.152   8.853
 6083POPC   GL216478  34.588  42.946   8.853
 6083POPC   C1A16479  34.585  43.135   8.553
 6083POPC   D2A16480  34.589  43.156   8.253
 6083POPC   C3A16481  34.576  43.099   7.953
 6083POPC   C4A16482  34.553  43.103   7.653
 6083POPC   C1B16483  34.587  42.844   8.553
 6083POPC   C2B16484  34.490  42.852   8.253
 6083POPC   C3B16485  34.497  42.857   7.953
 6083POPC   C4B16486  34.512  42.841   7.653
 6084POPC   NC316487  32.264  27.554   9.453
 6084POPC   PO416488  32.215  27.612   9.153
 6084POPC   GL116489  32.262  27.624   8.853
 6084POPC   GL216490  32.223  27.716   8.853
 6084POPC   C1A16491  32.251  27.597   8.553
 6084POPC   D2A16492  32.255  27.554   8.253
 6084POPC   C3A16493  32.214  27.604   7.953
 6084POPC   C4A16494  32.255  27.568   7.653
 6084POPC   C1B16495  32.197  27.848   8.553
 6084POPC   C2B16496  32.137  27.826   8.253
 6084POPC   C3B16497  32.216  27.845   7.953
 6084POPC   C4B16498  32.161  27.836   7.653
 6085POPC   NC316499  14.443  21.390   9.453
 6085POPC   PO416500  14.394  21.435   9.153
 6085POPC   GL116501  14.403  21.365   8.853
 6085POPC   GL216502  14.521  21.371   8.853
 6085POPC   C1A16503  14.437  21.370   8.553
 6085POPC   D2A16504  14.393  21.433   8.253
 6085POPC   C3A16505  14.436  21.388   7.953
 6085POPC   C4A16506  14.418  21.366   7.653
 6085POPC   C1B16507  14.686  21.435   8.553
 6085POPC   C2B16508  14.614  21.409   8.253
 6085POPC   C3B16509  14.682  21.436   7.953
 6085POPC   C4B16510  14.697  21.471   7.653
 6086POPC   NC316511  33.788   8.948   9.453
 6086POPC   PO416512  33.769   8.940   9.153
 6086POPC   GL116513  33.797   8.987   8.853
 6086POPC   GL216514  33.898   8.894   8.853
 6086POPC   C1A16515  33.840   8.966   8.553
 6086POPC   D2A16516  33.789   9.019   8.253
 6086POPC   C3A16517  33.822   9.011   7.953
 6086POPC   C4A16518  33.810   8.966   7.653
 6086POPC   C1B16519  34.023   8.846   8.553
 6086POPC   C2B16520  34.012   8.811   8.253
 6086POPC   C3B16521  33.997   8.818   7.953
 6086POPC   C4B16522  34.002   8.838   7.653
 6087POPC   NC316523  31.448  27.554   9.453
 6087POPC   PO416524  31.470  27.631   9.153
 6087POPC   GL116525  31.501  27.598   8.853
 6087POPC   GL216526  31.550  27.444   8.853
 6087POPC   C1A16527  31.446  27.545   8.553
 6087POPC   D2A16528  31.517  27.567   8.253
 6087POPC   C3A16529  31.439  27.635   7.953
 6087POPC   C4A16530  31.493  27.589   7.653
 6087POPC   C1B16531  31.488  27.383   8.553
 6087POPC   C2B16532  31.570  27.388   8.253
 6087POPC   C3B16533  31.541  27.306   7.953
 6087POPC   C4B16534  31.552  27.379   7.653
 6088POPC   NC316535  27.563   3.497   9.453
 6088POPC   PO416536  27.607   3.560   9.153
 6088POPC   GL116537  27.617   3.503   8.853
 6088POPC   GL216538  27.460   3.491   8.853
 6088POPC   C1A16539  27.560   3.584   8.553
 6088POPC   D2A16540  27.634   3.539   8.253
 6088POPC   C3A16541  27.606   3.541   7.953
 6088POPC   C4A16542  27.551   3.520   7.653
 6088POPC   C1B16543  27.416   3.387   8.553
 6088POPC   C2B16544  27.467   3.311   8.253
 6088POPC   C3B16545  27.408   3.319   7.953
 6088POPC   C4B16546  27.407   3.338   7.653
 6089POPC   NC316547   1.993  15.962   9.453
 6089POPC   PO416548   2.024  15.952   9.153
 6089POPC   GL116549   2.025  15.989   8.853
 6089POPC   GL216550   2.002  15.862   8.853
 6089POPC   C1A16551   1.958  15.949   8.553
 6089POPC   D2A16552   2.027  15.946   8.253
 6089POPC   C3A16553   2.014  15.993   7.953
 6089POPC   C4A16554   1.969  15.968   7.653
 6089POPC   C1B16555   2.012  15.738   8.553
 6089POPC   C2B16556   2.101  15.741   8.253
 6089POPC   C3B16557   2.070  15.762   7.953
 6089POPC   C4B16558   2.047  15.764   7.653
 6090POPC   NC316559  39.257  28.364   9.453
 6090POPC   PO416560  39.229  28.360   9.153
 6090POPC   GL116561  39.244  28.350   8.853
 6090POPC   GL216562  39.186  28.229   8.853
 6090POPC   C1A16563  39.275  28.337   8.553
 6090POPC   D2A16564  39.273  28.355   8.253
 6090POPC   C3A16565  39.278  28.357   7.953
 6090POPC   C4A16566  39.257  28.361   7.653
 6090POPC   C1B16567  39.125  28.162   8.553
 6090POPC   C2B16568  39.086  28.189   8.253
 6090POPC   C3B16569  39.168  28.114   7.953
 6090POPC   C4B16570  39.141  28.178   7.653
 6091POPC   NC316571  44.618  23.721   9.453
 6091POPC   PO416572  44.710  23.708   9.153
 6091POPC   GL116573  44.674  23.738   8.853
 6091POPC   GL216574  44.592  23.805   8.853
 6091POPC   C1A16575  44.667  23.714   8.553
 6091POPC   D2A16576  44.664  23.679   8.253
 6091POPC   C3A16577  44.695  23.726   7.953
 6091POPC   C4A16578  44.625  23.695   7.653
 6091POPC   C1B16579  44.511  23.916   8.553
 6091POPC   C2B16580  44.560  23.933   8.253
 6091POPC   C3B16581  44.483  23.911   7.953
 6091POPC   C4B16582  44.564  23.908   7.653
 6092POPC   NC316583  10.515  16.757   9.453
 6092POPC   PO416584  10.549  16.708   9.153
 6092POPC   GL116585  10.563  16.770   8.853
 6092POPC   GL216586  10.378  16.770   8.853
 6092POPC   C1A16587  10.476  16.750   8.553
 6092POPC   D2A16588  10.539  16.706   8.253
 6092POPC   C3A16589  10.542  16.756   7.953
 6092POPC   C4A16590  10.553  16.763   7.653
 6092POPC   C1B16591  10.292  16.720   8.553
 6092POPC   C2B16592  10.316  16.778   8.253
 6092POPC   C3B16593  10.284  16.771   7.953
 6092POPC   C4B16594  10.293  16.723   7.653
 6093POPC   NC316595  42.319  23.755   9.453
 6093POPC   PO416596  42.364  23.752   9.153
 6093POPC   GL116597  42.318  23.734   8.853
 6093POPC   GL216598  42.213  23.819   8.853
 6093POPC   C1A16599  42.331  23.747   8.553
 6093POPC   D2A16600  42.328  23.743   8.253
 6093POPC   C3A16601  42.285  23.737   7.953
 6093POPC   C4A16602  42.380  23.728   7.653
 6093POPC   C1B16603  42.178  23.936   8.553
 6093POPC   C2B16604  42.179  23.937   8.253
 6093POPC   C3B16605  42.132  23.909   7.953
 6093POPC   C4B16606  42.151  23.870   7.653
 6094POPC   NC316607   1.230  34.561   9.453
 6094POPC   PO416608   1.236  34.559   9.153
 6094POPC   GL116609   1.259  34.593   8.853
 6094POPC   GL216610   1.272  34.464   8.853
 6094POPC   C1A16611   1.219  34.554   8.553
 6094POPC   D2A16612   1.246  34.618   8.253
 6094POPC   C3A16613   1.240  34.528   7.953
 6094POPC   C4A16614   1.195  34.534   7.653
 6094POPC   C1B16615   1.249  34.320   8.553
 6094POPC   C2B16616   1.206  34.351   8.253
 6094POPC   C3B16617   1.285  34.278   7.953
 6094POPC   C4B16618   1.193  34.329   7.653
 6095POPC   NC316619  13.598  15.132   9.453
 6095POPC   PO416620  13.640  15.183   9.153
 6095POPC   GL116621  13.609  15.182   8.853
 6095POPC   GL216622  13.649  15.070   8.853
 6095POPC   C1A16623  13.590  15.174   8.553
 6095POPC   D2A16624  13.662  15.144   8.253
 6095POPC   C3A16625  13.594  15.165   7.953
 6095POPC   C4A16626  13.608  15.194   7.653
 6095POPC   C1B16627  13.714  14.911   8.553
 6095POPC   C2B16628  13.699  14.895   8.253
 6095POPC   C3B16629  13.723  14.946   7.953
 6095POPC   C4B16630  13.741  14.914   7.653
 6096POPC   NC316631  36.909  42.294   9.453
 6096POPC   PO416632  36.942  42.310   9.153
 6096POPC   GL116633  36.906  42.286   8.853
 6096POPC   GL216634  36.915  42.489   8.853
 6096POPC   C1A16635  36.922  42.381   8.553
 6096POPC   D2A16636  36.920  42.285   8.253
 6096POPC   C3A16637  36.856  42.309   7.953
 6096POPC   C4A16638  36.901  42.347   7.653
 6096POPC   C1B16639  36.956  42.559   8.553
 6096POPC   C2B16640  36.937  42.616   8.253
 6096POPC   C3B16641  36.987  42.608   7.953
 6096POPC   C4B16642  37.003  42.616   7.653
 6097POPC   NC316643  38.471  40.823   9.453
 6097POPC   PO416644  38.472  40.784   9.153
 6097POPC   GL116645  38.409  40.791   8.853
 6097POPC   GL216646  38.367  40.729   8.853
 6097POPC   C1A16647  38.417  40.767   8.553
 6097POPC   D2A16648  38.449  40.816   8.253
 6097POPC   C3A16649  38.432  40.801   7.953
 6097POPC   C4A16650  38.449  40.780   7.653
 6097POPC   C1B16651  38.240  40.779   8.553
 6097POPC   C2B16652  38.187  40.698   8.253
 6097POPC   C3B16653  38.168  40.730   7.953
 6097POPC   C4B16654  38.169  40.736   7.653
 6098POPC   NC316655  30.736  39.960   9.453
 6098POPC   PO416656  30.693  40.005   9.153
 6098POPC   GL116657  30.722  40.030   8.853
 6098POPC   GL216658  30.592  40.088   8.853
 6098POPC   C1A16659  30.745  39.991   8.553
 6098POPC   D2A16660  30.654  39.965   8.253
 6098POPC   C3A16661  30.685  40.042   7.953
 6098POPC   C4A16662  30.662  40.051   7.653
 6098POPC   C1B16663  30.569  40.248   8.553
 6098POPC   C2B16664  30.596  40.251   8.253
 6098POPC   C3B16665  30.613  40.197   7.953
 6098POPC   C4B16666  30.602  40.215   7.653
 6099POPC   NC316667  14.398  16.684   9.453
 6099POPC   PO416668  14.405  16.687   9.153
 6099POPC   GL116669  14.425  16.717   8.853
 6099POPC   GL216670  14.406  16.874   8.853
 6099POPC   C1A16671  14.446  16.724   8.553
 6099POPC   D2A16672  14.417  16.722   8.253
 6099POPC   C3A16673  14.426  16.690   7.953
 6099POPC   C4A16674  14.440  16.775   7.653
 6099POPC   C1B16675  14.443  16.988   8.553
 6099POPC   C2B16676  14.480  16.937   8.253
 6099POPC   C3B16677  14.411  16.994   7.953
 6099POPC   C4B16678  14.476  16.940   7.653
 6100POPC   NC316679  11.317  33.067   9.453
 6100POPC   PO416680  11.296  33.069   9.153
 6100POPC   GL116681  11.307  33.017   8.853
 6100POPC   GL216682  11.292  32.898   8.853
 6100POPC   C1A16683  11.302  33.013   8.553
 6100POPC   D2A16684  11.325  33.023   8.253
 6100POPC   C3A16685  11.316  33.055   7.953
 6100POPC   C4A16686  11.311  33.049   7.653
 6100POPC   C1B16687  11.342  32.763   8.553
 6100POPC   C2B16688  11.284  32.726   8.253
 6100POPC   C3B16689  11.375  32.784   7.953
 6100POPC   C4B16690  11.327  32.731   7.653
 6101POPC   NC316691  37.678  19.088   9.453
 6101POPC   PO416692  37.718  19.103   9.153
 6101POPC   GL116693  37.694  19.104   8.853
 6101POPC   GL216694  37.713  18.905   8.853
 6101POPC   C1A16695  37.720  19.026   8.553
 6101POPC   D2A16696  37.636  19.099   8.253
 6101POPC   C3A16697  37.668  19.052   7.953
 6101POPC   C4A16698  37.684  19.046   7.653
 6101POPC   C1B16699  37.726  18.824   8.553
 6101POPC   C2B16700  37.792  18.825   8.253
 6101POPC   C3B16701  37.711  18.816   7.953
 6101POPC   C4B16702  37.747  18.793   7.653
 6102POPC   NC316703  36.859  25.251   9.453
 6102POPC   PO416704  36.935  25.263   9.153
 6102POPC   GL116705  36.930  25.253   8.853
 6102POPC   GL216706  36.970  25.392   8.853
 6102POPC   C1A16707  36.886  25.253   8.553
 6102POPC   D2A16708  36.946  25.254   8.253
 6102POPC   C3A16709  36.913  25.303   7.953
 6102POPC   C4A16710  36.859  25.291   7.653
 6102POPC   C1B16711  37.071  25.427   8.553
 6102POPC   C2B16712  37.051  25.456   8.253
 6102POPC   C3B16713  37.051  25.475   7.953
 6102POPC   C4B16714  37.064  25.444   7.653
 6103POPC   NC316715  26.032   1.206   9.453
 6103POPC   PO416716  26.074   1.244   9.153
 6103POPC   GL116717  26.050   1.251   8.853
 6103POPC   GL216718  25.968   1.244   8.853
 6103POPC   C1A16719  26.062   1.167   8.553
 6103POPC   D2A16720  26.057   1.188   8.253
 6103POPC   C3A16721  26.069   1.234   7.953
 6103POPC   C4A16722  25.999   1.227   7.653
 6103POPC   C1B16723  25.794   1.383   8.553
 6103POPC   C2B16724  25.830   1.366   8.253
 6103POPC   C3B16725  25.798   1.319   7.953
 6103POPC   C4B16726  25.869   1.315   7.653
 6104POPC   NC316727  13.638  25.244   9.453
 6104POPC   PO416728  13.650  25.255   9.153
 6104POPC   GL116729  13.670  25.279   8.853
 6104POPC   GL216730  13.509  25.151   8.853
 6104POPC   C1A16731  13.669  25.251   8.553
 6104POPC   D2A16732  13.671  25.259   8.253
 6104POPC   C3A16733  13.642  25.247   7.953
 6104POPC   C4A16734  13.657  25.239   7.653
 6104POPC   C1B16735  13.420  25.117   8.553
 6104POPC   C2B16736  13.411  25.111   8.253
 6104POPC   C3B16737  13.454  25.162   7.953
 6104POPC   C4B16738  13.438  25.132   7.653
 6105POPC   NC316739   2.753  13.589   9.453
 6105POPC   PO416740   2.806  13.585   9.153
 6105POPC   GL116741   2.719  13.656   8.853
 6105POPC   GL216742   2.705  13.779   8.853
 6105POPC   C1A16743   2.798  13.631   8.553
 6105POPC   D2A16744   2.736  13.633   8.253
 6105POPC   C3A16745   2.719  13.630   7.953
 6105POPC   C4A16746   2.800  13.654   7.653
 6105POPC   C1B16747   2.670  13.823   8.553
 6105POPC   C2B16748   2.717  13.875   8.253
 6105POPC   C3B16749   2.723  13.879   7.953
 6105POPC   C4B16750   2.737  13.869   7.653
 6106POPC   NC316751  22.156  33.770   9.453
 6106POPC   PO416752  22.139  33.790   9.153
 6106POPC   GL116753  22.149  33.837   8.853
 6106POPC   GL216754  21.999  33.812   8.853
 6106POPC   C1A16755  22.204  33.753   8.553
 6106POPC   D2A16756  22.203  33.828   8.253
 6106POPC   C3A16757  22.194  33.768   7.953
 6106POPC   C4A16758  22.193  33.797   7.653
 6106POPC   C1B16759  21.922  33.736   8.553
 6106POPC   C2B16760  21.897  33.731   8.253
 6106POPC   C3B16761  21.870  33.776   7.953
 6106POPC   C4B16762  21.901  33.793   7.653
 6107POPC   NC316763  29.165  40.007   9.453
 6107POPC   PO416764  29.146  39.978   9.153
 6107POPC   GL116765  29.103  39.991   8.853
 6107POPC   GL216766  29.292  39.965   8.853
 6107POPC   C1A16767  29.187  40.019   8.553
 6107POPC   D2A16768  29.140  40.011   8.253
 6107POPC   C3A16769  29.189  39.968   7.953
 6107POPC   C4A16770  29.096  40.048   7.653
 6107POPC   C1B16771  29.313  39.854   8.553
 6107POPC   C2B16772  29.378  39.864   8.253
 6107POPC   C3B16773  29.392  39.866   7.953
 6107POPC   C4B16774  29.392  39.890   7.653
 6108POPC   NC316775  17.497   5.851   9.453
 6108POPC   PO416776  17.508   5.917   9.153
 6108POPC   GL116777  17.479   5.903   8.853
 6108POPC   GL216778  17.447   5.988   8.853
 6108POPC   C1A16779  17.510   5.861   8.553
 6108POPC   D2A16780  17.502   5.864   8.253
 6108POPC   C3A16781  17.507   5.854   7.953
 6108POPC   C4A16782  17.525   5.875   7.653
 6108POPC   C1B16783  17.390   6.120   8.553
 6108POPC   C2B16784  17.382   6.121   8.253
 6108POPC   C3B16785  17.340   6.109   7.953
 6108POPC   C4B16786  17.404   6.066   7.653
 6109POPC   NC316787  24.499  14.437   9.453
 6109POPC   PO416788  24.496  14.429   9.153
 6109POPC   GL116789  24.472  14.445   8.853
 6109POPC   GL216790  24.594  14.496   8.853
 6109POPC   C1A16791  24.508  14.388   8.553
 6109POPC   D2A16792  24.496  14.358   8.253
 6109POPC   C3A16793  24.532  14.431   7.953
 6109POPC   C4A16794  24.503  14.401   7.653
 6109POPC   C1B16795  24.647  14.638   8.553
 6109POPC   C2B16796  24.592  14.575   8.253
 6109POPC   C3B16797  24.654  14.597   7.953
 6109POPC   C4B16798  24.621  14.562   7.653
 6110POPC   NC316799  38.427  36.166   9.453
 6110POPC   PO416800  38.407  36.124   9.153
 6110POPC   GL116801  38.408  36.100   8.853
 6110POPC   GL216802  38.400  36.244   8.853
 6110POPC   C1A16803  38.496  36.110   8.553
 6110POPC   D2A16804  38.442  36.128   8.253
 6110POPC   C3A16805  38.429  36.165   7.953
 6110POPC   C4A16806  38.417  36.153   7.653
 6110POPC   C1B16807  38.340  36.316   8.553
 6110POPC   C2B16808  38.294  36.364   8.253
 6110POPC   C3B16809  38.334  36.304   7.953
 6110POPC   C4B16810  38.271  36.352   7.653
 6111POPC   NC316811  27.628  28.395   9.453
 6111POPC   PO416812  27.560  28.369   9.153
 6111POPC   GL116813  27.550  28.400   8.853
 6111POPC   GL216814  27.709  28.285   8.853
 6111POPC   C1A16815  27.596  28.329   8.553
 6111POPC   D2A16816  27.559  28.351   8.253
 6111POPC   C3A16817  27.556  28.393   7.953
 6111POPC   C4A16818  27.567  28.402   7.653
 6111POPC   C1B16819  27.764  28.249   8.553
 6111POPC   C2B16820  27.752  28.207   8.253
 6111POPC   C3B16821  27.779  28.201   7.953
 6111POPC   C4B16822  27.747  28.219   7.653
 6112POPC   NC316823  19.823  22.889   9.453
 6112POPC   PO416824  19.788  22.960   9.153
 6112POPC   GL116825  19.868  22.981   8.853
 6112POPC   GL216826  19.815  22.865   8.853
 6112POPC   C1A16827  19.797  22.943   8.553
 6112POPC   D2A16828  19.865  22.951   8.253
 6112POPC   C3A16829  19.832  22.938   7.953
 6112POPC   C4A16830  19.870  22.908   7.653
 6112POPC   C1B16831  19.747  22.708   8.553
 6112POPC   C2B16832  19.686  22.759   8.253
 6112POPC   C3B16833  19.744  22.733   7.953
 6112POPC   C4B16834  19.723  22.748   7.653
 6113POPC   NC316835  23.679  11.341   9.453
 6113POPC   PO416836  23.721  11.294   9.153
 6113POPC   GL116837  23.697  11.333   8.853
 6113POPC   GL216838  23.756  11.463   8.853
 6113POPC   C1A16839  23.717  11.305   8.553
 6113POPC   D2A16840  23.709  11.285   8.253
 6113POPC   C3A16841  23.733  11.274   7.953
 6113POPC   C4A16842  23.693  11.324   7.653
 6113POPC   C1B16843  23.673  11.524   8.553
 6113POPC   C2B16844  23.724  11.539   8.253
 6113POPC   C3B16845  23.754  11.547   7.953
 6113POPC   C4B16846  23.703  11.572   7.653
 6114POPC   NC316847  24.529  42.329   9.453
 6114POPC   PO416848  24.460  42.329   9.153
 6114POPC   GL116849  24.532  42.360   8.853
 6114POPC   GL216850  24.400  42.406   8.853
 6114POPC   C1A16851  24.527  42.315   8.553
 6114POPC   D2A16852  24.527  42.368   8.253
 6114POPC   C3A16853  24.514  42.371   7.953
 6114POPC   C4A16854  24.465  42.325   7.653
 6114POPC   C1B16855  24.254  42.352   8.553
 6114POPC   C2B16856  24.200  42.339   8.253
 6114POPC   C3B16857  24.264  42.354   7.953
 6114POPC   C4B16858  24.287  42.367   7.653
 6115POPC   NC316859   3.504   8.221   9.453
 6115POPC   PO416860   3.554   8.235   9.153
 6115POPC   GL116861   3.554   8.246   8.853
 6115POPC   GL216862   3.390   8.170   8.853
 6115POPC   C1A16863   3.561   8.215   8.553
 6115POPC   D2A16864   3.523   8.151   8.253
 6115POPC   C3A16865   3.524   8.182   7.953
 6115POPC   C4A16866   3.534   8.211   7.653
 6115POPC   C1B16867   3.280   8.137   8.553
 6115POPC   C2B16868   3.271   8.082   8.253
 6115POPC   C3B16869   3.308   8.106   7.953
 6115POPC   C4B16870   3.309   8.123   7.653
 6116POPC   NC316871  18.241  29.952   9.453
 6116POPC   PO416872  18.332  29.928   9.153
 6116POPC   GL116873  18.276  29.888   8.853
 6116POPC   GL216874  18.359  30.071   8.853
 6116POPC   C1A16875  18.243  29.918   8.553
 6116POPC   D2A16876  18.309  29.949   8.253
 6116POPC   C3A16877  18.265  29.943   7.953
 6116POPC   C4A16878  18.260  29.908   7.653
 6116POPC   C1B16879  18.334  30.120   8.553
 6116POPC   C2B16880  18.310  30.201   8.253
 6116POPC   C3B16881  18.338  30.136   7.953
 6116POPC   C4B16882  18.400  30.172   7.653
 6117POPC   NC316883   5.831  12.864   9.453
 6117POPC   PO416884   5.900  12.845   9.153
 6117POPC   GL116885   5.836  12.854   8.853
 6117POPC   GL216886   5.799  12.725   8.853
 6117POPC   C1A16887   5.912  12.865   8.553
 6117POPC   D2A16888   5.902  12.822   8.253
 6117POPC   C3A16889   5.861  12.853   7.953
 6117POPC   C4A16890   5.867  12.854   7.653
 6117POPC   C1B16891   5.681  12.685   8.553
 6117POPC   C2B16892   5.646  12.702   8.253
 6117POPC   C3B16893   5.719  12.704   7.953
 6117POPC   C4B16894   5.654  12.694   7.653
 6118POPC   NC316895  24.502  26.030   9.453
 6118POPC   PO416896  24.492  26.004   9.153
 6118POPC   GL116897  24.516  26.080   8.853
 6118POPC   GL216898  24.646  25.965   8.853
 6118POPC   C1A16899  24.475  26.009   8.553
 6118POPC   D2A16900  24.441  26.058   8.253
 6118POPC   C3A16901  24.459  26.070   7.953
 6118POPC   C4A16902  24.446  26.053   7.653
 6118POPC   C1B16903  24.711  25.974   8.553
 6118POPC   C2B16904  24.755  25.957   8.253
 6118POPC   C3B16905  24.714  25.928   7.953
 6118POPC   C4B16906  24.696  25.941   7.653
 6119POPC   NC316907  39.206  43.099   9.453
 6119POPC   PO416908  39.183  43.147   9.153
 6119POPC   GL116909  39.266  43.092   8.853
 6119POPC   GL216910  39.208  42.968   8.853
 6119POPC   C1A16911  39.257  43.079   8.553
 6119POPC   D2A16912  39.260  43.109   8.253
 6119POPC   C3A16913  39.259  43.132   7.953
 6119POPC   C4A16914  39.226  43.073   7.653
 6119POPC   C1B16915  39.165  42.836   8.553
 6119POPC   C2B16916  39.121  42.897   8.253
 6119POPC   C3B16917  39.112  42.841   7.953
 6119POPC   C4B16918  39.185  42.896   7.653
 6120POPC   NC316919  19.063   3.524   9.453
 6120POPC   PO416920  19.056   3.533   9.153
 6120POPC   GL116921  19.062   3.559   8.853
 6120POPC   GL216922  19.123   3.467   8.853
 6120POPC   C1A16923  19.067   3.514   8.553
 6120POPC   D2A16924  19.032   3.516   8.253
 6120POPC   C3A16925  19.054   3.569   7.953
 6120POPC   C4A16926  19.035   3.588   7.653
 6120POPC   C1B16927  19.157   3.288   8.553
 6120POPC   C2B16928  19.182   3.288   8.253
 6120POPC   C3B16929  19.178   3.323   7.953
 6120POPC   C4B16930  19.160   3.321   7.653
 6121POPC   NC316931  39.961  26.849   9.453
 6121POPC   PO416932  39.995  26.769   9.153
 6121POPC   GL116933  39.998  26.829   8.853
 6121POPC   GL216934  39.848  26.798   8.853
 6121POPC   C1A16935  39.981  26.847   8.553
 6121POPC   D2A16936  39.984  26.849   8.253
 6121POPC   C3A16937  39.987  26.861   7.953
 6121POPC   C4A16938  40.056  26.855   7.653
 6121POPC   C1B16939  39.723  26.831   8.553
 6121POPC   C2B16940  39.743  26.806   8.253
 6121POPC   C3B16941  39.764  26.788   7.953
 6121POPC   C4B16942  39.711  26.838   7.653
 6122POPC   NC316943   1.954  39.203   9.453
 6122POPC   PO416944   2.027  39.267   9.153
 6122POPC   GL116945   1.952  39.248   8.853
 6122POPC   GL216946   1.856  39.318   8.853
 6122POPC   C1A16947   1.981  39.203   8.553
 6122POPC   D2A16948   1.986  39.197   8.253
 6122POPC   C3A16949   2.013  39.182   7.953
 6122POPC   C4A16950   2.029  39.233   7.653
 6122POPC   C1B16951   1.785  39.371   8.553
 6122POPC   C2B16952   1.743  39.387   8.253
 6122POPC   C3B16953   1.756  39.344   7.953
 6122POPC   C4B16954   1.820  39.417   7.653
 6123POPC   NC316955  14.422   1.942   9.453
 6123POPC   PO416956  14.443   1.957   9.153
 6123POPC   GL116957  14.418   2.009   8.853
 6123POPC   GL216958  14.421   1.916   8.853
 6123POPC   C1A16959  14.354   2.018   8.553
 6123POPC   D2A16960  14.410   1.955   8.253
 6123POPC   C3A16961  14.431   1.984   7.953
 6123POPC   C4A16962  14.439   1.950   7.653
 6123POPC   C1B16963  14.501   1.736   8.553
 6123POPC   C2B16964  14.522   1.802   8.253
 6123POPC   C3B16965  14.468   1.782   7.953
 6123POPC   C4B16966  14.475   1.734   7.653
 6124POPC   NC316967  13.653  43.159   9.453
 6124POPC   PO416968  13.590  43.088   9.153
 6124POPC   GL116969  13.676  43.131   8.853
 6124POPC   GL216970  13.479  43.071   8.853
 6124POPC   C1A16971  13.615  43.155   8.553
 6124POPC   D2A16972  13.619  43.107   8.253
 6124POPC   C3A16973  13.654  43.061   7.953
 6124POPC   C4A16974  13.671  43.097   7.653
 6124POPC   C1B16975  13.382  42.919   8.553
 6124POPC   C2B16976  13.417  42.997   8.253
 6124POPC   C3B16977  13.422  43.000   7.953
 6124POPC   C4B16978  13.385  42.973   7.653
 6125POPC   NC316979   8.200  21.420   9.453
 6125POPC   PO416980   8.226  21.344   9.153
 6125POPC   GL116981   8.174  21.337   8.853
 6125POPC   GL216982   8.124  21.423   8.853
 6125POPC   C1A16983   8.205  21.434   8.553
 6125POPC   D2A16984   8.175  21.410   8.253
 6125POPC   C3A16985   8.189  21.373   7.953
 6125POPC   C4A16986   8.187  21.368   7.653
 6125POPC   C1B16987   8.031  21.518   8.553
 6125POPC   C2B16988   7.958  21.494   8.253
 6125POPC   C3B16989   7.941  21.489   7.953
 6125POPC   C4B16990   7.955  21.545   7.653
 6126POPC   NC316991  18.286  31.518   9.453
 6126POPC   PO416992  18.234  31.462   9.153
 6126POPC   GL116993  18.246  31.507   8.853
 6126POPC   GL216994  18.160  31.460   8.853
 6126POPC   C1A16995  18.333  31.474   8.553
 6126POPC   D2A16996  18.283  31.481   8.253
 6126POPC   C3A16997  18.290  31.434   7.953
 6126POPC   C4A16998  18.249  31.455   7.653
 6126POPC   C1B16999  18.019  31.545   8.553
 6126POPC   C2B17000  18.088  31.586   8.253
 6126POPC   C3B17001  18.046  31.525   7.953
 6126POPC   C4B17002  18.000  31.529   7.653
 6127POPC   NC317003  23.724  44.663   9.453
 6127POPC   PO417004  23.751  44.613   9.153
 6127POPC   GL117005  23.750  44.621   8.853
 6127POPC   GL217006  23.813  44.693   8.853
 6127POPC   C1A17007  23.702  44.696   8.553
 6127POPC   D2A17008  23.714  44.684   8.253
 6127POPC   C3A17009  23.749  44.691   7.953
 6127POPC   C4A17010  23.716  44.661   7.653
 6127POPC   C1B17011  23.952  44.693   8.553
 6127POPC   C2B17012  23.960  44.673   8.253
 6127POPC   C3B17013  23.998  44.702   7.953
 6127POPC   C4B17014  23.965  44.659   7.653
 6128POPC   NC317015  37.680  29.180   9.453
 6128POPC   PO417016  37.644  29.124   9.153
 6128POPC   GL117017  37.726  29.145   8.853
 6128POPC   GL217018  37.725  29.225   8.853
 6128POPC   C1A17019  37.635  29.106   8.553
 6128POPC   D2A17020  37.664  29.194   8.253
 6128POPC   C3A17021  37.710  29.098   7.953
 6128POPC   C4A17022  37.658  29.139   7.653
 6128POPC   C1B17023  37.761  29.349   8.553
 6128POPC   C2B17024  37.830  29.390   8.253
 6128POPC   C3B17025  37.764  29.347   7.953
 6128POPC   C4B17026  37.815  29.357   7.653
 6129POPC   NC317027  25.268  27.605   9.453
 6129POPC   PO417028  25.306  27.588   9.153
 6129POPC   GL117029  25.224  27.587   8.853
 6129POPC   GL217030  25.337  27.484   8.853
 6129POPC   C1A17031  25.283  27.632   8.553
 6129POPC   D2A17032  25.250  27.640   8.253
 6129POPC   C3A17033  25.281  27.641   7.953
 6129POPC   C4A17034  25.270  27.563   7.653
 6129POPC   C1B17035  25.521  27.459   8.553
 6129POPC   C2B17036  25.452  27.450   8.253
 6129POPC   C3B17037  25.467  27.476   7.953
 6129POPC   C4B17038  25.469  27.422   7.653
 6130POPC   NC317039   9.762  23.704   9.453
 6130POPC   PO417040   9.776  23.676   9.153
 6130POPC   GL117041   9.766  23.740   8.853
 6130POPC   GL217042   9.674  23.799   8.853
 6130POPC   C1A17043   9.785  23.742   8.553
 6130POPC   D2A17044   9.762  23.742   8.253
 6130POPC   C3A17045   9.735  23.702   7.953
 6130POPC   C4A17046   9.727  23.756   7.653
 6130POPC   C1B17047   9.524  23.820   8.553
 6130POPC   C2B17048   9.480  23.813   8.253
 6130POPC   C3B17049   9.562  23.792   7.953
 6130POPC   C4B17050   9.542  23.810   7.653
 6131POPC   NC317051   9.724  19.866   9.453
 6131POPC   PO417052   9.728  19.803   9.153
 6131POPC   GL117053   9.789  19.806   8.853
 6131POPC   GL217054   9.661  19.789   8.853
 6131POPC   C1A17055   9.765  19.853   8.553
 6131POPC   D2A17056   9.718  19.797   8.253
 6131POPC   C3A17057   9.707  19.829   7.953
 6131POPC   C4A17058   9.726  19.863   7.653
 6131POPC   C1B17059   9.535  19.647   8.553
 6131POPC   C2B17060   9.544  19.673   8.253
 6131POPC   C3B17061   9.510  19.666   7.953
 6131POPC   C4B17062   9.507  19.636   7.653
 6132POPC   NC317063  12.102  14.421   9.453
 6132POPC   PO417064  12.082  14.426   9.153
 6132POPC   GL117065  12.103  14.393   8.853
 6132POPC   GL217066  11.992  14.292   8.853
 6132POPC   C1A17067  12.091  14.453   8.553
 6132POPC   D2A17068  12.116  14.434   8.253
 6132POPC   C3A17069  12.072  14.376   7.953
 6132POPC   C4A17070  12.104  14.366   7.653
 6132POPC   C1B17071  11.938  14.209   8.553
 6132POPC   C2B17072  11.962  14.183   8.253
 6132POPC   C3B17073  11.939  14.206   7.953
 6132POPC   C4B17074  11.916  14.247   7.653
 6133POPC   NC317075   5.905  19.014   9.453
 6133POPC   PO417076   5.847  19.020   9.153
 6133POPC   GL117077   5.889  19.060   8.853
 6133POPC   GL217078   5.774  19.031   8.853
 6133POPC   C1A17079   5.829  19.054   8.553
 6133POPC   D2A17080   5.889  19.013   8.253
 6133POPC   C3A17081   5.885  19.045   7.953
 6133POPC   C4A17082   5.897  19.029   7.653
 6133POPC   C1B17083   5.628  19.000   8.553
 6133POPC   C2B17084   5.635  18.951   8.253
 6133POPC   C3B17085   5.644  19.011   7.953
 6133POPC   C4B17086   5.641  18.923   7.653
 6134POPC   NC317087  35.392  26.828   9.453
 6134POPC   PO417088  35.373  26.861   9.153
 6134POPC   GL117089  35.389  26.831   8.853
 6134POPC   GL217090  35.517  26.851   8.853
 6134POPC   C1A17091  35.328  26.793   8.553
 6134POPC   D2A17092  35.370  26.826   8.253
 6134POPC   C3A17093  35.349  26.812   7.953
 6134POPC   C4A17094  35.349  26.861   7.653
 6134POPC   C1B17095  35.563  26.835   8.553
 6134POPC   C2B17096  35.579  26.826   8.253
 6134POPC   C3B17097  35.559  26.805   7.953
 6134POPC   C4B17098  35.639  26.886   7.653
 6135POPC   NC317099  29.141   6.605   9.453
 6135POPC   PO417100  29.195   6.669   9.153
 6135POPC   GL117101  29.172   6.620   8.853
 6135POPC   GL217102  29.256   6.537   8.853
 6135POPC   C1A17103  29.176   6.616   8.553
 6135POPC   D2A17104  29.149   6.642   8.253
 6135POPC   C3A17105  29.096   6.670   7.953
 6135POPC   C4A17106  29.135   6.647   7.653
 6135POPC   C1B17107  29.365   6.507   8.553
 6135POPC   C2B17108  29.397   6.479   8.253
 6135POPC   C3B17109  29.363   6.559   7.953
 6135POPC   C4B17110  29.362   6.493   7.653
 6136POPC   NC317111   8.971  18.301   9.453
 6136POPC   PO417112   9.014  18.272   9.153
 6136POPC   GL117113   9.010  18.327   8.853
 6136POPC   GL217114   8.875  18.381   8.853
 6136POPC   C1A17115   8.988  18.303   8.553
 6136POPC   D2A17116   8.981  18.287   8.253
 6136POPC   C3A17117   8.925  18.320   7.953
 6136POPC   C4A17118   8.997  18.234   7.653
 6136POPC   C1B17119   8.738  18.407   8.553
 6136POPC   C2B17120   8.793  18.447   8.253
 6136POPC   C3B17121   8.742  18.396   7.953
 6136POPC   C4B17122   8.782  18.376   7.653
 6137POPC   NC317123   6.666  30.705   9.453
 6137POPC   PO417124   6.607  30.722   9.153
 6137POPC   GL117125   6.663  30.713   8.853
 6137POPC   GL217126   6.707  30.576   8.853
 6137POPC   C1A17127   6.671  30.677   8.553
 6137POPC   D2A17128   6.604  30.656   8.253
 6137POPC   C3A17129   6.655  30.686   7.953
 6137POPC   C4A17130   6.621  30.655   7.653
 6137POPC   C1B17131   6.812  30.485   8.553
 6137POPC   C2B17132   6.795  30.501   8.253
 6137POPC   C3B17133   6.803  30.499   7.953
 6137POPC   C4B17134   6.842  30.487   7.653
 6138POPC   NC317135   9.777  11.309   9.453
 6138POPC   PO417136   9.763  11.325   9.153
 6138POPC   GL117137   9.749  11.320   8.853
 6138POPC   GL217138   9.796  11.406   8.853
 6138POPC   C1A17139   9.755  11.291   8.553
 6138POPC   D2A17140   9.783  11.327   8.253
 6138POPC   C3A17141   9.788  11.349   7.953
 6138POPC   C4A17142   9.763  11.316   7.653
 6138POPC   C1B17143   9.913  11.443   8.553
 6138POPC   C2B17144   9.955  11.442   8.253
 6138POPC   C3B17145   9.914  11.447   7.953
 6138POPC   C4B17146   9.899  11.463   7.653
 6139POPC   NC317147  41.528   2.771   9.453
 6139POPC   PO417148  41.556   2.766   9.153
 6139POPC   GL117149  41.509   2.779   8.853
 6139POPC   GL217150  41.670   2.653   8.853
 6139POPC   C1A17151  41.596   2.778   8.553
 6139POPC   D2A17152  41.598   2.787   8.253
 6139POPC   C3A17153  41.571   2.749   7.953
 6139POPC   C4A17154  41.593   2.724   7.653
 6139POPC   C1B17155  41.690   2.622   8.553
 6139POPC   C2B17156  41.769   2.610   8.253
 6139POPC   C3B17157  41.763   2.542   7.953
 6139POPC   C4B17158  41.708   2.624   7.653
 6140POPC   NC317159  36.857  20.645   9.453
 6140POPC   PO417160  36.950  20.603   9.153
 6140POPC   GL117161  36.885  20.611   8.853
 6140POPC   GL217162  36.987  20.595   8.853
 6140POPC   C1A17163  36.864  20.569   8.553
 6140POPC   D2A17164  36.922  20.635   8.253
 6140POPC   C3A17165  36.888  20.578   7.953
 6140POPC   C4A17166  36.872  20.641   7.653
 6140POPC   C1B17167  37.172  20.570   8.553
 6140POPC   C2B17168  37.176  20.598   8.253
 6140POPC   C3B17169  37.188  20.539   7.953
 6140POPC   C4B17170  37.104  20.563   7.653
 6141POPC   NC317171  32.977  22.930   9.453
 6141POPC   PO417172  32.986  22.944   9.153
 6141POPC   GL117173  33.026  22.889   8.853
 6141POPC   GL217174  33.003  23.010   8.853
 6141POPC   C1A17175  32.980  22.954   8.553
 6141POPC   D2A17176  33.074  22.905   8.253
 6141POPC   C3A17177  32.999  22.964   7.953
 6141POPC   C4A17178  33.043  22.986   7.653
 6141POPC   C1B17179  32.935  23.132   8.553
 6141POPC   C2B17180  32.927  23.214   8.253
 6141POPC   C3B17181  32.961  23.139   7.953
 6141POPC   C4B17182  32.927  23.212   7.653
 6142POPC   NC317183   7.382   5.851   9.453
 6142POPC   PO417184   7.394   5.892   9.153
 6142POPC   GL117185   7.409   5.864   8.853
 6142POPC   GL217186   7.443   5.737   8.853
 6142POPC   C1A17187   7.464   5.860   8.553
 6142POPC   D2A17188   7.384   5.821   8.253
 6142POPC   C3A17189   7.401   5.917   7.953
 6142POPC   C4A17190   7.373   5.898   7.653
 6142POPC   C1B17191   7.514   5.685   8.553
 6142POPC   C2B17192   7.534   5.628   8.253
 6142POPC   C3B17193   7.572   5.622   7.953
 6142POPC   C4B17194   7.546   5.666   7.653
 6143POPC   NC317195  19.071  24.478   9.453
 6143POPC   PO417196  19.016  24.470   9.153
 6143POPC   GL117197  19.020  24.537   8.853
 6143POPC   GL217198  19.131  24.413   8.853
 6143POPC   C1A17199  19.024  24.459   8.553
 6143POPC   D2A17200  19.012  24.461   8.253
 6143POPC   C3A17201  19.035  24.479   7.953
 6143POPC   C4A17202  19.038  24.521   7.653
 6143POPC   C1B17203  19.226  24.359   8.553
 6143POPC   C2B17204  19.257  24.280   8.253
 6143POPC   C3B17205  19.271  24.300   7.953
 6143POPC   C4B17206  19.198  24.336   7.653
 6144POPC   NC317207  32.249  31.489   9.453
 6144POPC   PO417208  32.212  31.471   9.153
 6144POPC   GL117209  32.228  31.502   8.853
 6144POPC   GL217210  32.325  31.621   8.853
 6144POPC   C1A17211  32.286  31.468   8.553
 6144POPC   D2A17212  32.214  31.463   8.253
 6144POPC   C3A17213  32.249  31.499   7.953
 6144POPC   C4A17214  32.269  31.479   7.653
 6144POPC   C1B17215  32.394  31.676   8.553
 6144POPC   C2B17216  32.357  31.691   8.253
 6144POPC   C3B17217  32.336  31.699   7.953
 6144POPC   C4B17218  32.367  31.694   7.653
 6145POPC   NC317219  43.126  27.566   9.453
 6145POPC   PO417220  43.090  27.610   9.153
 6145POPC   GL117221  43.136  27.618   8.853
 6145POPC   GL217222  42.952  27.584   8.853
 6145POPC   C1A17223  43.125  27.634   8.553
 6145POPC   D2A17224  43.129  27.612   8.253
 6145POPC   C3A17225  43.086  27.601   7.953
 6145POPC   C4A17226  43.084  27.588   7.653
 6145POPC   C1B17227  42.854  27.609   8.553
 6145POPC   C2B17228  42.828  27.608   8.253
 6145POPC   C3B17229  42.910  27.683   7.953
 6145POPC   C4B17230  42.889  27.610   7.653
 6146POPC   NC317231  32.263  17.552   9.453
 6146POPC   PO417232  32.272  17.503   9.153
 6146POPC   GL117233  32.202  17.474   8.853
 6146POPC   GL217234  32.230  17.597   8.853
 6146POPC   C1A17235  32.257  17.527   8.553
 6146POPC   D2A17236  32.230  17.496   8.253
 6146POPC   C3A17237  32.228  17.457   7.953
 6146POPC   C4A17238  32.252  17.517   7.653
 6146POPC   C1B17239  32.166  17.763   8.553
 6146POPC   C2B17240  32.199  17.746   8.253
 6146POPC   C3B17241  32.143  17.795   7.953
 6146POPC   C4B17242  32.172  17.787   7.653
 6147POPC   NC317243  36.154  29.950   9.453
 6147POPC   PO417244  36.121  29.891   9.153
 6147POPC   GL117245  36.127  29.880   8.853
 6147POPC   GL217246  35.994  29.805   8.853
 6147POPC   C1A17247  36.143  29.934   8.553
 6147POPC   D2A17248  36.137  29.905   8.253
 6147POPC   C3A17249  36.110  29.919   7.953
 6147POPC   C4A17250  36.149  29.954   7.653
 6147POPC   C1B17251  35.966  29.740   8.553
 6147POPC   C2B17252  35.978  29.705   8.253
 6147POPC   C3B17253  35.942  29.773   7.953
 6147POPC   C4B17254  35.963  29.732   7.653
 6148POPC   NC317255  29.875  21.382   9.453
 6148POPC   PO417256  29.882  21.411   9.153
 6148POPC   GL117257  29.933  21.389   8.853
 6148POPC   GL217258  29.761  21.336   8.853
 6148POPC   C1A17259  29.917  21.353   8.553
 6148POPC   D2A17260  29.948  21.429   8.253
 6148POPC   C3A17261  29.896  21.430   7.953
 6148POPC   C4A17262  29.945  21.421   7.653
 6148POPC   C1B17263  29.691  21.392   8.553
 6148POPC   C2B17264  29.657  21.338   8.253
 6148POPC   C3B17265  29.691  21.381   7.953
 6148POPC   C4B17266  29.704  21.402   7.653
 6149POPC   NC317267  11.319   0.421   9.453
 6149POPC   PO417268  11.261   0.465   9.153
 6149POPC   GL117269  11.333   0.463   8.853
 6149POPC   GL217270  11.386   0.364   8.853
 6149POPC   C1A17271  11.336   0.472   8.553
 6149POPC   D2A17272  11.262   0.476   8.253
 6149POPC   C3A17273  11.308   0.450   7.953
 6149POPC   C4A17274  11.311   0.450   7.653
 6149POPC   C1B17275  11.447   0.217   8.553
 6149POPC   C2B17276  11.442   0.218   8.253
 6149POPC   C3B17277  11.487   0.256   7.953
 6149POPC   C4B17278  11.472   0.249   7.653
 6150POPC   NC317279   7.413  19.876   9.453
 6150POPC   PO417280   7.434  19.815   9.153
 6150POPC   GL117281   7.426  19.871   8.853
 6150POPC   GL217282   7.353  19.919   8.853
 6150POPC   C1A17283   7.442  19.870   8.553
 6150POPC   D2A17284   7.410  19.786   8.253
 6150POPC   C3A17285   7.422  19.831   7.953
 6150POPC   C4A17286   7.373  19.839   7.653
 6150POPC   C1B17287   7.323  20.102   8.553
 6150POPC   C2B17288   7.375  20.083   8.253
 6150POPC   C3B17289   7.291  20.078   7.953
 6150POPC   C4B17290   7.276  20.039   7.653
 6151POPC   NC317291  30.691  19.065   9.453
 6151POPC   PO417292  30.667  19.089   9.153
 6151POPC   GL117293  30.740  19.070   8.853
 6151POPC   GL217294  30.742  19.202   8.853
 6151POPC   C1A17295  30.684  19.042   8.553
 6151POPC   D2A17296  30.669  19.071   8.253
 6151POPC   C3A17297  30.689  19.090   7.953
 6151POPC   C4A17298  30.657  19.011   7.653
 6151POPC   C1B17299  30.711  19.341   8.553
 6151POPC   C2B17300  30.726  19.313   8.253
 6151POPC   C3B17301  30.725  19.263   7.953
 6151POPC   C4B17302  30.737  19.352   7.653
 6152POPC   NC317303  16.718   8.976   9.453
 6152POPC   PO417304  16.734   8.954   9.153
 6152POPC   GL117305  16.692   8.998   8.853
 6152POPC   GL217306  16.623   9.040   8.853
 6152POPC   C1A17307  16.722   9.001   8.553
 6152POPC   D2A17308  16.690   9.008   8.253
 6152POPC   C3A17309  16.774   8.937   7.953
 6152POPC   C4A17310  16.718   8.938   7.653
 6152POPC   C1B17311  16.560   9.150   8.553
 6152POPC   C2B17312  16.514   9.135   8.253
 6152POPC   C3B17313  16.517   9.119   7.953
 6152POPC   C4B17314  16.551   9.093   7.653
 6153POPC   NC317315  23.669  19.047   9.453
 6153POPC   PO417316  23.718  19.019   9.153
 6153POPC   GL117317  23.693  19.042   8.853
 6153POPC   GL217318  23.823  19.087   8.853
 6153POPC   C1A17319  23.739  19.027   8.553
 6153POPC   D2A17320  23.735  19.044   8.253
 6153POPC   C3A17321  23.720  19.066   7.953
 6153POPC   C4A17322  23.742  19.026   7.653
 6153POPC   C1B17323  23.917  18.993   8.553
 6153POPC   C2B17324  24.004  19.028   8.253
 6153POPC   C3B17325  23.982  19.057   7.953
 6153POPC   C4B17326  23.913  18.995   7.653
 6154POPC   NC317327  42.326  22.966   9.453
 6154POPC   PO417328  42.297  22.976   9.153
 6154POPC   GL117329  42.310  22.888   8.853
 6154POPC   GL217330  42.436  22.882   8.853
 6154POPC   C1A17331  42.327  22.985   8.553
 6154POPC   D2A17332  42.355  22.965   8.253
 6154POPC   C3A17333  42.363  22.950   7.953
 6154POPC   C4A17334  42.379  22.904   7.653
 6154POPC   C1B17335  42.569  22.804   8.553
 6154POPC   C2B17336  42.561  22.837   8.253
 6154POPC   C3B17337  42.572  22.798   7.953
 6154POPC   C4B17338  42.521  22.818   7.653
 6155POPC   NC317339  11.288  14.376   9.453
 6155POPC   PO417340  11.301  14.407   9.153
 6155POPC   GL117341  11.328  14.406   8.853
 6155POPC   GL217342  11.204  14.424   8.853
 6155POPC   C1A17343  11.328  14.420   8.553
 6155POPC   D2A17344  11.298  14.396   8.253
 6155POPC   C3A17345  11.252  14.421   7.953
 6155POPC   C4A17346  11.262  14.356   7.653
 6155POPC   C1B17347  11.039  14.360   8.553
 6155POPC   C2B17348  11.075  14.356   8.253
 6155POPC   C3B17349  11.044  14.349   7.953
 6155POPC   C4B17350  11.088  14.354   7.653
 6156POPC   NC317351  16.715   5.841   9.453
 6156POPC   PO417352  16.766   5.859   9.153
 6156POPC   GL117353  16.727   5.851   8.853
 6156POPC   GL217354  16.755   5.739   8.853
 6156POPC   C1A17355  16.739   5.819   8.553
 6156POPC   D2A17356  16.723   5.824   8.253
 6156POPC   C3A17357  16.765   5.872   7.953
 6156POPC   C4A17358  16.751   5.871   7.653
 6156POPC   C1B17359  16.910   5.627   8.553
 6156POPC   C2B17360  16.846   5.681   8.253
 6156POPC   C3B17361  16.856   5.654   7.953
 6156POPC   C4B17362  16.878   5.697   7.653
 6157POPC   NC317363  30.678  36.941   9.453
 6157POPC   PO417364  30.701  36.936   9.153
 6157POPC   GL117365  30.730  36.865   8.853
 6157POPC   GL217366  30.732  36.765   8.853
 6157POPC   C1A17367  30.655  36.884   8.553
 6157POPC   D2A17368  30.679  36.917   8.253
 6157POPC   C3A17369  30.684  36.927   7.953
 6157POPC   C4A17370  30.696  36.866   7.653
 6157POPC   C1B17371  30.635  36.643   8.553
 6157POPC   C2B17372  30.635  36.636   8.253
 6157POPC   C3B17373  30.719  36.632   7.953
 6157POPC   C4B17374  30.670  36.633   7.653
 6158POPC   NC317375   1.165  36.885   9.453
 6158POPC   PO417376   1.250  36.892   9.153
 6158POPC   GL117377   1.199  36.885   8.853
 6158POPC   GL217378   1.221  36.761   8.853
 6158POPC   C1A17379   1.200  36.890   8.553
 6158POPC   D2A17380   1.213  36.911   8.253
 6158POPC   C3A17381   1.166  36.885   7.953
 6158POPC   C4A17382   1.178  36.905   7.653
 6158POPC   C1B17383   1.264  36.682   8.553
 6158POPC   C2B17384   1.253  36.702   8.253
 6158POPC   C3B17385   1.259  36.665   7.953
 6158POPC   C4B17386   1.259  36.638   7.653
 6159POPC   NC317387  26.029  32.992   9.453
 6159POPC   PO417388  26.067  33.030   9.153
 6159POPC   GL117389  26.016  32.996   8.853
 6159POPC   GL217390  25.912  33.010   8.853
 6159POPC   C1A17391  26.024  33.069   8.553
 6159POPC   D2A17392  26.063  33.013   8.253
 6159POPC   C3A17393  26.080  33.050   7.953
 6159POPC   C4A17394  26.009  33.001   7.653
 6159POPC   C1B17395  25.836  32.949   8.553
 6159POPC   C2B17396  25.765  32.960   8.253
 6159POPC   C3B17397  25.809  32.960   7.953
 6159POPC   C4B17398  25.825  32.964   7.653
 6160POPC   NC317399  24.459  41.584   9.453
 6160POPC   PO417400  24.537  41.590   9.153
 6160POPC   GL117401  24.510  41.604   8.853
 6160POPC   GL217402  24.567  41.596   8.853
 6160POPC   C1A17403  24.453  41.581   8.553
 6160POPC   D2A17404  24.443  41.575   8.253
 6160POPC   C3A17405  24.518  41.512   7.953
 6160POPC   C4A17406  24.487  41.560   7.653
 6160POPC   C1B17407  24.697  41.673   8.553
 6160POPC   C2B17408  24.744  41.608   8.253
 6160POPC   C3B17409  24.694  41.637   7.953
 6160POPC   C4B17410  24.683  41.685   7.653
 6161POPC   NC317411  10.534   6.626   9.453
 6161POPC   PO417412  10.522   6.598   9.153
 6161POPC   GL117413  10.498   6.682   8.853
 6161POPC   GL217414  10.688   6.645   8.853
 6161POPC   C1A17415  10.516   6.653   8.553
 6161POPC   D2A17416  10.531   6.648   8.253
 6161POPC   C3A17417  10.553   6.645   7.953
 6161POPC   C4A17418  10.550   6.657   7.653
 6161POPC   C1B17419  10.779   6.721   8.553
 6161POPC   C2B17420  10.732   6.738   8.253
 6161POPC   C3B17421  10.711   6.758   7.953
 6161POPC   C4B17422  10.755   6.704   7.653
 6162POPC   NC317423  43.869  40.034   9.453
 6162POPC   PO417424  43.853  39.967   9.153
 6162POPC   GL117425  43.870  39.962   8.853
 6162POPC   GL217426  43.773  39.900   8.853
 6162POPC   C1A17427  43.931  40.000   8.553
 6162POPC   D2A17428  43.911  40.029   8.253
 6162POPC   C3A17429  43.883  39.969   7.953
 6162POPC   C4A17430  43.920  40.009   7.653
 6162POPC   C1B17431  43.674  39.848   8.553
 6162POPC   C2B17432  43.749  39.843   8.253
 6162POPC   C3B17433  43.748  39.880   7.953
 6162POPC   C4B17434  43.663  39.832   7.653
 6163POPC   NC317435  25.310  24.490   9.453
 6163POPC   PO417436  25.228  24.539   9.153
 6163POPC   GL117437  25.276  24.480   8.853
 6163POPC   GL217438  25.366  24.539   8.853
 6163POPC   C1A17439  25.312  24.463   8.553
 6163POPC   D2A17440  25.301  24.461   8.253
 6163POPC   C3A17441  25.313  24.488   7.953
 6163POPC   C4A17442  25.299  24.538   7.653
 6163POPC   C1B17443  25.487  24.562   8.553
 6163POPC   C2B17444  25.503  24.633   8.253
 6163POPC   C3B17445  25.538  24.607   7.953
 6163POPC   C4B17446  25.460  24.628   7.653
 6164POPC   NC317447  32.297  22.895   9.453
 6164POPC   PO417448  32.239  22.963   9.153
 6164POPC   GL117449  32.267  22.902   8.853
 6164POPC   GL217450  32.188  23.042   8.853
 6164POPC   C1A17451  32.239  22.903   8.553
 6164POPC   D2A17452  32.250  22.939   8.253
 6164POPC   C3A17453  32.250  22.922   7.953
 6164POPC   C4A17454  32.237  22.965   7.653
 6164POPC   C1B17455  32.068  23.061   8.553
 6164POPC   C2B17456  32.067  23.102   8.253
 6164POPC   C3B17457  31.996  23.071   7.953
 6164POPC   C4B17458  32.023  23.038   7.653
 6165POPC   NC317459  30.671   1.171   9.453
 6165POPC   PO417460  30.731   1.197   9.153
 6165POPC   GL117461  30.718   1.206   8.853
 6165POPC   GL217462  30.605   1.344   8.853
 6165POPC   C1A17463  30.650   1.251   8.553
 6165POPC   D2A17464  30.709   1.191   8.253
 6165POPC   C3A17465  30.744   1.198   7.953
 6165POPC   C4A17466  30.722   1.184   7.653
 6165POPC   C1B17467  30.516   1.361   8.553
 6165POPC   C2B17468  30.566   1.363   8.253
 6165POPC   C3B17469  30.544   1.388   7.953
 6165POPC   C4B17470  30.562   1.357   7.653
 6166POPC   NC317471  30.744  26.014   9.453
 6166POPC   PO417472  30.663  26.053   9.153
 6166POPC   GL117473  30.713  26.025   8.853
 6166POPC   GL217474  30.663  26.182   8.853
 6166POPC   C1A17475  30.744  26.060   8.553
 6166POPC   D2A17476  30.744  26.054   8.253
 6166POPC   C3A17477  30.719  26.018   7.953
 6166POPC   C4A17478  30.700  26.045   7.653
 6166POPC   C1B17479  30.646  26.286   8.553
 6166POPC   C2B17480  30.700  26.304   8.253
 6166POPC   C3B17481  30.630  26.277   7.953
 6166POPC   C4B17482  30.689  26.323   7.653
 6167POPC   NC317483  14.451  27.606   9.453
 6167POPC   PO417484  14.365  27.551   9.153
 6167POPC   GL117485  14.430  27.561   8.853
 6167POPC   GL217486  14.469  27.706   8.853
 6167POPC   C1A17487  14.379  27.573   8.553
 6167POPC   D2A17488  14.420  27.580   8.253
 6167POPC   C3A17489  14.435  27.557   7.953
 6167POPC   C4A17490  14.438  27.582   7.653
 6167POPC   C1B17491  14.489  27.785   8.553
 6167POPC   C2B17492  14.483  27.790   8.253
 6167POPC   C3B17493  14.440  27.802   7.953
 6167POPC   C4B17494  14.429  27.879   7.653
 6168POPC   NC317495  26.773   2.764   9.453
 6168POPC   PO417496  26.798   2.801   9.153
 6168POPC   GL117497  26.803   2.800   8.853
 6168POPC   GL217498  26.965   2.801   8.853
 6168POPC   C1A17499  26.856   2.723   8.553
 6168POPC   D2A17500  26.856   2.747   8.253
 6168POPC   C3A17501  26.815   2.783   7.953
 6168POPC   C4A17502  26.834   2.747   7.653
 6168POPC   C1B17503  27.051   2.793   8.553
 6168POPC   C2B17504  27.051   2.719   8.253
 6168POPC   C3B17505  27.079   2.724   7.953
 6168POPC   C4B17506  27.020   2.774   7.653
 6169POPC   NC317507  42.303  31.431   9.453
 6169POPC   PO417508  42.317  31.489   9.153
 6169POPC   GL117509  42.313  31.517   8.853
 6169POPC   GL217510  42.320  31.336   8.853
 6169POPC   C1A17511  42.306  31.450   8.553
 6169POPC   D2A17512  42.286  31.489   8.253
 6169POPC   C3A17513  42.304  31.485   7.953
 6169POPC   C4A17514  42.346  31.455   7.653
 6169POPC   C1B17515  42.268  31.239   8.553
 6169POPC   C2B17516  42.211  31.215   8.253
 6169POPC   C3B17517  42.256  31.200   7.953
 6169POPC   C4B17518  42.236  31.218   7.653
 6170POPC   NC317519  33.800   8.211   9.453
 6170POPC   PO417520  33.809   8.181   9.153
 6170POPC   GL117521  33.843   8.245   8.853
 6170POPC   GL217522  33.724   8.317   8.853
 6170POPC   C1A17523  33.774   8.202   8.553
 6170POPC   D2A17524  33.817   8.233   8.253
 6170POPC   C3A17525  33.756   8.222   7.953
 6170POPC   C4A17526  33.806   8.236   7.653
 6170POPC   C1B17527  33.642   8.367   8.553
 6170POPC   C2B17528  33.655   8.406   8.253
 6170POPC   C3B17529  33.583   8.334   7.953
 6170POPC   C4B17530  33.649   8.382   7.653
 6171POPC   NC317531  24.517  37.666   9.453
 6171POPC   PO417532  24.441  37.665   9.153
 6171POPC   GL117533  24.485  37.669   8.853
 6171POPC   GL217534  24.413  37.612   8.853
 6171POPC   C1A17535  24.476  37.668   8.553
 6171POPC   D2A17536  24.455  37.660   8.253
 6171POPC   C3A17537  24.497  37.686   7.953
 6171POPC   C4A17538  24.519  37.710   7.653
 6171POPC   C1B17539  24.243  37.584   8.553
 6171POPC   C2B17540  24.243  37.508   8.253
 6171POPC   C3B17541  24.250  37.514   7.953
 6171POPC   C4B17542  24.282  37.531   7.653
 6172POPC   NC317543  32.232  25.243   9.453
 6172POPC   PO417544  32.239  25.277   9.153
 6172POPC   GL117545  32.249  25.272   8.853
 6172POPC   GL217546  32.408  25.197   8.853
 6172POPC   C1A17547  32.201  25.261   8.553
 6172POPC   D2A17548  32.218  25.241   8.253
 6172POPC   C3A17549  32.264  25.293   7.953
 6172POPC   C4A17550  32.261  25.298   7.653
 6172POPC   C1B17551  32.527  25.160   8.553
 6172POPC   C2B17552  32.514  25.229   8.253
 6172POPC   C3B17553  32.508  25.218   7.953
 6172POPC   C4B17554  32.519  25.231   7.653
 6173POPC   NC317555   4.272  12.045   9.453
 6173POPC   PO417556   4.304  12.047   9.153
 6173POPC   GL117557   4.274  12.093   8.853
 6173POPC   GL217558   4.244  12.160   8.853
 6173POPC   C1A17559   4.269  12.038   8.553
 6173POPC   D2A17560   4.354  12.029   8.253
 6173POPC   C3A17561   4.272  12.122   7.953
 6173POPC   C4A17562   4.361  12.060   7.653
 6173POPC   C1B17563   4.072  12.230   8.553
 6173POPC   C2B17564   4.106  12.253   8.253
 6173POPC   C3B17565   4.105  12.237   7.953
 6173POPC   C4B17566   4.091  12.247   7.653
 6174POPC   NC317567  28.385  34.626   9.453
 6174POPC   PO417568  28.377  34.594   9.153
 6174POPC   GL117569  28.369  34.548   8.853
 6174POPC   GL217570  28.241  34.678   8.853
 6174POPC   C1A17571  28.352  34.571   8.553
 6174POPC   D2A17572  28.353  34.566   8.253
 6174POPC   C3A17573  28.373  34.605   7.953
 6174POPC   C4A17574  28.344  34.620   7.653
 6174POPC   C1B17575  28.179  34.744   8.553
 6174POPC   C2B17576  28.187  34.764   8.253
 6174POPC   C3B17577  28.225  34.789   7.953
 6174POPC   C4B17578  28.193  34.764   7.653
 6175POPC   NC317579  12.088   6.605   9.453
 6175POPC   PO417580  12.080   6.691   9.153
 6175POPC   GL117581  12.104   6.669   8.853
 6175POPC   GL217582  12.130   6.562   8.853
 6175POPC   C1A17583  12.119   6.668   8.553
 6175POPC   D2A17584  12.090   6.600   8.253
 6175POPC   C3A17585  12.062   6.620   7.953
 6175POPC   C4A17586  12.105   6.652   7.653
 6175POPC   C1B17587  12.260   6.490   8.553
 6175POPC   C2B17588  12.233   6.509   8.253
 6175POPC   C3B17589  12.252   6.431   7.953
 6175POPC   C4B17590  12.243   6.430   7.653
 6176POPC   NC317591  23.671  36.889   9.453
 6176POPC   PO417592  23.687  36.904   9.153
 6176POPC   GL117593  23.713  36.897   8.853
 6176POPC   GL217594  23.771  37.024   8.853
 6176POPC   C1A17595  23.719  36.863   8.553
 6176POPC   D2A17596  23.734  36.894   8.253
 6176POPC   C3A17597  23.734  36.950   7.953
 6176POPC   C4A17598  23.712  36.895   7.653
 6176POPC   C1B17599  23.798  37.120   8.553
 6176POPC   C2B17600  23.836  37.130   8.253
 6176POPC   C3B17601  23.801  37.119   7.953
 6176POPC   C4B17602  23.824  37.128   7.653
 6177POPC   NC317603  29.157  16.688   9.453
 6177POPC   PO417604  29.166  16.720   9.153
 6177POPC   GL117605  29.146  16.726   8.853
 6177POPC   GL217606  29.204  16.799   8.853
 6177POPC   C1A17607  29.177  16.694   8.553
 6177POPC   D2A17608  29.143  16.688   8.253
 6177POPC   C3A17609  29.123  16.751   7.953
 6177POPC   C4A17610  29.153  16.750   7.653
 6177POPC   C1B17611  29.297  16.939   8.553
 6177POPC   C2B17612  29.255  16.994   8.253
 6177POPC   C3B17613  29.284  16.925   7.953
 6177POPC   C4B17614  29.285  16.978   7.653
 6178POPC   NC317615  12.084   9.756   9.453
 6178POPC   PO417616  12.072   9.784   9.153
 6178POPC   GL117617  12.059   9.783   8.853
 6178POPC   GL217618  12.023   9.807   8.853
 6178POPC   C1A17619  12.044   9.765   8.553
 6178POPC   D2A17620  12.029   9.722   8.253
 6178POPC   C3A17621  12.116   9.713   7.953
 6178POPC   C4A17622  12.112   9.762   7.653
 6178POPC   C1B17623  11.932   9.899   8.553
 6178POPC   C2B17624  11.856   9.952   8.253
 6178POPC   C3B17625  11.909   9.889   7.953
 6178POPC   C4B17626  11.847   9.907   7.653
 6179POPC   NC317627  33.002  34.574   9.453
 6179POPC   PO417628  33.031  34.587   9.153
 6179POPC   GL117629  33.039  34.596   8.853
 6179POPC   GL217630  33.079  34.700   8.853
 6179POPC   C1A17631  32.987  34.579   8.553
 6179POPC   D2A17632  33.004  34.624   8.253
 6179POPC   C3A17633  32.997  34.530   7.953
 6179POPC   C4A17634  33.008  34.535   7.653
 6179POPC   C1B17635  33.162  34.742   8.553
 6179POPC   C2B17636  33.178  34.804   8.253
 6179POPC   C3B17637  33.166  34.787   7.953
 6179POPC   C4B17638  33.166  34.782   7.653
 6180POPC   NC317639   1.186  12.888   9.453
 6180POPC   PO417640   1.200  12.837   9.153
 6180POPC   GL117641   1.167  12.817   8.853
 6180POPC   GL217642   1.202  12.944   8.853
 6180POPC   C1A17643   1.215  12.837   8.553
 6180POPC   D2A17644   1.255  12.875   8.253
 6180POPC   C3A17645   1.182  12.867   7.953
 6180POPC   C4A17646   1.168  12.841   7.653
 6180POPC   C1B17647   1.167  13.077   8.553
 6180POPC   C2B17648   1.183  13.144   8.253
 6180POPC   C3B17649   1.204  13.150   7.953
 6180POPC   C4B17650   1.205  13.064   7.653
 6181POPC   NC317651  39.996   8.993   9.453
 6181POPC   PO417652  40.047   8.995   9.153
 6181POPC   GL117653  39.974   8.954   8.853
 6181POPC   GL217654  39.977   8.827   8.853
 6181POPC   C1A17655  40.006   8.956   8.553
 6181POPC   D2A17656  40.005   8.923   8.253
 6181POPC   C3A17657  40.033   8.995   7.953
 6181POPC   C4A17658  39.990   8.948   7.653
 6181POPC   C1B17659  39.936   8.688   8.553
 6181POPC   C2B17660  39.919   8.746   8.253
 6181POPC   C3B17661  39.940   8.742   7.953
 6181POPC   C4B17662  39.984   8.771   7.653
 6182POPC   NC317663  36.887  30.738   9.453
 6182POPC   PO417664  36.891  30.684   9.153
 6182POPC   GL117665  36.921  30.679   8.853
 6182POPC   GL217666  36.936  30.571   8.853
 6182POPC   C1A17667  36.886  30.681   8.553
 6182POPC   D2A17668  36.946  30.701   8.253
 6182POPC   C3A17669  36.894  30.674   7.953
 6182POPC   C4A17670  36.918  30.735   7.653
 6182POPC   C1B17671  36.987  30.490   8.553
 6182POPC   C2B17672  37.014  30.479   8.253
 6182POPC   C3B17673  36.978  30.451   7.953
 6182POPC   C4B17674  37.044  30.471   7.653
 6183POPC   NC317675   0.465   8.219   9.453
 6183POPC   PO417676   0.446   8.202   9.153
 6183POPC   GL117677   0.393   8.172   8.853
 6183POPC   GL217678   0.566   8.203   8.853
 6183POPC   C1A17679   0.445   8.154   8.553
 6183POPC   D2A17680   0.418   8.148   8.253
 6183POPC   C3A17681   0.410   8.156   7.953
 6183POPC   C4A17682   0.459   8.206   7.653
 6183POPC   C1B17683   0.661   8.289   8.553
 6183POPC   C2B17684   0.624   8.327   8.253
 6183POPC   C3B17685   0.702   8.282   7.953
 6183POPC   C4B17686   0.701   8.338   7.653
 6184POPC   NC317687  44.618  22.140   9.453
 6184POPC   PO417688  44.636  22.183   9.153
 6184POPC   GL117689  44.698  22.199   8.853
 6184POPC   GL217690  44.802  22.151   8.853
 6184POPC   C1A17691  44.641  22.167   8.553
 6184POPC   D2A17692  44.658  22.155   8.253
 6184POPC   C3A17693  44.623  22.128   7.953
 6184POPC   C4A17694  44.663  22.118   7.653
 6184POPC   C1B17695  44.903  22.233   8.553
 6184POPC   C2B17696  44.880  22.219   8.253
 6184POPC   C3B17697  44.919  22.253   7.953
 6184POPC   C4B17698  44.868  22.247   7.653
 6185POPC   NC317699  26.862   8.199   9.453
 6185POPC   PO417700  26.836   8.180   9.153
 6185POPC   GL117701  26.865   8.163   8.853
 6185POPC   GL217702  26.941   8.155   8.853
 6185POPC   C1A17703  26.796   8.170   8.553
 6185POPC   D2A17704  26.769   8.243   8.253
 6185POPC   C3A17705  26.859   8.222   7.953
 6185POPC   C4A17706  26.856   8.190   7.653
 6185POPC   C1B17707  27.106   8.215   8.553
 6185POPC   C2B17708  27.086   8.225   8.253
 6185POPC   C3B17709  27.113   8.211   7.953
 6185POPC   C4B17710  27.110   8.229   7.653
 6186POPC   NC317711  21.380  31.439   9.453
 6186POPC   PO417712  21.394  31.445   9.153
 6186POPC   GL117713  21.402  31.469   8.853
 6186POPC   GL217714  21.461  31.620   8.853
 6186POPC   C1A17715  21.403  31.519   8.553
 6186POPC   D2A17716  21.419  31.443   8.253
 6186POPC   C3A17717  21.435  31.513   7.953
 6186POPC   C4A17718  21.362  31.516   7.653
 6186POPC   C1B17719  21.495  31.668   8.553
 6186POPC   C2B17720  21.566  31.684   8.253
 6186POPC   C3B17721  21.477  31.697   7.953
 6186POPC   C4B17722  21.522  31.702   7.653
 6187POPC   NC317723   2.810  15.958   9.453
 6187POPC   PO417724   2.717  15.905   9.153
 6187POPC   GL117725   2.789  15.986   8.853
 6187POPC   GL217726   2.856  16.025   8.853
 6187POPC   C1A17727   2.796  15.938   8.553
 6187POPC   D2A17728   2.718  15.966   8.253
 6187POPC   C3A17729   2.782  15.985   7.953
 6187POPC   C4A17730   2.756  15.992   7.653
 6187POPC   C1B17731   2.909  16.134   8.553
 6187POPC   C2B17732   2.863  16.139   8.253
 6187POPC   C3B17733   2.899  16.182   7.953
 6187POPC   C4B17734   2.869  16.133   7.653
 6188POPC   NC317735  25.258  41.536   9.453
 6188POPC   PO417736  25.292  41.602   9.153
 6188POPC   GL117737  25.273  41.582   8.853
 6188POPC   GL217738  25.183  41.554   8.853
 6188POPC   C1A17739  25.236  41.546   8.553
 6188POPC   D2A17740  25.284  41.579   8.253
 6188POPC   C3A17741  25.266  41.554   7.953
 6188POPC   C4A17742  25.269  41.572   7.653
 6188POPC   C1B17743  25.043  41.449   8.553
 6188POPC   C2B17744  25.007  41.536   8.253
 6188POPC   C3B17745  25.027  41.499   7.953
 6188POPC   C4B17746  24.994  41.478   7.653
 6189POPC   NC317747   3.532  10.511   9.453
 6189POPC   PO417748   3.539  10.557   9.153
 6189POPC   GL117749   3.552  10.549   8.853
 6189POPC   GL217750   3.623  10.648   8.853
 6189POPC   C1A17751   3.509  10.514   8.553
 6189POPC   D2A17752   3.559  10.494   8.253
 6189POPC   C3A17753   3.552  10.565   7.953
 6189POPC   C4A17754   3.519  10.558   7.653
 6189POPC   C1B17755   3.706  10.711   8.553
 6189POPC   C2B17756   3.713  10.725   8.253
 6189POPC   C3B17757   3.683  10.742   7.953
 6189POPC   C4B17758   3.660  10.711   7.653
 6190POPC   NC317759  24.453   1.189   9.453
 6190POPC   PO417760  24.504   1.240   9.153
 6190POPC   GL117761  24.495   1.212   8.853
 6190POPC   GL217762  24.532   1.118   8.853
 6190POPC   C1A17763  24.486   1.188   8.553
 6190POPC   D2A17764  24.441   1.226   8.253
 6190POPC   C3A17765  24.499   1.181   7.953
 6190POPC   C4A17766  24.447   1.213   7.653
 6190POPC   C1B17767  24.619   1.048   8.553
 6190POPC   C2B17768  24.649   1.024   8.253
 6190POPC   C3B17769  24.595   1.047   7.953
 6190POPC   C4B17770  24.593   1.033   7.653
 6191POPC   NC317771  19.023  30.721   9.453
 6191POPC   PO417772  19.078  30.718   9.153
 6191POPC   GL117773  19.047  30.711   8.853
 6191POPC   GL217774  19.049  30.574   8.853
 6191POPC   C1A17775  19.080  30.654   8.553
 6191POPC   D2A17776  19.097  30.651   8.253
 6191POPC   C3A17777  19.022  30.687   7.953
 6191POPC   C4A17778  19.048  30.728   7.653
 6191POPC   C1B17779  18.975  30.437   8.553
 6191POPC   C2B17780  18.969  30.498   8.253
 6191POPC   C3B17781  18.975  30.500   7.953
 6191POPC   C4B17782  18.995  30.449   7.653
 6192POPC   NC317783  11.313  10.519   9.453
 6192POPC   PO417784  11.251  10.483   9.153
 6192POPC   GL117785  11.310  10.569   8.853
 6192POPC   GL217786  11.442  10.533   8.853
 6192POPC   C1A17787  11.319  10.506   8.553
 6192POPC   D2A17788  11.276  10.562   8.253
 6192POPC   C3A17789  11.252  10.534   7.953
 6192POPC   C4A17790  11.318  10.565   7.653
 6192POPC   C1B17791  11.514  10.596   8.553
 6192POPC   C2B17792  11.540  10.524   8.253
 6192POPC   C3B17793  11.585  10.523   7.953
 6192POPC   C4B17794  11.504  10.543   7.653
 6193POPC   NC317795  41.558  22.892   9.453
 6193POPC   PO417796  41.519  22.902   9.153
 6193POPC   GL117797  41.578  22.979   8.853
 6193POPC   GL217798  41.461  22.809   8.853
 6193POPC   C1A17799  41.512  22.979   8.553
 6193POPC   D2A17800  41.573  22.918   8.253
 6193POPC   C3A17801  41.523  22.894   7.953
 6193POPC   C4A17802  41.585  22.899   7.653
 6193POPC   C1B17803  41.447  22.757   8.553
 6193POPC   C2B17804  41.431  22.723   8.253
 6193POPC   C3B17805  41.359  22.780   7.953
 6193POPC   C4B17806  41.417  22.710   7.653
 6194POPC   NC317807   5.865  16.719   9.453
 6194POPC   PO417808   5.918  16.763   9.153
 6194POPC   GL117809   5.827  16.757   8.853
 6194POPC   GL217810   5.954  16.650   8.853
 6194POPC   C1A17811   5.820  16.725   8.553
 6194POPC   D2A17812   5.906  16.778   8.253
 6194POPC   C3A17813   5.877  16.695   7.953
 6194POPC   C4A17814   5.894  16.724   7.653
 6194POPC   C1B17815   6.046  16.565   8.553
 6194POPC   C2B17816   5.986  16.540   8.253
 6194POPC   C3B17817   6.026  16.535   7.953
 6194POPC   C4B17818   5.984  16.484   7.653
 6195POPC   NC317819  20.632  24.539   9.453
 6195POPC   PO417820  20.566  24.495   9.153
 6195POPC   GL117821  20.609  24.453   8.853
 6195POPC   GL217822  20.747  24.493   8.853
 6195POPC   C1A17823  20.611  24.486   8.553
 6195POPC   D2A17824  20.615  24.526   8.253
 6195POPC   C3A17825  20.648  24.483   7.953
 6195POPC   C4A17826  20.601  24.537   7.653
 6195POPC   C1B17827  20.834  24.401   8.553
 6195POPC   C2B17828  20.887  24.415   8.253
 6195POPC   C3B17829  20.873  24.457   7.953
 6195POPC   C4B17830  20.823  24.462   7.653
 6196POPC   NC317831  12.027  22.172   9.453
 6196POPC   PO417832  12.096  22.146   9.153
 6196POPC   GL117833  12.106  22.151   8.853
 6196POPC   GL217834  12.166  22.203   8.853
 6196POPC   C1A17835  12.098  22.147   8.553
 6196POPC   D2A17836  12.122  22.201   8.253
 6196POPC   C3A17837  12.036  22.179   7.953
 6196POPC   C4A17838  12.028  22.187   7.653
 6196POPC   C1B17839  12.295  22.189   8.553
 6196POPC   C2B17840  12.327  22.243   8.253
 6196POPC   C3B17841  12.325  22.163   7.953
 6196POPC   C4B17842  12.334  22.244   7.653
 6197POPC   NC317843  15.979  28.359   9.453
 6197POPC   PO417844  15.911  28.324   9.153
 6197POPC   GL117845  15.943  28.407   8.853
 6197POPC   GL217846  15.794  28.355   8.853
 6197POPC   C1A17847  15.951  28.382   8.553
 6197POPC   D2A17848  15.910  28.354   8.253
 6197POPC   C3A17849  15.933  28.336   7.953
 6197POPC   C4A17850  15.974  28.389   7.653
 6197POPC   C1B17851  15.693  28.255   8.553
 6197POPC   C2B17852  15.724  28.250   8.253
 6197POPC   C3B17853  15.769  28.257   7.953
 6197POPC   C4B17854  15.674  28.295   7.653
 6198POPC   NC317855  24.517  17.541   9.453
 6198POPC   PO417856  24.494  17.530   9.153
 6198POPC   GL117857  24.493  17.514   8.853
 6198POPC   GL217858  24.503  17.596   8.853
 6198POPC   C1A17859  24.476  17.490   8.553
 6198POPC   D2A17860  24.448  17.493   8.253
 6198POPC   C3A17861  24.441  17.550   7.953
 6198POPC   C4A17862  24.487  17.477   7.653
 6198POPC   C1B17863  24.465  17.769   8.553
 6198POPC   C2B17864  24.418  17.730   8.253
 6198POPC   C3B17865  24.403  17.786   7.953
 6198POPC   C4B17866  24.454  17.732   7.653
 6199POPC   NC317867  26.010  29.127   9.453
 6199POPC   PO417868  26.047  29.179   9.153
 6199POPC   GL117869  26.071  29.143   8.853
 6199POPC   GL217870  26.132  29.237   8.853
 6199POPC   C1A17871  25.996  29.185   8.553
 6199POPC   D2A17872  26.080  29.172   8.253
 6199POPC   C3A17873  26.065  29.131   7.953
 6199POPC   C4A17874  26.028  29.113   7.653
 6199POPC   C1B17875  26.188  29.360   8.553
 6199POPC   C2B17876  26.152  29.365   8.253
 6199POPC   C3B17877  26.146  29.320   7.953
 6199POPC   C4B17878  26.207  29.341   7.653
 6200POPC   NC317879  39.240  35.320   9.453
 6200POPC   PO417880  39.276  35.364   9.153
 6200POPC   GL117881  39.219  35.363   8.853
 6200POPC   GL217882  39.313  35.358   8.853
 6200POPC   C1A17883  39.215  35.324   8.553
 6200POPC   D2A17884  39.218  35.321   8.253
 6200POPC   C3A17885  39.276  35.364   7.953
 6200POPC   C4A17886  39.273  35.380   7.653
 6200POPC   C1B17887  39.473  35.345   8.553
 6200POPC   C2B17888  39.513  35.303   8.253
 6200POPC   C3B17889  39.488  35.355   7.953
 6200POPC   C4B17890  39.518  35.292   7.653
 6201POPC   NC317891  39.977  44.636   9.453
 6201POPC   PO417892  40.002  44.707   9.153
 6201POPC   GL117893  40.014  44.618   8.853
 6201POPC   GL217894  40.042  44.514   8.853
 6201POPC   C1A17895  39.992  44.710   8.553
 6201POPC   D2A17896  39.988  44.693   8.253
 6201POPC   C3A17897  39.997  44.618   7.953
 6201POPC   C4A17898  40.032  44.706   7.653
 6201POPC   C1B17899  40.067  44.424   8.553
 6201POPC   C2B17900  40.016  44.410   8.253
 6201POPC   C3B17901  40.031  44.435   7.953
 6201POPC   C4B17902  40.049  44.428   7.653
 6202POPC   NC317903  17.517  19.816   9.453
 6202POPC   PO417904  17.528  19.849   9.153
 6202POPC   GL117905  17.484  19.787   8.853
 6202POPC   GL217906  17.349  19.785   8.853
 6202POPC   C1A17907  17.520  19.846   8.553
 6202POPC   D2A17908  17.536  19.876   8.253
 6202POPC   C3A17909  17.460  19.863   7.953
 6202POPC   C4A17910  17.477  19.811   7.653
 6202POPC   C1B17911  17.253  19.745   8.553
 6202POPC   C2B17912  17.231  19.733   8.253
 6202POPC   C3B17913  17.277  19.793   7.953
 6202POPC   C4B17914  17.219  19.766   7.653
 6203POPC   NC317915  17.492  41.609   9.453
 6203POPC   PO417916  17.540  41.542   9.153
 6203POPC   GL117917  17.554  41.530   8.853
 6203POPC   GL217918  17.417  41.633   8.853
 6203POPC   C1A17919  17.457  41.528   8.553
 6203POPC   D2A17920  17.515  41.518   8.253
 6203POPC   C3A17921  17.532  41.596   7.953
 6203POPC   C4A17922  17.485  41.597   7.653
 6203POPC   C1B17923  17.328  41.641   8.553
 6203POPC   C2B17924  17.295  41.726   8.253
 6203POPC   C3B17925  17.283  41.659   7.953
 6203POPC   C4B17926  17.246  41.660   7.653
 6204POPC   NC317927  26.834  16.744   9.453
 6204POPC   PO417928  26.836  16.685   9.153
 6204POPC   GL117929  26.830  16.728   8.853
 6204POPC   GL217930  26.705  16.873   8.853
 6204POPC   C1A17931  26.798  16.715   8.553
 6204POPC   D2A17932  26.807  16.719   8.253
 6204POPC   C3A17933  26.802  16.716   7.953
 6204POPC   C4A17934  26.820  16.697   7.653
 6204POPC   C1B17935  26.619  16.948   8.553
 6204POPC   C2B17936  26.614  16.947   8.253
 6204POPC   C3B17937  26.612  16.915   7.953
 6204POPC   C4B17938  26.651  16.902   7.653
 6205POPC   NC317939  36.870  36.943   9.453
 6205POPC   PO417940  36.881  36.878   9.153
 6205POPC   GL117941  36.923  36.885   8.853
 6205POPC   GL217942  36.963  37.001   8.853
 6205POPC   C1A17943  36.930  36.952   8.553
 6205POPC   D2A17944  36.952  36.914   8.253
 6205POPC   C3A17945  36.916  36.912   7.953
 6205POPC   C4A17946  36.870  36.914   7.653
 6205POPC   C1B17947  36.995  37.090   8.553
 6205POPC   C2B17948  37.080  37.103   8.253
 6205POPC   C3B17949  37.067  37.142   7.953
 6205POPC   C4B17950  37.029  37.092   7.653
 6206POPC   NC317951   2.038   8.167   9.453
 6206POPC   PO417952   2.037   8.228   9.153
 6206POPC   GL117953   1.970   8.162   8.853
 6206POPC   GL217954   1.978   8.068   8.853
 6206POPC   C1A17955   2.039   8.239   8.553
 6206POPC   D2A17956   1.967   8.239   8.253
 6206POPC   C3A17957   2.015   8.155   7.953
 6206POPC   C4A17958   1.962   8.202   7.653
 6206POPC   C1B17959   1.922   7.951   8.553
 6206POPC   C2B17960   1.968   7.924   8.253
 6206POPC   C3B17961   1.928   7.913   7.953
 6206POPC   C4B17962   1.899   7.982   7.653
 6207POPC   NC317963  17.532  20.582   9.453
 6207POPC   PO417964  17.528  20.653   9.153
 6207POPC   GL117965  17.463  20.628   8.853
 6207POPC   GL217966  17.646  20.598   8.853
 6207POPC   C1A17967  17.484  20.588   8.553
 6207POPC   D2A17968  17.522  20.611   8.253
 6207POPC   C3A17969  17.531  20.650   7.953
 6207POPC   C4A17970  17.514  20.618   7.653
 6207POPC   C1B17971  17.790  20.659   8.553
 6207POPC   C2B17972  17.743  20.650   8.253
 6207POPC   C3B17973  17.718  20.687   7.953
 6207POPC   C4B17974  17.745  20.664   7.653
 6208POPC   NC317975  24.513  12.037   9.453
 6208POPC   PO417976  24.534  12.073   9.153
 6208POPC   GL117977  24.510  12.101   8.853
 6208POPC   GL217978  24.418  12.115   8.853
 6208POPC   C1A17979  24.448  12.036   8.553
 6208POPC   D2A17980  24.451  12.030   8.253
 6208POPC   C3A17981  24.475  12.063   7.953
 6208POPC   C4A17982  24.456  12.071   7.653
 6208POPC   C1B17983  24.317  12.230   8.553
 6208POPC   C2B17984  24.354  12.241   8.253
 6208POPC   C3B17985  24.330  12.268   7.953
 6208POPC   C4B17986  24.339  12.197   7.653
 6209POPC   NC317987  28.405  43.907   9.453
 6209POPC   PO417988  28.409  43.880   9.153
 6209POPC   GL117989  28.357  43.895   8.853
 6209POPC   GL217990  28.439  43.855   8.853
 6209POPC   C1A17991  28.412  43.920   8.553
 6209POPC   D2A17992  28.352  43.845   8.253
 6209POPC   C3A17993  28.365  43.843   7.953
 6209POPC   C4A17994  28.391  43.913   7.653
 6209POPC   C1B17995  28.596  43.724   8.553
 6209POPC   C2B17996  28.608  43.757   8.253
 6209POPC   C3B17997  28.555  43.722   7.953
 6209POPC   C4B17998  28.575  43.739   7.653
 6210POPC   NC317999  25.295  31.454   9.453
 6210POPC   PO418000  25.281  31.430   9.153
 6210POPC   GL118001  25.232  31.461   8.853
 6210POPC   GL218002  25.146  31.486   8.853
 6210POPC   C1A18003  25.299  31.501   8.553
 6210POPC   D2A18004  25.314  31.467   8.253
 6210POPC   C3A18005  25.238  31.454   7.953
 6210POPC   C4A18006  25.247  31.504   7.653
 6210POPC   C1B18007  25.003  31.384   8.553
 6210POPC   C2B18008  24.987  31.386   8.253
 6210POPC   C3B18009  25.058  31.354   7.953
 6210POPC   C4B18010  25.069  31.435   7.653
 6211POPC   NC318011  26.784  12.068   9.453
 6211POPC   PO418012  26.801  12.058   9.153
 6211POPC   GL118013  26.866  12.092   8.853
 6211POPC   GL218014  26.925  12.148   8.853
 6211POPC   C1A18015  26.774  12.122   8.553
 6211POPC   D2A18016  26.820  12.093   8.253
 6211POPC   C3A18017  26.784  12.047   7.953
 6211POPC   C4A18018  26.847  12.070   7.653
 6211POPC   C1B18019  27.026  12.198   8.553
 6211POPC   C2B18020  27.048  12.208   8.253
 6211POPC   C3B18021  27.021  12.137   7.953
 6211POPC   C4B18022  27.025  12.155   7.653
 6212POPC   NC318023  43.158  24.505   9.453
 6212POPC   PO418024  43.148  24.484   9.153
 6212POPC   GL118025  43.120  24.519   8.853
 6212POPC   GL218026  43.237  24.435   8.853
 6212POPC   C1A18027  43.080  24.474   8.553
 6212POPC   D2A18028  43.068  24.480   8.253
 6212POPC   C3A18029  43.130  24.470   7.953
 6212POPC   C4A18030  43.110  24.505   7.653
 6212POPC   C1B18031  43.326  24.501   8.553
 6212POPC   C2B18032  43.391  24.504   8.253
 6212POPC   C3B18033  43.368  24.488   7.953
 6212POPC   C4B18034  43.361  24.439   7.653
 6213POPC   NC318035  36.106  12.075   9.453
 6213POPC   PO418036  36.135  12.102   9.153
 6213POPC   GL118037  36.097  12.032   8.853
 6213POPC   GL218038  36.212  12.061   8.853
 6213POPC   C1A18039  36.104  12.067   8.553
 6213POPC   D2A18040  36.173  12.068   8.253
 6213POPC   C3A18041  36.128  12.072   7.953
 6213POPC   C4A18042  36.129  12.108   7.653
 6213POPC   C1B18043  36.366  12.024   8.553
 6213POPC   C2B18044  36.337  12.021   8.253
 6213POPC   C3B18045  36.398  12.008   7.953
 6213POPC   C4B18046  36.378  12.073   7.653
 6214POPC   NC318047  39.216  34.605   9.453
 6214POPC   PO418048  39.254  34.601   9.153
 6214POPC   GL118049  39.198  34.597   8.853
 6214POPC   GL218050  39.149  34.583   8.853
 6214POPC   C1A18051  39.238  34.617   8.553
 6214POPC   D2A18052  39.260  34.580   8.253
 6214POPC   C3A18053  39.273  34.595   7.953
 6214POPC   C4A18054  39.190  34.612   7.653
 6214POPC   C1B18055  39.040  34.451   8.553
 6214POPC   C2B18056  38.959  34.499   8.253
 6214POPC   C3B18057  39.031  34.466   7.953
 6214POPC   C4B18058  38.981  34.518   7.653
 6215POPC   NC318059  19.098  21.414   9.453
 6215POPC   PO418060  19.013  21.429   9.153
 6215POPC   GL118061  19.056  21.374   8.853
 6215POPC   GL218062  19.002  21.230   8.853
 6215POPC   C1A18063  19.056  21.357   8.553
 6215POPC   D2A18064  19.054  21.425   8.253
 6215POPC   C3A18065  19.088  21.340   7.953
 6215POPC   C4A18066  19.011  21.362   7.653
 6215POPC   C1B18067  19.001  21.159   8.553
 6215POPC   C2B18068  19.001  21.105   8.253
 6215POPC   C3B18069  18.946  21.101   7.953
 6215POPC   C4B18070  18.953  21.128   7.653
 6216POPC   NC318071  36.941  32.229   9.453
 6216POPC   PO418072  36.855  32.207   9.153
 6216POPC   GL118073  36.928  32.296   8.853
 6216POPC   GL218074  36.849  32.394   8.853
 6216POPC   C1A18075  36.891  32.263   8.553
 6216POPC   D2A18076  36.869  32.201   8.253
 6216POPC   C3A18077  36.877  32.273   7.953
 6216POPC   C4A18078  36.869  32.279   7.653
 6216POPC   C1B18079  36.845  32.539   8.553
 6216POPC   C2B18080  36.843  32.523   8.253
 6216POPC   C3B18081  36.879  32.469   7.953
 6216POPC   C4B18082  36.862  32.494   7.653
 6217POPC   NC318083  27.575   5.873   9.453
 6217POPC   PO418084  27.589   5.915   9.153
 6217POPC   GL118085  27.555   5.875   8.853
 6217POPC   GL218086  27.499   5.909   8.853
 6217POPC   C1A18087  27.577   5.905   8.553
 6217POPC   D2A18088  27.589   5.880   8.253
 6217POPC   C3A18089  27.554   5.836   7.953
 6217POPC   C4A18090  27.591   5.876   7.653
 6217POPC   C1B18091  27.296   5.826   8.553
 6217POPC   C2B18092  27.328   5.892   8.253
 6217POPC   C3B18093  27.359   5.819   7.953
 6217POPC   C4B18094  27.385   5.817   7.653
 6218POPC   NC318095  11.301  11.290   9.453
 6218POPC   PO418096  11.313  11.322   9.153
 6218POPC   GL118097  11.322  11.298   8.853
 6218POPC   GL218098  11.383  11.344   8.853
 6218POPC   C1A18099  11.298  11.313   8.553
 6218POPC   D2A18100  11.317  11.303   8.253
 6218POPC   C3A18101  11.286  11.268   7.953
 6218POPC   C4A18102  11.304  11.266   7.653
 6218POPC   C1B18103  11.535  11.490   8.553
 6218POPC   C2B18104  11.496  11.412   8.253
 6218POPC   C3B18105  11.465  11.433   7.953
 6218POPC   C4B18106  11.480  11.489   7.653
 6219POPC   NC318107   8.930  16.771   9.453
 6219POPC   PO418108   8.983  16.688   9.153
 6219POPC   GL118109   8.965  16.711   8.853
 6219POPC   GL218110   8.916  16.892   8.853
 6219POPC   C1A18111   8.937  16.720   8.553
 6219POPC   D2A18112   8.926  16.766   8.253
 6219POPC   C3A18113   8.946  16.734   7.953
 6219POPC   C4A18114   8.950  16.690   7.653
 6219POPC   C1B18115   8.930  17.018   8.553
 6219POPC   C2B18116   8.945  17.027   8.253
 6219POPC   C3B18117   8.950  17.016   7.953
 6219POPC   C4B18118   8.937  16.993   7.653
 6220POPC   NC318119  33.041  41.592   9.453
 6220POPC   PO418120  33.054  41.575   9.153
 6220POPC   GL118121  33.058  41.580   8.853
 6220POPC   GL218122  33.096  41.718   8.853
 6220POPC   C1A18123  33.068  41.563   8.553
 6220POPC   D2A18124  33.032  41.527   8.253
 6220POPC   C3A18125  33.046  41.556   7.953
 6220POPC   C4A18126  33.055  41.533   7.653
 6220POPC   C1B18127  33.131  41.778   8.553
 6220POPC   C2B18128  33.064  41.802   8.253
 6220POPC   C3B18129  33.128  41.776   7.953
 6220POPC   C4B18130  33.159  41.829   7.653
 6221POPC   NC318131   9.793  31.519   9.453
 6221POPC   PO418132   9.749  31.478   9.153
 6221POPC   GL118133   9.757  31.497   8.853
 6221POPC   GL218134   9.762  31.638   8.853
 6221POPC   C1A18135   9.775  31.474   8.553
 6221POPC   D2A18136   9.752  31.467   8.253
 6221POPC   C3A18137   9.791  31.501   7.953
 6221POPC   C4A18138   9.705  31.480   7.653
 6221POPC   C1B18139   9.828  31.726   8.553
 6221POPC   C2B18140   9.846  31.712   8.253
 6221POPC   C3B18141   9.800  31.709   7.953
 6221POPC   C4B18142   9.777  31.731   7.653
 6222POPC   NC318143  40.800  34.542   9.453
 6222POPC   PO418144  40.748  34.590   9.153
 6222POPC   GL118145  40.749  34.583   8.853
 6222POPC   GL218146  40.655  34.588   8.853
 6222POPC   C1A18147  40.733  34.567   8.553
 6222POPC   D2A18148  40.787  34.560   8.253
 6222POPC   C3A18149  40.733  34.567   7.953
 6222POPC   C4A18150  40.805  34.552   7.653
 6222POPC   C1B18151  40.555  34.634   8.553
 6222POPC   C2B18152  40.524  34.644   8.253
 6222POPC   C3B18153  40.545  34.725   7.953
 6222POPC   C4B18154  40.544  34.656   7.653
 6223POPC   NC318155  23.694  12.069   9.453
 6223POPC   PO418156  23.668  12.086   9.153
 6223POPC   GL118157  23.721  12.088   8.853
 6223POPC   GL218158  23.596  12.113   8.853
 6223POPC   C1A18159  23.688  12.102   8.553
 6223POPC   D2A18160  23.747  12.109   8.253
 6223POPC   C3A18161  23.679  12.109   7.953
 6223POPC   C4A18162  23.726  12.092   7.653
 6223POPC   C1B18163  23.415  12.110   8.553
 6223POPC   C2B18164  23.477  12.040   8.253
 6223POPC   C3B18165  23.502  12.045   7.953
 6223POPC   C4B18166  23.497  12.053   7.653
 6224POPC   NC318167  15.937  39.200   9.453
 6224POPC   PO418168  15.935  39.185   9.153
 6224POPC   GL118169  15.965  39.266   8.853
 6224POPC   GL218170  16.000  39.129   8.853
 6224POPC   C1A18171  16.001  39.230   8.553
 6224POPC   D2A18172  15.934  39.257   8.253
 6224POPC   C3A18173  15.929  39.260   7.953
 6224POPC   C4A18174  15.998  39.277   7.653
 6224POPC   C1B18175  15.984  38.946   8.553
 6224POPC   C2B18176  15.986  38.973   8.253
 6224POPC   C3B18177  16.029  39.001   7.953
 6224POPC   C4B18178  15.970  38.990   7.653
 6225POPC   NC318179   3.558  16.711   9.453
 6225POPC   PO418180   3.544  16.698   9.153
 6225POPC   GL118181   3.573  16.712   8.853
 6225POPC   GL218182   3.535  16.600   8.853
 6225POPC   C1A18183   3.583  16.764   8.553
 6225POPC   D2A18184   3.540  16.694   8.253
 6225POPC   C3A18185   3.543  16.765   7.953
 6225POPC   C4A18186   3.497  16.743   7.653
 6225POPC   C1B18187   3.520  16.435   8.553
 6225POPC   C2B18188   3.576  16.528   8.253
 6225POPC   C3B18189   3.532  16.491   7.953
 6225POPC   C4B18190   3.546  16.512   7.653
 6226POPC   NC318191  12.102  38.451   9.453
 6226POPC   PO418192  12.095  38.410   9.153
 6226POPC   GL118193  12.080  38.500   8.853
 6226POPC   GL218194  11.939  38.408   8.853
 6226POPC   C1A18195  12.085  38.488   8.553
 6226POPC   D2A18196  12.082  38.504   8.253
 6226POPC   C3A18197  12.058  38.415   7.953
 6226POPC   C4A18198  12.116  38.453   7.653
 6226POPC   C1B18199  11.887  38.370   8.553
 6226POPC   C2B18200  11.896  38.287   8.253
 6226POPC   C3B18201  11.883  38.273   7.953
 6226POPC   C4B18202  11.899  38.358   7.653
 6227POPC   NC318203  27.620  36.861   9.453
 6227POPC   PO418204  27.549  36.927   9.153
 6227POPC   GL118205  27.553  36.938   8.853
 6227POPC   GL218206  27.505  36.925   8.853
 6227POPC   C1A18207  27.640  36.924   8.553
 6227POPC   D2A18208  27.573  36.874   8.253
 6227POPC   C3A18209  27.579  36.950   7.953
 6227POPC   C4A18210  27.583  36.884   7.653
 6227POPC   C1B18211  27.388  36.887   8.553
 6227POPC   C2B18212  27.375  36.833   8.253
 6227POPC   C3B18213  27.352  36.854   7.953
 6227POPC   C4B18214  27.326  36.820   7.653
 6228POPC   NC318215  15.158  12.824   9.453
 6228POPC   PO418216  15.142  12.862   9.153
 6228POPC   GL118217  15.192  12.875   8.853
 6228POPC   GL218218  15.119  12.938   8.853
 6228POPC   C1A18219  15.143  12.869   8.553
 6228POPC   D2A18220  15.183  12.819   8.253
 6228POPC   C3A18221  15.147  12.829   7.953
 6228POPC   C4A18222  15.131  12.804   7.653
 6228POPC   C1B18223  15.148  13.089   8.553
 6228POPC   C2B18224  15.151  13.131   8.253
 6228POPC   C3B18225  15.151  13.141   7.953
 6228POPC   C4B18226  15.167  13.079   7.653
 6229POPC   NC318227  39.250  20.604   9.453
 6229POPC   PO418228  39.258  20.659   9.153
 6229POPC   GL118229  39.207  20.561   8.853
 6229POPC   GL218230  39.227  20.540   8.853
 6229POPC   C1A18231  39.212  20.649   8.553
 6229POPC   D2A18232  39.258  20.613   8.253
 6229POPC   C3A18233  39.233  20.628   7.953
 6229POPC   C4A18234  39.212  20.580   7.653
 6229POPC   C1B18235  39.271  20.346   8.553
 6229POPC   C2B18236  39.277  20.341   8.253
 6229POPC   C3B18237  39.321  20.417   7.953
 6229POPC   C4B18238  39.345  20.340   7.653
 6230POPC   NC318239  19.095   2.802   9.453
 6230POPC   PO418240  19.062   2.753   9.153
 6230POPC   GL118241  19.075   2.801   8.853
 6230POPC   GL218242  19.058   2.856   8.853
 6230POPC   C1A18243  19.019   2.806   8.553
 6230POPC   D2A18244  19.084   2.742   8.253
 6230POPC   C3A18245  19.086   2.796   7.953
 6230POPC   C4A18246  19.027   2.726   7.653
 6230POPC   C1B18247  19.196   3.029   8.553
 6230POPC   C2B18248  19.186   2.986   8.253
 6230POPC   C3B18249  19.111   3.012   7.953
 6230POPC   C4B18250  19.117   3.042   7.653
 6231POPC   NC318251   9.704  24.518   9.453
 6231POPC   PO418252   9.762  24.538   9.153
 6231POPC   GL118253   9.761  24.444   8.853
 6231POPC   GL218254   9.669  24.565   8.853
 6231POPC   C1A18255   9.773  24.457   8.553
 6231POPC   D2A18256   9.707  24.459   8.253
 6231POPC   C3A18257   9.798  24.444   7.953
 6231POPC   C4A18258   9.715  24.511   7.653
 6231POPC   C1B18259   9.600  24.652   8.553
 6231POPC   C2B18260   9.564  24.694   8.253
 6231POPC   C3B18261   9.543  24.655   7.953
 6231POPC   C4B18262   9.540  24.672   7.653
 6232POPC   NC318263   9.721   8.222   9.453
 6232POPC   PO418264   9.725   8.155   9.153
 6232POPC   GL118265   9.708   8.159   8.853
 6232POPC   GL218266   9.878   8.276   8.853
 6232POPC   C1A18267   9.783   8.163   8.553
 6232POPC   D2A18268   9.775   8.157   8.253
 6232POPC   C3A18269   9.771   8.172   7.953
 6232POPC   C4A18270   9.797   8.206   7.653
 6232POPC   C1B18271   9.959   8.299   8.553
 6232POPC   C2B18272   9.961   8.249   8.253
 6232POPC   C3B18273  10.025   8.265   7.953
 6232POPC   C4B18274   9.939   8.311   7.653
 6233POPC   NC318275  12.848  17.484   9.453
 6233POPC   PO418276  12.854  17.518   9.153
 6233POPC   GL118277  12.872  17.518   8.853
 6233POPC   GL218278  12.859  17.652   8.853
 6233POPC   C1A18279  12.843  17.531   8.553
 6233POPC   D2A18280  12.902  17.512   8.253
 6233POPC   C3A18281  12.893  17.500   7.953
 6233POPC   C4A18282  12.816  17.496   7.653
 6233POPC   C1B18283  12.873  17.770   8.553
 6233POPC   C2B18284  12.910  17.705   8.253
 6233POPC   C3B18285  12.832  17.804   7.953
 6233POPC   C4B18286  12.872  17.766   7.653
 6234POPC   NC318287  32.258  20.648   9.453
 6234POPC   PO418288  32.280  20.659   9.153
 6234POPC   GL118289  32.212  20.567   8.853
 6234POPC   GL218290  32.331  20.696   8.853
 6234POPC   C1A18291  32.273  20.651   8.553
 6234POPC   D2A18292  32.241  20.598   8.253
 6234POPC   C3A18293  32.292  20.620   7.953
 6234POPC   C4A18294  32.252  20.619   7.653
 6234POPC   C1B18295  32.360  20.868   8.553
 6234POPC   C2B18296  32.350  20.804   8.253
 6234POPC   C3B18297  32.381  20.865   7.953
 6234POPC   C4B18298  32.401  20.815   7.653
 6235POPC   NC318299  33.059  23.668   9.453
 6235POPC   PO418300  33.059  23.709   9.153
 6235POPC   GL118301  33.045  23.719   8.853
 6235POPC   GL218302  33.090  23.629   8.853
 6235POPC   C1A18303  33.059  23.759   8.553
 6235POPC   D2A18304  33.036  23.675   8.253
 6235POPC   C3A18305  33.063  23.726   7.953
 6235POPC   C4A18306  33.010  23.709   7.653
 6235POPC   C1B18307  33.116  23.464   8.553
 6235POPC   C2B18308  33.068  23.433   8.253
 6235POPC   C3B18309  33.138  23.453   7.953
 6235POPC   C4B18310  33.157  23.529   7.653
 6236POPC   NC318311  28.355   7.438   9.453
 6236POPC   PO418312  28.328   7.374   9.153
 6236POPC   GL118313  28.416   7.420   8.853
 6236POPC   GL218314  28.300   7.256   8.853
 6236POPC   C1A18315  28.368   7.381   8.553
 6236POPC   D2A18316  28.390   7.377   8.253
 6236POPC   C3A18317  28.378   7.465   7.953
 6236POPC   C4A18318  28.403   7.460   7.653
 6236POPC   C1B18319  28.347   7.168   8.553
 6236POPC   C2B18320  28.295   7.203   8.253
 6236POPC   C3B18321  28.348   7.173   7.953
 6236POPC   C4B18322  28.293   7.141   7.653
 6237POPC   NC318323  43.866  30.734   9.453
 6237POPC   PO418324  43.881  30.727   9.153
 6237POPC   GL118325  43.909  30.679   8.853
 6237POPC   GL218326  43.879  30.842   8.853
 6237POPC   C1A18327  43.914  30.696   8.553
 6237POPC   D2A18328  43.899  30.738   8.253
 6237POPC   C3A18329  43.928  30.675   7.953
 6237POPC   C4A18330  43.884  30.740   7.653
 6237POPC   C1B18331  43.862  30.950   8.553
 6237POPC   C2B18332  43.839  30.920   8.253
 6237POPC   C3B18333  43.844  30.935   7.953
 6237POPC   C4B18334  43.872  30.902   7.653
 6238POPC   NC318335  25.260  22.909   9.453
 6238POPC   PO418336  25.247  22.965   9.153
 6238POPC   GL118337  25.284  22.908   8.853
 6238POPC   GL218338  25.161  22.953   8.853
 6238POPC   C1A18339  25.226  22.956   8.553
 6238POPC   D2A18340  25.310  22.945   8.253
 6238POPC   C3A18341  25.253  22.979   7.953
 6238POPC   C4A18342  25.284  22.950   7.653
 6238POPC   C1B18343  25.069  23.017   8.553
 6238POPC   C2B18344  25.050  23.029   8.253
 6238POPC   C3B18345  25.046  23.006   7.953
 6238POPC   C4B18346  25.015  23.028   7.653
 6239POPC   NC318347  24.460   0.431   9.453
 6239POPC   PO418348  24.528   0.470   9.153
 6239POPC   GL118349  24.483   0.465   8.853
 6239POPC   GL218350  24.417   0.349   8.853
 6239POPC   C1A18351  24.466   0.458   8.553
 6239POPC   D2A18352  24.468   0.461   8.253
 6239POPC   C3A18353  24.533   0.473   7.953
 6239POPC   C4A18354  24.520   0.448   7.653
 6239POPC   C1B18355  24.415   0.204   8.553
 6239POPC   C2B18356  24.411   0.213   8.253
 6239POPC   C3B18357  24.424   0.190   7.953
 6239POPC   C4B18358  24.435   0.190   7.653
 6240POPC   NC318359  36.876  40.038   9.453
 6240POPC   PO418360  36.896  40.056   9.153
 6240POPC   GL118361  36.863  40.006   8.853
 6240POPC   GL218362  36.864  40.089   8.853
 6240POPC   C1A18363  36.872  39.978   8.553
 6240POPC   D2A18364  36.939  40.042   8.253
 6240POPC   C3A18365  36.944  40.023   7.953
 6240POPC   C4A18366  36.867  40.042   7.653
 6240POPC   C1B18367  36.790  40.271   8.553
 6240POPC   C2B18368  36.831  40.228   8.253
 6240POPC   C3B18369  36.837  40.228   7.953
 6240POPC   C4B18370  36.780  40.236   7.653
 6241POPC   NC318371  22.896  31.423   9.453
 6241POPC   PO418372  22.912  31.462   9.153
 6241POPC   GL118373  22.973  31.490   8.853
 6241POPC   GL218374  22.821  31.482   8.853
 6241POPC   C1A18375  22.923  31.450   8.553
 6241POPC   D2A18376  22.960  31.473   8.253
 6241POPC   C3A18377  22.901  31.473   7.953
 6241POPC   C4A18378  22.895  31.469   7.653
 6241POPC   C1B18379  22.710  31.526   8.553
 6241POPC   C2B18380  22.698  31.500   8.253
 6241POPC   C3B18381  22.660  31.473   7.953
 6241POPC   C4B18382  22.721  31.504   7.653
 6242POPC   NC318383  29.155   8.966   9.453
 6242POPC   PO418384  29.122   9.000   9.153
 6242POPC   GL118385  29.187   8.932   8.853
 6242POPC   GL218386  29.097   8.893   8.853
 6242POPC   C1A18387  29.184   8.958   8.553
 6242POPC   D2A18388  29.103   8.937   8.253
 6242POPC   C3A18389  29.178   8.959   7.953
 6242POPC   C4A18390  29.193   8.926   7.653
 6242POPC   C1B18391  29.082   8.690   8.553
 6242POPC   C2B18392  29.064   8.737   8.253
 6242POPC   C3B18393  29.098   8.721   7.953
 6242POPC   C4B18394  29.074   8.680   7.653
 6243POPC   NC318395  10.519  36.154   9.453
 6243POPC   PO418396  10.568  36.081   9.153
 6243POPC   GL118397  10.510  36.165   8.853
 6243POPC   GL218398  10.358  36.117   8.853
 6243POPC   C1A18399  10.563  36.115   8.553
 6243POPC   D2A18400  10.488  36.127   8.253
 6243POPC   C3A18401  10.488  36.079   7.953
 6243POPC   C4A18402  10.535  36.081   7.653
 6243POPC   C1B18403  10.287  36.106   8.553
 6243POPC   C2B18404  10.272  36.155   8.253
 6243POPC   C3B18405  10.262  36.123   7.953
 6243POPC   C4B18406  10.259  36.123   7.653
 6244POPC   NC318407  15.916  15.185   9.453
 6244POPC   PO418408  15.975  15.168   9.153
 6244POPC   GL118409  15.937  15.145   8.853
 6244POPC   GL218410  15.851  15.109   8.853
 6244POPC   C1A18411  15.906  15.170   8.553
 6244POPC   D2A18412  15.985  15.205   8.253
 6244POPC   C3A18413  15.970  15.205   7.953
 6244POPC   C4A18414  15.921  15.130   7.653
 6244POPC   C1B18415  15.736  14.963   8.553
 6244POPC   C2B18416  15.818  15.050   8.253
 6244POPC   C3B18417  15.803  14.991   7.953
 6244POPC   C4B18418  15.777  15.040   7.653
 6245POPC   NC318419  20.630  25.237   9.453
 6245POPC   PO418420  20.601  25.304   9.153
 6245POPC   GL118421  20.650  25.241   8.853
 6245POPC   GL218422  20.619  25.396   8.853
 6245POPC   C1A18423  20.599  25.315   8.553
 6245POPC   D2A18424  20.627  25.287   8.253
 6245POPC   C3A18425  20.638  25.283   7.953
 6245POPC   C4A18426  20.595  25.283   7.653
 6245POPC   C1B18427  20.649  25.557   8.553
 6245POPC   C2B18428  20.653  25.482   8.253
 6245POPC   C3B18429  20.655  25.558   7.953
 6245POPC   C4B18430  20.575  25.482   7.653
 6246POPC   NC318431  31.503  22.157   9.453
 6246POPC   PO418432  31.458  22.165   9.153
 6246POPC   GL118433  31.445  22.129   8.853
 6246POPC   GL218434  31.567  22.279   8.853
 6246POPC   C1A18435  31.433  22.137   8.553
 6246POPC   D2A18436  31.460  22.186   8.253
 6246POPC   C3A18437  31.511  22.195   7.953
 6246POPC   C4A18438  31.484  22.126   7.653
 6246POPC   C1B18439  31.682  22.339   8.553
 6246POPC   C2B18440  31.655  22.327   8.253
 6246POPC   C3B18441  31.672  22.308   7.953
 6246POPC   C4B18442  31.714  22.306   7.653
 6247POPC   NC318443  15.212  20.638   9.453
 6247POPC   PO418444  15.189  20.604   9.153
 6247POPC   GL118445  15.164  20.645   8.853
 6247POPC   GL218446  15.074  20.765   8.853
 6247POPC   C1A18447  15.227  20.633   8.553
 6247POPC   D2A18448  15.132  20.574   8.253
 6247POPC   C3A18449  15.145  20.564   7.953
 6247POPC   C4A18450  15.130  20.564   7.653
 6247POPC   C1B18451  15.048  20.860   8.553
 6247POPC   C2B18452  15.036  20.866   8.253
 6247POPC   C3B18453  15.013  20.866   7.953
 6247POPC   C4B18454  15.108  20.849   7.653
 6248POPC   NC318455  11.327  33.829   9.453
 6248POPC   PO418456  11.278  33.813   9.153
 6248POPC   GL118457  11.311  33.836   8.853
 6248POPC   GL218458  11.396  33.836   8.853
 6248POPC   C1A18459  11.336  33.798   8.553
 6248POPC   D2A18460  11.324  33.758   8.253
 6248POPC   C3A18461  11.344  33.815   7.953
 6248POPC   C4A18462  11.286  33.763   7.653
 6248POPC   C1B18463  11.471  33.915   8.553
 6248POPC   C2B18464  11.566  33.883   8.253
 6248POPC   C3B18465  11.480  33.873   7.953
 6248POPC   C4B18466  11.492  33.964   7.653
 6249POPC   NC318467  36.953  33.847   9.453
 6249POPC   PO418468  36.872  33.842   9.153
 6249POPC   GL118469  36.949  33.812   8.853
 6249POPC   GL218470  36.918  33.902   8.853
 6249POPC   C1A18471  36.952  33.796   8.553
 6249POPC   D2A18472  36.877  33.762   8.253
 6249POPC   C3A18473  36.937  33.821   7.953
 6249POPC   C4A18474  36.919  33.783   7.653
 6249POPC   C1B18475  36.972  34.067   8.553
 6249POPC   C2B18476  36.934  34.069   8.253
 6249POPC   C3B18477  36.968  34.091   7.953
 6249POPC   C4B18478  36.951  34.083   7.653
 6250POPC   NC318479   4.305   9.700   9.453
 6250POPC   PO418480   4.349   9.755   9.153
 6250POPC   GL118481   4.281   9.780   8.853
 6250POPC   GL218482   4.251   9.814   8.853
 6250POPC   C1A18483   4.367   9.766   8.553
 6250POPC   D2A18484   4.296   9.720   8.253
 6250POPC   C3A18485   4.306   9.779   7.953
 6250POPC   C4A18486   4.281   9.785   7.653
 6250POPC   C1B18487   4.245  10.017   8.553
 6250POPC   C2B18488   4.180   9.994   8.253
 6250POPC   C3B18489   4.252  10.026   7.953
 6250POPC   C4B18490   4.195  10.008   7.653
 6251POPC   NC318491  36.146  22.934   9.453
 6251POPC   PO418492  36.155  22.912   9.153
 6251POPC   GL118493  36.133  22.920   8.853
 6251POPC   GL218494  36.215  22.953   8.853
 6251POPC   C1A18495  36.088  22.988   8.553
 6251POPC   D2A18496  36.153  22.900   8.253
 6251POPC   C3A18497  36.124  22.924   7.953
 6251POPC   C4A18498  36.125  22.981   7.653
 6251POPC   C1B18499  36.397  23.044   8.553
 6251POPC   C2B18500  36.326  23.022   8.253
 6251POPC   C3B18501  36.320  23.089   7.953
 6251POPC   C4B18502  36.390  23.080   7.653
 6252POPC   NC318503  29.160  26.813   9.453
 6252POPC   PO418504  29.098  26.786   9.153
 6252POPC   GL118505  29.180  26.867   8.853
 6252POPC   GL218506  29.126  26.737   8.853
 6252POPC   C1A18507  29.148  26.774   8.553
 6252POPC   D2A18508  29.191  26.797   8.253
 6252POPC   C3A18509  29.113  26.849   7.953
 6252POPC   C4A18510  29.117  26.768   7.653
 6252POPC   C1B18511  29.056  26.577   8.553
 6252POPC   C2B18512  29.046  26.569   8.253
 6252POPC   C3B18513  28.989  26.639   7.953
 6252POPC   C4B18514  28.978  26.619   7.653
 6253POPC   NC318515  37.671  18.282   9.453
 6253POPC   PO418516  37.708  18.266   9.153
 6253POPC   GL118517  37.647  18.234   8.853
 6253POPC   GL218518  37.627  18.178   8.853
 6253POPC   C1A18519  37.717  18.305   8.553
 6253POPC   D2A18520  37.645  18.329   8.253
 6253POPC   C3A18521  37.638  18.322   7.953
 6253POPC   C4A18522  37.650  18.242   7.653
 6253POPC   C1B18523  37.502  18.169   8.553
 6253POPC   C2B18524  37.516  18.170   8.253
 6253POPC   C3B18525  37.462  18.142   7.953
 6253POPC   C4B18526  37.432  18.118   7.653
 6254POPC   NC318527   1.181  17.484   9.453
 6254POPC   PO418528   1.257  17.475   9.153
 6254POPC   GL118529   1.176  17.473   8.853
 6254POPC   GL218530   1.255  17.428   8.853
 6254POPC   C1A18531   1.217  17.550   8.553
 6254POPC   D2A18532   1.217  17.466   8.253
 6254POPC   C3A18533   1.245  17.501   7.953
 6254POPC   C4A18534   1.167  17.459   7.653
 6254POPC   C1B18535   1.323  17.241   8.553
 6254POPC   C2B18536   1.268  17.252   8.253
 6254POPC   C3B18537   1.259  17.233   7.953
 6254POPC   C4B18538   1.285  17.311   7.653
 6255POPC   NC318539  43.845   4.329   9.453
 6255POPC   PO418540  43.904   4.313   9.153
 6255POPC   GL118541  43.837   4.334   8.853
 6255POPC   GL218542  43.909   4.189   8.853
 6255POPC   C1A18543  43.852   4.345   8.553
 6255POPC   D2A18544  43.922   4.304   8.253
 6255POPC   C3A18545  43.909   4.281   7.953
 6255POPC   C4A18546  43.917   4.287   7.653
 6255POPC   C1B18547  44.008   4.136   8.553
 6255POPC   C2B18548  44.017   4.045   8.253
 6255POPC   C3B18549  44.016   4.072   7.953
 6255POPC   C4B18550  44.029   4.069   7.653
 6256POPC   NC318551  32.206  43.068   9.453
 6256POPC   PO418552  32.285  43.097   9.153
 6256POPC   GL118553  32.262  43.158   8.853
 6256POPC   GL218554  32.386  43.027   8.853
 6256POPC   C1A18555  32.213  43.097   8.553
 6256POPC   D2A18556  32.261  43.069   8.253
 6256POPC   C3A18557  32.203  43.159   7.953
 6256POPC   C4A18558  32.220  43.145   7.653
 6256POPC   C1B18559  32.505  43.034   8.553
 6256POPC   C2B18560  32.500  43.017   8.253
 6256POPC   C3B18561  32.505  43.007   7.953
 6256POPC   C4B18562  32.493  43.000   7.653
 6257POPC   NC318563  14.354  41.523   9.453
 6257POPC   PO418564  14.391  41.587   9.153
 6257POPC   GL118565  14.376  41.552   8.853
 6257POPC   GL218566  14.232  41.566   8.853
 6257POPC   C1A18567  14.422  41.518   8.553
 6257POPC   D2A18568  14.424  41.529   8.253
 6257POPC   C3A18569  14.366  41.524   7.953
 6257POPC   C4A18570  14.425  41.525   7.653
 6257POPC   C1B18571  14.116  41.562   8.553
 6257POPC   C2B18572  14.131  41.556   8.253
 6257POPC   C3B18573  14.204  41.576   7.953
 6257POPC   C4B18574  14.112  41.502   7.653
 6258POPC   NC318575   2.735  42.354   9.453
 6258POPC   PO418576   2.758  42.328   9.153
 6258POPC   GL118577   2.803  42.292   8.853
 6258POPC   GL218578   2.683  42.294   8.853
 6258POPC   C1A18579   2.736  42.369   8.553
 6258POPC   D2A18580   2.789  42.357   8.253
 6258POPC   C3A18581   2.728  42.298   7.953
 6258POPC   C4A18582   2.742  42.286   7.653
 6258POPC   C1B18583   2.502  42.302   8.553
 6258POPC   C2B18584   2.487  42.268   8.253
 6258POPC   C3B18585   2.504  42.276   7.953
 6258POPC   C4B18586   2.547  42.289   7.653
 6259POPC   NC318587  29.140  18.330   9.453
 6259POPC   PO418588  29.182  18.257   9.153
 6259POPC   GL118589  29.166  18.283   8.853
 6259POPC   GL218590  29.023  18.226   8.853
 6259POPC   C1A18591  29.169  18.244   8.553
 6259POPC   D2A18592  29.149  18.314   8.253
 6259POPC   C3A18593  29.186  18.258   7.953
 6259POPC   C4A18594  29.120  18.324   7.653
 6259POPC   C1B18595  28.984  18.062   8.553
 6259POPC   C2B18596  29.010  18.065   8.253
 6259POPC   C3B18597  28.983  18.091   7.953
 6259POPC   C4B18598  28.971  18.118   7.653
 6260POPC   NC318599  43.098  44.694   9.453
 6260POPC   PO418600  43.107  44.649   9.153
 6260POPC   GL118601  43.081  44.709   8.853
 6260POPC   GL218602  43.087  44.771   8.853
 6260POPC   C1A18603  43.087  44.629   8.553
 6260POPC   D2A18604  43.142  44.692   8.253
 6260POPC   C3A18605  43.142  44.663   7.953
 6260POPC   C4A18606  43.060  44.651   7.653
 6260POPC   C1B18607  43.040  44.928   8.553
 6260POPC   C2B18608  42.954  44.866   8.253
 6260POPC   C3B18609  43.009  44.888   7.953
 6260POPC   C4B18610  42.969  44.883   7.653
 6261POPC   NC318611  43.888  29.913   9.453
 6261POPC   PO418612  43.845  29.954   9.153
 6261POPC   GL118613  43.893  29.965   8.853
 6261POPC   GL218614  43.723  29.895   8.853
 6261POPC   C1A18615  43.905  29.934   8.553
 6261POPC   D2A18616  43.930  29.889   8.253
 6261POPC   C3A18617  43.911  29.950   7.953
 6261POPC   C4A18618  43.916  29.963   7.653
 6261POPC   C1B18619  43.627  29.915   8.553
 6261POPC   C2B18620  43.667  29.891   8.253
 6261POPC   C3B18621  43.603  29.933   7.953
 6261POPC   C4B18622  43.669  29.918   7.653
 6262POPC   NC318623  25.288  29.919   9.453
 6262POPC   PO418624  25.225  29.939   9.153
 6262POPC   GL118625  25.284  29.891   8.853
 6262POPC   GL218626  25.193  29.856   8.853
 6262POPC   C1A18627  25.222  29.912   8.553
 6262POPC   D2A18628  25.260  29.955   8.253
 6262POPC   C3A18629  25.288  29.887   7.953
 6262POPC   C4A18630  25.271  29.951   7.653
 6262POPC   C1B18631  25.005  29.845   8.553
 6262POPC   C2B18632  25.038  29.831   8.253
 6262POPC   C3B18633  24.989  29.843   7.953
 6262POPC   C4B18634  25.025  29.904   7.653
 6263POPC   NC318635  37.699  21.399   9.453
 6263POPC   PO418636  37.677  21.428   9.153
 6263POPC   GL118637  37.712  21.349   8.853
 6263POPC   GL218638  37.531  21.366   8.853
 6263POPC   C1A18639  37.703  21.397   8.553
 6263POPC   D2A18640  37.718  21.408   8.253
 6263POPC   C3A18641  37.675  21.380   7.953
 6263POPC   C4A18642  37.641  21.347   7.653
 6263POPC   C1B18643  37.399  21.424   8.553
 6263POPC   C2B18644  37.395  21.367   8.253
 6263POPC   C3B18645  37.443  21.441   7.953
 6263POPC   C4B18646  37.440  21.456   7.653
 6264POPC   NC318647  18.249  22.193   9.453
 6264POPC   PO418648  18.272  22.157   9.153
 6264POPC   GL118649  18.279  22.171   8.853
 6264POPC   GL218650  18.383  22.213   8.853
 6264POPC   C1A18651  18.304  22.165   8.553
 6264POPC   D2A18652  18.271  22.141   8.253
 6264POPC   C3A18653  18.325  22.134   7.953
 6264POPC   C4A18654  18.267  22.125   7.653
 6264POPC   C1B18655  18.530  22.266   8.553
 6264POPC   C2B18656  18.559  22.232   8.253
 6264POPC   C3B18657  18.474  22.246   7.953
 6264POPC   C4B18658  18.526  22.260   7.653
 6265POPC   NC318659  33.825  22.981   9.453
 6265POPC   PO418660  33.761  22.927   9.153
 6265POPC   GL118661  33.803  22.894   8.853
 6265POPC   GL218662  33.796  22.799   8.853
 6265POPC   C1A18663  33.825  22.947   8.553
 6265POPC   D2A18664  33.802  22.907   8.253
 6265POPC   C3A18665  33.788  22.946   7.953
 6265POPC   C4A18666  33.771  22.918   7.653
 6265POPC   C1B18667  33.800  22.650   8.553
 6265POPC   C2B18668  33.826  22.714   8.253
 6265POPC   C3B18669  33.834  22.726   7.953
 6265POPC   C4B18670  33.840  22.676   7.653
 6266POPC   NC318671  37.664  39.250   9.453
 6266POPC   PO418672  37.704  39.214   9.153
 6266POPC   GL118673  37.650  39.209   8.853
 6266POPC   GL218674  37.592  39.350   8.853
 6266POPC   C1A18675  37.707  39.235   8.553
 6266POPC   D2A18676  37.656  39.196   8.253
 6266POPC   C3A18677  37.640  39.277   7.953
 6266POPC   C4A18678  37.681  39.263   7.653
 6266POPC   C1B18679  37.547  39.383   8.553
 6266POPC   C2B18680  37.489  39.391   8.253
 6266POPC   C3B18681  37.549  39.437   7.953
 6266POPC   C4B18682  37.509  39.382   7.653
 6267POPC   NC318683  35.380  43.927   9.453
 6267POPC   PO418684  35.354  43.874   9.153
 6267POPC   GL118685  35.370  43.909   8.853
 6267POPC   GL218686  35.364  43.791   8.853
 6267POPC   C1A18687  35.397  43.901   8.553
 6267POPC   D2A18688  35.339  43.903   8.253
 6267POPC   C3A18689  35.331  43.862   7.953
 6267POPC   C4A18690  35.394  43.876   7.653
 6267POPC   C1B18691  35.441  43.692   8.553
 6267POPC   C2B18692  35.446  43.666   8.253
 6267POPC   C3B18693  35.473  43.641   7.953
 6267POPC   C4B18694  35.431  43.604   7.653
 6268POPC   NC318695   4.360  35.308   9.453
 6268POPC   PO418696   4.357  35.336   9.153
 6268POPC   GL118697   4.330  35.342   8.853
 6268POPC   GL218698   4.370  35.202   8.853
 6268POPC   C1A18699   4.304  35.387   8.553
 6268POPC   D2A18700   4.301  35.359   8.253
 6268POPC   C3A18701   4.347  35.327   7.953
 6268POPC   C4A18702   4.331  35.311   7.653
 6268POPC   C1B18703   4.310  35.113   8.553
 6268POPC   C2B18704   4.346  35.150   8.253
 6268POPC   C3B18705   4.324  35.129   7.953
 6268POPC   C4B18706   4.300  35.063   7.653
 6269POPC   NC318707  13.581  43.867   9.453
 6269POPC   PO418708  13.638  43.860   9.153
 6269POPC   GL118709  13.584  43.903   8.853
 6269POPC   GL218710  13.547  44.028   8.853
 6269POPC   C1A18711  13.636  43.849   8.553
 6269POPC   D2A18712  13.599  43.916   8.253
 6269POPC   C3A18713  13.604  43.927   7.953
 6269POPC   C4A18714  13.633  43.837   7.653
 6269POPC   C1B18715  13.517  44.171   8.553
 6269POPC   C2B18716  13.536  44.106   8.253
 6269POPC   C3B18717  13.585  44.159   7.953
 6269POPC   C4B18718  13.549  44.090   7.653
 6270POPC   NC318719  10.562  43.061   9.453
 6270POPC   PO418720  10.488  43.147   9.153
 6270POPC   GL118721  10.569  43.091   8.853
 6270POPC   GL218722  10.436  43.137   8.853
 6270POPC   C1A18723  10.483  43.067   8.553
 6270POPC   D2A18724  10.520  43.093   8.253
 6270POPC   C3A18725  10.552  43.156   7.953
 6270POPC   C4A18726  10.477  43.160   7.653
 6270POPC   C1B18727  10.308  43.196   8.553
 6270POPC   C2B18728  10.304  43.175   8.253
 6270POPC   C3B18729  10.257  43.111   7.953
 6270POPC   C4B18730  10.293  43.133   7.653
 6271POPC   NC318731  35.310  26.033   9.453
 6271POPC   PO418732  35.347  26.055   9.153
 6271POPC   GL118733  35.315  25.997   8.853
 6271POPC   GL218734  35.327  26.176   8.853
 6271POPC   C1A18735  35.386  26.063   8.553
 6271POPC   D2A18736  35.363  26.057   8.253
 6271POPC   C3A18737  35.376  26.062   7.953
 6271POPC   C4A18738  35.388  26.081   7.653
 6271POPC   C1B18739  35.356  26.290   8.553
 6271POPC   C2B18740  35.381  26.263   8.253
 6271POPC   C3B18741  35.350  26.294   7.953
 6271POPC   C4B18742  35.421  26.300   7.653
 6272POPC   NC318743  15.165  36.123   9.453
 6272POPC   PO418744  15.143  36.137   9.153
 6272POPC   GL118745  15.185  36.096   8.853
 6272POPC   GL218746  15.082  36.142   8.853
 6272POPC   C1A18747  15.177  36.158   8.553
 6272POPC   D2A18748  15.153  36.149   8.253
 6272POPC   C3A18749  15.175  36.177   7.953
 6272POPC   C4A18750  15.159  36.138   7.653
 6272POPC   C1B18751  14.982  36.186   8.553
 6272POPC   C2B18752  14.893  36.177   8.253
 6272POPC   C3B18753  14.929  36.167   7.953
 6272POPC   C4B18754  14.927  36.226   7.653
 6273POPC   NC318755  43.093   3.579   9.453
 6273POPC   PO418756  43.067   3.553   9.153
 6273POPC   GL118757  43.141   3.530   8.853
 6273POPC   GL218758  43.078   3.402   8.853
 6273POPC   C1A18759  43.129   3.584   8.553
 6273POPC   D2A18760  43.143   3.523   8.253
 6273POPC   C3A18761  43.127   3.562   7.953
 6273POPC   C4A18762  43.063   3.541   7.653
 6273POPC   C1B18763  43.073   3.316   8.553
 6273POPC   C2B18764  43.125   3.271   8.253
 6273POPC   C3B18765  43.104   3.255   7.953
 6273POPC   C4B18766  43.105   3.273   7.653
 6274POPC   NC318767  31.506   2.802   9.453
 6274POPC   PO418768  31.447   2.752   9.153
 6274POPC   GL118769  31.497   2.763   8.853
 6274POPC   GL218770  31.423   2.637   8.853
 6274POPC   C1A18771  31.480   2.725   8.553
 6274POPC   D2A18772  31.458   2.787   8.253
 6274POPC   C3A18773  31.476   2.716   7.953
 6274POPC   C4A18774  31.506   2.733   7.653
 6274POPC   C1B18775  31.304   2.536   8.553
 6274POPC   C2B18776  31.319   2.578   8.253
 6274POPC   C3B18777  31.391   2.568   7.953
 6274POPC   C4B18778  31.367   2.524   7.653
 6275POPC   NC318779  35.311  24.513   9.453
 6275POPC   PO418780  35.308  24.493   9.153
 6275POPC   GL118781  35.361  24.464   8.853
 6275POPC   GL218782  35.252  24.557   8.853
 6275POPC   C1A18783  35.357  24.498   8.553
 6275POPC   D2A18784  35.345  24.483   8.253
 6275POPC   C3A18785  35.368  24.462   7.953
 6275POPC   C4A18786  35.309  24.504   7.653
 6275POPC   C1B18787  35.082  24.542   8.553
 6275POPC   C2B18788  35.155  24.561   8.253
 6275POPC   C3B18789  35.145  24.595   7.953
 6275POPC   C4B18790  35.082  24.631   7.653
 6276POPC   NC318791  43.136  43.102   9.453
 6276POPC   PO418792  43.131  43.152   9.153
 6276POPC   GL118793  43.098  43.142   8.853
 6276POPC   GL218794  43.062  42.961   8.853
 6276POPC   C1A18795  43.122  43.119   8.553
 6276POPC   D2A18796  43.098  43.070   8.253
 6276POPC   C3A18797  43.146  43.140   7.953
 6276POPC   C4A18798  43.145  43.109   7.653
 6276POPC   C1B18799  42.999  42.871   8.553
 6276POPC   C2B18800  43.047  42.854   8.253
 6276POPC   C3B18801  43.000  42.850   7.953
 6276POPC   C4B18802  43.035  42.883   7.653
 6277POPC   NC318803  30.660  23.747   9.453
 6277POPC   PO418804  30.745  23.747   9.153
 6277POPC   GL118805  30.654  23.705   8.853
 6277POPC   GL218806  30.721  23.872   8.853
 6277POPC   C1A18807  30.652  23.756   8.553
 6277POPC   D2A18808  30.656  23.738   8.253
 6277POPC   C3A18809  30.683  23.749   7.953
 6277POPC   C4A18810  30.682  23.723   7.653
 6277POPC   C1B18811  30.843  23.887   8.553
 6277POPC   C2B18812  30.814  23.971   8.253
 6277POPC   C3B18813  30.843  23.975   7.953
 6277POPC   C4B18814  30.856  23.935   7.653
 6278POPC   NC318815  10.537  22.151   9.453
 6278POPC   PO418816  10.528  22.183   9.153
 6278POPC   GL118817  10.479  22.126   8.853
 6278POPC   GL218818  10.661  22.247   8.853
 6278POPC   C1A18819  10.475  22.143   8.553
 6278POPC   D2A18820  10.545  22.208   8.253
 6278POPC   C3A18821  10.557  22.179   7.953
 6278POPC   C4A18822  10.564  22.184   7.653
 6278POPC   C1B18823  10.746  22.248   8.553
 6278POPC   C2B18824  10.771  22.212   8.253
 6278POPC   C3B18825  10.747  22.206   7.953
 6278POPC   C4B18826  10.808  22.229   7.653
 6279POPC   NC318827  26.771   3.519   9.453
 6279POPC   PO418828  26.769   3.496   9.153
 6279POPC   GL118829  26.849   3.503   8.853
 6279POPC   GL218830  26.799   3.691   8.853
 6279POPC   C1A18831  26.824   3.586   8.553
 6279POPC   D2A18832  26.832   3.543   8.253
 6279POPC   C3A18833  26.854   3.529   7.953
 6279POPC   C4A18834  26.867   3.497   7.653
 6279POPC   C1B18835  26.864   3.832   8.553
 6279POPC   C2B18836  26.809   3.749   8.253
 6279POPC   C3B18837  26.866   3.767   7.953
 6279POPC   C4B18838  26.812   3.793   7.653
 6280POPC   NC318839  40.800  19.064   9.453
 6280POPC   PO418840  40.745  19.069   9.153
 6280POPC   GL118841  40.779  19.065   8.853
 6280POPC   GL218842  40.736  19.210   8.853
 6280POPC   C1A18843  40.745  19.075   8.553
 6280POPC   D2A18844  40.817  19.045   8.253
 6280POPC   C3A18845  40.756  19.039   7.953
 6280POPC   C4A18846  40.737  19.064   7.653
 6280POPC   C1B18847  40.670  19.304   8.553
 6280POPC   C2B18848  40.667  19.264   8.253
 6280POPC   C3B18849  40.647  19.274   7.953
 6280POPC   C4B18850  40.641  19.245   7.653
 6281POPC   NC318851  13.646  20.632   9.453
 6281POPC   PO418852  13.604  20.600   9.153
 6281POPC   GL118853  13.621  20.652   8.853
 6281POPC   GL218854  13.643  20.727   8.853
 6281POPC   C1A18855  13.603  20.602   8.553
 6281POPC   D2A18856  13.609  20.613   8.253
 6281POPC   C3A18857  13.645  20.561   7.953
 6281POPC   C4A18858  13.613  20.632   7.653
 6281POPC   C1B18859  13.644  20.871   8.553
 6281POPC   C2B18860  13.559  20.863   8.253
 6281POPC   C3B18861  13.617  20.874   7.953
 6281POPC   C4B18862  13.635  20.872   7.653
 6282POPC   NC318863  31.426  42.341   9.453
 6282POPC   PO418864  31.496  42.335   9.153
 6282POPC   GL118865  31.489  42.310   8.853
 6282POPC   GL218866  31.455  42.210   8.853
 6282POPC   C1A18867  31.468  42.285   8.553
 6282POPC   D2A18868  31.437  42.366   8.253
 6282POPC   C3A18869  31.446  42.332   7.953
 6282POPC   C4A18870  31.483  42.361   7.653
 6282POPC   C1B18871  31.542  42.121   8.553
 6282POPC   C2B18872  31.490  42.093   8.253
 6282POPC   C3B18873  31.497  42.063   7.953
 6282POPC   C4B18874  31.504  42.101   7.653
 6283POPC   NC318875  15.166  37.721   9.453
 6283POPC   PO418876  15.193  37.676   9.153
 6283POPC   GL118877  15.164  37.676   8.853
 6283POPC   GL218878  15.285  37.632   8.853
 6283POPC   C1A18879  15.157  37.656   8.553
 6283POPC   D2A18880  15.161  37.666   8.253
 6283POPC   C3A18881  15.213  37.673   7.953
 6283POPC   C4A18882  15.180  37.718   7.653
 6283POPC   C1B18883  15.433  37.616   8.553
 6283POPC   C2B18884  15.365  37.567   8.253
 6283POPC   C3B18885  15.369  37.567   7.953
 6283POPC   C4B18886  15.389  37.622   7.653
 6284POPC   NC318887  29.191  29.912   9.453
 6284POPC   PO418888  29.116  29.958   9.153
 6284POPC   GL118889  29.176  29.940   8.853
 6284POPC   GL218890  29.196  30.029   8.853
 6284POPC   C1A18891  29.143  29.872   8.553
 6284POPC   D2A18892  29.181  29.893   8.253
 6284POPC   C3A18893  29.147  29.944   7.953
 6284POPC   C4A18894  29.193  29.939   7.653
 6284POPC   C1B18895  29.298  30.043   8.553
 6284POPC   C2B18896  29.333  30.105   8.253
 6284POPC   C3B18897  29.312  30.071   7.953
 6284POPC   C4B18898  29.340  30.095   7.653
 6285POPC   NC318899   5.124   5.845   9.453
 6285POPC   PO418900   5.047   5.907   9.153
 6285POPC   GL118901   5.100   5.880   8.853
 6285POPC   GL218902   4.981   5.851   8.853
 6285POPC   C1A18903   5.140   5.866   8.553
 6285POPC   D2A18904   5.097   5.876   8.253
 6285POPC   C3A18905   5.082   5.852   7.953
 6285POPC   C4A18906   5.084   5.835   7.653
 6285POPC   C1B18907   4.797   5.811   8.553
 6285POPC   C2B18908   4.823   5.885   8.253
 6285POPC   C3B18909   4.881   5.844   7.953
 6285POPC   C4B18910   4.799   5.810   7.653
 6286POPC   NC318911  37.697  40.768   9.453
 6286POPC   PO418912  37.672  40.740   9.153
 6286POPC   GL118913  37.646  40.811   8.853
 6286POPC   GL218914  37.585  40.942   8.853
 6286POPC   C1A18915  37.663  40.792   8.553
 6286POPC   D2A18916  37.709  40.741   8.253
 6286POPC   C3A18917  37.685  40.798   7.953
 6286POPC   C4A18918  37.727  40.734   7.653
 6286POPC   C1B18919  37.575  41.057   8.553
 6286POPC   C2B18920  37.591  40.971   8.253
 6286POPC   C3B18921  37.588  40.987   7.953
 6286POPC   C4B18922  37.558  40.975   7.653
 6287POPC   NC318923  12.828  43.106   9.453
 6287POPC   PO418924  12.844  43.138   9.153
 6287POPC   GL118925  12.855  43.098   8.853
 6287POPC   GL218926  12.984  43.184   8.853
 6287POPC   C1A18927  12.866  43.125   8.553
 6287POPC   D2A18928  12.853  43.138   8.253
 6287POPC   C3A18929  12.885  43.100   7.953
 6287POPC   C4A18930  12.818  43.148   7.653
 6287POPC   C1B18931  13.116  43.195   8.553
 6287POPC   C2B18932  13.087  43.239   8.253
 6287POPC   C3B18933  13.092  43.248   7.953
 6287POPC   C4B18934  13.111  43.187   7.653
 6288POPC   NC318935  16.732  15.202   9.453
 6288POPC   PO418936  16.769  15.204   9.153
 6288POPC   GL118937  16.724  15.190   8.853
 6288POPC   GL218938  16.679  15.264   8.853
 6288POPC   C1A18939  16.776  15.147   8.553
 6288POPC   D2A18940  16.688  15.222   8.253
 6288POPC   C3A18941  16.776  15.202   7.953
 6288POPC   C4A18942  16.749  15.143   7.653
 6288POPC   C1B18943  16.669  15.364   8.553
 6288POPC   C2B18944  16.663  15.404   8.253
 6288POPC   C3B18945  16.638  15.457   7.953
 6288POPC   C4B18946  16.644  15.405   7.653
 6289POPC   NC318947   3.564  36.860   9.453
 6289POPC   PO418948   3.588  36.854   9.153
 6289POPC   GL118949   3.539  36.926   8.853
 6289POPC   GL218950   3.405  36.770   8.853
 6289POPC   C1A18951   3.543  36.891   8.553
 6289POPC   D2A18952   3.569  36.914   8.253
 6289POPC   C3A18953   3.562  36.855   7.953
 6289POPC   C4A18954   3.549  36.921   7.653
 6289POPC   C1B18955   3.389  36.698   8.553
 6289POPC   C2B18956   3.403  36.693   8.253
 6289POPC   C3B18957   3.347  36.727   7.953
 6289POPC   C4B18958   3.343  36.754   7.653
 6290POPC   NC318959  40.034  29.136   9.453
 6290POPC   PO418960  39.964  29.166   9.153
 6290POPC   GL118961  39.972  29.144   8.853
 6290POPC   GL218962  40.088  29.207   8.853
 6290POPC   C1A18963  39.962  29.113   8.553
 6290POPC   D2A18964  40.027  29.192   8.253
 6290POPC   C3A18965  40.001  29.131   7.953
 6290POPC   C4A18966  39.973  29.102   7.653
 6290POPC   C1B18967  40.210  29.379   8.553
 6290POPC   C2B18968  40.133  29.320   8.253
 6290POPC   C3B18969  40.149  29.335   7.953
 6290POPC   C4B18970  40.142  29.347   7.653
 6291POPC   NC318971   6.596  17.529   9.453
 6291POPC   PO418972   6.673  17.517   9.153
 6291POPC   GL118973   6.613  17.538   8.853
 6291POPC   GL218974   6.621  17.585   8.853
 6291POPC   C1A18975   6.686  17.532   8.553
 6291POPC   D2A18976   6.685  17.471   8.253
 6291POPC   C3A18977   6.598  17.542   7.953
 6291POPC   C4A18978   6.655  17.521   7.653
 6291POPC   C1B18979   6.697  17.770   8.553
 6291POPC   C2B18980   6.628  17.759   8.253
 6291POPC   C3B18981   6.701  17.737   7.953
 6291POPC   C4B18982   6.651  17.805   7.653
 6292POPC   NC318983  22.153  11.319   9.453
 6292POPC   PO418984  22.185  11.348   9.153
 6292POPC   GL118985  22.170  11.348   8.853
 6292POPC   GL218986  22.102  11.215   8.853
 6292POPC   C1A18987  22.146  11.343   8.553
 6292POPC   D2A18988  22.133  11.346   8.253
 6292POPC   C3A18989  22.197  11.251   7.953
 6292POPC   C4A18990  22.147  11.252   7.653
 6292POPC   C1B18991  22.065  11.104   8.553
 6292POPC   C2B18992  22.023  11.061   8.253
 6292POPC   C3B18993  21.996  11.111   7.953
 6292POPC   C4B18994  22.014  11.082   7.653
 6293POPC   NC318995  39.269   8.170   9.453
 6293POPC   PO418996  39.221   8.210   9.153
 6293POPC   GL118997  39.198   8.160   8.853
 6293POPC   GL218998  39.159   8.310   8.853
 6293POPC   C1A18999  39.240   8.175   8.553
 6293POPC   D2A19000  39.270   8.209   8.253
 6293POPC   C3A19001  39.239   8.224   7.953
 6293POPC   C4A19002  39.217   8.180   7.653
 6293POPC   C1B19003  39.027   8.317   8.553
 6293POPC   C2B19004  39.017   8.373   8.253
 6293POPC   C3B19005  39.034   8.283   7.953
 6293POPC   C4B19006  39.008   8.320   7.653
 6294POPC   NC319007  21.351  26.824   9.453
 6294POPC   PO419008  21.345  26.825   9.153
 6294POPC   GL119009  21.400  26.816   8.853
 6294POPC   GL219010  21.534  26.871   8.853
 6294POPC   C1A19011  21.367  26.779   8.553
 6294POPC   D2A19012  21.355  26.818   8.253
 6294POPC   C3A19013  21.348  26.824   7.953
 6294POPC   C4A19014  21.351  26.809   7.653
 6294POPC   C1B19015  21.650  26.917   8.553
 6294POPC   C2B19016  21.638  26.890   8.253
 6294POPC   C3B19017  21.611  26.866   7.953
 6294POPC   C4B19018  21.584  26.905   7.653
 6295POPC   NC319019  34.555  34.540   9.453
 6295POPC   PO419020  34.581  34.600   9.153
 6295POPC   GL119021  34.620  34.551   8.853
 6295POPC   GL219022  34.594  34.633   8.853
 6295POPC   C1A19023  34.579  34.604   8.553
 6295POPC   D2A19024  34.556  34.576   8.253
 6295POPC   C3A19025  34.570  34.579   7.953
 6295POPC   C4A19026  34.540  34.549   7.653
 6295POPC   C1B19027  34.675  34.767   8.553
 6295POPC   C2B19028  34.711  34.784   8.253
 6295POPC   C3B19029  34.748  34.749   7.953
 6295POPC   C4B19030  34.732  34.742   7.653
 6296POPC   NC319031  44.631  17.523   9.453
 6296POPC   PO419032  44.685  17.475   9.153
 6296POPC   GL119033  44.672  17.483   8.853
 6296POPC   GL219034  44.764  17.449   8.853
 6296POPC   C1A19035  44.654  17.509   8.553
 6296POPC   D2A19036  44.666  17.544   8.253
 6296POPC   C3A19037  44.691  17.503   7.953
 6296POPC   C4A19038  44.624  17.533   7.653
 6296POPC   C1B19039  44.811  17.388   8.553
 6296POPC   C2B19040  44.834  17.367   8.253
 6296POPC   C3B19041  44.901  17.318   7.953
 6296POPC   C4B19042  44.853  17.342   7.653
 6297POPC   NC319043  33.047  43.886   9.453
 6297POPC   PO419044  33.056  43.881   9.153
 6297POPC   GL119045  33.016  43.878   8.853
 6297POPC   GL219046  33.148  43.764   8.853
 6297POPC   C1A19047  33.027  43.898   8.553
 6297POPC   D2A19048  33.019  43.864   8.253
 6297POPC   C3A19049  33.073  43.840   7.953
 6297POPC   C4A19050  33.008  43.916   7.653
 6297POPC   C1B19051  33.207  43.758   8.553
 6297POPC   C2B19052  33.230  43.745   8.253
 6297POPC   C3B19053  33.250  43.717   7.953
 6297POPC   C4B19054  33.195  43.722   7.653
 6298POPC   NC319055  16.698  10.563   9.453
 6298POPC   PO419056  16.778  10.507   9.153
 6298POPC   GL119057  16.722  10.500   8.853
 6298POPC   GL219058  16.595  10.513   8.853
 6298POPC   C1A19059  16.763  10.495   8.553
 6298POPC   D2A19060  16.712  10.477   8.253
 6298POPC   C3A19061  16.733  10.564   7.953
 6298POPC   C4A19062  16.721  10.569   7.653
 6298POPC   C1B19063  16.461  10.616   8.553
 6298POPC   C2B19064  16.445  10.528   8.253
 6298POPC   C3B19065  16.525  10.554   7.953
 6298POPC   C4B19066  16.441  10.546   7.653
 6299POPC   NC319067  41.523  24.444   9.453
 6299POPC   PO419068  41.607  24.477   9.153
 6299POPC   GL119069  41.571  24.444   8.853
 6299POPC   GL219070  41.648  24.445   8.853
 6299POPC   C1A19071  41.594  24.513   8.553
 6299POPC   D2A19072  41.579  24.528   8.253
 6299POPC   C3A19073  41.517  24.527   7.953
 6299POPC   C4A19074  41.536  24.463   7.653
 6299POPC   C1B19075  41.776  24.338   8.553
 6299POPC   C2B19076  41.829  24.361   8.253
 6299POPC   C3B19077  41.802  24.417   7.953
 6299POPC   C4B19078  41.742  24.336   7.653
 6300POPC   NC319079  33.751  26.843   9.453
 6300POPC   PO419080  33.802  26.803   9.153
 6300POPC   GL119081  33.794  26.770   8.853
 6300POPC   GL219082  33.743  26.929   8.853
 6300POPC   C1A19083  33.825  26.825   8.553
 6300POPC   D2A19084  33.790  26.837   8.253
 6300POPC   C3A19085  33.825  26.770   7.953
 6300POPC   C4A19086  33.847  26.831   7.653
 6300POPC   C1B19087  33.773  27.030   8.553
 6300POPC   C2B19088  33.683  27.100   8.253
 6300POPC   C3B19089  33.723  27.072   7.953
 6300POPC   C4B19090  33.737  27.019   7.653
 6301POPC   NC319091  15.150  44.616   9.453
 6301POPC   PO419092  15.155  44.660   9.153
 6301POPC   GL119093  15.171  44.654   8.853
 6301POPC   GL219094  15.241  44.718   8.853
 6301POPC   C1A19095  15.229  44.678   8.553
 6301POPC   D2A19096  15.147  44.670   8.253
 6301POPC   C3A19097  15.211  44.712   7.953
 6301POPC   C4A19098  15.207  44.623   7.653
 6301POPC   C1B19099  15.366  44.837   8.553
 6301POPC   C2B19100  15.342  44.889   8.253
 6301POPC   C3B19101  15.358  44.810   7.953
 6301POPC   C4B19102  15.364  44.823   7.653
 6302POPC   NC319103  26.067  21.395   9.453
 6302POPC   PO419104  26.085  21.400   9.153
 6302POPC   GL119105  26.034  21.373   8.853
 6302POPC   GL219106  25.929  21.467   8.853
 6302POPC   C1A19107  26.061  21.397   8.553
 6302POPC   D2A19108  26.038  21.373   8.253
 6302POPC   C3A19109  26.010  21.409   7.953
 6302POPC   C4A19110  26.030  21.433   7.653
 6302POPC   C1B19111  25.803  21.495   8.553
 6302POPC   C2B19112  25.804  21.469   8.253
 6302POPC   C3B19113  25.838  21.458   7.953
 6302POPC   C4B19114  25.760  21.449   7.653
 6303POPC   NC319115   9.741  35.307   9.453
 6303POPC   PO419116   9.715  35.341   9.153
 6303POPC   GL119117   9.774  35.391   8.853
 6303POPC   GL219118   9.696  35.251   8.853
 6303POPC   C1A19119   9.700  35.349   8.553
 6303POPC   D2A19120   9.797  35.394   8.253
 6303POPC   C3A19121   9.773  35.335   7.953
 6303POPC   C4A19122   9.774  35.321   7.653
 6303POPC   C1B19123   9.555  35.204   8.553
 6303POPC   C2B19124   9.614  35.207   8.253
 6303POPC   C3B19125   9.610  35.121   7.953
 6303POPC   C4B19126   9.617  35.143   7.653
 6304POPC   NC319127   8.239  15.923   9.453
 6304POPC   PO419128   8.177  15.967   9.153
 6304POPC   GL119129   8.166  15.945   8.853
 6304POPC   GL219130   8.124  15.890   8.853
 6304POPC   C1A19131   8.192  15.967   8.553
 6304POPC   D2A19132   8.168  15.963   8.253
 6304POPC   C3A19133   8.195  15.919   7.953
 6304POPC   C4A19134   8.189  15.926   7.653
 6304POPC   C1B19135   7.910  15.883   8.553
 6304POPC   C2B19136   7.935  15.867   8.253
 6304POPC   C3B19137   7.961  15.935   7.953
 6304POPC   C4B19138   7.975  15.874   7.653
 6305POPC   NC319139  30.718  37.678   9.453
 6305POPC   PO419140  30.738  37.708   9.153
 6305POPC   GL119141  30.708  37.642   8.853
 6305POPC   GL219142  30.679  37.507   8.853
 6305POPC   C1A19143  30.665  37.664   8.553
 6305POPC   D2A19144  30.691  37.663   8.253
 6305POPC   C3A19145  30.693  37.694   7.953
 6305POPC   C4A19146  30.743  37.668   7.653
 6305POPC   C1B19147  30.707  37.407   8.553
 6305POPC   C2B19148  30.704  37.469   8.253
 6305POPC   C3B19149  30.723  37.384   7.953
 6305POPC   C4B19150  30.690  37.459   7.653
 6306POPC   NC319151   0.429   5.841   9.453
 6306POPC   PO419152   0.460   5.871   9.153
 6306POPC   GL119153   0.450   5.854   8.853
 6306POPC   GL219154   0.404   5.712   8.853
 6306POPC   C1A19155   0.476   5.862   8.553
 6306POPC   D2A19156   0.445   5.839   8.253
 6306POPC   C3A19157   0.445   5.857   7.953
 6306POPC   C4A19158   0.414   5.828   7.653
 6306POPC   C1B19159   0.408   5.578   8.553
 6306POPC   C2B19160   0.487   5.633   8.253
 6306POPC   C3B19161   0.469   5.585   7.953
 6306POPC   C4B19162   0.499   5.628   7.653
 6307POPC   NC319163  25.272   1.188   9.453
 6307POPC   PO419164  25.292   1.193   9.153
 6307POPC   GL119165  25.313   1.192   8.853
 6307POPC   GL219166  25.406   1.172   8.853
 6307POPC   C1A19167  25.300   1.167   8.553
 6307POPC   D2A19168  25.282   1.242   8.253
 6307POPC   C3A19169  25.228   1.216   7.953
 6307POPC   C4A19170  25.217   1.203   7.653
 6307POPC   C1B19171  25.478   1.044   8.553
 6307POPC   C2B19172  25.484   1.070   8.253
 6307POPC   C3B19173  25.450   1.106   7.953
 6307POPC   C4B19174  25.515   1.071   7.653
 6308POPC   NC319175  36.144   6.622   9.453
 6308POPC   PO419176  36.084   6.675   9.153
 6308POPC   GL119177  36.160   6.675   8.853
 6308POPC   GL219178  36.164   6.549   8.853
 6308POPC   C1A19179  36.155   6.682   8.553
 6308POPC   D2A19180  36.091   6.685   8.253
 6308POPC   C3A19181  36.174   6.643   7.953
 6308POPC   C4A19182  36.133   6.658   7.653
 6308POPC   C1B19183  36.111   6.426   8.553
 6308POPC   C2B19184  36.085   6.393   8.253
 6308POPC   C3B19185  36.060   6.377   7.953
 6308POPC   C4B19186  36.157   6.400   7.653
 6309POPC   NC319187   4.282  41.590   9.453
 6309POPC   PO419188   4.289  41.540   9.153
 6309POPC   GL119189   4.335  41.592   8.853
 6309POPC   GL219190   4.406  41.478   8.853
 6309POPC   C1A19191   4.315  41.541   8.553
 6309POPC   D2A19192   4.303  41.561   8.253
 6309POPC   C3A19193   4.357  41.584   7.953
 6309POPC   C4A19194   4.341  41.517   7.653
 6309POPC   C1B19195   4.527  41.441   8.553
 6309POPC   C2B19196   4.548  41.375   8.253
 6309POPC   C3B19197   4.521  41.434   7.953
 6309POPC   C4B19198   4.503  41.374   7.653
 6310POPC   NC319199  43.067  39.262   9.453
 6310POPC   PO419200  43.093  39.278   9.153
 6310POPC   GL119201  43.087  39.260   8.853
 6310POPC   GL219202  42.947  39.255   8.853
 6310POPC   C1A19203  43.099  39.239   8.553
 6310POPC   D2A19204  43.107  39.230   8.253
 6310POPC   C3A19205  43.063  39.236   7.953
 6310POPC   C4A19206  43.097  39.277   7.653
 6310POPC   C1B19207  42.854  39.284   8.553
 6310POPC   C2B19208  42.897  39.255   8.253
 6310POPC   C3B19209  42.866  39.264   7.953
 6310POPC   C4B19210  42.824  39.278   7.653
 6311POPC   NC319211   3.497  36.096   9.453
 6311POPC   PO419212   3.572  36.087   9.153
 6311POPC   GL119213   3.532  36.080   8.853
 6311POPC   GL219214   3.438  36.188   8.853
 6311POPC   C1A19215   3.515  36.096   8.553
 6311POPC   D2A19216   3.501  36.175   8.253
 6311POPC   C3A19217   3.535  36.159   7.953
 6311POPC   C4A19218   3.558  36.109   7.653
 6311POPC   C1B19219   3.284  36.137   8.553
 6311POPC   C2B19220   3.253  36.186   8.253
 6311POPC   C3B19221   3.249  36.196   7.953
 6311POPC   C4B19222   3.319  36.163   7.653
 6312POPC   NC319223   9.703  15.220   9.453
 6312POPC   PO419224   9.782  15.204   9.153
 6312POPC   GL119225   9.755  15.151   8.853
 6312POPC   GL219226   9.675  15.288   8.853
 6312POPC   C1A19227   9.704  15.157   8.553
 6312POPC   D2A19228   9.710  15.227   8.253
 6312POPC   C3A19229   9.716  15.157   7.953
 6312POPC   C4A19230   9.735  15.201   7.653
 6312POPC   C1B19231   9.628  15.381   8.553
 6312POPC   C2B19232   9.626  15.400   8.253
 6312POPC   C3B19233   9.692  15.404   7.953
 6312POPC   C4B19234   9.637  15.402   7.653
 6313POPC   NC319235  33.016  35.396   9.453
 6313POPC   PO419236  33.052  35.355   9.153
 6313POPC   GL119237  32.991  35.323   8.853
 6313POPC   GL219238  33.158  35.369   8.853
 6313POPC   C1A19239  33.046  35.311   8.553
 6313POPC   D2A19240  33.070  35.331   8.253
 6313POPC   C3A19241  33.015  35.378   7.953
 6313POPC   C4A19242  33.055  35.388   7.653
 6313POPC   C1B19243  33.271  35.422   8.553
 6313POPC   C2B19244  33.240  35.446   8.253
 6313POPC   C3B19245  33.257  35.405   7.953
 6313POPC   C4B19246  33.292  35.409   7.653
 6314POPC   NC319247  10.476   1.216   9.453
 6314POPC   PO419248  10.529   1.179   9.153
 6314POPC   GL119249  10.554   1.259   8.853
 6314POPC   GL219250  10.433   1.136   8.853
 6314POPC   C1A19251  10.523   1.258   8.553
 6314POPC   D2A19252  10.527   1.217   8.253
 6314POPC   C3A19253  10.528   1.259   7.953
 6314POPC   C4A19254  10.508   1.196   7.653
 6314POPC   C1B19255  10.429   0.947   8.553
 6314POPC   C2B19256  10.379   1.016   8.253
 6314POPC   C3B19257  10.432   0.976   7.953
 6314POPC   C4B19258  10.418   1.028   7.653
 6315POPC   NC319259  36.880  24.491   9.453
 6315POPC   PO419260  36.945  24.456   9.153
 6315POPC   GL119261  36.901  24.456   8.853
 6315POPC   GL219262  36.951  24.329   8.853
 6315POPC   C1A19263  36.929  24.508   8.553
 6315POPC   D2A19264  36.946  24.475   8.253
 6315POPC   C3A19265  36.940  24.517   7.953
 6315POPC   C4A19266  36.861  24.473   7.653
 6315POPC   C1B19267  36.943  24.223   8.553
 6315POPC   C2B19268  37.001  24.245   8.253
 6315POPC   C3B19269  36.983  24.283   7.953
 6315POPC   C4B19270  36.974  24.276   7.653
 6316POPC   NC319271  10.494  28.345   9.453
 6316POPC   PO419272  10.560  28.366   9.153
 6316POPC   GL119273  10.561  28.417   8.853
 6316POPC   GL219274  10.637  28.503   8.853
 6316POPC   C1A19275  10.551  28.414   8.553
 6316POPC   D2A19276  10.545  28.392   8.253
 6316POPC   C3A19277  10.525  28.391   7.953
 6316POPC   C4A19278  10.510  28.358   7.653
 6316POPC   C1B19279  10.746  28.554   8.553
 6316POPC   C2B19280  10.753  28.519   8.253
 6316POPC   C3B19281  10.728  28.492   7.953
 6316POPC   C4B19282  10.682  28.537   7.653
 6317POPC   NC319283  41.566  31.488   9.453
 6317POPC   PO419284  41.539  31.449   9.153
 6317POPC   GL119285  41.582  31.434   8.853
 6317POPC   GL219286  41.479  31.311   8.853
 6317POPC   C1A19287  41.567  31.425   8.553
 6317POPC   D2A19288  41.605  31.485   8.253
 6317POPC   C3A19289  41.517  31.498   7.953
 6317POPC   C4A19290  41.590  31.442   7.653
 6317POPC   C1B19291  41.450  31.274   8.553
 6317POPC   C2B19292  41.466  31.242   8.253
 6317POPC   C3B19293  41.464  31.258   7.953
 6317POPC   C4B19294  41.498  31.246   7.653
 6318POPC   NC319295  26.834  39.982   9.453
 6318POPC   PO419296  26.795  40.002   9.153
 6318POPC   GL119297  26.793  39.988   8.853
 6318POPC   GL219298  26.804  40.118   8.853
 6318POPC   C1A19299  26.801  39.993   8.553
 6318POPC   D2A19300  26.843  40.048   8.253
 6318POPC   C3A19301  26.825  39.974   7.953
 6318POPC   C4A19302  26.813  40.037   7.653
 6318POPC   C1B19303  26.921  40.242   8.553
 6318POPC   C2B19304  26.853  40.239   8.253
 6318POPC   C3B19305  26.828  40.234   7.953
 6318POPC   C4B19306  26.855  40.221   7.653
 6319POPC   NC319307  15.984   9.742   9.453
 6319POPC   PO419308  15.981   9.788   9.153
 6319POPC   GL119309  15.989   9.781   8.853
 6319POPC   GL219310  16.001   9.658   8.853
 6319POPC   C1A19311  15.982   9.766   8.553
 6319POPC   D2A19312  15.913   9.767   8.253
 6319POPC   C3A19313  15.959   9.758   7.953
 6319POPC   C4A19314  15.988   9.747   7.653
 6319POPC   C1B19315  16.045   9.539   8.553
 6319POPC   C2B19316  16.022   9.523   8.253
 6319POPC   C3B19317  16.050   9.492   7.953
 6319POPC   C4B19318  16.012   9.516   7.653
 6320POPC   NC319319  16.758  12.045   9.453
 6320POPC   PO419320  16.752  12.108   9.153
 6320POPC   GL119321  16.759  12.094   8.853
 6320POPC   GL219322  16.867  11.956   8.853
 6320POPC   C1A19323  16.681  12.113   8.553
 6320POPC   D2A19324  16.773  12.042   8.253
 6320POPC   C3A19325  16.693  12.102   7.953
 6320POPC   C4A19326  16.756  12.056   7.653
 6320POPC   C1B19327  16.975  11.951   8.553
 6320POPC   C2B19328  16.887  11.915   8.253
 6320POPC   C3B19329  16.973  11.960   7.953
 6320POPC   C4B19330  16.917  11.968   7.653
 6321POPC   NC319331  22.955  43.857   9.453
 6321POPC   PO419332  22.925  43.916   9.153
 6321POPC   GL119333  22.901  43.922   8.853
 6321POPC   GL219334  23.041  43.825   8.853
 6321POPC   C1A19335  22.911  43.885   8.553
 6321POPC   D2A19336  22.969  43.839   8.253
 6321POPC   C3A19337  22.914  43.887   7.953
 6321POPC   C4A19338  22.926  43.912   7.653
 6321POPC   C1B19339  23.174  43.777   8.553
 6321POPC   C2B19340  23.179  43.832   8.253
 6321POPC   C3B19341  23.155  43.825   7.953
 6321POPC   C4B19342  23.171  43.863   7.653
 6322POPC   NC319343  11.254  16.002   9.453
 6322POPC   PO419344  11.329  15.944   9.153
 6322POPC   GL119345  11.305  15.950   8.853
 6322POPC   GL219346  11.243  15.854   8.853
 6322POPC   C1A19347  11.296  15.958   8.553
 6322POPC   D2A19348  11.260  15.912   8.253
 6322POPC   C3A19349  11.321  15.906   7.953
 6322POPC   C4A19350  11.318  15.925   7.653
 6322POPC   C1B19351  11.149  15.813   8.553
 6322POPC   C2B19352  11.052  15.809   8.253
 6322POPC   C3B19353  11.143  15.792   7.953
 6322POPC   C4B19354  11.057  15.794   7.653
 6323POPC   NC319355  43.868  32.220   9.453
 6323POPC   PO419356  43.933  32.231   9.153
 6323POPC   GL119357  43.864  32.255   8.853
 6323POPC   GL219358  43.868  32.171   8.853
 6323POPC   C1A19359  43.931  32.266   8.553
 6323POPC   D2A19360  43.870  32.222   8.253
 6323POPC   C3A19361  43.865  32.209   7.953
 6323POPC   C4A19362  43.935  32.269   7.653
 6323POPC   C1B19363  43.734  32.066   8.553
 6323POPC   C2B19364  43.801  32.064   8.253
 6323POPC   C3B19365  43.811  32.072   7.953
 6323POPC   C4B19366  43.781  32.064   7.653
 6324POPC   NC319367  40.779   7.414   9.453
 6324POPC   PO419368  40.751   7.409   9.153
 6324POPC   GL119369  40.758   7.424   8.853
 6324POPC   GL219370  40.750   7.309   8.853
 6324POPC   C1A19371  40.765   7.460   8.553
 6324POPC   D2A19372  40.781   7.462   8.253
 6324POPC   C3A19373  40.805   7.455   7.953
 6324POPC   C4A19374  40.823   7.442   7.653
 6324POPC   C1B19375  40.775   7.209   8.553
 6324POPC   C2B19376  40.738   7.192   8.253
 6324POPC   C3B19377  40.756   7.156   7.953
 6324POPC   C4B19378  40.767   7.221   7.653
 6325POPC   NC319379  21.352   2.787   9.453
 6325POPC   PO419380  21.395   2.731   9.153
 6325POPC   GL119381  21.425   2.808   8.853
 6325POPC   GL219382  21.537   2.745   8.853
 6325POPC   C1A19383  21.344   2.778   8.553
 6325POPC   D2A19384  21.411   2.753   8.253
 6325POPC   C3A19385  21.386   2.717   7.953
 6325POPC   C4A19386  21.431   2.748   7.653
 6325POPC   C1B19387  21.574   2.611   8.553
 6325POPC   C2B19388  21.639   2.675   8.253
 6325POPC   C3B19389  21.635   2.684   7.953
 6325POPC   C4B19390  21.604   2.652   7.653
 6326POPC   NC319391  43.856  19.790   9.453
 6326POPC   PO419392  43.920  19.841   9.153
 6326POPC   GL119393  43.900  19.794   8.853
 6326POPC   GL219394  43.845  19.709   8.853
 6326POPC   C1A19395  43.841  19.839   8.553
 6326POPC   D2A19396  43.853  19.819   8.253
 6326POPC   C3A19397  43.907  19.805   7.953
 6326POPC   C4A19398  43.883  19.831   7.653
 6326POPC   C1B19399  43.769  19.579   8.553
 6326POPC   C2B19400  43.786  19.627   8.253
 6326POPC   C3B19401  43.818  19.636   7.953
 6326POPC   C4B19402  43.743  19.562   7.653
 6327POPC   NC319403  22.948  30.667   9.453
 6327POPC   PO419404  22.931  30.689   9.153
 6327POPC   GL119405  22.950  30.739   8.853
 6327POPC   GL219406  22.891  30.801   8.853
 6327POPC   C1A19407  22.964  30.717   8.553
 6327POPC   D2A19408  22.893  30.710   8.253
 6327POPC   C3A19409  22.964  30.710   7.953
 6327POPC   C4A19410  22.920  30.660   7.653
 6327POPC   C1B19411  22.879  30.941   8.553
 6327POPC   C2B19412  22.941  30.986   8.253
 6327POPC   C3B19413  22.922  30.934   7.953
 6327POPC   C4B19414  22.888  30.919   7.653
 6328POPC   NC319415   8.980  24.494   9.453
 6328POPC   PO419416   8.955  24.446   9.153
 6328POPC   GL119417   8.964  24.530   8.853
 6328POPC   GL219418   9.086  24.554   8.853
 6328POPC   C1A19419   8.949  24.469   8.553
 6328POPC   D2A19420   8.958  24.494   8.253
 6328POPC   C3A19421   8.951  24.467   7.953
 6328POPC   C4A19422   9.012  24.524   7.653
 6328POPC   C1B19423   9.151  24.713   8.553
 6328POPC   C2B19424   9.169  24.652   8.253
 6328POPC   C3B19425   9.158  24.633   7.953
 6328POPC   C4B19426   9.129  24.639   7.653
 6329POPC   NC319427   2.737  20.657   9.453
 6329POPC   PO419428   2.740  20.621   9.153
 6329POPC   GL119429   2.774  20.589   8.853
 6329POPC   GL219430   2.746  20.456   8.853
 6329POPC   C1A19431   2.721  20.573   8.553
 6329POPC   D2A19432   2.794  20.651   8.253
 6329POPC   C3A19433   2.804  20.620   7.953
 6329POPC   C4A19434   2.777  20.637   7.653
 6329POPC   C1B19435   2.816  20.374   8.553
 6329POPC   C2B19436   2.779  20.340   8.253
 6329POPC   C3B19437   2.843  20.387   7.953
 6329POPC   C4B19438   2.788  20.342   7.653
 6330POPC   NC319439  35.345  43.149   9.453
 6330POPC   PO419440  35.389  43.138   9.153
 6330POPC   GL119441  35.398  43.087   8.853
 6330POPC   GL219442  35.395  43.214   8.853
 6330POPC   C1A19443  35.325  43.105   8.553
 6330POPC   D2A19444  35.343  43.088   8.253
 6330POPC   C3A19445  35.375  43.144   7.953
 6330POPC   C4A19446  35.380  43.131   7.653
 6330POPC   C1B19447  35.530  43.358   8.553
 6330POPC   C2B19448  35.455  43.310   8.253
 6330POPC   C3B19449  35.530  43.314   7.953
 6330POPC   C4B19450  35.448  43.357   7.653
 6331POPC   NC319451   1.221  37.712   9.453
 6331POPC   PO419452   1.193  37.708   9.153
 6331POPC   GL119453   1.248  37.677   8.853
 6331POPC   GL219454   1.207  37.784   8.853
 6331POPC   C1A19455   1.242  37.651   8.553
 6331POPC   D2A19456   1.167  37.636   8.253
 6331POPC   C3A19457   1.206  37.708   7.953
 6331POPC   C4A19458   1.248  37.689   7.653
 6331POPC   C1B19459   1.081  37.957   8.553
 6331POPC   C2B19460   1.155  37.926   8.253
 6331POPC   C3B19461   1.136  37.866   7.953
 6331POPC   C4B19462   1.105  37.952   7.653
 6332POPC   NC319463  16.005  20.621   9.453
 6332POPC   PO419464  15.927  20.564   9.153
 6332POPC   GL119465  15.941  20.627   8.853
 6332POPC   GL219466  15.792  20.595   8.853
 6332POPC   C1A19467  15.941  20.626   8.553
 6332POPC   D2A19468  15.996  20.632   8.253
 6332POPC   C3A19469  15.940  20.615   7.953
 6332POPC   C4A19470  15.906  20.567   7.653
 6332POPC   C1B19471  15.777  20.511   8.553
 6332POPC   C2B19472  15.754  20.502   8.253
 6332POPC   C3B19473  15.710  20.538   7.953
 6332POPC   C4B19474  15.732  20.469   7.653
 6333POPC   NC319475   4.311   8.962   9.453
 6333POPC   PO419476   4.341   9.013   9.153
 6333POPC   GL119477   4.311   8.959   8.853
 6333POPC   GL219478   4.289   8.804   8.853
 6333POPC   C1A19479   4.350   8.928   8.553
 6333POPC   D2A19480   4.304   8.988   8.253
 6333POPC   C3A19481   4.302   8.956   7.953
 6333POPC   C4A19482   4.292   8.949   7.653
 6333POPC   C1B19483   4.345   8.683   8.553
 6333POPC   C2B19484   4.367   8.680   8.253
 6333POPC   C3B19485   4.366   8.734   7.953
 6333POPC   C4B19486   4.335   8.757   7.653
 6334POPC   NC319487  20.616  34.539   9.453
 6334POPC   PO419488  20.627  34.597   9.153
 6334POPC   GL119489  20.565  34.569   8.853
 6334POPC   GL219490  20.516  34.523   8.853
 6334POPC   C1A19491  20.593  34.600   8.553
 6334POPC   D2A19492  20.650  34.562   8.253
 6334POPC   C3A19493  20.653  34.570   7.953
 6334POPC   C4A19494  20.620  34.554   7.653
 6334POPC   C1B19495  20.407  34.586   8.553
 6334POPC   C2B19496  20.411  34.509   8.253
 6334POPC   C3B19497  20.342  34.514   7.953
 6334POPC   C4B19498  20.334  34.525   7.653
 6335POPC   NC319499  35.366  12.853   9.453
 6335POPC   PO419500  35.315  12.854   9.153
 6335POPC   GL119501  35.328  12.818   8.853
 6335POPC   GL219502  35.250  12.986   8.853
 6335POPC   C1A19503  35.345  12.879   8.553
 6335POPC   D2A19504  35.332  12.864   8.253
 6335POPC   C3A19505  35.396  12.846   7.953
 6335POPC   C4A19506  35.350  12.827   7.653
 6335POPC   C1B19507  35.266  13.118   8.553
 6335POPC   C2B19508  35.250  13.118   8.253
 6335POPC   C3B19509  35.253  13.123   7.953
 6335POPC   C4B19510  35.275  13.086   7.653
 6336POPC   NC319511   5.103   5.133   9.453
 6336POPC   PO419512   5.129   5.133   9.153
 6336POPC   GL119513   5.124   5.073   8.853
 6336POPC   GL219514   5.058   5.044   8.853
 6336POPC   C1A19515   5.120   5.060   8.553
 6336POPC   D2A19516   5.046   5.120   8.253
 6336POPC   C3A19517   5.055   5.051   7.953
 6336POPC   C4A19518   5.102   5.128   7.653
 6336POPC   C1B19519   4.886   4.865   8.553
 6336POPC   C2B19520   4.966   4.866   8.253
 6336POPC   C3B19521   4.945   4.868   7.953
 6336POPC   C4B19522   4.944   4.868   7.653
 6337POPC   NC319523  43.123  10.487   9.453
 6337POPC   PO419524  43.092  10.480   9.153
 6337POPC   GL119525  43.135  10.553   8.853
 6337POPC   GL219526  43.148  10.412   8.853
 6337POPC   C1A19527  43.074  10.548   8.553
 6337POPC   D2A19528  43.117  10.544   8.253
 6337POPC   C3A19529  43.122  10.477   7.953
 6337POPC   C4A19530  43.134  10.557   7.653
 6337POPC   C1B19531  43.103  10.292   8.553
 6337POPC   C2B19532  43.174  10.315   8.253
 6337POPC   C3B19533  43.151  10.276   7.953
 6337POPC   C4B19534  43.171  10.289   7.653
 6338POPC   NC319535  12.079   5.079   9.453
 6338POPC   PO419536  12.099   5.120   9.153
 6338POPC   GL119537  12.086   5.099   8.853
 6338POPC   GL219538  11.983   5.142   8.853
 6338POPC   C1A19539  12.115   5.046   8.553
 6338POPC   D2A19540  12.054   5.056   8.253
 6338POPC   C3A19541  12.091   5.080   7.953
 6338POPC   C4A19542  12.116   5.063   7.653
 6338POPC   C1B19543  11.878   5.320   8.553
 6338POPC   C2B19544  11.884   5.304   8.253
 6338POPC   C3B19545  11.892   5.235   7.953
 6338POPC   C4B19546  11.929   5.255   7.653
 6339POPC   NC319547  20.643  40.009   9.453
 6339POPC   PO419548  20.627  40.041   9.153
 6339POPC   GL119549  20.656  39.970   8.853
 6339POPC   GL219550  20.657  39.954   8.853
 6339POPC   C1A19551  20.566  40.035   8.553
 6339POPC   D2A19552  20.644  40.004   8.253
 6339POPC   C3A19553  20.577  40.041   7.953
 6339POPC   C4A19554  20.626  40.045   7.653
 6339POPC   C1B19555  20.715  39.774   8.553
 6339POPC   C2B19556  20.725  39.803   8.253
 6339POPC   C3B19557  20.765  39.849   7.953
 6339POPC   C4B19558  20.725  39.839   7.653
 6340POPC   NC319559  27.606  22.909   9.453
 6340POPC   PO419560  27.593  22.966   9.153
 6340POPC   GL119561  27.639  22.950   8.853
 6340POPC   GL219562  27.491  23.027   8.853
 6340POPC   C1A19563  27.568  22.903   8.553
 6340POPC   D2A19564  27.564  22.922   8.253
 6340POPC   C3A19565  27.618  22.926   7.953
 6340POPC   C4A19566  27.563  22.894   7.653
 6340POPC   C1B19567  27.441  23.100   8.553
 6340POPC   C2B19568  27.361  23.114   8.253
 6340POPC   C3B19569  27.350  23.141   7.953
 6340POPC   C4B19570  27.417  23.130   7.653
 6341POPC   NC319571  34.547  39.998   9.453
 6341POPC   PO419572  34.528  39.975   9.153
 6341POPC   GL119573  34.532  40.043   8.853
 6341POPC   GL219574  34.499  40.053   8.853
 6341POPC   C1A19575  34.602  40.003   8.553
 6341POPC   D2A19576  34.542  39.997   8.253
 6341POPC   C3A19577  34.624  39.995   7.953
 6341POPC   C4A19578  34.545  40.007   7.653
 6341POPC   C1B19579  34.327  40.207   8.553
 6341POPC   C2B19580  34.341  40.146   8.253
 6341POPC   C3B19581  34.386  40.129   7.953
 6341POPC   C4B19582  34.375  40.142   7.653
 6342POPC   NC319583  29.152  22.209   9.453
 6342POPC   PO419584  29.178  22.211   9.153
 6342POPC   GL119585  29.108  22.189   8.853
 6342POPC   GL219586  29.008  22.082   8.853
 6342POPC   C1A19587  29.146  22.212   8.553
 6342POPC   D2A19588  29.102  22.186   8.253
 6342POPC   C3A19589  29.138  22.191   7.953
 6342POPC   C4A19590  29.166  22.150   7.653
 6342POPC   C1B19591  28.915  21.980   8.553
 6342POPC   C2B19592  28.967  22.015   8.253
 6342POPC   C3B19593  28.920  22.055   7.953
 6342POPC   C4B19594  28.950  22.019   7.653
 6343POPC   NC319595  36.896  43.871   9.453
 6343POPC   PO419596  36.923  43.863   9.153
 6343POPC   GL119597  36.948  43.874   8.853
 6343POPC   GL219598  36.755  43.930   8.853
 6343POPC   C1A19599  36.912  43.873   8.553
 6343POPC   D2A19600  36.884  43.918   8.253
 6343POPC   C3A19601  36.893  43.933   7.953
 6343POPC   C4A19602  36.889  43.848   7.653
 6343POPC   C1B19603  36.735  44.000   8.553
 6343POPC   C2B19604  36.687  44.006   8.253
 6343POPC   C3B19605  36.693  44.006   7.953
 6343POPC   C4B19606  36.689  43.987   7.653
 6344POPC   NC319607   5.076  19.033   9.453
 6344POPC   PO419608   5.062  19.023   9.153
 6344POPC   GL119609   5.088  19.012   8.853
 6344POPC   GL219610   5.219  18.939   8.853
 6344POPC   C1A19611   5.097  19.065   8.553
 6344POPC   D2A19612   5.058  19.092   8.253
 6344POPC   C3A19613   5.094  19.009   7.953
 6344POPC   C4A19614   5.121  19.101   7.653
 6344POPC   C1B19615   5.309  18.868   8.553
 6344POPC   C2B19616   5.250  18.943   8.253
 6344POPC   C3B19617   5.324  18.894   7.953
 6344POPC   C4B19618   5.305  18.955   7.653
 6345POPC   NC319619  40.038  20.598   9.453
 6345POPC   PO419620  39.961  20.658   9.153
 6345POPC   GL119621  40.005  20.582   8.853
 6345POPC   GL219622  40.074  20.499   8.853
 6345POPC   C1A19623  39.970  20.575   8.553
 6345POPC   D2A19624  40.012  20.609   8.253
 6345POPC   C3A19625  40.037  20.577   7.953
 6345POPC   C4A19626  39.966  20.589   7.653
 6345POPC   C1B19627  40.148  20.387   8.553
 6345POPC   C2B19628  40.180  20.377   8.253
 6345POPC   C3B19629  40.115  20.441   7.953
 6345POPC   C4B19630  40.113  20.373   7.653
 6346POPC   NC319631  10.536   4.333   9.453
 6346POPC   PO419632  10.502   4.302   9.153
 6346POPC   GL119633  10.486   4.311   8.853
 6346POPC   GL219634  10.642   4.423   8.853
 6346POPC   C1A19635  10.502   4.325   8.553
 6346POPC   D2A19636  10.499   4.287   8.253
 6346POPC   C3A19637  10.499   4.352   7.953
 6346POPC   C4A19638  10.483   4.306   7.653
 6346POPC   C1B19639  10.724   4.529   8.553
 6346POPC   C2B19640  10.695   4.561   8.253
 6346POPC   C3B19641  10.646   4.474   7.953
 6346POPC   C4B19642  10.631   4.523   7.653
 6347POPC   NC319643  27.591  36.153   9.453
 6347POPC   PO419644  27.558  36.164   9.153
 6347POPC   GL119645  27.633  36.109   8.853
 6347POPC   GL219646  27.505  36.076   8.853
 6347POPC   C1A19647  27.632  36.098   8.553
 6347POPC   D2A19648  27.616  36.157   8.253
 6347POPC   C3A19649  27.623  36.124   7.953
 6347POPC   C4A19650  27.630  36.155   7.653
 6347POPC   C1B19651  27.438  35.956   8.553
 6347POPC   C2B19652  27.363  35.910   8.253
 6347POPC   C3B19653  27.405  35.947   7.953
 6347POPC   C4B19654  27.421  35.916   7.653
 6348POPC   NC319655  37.691  33.835   9.453
 6348POPC   PO419656  37.644  33.754   9.153
 6348POPC   GL119657  37.662  33.808   8.853
 6348POPC   GL219658  37.629  33.851   8.853
 6348POPC   C1A19659  37.687  33.767   8.553
 6348POPC   D2A19660  37.683  33.774   8.253
 6348POPC   C3A19661  37.694  33.828   7.953
 6348POPC   C4A19662  37.654  33.838   7.653
 6348POPC   C1B19663  37.538  33.978   8.553
 6348POPC   C2B19664  37.458  33.977   8.253
 6348POPC   C3B19665  37.517  33.962   7.953
 6348POPC   C4B19666  37.527  34.008   7.653
 6349POPC   NC319667  25.308  17.462   9.453
 6349POPC   PO419668  25.221  17.514   9.153
 6349POPC   GL119669  25.291  17.550   8.853
 6349POPC   GL219670  25.273  17.353   8.853
 6349POPC   C1A19671  25.234  17.509   8.553
 6349POPC   D2A19672  25.295  17.540   8.253
 6349POPC   C3A19673  25.232  17.511   7.953
 6349POPC   C4A19674  25.264  17.555   7.653
 6349POPC   C1B19675  25.193  17.285   8.553
 6349POPC   C2B19676  25.206  17.258   8.253
 6349POPC   C3B19677  25.230  17.290   7.953
 6349POPC   C4B19678  25.245  17.255   7.653
 6350POPC   NC319679  36.877  15.929   9.453
 6350POPC   PO419680  36.894  16.001   9.153
 6350POPC   GL119681  36.864  15.983   8.853
 6350POPC   GL219682  36.875  15.800   8.853
 6350POPC   C1A19683  36.924  15.989   8.553
 6350POPC   D2A19684  36.941  15.977   8.253
 6350POPC   C3A19685  36.949  15.981   7.953
 6350POPC   C4A19686  36.945  15.918   7.653
 6350POPC   C1B19687  36.767  15.772   8.553
 6350POPC   C2B19688  36.827  15.696   8.253
 6350POPC   C3B19689  36.772  15.711   7.953
 6350POPC   C4B19690  36.832  15.746   7.653
 6351POPC   NC319691   4.272  33.789   9.453
 6351POPC   PO419692   4.282  33.754   9.153
 6351POPC   GL119693   4.331  33.777   8.853
 6351POPC   GL219694   4.398  33.741   8.853
 6351POPC   C1A19695   4.281  33.762   8.553
 6351POPC   D2A19696   4.279  33.842   8.253
 6351POPC   C3A19697   4.347  33.810   7.953
 6351POPC   C4A19698   4.360  33.815   7.653
 6351POPC   C1B19699   4.544  33.615   8.553
 6351POPC   C2B19700   4.544  33.663   8.253
 6351POPC   C3B19701   4.550  33.666   7.953
 6351POPC   C4B19702   4.514  33.636   7.653
 6352POPC   NC319703  29.968  40.002   9.453
 6352POPC   PO419704  29.947  39.982   9.153
 6352POPC   GL119705  29.912  40.003   8.853
 6352POPC   GL219706  29.781  39.992   8.853
 6352POPC   C1A19707  29.948  40.028   8.553
 6352POPC   D2A19708  29.890  40.021   8.253
 6352POPC   C3A19709  29.896  39.992   7.953
 6352POPC   C4A19710  29.962  40.007   7.653
 6352POPC   C1B19711  29.641  40.066   8.553
 6352POPC   C2B19712  29.712  40.041   8.253
 6352POPC   C3B19713  29.722  40.062   7.953
 6352POPC   C4B19714  29.697  40.061   7.653
 6353POPC   NC319715  26.018  32.217   9.453
 6353POPC   PO419716  26.070  32.259   9.153
 6353POPC   GL119717  26.037  32.233   8.853
 6353POPC   GL219718  26.095  32.299   8.853
 6353POPC   C1A19719  26.050  32.253   8.553
 6353POPC   D2A19720  26.076  32.221   8.253
 6353POPC   C3A19721  26.083  32.292   7.953
 6353POPC   C4A19722  26.037  32.207   7.653
 6353POPC   C1B19723  26.259  32.387   8.553
 6353POPC   C2B19724  26.230  32.392   8.253
 6353POPC   C3B19725  26.270  32.432   7.953
 6353POPC   C4B19726  26.249  32.342   7.653
 6354POPC   NC319727  15.983  44.647   9.453
 6354POPC   PO419728  15.973  44.627   9.153
 6354POPC   GL119729  15.999  44.627   8.853
 6354POPC   GL219730  16.027  44.572   8.853
 6354POPC   C1A19731  15.956  44.691   8.553
 6354POPC   D2A19732  15.984  44.623   8.253
 6354POPC   C3A19733  15.925  44.618   7.953
 6354POPC   C4A19734  15.985  44.626   7.653
 6354POPC   C1B19735  16.020  44.448   8.553
 6354POPC   C2B19736  16.045  44.393   8.253
 6354POPC   C3B19737  16.079  44.396   7.953
 6354POPC   C4B19738  16.015  44.412   7.653
 6355POPC   NC319739  33.027  19.868   9.453
 6355POPC   PO419740  32.980  19.792   9.153
 6355POPC   GL119741  32.996  19.789   8.853
 6355POPC   GL219742  32.983  19.671   8.853
 6355POPC   C1A19743  32.995  19.836   8.553
 6355POPC   D2A19744  33.018  19.837   8.253
 6355POPC   C3A19745  33.000  19.884   7.953
 6355POPC   C4A19746  33.011  19.822   7.653
 6355POPC   C1B19747  33.008  19.556   8.553
 6355POPC   C2B19748  33.036  19.589   8.253
 6355POPC   C3B19749  33.004  19.553   7.953
 6355POPC   C4B19750  33.008  19.579   7.653
 6356POPC   NC319751   4.309  15.192   9.453
 6356POPC   PO419752   4.318  15.158   9.153
 6356POPC   GL119753   4.279  15.164   8.853
 6356POPC   GL219754   4.379  15.042   8.853
 6356POPC   C1A19755   4.358  15.135   8.553
 6356POPC   D2A19756   4.349  15.171   8.253
 6356POPC   C3A19757   4.366  15.131   7.953
 6356POPC   C4A19758   4.327  15.227   7.653
 6356POPC   C1B19759   4.381  14.963   8.553
 6356POPC   C2B19760   4.455  14.926   8.253
 6356POPC   C3B19761   4.425  14.986   7.953
 6356POPC   C4B19762   4.422  14.900   7.653
 6357POPC   NC319763  35.379  40.788   9.453
 6357POPC   PO419764  35.378  40.769   9.153
 6357POPC   GL119765  35.372  40.807   8.853
 6357POPC   GL219766  35.472  40.866   8.853
 6357POPC   C1A19767  35.349  40.800   8.553
 6357POPC   D2A19768  35.348  40.735   8.253
 6357POPC   C3A19769  35.381  40.833   7.953
 6357POPC   C4A19770  35.365  40.801   7.653
 6357POPC   C1B19771  35.611  40.890   8.553
 6357POPC   C2B19772  35.554  40.818   8.253
 6357POPC   C3B19773  35.543  40.864   7.953
 6357POPC   C4B19774  35.616  40.859   7.653
 6358POPC   NC319775  19.803  12.067   9.453
 6358POPC   PO419776  19.797  12.102   9.153
 6358POPC   GL119777  19.788  12.053   8.853
 6358POPC   GL219778  19.908  11.971   8.853
 6358POPC   C1A19779  19.857  12.091   8.553
 6358POPC   D2A19780  19.810  12.124   8.253
 6358POPC   C3A19781  19.807  12.032   7.953
 6358POPC   C4A19782  19.880  12.092   7.653
 6358POPC   C1B19783  19.837  11.781   8.553
 6358POPC   C2B19784  19.860  11.789   8.253
 6358POPC   C3B19785  19.872  11.790   7.953
 6358POPC   C4B19786  19.890  11.818   7.653
 6359POPC   NC319787  40.736  43.926   9.453
 6359POPC   PO419788  40.747  43.873   9.153
 6359POPC   GL119789  40.768  43.913   8.853
 6359POPC   GL219790  40.677  43.818   8.853
 6359POPC   C1A19791  40.790  43.920   8.553
 6359POPC   D2A19792  40.820  43.846   8.253
 6359POPC   C3A19793  40.827  43.908   7.953
 6359POPC   C4A19794  40.799  43.908   7.653
 6359POPC   C1B19795  40.547  43.812   8.553
 6359POPC   C2B19796  40.598  43.828   8.253
 6359POPC   C3B19797  40.584  43.764   7.953
 6359POPC   C4B19798  40.569  43.767   7.653
 6360POPC   NC319799  22.920  12.098   9.453
 6360POPC   PO419800  22.963  12.126   9.153
 6360POPC   GL119801  22.890  12.038   8.853
 6360POPC   GL219802  23.057  12.128   8.853
 6360POPC   C1A19803  22.943  12.080   8.553
 6360POPC   D2A19804  22.893  12.037   8.253
 6360POPC   C3A19805  22.912  12.091   7.953
 6360POPC   C4A19806  22.961  12.083   7.653
 6360POPC   C1B19807  23.092  12.260   8.553
 6360POPC   C2B19808  23.111  12.273   8.253
 6360POPC   C3B19809  23.151  12.225   7.953
 6360POPC   C4B19810  23.111  12.207   7.653
 6361POPC   NC319811  44.625   4.319   9.453
 6361POPC   PO419812  44.660   4.349   9.153
 6361POPC   GL119813  44.699   4.328   8.853
 6361POPC   GL219814  44.560   4.233   8.853
 6361POPC   C1A19815  44.694   4.360   8.553
 6361POPC   D2A19816  44.612   4.334   8.253
 6361POPC   C3A19817  44.702   4.327   7.953
 6361POPC   C4A19818  44.657   4.284   7.653
 6361POPC   C1B19819  44.453   4.258   8.553
 6361POPC   C2B19820  44.448   4.257   8.253
 6361POPC   C3B19821  44.384   4.232   7.953
 6361POPC   C4B19822  44.461   4.198   7.653
 6362POPC   NC319823  11.327  15.175   9.453
 6362POPC   PO419824  11.314  15.136   9.153
 6362POPC   GL119825  11.277  15.152   8.853
 6362POPC   GL219826  11.245  15.090   8.853
 6362POPC   C1A19827  11.306  15.173   8.553
 6362POPC   D2A19828  11.312  15.134   8.253
 6362POPC   C3A19829  11.259  15.216   7.953
 6362POPC   C4A19830  11.340  15.200   7.653
 6362POPC   C1B19831  11.061  15.054   8.553
 6362POPC   C2B19832  11.094  14.974   8.253
 6362POPC   C3B19833  11.150  15.042   7.953
 6362POPC   C4B19834  11.149  15.023   7.653
 6363POPC   NC319835  15.943  11.317   9.453
 6363POPC   PO419836  16.005  11.296   9.153
 6363POPC   GL119837  15.999  11.331   8.853
 6363POPC   GL219838  16.073  11.249   8.853
 6363POPC   C1A19839  15.910  11.314   8.553
 6363POPC   D2A19840  15.949  11.275   8.253
 6363POPC   C3A19841  15.932  11.293   7.953
 6363POPC   C4A19842  15.999  11.313   7.653
 6363POPC   C1B19843  16.172  11.185   8.553
 6363POPC   C2B19844  16.201  11.213   8.253
 6363POPC   C3B19845  16.162  11.203   7.953
 6363POPC   C4B19846  16.135  11.219   7.653
 6364POPC   NC319847  39.263  30.705   9.453
 6364POPC   PO419848  39.248  30.710   9.153
 6364POPC   GL119849  39.271  30.703   8.853
 6364POPC   GL219850  39.376  30.731   8.853
 6364POPC   C1A19851  39.263  30.714   8.553
 6364POPC   D2A19852  39.203  30.733   8.253
 6364POPC   C3A19853  39.274  30.697   7.953
 6364POPC   C4A19854  39.203  30.718   7.653
 6364POPC   C1B19855  39.487  30.792   8.553
 6364POPC   C2B19856  39.495  30.850   8.253
 6364POPC   C3B19857  39.460  30.820   7.953
 6364POPC   C4B19858  39.464  30.787   7.653
 6365POPC   NC319859  13.610  38.489   9.453
 6365POPC   PO419860  13.585  38.458   9.153
 6365POPC   GL119861  13.605  38.491   8.853
 6365POPC   GL219862  13.590  38.576   8.853
 6365POPC   C1A19863  13.584  38.464   8.553
 6365POPC   D2A19864  13.630  38.477   8.253
 6365POPC   C3A19865  13.659  38.425   7.953
 6365POPC   C4A19866  13.609  38.431   7.653
 6365POPC   C1B19867  13.669  38.697   8.553
 6365POPC   C2B19868  13.631  38.737   8.253
 6365POPC   C3B19869  13.594  38.665   7.953
 6365POPC   C4B19870  13.609  38.724   7.653
 6366POPC   NC319871  40.037  34.583   9.453
 6366POPC   PO419872  40.055  34.613   9.153
 6366POPC   GL119873  40.051  34.622   8.853
 6366POPC   GL219874  40.085  34.556   8.853
 6366POPC   C1A19875  39.984  34.619   8.553
 6366POPC   D2A19876  39.972  34.556   8.253
 6366POPC   C3A19877  40.016  34.601   7.953
 6366POPC   C4A19878  39.985  34.570   7.653
 6366POPC   C1B19879  40.254  34.460   8.553
 6366POPC   C2B19880  40.274  34.479   8.253
 6366POPC   C3B19881  40.185  34.493   7.953
 6366POPC   C4B19882  40.250  34.501   7.653
 6367POPC   NC319883  12.817   7.440   9.453
 6367POPC   PO419884  12.810   7.432   9.153
 6367POPC   GL119885  12.855   7.440   8.853
 6367POPC   GL219886  12.722   7.439   8.853
 6367POPC   C1A19887  12.837   7.392   8.553
 6367POPC   D2A19888  12.825   7.419   8.253
 6367POPC   C3A19889  12.877   7.432   7.953
 6367POPC   C4A19890  12.829   7.428   7.653
 6367POPC   C1B19891  12.568   7.363   8.553
 6367POPC   C2B19892  12.568   7.390   8.253
 6367POPC   C3B19893  12.581   7.394   7.953
 6367POPC   C4B19894  12.608   7.416   7.653
 6368POPC   NC319895   2.026  41.602   9.453
 6368POPC   PO419896   1.943  41.510   9.153
 6368POPC   GL119897   2.038  41.538   8.853
 6368POPC   GL219898   2.042  41.442   8.853
 6368POPC   C1A19899   2.018  41.537   8.553
 6368POPC   D2A19900   1.960  41.533   8.253
 6368POPC   C3A19901   1.949  41.529   7.953
 6368POPC   C4A19902   1.994  41.548   7.653
 6368POPC   C1B19903   1.985  41.282   8.553
 6368POPC   C2B19904   2.020  41.277   8.253
 6368POPC   C3B19905   1.990  41.289   7.953
 6368POPC   C4B19906   2.001  41.347   7.653
 6369POPC   NC319907  39.963  19.083   9.453
 6369POPC   PO419908  40.030  19.104   9.153
 6369POPC   GL119909  40.031  19.058   8.853
 6369POPC   GL219910  40.055  19.144   8.853
 6369POPC   C1A19911  39.983  19.098   8.553
 6369POPC   D2A19912  39.983  19.068   8.253
 6369POPC   C3A19913  39.966  19.051   7.953
 6369POPC   C4A19914  39.963  19.090   7.653
 6369POPC   C1B19915  40.179  19.196   8.553
 6369POPC   C2B19916  40.177  19.281   8.253
 6369POPC   C3B19917  40.136  19.233   7.953
 6369POPC   C4B19918  40.221  19.197   7.653
 6370POPC   NC319919  33.831  39.966   9.453
 6370POPC   PO419920  33.767  39.961   9.153
 6370POPC   GL119921  33.771  40.004   8.853
 6370POPC   GL219922  33.691  40.087   8.853
 6370POPC   C1A19923  33.823  40.005   8.553
 6370POPC   D2A19924  33.804  40.028   8.253
 6370POPC   C3A19925  33.823  39.980   7.953
 6370POPC   C4A19926  33.845  39.963   7.653
 6370POPC   C1B19927  33.584  40.104   8.553
 6370POPC   C2B19928  33.533  40.107   8.253
 6370POPC   C3B19929  33.607  40.078   7.953
 6370POPC   C4B19930  33.588  40.119   7.653
 6371POPC   NC319931  43.924  19.103   9.453
 6371POPC   PO419932  43.847  19.023   9.153
 6371POPC   GL119933  43.874  19.012   8.853
 6371POPC   GL219934  43.810  18.947   8.853
 6371POPC   C1A19935  43.910  19.016   8.553
 6371POPC   D2A19936  43.873  19.077   8.253
 6371POPC   C3A19937  43.873  19.054   7.953
 6371POPC   C4A19938  43.839  19.019   7.653
 6371POPC   C1B19939  43.694  18.915   8.553
 6371POPC   C2B19940  43.669  18.902   8.253
 6371POPC   C3B19941  43.691  18.920   7.953
 6371POPC   C4B19942  43.646  18.965   7.653
 6372POPC   NC319943  33.780  22.171   9.453
 6372POPC   PO419944  33.776  22.134   9.153
 6372POPC   GL119945  33.791  22.201   8.853
 6372POPC   GL219946  33.753  22.236   8.853
 6372POPC   C1A19947  33.807  22.160   8.553
 6372POPC   D2A19948  33.774  22.162   8.253
 6372POPC   C3A19949  33.841  22.153   7.953
 6372POPC   C4A19950  33.812  22.199   7.653
 6372POPC   C1B19951  33.742  22.408   8.553
 6372POPC   C2B19952  33.708  22.393   8.253
 6372POPC   C3B19953  33.780  22.431   7.953
 6372POPC   C4B19954  33.700  22.400   7.653
 6373POPC   NC319955  43.917   9.746   9.453
 6373POPC   PO419956  43.914   9.730   9.153
 6373POPC   GL119957  43.906   9.762   8.853
 6373POPC   GL219958  43.754   9.704   8.853
 6373POPC   C1A19959  43.901   9.716   8.553
 6373POPC   D2A19960  43.868   9.734   8.253
 6373POPC   C3A19961  43.873   9.751   7.953
 6373POPC   C4A19962  43.847   9.780   7.653
 6373POPC   C1B19963  43.611   9.693   8.553
 6373POPC   C2B19964  43.685   9.680   8.253
 6373POPC   C3B19965  43.629   9.597   7.953
 6373POPC   C4B19966  43.701   9.664   7.653
 6374POPC   NC319967  33.015  15.930   9.453
 6374POPC   PO419968  33.007  15.947   9.153
 6374POPC   GL119969  32.980  15.953   8.853
 6374POPC   GL219970  33.160  15.888   8.853
 6374POPC   C1A19971  33.033  15.992   8.553
 6374POPC   D2A19972  33.019  15.921   8.253
 6374POPC   C3A19973  33.071  15.986   7.953
 6374POPC   C4A19974  33.050  15.938   7.653
 6374POPC   C1B19975  33.250  15.875   8.553
 6374POPC   C2B19976  33.262  15.863   8.253
 6374POPC   C3B19977  33.226  15.873   7.953
 6374POPC   C4B19978  33.275  15.819   7.653
 6375POPC   NC319979  41.560  21.396   9.453
 6375POPC   PO419980  41.567  21.407   9.153
 6375POPC   GL119981  41.560  21.420   8.853
 6375POPC   GL219982  41.545  21.282   8.853
 6375POPC   C1A19983  41.599  21.362   8.553
 6375POPC   D2A19984  41.594  21.369   8.253
 6375POPC   C3A19985  41.564  21.369   7.953
 6375POPC   C4A19986  41.562  21.348   7.653
 6375POPC   C1B19987  41.456  21.178   8.553
 6375POPC   C2B19988  41.412  21.166   8.253
 6375POPC   C3B19989  41.476  21.152   7.953
 6375POPC   C4B19990  41.434  21.186   7.653
 6376POPC   NC319991   8.170  29.141   9.453
 6376POPC   PO419992   8.215  29.100   9.153
 6376POPC   GL119993   8.169  29.194   8.853
 6376POPC   GL219994   8.275  29.084   8.853
 6376POPC   C1A19995   8.221  29.131   8.553
 6376POPC   D2A19996   8.187  29.118   8.253
 6376POPC   C3A19997   8.207  29.148   7.953
 6376POPC   C4A19998   8.180  29.154   7.653
 6376POPC   C1B19999   8.423  29.104   8.553
 6376POPC   C2B20000   8.391  29.087   8.253
 6376POPC   C3B20001   8.432  29.089   7.953
 6376POPC   C4B20002   8.424  29.034   7.653
 6377POPC   NC320003  19.049  33.056   9.453
 6377POPC   PO420004  19.090  33.026   9.153
 6377POPC   GL120005  19.039  33.006   8.853
 6377POPC   GL220006  19.149  33.070   8.853
 6377POPC   C1A20007  19.039  33.027   8.553
 6377POPC   D2A20008  19.094  33.012   8.253
 6377POPC   C3A20009  19.038  32.974   7.953
 6377POPC   C4A20010  19.077  33.063   7.653
 6377POPC   C1B20011  19.227  33.172   8.553
 6377POPC   C2B20012  19.305  33.154   8.253
 6377POPC   C3B20013  19.273  33.122   7.953
 6377POPC   C4B20014  19.219  33.125   7.653
 6378POPC   NC320015  26.808  27.614   9.453
 6378POPC   PO420016  26.812  27.611   9.153
 6378POPC   GL120017  26.819  27.593   8.853
 6378POPC   GL220018  26.763  27.450   8.853
 6378POPC   C1A20019  26.823  27.570   8.553
 6378POPC   D2A20020  26.848  27.573   8.253
 6378POPC   C3A20021  26.780  27.630   7.953
 6378POPC   C4A20022  26.822  27.629   7.653
 6378POPC   C1B20023  26.730  27.399   8.553
 6378POPC   C2B20024  26.655  27.414   8.253
 6378POPC   C3B20025  26.650  27.340   7.953
 6378POPC   C4B20026  26.725  27.428   7.653
 6379POPC   NC320027  37.634   4.321   9.453
 6379POPC   PO420028  37.653   4.364   9.153
 6379POPC   GL120029  37.642   4.267   8.853
 6379POPC   GL220030  37.541   4.278   8.853
 6379POPC   C1A20031  37.706   4.276   8.553
 6379POPC   D2A20032  37.647   4.352   8.253
 6379POPC   C3A20033  37.687   4.339   7.953
 6379POPC   C4A20034  37.671   4.359   7.653
 6379POPC   C1B20035  37.405   4.297   8.553
 6379POPC   C2B20036  37.453   4.235   8.253
 6379POPC   C3B20037  37.448   4.219   7.953
 6379POPC   C4B20038  37.420   4.302   7.653
 6380POPC   NC320039   8.998  43.849   9.453
 6380POPC   PO420040   9.018  43.838   9.153
 6380POPC   GL120041   8.946  43.922   8.853
 6380POPC   GL220042   9.091  43.887   8.853
 6380POPC   C1A20043   8.996  43.921   8.553
 6380POPC   D2A20044   8.969  43.881   8.253
 6380POPC   C3A20045   8.950  43.923   7.953
 6380POPC   C4A20046   8.984  43.917   7.653
 6380POPC   C1B20047   9.242  43.909   8.553
 6380POPC   C2B20048   9.233  43.965   8.253
 6380POPC   C3B20049   9.171  43.983   7.953
 6380POPC   C4B20050   9.217  43.990   7.653
 6381POPC   NC320051   4.272   8.187   9.453
 6381POPC   PO420052   4.343   8.234   9.153
 6381POPC   GL120053   4.268   8.182   8.853
 6381POPC   GL220054   4.410   8.177   8.853
 6381POPC   C1A20055   4.354   8.176   8.553
 6381POPC   D2A20056   4.287   8.227   8.253
 6381POPC   C3A20057   4.355   8.241   7.953
 6381POPC   C4A20058   4.338   8.198   7.653
 6381POPC   C1B20059   4.538   8.131   8.553
 6381POPC   C2B20060   4.567   8.100   8.253
 6381POPC   C3B20061   4.506   8.154   7.953
 6381POPC   C4B20062   4.557   8.091   7.653
 6382POPC   NC320063  10.561  42.375   9.453
 6382POPC   PO420064  10.481  42.302   9.153
 6382POPC   GL120065  10.516  42.360   8.853
 6382POPC   GL220066  10.496  42.188   8.853
 6382POPC   C1A20067  10.477  42.297   8.553
 6382POPC   D2A20068  10.528  42.295   8.253
 6382POPC   C3A20069  10.504  42.383   7.953
 6382POPC   C4A20070  10.526  42.352   7.653
 6382POPC   C1B20071  10.559  42.125   8.553
 6382POPC   C2B20072  10.540  42.055   8.253
 6382POPC   C3B20073  10.549  42.133   7.953
 6382POPC   C4B20074  10.509  42.126   7.653
 6383POPC   NC320075   0.479  18.324   9.453
 6383POPC   PO420076   0.438  18.266   9.153
 6383POPC   GL120077   0.418  18.290   8.853
 6383POPC   GL220078   0.376  18.354   8.853
 6383POPC   C1A20079   0.433  18.305   8.553
 6383POPC   D2A20080   0.442  18.235   8.253
 6383POPC   C3A20081   0.458  18.241   7.953
 6383POPC   C4A20082   0.475  18.243   7.653
 6383POPC   C1B20083   0.238  18.414   8.553
 6383POPC   C2B20084   0.300  18.424   8.253
 6383POPC   C3B20085   0.265  18.466   7.953
 6383POPC   C4B20086   0.235  18.459   7.653
 6384POPC   NC320087  22.180  12.041   9.453
 6384POPC   PO420088  22.133  12.087   9.153
 6384POPC   GL120089  22.199  12.082   8.853
 6384POPC   GL220090  22.119  11.960   8.853
 6384POPC   C1A20091  22.121  12.092   8.553
 6384POPC   D2A20092  22.142  12.076   8.253
 6384POPC   C3A20093  22.166  12.028   7.953
 6384POPC   C4A20094  22.124  12.087   7.653
 6384POPC   C1B20095  22.051  11.856   8.553
 6384POPC   C2B20096  22.017  11.830   8.253
 6384POPC   C3B20097  22.036  11.818   7.953
 6384POPC   C4B20098  22.034  11.868   7.653
 6385POPC   NC320099  29.165  41.559   9.453
 6385POPC   PO420100  29.178  41.553   9.153
 6385POPC   GL120101  29.175  41.559   8.853
 6385POPC   GL220102  28.979  41.582   8.853
 6385POPC   C1A20103  29.120  41.574   8.553
 6385POPC   D2A20104  29.120  41.520   8.253
 6385POPC   C3A20105  29.181  41.602   7.953
 6385POPC   C4A20106  29.169  41.509   7.653
 6385POPC   C1B20107  28.897  41.609   8.553
 6385POPC   C2B20108  28.858  41.550   8.253
 6385POPC   C3B20109  28.875  41.542   7.953
 6385POPC   C4B20110  28.862  41.546   7.653
 6386POPC   NC320111  41.546  26.054   9.453
 6386POPC   PO420112  41.512  26.083   9.153
 6386POPC   GL120113  41.569  26.051   8.853
 6386POPC   GL220114  41.563  25.923   8.853
 6386POPC   C1A20115  41.535  26.027   8.553
 6386POPC   D2A20116  41.574  26.014   8.253
 6386POPC   C3A20117  41.518  26.085   7.953
 6386POPC   C4A20118  41.604  26.037   7.653
 6386POPC   C1B20119  41.683  25.777   8.553
 6386POPC   C2B20120  41.657  25.842   8.253
 6386POPC   C3B20121  41.624  25.842   7.953
 6386POPC   C4B20122  41.599  25.845   7.653
 6387POPC   NC320123  13.651  22.120   9.453
 6387POPC   PO420124  13.641  22.181   9.153
 6387POPC   GL120125  13.619  22.191   8.853
 6387POPC   GL220126  13.468  22.185   8.853
 6387POPC   C1A20127  13.651  22.185   8.553
 6387POPC   D2A20128  13.597  22.123   8.253
 6387POPC   C3A20129  13.602  22.158   7.953
 6387POPC   C4A20130  13.645  22.141   7.653
 6387POPC   C1B20131  13.413  22.244   8.553
 6387POPC   C2B20132  13.381  22.212   8.253
 6387POPC   C3B20133  13.375  22.234   7.953
 6387POPC   C4B20134  13.420  22.263   7.653
 6388POPC   NC320135  14.449  35.343   9.453
 6388POPC   PO420136  14.400  35.315   9.153
 6388POPC   GL120137  14.364  35.373   8.853
 6388POPC   GL220138  14.400  35.479   8.853
 6388POPC   C1A20139  14.436  35.339   8.553
 6388POPC   D2A20140  14.415  35.379   8.253
 6388POPC   C3A20141  14.384  35.314   7.953
 6388POPC   C4A20142  14.378  35.310   7.653
 6388POPC   C1B20143  14.468  35.612   8.553
 6388POPC   C2B20144  14.423  35.618   8.253
 6388POPC   C3B20145  14.444  35.588   7.953
 6388POPC   C4B20146  14.439  35.578   7.653
 6389POPC   NC320147  27.574  29.188   9.453
 6389POPC   PO420148  27.568  29.163   9.153
 6389POPC   GL120149  27.570  29.142   8.853
 6389POPC   GL220150  27.711  29.088   8.853
 6389POPC   C1A20151  27.610  29.154   8.553
 6389POPC   D2A20152  27.558  29.099   8.253
 6389POPC   C3A20153  27.631  29.161   7.953
 6389POPC   C4A20154  27.578  29.175   7.653
 6389POPC   C1B20155  27.830  28.990   8.553
 6389POPC   C2B20156  27.805  28.958   8.253
 6389POPC   C3B20157  27.799  28.986   7.953
 6389POPC   C4B20158  27.797  28.946   7.653
 6390POPC   NC320159   6.607  22.193   9.453
 6390POPC   PO420160   6.670  22.151   9.153
 6390POPC   GL120161   6.619  22.185   8.853
 6390POPC   GL220162   6.492  22.091   8.853
 6390POPC   C1A20163   6.641  22.138   8.553
 6390POPC   D2A20164   6.691  22.150   8.253
 6390POPC   C3A20165   6.680  22.164   7.953
 6390POPC   C4A20166   6.680  22.125   7.653
 6390POPC   C1B20167   6.373  22.008   8.553
 6390POPC   C2B20168   6.396  22.103   8.253
 6390POPC   C3B20169   6.397  22.044   7.953
 6390POPC   C4B20170   6.435  22.034   7.653
 6391POPC   NC320171  38.464  25.315   9.453
 6391POPC   PO420172  38.429  25.230   9.153
 6391POPC   GL120173  38.476  25.247   8.853
 6391POPC   GL220174  38.526  25.354   8.853
 6391POPC   C1A20175  38.423  25.262   8.553
 6391POPC   D2A20176  38.482  25.285   8.253
 6391POPC   C3A20177  38.481  25.244   7.953
 6391POPC   C4A20178  38.428  25.286   7.653
 6391POPC   C1B20179  38.688  25.357   8.553
 6391POPC   C2B20180  38.696  25.399   8.253
 6391POPC   C3B20181  38.712  25.344   7.953
 6391POPC   C4B20182  38.671  25.381   7.653
 6392POPC   NC320183  35.344  19.870   9.453
 6392POPC   PO420184  35.347  19.849   9.153
 6392POPC   GL120185  35.391  19.816   8.853
 6392POPC   GL220186  35.243  19.890   8.853
 6392POPC   C1A20187  35.310  19.785   8.553
 6392POPC   D2A20188  35.349  19.821   8.253
 6392POPC   C3A20189  35.385  19.870   7.953
 6392POPC   C4A20190  35.395  19.823   7.653
 6392POPC   C1B20191  35.139  19.992   8.553
 6392POPC   C2B20192  35.135  19.988   8.253
 6392POPC   C3B20193  35.119  19.933   7.953
 6392POPC   C4B20194  35.184  19.992   7.653
 6393POPC   NC320195  28.342  44.682   9.453
 6393POPC   PO420196  28.362  44.711   9.153
 6393POPC   GL120197  28.370  44.618   8.853
 6393POPC   GL220198  28.248  44.675   8.853
 6393POPC   C1A20199  28.380  44.620   8.553
 6393POPC   D2A20200  28.357  44.662   8.253
 6393POPC   C3A20201  28.378  44.627   7.953
 6393POPC   C4A20202  28.322  44.703   7.653
 6393POPC   C1B20203  28.133  44.783   8.553
 6393POPC   C2B20204  28.129  44.720   8.253
 6393POPC   C3B20205  28.150  44.752   7.953
 6393POPC   C4B20206  28.185  44.714   7.653
 6394POPC   NC320207   3.558   8.945   9.453
 6394POPC   PO420208   3.513   8.969   9.153
 6394POPC   GL120209   3.557   8.933   8.853
 6394POPC   GL220210   3.681   8.898   8.853
 6394POPC   C1A20211   3.523   8.975   8.553
 6394POPC   D2A20212   3.586   9.019   8.253
 6394POPC   C3A20213   3.562   9.009   7.953
 6394POPC   C4A20214   3.552   8.928   7.653
 6394POPC   C1B20215   3.720   8.770   8.553
 6394POPC   C2B20216   3.702   8.817   8.253
 6394POPC   C3B20217   3.773   8.775   7.953
 6394POPC   C4B20218   3.692   8.787   7.653
 6395POPC   NC320219  19.856   0.417   9.453
 6395POPC   PO420220  19.875   0.466   9.153
 6395POPC   GL120221  19.843   0.408   8.853
 6395POPC   GL220222  19.735   0.570   8.853
 6395POPC   C1A20223  19.803   0.446   8.553
 6395POPC   D2A20224  19.809   0.430   8.253
 6395POPC   C3A20225  19.815   0.396   7.953
 6395POPC   C4A20226  19.791   0.451   7.653
 6395POPC   C1B20227  19.720   0.598   8.553
 6395POPC   C2B20228  19.717   0.609   8.253
 6395POPC   C3B20229  19.661   0.617   7.953
 6395POPC   C4B20230  19.664   0.645   7.653
 6396POPC   NC320231  19.818  26.846   9.453
 6396POPC   PO420232  19.802  26.818   9.153
 6396POPC   GL120233  19.813  26.850   8.853
 6396POPC   GL220234  19.960  26.841   8.853
 6396POPC   C1A20235  19.841  26.810   8.553
 6396POPC   D2A20236  19.804  26.792   8.253
 6396POPC   C3A20237  19.851  26.790   7.953
 6396POPC   C4A20238  19.840  26.818   7.653
 6396POPC   C1B20239  20.125  26.797   8.553
 6396POPC   C2B20240  20.071  26.767   8.253
 6396POPC   C3B20241  20.066  26.794   7.953
 6396POPC   C4B20242  20.089  26.790   7.653
 6397POPC   NC320243  12.111   7.416   9.453
 6397POPC   PO420244  12.102   7.438   9.153
 6397POPC   GL120245  12.032   7.460   8.853
 6397POPC   GL220246  11.955   7.376   8.853
 6397POPC   C1A20247  12.062   7.462   8.553
 6397POPC   D2A20248  12.066   7.445   8.253
 6397POPC   C3A20249  12.098   7.407   7.953
 6397POPC   C4A20250  12.056   7.388   7.653
 6397POPC   C1B20251  11.864   7.287   8.553
 6397POPC   C2B20252  11.891   7.255   8.253
 6397POPC   C3B20253  11.885   7.311   7.953
 6397POPC   C4B20254  11.835   7.307   7.653
 6398POPC   NC320255  41.538  42.357   9.453
 6398POPC   PO420256  41.573  42.351   9.153
 6398POPC   GL120257  41.559  42.320   8.853
 6398POPC   GL220258  41.615  42.414   8.853
 6398POPC   C1A20259  41.525  42.307   8.553
 6398POPC   D2A20260  41.541  42.307   8.253
 6398POPC   C3A20261  41.536  42.308   7.953
 6398POPC   C4A20262  41.530  42.328   7.653
 6398POPC   C1B20263  41.797  42.538   8.553
 6398POPC   C2B20264  41.799  42.513   8.253
 6398POPC   C3B20265  41.727  42.528   7.953
 6398POPC   C4B20266  41.772  42.452   7.653
 6399POPC   NC320267   8.168  11.315   9.453
 6399POPC   PO420268   8.227  11.326   9.153
 6399POPC   GL120269   8.244  11.337   8.853
 6399POPC   GL220270   8.288  11.226   8.853
 6399POPC   C1A20271   8.161  11.349   8.553
 6399POPC   D2A20272   8.155  11.262   8.253
 6399POPC   C3A20273   8.171  11.274   7.953
 6399POPC   C4A20274   8.196  11.319   7.653
 6399POPC   C1B20275   8.401  11.253   8.553
 6399POPC   C2B20276   8.440  11.215   8.253
 6399POPC   C3B20277   8.468  11.203   7.953
 6399POPC   C4B20278   8.407  11.260   7.653
 6400POPC   NC320279  26.045  37.672   9.453
 6400POPC   PO420280  26.041  37.714   9.153
 6400POPC   GL120281  25.992  37.658   8.853
 6400POPC   GL220282  26.054  37.815   8.853
 6400POPC   C1A20283  25.998  37.642   8.553
 6400POPC   D2A20284  26.047  37.692   8.253
 6400POPC   C3A20285  26.047  37.647   7.953
 6400POPC   C4A20286  26.019  37.693   7.653
 6400POPC   C1B20287  26.135  37.930   8.553
 6400POPC   C2B20288  26.191  37.947   8.253
 6400POPC   C3B20289  26.146  37.904   7.953
 6400POPC   C4B20290  26.115  37.913   7.653
 6401POPC   NC320291  32.268  19.846   9.453
 6401POPC   PO420292  32.222  19.874   9.153
 6401POPC   GL120293  32.266  19.843   8.853
 6401POPC   GL220294  32.307  19.754   8.853
 6401POPC   C1A20295  32.229  19.846   8.553
 6401POPC   D2A20296  32.285  19.798   8.253
 6401POPC   C3A20297  32.278  19.808   7.953
 6401POPC   C4A20298  32.283  19.787   7.653
 6401POPC   C1B20299  32.459  19.706   8.553
 6401POPC   C2B20300  32.494  19.670   8.253
 6401POPC   C3B20301  32.417  19.695   7.953
 6401POPC   C4B20302  32.458  19.669   7.653
 6402POPC   NC320303  20.656  17.498   9.453
 6402POPC   PO420304  20.617  17.486   9.153
 6402POPC   GL120305  20.592  17.476   8.853
 6402POPC   GL220306  20.686  17.649   8.853
 6402POPC   C1A20307  20.602  17.542   8.553
 6402POPC   D2A20308  20.618  17.489   8.253
 6402POPC   C3A20309  20.644  17.507   7.953
 6402POPC   C4A20310  20.579  17.472   7.653
 6402POPC   C1B20311  20.692  17.751   8.553
 6402POPC   C2B20312  20.662  17.779   8.253
 6402POPC   C3B20313  20.741  17.715   7.953
 6402POPC   C4B20314  20.688  17.776   7.653
 6403POPC   NC320315  25.236  43.109   9.453
 6403POPC   PO420316  25.269  43.154   9.153
 6403POPC   GL120317  25.242  43.103   8.853
 6403POPC   GL220318  25.212  42.978   8.853
 6403POPC   C1A20319  25.248  43.139   8.553
 6403POPC   D2A20320  25.308  43.128   8.253
 6403POPC   C3A20321  25.296  43.129   7.953
 6403POPC   C4A20322  25.315  43.120   7.653
 6403POPC   C1B20323  25.124  42.943   8.553
 6403POPC   C2B20324  25.115  42.904   8.253
 6403POPC   C3B20325  25.115  42.868   7.953
 6403POPC   C4B20326  25.109  42.940   7.653
 6404POPC   NC320327   1.991  19.842   9.453
 6404POPC   PO420328   1.941  19.859   9.153
 6404POPC   GL120329   1.997  19.846   8.853
 6404POPC   GL220330   2.021  19.695   8.853
 6404POPC   C1A20331   1.982  19.819   8.553
 6404POPC   D2A20332   2.037  19.843   8.253
 6404POPC   C3A20333   2.015  19.794   7.953
 6404POPC   C4A20334   1.986  19.856   7.653
 6404POPC   C1B20335   2.096  19.601   8.553
 6404POPC   C2B20336   2.041  19.600   8.253
 6404POPC   C3B20337   2.119  19.576   7.953
 6404POPC   C4B20338   2.104  19.566   7.653
 6405POPC   NC320339   0.425  43.933   9.453
 6405POPC   PO420340   0.399  43.906   9.153
 6405POPC   GL120341   0.442  43.897   8.853
 6405POPC   GL220342   0.298  43.858   8.853
 6405POPC   C1A20343   0.442  43.864   8.553
 6405POPC   D2A20344   0.415  43.861   8.253
 6405POPC   C3A20345   0.462  43.881   7.953
 6405POPC   C4A20346   0.392  43.912   7.653
 6405POPC   C1B20347   0.240  43.782   8.553
 6405POPC   C2B20348   0.239  43.792   8.253
 6405POPC   C3B20349   0.148  43.835   7.953
 6405POPC   C4B20350   0.214  43.804   7.653
 6406POPC   NC320351  14.424   7.419   9.453
 6406POPC   PO420352  14.379   7.380   9.153
 6406POPC   GL120353  14.379   7.372   8.853
 6406POPC   GL220354  14.512   7.491   8.853
 6406POPC   C1A20355  14.424   7.416   8.553
 6406POPC   D2A20356  14.409   7.405   8.253
 6406POPC   C3A20357  14.366   7.450   7.953
 6406POPC   C4A20358  14.421   7.379   7.653
 6406POPC   C1B20359  14.614   7.506   8.553
 6406POPC   C2B20360  14.623   7.576   8.253
 6406POPC   C3B20361  14.591   7.569   7.953
 6406POPC   C4B20362  14.655   7.525   7.653
 6407POPC   NC320363  40.808  22.158   9.453
 6407POPC   PO420364  40.755  22.121   9.153
 6407POPC   GL120365  40.828  22.211   8.853
 6407POPC   GL220366  40.805  22.301   8.853
 6407POPC   C1A20367  40.756  22.174   8.553
 6407POPC   D2A20368  40.817  22.141   8.253
 6407POPC   C3A20369  40.825  22.185   7.953
 6407POPC   C4A20370  40.814  22.208   7.653
 6407POPC   C1B20371  40.848  22.372   8.553
 6407POPC   C2B20372  40.919  22.365   8.253
 6407POPC   C3B20373  40.866  22.397   7.953
 6407POPC   C4B20374  40.872  22.383   7.653
 6408POPC   NC320375  25.275  44.700   9.453
 6408POPC   PO420376  25.238  44.685   9.153
 6408POPC   GL120377  25.308  44.639   8.853
 6408POPC   GL220378  25.144  44.725   8.853
 6408POPC   C1A20379  25.301  44.613   8.553
 6408POPC   D2A20380  25.264  44.706   8.253
 6408POPC   C3A20381  25.250  44.677   7.953
 6408POPC   C4A20382  25.241  44.687   7.653
 6408POPC   C1B20383  25.085  44.866   8.553
 6408POPC   C2B20384  25.099  44.833   8.253
 6408POPC   C3B20385  25.124  44.841   7.953
 6408POPC   C4B20386  25.067  44.815   7.653
 6409POPC   NC320387  22.184  30.703   9.453
 6409POPC   PO420388  22.125  30.687   9.153
 6409POPC   GL120389  22.187  30.722   8.853
 6409POPC   GL220390  22.092  30.688   8.853
 6409POPC   C1A20391  22.153  30.677   8.553
 6409POPC   D2A20392  22.167  30.680   8.253
 6409POPC   C3A20393  22.187  30.692   7.953
 6409POPC   C4A20394  22.118  30.670   7.653
 6409POPC   C1B20395  21.968  30.600   8.553
 6409POPC   C2B20396  21.917  30.659   8.253
 6409POPC   C3B20397  21.939  30.608   7.953
 6409POPC   C4B20398  21.876  30.574   7.653
 6410POPC   NC320399  17.522  22.197   9.453
 6410POPC   PO420400  17.518  22.186   9.153
 6410POPC   GL120401  17.494  22.123   8.853
 6410POPC   GL220402  17.373  22.095   8.853
 6410POPC   C1A20403  17.544  22.127   8.553
 6410POPC   D2A20404  17.479  22.117   8.253
 6410POPC   C3A20405  17.507  22.183   7.953
 6410POPC   C4A20406  17.486  22.168   7.653
 6410POPC   C1B20407  17.278  22.072   8.553
 6410POPC   C2B20408  17.230  22.028   8.253
 6410POPC   C3B20409  17.289  22.065   7.953
 6410POPC   C4B20410  17.234  22.064   7.653
 6411POPC   NC320411  15.946  26.813   9.453
 6411POPC   PO420412  15.960  26.850   9.153
 6411POPC   GL120413  15.964  26.863   8.853
 6411POPC   GL220414  16.073  26.904   8.853
 6411POPC   C1A20415  15.931  26.804   8.553
 6411POPC   D2A20416  15.974  26.845   8.253
 6411POPC   C3A20417  15.977  26.817   7.953
 6411POPC   C4A20418  15.970  26.774   7.653
 6411POPC   C1B20419  16.198  26.944   8.553
 6411POPC   C2B20420  16.132  26.958   8.253
 6411POPC   C3B20421  16.211  26.930   7.953
 6411POPC   C4B20422  16.161  26.975   7.653
 6412POPC   NC320423  35.364  18.330   9.453
 6412POPC   PO420424  35.308  18.311   9.153
 6412POPC   GL120425  35.356  18.254   8.853
 6412POPC   GL220426  35.423  18.324   8.853
 6412POPC   C1A20427  35.342  18.238   8.553
 6412POPC   D2A20428  35.392  18.287   8.253
 6412POPC   C3A20429  35.388  18.313   7.953
 6412POPC   C4A20430  35.377  18.299   7.653
 6412POPC   C1B20431  35.552  18.402   8.553
 6412POPC   C2B20432  35.556  18.485   8.253
 6412POPC   C3B20433  35.530  18.465   7.953
 6412POPC   C4B20434  35.521  18.453   7.653
 6413POPC   NC320435  13.634   6.676   9.453
 6413POPC   PO420436  13.653   6.636   9.153
 6413POPC   GL120437  13.642   6.677   8.853
 6413POPC   GL220438  13.690   6.498   8.853
 6413POPC   C1A20439  13.594   6.682   8.553
 6413POPC   D2A20440  13.591   6.665   8.253
 6413POPC   C3A20441  13.595   6.671   7.953
 6413POPC   C4A20442  13.627   6.665   7.653
 6413POPC   C1B20443  13.808   6.395   8.553
 6413POPC   C2B20444  13.749   6.410   8.253
 6413POPC   C3B20445  13.804   6.419   7.953
 6413POPC   C4B20446  13.816   6.472   7.653
 6414POPC   NC320447  43.928  12.096   9.453
 6414POPC   PO420448  43.879  12.122   9.153
 6414POPC   GL120449  43.893  12.103   8.853
 6414POPC   GL220450  44.044  12.086   8.853
 6414POPC   C1A20451  43.840  12.088   8.553
 6414POPC   D2A20452  43.916  12.102   8.253
 6414POPC   C3A20453  43.850  12.116   7.953
 6414POPC   C4A20454  43.839  12.086   7.653
 6414POPC   C1B20455  44.150  12.069   8.553
 6414POPC   C2B20456  44.113  12.047   8.253
 6414POPC   C3B20457  44.106  12.062   7.953
 6414POPC   C4B20458  44.098  12.076   7.653
 6415POPC   NC320459  39.207  27.641   9.453
 6415POPC   PO420460  39.275  27.558   9.153
 6415POPC   GL120461  39.193  27.638   8.853
 6415POPC   GL220462  39.198  27.432   8.853
 6415POPC   C1A20463  39.197  27.614   8.553
 6415POPC   D2A20464  39.199  27.553   8.253
 6415POPC   C3A20465  39.238  27.612   7.953
 6415POPC   C4A20466  39.209  27.572   7.653
 6415POPC   C1B20467  39.227  27.311   8.553
 6415POPC   C2B20468  39.259  27.308   8.253
 6415POPC   C3B20469  39.235  27.308   7.953
 6415POPC   C4B20470  39.228  27.330   7.653
 6416POPC   NC320471  26.778  21.430   9.453
 6416POPC   PO420472  26.792  21.365   9.153
 6416POPC   GL120473  26.807  21.397   8.853
 6416POPC   GL220474  26.699  21.452   8.853
 6416POPC   C1A20475  26.794  21.369   8.553
 6416POPC   D2A20476  26.829  21.376   8.253
 6416POPC   C3A20477  26.843  21.339   7.953
 6416POPC   C4A20478  26.837  21.407   7.653
 6416POPC   C1B20479  26.681  21.603   8.553
 6416POPC   C2B20480  26.697  21.549   8.253
 6416POPC   C3B20481  26.633  21.614   7.953
 6416POPC   C4B20482  26.681  21.531   7.653
 6417POPC   NC320483  26.009  12.853   9.453
 6417POPC   PO420484  26.002  12.874   9.153
 6417POPC   GL120485  26.058  12.827   8.853
 6417POPC   GL220486  26.124  12.921   8.853
 6417POPC   C1A20487  26.025  12.856   8.553
 6417POPC   D2A20488  26.086  12.856   8.253
 6417POPC   C3A20489  25.995  12.850   7.953
 6417POPC   C4A20490  26.022  12.873   7.653
 6417POPC   C1B20491  26.262  12.929   8.553
 6417POPC   C2B20492  26.328  12.905   8.253
 6417POPC   C3B20493  26.330  12.924   7.953
 6417POPC   C4B20494  26.244  12.918   7.653
 6418POPC   NC320495   5.904   6.611   9.453
 6418POPC   PO420496   5.833   6.627   9.153
 6418POPC   GL120497   5.849   6.691   8.853
 6418POPC   GL220498   5.970   6.546   8.853
 6418POPC   C1A20499   5.867   6.694   8.553
 6418POPC   D2A20500   5.872   6.642   8.253
 6418POPC   C3A20501   5.826   6.645   7.953
 6418POPC   C4A20502   5.888   6.681   7.653
 6418POPC   C1B20503   6.060   6.456   8.553
 6418POPC   C2B20504   6.072   6.471   8.253
 6418POPC   C3B20505   6.051   6.493   7.953
 6418POPC   C4B20506   6.094   6.472   7.653
 6419POPC   NC320507  16.723   4.350   9.453
 6419POPC   PO420508  16.726   4.315   9.153
 6419POPC   GL120509  16.690   4.304   8.853
 6419POPC   GL220510  16.666   4.246   8.853
 6419POPC   C1A20511  16.709   4.327   8.553
 6419POPC   D2A20512  16.767   4.338   8.253
 6419POPC   C3A20513  16.758   4.309   7.953
 6419POPC   C4A20514  16.736   4.365   7.653
 6419POPC   C1B20515  16.540   4.225   8.553
 6419POPC   C2B20516  16.517   4.202   8.253
 6419POPC   C3B20517  16.529   4.135   7.953
 6419POPC   C4B20518  16.489   4.179   7.653
 6420POPC   NC320519  43.104  42.289   9.453
 6420POPC   PO420520  43.124  42.368   9.153
 6420POPC   GL120521  43.132  42.356   8.853
 6420POPC   GL220522  43.237  42.353   8.853
 6420POPC   C1A20523  43.133  42.291   8.553
 6420POPC   D2A20524  43.107  42.344   8.253
 6420POPC   C3A20525  43.122  42.321   7.953
 6420POPC   C4A20526  43.148  42.348   7.653
 6420POPC   C1B20527  43.317  42.415   8.553
 6420POPC   C2B20528  43.386  42.390   8.253
 6420POPC   C3B20529  43.317  42.383   7.953
 6420POPC   C4B20530  43.339  42.448   7.653
 6421POPC   NC320531  32.997  40.003   9.453
 6421POPC   PO420532  33.034  39.973   9.153
 6421POPC   GL120533  33.025  40.022   8.853
 6421POPC   GL220534  33.182  40.044   8.853
 6421POPC   C1A20535  32.991  39.989   8.553
 6421POPC   D2A20536  33.025  39.985   8.253
 6421POPC   C3A20537  33.071  39.985   7.953
 6421POPC   C4A20538  33.042  39.994   7.653
 6421POPC   C1B20539  33.275  40.152   8.553
 6421POPC   C2B20540  33.252  40.164   8.253
 6421POPC   C3B20541  33.195  40.125   7.953
 6421POPC   C4B20542  33.244  40.164   7.653
 6422POPC   NC320543  13.626  25.992   9.453
 6422POPC   PO420544  13.662  26.048   9.153
 6422POPC   GL120545  13.595  26.078   8.853
 6422POPC   GL220546  13.766  26.165   8.853
 6422POPC   C1A20547  13.610  26.066   8.553
 6422POPC   D2A20548  13.633  26.082   8.253
 6422POPC   C3A20549  13.635  26.047   7.953
 6422POPC   C4A20550  13.631  26.074   7.653
 6422POPC   C1B20551  13.777  26.195   8.553
 6422POPC   C2B20552  13.871  26.233   8.253
 6422POPC   C3B20553  13.808  26.220   7.953
 6422POPC   C4B20554  13.842  26.152   7.653
 6423POPC   NC320555  18.236  19.084   9.453
 6423POPC   PO420556  18.291  19.057   9.153
 6423POPC   GL120557  18.304  19.029   8.853
 6423POPC   GL220558  18.334  18.980   8.853
 6423POPC   C1A20559  18.280  19.015   8.553
 6423POPC   D2A20560  18.287  19.063   8.253
 6423POPC   C3A20561  18.279  19.010   7.953
 6423POPC   C4A20562  18.297  19.036   7.653
 6423POPC   C1B20563  18.395  18.885   8.553
 6423POPC   C2B20564  18.387  18.882   8.253
 6423POPC   C3B20565  18.429  18.879   7.953
 6423POPC   C4B20566  18.395  18.861   7.653
 6424POPC   NC320567  26.064  40.775   9.453
 6424POPC   PO420568  26.033  40.809   9.153
 6424POPC   GL120569  26.006  40.737   8.853
 6424POPC   GL220570  26.094  40.632   8.853
 6424POPC   C1A20571  26.021  40.769   8.553
 6424POPC   D2A20572  26.020  40.737   8.253
 6424POPC   C3A20573  26.002  40.792   7.953
 6424POPC   C4A20574  26.050  40.823   7.653
 6424POPC   C1B20575  26.130  40.537   8.553
 6424POPC   C2B20576  26.127  40.576   8.253
 6424POPC   C3B20577  26.114  40.554   7.953
 6424POPC   C4B20578  26.126  40.559   7.653
 6425POPC   NC320579  40.045  22.167   9.453
 6425POPC   PO420580  40.001  22.118   9.153
 6425POPC   GL120581  39.988  22.190   8.853
 6425POPC   GL220582  39.977  22.254   8.853
 6425POPC   C1A20583  39.968  22.182   8.553
 6425POPC   D2A20584  40.055  22.126   8.253
 6425POPC   C3A20585  40.029  22.180   7.953
 6425POPC   C4A20586  39.997  22.146   7.653
 6425POPC   C1B20587  40.005  22.369   8.553
 6425POPC   C2B20588  40.018  22.423   8.253
 6425POPC   C3B20589  39.939  22.381   7.953
 6425POPC   C4B20590  39.992  22.372   7.653
 6426POPC   NC320591  12.082  36.941   9.453
 6426POPC   PO420592  12.074  36.885   9.153
 6426POPC   GL120593  12.092  36.934   8.853
 6426POPC   GL220594  11.993  36.881   8.853
 6426POPC   C1A20595  12.046  36.885   8.553
 6426POPC   D2A20596  12.064  36.909   8.253
 6426POPC   C3A20597  12.079  36.938   7.953
 6426POPC   C4A20598  12.108  36.903   7.653
 6426POPC   C1B20599  11.844  36.945   8.553
 6426POPC   C2B20600  11.846  36.952   8.253
 6426POPC   C3B20601  11.831  36.907   7.953
 6426POPC   C4B20602  11.856  36.951   7.653
 6427POPC   NC320603  25.998  35.336   9.453
 6427POPC   PO420604  26.039  35.316   9.153
 6427POPC   GL120605  26.029  35.321   8.853
 6427POPC   GL220606  26.147  35.301   8.853
 6427POPC   C1A20607  26.087  35.322   8.553
 6427POPC   D2A20608  26.030  35.396   8.253
 6427POPC   C3A20609  26.084  35.358   7.953
 6427POPC   C4A20610  26.077  35.345   7.653
 6427POPC   C1B20611  26.289  35.233   8.553
 6427POPC   C2B20612  26.237  35.285   8.253
 6427POPC   C3B20613  26.287  35.231   7.953
 6427POPC   C4B20614  26.287  35.251   7.653
 6428POPC   NC320615  40.012  28.357   9.453
 6428POPC   PO420616  40.048  28.406   9.153
 6428POPC   GL120617  40.045  28.408   8.853
 6428POPC   GL220618  40.106  28.349   8.853
 6428POPC   C1A20619  40.040  28.340   8.553
 6428POPC   D2A20620  40.042  28.364   8.253
 6428POPC   C3A20621  39.995  28.322   7.953
 6428POPC   C4A20622  40.057  28.323   7.653
 6428POPC   C1B20623  40.285  28.328   8.553
 6428POPC   C2B20624  40.294  28.393   8.253
 6428POPC   C3B20625  40.296  28.324   7.953
 6428POPC   C4B20626  40.287  28.298   7.653
 6429POPC   NC320627  12.849  41.576   9.453
 6429POPC   PO420628  12.900  41.536   9.153
 6429POPC   GL120629  12.879  41.517   8.853
 6429POPC   GL220630  12.705  41.493   8.853
 6429POPC   C1A20631  12.872  41.516   8.553
 6429POPC   D2A20632  12.892  41.559   8.253
 6429POPC   C3A20633  12.871  41.596   7.953
 6429POPC   C4A20634  12.878  41.570   7.653
 6429POPC   C1B20635  12.581  41.403   8.553
 6429POPC   C2B20636  12.607  41.483   8.253
 6429POPC   C3B20637  12.625  41.470   7.953
 6429POPC   C4B20638  12.594  41.493   7.653
 6430POPC   NC320639  28.375  16.709   9.453
 6430POPC   PO420640  28.375  16.776   9.153
 6430POPC   GL120641  28.400  16.770   8.853
 6430POPC   GL220642  28.505  16.846   8.853
 6430POPC   C1A20643  28.359  16.754   8.553
 6430POPC   D2A20644  28.373  16.755   8.253
 6430POPC   C3A20645  28.411  16.694   7.953
 6430POPC   C4A20646  28.418  16.737   7.653
 6430POPC   C1B20647  28.569  16.920   8.553
 6430POPC   C2B20648  28.549  16.921   8.253
 6430POPC   C3B20649  28.592  16.857   7.953
 6430POPC   C4B20650  28.523  16.895   7.653
 6431POPC   NC320651   7.418   2.777   9.453
 6431POPC   PO420652   7.439   2.749   9.153
 6431POPC   GL120653   7.374   2.719   8.853
 6431POPC   GL220654   7.523   2.680   8.853
 6431POPC   C1A20655   7.463   2.749   8.553
 6431POPC   D2A20656   7.428   2.815   8.253
 6431POPC   C3A20657   7.441   2.806   7.953
 6431POPC   C4A20658   7.386   2.793   7.653
 6431POPC   C1B20659   7.676   2.595   8.553
 6431POPC   C2B20660   7.641   2.611   8.253
 6431POPC   C3B20661   7.610   2.667   7.953
 6431POPC   C4B20662   7.617   2.610   7.653
 6432POPC   NC320663  26.821  25.311   9.453
 6432POPC   PO420664  26.790  25.281   9.153
 6432POPC   GL120665  26.825  25.312   8.853
 6432POPC   GL220666  26.817  25.127   8.853
 6432POPC   C1A20667  26.831  25.303   8.553
 6432POPC   D2A20668  26.796  25.280   8.253
 6432POPC   C3A20669  26.781  25.229   7.953
 6432POPC   C4A20670  26.768  25.301   7.653
 6432POPC   C1B20671  26.820  25.036   8.553
 6432POPC   C2B20672  26.814  25.060   8.253
 6432POPC   C3B20673  26.819  25.033   7.953
 6432POPC   C4B20674  26.842  25.018   7.653
 6433POPC   NC320675  15.923  27.598   9.453
 6433POPC   PO420676  15.909  27.607   9.153
 6433POPC   GL120677  15.956  27.630   8.853
 6433POPC   GL220678  15.914  27.538   8.853
 6433POPC   C1A20679  15.906  27.555   8.553
 6433POPC   D2A20680  15.944  27.556   8.253
 6433POPC   C3A20681  15.937  27.622   7.953
 6433POPC   C4A20682  15.920  27.550   7.653
 6433POPC   C1B20683  15.807  27.356   8.553
 6433POPC   C2B20684  15.800  27.377   8.253
 6433POPC   C3B20685  15.793  27.357   7.953
 6433POPC   C4B20686  15.807  27.394   7.653
 6434POPC   NC320687  13.594  10.567   9.453
 6434POPC   PO420688  13.641  10.519   9.153
 6434POPC   GL120689  13.589  10.509   8.853
 6434POPC   GL220690  13.549  10.417   8.853
 6434POPC   C1A20691  13.619  10.525   8.553
 6434POPC   D2A20692  13.614  10.492   8.253
 6434POPC   C3A20693  13.629  10.498   7.953
 6434POPC   C4A20694  13.670  10.508   7.653
 6434POPC   C1B20695  13.461  10.398   8.553
 6434POPC   C2B20696  13.377  10.360   8.253
 6434POPC   C3B20697  13.467  10.360   7.953
 6434POPC   C4B20698  13.439  10.370   7.653
 6435POPC   NC320699  18.286  26.851   9.453
 6435POPC   PO420700  18.318  26.795   9.153
 6435POPC   GL120701  18.250  26.781   8.853
 6435POPC   GL220702  18.164  26.785   8.853
 6435POPC   C1A20703  18.236  26.865   8.553
 6435POPC   D2A20704  18.244  26.792   8.253
 6435POPC   C3A20705  18.309  26.808   7.953
 6435POPC   C4A20706  18.311  26.841   7.653
 6435POPC   C1B20707  18.045  26.746   8.553
 6435POPC   C2B20708  18.046  26.761   8.253
 6435POPC   C3B20709  18.004  26.714   7.953
 6435POPC   C4B20710  18.066  26.756   7.653
 6436POPC   NC320711  26.033   2.768   9.453
 6436POPC   PO420712  26.080   2.800   9.153
 6436POPC   GL120713  26.076   2.781   8.853
 6436POPC   GL220714  26.180   2.666   8.853
 6436POPC   C1A20715  26.012   2.759   8.553
 6436POPC   D2A20716  26.088   2.734   8.253
 6436POPC   C3A20717  26.044   2.785   7.953
 6436POPC   C4A20718  26.040   2.806   7.653
 6436POPC   C1B20719  26.288   2.632   8.553
 6436POPC   C2B20720  26.274   2.634   8.253
 6436POPC   C3B20721  26.255   2.656   7.953
 6436POPC   C4B20722  26.216   2.676   7.653
 6437POPC   NC320723  22.984  11.328   9.453
 6437POPC   PO420724  22.944  11.281   9.153
 6437POPC   GL120725  22.959  11.328   8.853
 6437POPC   GL220726  22.857  11.283   8.853
 6437POPC   C1A20727  22.983  11.318   8.553
 6437POPC   D2A20728  22.940  11.258   8.253
 6437POPC   C3A20729  22.942  11.333   7.953
 6437POPC   C4A20730  22.921  11.329   7.653
 6437POPC   C1B20731  22.725  11.205   8.553
 6437POPC   C2B20732  22.703  11.206   8.253
 6437POPC   C3B20733  22.765  11.191   7.953
 6437POPC   C4B20734  22.694  11.151   7.653
 6438POPC   NC320735  19.835  27.609   9.453
 6438POPC   PO420736  19.869  27.603   9.153
 6438POPC   GL120737  19.869  27.598   8.853
 6438POPC   GL220738  19.719  27.520   8.853
 6438POPC   C1A20739  19.836  27.612   8.553
 6438POPC   D2A20740  19.835  27.580   8.253
 6438POPC   C3A20741  19.794  27.544   7.953
 6438POPC   C4A20742  19.860  27.555   7.653
 6438POPC   C1B20743  19.613  27.458   8.553
 6438POPC   C2B20744  19.611  27.473   8.253
 6438POPC   C3B20745  19.634  27.424   7.953
 6438POPC   C4B20746  19.677  27.389   7.653
 6439POPC   NC320747  26.084  39.240   9.453
 6439POPC   PO420748  26.069  39.215   9.153
 6439POPC   GL120749  26.058  39.198   8.853
 6439POPC   GL220750  26.109  39.142   8.853
 6439POPC   C1A20751  26.064  39.188   8.553
 6439POPC   D2A20752  26.037  39.281   8.253
 6439POPC   C3A20753  26.058  39.259   7.953
 6439POPC   C4A20754  25.996  39.196   7.653
 6439POPC   C1B20755  26.123  39.050   8.553
 6439POPC   C2B20756  26.154  38.968   8.253
 6439POPC   C3B20757  26.150  38.972   7.953
 6439POPC   C4B20758  26.107  38.985   7.653
 6440POPC   NC320759  43.895  14.423   9.453
 6440POPC   PO420760  43.850  14.449   9.153
 6440POPC   GL120761  43.910  14.379   8.853
 6440POPC   GL220762  43.931  14.297   8.853
 6440POPC   C1A20763  43.923  14.445   8.553
 6440POPC   D2A20764  43.915  14.441   8.253
 6440POPC   C3A20765  43.860  14.453   7.953
 6440POPC   C4A20766  43.897  14.355   7.653
 6440POPC   C1B20767  43.923  14.139   8.553
 6440POPC   C2B20768  44.002  14.214   8.253
 6440POPC   C3B20769  43.930  14.143   7.953
 6440POPC   C4B20770  43.921  14.170   7.653
 6441POPC   NC320771   4.340  11.299   9.453
 6441POPC   PO420772   4.272  11.267   9.153
 6441POPC   GL120773   4.336  11.322   8.853
 6441POPC   GL220774   4.421  11.189   8.853
 6441POPC   C1A20775   4.321  11.265   8.553
 6441POPC   D2A20776   4.289  11.276   8.253
 6441POPC   C3A20777   4.351  11.319   7.953
 6441POPC   C4A20778   4.282  11.294   7.653
 6441POPC   C1B20779   4.466  11.094   8.553
 6441POPC   C2B20780   4.420  11.129   8.253
 6441POPC   C3B20781   4.437  11.046   7.953
 6441POPC   C4B20782   4.479  11.071   7.653
 6442POPC   NC320783   7.412  41.582   9.453
 6442POPC   PO420784   7.459  41.545   9.153
 6442POPC   GL120785   7.407  41.536   8.853
 6442POPC   GL220786   7.289  41.524   8.853
 6442POPC   C1A20787   7.425  41.554   8.553
 6442POPC   D2A20788   7.391  41.606   8.253
 6442POPC   C3A20789   7.447  41.519   7.953
 6442POPC   C4A20790   7.400  41.543   7.653
 6442POPC   C1B20791   7.275  41.424   8.553
 6442POPC   C2B20792   7.201  41.349   8.253
 6442POPC   C3B20793   7.272  41.437   7.953
 6442POPC   C4B20794   7.210  41.407   7.653
 6443POPC   NC320795  30.656  30.713   9.453
 6443POPC   PO420796  30.692  30.712   9.153
 6443POPC   GL120797  30.649  30.733   8.853
 6443POPC   GL220798  30.802  30.674   8.853
 6443POPC   C1A20799  30.738  30.707   8.553
 6443POPC   D2A20800  30.710  30.667   8.253
 6443POPC   C3A20801  30.667  30.701   7.953
 6443POPC   C4A20802  30.652  30.723   7.653
 6443POPC   C1B20803  30.978  30.649   8.553
 6443POPC   C2B20804  30.968  30.656   8.253
 6443POPC   C3B20805  30.899  30.564   7.953
 6443POPC   C4B20806  30.948  30.635   7.653
 6444POPC   NC320807  20.613  30.708   9.453
 6444POPC   PO420808  20.588  30.649   9.153
 6444POPC   GL120809  20.643  30.734   8.853
 6444POPC   GL220810  20.541  30.831   8.853
 6444POPC   C1A20811  20.602  30.706   8.553
 6444POPC   D2A20812  20.588  30.738   8.253
 6444POPC   C3A20813  20.618  30.660   7.953
 6444POPC   C4A20814  20.602  30.744   7.653
 6444POPC   C1B20815  20.458  30.937   8.553
 6444POPC   C2B20816  20.515  30.946   8.253
 6444POPC   C3B20817  20.504  30.876   7.953
 6444POPC   C4B20818  20.525  30.959   7.653
 6445POPC   NC320819  40.057  24.444   9.453
 6445POPC   PO420820  39.960  24.522   9.153
 6445POPC   GL120821  40.042  24.532   8.853
 6445POPC   GL220822  39.922  24.603   8.853
 6445POPC   C1A20823  40.020  24.453   8.553
 6445POPC   D2A20824  40.001  24.483   8.253
 6445POPC   C3A20825  40.041  24.451   7.953
 6445POPC   C4A20826  40.021  24.485   7.653
 6445POPC   C1B20827  39.882  24.631   8.553
 6445POPC   C2B20828  39.866  24.708   8.253
 6445POPC   C3B20829  39.859  24.684   7.953
 6445POPC   C4B20830  39.811  24.636   7.653
 6446POPC   NC320831   2.718   6.671   9.453
 6446POPC   PO420832   2.786   6.654   9.153
 6446POPC   GL120833   2.810   6.614   8.853
 6446POPC   GL220834   2.785   6.751   8.853
 6446POPC   C1A20835   2.795   6.595   8.553
 6446POPC   D2A20836   2.747   6.613   8.253
 6446POPC   C3A20837   2.802   6.657   7.953
 6446POPC   C4A20838   2.786   6.655   7.653
 6446POPC   C1B20839   2.904   6.855   8.553
 6446POPC   C2B20840   2.870   6.858   8.253
 6446POPC   C3B20841   2.857   6.855   7.953
 6446POPC   C4B20842   2.884   6.844   7.653
 6447POPC   NC320843   8.984   4.329   9.453
 6447POPC   PO420844   8.925   4.347   9.153
 6447POPC   GL120845   8.947   4.320   8.853
 6447POPC   GL220846   8.906   4.226   8.853
 6447POPC   C1A20847   9.019   4.358   8.553
 6447POPC   D2A20848   8.982   4.322   8.253
 6447POPC   C3A20849   9.007   4.348   7.953
 6447POPC   C4A20850   9.003   4.304   7.653
 6447POPC   C1B20851   8.780   4.181   8.553
 6447POPC   C2B20852   8.762   4.179   8.253
 6447POPC   C3B20853   8.767   4.251   7.953
 6447POPC   C4B20854   8.710   4.225   7.653
 6448POPC   NC320855  29.943  36.174   9.453
 6448POPC   PO420856  29.925  36.169   9.153
 6448POPC   GL120857  29.919  36.130   8.853
 6448POPC   GL220858  29.783  36.124   8.853
 6448POPC   C1A20859  29.941  36.095   8.553
 6448POPC   D2A20860  29.938  36.121   8.253
 6448POPC   C3A20861  29.962  36.094   7.953
 6448POPC   C4A20862  29.874  36.143   7.653
 6448POPC   C1B20863  29.715  36.095   8.553
 6448POPC   C2B20864  29.695  36.007   8.253
 6448POPC   C3B20865  29.706  36.092   7.953
 6448POPC   C4B20866  29.641  36.092   7.653
 6449POPC   NC320867  30.730   0.392   9.453
 6449POPC   PO420868  30.725   0.480   9.153
 6449POPC   GL120869  30.652   0.453   8.853
 6449POPC   GL220870  30.798   0.352   8.853
 6449POPC   C1A20871  30.668   0.482   8.553
 6449POPC   D2A20872  30.739   0.402   8.253
 6449POPC   C3A20873  30.663   0.425   7.953
 6449POPC   C4A20874  30.721   0.401   7.653
 6449POPC   C1B20875  30.848   0.192   8.553
 6449POPC   C2B20876  30.887   0.285   8.253
 6449POPC   C3B20877  30.899   0.218   7.953
 6449POPC   C4B20878  30.858   0.231   7.653
 6450POPC   NC320879  38.462  17.485   9.453
 6450POPC   PO420880  38.458  17.541   9.153
 6450POPC   GL120881  38.454  17.458   8.853
 6450POPC   GL220882  38.520  17.599   8.853
 6450POPC   C1A20883  38.411  17.513   8.553
 6450POPC   D2A20884  38.478  17.536   8.253
 6450POPC   C3A20885  38.445  17.480   7.953
 6450POPC   C4A20886  38.479  17.471   7.653
 6450POPC   C1B20887  38.693  17.607   8.553
 6450POPC   C2B20888  38.660  17.595   8.253
 6450POPC   C3B20889  38.644  17.636   7.953
 6450POPC   C4B20890  38.717  17.631   7.653
 6451POPC   NC320891  31.476  20.612   9.453
 6451POPC   PO420892  31.459  20.629   9.153
 6451POPC   GL120893  31.504  20.633   8.853
 6451POPC   GL220894  31.516  20.483   8.853
 6451POPC   C1A20895  31.490  20.620   8.553
 6451POPC   D2A20896  31.443  20.577   8.253
 6451POPC   C3A20897  31.521  20.569   7.953
 6451POPC   C4A20898  31.453  20.660   7.653
 6451POPC   C1B20899  31.669  20.424   8.553
 6451POPC   C2B20900  31.616  20.461   8.253
 6451POPC   C3B20901  31.685  20.451   7.953
 6451POPC   C4B20902  31.598  20.457   7.653
 6452POPC   NC320903  22.922  44.629   9.453
 6452POPC   PO420904  22.967  44.621   9.153
 6452POPC   GL120905  22.913  44.669   8.853
 6452POPC   GL220906  22.897  44.773   8.853
 6452POPC   C1A20907  22.901  44.679   8.553
 6452POPC   D2A20908  22.936  44.701   8.253
 6452POPC   C3A20909  22.891  44.691   7.953
 6452POPC   C4A20910  22.975  44.623   7.653
 6452POPC   C1B20911  22.782  44.879   8.553
 6452POPC   C2B20912  22.800  44.837   8.253
 6452POPC   C3B20913  22.785  44.878   7.953
 6452POPC   C4B20914  22.843  44.863   7.653
 6453POPC   NC320915  40.743  29.874   9.453
 6453POPC   PO420916  40.815  29.968   9.153
 6453POPC   GL120917  40.810  29.919   8.853
 6453POPC   GL220918  40.909  29.900   8.853
 6453POPC   C1A20919  40.793  29.899   8.553
 6453POPC   D2A20920  40.814  29.964   8.253
 6453POPC   C3A20921  40.791  29.962   7.953
 6453POPC   C4A20922  40.763  29.941   7.653
 6453POPC   C1B20923  41.023  29.960   8.553
 6453POPC   C2B20924  41.037  30.012   8.253
 6453POPC   C3B20925  40.989  29.979   7.953
 6453POPC   C4B20926  41.018  29.937   7.653
 6454POPC   NC320927  19.824   1.167   9.453
 6454POPC   PO420928  19.806   1.190   9.153
 6454POPC   GL120929  19.866   1.252   8.853
 6454POPC   GL220930  19.926   1.315   8.853
 6454POPC   C1A20931  19.840   1.180   8.553
 6454POPC   D2A20932  19.870   1.228   8.253
 6454POPC   C3A20933  19.806   1.203   7.953
 6454POPC   C4A20934  19.787   1.232   7.653
 6454POPC   C1B20935  19.985   1.452   8.553
 6454POPC   C2B20936  19.931   1.390   8.253
 6454POPC   C3B20937  19.946   1.460   7.953
 6454POPC   C4B20938  19.957   1.448   7.653
 6455POPC   NC320939   3.588   6.632   9.453
 6455POPC   PO420940   3.516   6.610   9.153
 6455POPC   GL120941   3.587   6.672   8.853
 6455POPC   GL220942   3.496   6.778   8.853
 6455POPC   C1A20943   3.507   6.630   8.553
 6455POPC   D2A20944   3.500   6.605   8.253
 6455POPC   C3A20945   3.559   6.692   7.953
 6455POPC   C4A20946   3.546   6.658   7.653
 6455POPC   C1B20947   3.519   6.865   8.553
 6455POPC   C2B20948   3.533   6.915   8.253
 6455POPC   C3B20949   3.479   6.928   7.953
 6455POPC   C4B20950   3.535   6.891   7.653
 6456POPC   NC320951  15.987   1.220   9.453
 6456POPC   PO420952  15.918   1.236   9.153
 6456POPC   GL120953  15.960   1.257   8.853
 6456POPC   GL220954  16.024   1.299   8.853
 6456POPC   C1A20955  15.961   1.253   8.553
 6456POPC   D2A20956  15.989   1.215   8.253
 6456POPC   C3A20957  15.956   1.256   7.953
 6456POPC   C4A20958  15.968   1.229   7.653
 6456POPC   C1B20959  16.040   1.390   8.553
 6456POPC   C2B20960  16.049   1.413   8.253
 6456POPC   C3B20961  16.117   1.417   7.953
 6456POPC   C4B20962  16.111   1.399   7.653
 6457POPC   NC320963  31.447  24.532   9.453
 6457POPC   PO420964  31.513  24.518   9.153
 6457POPC   GL120965  31.480  24.458   8.853
 6457POPC   GL220966  31.527  24.384   8.853
 6457POPC   C1A20967  31.461  24.539   8.553
 6457POPC   D2A20968  31.493  24.496   8.253
 6457POPC   C3A20969  31.439  24.514   7.953
 6457POPC   C4A20970  31.461  24.513   7.653
 6457POPC   C1B20971  31.628  24.352   8.553
 6457POPC   C2B20972  31.666  24.305   8.253
 6457POPC   C3B20973  31.640  24.263   7.953
 6457POPC   C4B20974  31.676  24.302   7.653
 6458POPC   NC320975  20.616  22.906   9.453
 6458POPC   PO420976  20.572  22.953   9.153
 6458POPC   GL120977  20.597  22.925   8.853
 6458POPC   GL220978  20.576  23.077   8.853
 6458POPC   C1A20979  20.653  22.892   8.553
 6458POPC   D2A20980  20.655  22.947   8.253
 6458POPC   C3A20981  20.564  22.921   7.953
 6458POPC   C4A20982  20.627  22.951   7.653
 6458POPC   C1B20983  20.551  23.217   8.553
 6458POPC   C2B20984  20.571  23.162   8.253
 6458POPC   C3B20985  20.580  23.167   7.953
 6458POPC   C4B20986  20.528  23.218   7.653
 6459POPC   NC320987  43.889  16.721   9.453
 6459POPC   PO420988  43.887  16.770   9.153
 6459POPC   GL120989  43.929  16.705   8.853
 6459POPC   GL220990  44.036  16.643   8.853
 6459POPC   C1A20991  43.843  16.683   8.553
 6459POPC   D2A20992  43.841  16.728   8.253
 6459POPC   C3A20993  43.912  16.719   7.953
 6459POPC   C4A20994  43.900  16.728   7.653
 6459POPC   C1B20995  44.163  16.607   8.553
 6459POPC   C2B20996  44.141  16.664   8.253
 6459POPC   C3B20997  44.141  16.657   7.953
 6459POPC   C4B20998  44.090  16.614   7.653
 6460POPC   NC320999  19.873  31.508   9.453
 6460POPC   PO421000  19.842  31.454   9.153
 6460POPC   GL121001  19.785  31.449   8.853
 6460POPC   GL221002  19.856  31.344   8.853
 6460POPC   C1A21003  19.830  31.471   8.553
 6460POPC   D2A21004  19.873  31.505   8.253
 6460POPC   C3A21005  19.857  31.441   7.953
 6460POPC   C4A21006  19.854  31.432   7.653
 6460POPC   C1B21007  19.851  31.254   8.553
 6460POPC   C2B21008  19.939  31.210   8.253
 6460POPC   C3B21009  19.853  31.203   7.953
 6460POPC   C4B21010  19.922  31.272   7.653
 6461POPC   NC321011  30.665  20.641   9.453
 6461POPC   PO421012  30.681  20.644   9.153
 6461POPC   GL121013  30.647  20.633   8.853
 6461POPC   GL221014  30.746  20.513   8.853
 6461POPC   C1A21015  30.702  20.633   8.553
 6461POPC   D2A21016  30.711  20.626   8.253
 6461POPC   C3A21017  30.661  20.653   7.953
 6461POPC   C4A21018  30.673  20.635   7.653
 6461POPC   C1B21019  30.676  20.369   8.553
 6461POPC   C2B21020  30.693  20.346   8.253
 6461POPC   C3B21021  30.682  20.353   7.953
 6461POPC   C4B21022  30.706  20.364   7.653
 6462POPC   NC321023  29.193  20.592   9.453
 6462POPC   PO421024  29.172  20.632   9.153
 6462POPC   GL121025  29.128  20.575   8.853
 6462POPC   GL221026  29.103  20.464   8.853
 6462POPC   C1A21027  29.161  20.568   8.553
 6462POPC   D2A21028  29.127  20.589   8.253
 6462POPC   C3A21029  29.146  20.647   7.953
 6462POPC   C4A21030  29.115  20.564   7.653
 6462POPC   C1B21031  29.118  20.408   8.553
 6462POPC   C2B21032  29.137  20.389   8.253
 6462POPC   C3B21033  29.114  20.313   7.953
 6462POPC   C4B21034  29.116  20.317   7.653
 6463POPC   NC321035  29.177  15.960   9.453
 6463POPC   PO421036  29.141  15.919   9.153
 6463POPC   GL121037  29.167  15.998   8.853
 6463POPC   GL221038  29.306  16.011   8.853
 6463POPC   C1A21039  29.181  15.947   8.553
 6463POPC   D2A21040  29.122  15.956   8.253
 6463POPC   C3A21041  29.185  15.974   7.953
 6463POPC   C4A21042  29.153  15.926   7.653
 6463POPC   C1B21043  29.370  15.998   8.553
 6463POPC   C2B21044  29.363  16.075   8.253
 6463POPC   C3B21045  29.406  16.088   7.953
 6463POPC   C4B21046  29.363  16.091   7.653
 6464POPC   NC321047  36.079   9.699   9.453
 6464POPC   PO421048  36.128   9.780   9.153
 6464POPC   GL121049  36.115   9.747   8.853
 6464POPC   GL221050  36.058   9.700   8.853
 6464POPC   C1A21051  36.173   9.765   8.553
 6464POPC   D2A21052  36.172   9.763   8.253
 6464POPC   C3A21053  36.166   9.762   7.953
 6464POPC   C4A21054  36.141   9.769   7.653
 6464POPC   C1B21055  36.004   9.532   8.553
 6464POPC   C2B21056  36.013   9.576   8.253
 6464POPC   C3B21057  35.979   9.542   7.953
 6464POPC   C4B21058  35.935   9.559   7.653
 6465POPC   NC321059  12.050  19.852   9.453
 6465POPC   PO421060  12.040  19.821   9.153
 6465POPC   GL121061  12.104  19.858   8.853
 6465POPC   GL221062  11.980  19.705   8.853
 6465POPC   C1A21063  12.064  19.802   8.553
 6465POPC   D2A21064  12.097  19.851   8.253
 6465POPC   C3A21065  12.113  19.884   7.953
 6465POPC   C4A21066  12.075  19.880   7.653
 6465POPC   C1B21067  11.941  19.632   8.553
 6465POPC   C2B21068  11.899  19.610   8.253
 6465POPC   C3B21069  11.925  19.606   7.953
 6465POPC   C4B21070  11.972  19.659   7.653
 6466POPC   NC321071  14.382  14.354   9.453
 6466POPC   PO421072  14.419  14.375   9.153
 6466POPC   GL121073  14.356  14.422   8.853
 6466POPC   GL221074  14.543  14.456   8.853
 6466POPC   C1A21075  14.437  14.366   8.553
 6466POPC   D2A21076  14.414  14.358   8.253
 6466POPC   C3A21077  14.420  14.401   7.953
 6466POPC   C4A21078  14.398  14.366   7.653
 6466POPC   C1B21079  14.589  14.597   8.553
 6466POPC   C2B21080  14.580  14.562   8.253
 6466POPC   C3B21081  14.546  14.571   7.953
 6466POPC   C4B21082  14.562  14.602   7.653
 6467POPC   NC321083  28.403   3.531   9.453
 6467POPC   PO421084  28.359   3.568   9.153
 6467POPC   GL121085  28.347   3.576   8.853
 6467POPC   GL221086  28.333   3.378   8.853
 6467POPC   C1A21087  28.343   3.492   8.553
 6467POPC   D2A21088  28.386   3.558   8.253
 6467POPC   C3A21089  28.344   3.578   7.953
 6467POPC   C4A21090  28.350   3.515   7.653
 6467POPC   C1B21091  28.284   3.318   8.553
 6467POPC   C2B21092  28.317   3.286   8.253
 6467POPC   C3B21093  28.354   3.343   7.953
 6467POPC   C4B21094  28.343   3.334   7.653
 6468POPC   NC321095  36.139  33.761   9.453
 6468POPC   PO421096  36.177  33.800   9.153
 6468POPC   GL121097  36.161  33.751   8.853
 6468POPC   GL221098  36.125  33.664   8.853
 6468POPC   C1A21099  36.115  33.775   8.553
 6468POPC   D2A21100  36.080  33.797   8.253
 6468POPC   C3A21101  36.120  33.836   7.953
 6468POPC   C4A21102  36.163  33.843   7.653
 6468POPC   C1B21103  36.035  33.590   8.553
 6468POPC   C2B21104  36.034  33.585   8.253
 6468POPC   C3B21105  36.033  33.572   7.953
 6468POPC   C4B21106  36.086  33.586   7.653
 6469POPC   NC321107   5.106  12.045   9.453
 6469POPC   PO421108   5.141  12.073   9.153
 6469POPC   GL121109   5.129  12.060   8.853
 6469POPC   GL221110   5.186  12.150   8.853
 6469POPC   C1A21111   5.083  12.101   8.553
 6469POPC   D2A21112   5.079  12.074   8.253
 6469POPC   C3A21113   5.102  12.065   7.953
 6469POPC   C4A21114   5.048  12.117   7.653
 6469POPC   C1B21115   5.213  12.263   8.553
 6469POPC   C2B21116   5.256  12.298   8.253
 6469POPC   C3B21117   5.256  12.227   7.953
 6469POPC   C4B21118   5.211  12.267   7.653
 6470POPC   NC321119   8.966  19.787   9.453
 6470POPC   PO421120   8.974  19.821   9.153
 6470POPC   GL121121   8.951  19.796   8.853
 6470POPC   GL221122   8.899  19.920   8.853
 6470POPC   C1A21123   9.007  19.809   8.553
 6470POPC   D2A21124   9.011  19.789   8.253
 6470POPC   C3A21125   8.926  19.867   7.953
 6470POPC   C4A21126   8.945  19.810   7.653
 6470POPC   C1B21127   8.839  20.027   8.553
 6470POPC   C2B21128   8.830  20.075   8.253
 6470POPC   C3B21129   8.848  20.038   7.953
 6470POPC   C4B21130   8.860  20.048   7.653
 6471POPC   NC321131  20.561  18.316   9.453
 6471POPC   PO421132  20.594  18.330   9.153
 6471POPC   GL121133  20.579  18.325   8.853
 6471POPC   GL221134  20.498  18.281   8.853
 6471POPC   C1A21135  20.618  18.319   8.553
 6471POPC   D2A21136  20.589  18.276   8.253
 6471POPC   C3A21137  20.628  18.304   7.953
 6471POPC   C4A21138  20.610  18.319   7.653
 6471POPC   C1B21139  20.333  18.177   8.553
 6471POPC   C2B21140  20.337  18.190   8.253
 6471POPC   C3B21141  20.393  18.178   7.953
 6471POPC   C4B21142  20.373  18.193   7.653
 6472POPC   NC321143  21.417  23.701   9.453
 6472POPC   PO421144  21.410  23.748   9.153
 6472POPC   GL121145  21.424  23.719   8.853
 6472POPC   GL221146  21.221  23.689   8.853
 6472POPC   C1A21147  21.386  23.697   8.553
 6472POPC   D2A21148  21.361  23.762   8.253
 6472POPC   C3A21149  21.375  23.727   7.953
 6472POPC   C4A21150  21.395  23.735   7.653
 6472POPC   C1B21151  21.163  23.702   8.553
 6472POPC   C2B21152  21.185  23.698   8.253
 6472POPC   C3B21153  21.118  23.723   7.953
 6472POPC   C4B21154  21.159  23.759   7.653
 6473POPC   NC321155  27.634  22.134   9.453
 6473POPC   PO421156  27.634  22.177   9.153
 6473POPC   GL121157  27.629  22.136   8.853
 6473POPC   GL221158  27.710  22.119   8.853
 6473POPC   C1A21159  27.634  22.144   8.553
 6473POPC   D2A21160  27.625  22.113   8.253
 6473POPC   C3A21161  27.590  22.177   7.953
 6473POPC   C4A21162  27.634  22.124   7.653
 6473POPC   C1B21163  27.806  22.013   8.553
 6473POPC   C2B21164  27.847  21.979   8.253
 6473POPC   C3B21165  27.771  22.066   7.953
 6473POPC   C4B21166  27.845  22.046   7.653
 6474POPC   NC321167   7.414  19.099   9.453
 6474POPC   PO421168   7.447  19.096   9.153
 6474POPC   GL121169   7.380  19.013   8.853
 6474POPC   GL221170   7.383  19.186   8.853
 6474POPC   C1A21171   7.446  19.096   8.553
 6474POPC   D2A21172   7.459  19.098   8.253
 6474POPC   C3A21173   7.453  19.043   7.953
 6474POPC   C4A21174   7.407  19.076   7.653
 6474POPC   C1B21175   7.319  19.239   8.553
 6474POPC   C2B21176   7.329  19.299   8.253
 6474POPC   C3B21177   7.276  19.313   7.953
 6474POPC   C4B21178   7.290  19.321   7.653
 6475POPC   NC321179   9.751  25.239   9.453
 6475POPC   PO421180   9.778  25.301   9.153
 6475POPC   GL121181   9.792  25.310   8.853
 6475POPC   GL221182   9.781  25.208   8.853
 6475POPC   C1A21183   9.750  25.241   8.553
 6475POPC   D2A21184   9.721  25.302   8.253
 6475POPC   C3A21185   9.780  25.272   7.953
 6475POPC   C4A21186   9.794  25.277   7.653
 6475POPC   C1B21187   9.948  25.064   8.553
 6475POPC   C2B21188   9.880  25.122   8.253
 6475POPC   C3B21189   9.880  25.076   7.953
 6475POPC   C4B21190   9.935  25.075   7.653
 6476POPC   NC321191  13.627  19.880   9.453
 6476POPC   PO421192  13.674  19.817   9.153
 6476POPC   GL121193  13.644  19.829   8.853
 6476POPC   GL221194  13.593  19.932   8.853
 6476POPC   C1A21195  13.598  19.808   8.553
 6476POPC   D2A21196  13.636  19.840   8.253
 6476POPC   C3A21197  13.587  19.865   7.953
 6476POPC   C4A21198  13.581  19.852   7.653
 6476POPC   C1B21199  13.533  20.055   8.553
 6476POPC   C2B21200  13.548  20.083   8.253
 6476POPC   C3B21201  13.514  20.079   7.953
 6476POPC   C4B21202  13.594  20.055   7.653
 6477POPC   NC321203   9.005  12.896   9.453
 6477POPC   PO421204   9.015  12.854   9.153
 6477POPC   GL121205   8.931  12.866   8.853
 6477POPC   GL221206   9.067  12.889   8.853
 6477POPC   C1A21207   9.004  12.876   8.553
 6477POPC   D2A21208   8.981  12.889   8.253
 6477POPC   C3A21209   9.008  12.836   7.953
 6477POPC   C4A21210   9.012  12.842   7.653
 6477POPC   C1B21211   9.161  13.001   8.553
 6477POPC   C2B21212   9.127  13.018   8.253
 6477POPC   C3B21213   9.159  12.985   7.953
 6477POPC   C4B21214   9.203  12.977   7.653
 6478POPC   NC321215  12.840  20.649   9.453
 6478POPC   PO421216  12.802  20.601   9.153
 6478POPC   GL121217  12.889  20.568   8.853
 6478POPC   GL221218  12.941  20.679   8.853
 6478POPC   C1A21219  12.860  20.647   8.553
 6478POPC   D2A21220  12.868  20.577   8.253
 6478POPC   C3A21221  12.889  20.576   7.953
 6478POPC   C4A21222  12.868  20.571   7.653
 6478POPC   C1B21223  12.994  20.828   8.553
 6478POPC   C2B21224  13.052  20.831   8.253
 6478POPC   C3B21225  12.967  20.806   7.953
 6478POPC   C4B21226  12.980  20.833   7.653
 6479POPC   NC321227  26.040   9.701   9.453
 6479POPC   PO421228  26.079   9.732   9.153
 6479POPC   GL121229  26.049   9.727   8.853
 6479POPC   GL221230  26.114   9.881   8.853
 6479POPC   C1A21231  26.085   9.762   8.553
 6479POPC   D2A21232  26.020   9.720   8.253
 6479POPC   C3A21233  26.056   9.798   7.953
 6479POPC   C4A21234  26.020   9.710   7.653
 6479POPC   C1B21235  26.190   9.941   8.553
 6479POPC   C2B21236  26.211   9.885   8.253
 6479POPC   C3B21237  26.178   9.925   7.953
 6479POPC   C4B21238  26.210   9.936   7.653
 6480POPC   NC321239  13.638  11.295   9.453
 6480POPC   PO421240  13.626  11.278   9.153
 6480POPC   GL121241  13.606  11.325   8.853
 6480POPC   GL221242  13.620  11.164   8.853
 6480POPC   C1A21243  13.593  11.314   8.553
 6480POPC   D2A21244  13.663  11.278   8.253
 6480POPC   C3A21245  13.673  11.345   7.953
 6480POPC   C4A21246  13.582  11.271   7.653
 6480POPC   C1B21247  13.611  11.040   8.553
 6480POPC   C2B21248  13.554  11.031   8.253
 6480POPC   C3B21249  13.630  11.052   7.953
 6480POPC   C4B21250  13.633  11.025   7.653
 6481POPC   NC321251  37.728  35.341   9.453
 6481POPC   PO421252  37.638  35.377   9.153
 6481POPC   GL121253  37.646  35.313   8.853
 6481POPC   GL221254  37.604  35.500   8.853
 6481POPC   C1A21255  37.706  35.323   8.553
 6481POPC   D2A21256  37.633  35.345   8.253
 6481POPC   C3A21257  37.695  35.394   7.953
 6481POPC   C4A21258  37.667  35.335   7.653
 6481POPC   C1B21259  37.628  35.585   8.553
 6481POPC   C2B21260  37.620  35.643   8.253
 6481POPC   C3B21261  37.596  35.551   7.953
 6481POPC   C4B21262  37.637  35.553   7.653
 6482POPC   NC321263   9.699  29.186   9.453
 6482POPC   PO421264   9.767  29.147   9.153
 6482POPC   GL121265   9.797  29.100   8.853
 6482POPC   GL221266   9.845  29.024   8.853
 6482POPC   C1A21267   9.721  29.123   8.553
 6482POPC   D2A21268   9.707  29.119   8.253
 6482POPC   C3A21269   9.740  29.179   7.953
 6482POPC   C4A21270   9.699  29.156   7.653
 6482POPC   C1B21271   9.850  28.937   8.553
 6482POPC   C2B21272   9.893  28.958   8.253
 6482POPC   C3B21273   9.887  28.950   7.953
 6482POPC   C4B21274   9.889  28.892   7.653
 6483POPC   NC321275  33.042  19.047   9.453
 6483POPC   PO421276  33.030  19.078   9.153
 6483POPC   GL121277  33.003  19.077   8.853
 6483POPC   GL221278  33.030  18.960   8.853
 6483POPC   C1A21279  33.015  19.047   8.553
 6483POPC   D2A21280  33.068  19.091   8.253
 6483POPC   C3A21281  33.064  19.083   7.953
 6483POPC   C4A21282  32.982  19.056   7.653
 6483POPC   C1B21283  33.162  18.833   8.553
 6483POPC   C2B21284  33.112  18.800   8.253
 6483POPC   C3B21285  33.102  18.846   7.953
 6483POPC   C4B21286  33.179  18.844   7.653
 6484POPC   NC321287  39.205  25.251   9.453
 6484POPC   PO421288  39.265  25.283   9.153
 6484POPC   GL121289  39.250  25.271   8.853
 6484POPC   GL221290  39.190  25.384   8.853
 6484POPC   C1A21291  39.210  25.305   8.553
 6484POPC   D2A21292  39.208  25.223   8.253
 6484POPC   C3A21293  39.247  25.270   7.953
 6484POPC   C4A21294  39.212  25.283   7.653
 6484POPC   C1B21295  39.127  25.534   8.553
 6484POPC   C2B21296  39.111  25.517   8.253
 6484POPC   C3B21297  39.145  25.542   7.953
 6484POPC   C4B21298  39.185  25.488   7.653
 6485POPC   NC321299  21.420  42.291   9.453
 6485POPC   PO421300  21.393  42.368   9.153
 6485POPC   GL121301  21.389  42.350   8.853
 6485POPC   GL221302  21.466  42.211   8.853
 6485POPC   C1A21303  21.360  42.338   8.553
 6485POPC   D2A21304  21.397  42.307   8.253
 6485POPC   C3A21305  21.395  42.377   7.953
 6485POPC   C4A21306  21.390  42.319   7.653
 6485POPC   C1B21307  21.494  42.098   8.553
 6485POPC   C2B21308  21.471  42.137   8.253
 6485POPC   C3B21309  21.459  42.140   7.953
 6485POPC   C4B21310  21.545  42.062   7.653
 6486POPC   NC321311  22.893  26.081   9.453
 6486POPC   PO421312  22.901  26.073   9.153
 6486POPC   GL121313  22.935  26.091   8.853
 6486POPC   GL221314  22.958  25.873   8.853
 6486POPC   C1A21315  22.972  26.089   8.553
 6486POPC   D2A21316  22.902  26.001   8.253
 6486POPC   C3A21317  22.985  26.031   7.953
 6486POPC   C4A21318  22.931  26.054   7.653
 6486POPC   C1B21319  22.983  25.840   8.553
 6486POPC   C2B21320  23.028  25.836   8.253
 6486POPC   C3B21321  23.021  25.788   7.953
 6486POPC   C4B21322  22.987  25.786   7.653
 6487POPC   NC321323  40.760  42.363   9.453
 6487POPC   PO421324  40.759  42.352   9.153
 6487POPC   GL121325  40.768  42.316   8.853
 6487POPC   GL221326  40.803  42.179   8.853
 6487POPC   C1A21327  40.752  42.368   8.553
 6487POPC   D2A21328  40.756  42.376   8.253
 6487POPC   C3A21329  40.735  42.353   7.953
 6487POPC   C4A21330  40.767  42.299   7.653
 6487POPC   C1B21331  40.876  42.135   8.553
 6487POPC   C2B21332  40.855  42.045   8.253
 6487POPC   C3B21333  40.818  42.115   7.953
 6487POPC   C4B21334  40.877  42.131   7.653
 6488POPC   NC321335  13.654   1.985   9.453
 6488POPC   PO421336  13.606   2.027   9.153
 6488POPC   GL121337  13.651   1.965   8.853
 6488POPC   GL221338  13.710   2.092   8.853
 6488POPC   C1A21339  13.594   2.039   8.553
 6488POPC   D2A21340  13.654   1.958   8.253
 6488POPC   C3A21341  13.624   1.951   7.953
 6488POPC   C4A21342  13.650   1.955   7.653
 6488POPC   C1B21343  13.764   2.230   8.553
 6488POPC   C2B21344  13.779   2.175   8.253
 6488POPC   C3B21345  13.797   2.227   7.953
 6488POPC   C4B21346  13.774   2.137   7.653
 6489POPC   NC321347   1.221   5.049   9.453
 6489POPC   PO421348   1.194   5.053   9.153
 6489POPC   GL121349   1.262   5.101   8.853
 6489POPC   GL221350   1.288   5.231   8.853
 6489POPC   C1A21351   1.236   5.126   8.553
 6489POPC   D2A21352   1.242   5.054   8.253
 6489POPC   C3A21353   1.172   5.081   7.953
 6489POPC   C4A21354   1.229   5.051   7.653
 6489POPC   C1B21355   1.276   5.288   8.553
 6489POPC   C2B21356   1.252   5.333   8.253
 6489POPC   C3B21357   1.305   5.352   7.953
 6489POPC   C4B21358   1.325   5.298   7.653
 6490POPC   NC321359  29.925  40.737   9.453
 6490POPC   PO421360  29.925  40.763   9.153
 6490POPC   GL121361  29.947  40.736   8.853
 6490POPC   GL221362  29.920  40.686   8.853
 6490POPC   C1A21363  29.954  40.745   8.553
 6490POPC   D2A21364  29.911  40.766   8.253
 6490POPC   C3A21365  29.950  40.774   7.953
 6490POPC   C4A21366  29.922  40.760   7.653
 6490POPC   C1B21367  29.846  40.518   8.553
 6490POPC   C2B21368  29.845  40.539   8.253
 6490POPC   C3B21369  29.783  40.521   7.953
 6490POPC   C4B21370  29.837  40.507   7.653
 6491POPC   NC321371  25.304  12.063   9.453
 6491POPC   PO421372  25.276  12.044   9.153
 6491POPC   GL121373  25.292  12.070   8.853
 6491POPC   GL221374  25.349  12.017   8.853
 6491POPC   C1A21375  25.269  12.101   8.553
 6491POPC   D2A21376  25.243  12.099   8.253
 6491POPC   C3A21377  25.251  12.111   7.953
 6491POPC   C4A21378  25.276  12.069   7.653
 6491POPC   C1B21379  25.420  11.936   8.553
 6491POPC   C2B21380  25.499  11.901   8.253
 6491POPC   C3B21381  25.408  11.880   7.953
 6491POPC   C4B21382  25.421  11.871   7.653
 6492POPC   NC321383  10.539  12.090   9.453
 6492POPC   PO421384  10.475  12.069   9.153
 6492POPC   GL121385  10.487  12.075   8.853
 6492POPC   GL221386  10.637  12.098   8.853
 6492POPC   C1A21387  10.550  12.097   8.553
 6492POPC   D2A21388  10.535  12.036   8.253
 6492POPC   C3A21389  10.559  12.033   7.953
 6492POPC   C4A21390  10.555  12.045   7.653
 6492POPC   C1B21391  10.728  12.172   8.553
 6492POPC   C2B21392  10.751  12.133   8.253
 6492POPC   C3B21393  10.797  12.138   7.953
 6492POPC   C4B21394  10.756  12.128   7.653
 6493POPC   NC321395  33.752  32.988   9.453
 6493POPC   PO421396  33.823  33.045   9.153
 6493POPC   GL121397  33.785  33.067   8.853
 6493POPC   GL221398  33.885  33.083   8.853
 6493POPC   C1A21399  33.757  33.050   8.553
 6493POPC   D2A21400  33.807  33.049   8.253
 6493POPC   C3A21401  33.759  32.992   7.953
 6493POPC   C4A21402  33.831  32.986   7.653
 6493POPC   C1B21403  34.057  33.108   8.553
 6493POPC   C2B21404  33.988  33.142   8.253
 6493POPC   C3B21405  34.034  33.086   7.953
 6493POPC   C4B21406  33.990  33.135   7.653
 6494POPC   NC321407  41.569   1.165   9.453
 6494POPC   PO421408  41.543   1.254   9.153
 6494POPC   GL121409  41.558   1.185   8.853
 6494POPC   GL221410  41.582   1.136   8.853
 6494POPC   C1A21411  41.585   1.173   8.553
 6494POPC   D2A21412  41.538   1.199   8.253
 6494POPC   C3A21413  41.513   1.206   7.953
 6494POPC   C4A21414  41.512   1.190   7.653
 6494POPC   C1B21415  41.558   1.007   8.553
 6494POPC   C2B21416  41.571   0.976   8.253
 6494POPC   C3B21417  41.572   0.952   7.953
 6494POPC   C4B21418  41.503   0.941   7.653
 6495POPC   NC321419  33.849  41.512   9.453
 6495POPC   PO421420  33.816  41.536   9.153
 6495POPC   GL121421  33.840  41.544   8.853
 6495POPC   GL221422  33.904  41.552   8.853
 6495POPC   C1A21423  33.832  41.562   8.553
 6495POPC   D2A21424  33.823  41.532   8.253
 6495POPC   C3A21425  33.848  41.562   7.953
 6495POPC   C4A21426  33.845  41.531   7.653
 6495POPC   C1B21427  33.989  41.498   8.553
 6495POPC   C2B21428  34.064  41.453   8.253
 6495POPC   C3B21429  33.983  41.491   7.953
 6495POPC   C4B21430  34.061  41.465   7.653
 6496POPC   NC321431  36.088  12.841   9.453
 6496POPC   PO421432  36.131  12.827   9.153
 6496POPC   GL121433  36.090  12.872   8.853
 6496POPC   GL221434  36.185  12.726   8.853
 6496POPC   C1A21435  36.090  12.891   8.553
 6496POPC   D2A21436  36.128  12.842   8.253
 6496POPC   C3A21437  36.079  12.840   7.953
 6496POPC   C4A21438  36.112  12.830   7.653
 6496POPC   C1B21439  36.247  12.613   8.553
 6496POPC   C2B21440  36.248  12.651   8.253
 6496POPC   C3B21441  36.224  12.569   7.953
 6496POPC   C4B21442  36.220  12.603   7.653
 6497POPC   NC321443  38.435  43.861   9.453
 6497POPC   PO421444  38.479  43.929   9.153
 6497POPC   GL121445  38.442  43.879   8.853
 6497POPC   GL221446  38.526  43.749   8.853
 6497POPC   C1A21447  38.504  43.934   8.553
 6497POPC   D2A21448  38.463  43.928   8.253
 6497POPC   C3A21449  38.442  43.863   7.953
 6497POPC   C4A21450  38.476  43.867   7.653
 6497POPC   C1B21451  38.600  43.630   8.553
 6497POPC   C2B21452  38.536  43.691   8.253
 6497POPC   C3B21453  38.580  43.686   7.953
 6497POPC   C4B21454  38.564  43.687   7.653
 6498POPC   NC321455  26.814  22.952   9.453
 6498POPC   PO421456  26.848  22.967   9.153
 6498POPC   GL121457  26.840  22.968   8.853
 6498POPC   GL221458  26.959  22.898   8.853
 6498POPC   C1A21459  26.837  22.983   8.553
 6498POPC   D2A21460  26.807  22.904   8.253
 6498POPC   C3A21461  26.850  22.935   7.953
 6498POPC   C4A21462  26.864  22.956   7.653
 6498POPC   C1B21463  27.066  22.791   8.553
 6498POPC   C2B21464  27.015  22.801   8.253
 6498POPC   C3B21465  27.088  22.830   7.953
 6498POPC   C4B21466  27.043  22.788   7.653
 6499POPC   NC321467   7.471   7.376   9.453
 6499POPC   PO421468   7.457   7.379   9.153
 6499POPC   GL121469   7.415   7.422   8.853
 6499POPC   GL221470   7.250   7.442   8.853
 6499POPC   C1A21471   7.430   7.387   8.553
 6499POPC   D2A21472   7.380   7.389   8.253
 6499POPC   C3A21473   7.390   7.432   7.953
 6499POPC   C4A21474   7.468   7.459   7.653
 6499POPC   C1B21475   7.200   7.395   8.553
 6499POPC   C2B21476   7.133   7.373   8.253
 6499POPC   C3B21477   7.144   7.392   7.953
 6499POPC   C4B21478   7.175   7.383   7.653
 6500POPC   NC321479   1.211  21.428   9.453
 6500POPC   PO421480   1.238  21.410   9.153
 6500POPC   GL121481   1.212  21.411   8.853
 6500POPC   GL221482   1.342  21.407   8.853
 6500POPC   C1A21483   1.192  21.344   8.553
 6500POPC   D2A21484   1.231  21.358   8.253
 6500POPC   C3A21485   1.259  21.375   7.953
 6500POPC   C4A21486   1.250  21.341   7.653
 6500POPC   C1B21487   1.505  21.365   8.553
 6500POPC   C2B21488   1.486  21.385   8.253
 6500POPC   C3B21489   1.452  21.349   7.953
 6500POPC   C4B21490   1.418  21.407   7.653
 6501POPC   NC321491  12.108  43.884   9.453
 6501POPC   PO421492  12.118  43.843   9.153
 6501POPC   GL121493  12.126  43.861   8.853
 6501POPC   GL221494  11.975  43.831   8.853
 6501POPC   C1A21495  12.042  43.896   8.553
 6501POPC   D2A21496  12.087  43.895   8.253
 6501POPC   C3A21497  12.026  43.926   7.953
 6501POPC   C4A21498  12.046  43.843   7.653
 6501POPC   C1B21499  11.841  43.817   8.553
 6501POPC   C2B21500  11.817  43.799   8.253
 6501POPC   C3B21501  11.834  43.834   7.953
 6501POPC   C4B21502  11.827  43.822   7.653
 6502POPC   NC321503  40.746  40.800   9.453
 6502POPC   PO421504  40.818  40.787   9.153
 6502POPC   GL121505  40.754  40.817   8.853
 6502POPC   GL221506  40.837  40.609   8.853
 6502POPC   C1A21507  40.765  40.814   8.553
 6502POPC   D2A21508  40.806  40.812   8.253
 6502POPC   C3A21509  40.806  40.747   7.953
 6502POPC   C4A21510  40.829  40.737   7.653
 6502POPC   C1B21511  40.817  40.501   8.553
 6502POPC   C2B21512  40.793  40.560   8.253
 6502POPC   C3B21513  40.769  40.497   7.953
 6502POPC   C4B21514  40.847  40.567   7.653
 6503POPC   NC321515  40.757   8.980   9.453
 6503POPC   PO421516  40.790   9.006   9.153
 6503POPC   GL121517  40.737   8.984   8.853
 6503POPC   GL221518  40.848   8.949   8.853
 6503POPC   C1A21519  40.814   8.943   8.553
 6503POPC   D2A21520  40.784   8.956   8.253
 6503POPC   C3A21521  40.743   8.969   7.953
 6503POPC   C4A21522  40.777   8.980   7.653
 6503POPC   C1B21523  41.000   8.869   8.553
 6503POPC   C2B21524  40.998   8.859   8.253
 6503POPC   C3B21525  40.979   8.896   7.953
 6503POPC   C4B21526  40.984   8.882   7.653
 6504POPC   NC321527  15.910  35.355   9.453
 6504POPC   PO421528  15.942  35.354   9.153
 6504POPC   GL121529  15.953  35.374   8.853
 6504POPC   GL221530  15.806  35.282   8.853
 6504POPC   C1A21531  15.941  35.378   8.553
 6504POPC   D2A21532  15.922  35.394   8.253
 6504POPC   C3A21533  15.974  35.384   7.953
 6504POPC   C4A21534  15.961  35.387   7.653
 6504POPC   C1B21535  15.684  35.277   8.553
 6504POPC   C2B21536  15.673  35.302   8.253
 6504POPC   C3B21537  15.668  35.259   7.953
 6504POPC   C4B21538  15.732  35.256   7.653
 6505POPC   NC321539  36.888  16.687   9.453
 6505POPC   PO421540  36.952  16.747   9.153
 6505POPC   GL121541  36.944  16.735   8.853
 6505POPC   GL221542  36.832  16.758   8.853
 6505POPC   C1A21543  36.885  16.758   8.553
 6505POPC   D2A21544  36.865  16.725   8.253
 6505POPC   C3A21545  36.892  16.757   7.953
 6505POPC   C4A21546  36.904  16.709   7.653
 6505POPC   C1B21547  36.647  16.807   8.553
 6505POPC   C2B21548  36.651  16.802   8.253
 6505POPC   C3B21549  36.652  16.771   7.953
 6505POPC   C4B21550  36.648  16.797   7.653
 6506POPC   NC321551   0.453  42.308   9.453
 6506POPC   PO421552   0.456  42.350   9.153
 6506POPC   GL121553   0.411  42.317   8.853
 6506POPC   GL221554   0.538  42.260   8.853
 6506POPC   C1A21555   0.423  42.296   8.553
 6506POPC   D2A21556   0.409  42.384   8.253
 6506POPC   C3A21557   0.430  42.312   7.953
 6506POPC   C4A21558   0.462  42.379   7.653
 6506POPC   C1B21559   0.680  42.210   8.553
 6506POPC   C2B21560   0.631  42.176   8.253
 6506POPC   C3B21561   0.676  42.195   7.953
 6506POPC   C4B21562   0.678  42.192   7.653
 6507POPC   NC321563   0.404  39.986   9.453
 6507POPC   PO421564   0.452  39.966   9.153
 6507POPC   GL121565   0.476  39.968   8.853
 6507POPC   GL221566   0.586  39.994   8.853
 6507POPC   C1A21567   0.404  39.958   8.553
 6507POPC   D2A21568   0.397  39.961   8.253
 6507POPC   C3A21569   0.433  40.031   7.953
 6507POPC   C4A21570   0.434  40.011   7.653
 6507POPC   C1B21571   0.660  40.059   8.553
 6507POPC   C2B21572   0.712  40.040   8.253
 6507POPC   C3B21573   0.705  40.052   7.953
 6507POPC   C4B21574   0.719  40.011   7.653
 6508POPC   NC321575  33.048  21.379   9.453
 6508POPC   PO421576  32.990  21.434   9.153
 6508POPC   GL121577  32.983  21.429   8.853
 6508POPC   GL221578  33.107  21.446   8.853
 6508POPC   C1A21579  33.058  21.367   8.553
 6508POPC   D2A21580  33.058  21.412   8.253
 6508POPC   C3A21581  33.040  21.430   7.953
 6508POPC   C4A21582  33.003  21.393   7.653
 6508POPC   C1B21583  33.215  21.450   8.553
 6508POPC   C2B21584  33.282  21.527   8.253
 6508POPC   C3B21585  33.214  21.524   7.953
 6508POPC   C4B21586  33.263  21.486   7.653
 6509POPC   NC321587   5.117  44.641   9.453
 6509POPC   PO421588   5.107  44.681   9.153
 6509POPC   GL121589   5.052  44.681   8.853
 6509POPC   GL221590   5.161  44.613   8.853
 6509POPC   C1A21591   5.063  44.645   8.553
 6509POPC   D2A21592   5.080  44.618   8.253
 6509POPC   C3A21593   5.084  44.698   7.953
 6509POPC   C4A21594   5.122  44.694   7.653
 6509POPC   C1B21595   5.272  44.527   8.553
 6509POPC   C2B21596   5.334  44.489   8.253
 6509POPC   C3B21597   5.315  44.538   7.953
 6509POPC   C4B21598   5.334  44.548   7.653
 6510POPC   NC321599  37.694   8.997   9.453
 6510POPC   PO421600  37.682   8.925   9.153
 6510POPC   GL121601  37.724   8.957   8.853
 6510POPC   GL221602  37.744   9.090   8.853
 6510POPC   C1A21603  37.686   8.990   8.553
 6510POPC   D2A21604  37.646   8.971   8.253
 6510POPC   C3A21605  37.684   8.994   7.953
 6510POPC   C4A21606  37.715   8.941   7.653
 6510POPC   C1B21607  37.794   9.174   8.553
 6510POPC   C2B21608  37.850   9.233   8.253
 6510POPC   C3B21609  37.809   9.215   7.953
 6510POPC   C4B21610  37.815   9.211   7.653
 6511POPC   NC321611  31.498   7.396   9.453
 6511POPC   PO421612  31.439   7.378   9.153
 6511POPC   GL121613  31.485   7.414   8.853
 6511POPC   GL221614  31.430   7.530   8.853
 6511POPC   C1A21615  31.503   7.427   8.553
 6511POPC   D2A21616  31.448   7.412   8.253
 6511POPC   C3A21617  31.429   7.458   7.953
 6511POPC   C4A21618  31.429   7.448   7.653
 6511POPC   C1B21619  31.357   7.604   8.553
 6511POPC   C2B21620  31.394   7.657   8.253
 6511POPC   C3B21621  31.378   7.627   7.953
 6511POPC   C4B21622  31.330   7.650   7.653
 6512POPC   NC321623   5.071  34.591   9.453
 6512POPC   PO421624   5.060  34.614   9.153
 6512POPC   GL121625   5.065  34.597   8.853
 6512POPC   GL221626   5.089  34.419   8.853
 6512POPC   C1A21627   5.063  34.616   8.553
 6512POPC   D2A21628   5.053  34.550   8.253
 6512POPC   C3A21629   5.053  34.595   7.953
 6512POPC   C4A21630   5.113  34.566   7.653
 6512POPC   C1B21631   5.133  34.300   8.553
 6512POPC   C2B21632   5.132  34.292   8.253
 6512POPC   C3B21633   5.172  34.386   7.953
 6512POPC   C4B21634   5.183  34.290   7.653
 6513POPC   NC321635  15.142   9.013   9.453
 6513POPC   PO421636  15.171   9.020   9.153
 6513POPC   GL121637  15.214   8.946   8.853
 6513POPC   GL221638  15.156   9.061   8.853
 6513POPC   C1A21639  15.212   8.960   8.553
 6513POPC   D2A21640  15.186   8.986   8.253
 6513POPC   C3A21641  15.174   8.936   7.953
 6513POPC   C4A21642  15.149   8.966   7.653
 6513POPC   C1B21643  15.104   9.215   8.553
 6513POPC   C2B21644  15.082   9.223   8.253
 6513POPC   C3B21645  15.064   9.191   7.953
 6513POPC   C4B21646  15.120   9.238   7.653
 6514POPC   NC321647   9.008  32.234   9.453
 6514POPC   PO421648   9.021  32.217   9.153
 6514POPC   GL121649   8.927  32.273   8.853
 6514POPC   GL221650   8.902  32.321   8.853
 6514POPC   C1A21651   8.993  32.233   8.553
 6514POPC   D2A21652   8.962  32.275   8.253
 6514POPC   C3A21653   8.974  32.296   7.953
 6514POPC   C4A21654   8.984  32.215   7.653
 6514POPC   C1B21655   8.724  32.364   8.553
 6514POPC   C2B21656   8.739  32.398   8.253
 6514POPC   C3B21657   8.795  32.335   7.953
 6514POPC   C4B21658   8.740  32.373   7.653
 6515POPC   NC321659  35.325  22.175   9.453
 6515POPC   PO421660  35.387  22.166   9.153
 6515POPC   GL121661  35.397  22.195   8.853
 6515POPC   GL221662  35.498  22.227   8.853
 6515POPC   C1A21663  35.355  22.128   8.553
 6515POPC   D2A21664  35.316  22.188   8.253
 6515POPC   C3A21665  35.311  22.205   7.953
 6515POPC   C4A21666  35.346  22.172   7.653
 6515POPC   C1B21667  35.508  22.296   8.553
 6515POPC   C2B21668  35.570  22.327   8.253
 6515POPC   C3B21669  35.573  22.272   7.953
 6515POPC   C4B21670  35.563  22.326   7.653
 6516POPC   NC321671  32.287  26.849   9.453
 6516POPC   PO421672  32.201  26.791   9.153
 6516POPC   GL121673  32.251  26.856   8.853
 6516POPC   GL221674  32.379  26.785   8.853
 6516POPC   C1A21675  32.285  26.826   8.553
 6516POPC   D2A21676  32.270  26.799   8.253
 6516POPC   C3A21677  32.219  26.811   7.953
 6516POPC   C4A21678  32.242  26.783   7.653
 6516POPC   C1B21679  32.419  26.684   8.553
 6516POPC   C2B21680  32.449  26.675   8.253
 6516POPC   C3B21681  32.417  26.680   7.953
 6516POPC   C4B21682  32.473  26.622   7.653
 6517POPC   NC321683  43.923   8.954   9.453
 6517POPC   PO421684  43.896   8.961   9.153
 6517POPC   GL121685  43.845   8.960   8.853
 6517POPC   GL221686  43.756   8.897   8.853
 6517POPC   C1A21687  43.845   9.009   8.553
 6517POPC   D2A21688  43.891   8.960   8.253
 6517POPC   C3A21689  43.917   8.965   7.953
 6517POPC   C4A21690  43.891   8.999   7.653
 6517POPC   C1B21691  43.741   8.800   8.553
 6517POPC   C2B21692  43.717   8.855   8.253
 6517POPC   C3B21693  43.731   8.854   7.953
 6517POPC   C4B21694  43.683   8.816   7.653
 6518POPC   NC321695  27.561   1.194   9.453
 6518POPC   PO421696  27.605   1.235   9.153
 6518POPC   GL121697  27.551   1.202   8.853
 6518POPC   GL221698  27.675   1.166   8.853
 6518POPC   C1A21699  27.597   1.176   8.553
 6518POPC   D2A21700  27.614   1.241   8.253
 6518POPC   C3A21701  27.591   1.241   7.953
 6518POPC   C4A21702  27.545   1.242   7.653
 6518POPC   C1B21703  27.779   1.059   8.553
 6518POPC   C2B21704  27.772   1.047   8.253
 6518POPC   C3B21705  27.749   1.006   7.953
 6518POPC   C4B21706  27.768   1.096   7.653
 6519POPC   NC321707   9.729   9.794   9.453
 6519POPC   PO421708   9.705   9.724   9.153
 6519POPC   GL121709   9.736   9.700   8.853
 6519POPC   GL221710   9.913   9.759   8.853
 6519POPC   C1A21711   9.773   9.703   8.553
 6519POPC   D2A21712   9.700   9.750   8.253
 6519POPC   C3A21713   9.722   9.721   7.953
 6519POPC   C4A21714   9.747   9.771   7.653
 6519POPC   C1B21715   9.952   9.806   8.553
 6519POPC   C2B21716  10.026   9.796   8.253
 6519POPC   C3B21717   9.931   9.869   7.953
 6519POPC   C4B21718   9.937   9.818   7.653
 6520POPC   NC321719  25.237  33.775   9.453
 6520POPC   PO421720  25.246  33.775   9.153
 6520POPC   GL121721  25.304  33.838   8.853
 6520POPC   GL221722  25.324  33.634   8.853
 6520POPC   C1A21723  25.267  33.768   8.553
 6520POPC   D2A21724  25.278  33.799   8.253
 6520POPC   C3A21725  25.292  33.788   7.953
 6520POPC   C4A21726  25.287  33.761   7.653
 6520POPC   C1B21727  25.331  33.531   8.553
 6520POPC   C2B21728  25.356  33.545   8.253
 6520POPC   C3B21729  25.342  33.588   7.953
 6520POPC   C4B21730  25.319  33.542   7.653
 6521POPC   NC321731  34.614  40.741   9.453
 6521POPC   PO421732  34.622  40.765   9.153
 6521POPC   GL121733  34.596  40.817   8.853
 6521POPC   GL221734  34.432  40.743   8.853
 6521POPC   C1A21735  34.557  40.818   8.553
 6521POPC   D2A21736  34.599  40.787   8.253
 6521POPC   C3A21737  34.594  40.763   7.953
 6521POPC   C4A21738  34.616  40.768   7.653
 6521POPC   C1B21739  34.284  40.784   8.553
 6521POPC   C2B21740  34.311  40.816   8.253
 6521POPC   C3B21741  34.298  40.798   7.953
 6521POPC   C4B21742  34.278  40.759   7.653
 6522POPC   NC321743  35.391  15.130   9.453
 6522POPC   PO421744  35.401  15.165   9.153
 6522POPC   GL121745  35.331  15.164   8.853
 6522POPC   GL221746  35.459  15.212   8.853
 6522POPC   C1A21747  35.313  15.175   8.553
 6522POPC   D2A21748  35.381  15.176   8.253
 6522POPC   C3A21749  35.347  15.216   7.953
 6522POPC   C4A21750  35.355  15.137   7.653
 6522POPC   C1B21751  35.589  15.336   8.553
 6522POPC   C2B21752  35.535  15.383   8.253
 6522POPC   C3B21753  35.494  15.354   7.953
 6522POPC   C4B21754  35.579  15.382   7.653
 6523POPC   NC321755  28.378   2.804   9.453
 6523POPC   PO421756  28.398   2.766   9.153
 6523POPC   GL121757  28.410   2.797   8.853
 6523POPC   GL221758  28.207   2.757   8.853
 6523POPC   C1A21759  28.349   2.757   8.553
 6523POPC   D2A21760  28.342   2.761   8.253
 6523POPC   C3A21761  28.387   2.790   7.953
 6523POPC   C4A21762  28.408   2.729   7.653
 6523POPC   C1B21763  28.091   2.775   8.553
 6523POPC   C2B21764  28.146   2.783   8.253
 6523POPC   C3B21765  28.133   2.754   7.953
 6523POPC   C4B21766  28.085   2.743   7.653
 6524POPC   NC321767  36.945  34.614   9.453
 6524POPC   PO421768  36.913  34.562   9.153
 6524POPC   GL121769  36.929  34.528   8.853
 6524POPC   GL221770  36.820  34.700   8.853
 6524POPC   C1A21771  36.936  34.608   8.553
 6524POPC   D2A21772  36.868  34.567   8.253
 6524POPC   C3A21773  36.871  34.605   7.953
 6524POPC   C4A21774  36.883  34.564   7.653
 6524POPC   C1B21775  36.802  34.808   8.553
 6524POPC   C2B21776  36.879  34.797   8.253
 6524POPC   C3B21777  36.840  34.811   7.953
 6524POPC   C4B21778  36.878  34.864   7.653
 6525POPC   NC321779   8.163  30.657   9.453
 6525POPC   PO421780   8.212  30.711   9.153
 6525POPC   GL121781   8.200  30.732   8.853
 6525POPC   GL221782   8.228  30.844   8.853
 6525POPC   C1A21783   8.163  30.714   8.553
 6525POPC   D2A21784   8.189  30.702   8.253
 6525POPC   C3A21785   8.185  30.696   7.953
 6525POPC   C4A21786   8.219  30.703   7.653
 6525POPC   C1B21787   8.144  30.979   8.553
 6525POPC   C2B21788   8.191  30.963   8.253
 6525POPC   C3B21789   8.175  30.989   7.953
 6525POPC   C4B21790   8.185  30.938   7.653
 6526POPC   NC321791  39.268   0.471   9.453
 6526POPC   PO421792  39.257   0.447   9.153
 6526POPC   GL121793  39.218   0.459   8.853
 6526POPC   GL221794  39.235   0.368   8.853
 6526POPC   C1A21795  39.199   0.470   8.553
 6526POPC   D2A21796  39.193   0.469   8.253
 6526POPC   C3A21797  39.277   0.466   7.953
 6526POPC   C4A21798  39.217   0.465   7.653
 6526POPC   C1B21799  39.358   0.184   8.553
 6526POPC   C2B21800  39.289   0.231   8.253
 6526POPC   C3B21801  39.365   0.166   7.953
 6526POPC   C4B21802  39.286   0.190   7.653
 6527POPC   NC321803   0.447  15.952   9.453
 6527POPC   PO421804   0.403  15.957   9.153
 6527POPC   GL121805   0.409  15.907   8.853
 6527POPC   GL221806   0.337  16.017   8.853
 6527POPC   C1A21807   0.453  15.950   8.553
 6527POPC   D2A21808   0.471  15.955   8.253
 6527POPC   C3A21809   0.475  15.918   7.953
 6527POPC   C4A21810   0.477  15.912   7.653
 6527POPC   C1B21811   0.269  16.147   8.553
 6527POPC   C2B21812   0.309  16.138   8.253
 6527POPC   C3B21813   0.305  16.130   7.953
 6527POPC   C4B21814   0.315  16.145   7.653
 6528POPC   NC321815  18.326   9.705   9.453
 6528POPC   PO421816  18.290   9.734   9.153
 6528POPC   GL121817  18.291   9.743   8.853
 6528POPC   GL221818  18.158   9.827   8.853
 6528POPC   C1A21819  18.286   9.751   8.553
 6528POPC   D2A21820  18.304   9.766   8.253
 6528POPC   C3A21821  18.319   9.726   7.953
 6528POPC   C4A21822  18.270   9.789   7.653
 6528POPC   C1B21823  18.058   9.924   8.553
 6528POPC   C2B21824  18.027   9.897   8.253
 6528POPC   C3B21825  18.082   9.897   7.953
 6528POPC   C4B21826  18.109   9.931   7.653
 6529POPC   NC321827  19.857  10.500   9.453
 6529POPC   PO421828  19.787  10.507   9.153
 6529POPC   GL121829  19.834  10.507   8.853
 6529POPC   GL221830  19.996  10.566   8.853
 6529POPC   C1A21831  19.866  10.559   8.553
 6529POPC   D2A21832  19.806  10.530   8.253
 6529POPC   C3A21833  19.841  10.509   7.953
 6529POPC   C4A21834  19.835  10.566   7.653
 6529POPC   C1B21835  20.051  10.604   8.553
 6529POPC   C2B21836  20.119  10.556   8.253
 6529POPC   C3B21837  20.074  10.612   7.953
 6529POPC   C4B21838  20.128  10.557   7.653
 6530POPC   NC321839  27.574   8.151   9.453
 6530POPC   PO421840  27.576   8.195   9.153
 6530POPC   GL121841  27.566   8.203   8.853
 6530POPC   GL221842  27.507   8.192   8.853
 6530POPC   C1A21843  27.642   8.176   8.553
 6530POPC   D2A21844  27.616   8.175   8.253
 6530POPC   C3A21845  27.633   8.205   7.953
 6530POPC   C4A21846  27.591   8.176   7.653
 6530POPC   C1B21847  27.334   8.164   8.553
 6530POPC   C2B21848  27.328   8.159   8.253
 6530POPC   C3B21849  27.339   8.119   7.953
 6530POPC   C4B21850  27.304   8.146   7.653
 6531POPC   NC321851  37.657  27.614   9.453
 6531POPC   PO421852  37.647  27.547   9.153
 6531POPC   GL121853  37.726  27.567   8.853
 6531POPC   GL221854  37.715  27.656   8.853
 6531POPC   C1A21855  37.719  27.628   8.553
 6531POPC   D2A21856  37.672  27.566   8.253
 6531POPC   C3A21857  37.634  27.624   7.953
 6531POPC   C4A21858  37.699  27.585   7.653
 6531POPC   C1B21859  37.842  27.774   8.553
 6531POPC   C2B21860  37.890  27.825   8.253
 6531POPC   C3B21861  37.817  27.809   7.953
 6531POPC   C4B21862  37.863  27.804   7.653
 6532POPC   NC321863  21.378  29.115   9.453
 6532POPC   PO421864  21.424  29.189   9.153
 6532POPC   GL121865  21.346  29.149   8.853
 6532POPC   GL221866  21.501  29.156   8.853
 6532POPC   C1A21867  21.412  29.118   8.553
 6532POPC   D2A21868  21.385  29.164   8.253
 6532POPC   C3A21869  21.434  29.133   7.953
 6532POPC   C4A21870  21.380  29.167   7.653
 6532POPC   C1B21871  21.578  29.238   8.553
 6532POPC   C2B21872  21.657  29.172   8.253
 6532POPC   C3B21873  21.580  29.162   7.953
 6532POPC   C4B21874  21.604  29.239   7.653
 6533POPC   NC321875  19.883   1.955   9.453
 6533POPC   PO421876  19.852   2.002   9.153
 6533POPC   GL121877  19.880   1.970   8.853
 6533POPC   GL221878  19.886   2.132   8.853
 6533POPC   C1A21879  19.806   2.016   8.553
 6533POPC   D2A21880  19.801   2.037   8.253
 6533POPC   C3A21881  19.807   1.957   7.953
 6533POPC   C4A21882  19.863   2.029   7.653
 6533POPC   C1B21883  19.893   2.225   8.553
 6533POPC   C2B21884  19.849   2.230   8.253
 6533POPC   C3B21885  19.842   2.231   7.953
 6533POPC   C4B21886  19.905   2.280   7.653
 6534POPC   NC321887  11.282  27.567   9.453
 6534POPC   PO421888  11.305  27.611   9.153
 6534POPC   GL121889  11.319  27.564   8.853
 6534POPC   GL221890  11.313  27.494   8.853
 6534POPC   C1A21891  11.315  27.614   8.553
 6534POPC   D2A21892  11.339  27.546   8.253
 6534POPC   C3A21893  11.345  27.613   7.953
 6534POPC   C4A21894  11.265  27.604   7.653
 6534POPC   C1B21895  11.346  27.388   8.553
 6534POPC   C2B21896  11.428  27.316   8.253
 6534POPC   C3B21897  11.409  27.382   7.953
 6534POPC   C4B21898  11.374  27.315   7.653
 6535POPC   NC321899   8.994  34.558   9.453
 6535POPC   PO421900   9.010  34.621   9.153
 6535POPC   GL121901   8.936  34.543   8.853
 6535POPC   GL221902   9.108  34.576   8.853
 6535POPC   C1A21903   8.946  34.546   8.553
 6535POPC   D2A21904   8.924  34.551   8.253
 6535POPC   C3A21905   8.971  34.583   7.953
 6535POPC   C4A21906   9.011  34.561   7.653
 6535POPC   C1B21907   9.177  34.594   8.553
 6535POPC   C2B21908   9.194  34.567   8.253
 6535POPC   C3B21909   9.179  34.583   7.953
 6535POPC   C4B21910   9.209  34.607   7.653
 6536POPC   NC321911  30.701   5.840   9.453
 6536POPC   PO421912  30.698   5.888   9.153
 6536POPC   GL121913  30.727   5.843   8.853
 6536POPC   GL221914  30.819   5.993   8.853
 6536POPC   C1A21915  30.692   5.873   8.553
 6536POPC   D2A21916  30.706   5.850   8.253
 6536POPC   C3A21917  30.695   5.856   7.953
 6536POPC   C4A21918  30.695   5.905   7.653
 6536POPC   C1B21919  30.903   6.099   8.553
 6536POPC   C2B21920  30.907   6.023   8.253
 6536POPC   C3B21921  30.896   6.033   7.953
 6536POPC   C4B21922  30.828   6.029   7.653
 6537POPC   NC321923  32.997  31.494   9.453
 6537POPC   PO421924  33.006  31.502   9.153
 6537POPC   GL121925  33.072  31.484   8.853
 6537POPC   GL221926  33.019  31.562   8.853
 6537POPC   C1A21927  33.070  31.432   8.553
 6537POPC   D2A21928  33.030  31.471   8.253
 6537POPC   C3A21929  33.058  31.484   7.953
 6537POPC   C4A21930  33.004  31.511   7.653
 6537POPC   C1B21931  33.008  31.730   8.553
 6537POPC   C2B21932  33.097  31.675   8.253
 6537POPC   C3B21933  33.019  31.753   7.953
 6537POPC   C4B21934  33.016  31.731   7.653
 6538POPC   NC321935  33.773  12.829   9.453
 6538POPC   PO421936  33.839  12.884   9.153
 6538POPC   GL121937  33.782  12.840   8.853
 6538POPC   GL221938  33.775  12.690   8.853
 6538POPC   C1A21939  33.760  12.831   8.553
 6538POPC   D2A21940  33.754  12.832   8.253
 6538POPC   C3A21941  33.844  12.891   7.953
 6538POPC   C4A21942  33.849  12.829   7.653
 6538POPC   C1B21943  33.701  12.628   8.553
 6538POPC   C2B21944  33.768  12.608   8.253
 6538POPC   C3B21945  33.727  12.601   7.953
 6538POPC   C4B21946  33.757  12.637   7.653
 6539POPC   NC321947   9.733  20.633   9.453
 6539POPC   PO421948   9.748  20.649   9.153
 6539POPC   GL121949   9.702  20.564   8.853
 6539POPC   GL221950   9.739  20.447   8.853
 6539POPC   C1A21951   9.769  20.584   8.553
 6539POPC   D2A21952   9.702  20.606   8.253
 6539POPC   C3A21953   9.777  20.618   7.953
 6539POPC   C4A21954   9.737  20.595   7.653
 6539POPC   C1B21955   9.681  20.382   8.553
 6539POPC   C2B21956   9.765  20.364   8.253
 6539POPC   C3B21957   9.760  20.368   7.953
 6539POPC   C4B21958   9.744  20.403   7.653
 6540POPC   NC321959  29.189   9.720   9.453
 6540POPC   PO421960  29.139   9.719   9.153
 6540POPC   GL121961  29.172   9.714   8.853
 6540POPC   GL221962  29.259   9.632   8.853
 6540POPC   C1A21963  29.099   9.753   8.553
 6540POPC   D2A21964  29.190   9.752   8.253
 6540POPC   C3A21965  29.123   9.719   7.953
 6540POPC   C4A21966  29.097   9.771   7.653
 6540POPC   C1B21967  29.307   9.619   8.553
 6540POPC   C2B21968  29.291   9.547   8.253
 6540POPC   C3B21969  29.311   9.528   7.953
 6540POPC   C4B21970  29.364   9.542   7.653
 6541POPC   NC321971  33.023  38.447   9.453
 6541POPC   PO421972  33.046  38.480   9.153
 6541POPC   GL121973  33.037  38.454   8.853
 6541POPC   GL221974  33.143  38.446   8.853
 6541POPC   C1A21975  33.027  38.448   8.553
 6541POPC   D2A21976  32.989  38.463   8.253
 6541POPC   C3A21977  33.055  38.435   7.953
 6541POPC   C4A21978  33.042  38.433   7.653
 6541POPC   C1B21979  33.252  38.447   8.553
 6541POPC   C2B21980  33.310  38.477   8.253
 6541POPC   C3B21981  33.274  38.418   7.953
 6541POPC   C4B21982  33.296  38.475   7.653
 6542POPC   NC321983  40.821  26.839   9.453
 6542POPC   PO421984  40.791  26.830   9.153
 6542POPC   GL121985  40.767  26.850   8.853
 6542POPC   GL221986  40.626  26.776   8.853
 6542POPC   C1A21987  40.752  26.778   8.553
 6542POPC   D2A21988  40.740  26.780   8.253
 6542POPC   C3A21989  40.763  26.785   7.953
 6542POPC   C4A21990  40.796  26.819   7.653
 6542POPC   C1B21991  40.546  26.729   8.553
 6542POPC   C2B21992  40.591  26.666   8.253
 6542POPC   C3B21993  40.580  26.653   7.953
 6542POPC   C4B21994  40.589  26.657   7.653
 6543POPC   NC321995  20.571  10.530   9.453
 6543POPC   PO421996  20.654  10.527   9.153
 6543POPC   GL121997  20.627  10.496   8.853
 6543POPC   GL221998  20.588  10.624   8.853
 6543POPC   C1A21999  20.652  10.539   8.553
 6543POPC   D2A22000  20.656  10.536   8.253
 6543POPC   C3A22001  20.612  10.564   7.953
 6543POPC   C4A22002  20.632  10.545   7.653
 6543POPC   C1B22003  20.644  10.725   8.553
 6543POPC   C2B22004  20.632  10.803   8.253
 6543POPC   C3B22005  20.647  10.815   7.953
 6543POPC   C4B22006  20.638  10.820   7.653
 6544POPC   NC322007  26.809  19.100   9.453
 6544POPC   PO422008  26.853  19.088   9.153
 6544POPC   GL122009  26.794  19.059   8.853
 6544POPC   GL222010  26.888  19.176   8.853
 6544POPC   C1A22011  26.842  19.019   8.553
 6544POPC   D2A22012  26.822  19.022   8.253
 6544POPC   C3A22013  26.809  19.044   7.953
 6544POPC   C4A22014  26.803  19.029   7.653
 6544POPC   C1B22015  26.986  19.232   8.553
 6544POPC   C2B22016  27.002  19.269   8.253
 6544POPC   C3B22017  26.997  19.267   7.953
 6544POPC   C4B22018  26.981  19.301   7.653
 6545POPC   NC322019  43.084   5.824   9.453
 6545POPC   PO422020  43.147   5.828   9.153
 6545POPC   GL122021  43.131   5.910   8.853
 6545POPC   GL222022  43.136   6.031   8.853
 6545POPC   C1A22023  43.085   5.913   8.553
 6545POPC   D2A22024  43.120   5.853   8.253
 6545POPC   C3A22025  43.156   5.864   7.953
 6545POPC   C4A22026  43.076   5.834   7.653
 6545POPC   C1B22027  43.122   6.081   8.553
 6545POPC   C2B22028  43.123   6.103   8.253
 6545POPC   C3B22029  43.157   6.072   7.953
 6545POPC   C4B22030  43.201   6.102   7.653
 6546POPC   NC322031  24.485  32.219   9.453
 6546POPC   PO422032  24.496  32.288   9.153
 6546POPC   GL122033  24.479  32.248   8.853
 6546POPC   GL222034  24.625  32.210   8.853
 6546POPC   C1A22035  24.529  32.203   8.553
 6546POPC   D2A22036  24.513  32.218   8.253
 6546POPC   C3A22037  24.447  32.275   7.953
 6546POPC   C4A22038  24.535  32.267   7.653
 6546POPC   C1B22039  24.711  32.187   8.553
 6546POPC   C2B22040  24.733  32.218   8.253
 6546POPC   C3B22041  24.697  32.229   7.953
 6546POPC   C4B22042  24.709  32.174   7.653
 6547POPC   NC322043  19.042  19.790   9.453
 6547POPC   PO422044  19.050  19.799   9.153
 6547POPC   GL122045  19.055  19.869   8.853
 6547POPC   GL222046  19.112  19.803   8.853
 6547POPC   C1A22047  19.064  19.799   8.553
 6547POPC   D2A22048  19.047  19.865   8.253
 6547POPC   C3A22049  19.025  19.870   7.953
 6547POPC   C4A22050  19.088  19.808   7.653
 6547POPC   C1B22051  19.243  19.682   8.553
 6547POPC   C2B22052  19.294  19.687   8.253
 6547POPC   C3B22053  19.222  19.692   7.953
 6547POPC   C4B22054  19.248  19.677   7.653
 6548POPC   NC322055  25.313  32.252   9.453
 6548POPC   PO422056  25.243  32.291   9.153
 6548POPC   GL122057  25.273  32.238   8.853
 6548POPC   GL222058  25.164  32.211   8.853
 6548POPC   C1A22059  25.269  32.229   8.553
 6548POPC   D2A22060  25.263  32.232   8.253
 6548POPC   C3A22061  25.309  32.217   7.953
 6548POPC   C4A22062  25.237  32.207   7.653
 6548POPC   C1B22063  25.123  32.041   8.553
 6548POPC   C2B22064  25.036  32.048   8.253
 6548POPC   C3B22065  25.069  32.049   7.953
 6548POPC   C4B22066  25.114  32.079   7.653
 6549POPC   NC322067  26.063  27.597   9.453
 6549POPC   PO422068  26.036  27.554   9.153
 6549POPC   GL122069  26.059  27.622   8.853
 6549POPC   GL222070  25.937  27.650   8.853
 6549POPC   C1A22071  26.073  27.632   8.553
 6549POPC   D2A22072  26.026  27.576   8.253
 6549POPC   C3A22073  26.017  27.619   7.953
 6549POPC   C4A22074  26.087  27.574   7.653
 6549POPC   C1B22075  25.818  27.696   8.553
 6549POPC   C2B22076  25.801  27.689   8.253
 6549POPC   C3B22077  25.849  27.785   7.953
 6549POPC   C4B22078  25.843  27.742   7.653
 6550POPC   NC322079   2.029  40.014   9.453
 6550POPC   PO422080   2.024  40.015   9.153
 6550POPC   GL122081   1.961  39.961   8.853
 6550POPC   GL222082   2.021  40.129   8.853
 6550POPC   C1A22083   2.030  40.017   8.553
 6550POPC   D2A22084   2.002  40.023   8.253
 6550POPC   C3A22085   1.973  40.025   7.953
 6550POPC   C4A22086   1.986  40.034   7.653
 6550POPC   C1B22087   2.127  40.204   8.553
 6550POPC   C2B22088   2.105  40.192   8.253
 6550POPC   C3B22089   2.159  40.249   7.953
 6550POPC   C4B22090   2.179  40.231   7.653
 6551POPC   NC322091  21.374  41.545   9.453
 6551POPC   PO422092  21.413  41.538   9.153
 6551POPC   GL122093  21.430  41.529   8.853
 6551POPC   GL222094  21.486  41.603   8.853
 6551POPC   C1A22095  21.343  41.555   8.553
 6551POPC   D2A22096  21.343  41.548   8.253
 6551POPC   C3A22097  21.366  41.551   7.953
 6551POPC   C4A22098  21.376  41.528   7.653
 6551POPC   C1B22099  21.595  41.594   8.553
 6551POPC   C2B22100  21.647  41.617   8.253
 6551POPC   C3B22101  21.675  41.582   7.953
 6551POPC   C4B22102  21.594  41.606   7.653
 6552POPC   NC322103  36.108  35.350   9.453
 6552POPC   PO422104  36.105  35.343   9.153
 6552POPC   GL122105  36.097  35.340   8.853
 6552POPC   GL222106  36.238  35.411   8.853
 6552POPC   C1A22107  36.087  35.359   8.553
 6552POPC   D2A22108  36.094  35.389   8.253
 6552POPC   C3A22109  36.095  35.380   7.953
 6552POPC   C4A22110  36.149  35.352   7.653
 6552POPC   C1B22111  36.328  35.376   8.553
 6552POPC   C2B22112  36.339  35.339   8.253
 6552POPC   C3B22113  36.359  35.349   7.953
 6552POPC   C4B22114  36.426  35.422   7.653
 6553POPC   NC322115  39.190   9.722   9.453
 6553POPC   PO422116  39.192   9.750   9.153
 6553POPC   GL122117  39.191   9.733   8.853
 6553POPC   GL222118  39.087   9.754   8.853
 6553POPC   C1A22119  39.230   9.710   8.553
 6553POPC   D2A22120  39.249   9.713   8.253
 6553POPC   C3A22121  39.266   9.782   7.953
 6553POPC   C4A22122  39.276   9.754   7.653
 6553POPC   C1B22123  38.960   9.762   8.553
 6553POPC   C2B22124  38.960   9.720   8.253
 6553POPC   C3B22125  39.030   9.721   7.953
 6553POPC   C4B22126  38.967   9.753   7.653
 6554POPC   NC322127  39.262  40.794   9.453
 6554POPC   PO422128  39.227  40.813   9.153
 6554POPC   GL122129  39.192  40.833   8.853
 6554POPC   GL222130  39.385  40.810   8.853
 6554POPC   C1A22131  39.207  40.810   8.553
 6554POPC   D2A22132  39.191  40.768   8.253
 6554POPC   C3A22133  39.266  40.774   7.953
 6554POPC   C4A22134  39.236  40.738   7.653
 6554POPC   C1B22135  39.489  40.731   8.553
 6554POPC   C2B22136  39.488  40.766   8.253
 6554POPC   C3B22137  39.468  40.734   7.953
 6554POPC   C4B22138  39.453  40.784   7.653
 6555POPC   NC322139  35.310  33.769   9.453
 6555POPC   PO422140  35.348  33.755   9.153
 6555POPC   GL122141  35.343  33.827   8.853
 6555POPC   GL222142  35.274  33.675   8.853
 6555POPC   C1A22143  35.342  33.757   8.553
 6555POPC   D2A22144  35.377  33.814   8.253
 6555POPC   C3A22145  35.401  33.771   7.953
 6555POPC   C4A22146  35.331  33.795   7.653
 6555POPC   C1B22147  35.189  33.670   8.553
 6555POPC   C2B22148  35.185  33.645   8.253
 6555POPC   C3B22149  35.184  33.665   7.953
 6555POPC   C4B22150  35.177  33.654   7.653
 6556POPC   NC322151  36.141  11.326   9.453
 6556POPC   PO422152  36.167  11.341   9.153
 6556POPC   GL122153  36.147  11.253   8.853
 6556POPC   GL222154  36.262  11.317   8.853
 6556POPC   C1A22155  36.143  11.273   8.553
 6556POPC   D2A22156  36.130  11.331   8.253
 6556POPC   C3A22157  36.087  11.343   7.953
 6556POPC   C4A22158  36.141  11.296   7.653
 6556POPC   C1B22159  36.383  11.330   8.553
 6556POPC   C2B22160  36.408  11.307   8.253
 6556POPC   C3B22161  36.378  11.318   7.953
 6556POPC   C4B22162  36.398  11.335   7.653
 6557POPC   NC322163  40.778  26.081   9.453
 6557POPC   PO422164  40.775  26.049   9.153
 6557POPC   GL122165  40.806  26.080   8.853
 6557POPC   GL222166  40.891  25.966   8.853
 6557POPC   C1A22167  40.774  26.075   8.553
 6557POPC   D2A22168  40.810  26.064   8.253
 6557POPC   C3A22169  40.783  26.090   7.953
 6557POPC   C4A22170  40.816  26.091   7.653
 6557POPC   C1B22171  40.953  25.869   8.553
 6557POPC   C2B22172  40.929  25.825   8.253
 6557POPC   C3B22173  40.953  25.915   7.953
 6557POPC   C4B22174  40.959  25.834   7.653
 6558POPC   NC322175  22.200  22.930   9.453
 6558POPC   PO422176  22.201  22.904   9.153
 6558POPC   GL122177  22.198  22.952   8.853
 6558POPC   GL222178  22.335  22.963   8.853
 6558POPC   C1A22179  22.113  22.891   8.553
 6558POPC   D2A22180  22.130  22.926   8.253
 6558POPC   C3A22181  22.205  22.923   7.953
 6558POPC   C4A22182  22.153  22.943   7.653
 6558POPC   C1B22183  22.456  22.939   8.553
 6558POPC   C2B22184  22.371  22.929   8.253
 6558POPC   C3B22185  22.438  22.868   7.953
 6558POPC   C4B22186  22.375  22.904   7.653
 6559POPC   NC322187  15.155   8.165   9.453
 6559POPC   PO422188  15.214   8.190   9.153
 6559POPC   GL122189  15.152   8.225   8.853
 6559POPC   GL222190  15.187   8.071   8.853
 6559POPC   C1A22191  15.189   8.169   8.553
 6559POPC   D2A22192  15.218   8.242   8.253
 6559POPC   C3A22193  15.142   8.185   7.953
 6559POPC   C4A22194  15.134   8.230   7.653
 6559POPC   C1B22195  15.157   7.979   8.553
 6559POPC   C2B22196  15.067   7.975   8.253
 6559POPC   C3B22197  15.129   7.987   7.953
 6559POPC   C4B22198  15.071   7.920   7.653
 6560POPC   NC322199  26.799  37.672   9.453
 6560POPC   PO422200  26.855  37.718   9.153
 6560POPC   GL122201  26.797  37.685   8.853
 6560POPC   GL222202  26.840  37.527   8.853
 6560POPC   C1A22203  26.770  37.680   8.553
 6560POPC   D2A22204  26.842  37.688   8.253
 6560POPC   C3A22205  26.805  37.709   7.953
 6560POPC   C4A22206  26.807  37.631   7.653
 6560POPC   C1B22207  26.799  37.422   8.553
 6560POPC   C2B22208  26.824  37.395   8.253
 6560POPC   C3B22209  26.755  37.407   7.953
 6560POPC   C4B22210  26.850  37.399   7.653
 6561POPC   NC322211  13.636   8.995   9.453
 6561POPC   PO422212  13.580   9.020   9.153
 6561POPC   GL122213  13.582   8.985   8.853
 6561POPC   GL222214  13.546   8.993   8.853
 6561POPC   C1A22215  13.643   8.964   8.553
 6561POPC   D2A22216  13.677   8.932   8.253
 6561POPC   C3A22217  13.584   8.974   7.953
 6561POPC   C4A22218  13.650   8.988   7.653
 6561POPC   C1B22219  13.434   9.066   8.553
 6561POPC   C2B22220  13.349   9.056   8.253
 6561POPC   C3B22221  13.418   9.011   7.953
 6561POPC   C4B22222  13.368   9.026   7.653
 6562POPC   NC322223  44.674  43.923   9.453
 6562POPC   PO422224  44.634  43.846   9.153
 6562POPC   GL122225  44.692  43.891   8.853
 6562POPC   GL222226  44.724  43.822   8.853
 6562POPC   C1A22227  44.687  43.888   8.553
 6562POPC   D2A22228  44.676  43.893   8.253
 6562POPC   C3A22229  44.695  43.875   7.953
 6562POPC   C4A22230  44.622  43.889   7.653
 6562POPC   C1B22231  44.840  43.703   8.553
 6562POPC   C2B22232  44.833  43.692   8.253
 6562POPC   C3B22233  44.798  43.667   7.953
 6562POPC   C4B22234  44.836  43.739   7.653
 6563POPC   NC322235  34.529  20.599   9.453
 6563POPC   PO422236  34.595  20.608   9.153
 6563POPC   GL122237  34.613  20.626   8.853
 6563POPC   GL222238  34.418  20.641   8.853
 6563POPC   C1A22239  34.545  20.599   8.553
 6563POPC   D2A22240  34.611  20.629   8.253
 6563POPC   C3A22241  34.565  20.562   7.953
 6563POPC   C4A22242  34.574  20.612   7.653
 6563POPC   C1B22243  34.362  20.656   8.553
 6563POPC   C2B22244  34.361  20.751   8.253
 6563POPC   C3B22245  34.362  20.725   7.953
 6563POPC   C4B22246  34.304  20.704   7.653
 6564POPC   NC322247   9.760   7.403   9.453
 6564POPC   PO422248   9.791   7.453   9.153
 6564POPC   GL122249   9.700   7.413   8.853
 6564POPC   GL222250   9.793   7.359   8.853
 6564POPC   C1A22251   9.736   7.412   8.553
 6564POPC   D2A22252   9.776   7.429   8.253
 6564POPC   C3A22253   9.765   7.427   7.953
 6564POPC   C4A22254   9.722   7.400   7.653
 6564POPC   C1B22255   9.922   7.254   8.553
 6564POPC   C2B22256   9.928   7.177   8.253
 6564POPC   C3B22257   9.887   7.177   7.953
 6564POPC   C4B22258   9.882   7.262   7.653
 6565POPC   NC322259  26.797  42.384   9.453
 6565POPC   PO422260  26.786  42.326   9.153
 6565POPC   GL122261  26.838  42.383   8.853
 6565POPC   GL222262  26.659  42.406   8.853
 6565POPC   C1A22263  26.822  42.311   8.553
 6565POPC   D2A22264  26.838  42.338   8.253
 6565POPC   C3A22265  26.797  42.338   7.953
 6565POPC   C4A22266  26.861  42.379   7.653
 6565POPC   C1B22267  26.626  42.467   8.553
 6565POPC   C2B22268  26.593  42.471   8.253
 6565POPC   C3B22269  26.558  42.479   7.953
 6565POPC   C4B22270  26.635  42.437   7.653
 6566POPC   NC322271  22.915  39.963   9.453
 6566POPC   PO422272  22.942  40.042   9.153
 6566POPC   GL122273  22.896  40.021   8.853
 6566POPC   GL222274  23.058  40.086   8.853
 6566POPC   C1A22275  22.928  39.977   8.553
 6566POPC   D2A22276  22.930  39.994   8.253
 6566POPC   C3A22277  22.939  40.056   7.953
 6566POPC   C4A22278  22.913  40.041   7.653
 6566POPC   C1B22279  23.168  40.120   8.553
 6566POPC   C2B22280  23.155  40.121   8.253
 6566POPC   C3B22281  23.198  40.113   7.953
 6566POPC   C4B22282  23.171  40.136   7.653
 6567POPC   NC322283  12.843  31.452   9.453
 6567POPC   PO422284  12.898  31.511   9.153
 6567POPC   GL122285  12.822  31.495   8.853
 6567POPC   GL222286  12.786  31.641   8.853
 6567POPC   C1A22287  12.859  31.468   8.553
 6567POPC   D2A22288  12.838  31.433   8.253
 6567POPC   C3A22289  12.827  31.509   7.953
 6567POPC   C4A22290  12.851  31.510   7.653
 6567POPC   C1B22291  12.828  31.701   8.553
 6567POPC   C2B22292  12.773  31.697   8.253
 6567POPC   C3B22293  12.801  31.721   7.953
 6567POPC   C4B22294  12.756  31.764   7.653
 6568POPC   NC322295  15.917  43.893   9.453
 6568POPC   PO422296  15.953  43.885   9.153
 6568POPC   GL122297  15.937  43.936   8.853
 6568POPC   GL222298  15.798  43.843   8.853
 6568POPC   C1A22299  15.969  43.840   8.553
 6568POPC   D2A22300  15.987  43.892   8.253
 6568POPC   C3A22301  15.994  43.904   7.953
 6568POPC   C4A22302  15.914  43.846   7.653
 6568POPC   C1B22303  15.706  43.842   8.553
 6568POPC   C2B22304  15.708  43.878   8.253
 6568POPC   C3B22305  15.716  43.874   7.953
 6568POPC   C4B22306  15.706  43.862   7.653
 6569POPC   NC322307   8.964   1.988   9.453
 6569POPC   PO422308   8.925   2.030   9.153
 6569POPC   GL122309   8.984   1.993   8.853
 6569POPC   GL222310   9.104   2.007   8.853
 6569POPC   C1A22311   8.967   1.999   8.553
 6569POPC   D2A22312   9.014   2.014   8.253
 6569POPC   C3A22313   8.969   2.003   7.953
 6569POPC   C4A22314   8.989   2.017   7.653
 6569POPC   C1B22315   9.194   2.025   8.553
 6569POPC   C2B22316   9.253   2.055   8.253
 6569POPC   C3B22317   9.172   2.092   7.953
 6569POPC   C4B22318   9.173   2.045   7.653
 6570POPC   NC322319  32.263   5.851   9.453
 6570POPC   PO422320  32.218   5.833   9.153
 6570POPC   GL122321  32.206   5.902   8.853
 6570POPC   GL222322  32.116   5.788   8.853
 6570POPC   C1A22323  32.287   5.851   8.553
 6570POPC   D2A22324  32.212   5.890   8.253
 6570POPC   C3A22325  32.287   5.862   7.953
 6570POPC   C4A22326  32.215   5.848   7.653
 6570POPC   C1B22327  31.987   5.755   8.553
 6570POPC   C2B22328  32.000   5.754   8.253
 6570POPC   C3B22329  31.988   5.785   7.953
 6570POPC   C4B22330  31.981   5.780   7.653
 6571POPC   NC322331   2.729  40.765   9.453
 6571POPC   PO422332   2.794  40.811   9.153
 6571POPC   GL122333   2.801  40.830   8.853
 6571POPC   GL222334   2.817  40.930   8.853
 6571POPC   C1A22335   2.746  40.747   8.553
 6571POPC   D2A22336   2.720  40.766   8.253
 6571POPC   C3A22337   2.815  40.780   7.953
 6571POPC   C4A22338   2.748  40.760   7.653
 6571POPC   C1B22339   2.859  41.053   8.553
 6571POPC   C2B22340   2.895  41.057   8.253
 6571POPC   C3B22341   2.843  41.010   7.953
 6571POPC   C4B22342   2.887  41.014   7.653
 6572POPC   NC322343  38.496  11.251   9.453
 6572POPC   PO422344  38.497  11.271   9.153
 6572POPC   GL122345  38.415  11.312   8.853
 6572POPC   GL222346  38.555  11.325   8.853
 6572POPC   C1A22347  38.417  11.331   8.553
 6572POPC   D2A22348  38.420  11.321   8.253
 6572POPC   C3A22349  38.427  11.264   7.953
 6572POPC   C4A22350  38.440  11.339   7.653
 6572POPC   C1B22351  38.671  11.299   8.553
 6572POPC   C2B22352  38.704  11.342   8.253
 6572POPC   C3B22353  38.703  11.288   7.953
 6572POPC   C4B22354  38.667  11.327   7.653
 6573POPC   NC322355  17.531   3.570   9.453
 6573POPC   PO422356  17.528   3.501   9.153
 6573POPC   GL122357  17.469   3.561   8.853
 6573POPC   GL222358  17.418   3.538   8.853
 6573POPC   C1A22359  17.476   3.501   8.553
 6573POPC   D2A22360  17.483   3.531   8.253
 6573POPC   C3A22361  17.507   3.568   7.953
 6573POPC   C4A22362  17.462   3.591   7.653
 6573POPC   C1B22363  17.237   3.480   8.553
 6573POPC   C2B22364  17.262   3.476   8.253
 6573POPC   C3B22365  17.213   3.570   7.953
 6573POPC   C4B22366  17.278   3.561   7.653
 6574POPC   NC322367  26.060  38.496   9.453
 6574POPC   PO422368  26.073  38.439   9.153
 6574POPC   GL122369  26.006  38.460   8.853
 6574POPC   GL222370  26.147  38.529   8.853
 6574POPC   C1A22371  26.029  38.464   8.553
 6574POPC   D2A22372  26.037  38.417   8.253
 6574POPC   C3A22373  26.077  38.476   7.953
 6574POPC   C4A22374  25.992  38.491   7.653
 6574POPC   C1B22375  26.243  38.664   8.553
 6574POPC   C2B22376  26.272  38.574   8.253
 6574POPC   C3B22377  26.199  38.609   7.953
 6574POPC   C4B22378  26.203  38.580   7.653
 6575POPC   NC322379  10.566  29.963   9.453
 6575POPC   PO422380  10.553  29.871   9.153
 6575POPC   GL122381  10.540  29.875   8.853
 6575POPC   GL222382  10.612  29.908   8.853
 6575POPC   C1A22383  10.545  29.908   8.553
 6575POPC   D2A22384  10.563  29.934   8.253
 6575POPC   C3A22385  10.567  29.883   7.953
 6575POPC   C4A22386  10.478  29.872   7.653
 6575POPC   C1B22387  10.782  29.939   8.553
 6575POPC   C2B22388  10.814  29.958   8.253
 6575POPC   C3B22389  10.747  29.931   7.953
 6575POPC   C4B22390  10.817  29.938   7.653
 6576POPC   NC322391  34.586  33.795   9.453
 6576POPC   PO422392  34.589  33.804   9.153
 6576POPC   GL122393  34.585  33.803   8.853
 6576POPC   GL222394  34.450  33.794   8.853
 6576POPC   C1A22395  34.621  33.842   8.553
 6576POPC   D2A22396  34.559  33.776   8.253
 6576POPC   C3A22397  34.611  33.793   7.953
 6576POPC   C4A22398  34.575  33.755   7.653
 6576POPC   C1B22399  34.369  33.734   8.553
 6576POPC   C2B22400  34.323  33.797   8.253
 6576POPC   C3B22401  34.371  33.728   7.953
 6576POPC   C4B22402  34.282  33.790   7.653
 6577POPC   NC322403  22.128  14.379   9.453
 6577POPC   PO422404  22.202  14.370   9.153
 6577POPC   GL122405  22.141  14.368   8.853
 6577POPC   GL222406  22.175  14.489   8.853
 6577POPC   C1A22407  22.128  14.419   8.553
 6577POPC   D2A22408  22.202  14.448   8.253
 6577POPC   C3A22409  22.120  14.372   7.953
 6577POPC   C4A22410  22.207  14.418   7.653
 6577POPC   C1B22411  22.192  14.634   8.553
 6577POPC   C2B22412  22.157  14.691   8.253
 6577POPC   C3B22413  22.168  14.685   7.953
 6577POPC   C4B22414  22.112  14.681   7.653
 6578POPC   NC322415  23.671  34.622   9.453
 6578POPC   PO422416  23.708  34.574   9.153
 6578POPC   GL122417  23.753  34.617   8.853
 6578POPC   GL222418  23.867  34.523   8.853
 6578POPC   C1A22419  23.698  34.574   8.553
 6578POPC   D2A22420  23.727  34.547   8.253
 6578POPC   C3A22421  23.695  34.596   7.953
 6578POPC   C4A22422  23.698  34.610   7.653
 6578POPC   C1B22423  23.896  34.412   8.553
 6578POPC   C2B22424  23.928  34.410   8.253
 6578POPC   C3B22425  23.946  34.476   7.953
 6578POPC   C4B22426  23.925  34.450   7.653
 6579POPC   NC322427  43.879  24.531   9.453
 6579POPC   PO422428  43.911  24.488   9.153
 6579POPC   GL122429  43.847  24.519   8.853
 6579POPC   GL222430  43.917  24.375   8.853
 6579POPC   C1A22431  43.867  24.479   8.553
 6579POPC   D2A22432  43.888  24.507   8.253
 6579POPC   C3A22433  43.912  24.460   7.953
 6579POPC   C4A22434  43.911  24.495   7.653
 6579POPC   C1B22435  43.939  24.282   8.553
 6579POPC   C2B22436  43.892  24.209   8.253
 6579POPC   C3B22437  43.927  24.227   7.953
 6579POPC   C4B22438  43.903  24.269   7.653
 6580POPC   NC322439  31.480  26.823   9.453
 6580POPC   PO422440  31.484  26.768   9.153
 6580POPC   GL122441  31.522  26.827   8.853
 6580POPC   GL222442  31.556  26.906   8.853
 6580POPC   C1A22443  31.481  26.865   8.553
 6580POPC   D2A22444  31.432  26.820   8.253
 6580POPC   C3A22445  31.433  26.847   7.953
 6580POPC   C4A22446  31.461  26.812   7.653
 6580POPC   C1B22447  31.617  27.077   8.553
 6580POPC   C2B22448  31.593  27.067   8.253
 6580POPC   C3B22449  31.629  27.005   7.953
 6580POPC   C4B22450  31.621  27.021   7.653
 6581POPC   NC322451  16.718  26.065   9.453
 6581POPC   PO422452  16.757  26.043   9.153
 6581POPC   GL122453  16.692  25.996   8.853
 6581POPC   GL222454  16.773  25.936   8.853
 6581POPC   C1A22455  16.720  26.071   8.553
 6581POPC   D2A22456  16.683  26.068   8.253
 6581POPC   C3A22457  16.698  26.089   7.953
 6581POPC   C4A22458  16.701  26.088   7.653
 6581POPC   C1B22459  16.881  25.825   8.553
 6581POPC   C2B22460  16.848  25.897   8.253
 6581POPC   C3B22461  16.888  25.827   7.953
 6581POPC   C4B22462  16.925  25.867   7.653
 6582POPC   NC322463  12.902   0.461   9.453
 6582POPC   PO422464  12.861   0.392   9.153
 6582POPC   GL122465  12.828   0.397   8.853
 6582POPC   GL222466  12.941   0.485   8.853
 6582POPC   C1A22467  12.862   0.449   8.553
 6582POPC   D2A22468  12.820   0.405   8.253
 6582POPC   C3A22469  12.900   0.482   7.953
 6582POPC   C4A22470  12.856   0.448   7.653
 6582POPC   C1B22471  13.070   0.513   8.553
 6582POPC   C2B22472  13.109   0.532   8.253
 6582POPC   C3B22473  13.060   0.468   7.953
 6582POPC   C4B22474  13.131   0.457   7.653
 6583POPC   NC322475  22.951   1.979   9.453
 6583POPC   PO422476  22.958   2.023   9.153
 6583POPC   GL122477  22.912   1.940   8.853
 6583POPC   GL222478  23.095   2.082   8.853
 6583POPC   C1A22479  22.926   2.015   8.553
 6583POPC   D2A22480  22.909   1.998   8.253
 6583POPC   C3A22481  22.942   2.010   7.953
 6583POPC   C4A22482  22.984   2.009   7.653
 6583POPC   C1B22483  23.133   2.094   8.553
 6583POPC   C2B22484  23.159   2.097   8.253
 6583POPC   C3B22485  23.148   2.138   7.953
 6583POPC   C4B22486  23.168   2.123   7.653
 6584POPC   NC322487  19.049  19.010   9.453
 6584POPC   PO422488  19.089  19.013   9.153
 6584POPC   GL122489  19.108  19.052   8.853
 6584POPC   GL222490  18.940  18.936   8.853
 6584POPC   C1A22491  19.078  19.068   8.553
 6584POPC   D2A22492  19.064  19.038   8.253
 6584POPC   C3A22493  19.048  19.100   7.953
 6584POPC   C4A22494  19.035  19.073   7.653
 6584POPC   C1B22495  18.865  18.870   8.553
 6584POPC   C2B22496  18.931  18.898   8.253
 6584POPC   C3B22497  18.897  18.839   7.953
 6584POPC   C4B22498  18.885  18.859   7.653
 6585POPC   NC322499  33.790  15.930   9.453
 6585POPC   PO422500  33.815  15.905   9.153
 6585POPC   GL122501  33.757  15.928   8.853
 6585POPC   GL222502  33.931  16.022   8.853
 6585POPC   C1A22503  33.777  15.928   8.553
 6585POPC   D2A22504  33.805  15.962   8.253
 6585POPC   C3A22505  33.830  15.961   7.953
 6585POPC   C4A22506  33.754  15.917   7.653
 6585POPC   C1B22507  34.078  16.012   8.553
 6585POPC   C2B22508  34.018  16.093   8.253
 6585POPC   C3B22509  34.039  16.061   7.953
 6585POPC   C4B22510  34.064  16.025   7.653
 6586POPC   NC322511  38.480  34.534   9.453
 6586POPC   PO422512  38.465  34.567   9.153
 6586POPC   GL122513  38.423  34.546   8.853
 6586POPC   GL222514  38.316  34.506   8.853
 6586POPC   C1A22515  38.483  34.603   8.553
 6586POPC   D2A22516  38.469  34.577   8.253
 6586POPC   C3A22517  38.501  34.586   7.953
 6586POPC   C4A22518  38.424  34.560   7.653
 6586POPC   C1B22519  38.257  34.415   8.553
 6586POPC   C2B22520  38.305  34.393   8.253
 6586POPC   C3B22521  38.236  34.424   7.953
 6586POPC   C4B22522  38.217  34.423   7.653
 6587POPC   NC322523  22.973  25.223   9.453
 6587POPC   PO422524  22.972  25.314   9.153
 6587POPC   GL122525  22.925  25.271   8.853
 6587POPC   GL222526  23.067  25.320   8.853
 6587POPC   C1A22527  22.961  25.266   8.553
 6587POPC   D2A22528  22.956  25.259   8.253
 6587POPC   C3A22529  22.965  25.252   7.953
 6587POPC   C4A22530  22.983  25.234   7.653
 6587POPC   C1B22531  23.182  25.292   8.553
 6587POPC   C2B22532  23.161  25.243   8.253
 6587POPC   C3B22533  23.138  25.255   7.953
 6587POPC   C4B22534  23.208  25.272   7.653
 6588POPC   NC322535  41.512  18.328   9.453
 6588POPC   PO422536  41.532  18.249   9.153
 6588POPC   GL122537  41.552  18.291   8.853
 6588POPC   GL222538  41.676  18.157   8.853
 6588POPC   C1A22539  41.592  18.243   8.553
 6588POPC   D2A22540  41.562  18.287   8.253
 6588POPC   C3A22541  41.521  18.305   7.953
 6588POPC   C4A22542  41.601  18.257   7.653
 6588POPC   C1B22543  41.742  18.119   8.553
 6588POPC   C2B22544  41.701  18.096   8.253
 6588POPC   C3B22545  41.731  18.137   7.953
 6588POPC   C4B22546  41.694  18.061   7.653
 6589POPC   NC322547   5.112   8.176   9.453
 6589POPC   PO422548   5.097   8.177   9.153
 6589POPC   GL122549   5.080   8.197   8.853
 6589POPC   GL222550   4.996   8.341   8.853
 6589POPC   C1A22551   5.073   8.164   8.553
 6589POPC   D2A22552   5.076   8.207   8.253
 6589POPC   C3A22553   5.075   8.205   7.953
 6589POPC   C4A22554   5.111   8.187   7.653
 6589POPC   C1B22555   5.015   8.379   8.553
 6589POPC   C2B22556   4.991   8.450   8.253
 6589POPC   C3B22557   5.012   8.429   7.953
 6589POPC   C4B22558   5.028   8.388   7.653
 6590POPC   NC322559  40.786   4.360   9.453
 6590POPC   PO422560  40.762   4.359   9.153
 6590POPC   GL122561  40.785   4.278   8.853
 6590POPC   GL222562  40.870   4.377   8.853
 6590POPC   C1A22563  40.741   4.314   8.553
 6590POPC   D2A22564  40.744   4.325   8.253
 6590POPC   C3A22565  40.783   4.277   7.953
 6590POPC   C4A22566  40.806   4.311   7.653
 6590POPC   C1B22567  40.925   4.539   8.553
 6590POPC   C2B22568  40.989   4.466   8.253
 6590POPC   C3B22569  40.954   4.528   7.953
 6590POPC   C4B22570  40.974   4.477   7.653
 6591POPC   NC322571  38.473  32.213   9.453
 6591POPC   PO422572  38.456  32.276   9.153
 6591POPC   GL122573  38.473  32.232   8.853
 6591POPC   GL222574  38.379  32.253   8.853
 6591POPC   C1A22575  38.444  32.259   8.553
 6591POPC   D2A22576  38.491  32.238   8.253
 6591POPC   C3A22577  38.434  32.297   7.953
 6591POPC   C4A22578  38.438  32.257   7.653
 6591POPC   C1B22579  38.224  32.268   8.553
 6591POPC   C2B22580  38.227  32.250   8.253
 6591POPC   C3B22581  38.245  32.276   7.953
 6591POPC   C4B22582  38.155  32.224   7.653
 6592POPC   NC322583  28.334  37.649   9.453
 6592POPC   PO422584  28.352  37.727   9.153
 6592POPC   GL122585  28.346  37.646   8.853
 6592POPC   GL222586  28.511  37.649   8.853
 6592POPC   C1A22587  28.405  37.653   8.553
 6592POPC   D2A22588  28.349  37.708   8.253
 6592POPC   C3A22589  28.365  37.663   7.953
 6592POPC   C4A22590  28.408  37.658   7.653
 6592POPC   C1B22591  28.665  37.718   8.553
 6592POPC   C2B22592  28.666  37.674   8.253
 6592POPC   C3B22593  28.597  37.702   7.953
 6592POPC   C4B22594  28.576  37.662   7.653
 6593POPC   NC322595  31.463  43.087   9.453
 6593POPC   PO422596  31.454  43.084   9.153
 6593POPC   GL122597  31.478  43.144   8.853
 6593POPC   GL222598  31.619  43.109   8.853
 6593POPC   C1A22599  31.434  43.087   8.553
 6593POPC   D2A22600  31.518  43.129   8.253
 6593POPC   C3A22601  31.437  43.120   7.953
 6593POPC   C4A22602  31.471  43.127   7.653
 6593POPC   C1B22603  31.747  43.177   8.553
 6593POPC   C2B22604  31.682  43.166   8.253
 6593POPC   C3B22605  31.771  43.164   7.953
 6593POPC   C4B22606  31.733  43.179   7.653
 6594POPC   NC322607  12.097  33.803   9.453
 6594POPC   PO422608  12.106  33.803   9.153
 6594POPC   GL122609  12.124  33.752   8.853
 6594POPC   GL222610  12.181  33.855   8.853
 6594POPC   C1A22611  12.059  33.783   8.553
 6594POPC   D2A22612  12.118  33.810   8.253
 6594POPC   C3A22613  12.028  33.827   7.953
 6594POPC   C4A22614  12.064  33.848   7.653
 6594POPC   C1B22615  12.241  33.941   8.553
 6594POPC   C2B22616  12.243  34.001   8.253
 6594POPC   C3B22617  12.210  34.002   7.953
 6594POPC   C4B22618  12.274  33.984   7.653
 6595POPC   NC322619  32.270  34.607   9.453
 6595POPC   PO422620  32.207  34.555   9.153
 6595POPC   GL122621  32.259  34.607   8.853
 6595POPC   GL222622  32.371  34.670   8.853
 6595POPC   C1A22623  32.283  34.547   8.553
 6595POPC   D2A22624  32.209  34.598   8.253
 6595POPC   C3A22625  32.260  34.545   7.953
 6595POPC   C4A22626  32.209  34.599   7.653
 6595POPC   C1B22627  32.384  34.805   8.553
 6595POPC   C2B22628  32.427  34.735   8.253
 6595POPC   C3B22629  32.440  34.728   7.953
 6595POPC   C4B22630  32.366  34.785   7.653
 6596POPC   NC322631  22.136  25.309   9.453
 6596POPC   PO422632  22.199  25.268   9.153
 6596POPC   GL122633  22.185  25.274   8.853
 6596POPC   GL222634  22.075  25.239   8.853
 6596POPC   C1A22635  22.160  25.233   8.553
 6596POPC   D2A22636  22.203  25.259   8.253
 6596POPC   C3A22637  22.198  25.284   7.953
 6596POPC   C4A22638  22.143  25.309   7.653
 6596POPC   C1B22639  21.929  25.280   8.553
 6596POPC   C2B22640  21.929  25.212   8.253
 6596POPC   C3B22641  21.895  25.205   7.953
 6596POPC   C4B22642  21.923  25.232   7.653
 6597POPC   NC322643  36.859  43.126   9.453
 6597POPC   PO422644  36.941  43.078   9.153
 6597POPC   GL122645  36.866  43.082   8.853
 6597POPC   GL222646  36.847  43.251   8.853
 6597POPC   C1A22647  36.935  43.076   8.553
 6597POPC   D2A22648  36.857  43.135   8.253
 6597POPC   C3A22649  36.899  43.064   7.953
 6597POPC   C4A22650  36.902  43.158   7.653
 6597POPC   C1B22651  36.855  43.362   8.553
 6597POPC   C2B22652  36.779  43.336   8.253
 6597POPC   C3B22653  36.795  43.359   7.953
 6597POPC   C4B22654  36.778  43.313   7.653
 6598POPC   NC322655  36.153  26.051   9.453
 6598POPC   PO422656  36.083  26.069   9.153
 6598POPC   GL122657  36.101  26.050   8.853
 6598POPC   GL222658  36.115  26.181   8.853
 6598POPC   C1A22659  36.174  26.086   8.553
 6598POPC   D2A22660  36.148  26.083   8.253
 6598POPC   C3A22661  36.098  26.089   7.953
 6598POPC   C4A22662  36.165  26.030   7.653
 6598POPC   C1B22663  36.071  26.259   8.553
 6598POPC   C2B22664  36.103  26.304   8.253
 6598POPC   C3B22665  36.130  26.286   7.953
 6598POPC   C4B22666  36.125  26.291   7.653
 6599POPC   NC322667  29.951  26.039   9.453
 6599POPC   PO422668  29.886  26.073   9.153
 6599POPC   GL122669  29.872  26.009   8.853
 6599POPC   GL222670  29.805  26.116   8.853
 6599POPC   C1A22671  29.918  26.019   8.553
 6599POPC   D2A22672  29.874  26.004   8.253
 6599POPC   C3A22673  29.952  26.026   7.953
 6599POPC   C4A22674  29.934  26.033   7.653
 6599POPC   C1B22675  29.678  26.180   8.553
 6599POPC   C2B22676  29.727  26.145   8.253
 6599POPC   C3B22677  29.743  26.207   7.953
 6599POPC   C4B22678  29.705  26.167   7.653
 6600POPC   NC322679   4.315  15.978   9.453
 6600POPC   PO422680   4.340  15.936   9.153
 6600POPC   GL122681   4.338  15.951   8.853
 6600POPC   GL222682   4.221  16.070   8.853
 6600POPC   C1A22683   4.334  15.987   8.553
 6600POPC   D2A22684   4.364  15.979   8.253
 6600POPC   C3A22685   4.353  15.945   7.953
 6600POPC   C4A22686   4.337  15.981   7.653
 6600POPC   C1B22687   4.139  16.102   8.553
 6600POPC   C2B22688   4.101  16.075   8.253
 6600POPC   C3B22689   4.101  16.136   7.953
 6600POPC   C4B22690   4.122  16.079   7.653
 6601POPC   NC322691  40.032   5.912   9.453
 6601POPC   PO422692  40.033   5.839   9.153
 6601POPC   GL122693  40.040   5.901   8.853
 6601POPC   GL222694  39.891   5.934   8.853
 6601POPC   C1A22695  40.033   5.831   8.553
 6601POPC   D2A22696  40.014   5.900   8.253
 6601POPC   C3A22697  40.013   5.899   7.953
 6601POPC   C4A22698  39.977   5.830   7.653
 6601POPC   C1B22699  39.806   5.892   8.553
 6601POPC   C2B22700  39.791   5.966   8.253
 6601POPC   C3B22701  39.767   5.966   7.953
 6601POPC   C4B22702  39.749   5.950   7.653
 6602POPC   NC322703  15.170   1.962   9.453
 6602POPC   PO422704  15.168   1.998   9.153
 6602POPC   GL122705  15.184   1.992   8.853
 6602POPC   GL222706  15.237   1.911   8.853
 6602POPC   C1A22707  15.145   1.994   8.553
 6602POPC   D2A22708  15.146   2.000   8.253
 6602POPC   C3A22709  15.176   1.958   7.953
 6602POPC   C4A22710  15.164   2.017   7.653
 6602POPC   C1B22711  15.302   1.796   8.553
 6602POPC   C2B22712  15.366   1.747   8.253
 6602POPC   C3B22713  15.302   1.825   7.953
 6602POPC   C4B22714  15.309   1.750   7.653
 6603POPC   NC322715  44.651  40.005   9.453
 6603POPC   PO422716  44.695  40.048   9.153
 6603POPC   GL122717  44.618  40.020   8.853
 6603POPC   GL222718  44.717  40.127   8.853
 6603POPC   C1A22719  44.677  40.005   8.553
 6603POPC   D2A22720  44.614  40.007   8.253
 6603POPC   C3A22721  44.709  40.002   7.953
 6603POPC   C4A22722  44.626  39.987   7.653
 6603POPC   C1B22723  44.860  40.227   8.553
 6603POPC   C2B22724  44.789  40.202   8.253
 6603POPC   C3B22725  44.868  40.219   7.953
 6603POPC   C4B22726  44.817  40.246   7.653
 6604POPC   NC322727  19.867  39.188   9.453
 6604POPC   PO422728  19.813  39.227   9.153
 6604POPC   GL122729  19.884  39.245   8.853
 6604POPC   GL222730  19.795  39.322   8.853
 6604POPC   C1A22731  19.829  39.203   8.553
 6604POPC   D2A22732  19.788  39.197   8.253
 6604POPC   C3A22733  19.792  39.205   7.953
 6604POPC   C4A22734  19.830  39.236   7.653
 6604POPC   C1B22735  19.778  39.456   8.553
 6604POPC   C2B22736  19.751  39.482   8.253
 6604POPC   C3B22737  19.814  39.518   7.953
 6604POPC   C4B22738  19.809  39.513   7.653
 6605POPC   NC322739  36.865  37.676   9.453
 6605POPC   PO422740  36.877  37.703   9.153
 6605POPC   GL122741  36.925  37.637   8.853
 6605POPC   GL222742  36.931  37.582   8.853
 6605POPC   C1A22743  36.900  37.715   8.553
 6605POPC   D2A22744  36.884  37.634   8.253
 6605POPC   C3A22745  36.949  37.723   7.953
 6605POPC   C4A22746  36.946  37.662   7.653
 6605POPC   C1B22747  37.094  37.529   8.553
 6605POPC   C2B22748  37.092  37.509   8.253
 6605POPC   C3B22749  37.055  37.497   7.953
 6605POPC   C4B22750  37.052  37.470   7.653
 6606POPC   NC322751  16.777   7.380   9.453
 6606POPC   PO422752  16.686   7.432   9.153
 6606POPC   GL122753  16.729   7.385   8.853
 6606POPC   GL222754  16.812   7.367   8.853
 6606POPC   C1A22755  16.744   7.399   8.553
 6606POPC   D2A22756  16.777   7.427   8.253
 6606POPC   C3A22757  16.726   7.463   7.953
 6606POPC   C4A22758  16.706   7.466   7.653
 6606POPC   C1B22759  16.946   7.346   8.553
 6606POPC   C2B22760  16.930   7.365   8.253
 6606POPC   C3B22761  16.950   7.331   7.953
 6606POPC   C4B22762  16.965   7.333   7.653
 6607POPC   NC322763  15.974   4.331   9.453
 6607POPC   PO422764  15.939   4.295   9.153
 6607POPC   GL122765  15.945   4.287   8.853
 6607POPC   GL222766  16.061   4.172   8.853
 6607POPC   C1A22767  15.965   4.301   8.553
 6607POPC   D2A22768  15.950   4.284   8.253
 6607POPC   C3A22769  15.958   4.274   7.953
 6607POPC   C4A22770  15.964   4.284   7.653
 6607POPC   C1B22771  16.098   4.075   8.553
 6607POPC   C2B22772  16.079   4.084   8.253
 6607POPC   C3B22773  16.056   4.128   7.953
 6607POPC   C4B22774  16.046   4.143   7.653
 6608POPC   NC322775  26.843  30.657   9.453
 6608POPC   PO422776  26.862  30.716   9.153
 6608POPC   GL122777  26.793  30.669   8.853
 6608POPC   GL222778  26.939  30.645   8.853
 6608POPC   C1A22779  26.798  30.660   8.553
 6608POPC   D2A22780  26.806  30.680   8.253
 6608POPC   C3A22781  26.773  30.704   7.953
 6608POPC   C4A22782  26.840  30.661   7.653
 6608POPC   C1B22783  27.033  30.538   8.553
 6608POPC   C2B22784  27.044  30.558   8.253
 6608POPC   C3B22785  27.007  30.612   7.953
 6608POPC   C4B22786  27.063  30.525   7.653
 6609POPC   NC322787  20.652  36.862   9.453
 6609POPC   PO422788  20.583  36.939   9.153
 6609POPC   GL122789  20.622  36.880   8.853
 6609POPC   GL222790  20.770  36.836   8.853
 6609POPC   C1A22791  20.624  36.901   8.553
 6609POPC   D2A22792  20.583  36.910   8.253
 6609POPC   C3A22793  20.572  36.946   7.953
 6609POPC   C4A22794  20.585  36.932   7.653
 6609POPC   C1B22795  20.823  36.789   8.553
 6609POPC   C2B22796  20.864  36.865   8.253
 6609POPC   C3B22797  20.880  36.853   7.953
 6609POPC   C4B22798  20.859  36.803   7.653
 6610POPC   NC322799  15.147   2.804   9.453
 6610POPC   PO422800  15.209   2.797   9.153
 6610POPC   GL122801  15.140   2.740   8.853
 6610POPC   GL222802  15.263   2.851   8.853
 6610POPC   C1A22803  15.174   2.749   8.553
 6610POPC   D2A22804  15.221   2.795   8.253
 6610POPC   C3A22805  15.131   2.737   7.953
 6610POPC   C4A22806  15.180   2.812   7.653
 6610POPC   C1B22807  15.387   2.932   8.553
 6610POPC   C2B22808  15.355   2.942   8.253
 6610POPC   C3B22809  15.439   2.904   7.953
 6610POPC   C4B22810  15.388   2.901   7.653
 6611POPC   NC322811  12.866   9.788   9.453
 6611POPC   PO422812  12.816   9.740   9.153
 6611POPC   GL122813  12.843   9.723   8.853
 6611POPC   GL222814  12.781   9.690   8.853
 6611POPC   C1A22815  12.887   9.710   8.553
 6611POPC   D2A22816  12.856   9.746   8.253
 6611POPC   C3A22817  12.876   9.710   7.953
 6611POPC   C4A22818  12.804   9.790   7.653
 6611POPC   C1B22819  12.637   9.528   8.553
 6611POPC   C2B22820  12.702   9.544   8.253
 6611POPC   C3B22821  12.699   9.578   7.953
 6611POPC   C4B22822  12.679   9.604   7.653
 6612POPC   NC322823  12.106  39.978   9.453
 6612POPC   PO422824  12.104  39.990   9.153
 6612POPC   GL122825  12.066  40.018   8.853
 6612POPC   GL222826  12.154  39.930   8.853
 6612POPC   C1A22827  12.120  40.047   8.553
 6612POPC   D2A22828  12.032  40.008   8.253
 6612POPC   C3A22829  12.120  40.001   7.953
 6612POPC   C4A22830  12.122  39.973   7.653
 6612POPC   C1B22831  12.192  39.740   8.553
 6612POPC   C2B22832  12.171  39.765   8.253
 6612POPC   C3B22833  12.124  39.765   7.953
 6612POPC   C4B22834  12.167  39.785   7.653
 6613POPC   NC322835  22.137  27.553   9.453
 6613POPC   PO422836  22.116  27.598   9.153
 6613POPC   GL122837  22.130  27.638   8.853
 6613POPC   GL222838  22.277  27.522   8.853
 6613POPC   C1A22839  22.143  27.576   8.553
 6613POPC   D2A22840  22.159  27.619   8.253
 6613POPC   C3A22841  22.128  27.584   7.953
 6613POPC   C4A22842  22.132  27.625   7.653
 6613POPC   C1B22843  22.353  27.552   8.553
 6613POPC   C2B22844  22.421  27.483   8.253
 6613POPC   C3B22845  22.435  27.500   7.953
 6613POPC   C4B22846  22.360  27.528   7.653
 6614POPC   NC322847  43.849  36.951   9.453
 6614POPC   PO422848  43.893  36.914   9.153
 6614POPC   GL122849  43.868  36.865   8.853
 6614POPC   GL222850  44.006  36.997   8.853
 6614POPC   C1A22851  43.913  36.937   8.553
 6614POPC   D2A22852  43.848  36.922   8.253
 6614POPC   C3A22853  43.896  36.949   7.953
 6614POPC   C4A22854  43.864  36.931   7.653
 6614POPC   C1B22855  44.084  37.107   8.553
 6614POPC   C2B22856  44.016  37.078   8.253
 6614POPC   C3B22857  44.057  37.127   7.953
 6614POPC   C4B22858  44.063  37.040   7.653
 6615POPC   NC322859   8.175  18.312   9.453
 6615POPC   PO422860   8.228  18.299   9.153
 6615POPC   GL122861   8.171  18.317   8.853
 6615POPC   GL222862   8.310  18.269   8.853
 6615POPC   C1A22863   8.169  18.278   8.553
 6615POPC   D2A22864   8.239  18.325   8.253
 6615POPC   C3A22865   8.169  18.253   7.953
 6615POPC   C4A22866   8.166  18.265   7.653
 6615POPC   C1B22867   8.470  18.259   8.553
 6615POPC   C2B22868   8.492  18.306   8.253
 6615POPC   C3B22869   8.399  18.298   7.953
 6615POPC   C4B22870   8.496  18.256   7.653
 6616POPC   NC322871  24.527  16.776   9.453
 6616POPC   PO422872  24.516  16.779   9.153
 6616POPC   GL122873  24.492  16.745   8.853
 6616POPC   GL222874  24.498  16.576   8.853
 6616POPC   C1A22875  24.463  16.745   8.553
 6616POPC   D2A22876  24.450  16.691   8.253
 6616POPC   C3A22877  24.500  16.765   7.953
 6616POPC   C4A22878  24.539  16.776   7.653
 6616POPC   C1B22879  24.465  16.517   8.553
 6616POPC   C2B22880  24.429  16.530   8.253
 6616POPC   C3B22881  24.508  16.435   7.953
 6616POPC   C4B22882  24.522  16.441   7.653
 6617POPC   NC322883  12.047  24.447   9.453
 6617POPC   PO422884  12.103  24.472   9.153
 6617POPC   GL122885  12.077  24.496   8.853
 6617POPC   GL222886  12.169  24.429   8.853
 6617POPC   C1A22887  12.046  24.494   8.553
 6617POPC   D2A22888  12.103  24.494   8.253
 6617POPC   C3A22889  12.028  24.460   7.953
 6617POPC   C4A22890  12.040  24.513   7.653
 6617POPC   C1B22891  12.227  24.238   8.553
 6617POPC   C2B22892  12.180  24.270   8.253
 6617POPC   C3B22893  12.242  24.260   7.953
 6617POPC   C4B22894  12.177  24.258   7.653
 6618POPC   NC322895  10.544  11.254   9.453
 6618POPC   PO422896  10.542  11.337   9.153
 6618POPC   GL122897  10.566  11.339   8.853
 6618POPC   GL222898  10.445  11.407   8.853
 6618POPC   C1A22899  10.489  11.271   8.553
 6618POPC   D2A22900  10.564  11.296   8.253
 6618POPC   C3A22901  10.509  11.307   7.953
 6618POPC   C4A22902  10.504  11.305   7.653
 6618POPC   C1B22903  10.387  11.550   8.553
 6618POPC   C2B22904  10.404  11.478   8.253
 6618POPC   C3B22905  10.458  11.546   7.953
 6618POPC   C4B22906  10.441  11.507   7.653
 6619POPC   NC322907  28.407  43.139   9.453
 6619POPC   PO422908  28.377  43.090   9.153
 6619POPC   GL122909  28.369  43.138   8.853
 6619POPC   GL222910  28.302  43.205   8.853
 6619POPC   C1A22911  28.393  43.091   8.553
 6619POPC   D2A22912  28.357  43.110   8.253
 6619POPC   C3A22913  28.412  43.100   7.953
 6619POPC   C4A22914  28.348  43.113   7.653
 6619POPC   C1B22915  28.276  43.348   8.553
 6619POPC   C2B22916  28.299  43.379   8.253
 6619POPC   C3B22917  28.278  43.354   7.953
 6619POPC   C4B22918  28.295  43.352   7.653
 6620POPC   NC322919   0.438  29.136   9.453
 6620POPC   PO422920   0.472  29.183   9.153
 6620POPC   GL122921   0.458  29.105   8.853
 6620POPC   GL222922   0.515  29.169   8.853
 6620POPC   C1A22923   0.423  29.115   8.553
 6620POPC   D2A22924   0.411  29.128   8.253
 6620POPC   C3A22925   0.463  29.113   7.953
 6620POPC   C4A22926   0.459  29.120   7.653
 6620POPC   C1B22927   0.644  29.197   8.553
 6620POPC   C2B22928   0.680  29.205   8.253
 6620POPC   C3B22929   0.686  29.121   7.953
 6620POPC   C4B22930   0.657  29.195   7.653
 6621POPC   NC322931  43.882  29.191   9.453
 6621POPC   PO422932  43.882  29.154   9.153
 6621POPC   GL122933  43.863  29.175   8.853
 6621POPC   GL222934  43.815  29.273   8.853
 6621POPC   C1A22935  43.839  29.137   8.553
 6621POPC   D2A22936  43.875  29.176   8.253
 6621POPC   C3A22937  43.878  29.122   7.953
 6621POPC   C4A22938  43.848  29.117   7.653
 6621POPC   C1B22939  43.736  29.367   8.553
 6621POPC   C2B22940  43.786  29.385   8.253
 6621POPC   C3B22941  43.778  29.352   7.953
 6621POPC   C4B22942  43.754  29.386   7.653
 6622POPC   NC322943  14.361   1.228   9.453
 6622POPC   PO422944  14.413   1.245   9.153
 6622POPC   GL122945  14.401   1.248   8.853
 6622POPC   GL222946  14.338   1.088   8.853
 6622POPC   C1A22947  14.402   1.166   8.553
 6622POPC   D2A22948  14.371   1.210   8.253
 6622POPC   C3A22949  14.400   1.180   7.953
 6622POPC   C4A22950  14.403   1.200   7.653
 6622POPC   C1B22951  14.386   0.968   8.553
 6622POPC   C2B22952  14.357   1.019   8.253
 6622POPC   C3B22953  14.325   0.989   7.953
 6622POPC   C4B22954  14.340   1.018   7.653
 6623POPC   NC322955  27.556  30.708   9.453
 6623POPC   PO422956  27.549  30.655   9.153
 6623POPC   GL122957  27.632  30.743   8.853
 6623POPC   GL222958  27.499  30.822   8.853
 6623POPC   C1A22959  27.562  30.693   8.553
 6623POPC   D2A22960  27.585  30.725   8.253
 6623POPC   C3A22961  27.547  30.718   7.953
 6623POPC   C4A22962  27.584  30.675   7.653
 6623POPC   C1B22963  27.434  30.814   8.553
 6623POPC   C2B22964  27.382  30.827   8.253
 6623POPC   C3B22965  27.433  30.824   7.953
 6623POPC   C4B22966  27.429  30.890   7.653
 6624POPC   NC322967   2.743   8.194   9.453
 6624POPC   PO422968   2.810   8.215   9.153
 6624POPC   GL122969   2.754   8.192   8.853
 6624POPC   GL222970   2.745   8.279   8.853
 6624POPC   C1A22971   2.789   8.203   8.553
 6624POPC   D2A22972   2.789   8.244   8.253
 6624POPC   C3A22973   2.807   8.213   7.953
 6624POPC   C4A22974   2.722   8.149   7.653
 6624POPC   C1B22975   2.691   8.431   8.553
 6624POPC   C2B22976   2.756   8.478   8.253
 6624POPC   C3B22977   2.726   8.471   7.953
 6624POPC   C4B22978   2.763   8.488   7.653
 6625POPC   NC322979   0.407  19.089   9.453
 6625POPC   PO422980   0.475  19.075   9.153
 6625POPC   GL122981   0.435  19.025   8.853
 6625POPC   GL222982   0.388  18.996   8.853
 6625POPC   C1A22983   0.467  19.080   8.553
 6625POPC   D2A22984   0.469  19.063   8.253
 6625POPC   C3A22985   0.431  19.010   7.953
 6625POPC   C4A22986   0.422  19.025   7.653
 6625POPC   C1B22987   0.259  18.921   8.553
 6625POPC   C2B22988   0.229  18.938   8.253
 6625POPC   C3B22989   0.283  18.930   7.953
 6625POPC   C4B22990   0.243  18.910   7.653
 6626POPC   NC322991  44.693  34.566   9.453
 6626POPC   PO422992  44.696  34.553   9.153
 6626POPC   GL122993  44.682  34.602   8.853
 6626POPC   GL222994  44.583  34.620   8.853
 6626POPC   C1A22995  44.676  34.566   8.553
 6626POPC   D2A22996  44.639  34.549   8.253
 6626POPC   C3A22997  44.639  34.541   7.953
 6626POPC   C4A22998  44.644  34.536   7.653
 6626POPC   C1B22999  44.419  34.699   8.553
 6626POPC   C2B23000  44.435  34.684   8.253
 6626POPC   C3B23001  44.385  34.623   7.953
 6626POPC   C4B23002  44.455  34.628   7.653
 6627POPC   NC323003  17.474   9.746   9.453
 6627POPC   PO423004  17.482   9.722   9.153
 6627POPC   GL123005  17.464   9.752   8.853
 6627POPC   GL223006  17.528   9.637   8.853
 6627POPC   C1A23007  17.506   9.776   8.553
 6627POPC   D2A23008  17.513   9.794   8.253
 6627POPC   C3A23009  17.545   9.766   7.953
 6627POPC   C4A23010  17.548   9.757   7.653
 6627POPC   C1B23011  17.445   9.523   8.553
 6627POPC   C2B23012  17.443   9.492   8.253
 6627POPC   C3B23013  17.479   9.467   7.953
 6627POPC   C4B23014  17.475   9.486   7.653
 6628POPC   NC323015  35.367  37.714   9.453
 6628POPC   PO423016  35.310  37.685   9.153
 6628POPC   GL123017  35.316  37.718   8.853
 6628POPC   GL223018  35.215  37.620   8.853
 6628POPC   C1A23019  35.339  37.632   8.553
 6628POPC   D2A23020  35.376  37.702   8.253
 6628POPC   C3A23021  35.364  37.664   7.953
 6628POPC   C4A23022  35.330  37.708   7.653
 6628POPC   C1B23023  35.139  37.680   8.553
 6628POPC   C2B23024  35.141  37.659   8.253
 6628POPC   C3B23025  35.089  37.689   7.953
 6628POPC   C4B23026  35.144  37.660   7.653
 6629POPC   NC323027  43.071  29.950   9.453
 6629POPC   PO423028  43.157  29.965   9.153
 6629POPC   GL123029  43.063  29.931   8.853
 6629POPC   GL223030  43.038  30.021   8.853
 6629POPC   C1A23031  43.136  29.904   8.553
 6629POPC   D2A23032  43.093  29.903   8.253
 6629POPC   C3A23033  43.145  29.908   7.953
 6629POPC   C4A23034  43.135  29.938   7.653
 6629POPC   C1B23035  42.906  30.075   8.553
 6629POPC   C2B23036  42.901  30.045   8.253
 6629POPC   C3B23037  42.937  30.099   7.953
 6629POPC   C4B23038  42.915  30.076   7.653
 6630POPC   NC323039   1.982  22.112   9.453
 6630POPC   PO423040   1.968  22.195   9.153
 6630POPC   GL123041   2.036  22.114   8.853
 6630POPC   GL223042   2.132  22.105   8.853
 6630POPC   C1A23043   2.038  22.148   8.553
 6630POPC   D2A23044   1.969  22.204   8.253
 6630POPC   C3A23045   1.991  22.153   7.953
 6630POPC   C4A23046   1.992  22.190   7.653
 6630POPC   C1B23047   2.251  22.101   8.553
 6630POPC   C2B23048   2.220  22.096   8.253
 6630POPC   C3B23049   2.198  22.096   7.953
 6630POPC   C4B23050   2.191  22.087   7.653
 6631POPC   NC323051  19.058  27.628   9.453
 6631POPC   PO423052  19.101  27.553   9.153
 6631POPC   GL123053  19.016  27.634   8.853
 6631POPC   GL223054  18.899  27.670   8.853
 6631POPC   C1A23055  19.020  27.576   8.553
 6631POPC   D2A23056  19.082  27.558   8.253
 6631POPC   C3A23057  19.084  27.591   7.953
 6631POPC   C4A23058  19.074  27.549   7.653
 6631POPC   C1B23059  18.830  27.690   8.553
 6631POPC   C2B23060  18.823  27.705   8.253
 6631POPC   C3B23061  18.816  27.640   7.953
 6631POPC   C4B23062  18.852  27.681   7.653
 6632POPC   NC323063  26.838  23.687   9.453
 6632POPC   PO423064  26.815  23.669   9.153
 6632POPC   GL123065  26.805  23.684   8.853
 6632POPC   GL223066  26.962  23.701   8.853
 6632POPC   C1A23067  26.788  23.755   8.553
 6632POPC   D2A23068  26.777  23.736   8.253
 6632POPC   C3A23069  26.824  23.764   7.953
 6632POPC   C4A23070  26.790  23.668   7.653
 6632POPC   C1B23071  27.065  23.567   8.553
 6632POPC   C2B23072  27.079  23.628   8.253
 6632POPC   C3B23073  27.084  23.604   7.953
 6632POPC   C4B23074  27.058  23.589   7.653
 6633POPC   NC323075  41.609  32.267   9.453
 6633POPC   PO423076  41.544  32.233   9.153
 6633POPC   GL123077  41.572  32.212   8.853
 6633POPC   GL223078  41.527  32.408   8.853
 6633POPC   C1A23079  41.561  32.255   8.553
 6633POPC   D2A23080  41.510  32.269   8.253
 6633POPC   C3A23081  41.592  32.283   7.953
 6633POPC   C4A23082  41.561  32.225   7.653
 6633POPC   C1B23083  41.534  32.511   8.553
 6633POPC   C2B23084  41.578  32.472   8.253
 6633POPC   C3B23085  41.616  32.536   7.953
 6633POPC   C4B23086  41.605  32.520   7.653
 6634POPC   NC323087  39.984  32.236   9.453
 6634POPC   PO423088  40.055  32.288   9.153
 6634POPC   GL123089  40.050  32.212   8.853
 6634POPC   GL223090  40.007  32.401   8.853
 6634POPC   C1A23091  40.046  32.209   8.553
 6634POPC   D2A23092  39.971  32.272   8.253
 6634POPC   C3A23093  40.054  32.293   7.953
 6634POPC   C4A23094  40.050  32.210   7.653
 6634POPC   C1B23095  39.869  32.446   8.553
 6634POPC   C2B23096  39.914  32.496   8.253
 6634POPC   C3B23097  39.955  32.441   7.953
 6634POPC   C4B23098  39.884  32.447   7.653
 6635POPC   NC323099  17.533  39.234   9.453
 6635POPC   PO423100  17.512  39.261   9.153
 6635POPC   GL123101  17.542  39.210   8.853
 6635POPC   GL223102  17.502  39.140   8.853
 6635POPC   C1A23103  17.461  39.270   8.553
 6635POPC   D2A23104  17.535  39.255   8.253
 6635POPC   C3A23105  17.502  39.247   7.953
 6635POPC   C4A23106  17.554  39.201   7.653
 6635POPC   C1B23107  17.435  38.992   8.553
 6635POPC   C2B23108  17.474  38.962   8.253
 6635POPC   C3B23109  17.432  38.996   7.953
 6635POPC   C4B23110  17.462  38.970   7.653
 6636POPC   NC323111  11.324  29.130   9.453
 6636POPC   PO423112  11.323  29.153   9.153
 6636POPC   GL123113  11.280  29.175   8.853
 6636POPC   GL223114  11.205  29.223   8.853
 6636POPC   C1A23115  11.341  29.156   8.553
 6636POPC   D2A23116  11.280  29.130   8.253
 6636POPC   C3A23117  11.255  29.125   7.953
 6636POPC   C4A23118  11.300  29.195   7.653
 6636POPC   C1B23119  11.091  29.333   8.553
 6636POPC   C2B23120  11.121  29.328   8.253
 6636POPC   C3B23121  11.137  29.278   7.953
 6636POPC   C4B23122  11.094  29.273   7.653
 6637POPC   NC323123  29.143  35.395   9.453
 6637POPC   PO423124  29.159  35.316   9.153
 6637POPC   GL123125  29.110  35.309   8.853
 6637POPC   GL223126  29.296  35.273   8.853
 6637POPC   C1A23127  29.115  35.320   8.553
 6637POPC   D2A23128  29.184  35.342   8.253
 6637POPC   C3A23129  29.195  35.351   7.953
 6637POPC   C4A23130  29.190  35.367   7.653
 6637POPC   C1B23131  29.397  35.288   8.553
 6637POPC   C2B23132  29.339  35.251   8.253
 6637POPC   C3B23133  29.354  35.264   7.953
 6637POPC   C4B23134  29.395  35.283   7.653
 6638POPC   NC323135   7.425  43.838   9.453
 6638POPC   PO423136   7.391  43.922   9.153
 6638POPC   GL123137   7.392  43.870   8.853
 6638POPC   GL223138   7.393  44.043   8.853
 6638POPC   C1A23139   7.468  43.883   8.553
 6638POPC   D2A23140   7.377  43.886   8.253
 6638POPC   C3A23141   7.422  43.901   7.953
 6638POPC   C4A23142   7.469  43.870   7.653
 6638POPC   C1B23143   7.335  44.145   8.553
 6638POPC   C2B23144   7.342  44.123   8.253
 6638POPC   C3B23145   7.341  44.108   7.953
 6638POPC   C4B23146   7.394  44.145   7.653
 6639POPC   NC323147  40.742  43.086   9.453
 6639POPC   PO423148  40.825  43.113   9.153
 6639POPC   GL123149  40.764  43.090   8.853
 6639POPC   GL223150  40.797  43.193   8.853
 6639POPC   C1A23151  40.819  43.145   8.553
 6639POPC   D2A23152  40.808  43.127   8.253
 6639POPC   C3A23153  40.738  43.106   7.953
 6639POPC   C4A23154  40.821  43.143   7.653
 6639POPC   C1B23155  40.815  43.380   8.553
 6639POPC   C2B23156  40.785  43.310   8.253
 6639POPC   C3B23157  40.772  43.383   7.953
 6639POPC   C4B23158  40.766  43.344   7.653
 6640POPC   NC323159  11.284  25.300   9.453
 6640POPC   PO423160  11.316  25.248   9.153
 6640POPC   GL123161  11.280  25.277   8.853
 6640POPC   GL223162  11.169  25.271   8.853
 6640POPC   C1A23163  11.337  25.229   8.553
 6640POPC   D2A23164  11.320  25.297   8.253
 6640POPC   C3A23165  11.344  25.223   7.953
 6640POPC   C4A23166  11.264  25.231   7.653
 6640POPC   C1B23167  11.061  25.248   8.553
 6640POPC   C2B23168  11.072  25.193   8.253
 6640POPC   C3B23169  11.022  25.266   7.953
 6640POPC   C4B23170  11.008  25.267   7.653
 6641POPC   NC323171  15.164  43.146   9.453
 6641POPC   PO423172  15.162  43.139   9.153
 6641POPC   GL123173  15.226  43.095   8.853
 6641POPC   GL223174  15.156  42.991   8.853
 6641POPC   C1A23175  15.220  43.142   8.553
 6641POPC   D2A23176  15.151  43.064   8.253
 6641POPC   C3A23177  15.144  43.124   7.953
 6641POPC   C4A23178  15.194  43.135   7.653
 6641POPC   C1B23179  15.097  42.878   8.553
 6641POPC   C2B23180  15.140  42.909   8.253
 6641POPC   C3B23181  15.193  42.857   7.953
 6641POPC   C4B23182  15.109  42.902   7.653
 6642POPC   NC323183  36.149  25.278   9.453
 6642POPC   PO423184  36.149  25.283   9.153
 6642POPC   GL123185  36.085  25.271   8.853
 6642POPC   GL223186  36.074  25.404   8.853
 6642POPC   C1A23187  36.112  25.282   8.553
 6642POPC   D2A23188  36.093  25.294   8.253
 6642POPC   C3A23189  36.150  25.287   7.953
 6642POPC   C4A23190  36.116  25.221   7.653
 6642POPC   C1B23191  36.063  25.511   8.553
 6642POPC   C2B23192  36.124  25.475   8.253
 6642POPC   C3B23193  36.079  25.547   7.953
 6642POPC   C4B23194  36.032  25.479   7.653
 6643POPC   NC323195  35.325   6.683   9.453
 6643POPC   PO423196  35.303   6.616   9.153
 6643POPC   GL123197  35.335   6.628   8.853
 6643POPC   GL223198  35.475   6.608   8.853
 6643POPC   C1A23199  35.386   6.667   8.553
 6643POPC   D2A23200  35.393   6.664   8.253
 6643POPC   C3A23201  35.325   6.681   7.953
 6643POPC   C4A23202  35.335   6.654   7.653
 6643POPC   C1B23203  35.630   6.671   8.553
 6643POPC   C2B23204  35.599   6.604   8.253
 6643POPC   C3B23205  35.601   6.660   7.953
 6643POPC   C4B23206  35.574   6.606   7.653
 6644POPC   NC323207  19.019  29.932   9.453
 6644POPC   PO423208  19.086  29.961   9.153
 6644POPC   GL123209  19.016  29.970   8.853
 6644POPC   GL223210  19.178  30.026   8.853
 6644POPC   C1A23211  19.090  29.961   8.553
 6644POPC   D2A23212  19.017  29.909   8.253
 6644POPC   C3A23213  19.095  29.882   7.953
 6644POPC   C4A23214  19.098  29.918   7.653
 6644POPC   C1B23215  19.262  30.160   8.553
 6644POPC   C2B23216  19.238  30.147   8.253
 6644POPC   C3B23217  19.171  30.086   7.953
 6644POPC   C4B23218  19.252  30.147   7.653
 6645POPC   NC323219  20.623  22.197   9.453
 6645POPC   PO423220  20.636  22.188   9.153
 6645POPC   GL123221  20.650  22.189   8.853
 6645POPC   GL223222  20.545  22.328   8.853
 6645POPC   C1A23223  20.644  22.172   8.553
 6645POPC   D2A23224  20.588  22.148   8.253
 6645POPC   C3A23225  20.560  22.113   7.953
 6645POPC   C4A23226  20.578  22.210   7.653
 6645POPC   C1B23227  20.482  22.428   8.553
 6645POPC   C2B23228  20.480  22.404   8.253
 6645POPC   C3B23229  20.506  22.420   7.953
 6645POPC   C4B23230  20.541  22.398   7.653
 6646POPC   NC323231   3.583  20.632   9.453
 6646POPC   PO423232   3.510  20.570   9.153
 6646POPC   GL123233   3.504  20.629   8.853
 6646POPC   GL223234   3.588  20.724   8.853
 6646POPC   C1A23235   3.575  20.578   8.553
 6646POPC   D2A23236   3.573  20.657   8.253
 6646POPC   C3A23237   3.501  20.654   7.953
 6646POPC   C4A23238   3.582  20.563   7.653
 6646POPC   C1B23239   3.670  20.819   8.553
 6646POPC   C2B23240   3.690  20.783   8.253
 6646POPC   C3B23241   3.719  20.845   7.953
 6646POPC   C4B23242   3.692  20.805   7.653
 6647POPC   NC323243   1.252  22.897   9.453
 6647POPC   PO423244   1.204  22.906   9.153
 6647POPC   GL123245   1.216  22.945   8.853
 6647POPC   GL223246   1.164  22.860   8.853
 6647POPC   C1A23247   1.178  22.951   8.553
 6647POPC   D2A23248   1.211  22.949   8.253
 6647POPC   C3A23249   1.251  22.935   7.953
 6647POPC   C4A23250   1.180  22.937   7.653
 6647POPC   C1B23251   1.078  22.791   8.553
 6647POPC   C2B23252   1.096  22.759   8.253
 6647POPC   C3B23253   1.052  22.732   7.953
 6647POPC   C4B23254   1.035  22.794   7.653
 6648POPC   NC323255  33.753  29.116   9.453
 6648POPC   PO423256  33.797  29.182   9.153
 6648POPC   GL123257  33.840  29.170   8.853
 6648POPC   GL223258  33.863  29.216   8.853
 6648POPC   C1A23259  33.760  29.162   8.553
 6648POPC   D2A23260  33.828  29.191   8.253
 6648POPC   C3A23261  33.800  29.149   7.953
 6648POPC   C4A23262  33.830  29.099   7.653
 6648POPC   C1B23263  33.920  29.416   8.553
 6648POPC   C2B23264  33.895  29.356   8.253
 6648POPC   C3B23265  33.872  29.320   7.953
 6648POPC   C4B23266  33.934  29.384   7.653
 6649POPC   NC323267  32.204  29.187   9.453
 6649POPC   PO423268  32.263  29.154   9.153
 6649POPC   GL123269  32.248  29.145   8.853
 6649POPC   GL223270  32.269  29.315   8.853
 6649POPC   C1A23271  32.290  29.145   8.553
 6649POPC   D2A23272  32.285  29.165   8.253
 6649POPC   C3A23273  32.232  29.151   7.953
 6649POPC   C4A23274  32.257  29.114   7.653
 6649POPC   C1B23275  32.181  29.379   8.553
 6649POPC   C2B23276  32.242  29.412   8.253
 6649POPC   C3B23277  32.248  29.394   7.953
 6649POPC   C4B23278  32.235  29.383   7.653
 6650POPC   NC323279  26.777  36.918   9.453
 6650POPC   PO423280  26.863  36.855   9.153
 6650POPC   GL123281  26.782  36.897   8.853
 6650POPC   GL223282  26.862  36.841   8.853
 6650POPC   C1A23283  26.791  36.908   8.553
 6650POPC   D2A23284  26.848  36.869   8.253
 6650POPC   C3A23285  26.785  36.869   7.953
 6650POPC   C4A23286  26.802  36.871   7.653
 6650POPC   C1B23287  26.924  36.647   8.553
 6650POPC   C2B23288  26.963  36.717   8.253
 6650POPC   C3B23289  26.975  36.679   7.953
 6650POPC   C4B23290  26.980  36.642   7.653
 6651POPC   NC323291  26.805  43.098   9.453
 6651POPC   PO423292  26.823  43.079   9.153
 6651POPC   GL123293  26.806  43.150   8.853
 6651POPC   GL223294  26.894  43.096   8.853
 6651POPC   C1A23295  26.784  43.063   8.553
 6651POPC   D2A23296  26.850  43.119   8.253
 6651POPC   C3A23297  26.836  43.157   7.953
 6651POPC   C4A23298  26.825  43.092   7.653
 6651POPC   C1B23299  27.011  43.008   8.553
 6651POPC   C2B23300  27.070  43.027   8.253
 6651POPC   C3B23301  27.035  43.061   7.953
 6651POPC   C4B23302  27.061  43.027   7.653
 6652POPC   NC323303   6.622  12.809   9.453
 6652POPC   PO423304   6.628  12.900   9.153
 6652POPC   GL123305   6.650  12.876   8.853
 6652POPC   GL223306   6.753  12.790   8.853
 6652POPC   C1A23307   6.646  12.893   8.553
 6652POPC   D2A23308   6.630  12.848   8.253
 6652POPC   C3A23309   6.691  12.899   7.953
 6652POPC   C4A23310   6.601  12.827   7.653
 6652POPC   C1B23311   6.741  12.675   8.553
 6652POPC   C2B23312   6.828  12.618   8.253
 6652POPC   C3B23313   6.742  12.675   7.953
 6652POPC   C4B23314   6.805  12.623   7.653
 6653POPC   NC323315  29.173   0.486   9.453
 6653POPC   PO423316  29.149   0.389   9.153
 6653POPC   GL123317  29.195   0.461   8.853
 6653POPC   GL223318  29.100   0.543   8.853
 6653POPC   C1A23319  29.186   0.485   8.553
 6653POPC   D2A23320  29.098   0.443   8.253
 6653POPC   C3A23321  29.121   0.401   7.953
 6653POPC   C4A23322  29.129   0.470   7.653
 6653POPC   C1B23323  29.148   0.667   8.553
 6653POPC   C2B23324  29.147   0.685   8.253
 6653POPC   C3B23325  29.120   0.710   7.953
 6653POPC   C4B23326  29.112   0.675   7.653
 6654POPC   NC323327  12.834  16.768   9.453
 6654POPC   PO423328  12.892  16.694   9.153
 6654POPC   GL123329  12.863  16.714   8.853
 6654POPC   GL223330  12.783  16.673   8.853
 6654POPC   C1A23331  12.824  16.684   8.553
 6654POPC   D2A23332  12.809  16.699   8.253
 6654POPC   C3A23333  12.887  16.780   7.953
 6654POPC   C4A23334  12.830  16.708   7.653
 6654POPC   C1B23335  12.627  16.686   8.553
 6654POPC   C2B23336  12.605  16.644   8.253
 6654POPC   C3B23337  12.643  16.689   7.953
 6654POPC   C4B23338  12.663  16.655   7.653
 6655POPC   NC323339  43.904  23.725   9.453
 6655POPC   PO423340  43.899  23.665   9.153
 6655POPC   GL123341  43.877  23.710   8.853
 6655POPC   GL223342  43.783  23.651   8.853
 6655POPC   C1A23343  43.896  23.763   8.553
 6655POPC   D2A23344  43.875  23.746   8.253
 6655POPC   C3A23345  43.894  23.732   7.953
 6655POPC   C4A23346  43.841  23.690   7.653
 6655POPC   C1B23347  43.707  23.571   8.553
 6655POPC   C2B23348  43.722  23.536   8.253
 6655POPC   C3B23349  43.630  23.542   7.953
 6655POPC   C4B23350  43.666  23.572   7.653
 6656POPC   NC323351  13.581  35.313   9.453
 6656POPC   PO423352  13.632  35.332   9.153
 6656POPC   GL123353  13.601  35.310   8.853
 6656POPC   GL223354  13.618  35.433   8.853
 6656POPC   C1A23355  13.637  35.389   8.553
 6656POPC   D2A23356  13.660  35.365   8.253
 6656POPC   C3A23357  13.629  35.364   7.953
 6656POPC   C4A23358  13.581  35.338   7.653
 6656POPC   C1B23359  13.631  35.643   8.553
 6656POPC   C2B23360  13.655  35.607   8.253
 6656POPC   C3B23361  13.580  35.615   7.953
 6656POPC   C4B23362  13.634  35.616   7.653
 6657POPC   NC323363   7.450   8.935   9.453
 6657POPC   PO423364   7.373   8.945   9.153
 6657POPC   GL123365   7.419   8.963   8.853
 6657POPC   GL223366   7.481   8.997   8.853
 6657POPC   C1A23367   7.396   9.002   8.553
 6657POPC   D2A23368   7.414   8.965   8.253
 6657POPC   C3A23369   7.396   9.012   7.953
 6657POPC   C4A23370   7.432   8.946   7.653
 6657POPC   C1B23371   7.597   9.128   8.553
 6657POPC   C2B23372   7.643   9.111   8.253
 6657POPC   C3B23373   7.597   9.072   7.953
 6657POPC   C4B23374   7.602   9.130   7.653
 6658POPC   NC323375  29.123   2.012   9.453
 6658POPC   PO423376  29.116   1.969   9.153
 6658POPC   GL123377  29.128   2.010   8.853
 6658POPC   GL223378  29.018   2.112   8.853
 6658POPC   C1A23379  29.157   2.023   8.553
 6658POPC   D2A23380  29.120   1.967   8.253
 6658POPC   C3A23381  29.108   2.035   7.953
 6658POPC   C4A23382  29.123   2.027   7.653
 6658POPC   C1B23383  28.971   2.198   8.553
 6658POPC   C2B23384  28.945   2.166   8.253
 6658POPC   C3B23385  28.961   2.185   7.953
 6658POPC   C4B23386  29.025   2.221   7.653
 6659POPC   NC323387  26.036   8.983   9.453
 6659POPC   PO423388  26.044   8.999   9.153
 6659POPC   GL123389  26.006   8.974   8.853
 6659POPC   GL223390  26.131   8.977   8.853
 6659POPC   C1A23391  26.050   9.000   8.553
 6659POPC   D2A23392  26.036   8.970   8.253
 6659POPC   C3A23393  26.058   8.949   7.953
 6659POPC   C4A23394  26.039   9.020   7.653
 6659POPC   C1B23395  26.252   8.998   8.553
 6659POPC   C2B23396  26.275   9.032   8.253
 6659POPC   C3B23397  26.260   9.018   7.953
 6659POPC   C4B23398  26.301   9.062   7.653
 6660POPC   NC323399  32.285  38.413   9.453
 6660POPC   PO423400  32.222  38.408   9.153
 6660POPC   GL123401  32.263  38.448   8.853
 6660POPC   GL223402  32.297  38.572   8.853
 6660POPC   C1A23403  32.265  38.440   8.553
 6660POPC   D2A23404  32.236  38.456   8.253
 6660POPC   C3A23405  32.272  38.419   7.953
 6660POPC   C4A23406  32.202  38.409   7.653
 6660POPC   C1B23407  32.318  38.715   8.553
 6660POPC   C2B23408  32.368  38.715   8.253
 6660POPC   C3B23409  32.359  38.689   7.953
 6660POPC   C4B23410  32.322  38.672   7.653
 6661POPC   NC323411  23.754  39.229   9.453
 6661POPC   PO423412  23.664  39.267   9.153
 6661POPC   GL123413  23.682  39.184   8.853
 6661POPC   GL223414  23.595  39.322   8.853
 6661POPC   C1A23415  23.735  39.270   8.553
 6661POPC   D2A23416  23.680  39.228   8.253
 6661POPC   C3A23417  23.674  39.275   7.953
 6661POPC   C4A23418  23.716  39.204   7.653
 6661POPC   C1B23419  23.570  39.352   8.553
 6661POPC   C2B23420  23.537  39.373   8.253
 6661POPC   C3B23421  23.503  39.361   7.953
 6661POPC   C4B23422  23.482  39.450   7.653
 6662POPC   NC323423  38.410  39.972   9.453
 6662POPC   PO423424  38.441  39.971   9.153
 6662POPC   GL123425  38.461  39.968   8.853
 6662POPC   GL223426  38.491  39.885   8.853
 6662POPC   C1A23427  38.413  39.980   8.553
 6662POPC   D2A23428  38.485  40.045   8.253
 6662POPC   C3A23429  38.422  40.030   7.953
 6662POPC   C4A23430  38.409  39.993   7.653
 6662POPC   C1B23431  38.497  39.805   8.553
 6662POPC   C2B23432  38.490  39.737   8.253
 6662POPC   C3B23433  38.519  39.750   7.953
 6662POPC   C4B23434  38.496  39.800   7.653
 6663POPC   NC323435  15.158   5.054   9.453
 6663POPC   PO423436  15.164   5.088   9.153
 6663POPC   GL123437  15.164   5.130   8.853
 6663POPC   GL223438  15.042   5.099   8.853
 6663POPC   C1A23439  15.177   5.050   8.553
 6663POPC   D2A23440  15.197   5.047   8.253
 6663POPC   C3A23441  15.224   5.105   7.953
 6663POPC   C4A23442  15.218   5.141   7.653
 6663POPC   C1B23443  14.921   5.168   8.553
 6663POPC   C2B23444  14.927   5.165   8.253
 6663POPC   C3B23445  14.935   5.160   7.953
 6663POPC   C4B23446  14.973   5.242   7.653
 6664POPC   NC323447  44.616  20.567   9.453
 6664POPC   PO423448  44.657  20.565   9.153
 6664POPC   GL123449  44.649  20.566   8.853
 6664POPC   GL223450  44.716  20.714   8.853
 6664POPC   C1A23451  44.638  20.590   8.553
 6664POPC   D2A23452  44.638  20.585   8.253
 6664POPC   C3A23453  44.693  20.639   7.953
 6664POPC   C4A23454  44.663  20.601   7.653
 6664POPC   C1B23455  44.798  20.776   8.553
 6664POPC   C2B23456  44.845  20.783   8.253
 6664POPC   C3B23457  44.783  20.751   7.953
 6664POPC   C4B23458  44.799  20.777   7.653
 6665POPC   NC323459  15.967   5.915   9.453
 6665POPC   PO423460  16.004   5.857   9.153
 6665POPC   GL123461  15.955   5.832   8.853
 6665POPC   GL223462  15.816   5.853   8.853
 6665POPC   C1A23463  15.973   5.892   8.553
 6665POPC   D2A23464  15.969   5.833   8.253
 6665POPC   C3A23465  16.003   5.864   7.953
 6665POPC   C4A23466  15.988   5.915   7.653
 6665POPC   C1B23467  15.685   5.849   8.553
 6665POPC   C2B23468  15.725   5.764   8.253
 6665POPC   C3B23469  15.724   5.792   7.953
 6665POPC   C4B23470  15.738   5.860   7.653
 6666POPC   NC323471  26.778  15.982   9.453
 6666POPC   PO423472  26.839  15.917   9.153
 6666POPC   GL123473  26.792  16.000   8.853
 6666POPC   GL223474  26.699  15.821   8.853
 6666POPC   C1A23475  26.845  15.996   8.553
 6666POPC   D2A23476  26.797  15.922   8.253
 6666POPC   C3A23477  26.841  15.932   7.953
 6666POPC   C4A23478  26.844  16.005   7.653
 6666POPC   C1B23479  26.641  15.753   8.553
 6666POPC   C2B23480  26.714  15.704   8.253
 6666POPC   C3B23481  26.686  15.778   7.953
 6666POPC   C4B23482  26.639  15.757   7.653
 6667POPC   NC323483  25.993  22.148   9.453
 6667POPC   PO423484  26.063  22.166   9.153
 6667POPC   GL123485  26.057  22.121   8.853
 6667POPC   GL223486  26.160  22.102   8.853
 6667POPC   C1A23487  26.000  22.170   8.553
 6667POPC   D2A23488  26.052  22.143   8.253
 6667POPC   C3A23489  26.011  22.160   7.953
 6667POPC   C4A23490  26.053  22.181   7.653
 6667POPC   C1B23491  26.253  22.028   8.553
 6667POPC   C2B23492  26.302  22.042   8.253
 6667POPC   C3B23493  26.313  22.082   7.953
 6667POPC   C4B23494  26.317  22.088   7.653
 6668POPC   NC323495  42.323  19.882   9.453
 6668POPC   PO423496  42.369  19.821   9.153
 6668POPC   GL123497  42.365  19.838   8.853
 6668POPC   GL223498  42.302  19.690   8.853
 6668POPC   C1A23499  42.369  19.859   8.553
 6668POPC   D2A23500  42.351  19.880   8.253
 6668POPC   C3A23501  42.331  19.821   7.953
 6668POPC   C4A23502  42.362  19.835   7.653
 6668POPC   C1B23503  42.348  19.624   8.553
 6668POPC   C2B23504  42.276  19.627   8.253
 6668POPC   C3B23505  42.291  19.598   7.953
 6668POPC   C4B23506  42.277  19.561   7.653
 6669POPC   NC323507  44.664  26.844   9.453
 6669POPC   PO423508  44.664  26.774   9.153
 6669POPC   GL123509  44.613  26.827   8.853
 6669POPC   GL223510  44.793  26.803   8.853
 6669POPC   C1A23511  44.682  26.859   8.553
 6669POPC   D2A23512  44.698  26.803   8.253
 6669POPC   C3A23513  44.640  26.849   7.953
 6669POPC   C4A23514  44.623  26.811   7.653
 6669POPC   C1B23515  44.869  26.750   8.553
 6669POPC   C2B23516  44.948  26.797   8.253
 6669POPC   C3B23517  44.904  26.794   7.953
 6669POPC   C4B23518  44.884  26.747   7.653
 6670POPC   NC323519  43.107   5.058   9.453
 6670POPC   PO423520  43.134   5.076   9.153
 6670POPC   GL123521  43.084   5.085   8.853
 6670POPC   GL223522  43.271   5.070   8.853
 6670POPC   C1A23523  43.152   5.098   8.553
 6670POPC   D2A23524  43.147   5.046   8.253
 6670POPC   C3A23525  43.123   5.129   7.953
 6670POPC   C4A23526  43.132   5.071   7.653
 6670POPC   C1B23527  43.335   5.028   8.553
 6670POPC   C2B23528  43.324   5.056   8.253
 6670POPC   C3B23529  43.357   5.005   7.953
 6670POPC   C4B23530  43.379   5.084   7.653
 6671POPC   NC323531  12.803   2.735   9.453
 6671POPC   PO423532  12.863   2.752   9.153
 6671POPC   GL123533  12.887   2.722   8.853
 6671POPC   GL223534  12.780   2.737   8.853
 6671POPC   C1A23535  12.834   2.800   8.553
 6671POPC   D2A23536  12.854   2.744   8.253
 6671POPC   C3A23537  12.809   2.766   7.953
 6671POPC   C4A23538  12.814   2.743   7.653
 6671POPC   C1B23539  12.639   2.648   8.553
 6671POPC   C2B23540  12.615   2.580   8.253
 6671POPC   C3B23541  12.683   2.656   7.953
 6671POPC   C4B23542  12.682   2.646   7.653
 6672POPC   NC323543  18.303  43.869   9.453
 6672POPC   PO423544  18.291  43.865   9.153
 6672POPC   GL123545  18.314  43.881   8.853
 6672POPC   GL223546  18.343  43.758   8.853
 6672POPC   C1A23547  18.289  43.897   8.553
 6672POPC   D2A23548  18.282  43.881   8.253
 6672POPC   C3A23549  18.299  43.863   7.953
 6672POPC   C4A23550  18.306  43.920   7.653
 6672POPC   C1B23551  18.444  43.650   8.553
 6672POPC   C2B23552  18.416  43.645   8.253
 6672POPC   C3B23553  18.422  43.656   7.953
 6672POPC   C4B23554  18.439  43.719   7.653
 6673POPC   NC323555  23.711  30.679   9.453
 6673POPC   PO423556  23.723  30.667   9.153
 6673POPC   GL123557  23.735  30.683   8.853
 6673POPC   GL223558  23.832  30.664   8.853
 6673POPC   C1A23559  23.750  30.669   8.553
 6673POPC   D2A23560  23.739  30.666   8.253
 6673POPC   C3A23561  23.675  30.690   7.953
 6673POPC   C4A23562  23.710  30.686   7.653
 6673POPC   C1B23563  23.982  30.645   8.553
 6673POPC   C2B23564  23.994  30.669   8.253
 6673POPC   C3B23565  23.981  30.670   7.953
 6673POPC   C4B23566  23.967  30.647   7.653
 6674POPC   NC323567  43.097  36.882   9.453
 6674POPC   PO423568  43.063  36.900   9.153
 6674POPC   GL123569  43.158  36.894   8.853
 6674POPC   GL223570  43.004  37.017   8.853
 6674POPC   C1A23571  43.135  36.921   8.553
 6674POPC   D2A23572  43.080  36.882   8.253
 6674POPC   C3A23573  43.069  36.947   7.953
 6674POPC   C4A23574  43.120  36.882   7.653
 6674POPC   C1B23575  43.022  37.088   8.553
 6674POPC   C2B23576  42.962  37.123   8.253
 6674POPC   C3B23577  42.964  37.098   7.953
 6674POPC   C4B23578  42.970  37.090   7.653
 6675POPC   NC323579  10.548  26.851   9.453
 6675POPC   PO423580  10.480  26.816   9.153
 6675POPC   GL123581  10.543  26.844   8.853
 6675POPC   GL223582  10.535  26.739   8.853
 6675POPC   C1A23583  10.535  26.855   8.553
 6675POPC   D2A23584  10.573  26.780   8.253
 6675POPC   C3A23585  10.557  26.778   7.953
 6675POPC   C4A23586  10.479  26.850   7.653
 6675POPC   C1B23587  10.452  26.619   8.553
 6675POPC   C2B23588  10.521  26.536   8.253
 6675POPC   C3B23589  10.469  26.558   7.953
 6675POPC   C4B23590  10.505  26.612   7.653
 6676POPC   NC323591  10.485   5.825   9.453
 6676POPC   PO423592  10.563   5.824   9.153
 6676POPC   GL123593  10.498   5.819   8.853
 6676POPC   GL223594  10.669   5.769   8.853
 6676POPC   C1A23595  10.498   5.845   8.553
 6676POPC   D2A23596  10.546   5.872   8.253
 6676POPC   C3A23597  10.568   5.875   7.953
 6676POPC   C4A23598  10.521   5.843   7.653
 6676POPC   C1B23599  10.708   5.785   8.553
 6676POPC   C2B23600  10.724   5.748   8.253
 6676POPC   C3B23601  10.699   5.718   7.953
 6676POPC   C4B23602  10.746   5.769   7.653
 6677POPC   NC323603   1.180  36.113   9.453
 6677POPC   PO423604   1.221  36.097   9.153
 6677POPC   GL123605   1.247  36.152   8.853
 6677POPC   GL223606   1.067  36.177   8.853
 6677POPC   C1A23607   1.247  36.134   8.553
 6677POPC   D2A23608   1.240  36.103   8.253
 6677POPC   C3A23609   1.216  36.130   7.953
 6677POPC   C4A23610   1.208  36.083   7.653
 6677POPC   C1B23611   1.003  36.253   8.553
 6677POPC   C2B23612   1.043  36.267   8.253
 6677POPC   C3B23613   1.016  36.237   7.953
 6677POPC   C4B23614   1.051  36.248   7.653
 6678POPC   NC323615   9.734  44.711   9.453
 6678POPC   PO423616   9.767  44.612   9.153
 6678POPC   GL123617   9.729  44.620   8.853
 6678POPC   GL223618   9.794  44.782   8.853
 6678POPC   C1A23619   9.744  44.666   8.553
 6678POPC   D2A23620   9.797  44.699   8.253
 6678POPC   C3A23621   9.734  44.645   7.953
 6678POPC   C4A23622   9.778  44.620   7.653
 6678POPC   C1B23623   9.703  44.951   8.553
 6678POPC   C2B23624   9.729  44.863   8.253
 6678POPC   C3B23625   9.702  44.937   7.953
 6678POPC   C4B23626   9.725  44.890   7.653
 6679POPC   NC323627  18.287   6.660   9.453
 6679POPC   PO423628  18.244   6.679   9.153
 6679POPC   GL123629  18.255   6.662   8.853
 6679POPC   GL223630  18.241   6.717   8.853
 6679POPC   C1A23631  18.326   6.672   8.553
 6679POPC   D2A23632  18.309   6.635   8.253
 6679POPC   C3A23633  18.316   6.626   7.953
 6679POPC   C4A23634  18.245   6.631   7.653
 6679POPC   C1B23635  18.216   6.882   8.553
 6679POPC   C2B23636  18.198   6.884   8.253
 6679POPC   C3B23637  18.176   6.840   7.953
 6679POPC   C4B23638  18.222   6.921   7.653
 6680POPC   NC323639   2.746  15.130   9.453
 6680POPC   PO423640   2.779  15.177   9.153
 6680POPC   GL123641   2.786  15.162   8.853
 6680POPC   GL223642   2.756  15.018   8.853
 6680POPC   C1A23643   2.745  15.219   8.553
 6680POPC   D2A23644   2.719  15.201   8.253
 6680POPC   C3A23645   2.775  15.134   7.953
 6680POPC   C4A23646   2.754  15.142   7.653
 6680POPC   C1B23647   2.776  14.941   8.553
 6680POPC   C2B23648   2.761  14.931   8.253
 6680POPC   C3B23649   2.830  14.930   7.953
 6680POPC   C4B23650   2.836  14.923   7.653
 6681POPC   NC323651  20.608  11.320   9.453
 6681POPC   PO423652  20.566  11.327   9.153
 6681POPC   GL123653  20.658  11.310   8.853
 6681POPC   GL223654  20.590  11.405   8.853
 6681POPC   C1A23655  20.655  11.250   8.553
 6681POPC   D2A23656  20.604  11.305   8.253
 6681POPC   C3A23657  20.658  11.288   7.953
 6681POPC   C4A23658  20.657  11.325   7.653
 6681POPC   C1B23659  20.566  11.515   8.553
 6681POPC   C2B23660  20.574  11.508   8.253
 6681POPC   C3B23661  20.592  11.510   7.953
 6681POPC   C4B23662  20.550  11.501   7.653
 6682POPC   NC323663  40.743  40.008   9.453
 6682POPC   PO423664  40.739  40.055   9.153
 6682POPC   GL123665  40.769  40.011   8.853
 6682POPC   GL223666  40.695  40.052   8.853
 6682POPC   C1A23667  40.803  40.042   8.553
 6682POPC   D2A23668  40.758  39.958   8.253
 6682POPC   C3A23669  40.755  40.015   7.953
 6682POPC   C4A23670  40.805  40.049   7.653
 6682POPC   C1B23671  40.558  40.055   8.553
 6682POPC   C2B23672  40.568  40.044   8.253
 6682POPC   C3B23673  40.515  40.083   7.953
 6682POPC   C4B23674  40.548  40.003   7.653
 6683POPC   NC323675  31.497  28.368   9.453
 6683POPC   PO423676  31.513  28.389   9.153
 6683POPC   GL123677  31.450  28.396   8.853
 6683POPC   GL223678  31.420  28.273   8.853
 6683POPC   C1A23679  31.447  28.361   8.553
 6683POPC   D2A23680  31.427  28.320   8.253
 6683POPC   C3A23681  31.427  28.406   7.953
 6683POPC   C4A23682  31.520  28.406   7.653
 6683POPC   C1B23683  31.286  28.191   8.553
 6683POPC   C2B23684  31.353  28.126   8.253
 6683POPC   C3B23685  31.352  28.206   7.953
 6683POPC   C4B23686  31.279  28.142   7.653
 6684POPC   NC323687   2.794   5.044   9.453
 6684POPC   PO423688   2.772   5.051   9.153
 6684POPC   GL123689   2.731   5.125   8.853
 6684POPC   GL223690   2.834   5.055   8.853
 6684POPC   C1A23691   2.761   5.085   8.553
 6684POPC   D2A23692   2.802   5.104   8.253
 6684POPC   C3A23693   2.806   5.108   7.953
 6684POPC   C4A23694   2.759   5.060   7.653
 6684POPC   C1B23695   3.000   4.943   8.553
 6684POPC   C2B23696   2.986   4.924   8.253
 6684POPC   C3B23697   3.011   4.947   7.953
 6684POPC   C4B23698   2.991   4.980   7.653
 6685POPC   NC323699  38.483  43.144   9.453
 6685POPC   PO423700  38.495  43.098   9.153
 6685POPC   GL123701  38.454  43.064   8.853
 6685POPC   GL223702  38.579  43.196   8.853
 6685POPC   C1A23703  38.421  43.072   8.553
 6685POPC   D2A23704  38.452  43.126   8.253
 6685POPC   C3A23705  38.434  43.095   7.953
 6685POPC   C4A23706  38.477  43.098   7.653
 6685POPC   C1B23707  38.700  43.236   8.553
 6685POPC   C2B23708  38.670  43.161   8.253
 6685POPC   C3B23709  38.694  43.240   7.953
 6685POPC   C4B23710  38.656  43.226   7.653
 6686POPC   NC323711  21.379  37.650   9.453
 6686POPC   PO423712  21.428  37.643   9.153
 6686POPC   GL123713  21.365  37.678   8.853
 6686POPC   GL223714  21.349  37.615   8.853
 6686POPC   C1A23715  21.386  37.645   8.553
 6686POPC   D2A23716  21.412  37.682   8.253
 6686POPC   C3A23717  21.434  37.656   7.953
 6686POPC   C4A23718  21.405  37.636   7.653
 6686POPC   C1B23719  21.207  37.448   8.553
 6686POPC   C2B23720  21.292  37.423   8.253
 6686POPC   C3B23721  21.230  37.460   7.953
 6686POPC   C4B23722  21.215  37.493   7.653
 6687POPC   NC323723  24.455  34.547   9.453
 6687POPC   PO423724  24.490  34.556   9.153
 6687POPC   GL123725  24.452  34.579   8.853
 6687POPC   GL223726  24.413  34.537   8.853
 6687POPC   C1A23727  24.512  34.616   8.553
 6687POPC   D2A23728  24.512  34.576   8.253
 6687POPC   C3A23729  24.452  34.601   7.953
 6687POPC   C4A23730  24.491  34.589   7.653
 6687POPC   C1B23731  24.235  34.584   8.553
 6687POPC   C2B23732  24.196  34.629   8.253
 6687POPC   C3B23733  24.260  34.550   7.953
 6687POPC   C4B23734  24.214  34.626   7.653
 6688POPC   NC323735  44.660  29.107   9.453
 6688POPC   PO423736  44.640  29.187   9.153
 6688POPC   GL123737  44.702  29.174   8.853
 6688POPC   GL223738  44.735  29.062   8.853
 6688POPC   C1A23739  44.636  29.103   8.553
 6688POPC   D2A23740  44.683  29.135   8.253
 6688POPC   C3A23741  44.628  29.183   7.953
 6688POPC   C4A23742  44.690  29.177   7.653
 6688POPC   C1B23743  44.824  28.907   8.553
 6688POPC   C2B23744  44.831  28.989   8.253
 6688POPC   C3B23745  44.815  28.919   7.953
 6688POPC   C4B23746  44.809  28.917   7.653
 6689POPC   NC323747  38.453   4.350   9.453
 6689POPC   PO423748  38.504   4.281   9.153
 6689POPC   GL123749  38.418   4.322   8.853
 6689POPC   GL223750  38.555   4.340   8.853
 6689POPC   C1A23751  38.431   4.314   8.553
 6689POPC   D2A23752  38.496   4.289   8.253
 6689POPC   C3A23753  38.463   4.358   7.953
 6689POPC   C4A23754  38.413   4.289   7.653
 6689POPC   C1B23755  38.684   4.316   8.553
 6689POPC   C2B23756  38.697   4.309   8.253
 6689POPC   C3B23757  38.675   4.286   7.953
 6689POPC   C4B23758  38.654   4.299   7.653
 6690POPC   NC323759  18.301   8.215   9.453
 6690POPC   PO423760  18.311   8.241   9.153
 6690POPC   GL123761  18.294   8.215   8.853
 6690POPC   GL223762  18.201   8.189   8.853
 6690POPC   C1A23763  18.260   8.155   8.553
 6690POPC   D2A23764  18.328   8.191   8.253
 6690POPC   C3A23765  18.297   8.199   7.953
 6690POPC   C4A23766  18.290   8.152   7.653
 6690POPC   C1B23767  18.008   8.156   8.553
 6690POPC   C2B23768  17.999   8.148   8.253
 6690POPC   C3B23769  18.058   8.120   7.953
 6690POPC   C4B23770  18.053   8.150   7.653
 6691POPC   NC323771  19.791  43.107   9.453
 6691POPC   PO423772  19.883  43.064   9.153
 6691POPC   GL123773  19.822  43.151   8.853
 6691POPC   GL223774  19.886  42.943   8.853
 6691POPC   C1A23775  19.785  43.145   8.553
 6691POPC   D2A23776  19.873  43.091   8.253
 6691POPC   C3A23777  19.844  43.145   7.953
 6691POPC   C4A23778  19.796  43.119   7.653
 6691POPC   C1B23779  19.860  42.899   8.553
 6691POPC   C2B23780  19.879  42.823   8.253
 6691POPC   C3B23781  19.927  42.840   7.953
 6691POPC   C4B23782  19.894  42.839   7.653
 6692POPC   NC323783   4.305  37.707   9.453
 6692POPC   PO423784   4.271  37.684   9.153
 6692POPC   GL123785   4.328  37.728   8.853
 6692POPC   GL223786   4.388  37.546   8.853
 6692POPC   C1A23787   4.364  37.685   8.553
 6692POPC   D2A23788   4.318  37.637   8.253
 6692POPC   C3A23789   4.345  37.630   7.953
 6692POPC   C4A23790   4.284  37.664   7.653
 6692POPC   C1B23791   4.345  37.417   8.553
 6692POPC   C2B23792   4.342  37.465   8.253
 6692POPC   C3B23793   4.432  37.435   7.953
 6692POPC   C4B23794   4.410  37.395   7.653
 6693POPC   NC323795  34.603  16.779   9.453
 6693POPC   PO423796  34.607  16.730   9.153
 6693POPC   GL123797  34.600  16.711   8.853
 6693POPC   GL223798  34.479  16.793   8.853
 6693POPC   C1A23799  34.605  16.755   8.553
 6693POPC   D2A23800  34.549  16.707   8.253
 6693POPC   C3A23801  34.533  16.695   7.953
 6693POPC   C4A23802  34.598  16.725   7.653
 6693POPC   C1B23803  34.377  16.853   8.553
 6693POPC   C2B23804  34.340  16.869   8.253
 6693POPC   C3B23805  34.422  16.873   7.953
 6693POPC   C4B23806  34.339  16.862   7.653
 6694POPC   NC323807   3.510   9.724   9.453
 6694POPC   PO423808   3.556   9.742   9.153
 6694POPC   GL123809   3.562   9.747   8.853
 6694POPC   GL223810   3.624   9.725   8.853
 6694POPC   C1A23811   3.550   9.714   8.553
 6694POPC   D2A23812   3.523   9.705   8.253
 6694POPC   C3A23813   3.494   9.778   7.953
 6694POPC   C4A23814   3.524   9.746   7.653
 6694POPC   C1B23815   3.730   9.707   8.553
 6694POPC   C2B23816   3.762   9.657   8.253
 6694POPC   C3B23817   3.782   9.637   7.953
 6694POPC   C4B23818   3.759   9.660   7.653
 6695POPC   NC323819  40.753  29.130   9.453
 6695POPC   PO423820  40.831  29.106   9.153
 6695POPC   GL123821  40.789  29.155   8.853
 6695POPC   GL223822  40.920  29.119   8.853
 6695POPC   C1A23823  40.767  29.164   8.553
 6695POPC   D2A23824  40.818  29.103   8.253
 6695POPC   C3A23825  40.766  29.106   7.953
 6695POPC   C4A23826  40.742  29.123   7.653
 6695POPC   C1B23827  41.034  29.177   8.553
 6695POPC   C2B23828  41.065  29.148   8.253
 6695POPC   C3B23829  41.002  29.103   7.953
 6695POPC   C4B23830  40.987  29.179   7.653
 6696POPC   NC323831   9.747  15.991   9.453
 6696POPC   PO423832   9.698  15.920   9.153
 6696POPC   GL123833   9.704  15.964   8.853
 6696POPC   GL223834   9.732  16.064   8.853
 6696POPC   C1A23835   9.768  15.952   8.553
 6696POPC   D2A23836   9.768  15.984   8.253
 6696POPC   C3A23837   9.706  15.982   7.953
 6696POPC   C4A23838   9.777  15.999   7.653
 6696POPC   C1B23839   9.695  16.202   8.553
 6696POPC   C2B23840   9.713  16.246   8.253
 6696POPC   C3B23841   9.690  16.172   7.953
 6696POPC   C4B23842   9.731  16.158   7.653
 6697POPC   NC323843   9.703  19.021   9.453
 6697POPC   PO423844   9.743  19.100   9.153
 6697POPC   GL123845   9.734  19.022   8.853
 6697POPC   GL223846   9.683  19.027   8.853
 6697POPC   C1A23847   9.794  19.039   8.553
 6697POPC   D2A23848   9.765  19.083   8.253
 6697POPC   C3A23849   9.795  19.039   7.953
 6697POPC   C4A23850   9.797  19.092   7.653
 6697POPC   C1B23851   9.492  18.963   8.553
 6697POPC   C2B23852   9.532  18.973   8.253
 6697POPC   C3B23853   9.529  18.951   7.953
 6697POPC   C4B23854   9.519  18.916   7.653
 6698POPC   NC323855  29.948  44.695   9.453
 6698POPC   PO423856  29.934  44.658   9.153
 6698POPC   GL123857  29.942  44.695   8.853
 6698POPC   GL223858  29.977  44.526   8.853
 6698POPC   C1A23859  29.927  44.661   8.553
 6698POPC   D2A23860  29.928  44.703   8.253
 6698POPC   C3A23861  29.893  44.637   7.953
 6698POPC   C4A23862  29.896  44.652   7.653
 6698POPC   C1B23863  30.066  44.496   8.553
 6698POPC   C2B23864  30.048  44.468   8.253
 6698POPC   C3B23865  30.125  44.484   7.953
 6698POPC   C4B23866  30.089  44.494   7.653
 6699POPC   NC323867  14.423  25.246   9.453
 6699POPC   PO423868  14.394  25.285   9.153
 6699POPC   GL123869  14.438  25.298   8.853
 6699POPC   GL223870  14.548  25.146   8.853
 6699POPC   C1A23871  14.440  25.240   8.553
 6699POPC   D2A23872  14.443  25.271   8.253
 6699POPC   C3A23873  14.429  25.278   7.953
 6699POPC   C4A23874  14.424  25.309   7.653
 6699POPC   C1B23875  14.604  25.118   8.553
 6699POPC   C2B23876  14.608  25.120   8.253
 6699POPC   C3B23877  14.593  25.088   7.953
 6699POPC   C4B23878  14.600  25.123   7.653
 6700POPC   NC323879   3.582  17.516   9.453
 6700POPC   PO423880   3.520  17.517   9.153
 6700POPC   GL123881   3.525  17.547   8.853
 6700POPC   GL223882   3.472  17.394   8.853
 6700POPC   C1A23883   3.542  17.556   8.553
 6700POPC   D2A23884   3.510  17.524   8.253
 6700POPC   C3A23885   3.550  17.478   7.953
 6700POPC   C4A23886   3.527  17.473   7.653
 6700POPC   C1B23887   3.482  17.253   8.553
 6700POPC   C2B23888   3.498  17.227   8.253
 6700POPC   C3B23889   3.412  17.321   7.953
 6700POPC   C4B23890   3.503  17.226   7.653
 6701POPC   NC323891  11.258   9.724   9.453
 6701POPC   PO423892  11.272   9.726   9.153
 6701POPC   GL123893  11.304   9.706   8.853
 6701POPC   GL223894  11.326   9.591   8.853
 6701POPC   C1A23895  11.347   9.782   8.553
 6701POPC   D2A23896  11.347   9.766   8.253
 6701POPC   C3A23897  11.293   9.716   7.953
 6701POPC   C4A23898  11.267   9.769   7.653
 6701POPC   C1B23899  11.353   9.545   8.553
 6701POPC   C2B23900  11.293   9.470   8.253
 6701POPC   C3B23901  11.330   9.542   7.953
 6701POPC   C4B23902  11.306   9.509   7.653
 6702POPC   NC323903  15.198  39.235   9.453
 6702POPC   PO423904  15.192  39.188   9.153
 6702POPC   GL123905  15.224  39.203   8.853
 6702POPC   GL223906  15.014  39.190   8.853
 6702POPC   C1A23907  15.138  39.260   8.553
 6702POPC   D2A23908  15.199  39.193   8.253
 6702POPC   C3A23909  15.184  39.271   7.953
 6702POPC   C4A23910  15.133  39.190   7.653
 6702POPC   C1B23911  14.944  39.093   8.553
 6702POPC   C2B23912  14.904  39.103   8.253
 6702POPC   C3B23913  14.908  39.110   7.953
 6702POPC   C4B23914  14.900  39.107   7.653
 6703POPC   NC323915  12.820   4.312   9.453
 6703POPC   PO423916  12.839   4.356   9.153
 6703POPC   GL123917  12.822   4.280   8.853
 6703POPC   GL223918  12.903   4.376   8.853
 6703POPC   C1A23919  12.833   4.301   8.553
 6703POPC   D2A23920  12.815   4.355   8.253
 6703POPC   C3A23921  12.829   4.310   7.953
 6703POPC   C4A23922  12.886   4.295   7.653
 6703POPC   C1B23923  12.969   4.491   8.553
 6703POPC   C2B23924  12.992   4.557   8.253
 6703POPC   C3B23925  13.011   4.564   7.953
 6703POPC   C4B23926  13.017   4.500   7.653
 6704POPC   NC323927  29.882   3.588   9.453
 6704POPC   PO423928  29.933   3.547   9.153
 6704POPC   GL123929  29.938   3.562   8.853
 6704POPC   GL223930  29.807   3.614   8.853
 6704POPC   C1A23931  29.932   3.590   8.553
 6704POPC   D2A23932  29.965   3.538   8.253
 6704POPC   C3A23933  29.957   3.557   7.953
 6704POPC   C4A23934  29.883   3.547   7.653
 6704POPC   C1B23935  29.688   3.569   8.553
 6704POPC   C2B23936  29.631   3.558   8.253
 6704POPC   C3B23937  29.639   3.599   7.953
 6704POPC   C4B23938  29.725   3.571   7.653
 6705POPC   NC323939  33.841  39.229   9.453
 6705POPC   PO423940  33.807  39.229   9.153
 6705POPC   GL123941  33.802  39.232   8.853
 6705POPC   GL223942  33.699  39.221   8.853
 6705POPC   C1A23943  33.814  39.184   8.553
 6705POPC   D2A23944  33.770  39.184   8.253
 6705POPC   C3A23945  33.831  39.189   7.953
 6705POPC   C4A23946  33.769  39.266   7.653
 6705POPC   C1B23947  33.617  39.098   8.553
 6705POPC   C2B23948  33.527  39.097   8.253
 6705POPC   C3B23949  33.585  39.178   7.953
 6705POPC   C4B23950  33.611  39.114   7.653
 6706POPC   NC323951  29.886  28.319   9.453
 6706POPC   PO423952  29.926  28.354   9.153
 6706POPC   GL123953  29.921  28.373   8.853
 6706POPC   GL223954  29.901  28.450   8.853
 6706POPC   C1A23955  29.872  28.372   8.553
 6706POPC   D2A23956  29.873  28.361   8.253
 6706POPC   C3A23957  29.916  28.380   7.953
 6706POPC   C4A23958  29.935  28.329   7.653
 6706POPC   C1B23959  29.945  28.634   8.553
 6706POPC   C2B23960  29.975  28.619   8.253
 6706POPC   C3B23961  29.946  28.599   7.953
 6706POPC   C4B23962  29.969  28.610   7.653
 6707POPC   NC323963  24.516  20.572   9.453
 6707POPC   PO423964  24.465  20.626   9.153
 6707POPC   GL123965  24.501  20.568   8.853
 6707POPC   GL223966  24.607  20.569   8.853
 6707POPC   C1A23967  24.523  20.633   8.553
 6707POPC   D2A23968  24.484  20.600   8.253
 6707POPC   C3A23969  24.468  20.651   7.953
 6707POPC   C4A23970  24.442  20.572   7.653
 6707POPC   C1B23971  24.687  20.438   8.553
 6707POPC   C2B23972  24.681  20.495   8.253
 6707POPC   C3B23973  24.713  20.478   7.953
 6707POPC   C4B23974  24.740  20.488   7.653
 6708POPC   NC323975   8.205  17.490   9.453
 6708POPC   PO423976   8.218  17.496   9.153
 6708POPC   GL123977   8.191  17.549   8.853
 6708POPC   GL223978   8.238  17.412   8.853
 6708POPC   C1A23979   8.244  17.504   8.553
 6708POPC   D2A23980   8.162  17.484   8.253
 6708POPC   C3A23981   8.158  17.477   7.953
 6708POPC   C4A23982   8.165  17.517   7.653
 6708POPC   C1B23983   8.392  17.311   8.553
 6708POPC   C2B23984   8.404  17.300   8.253
 6708POPC   C3B23985   8.422  17.354   7.953
 6708POPC   C4B23986   8.390  17.350   7.653
 6709POPC   NC323987  22.134  29.960   9.453
 6709POPC   PO423988  22.209  29.893   9.153
 6709POPC   GL123989  22.198  29.922   8.853
 6709POPC   GL223990  22.278  29.822   8.853
 6709POPC   C1A23991  22.212  29.966   8.553
 6709POPC   D2A23992  22.189  29.908   8.253
 6709POPC   C3A23993  22.119  29.917   7.953
 6709POPC   C4A23994  22.184  29.968   7.653
 6709POPC   C1B23995  22.374  29.739   8.553
 6709POPC   C2B23996  22.333  29.776   8.253
 6709POPC   C3B23997  22.303  29.744   7.953
 6709POPC   C4B23998  22.329  29.789   7.653
 6710POPC   NC323999  43.147  34.590   9.453
 6710POPC   PO424000  43.108  34.614   9.153
 6710POPC   GL124001  43.154  34.569   8.853
 6710POPC   GL224002  43.072  34.439   8.853
 6710POPC   C1A24003  43.143  34.538   8.553
 6710POPC   D2A24004  43.087  34.541   8.253
 6710POPC   C3A24005  43.127  34.541   7.953
 6710POPC   C4A24006  43.158  34.596   7.653
 6710POPC   C1B24007  43.118  34.359   8.553
 6710POPC   C2B24008  43.150  34.342   8.253
 6710POPC   C3B24009  43.104  34.368   7.953
 6710POPC   C4B24010  43.084  34.333   7.653
 6711POPC   NC324011   6.657  21.388   9.453
 6711POPC   PO424012   6.651  21.400   9.153
 6711POPC   GL124013   6.607  21.378   8.853
 6711POPC   GL224014   6.660  21.268   8.853
 6711POPC   C1A24015   6.660  21.378   8.553
 6711POPC   D2A24016   6.681  21.408   8.253
 6711POPC   C3A24017   6.646  21.416   7.953
 6711POPC   C4A24018   6.635  21.388   7.653
 6711POPC   C1B24019   6.712  21.117   8.553
 6711POPC   C2B24020   6.624  21.166   8.253
 6711POPC   C3B24021   6.691  21.125   7.953
 6711POPC   C4B24022   6.636  21.106   7.653
 6712POPC   NC324023   8.225  23.725   9.453
 6712POPC   PO424024   8.159  23.739   9.153
 6712POPC   GL124025   8.193  23.707   8.853
 6712POPC   GL224026   8.188  23.881   8.853
 6712POPC   C1A24027   8.223  23.746   8.553
 6712POPC   D2A24028   8.246  23.708   8.253
 6712POPC   C3A24029   8.180  23.721   7.953
 6712POPC   C4A24030   8.178  23.743   7.653
 6712POPC   C1B24031   8.279  23.994   8.553
 6712POPC   C2B24032   8.282  23.935   8.253
 6712POPC   C3B24033   8.252  23.983   7.953
 6712POPC   C4B24034   8.237  23.929   7.653
 6713POPC   NC324035  36.115  43.858   9.453
 6713POPC   PO424036  36.105  43.882   9.153
 6713POPC   GL124037  36.176  43.892   8.853
 6713POPC   GL224038  36.026  43.845   8.853
 6713POPC   C1A24039  36.136  43.935   8.553
 6713POPC   D2A24040  36.110  43.920   8.253
 6713POPC   C3A24041  36.079  43.894   7.953
 6713POPC   C4A24042  36.164  43.911   7.653
 6713POPC   C1B24043  35.967  43.767   8.553
 6713POPC   C2B24044  35.945  43.742   8.253
 6713POPC   C3B24045  35.915  43.766   7.953
 6713POPC   C4B24046  35.904  43.739   7.653
 6714POPC   NC324047  16.686  41.575   9.453
 6714POPC   PO424048  16.750  41.528   9.153
 6714POPC   GL124049  16.711  41.524   8.853
 6714POPC   GL224050  16.636  41.648   8.853
 6714POPC   C1A24051  16.731  41.607   8.553
 6714POPC   D2A24052  16.760  41.573   8.253
 6714POPC   C3A24053  16.684  41.536   7.953
 6714POPC   C4A24054  16.748  41.605   7.653
 6714POPC   C1B24055  16.494  41.755   8.553
 6714POPC   C2B24056  16.539  41.738   8.253
 6714POPC   C3B24057  16.544  41.702   7.953
 6714POPC   C4B24058  16.520  41.709   7.653
 6715POPC   NC324059  17.512  24.504   9.453
 6715POPC   PO424060  17.503  24.471   9.153
 6715POPC   GL124061  17.482  24.458   8.853
 6715POPC   GL224062  17.600  24.567   8.853
 6715POPC   C1A24063  17.527  24.533   8.553
 6715POPC   D2A24064  17.552  24.534   8.253
 6715POPC   C3A24065  17.537  24.529   7.953
 6715POPC   C4A24066  17.539  24.461   7.653
 6715POPC   C1B24067  17.595  24.743   8.553
 6715POPC   C2B24068  17.648  24.689   8.253
 6715POPC   C3B24069  17.593  24.762   7.953
 6715POPC   C4B24070  17.585  24.725   7.653
 6716POPC   NC324071  15.906   2.815   9.453
 6716POPC   PO424072  15.921   2.802   9.153
 6716POPC   GL124073  15.947   2.763   8.853
 6716POPC   GL224074  16.066   2.840   8.853
 6716POPC   C1A24075  15.906   2.806   8.553
 6716POPC   D2A24076  15.996   2.796   8.253
 6716POPC   C3A24077  15.969   2.754   7.953
 6716POPC   C4A24078  15.910   2.791   7.653
 6716POPC   C1B24079  16.164   2.844   8.553
 6716POPC   C2B24080  16.183   2.811   8.253
 6716POPC   C3B24081  16.242   2.854   7.953
 6716POPC   C4B24082  16.224   2.830   7.653
 6717POPC   NC324083  24.526  30.647   9.453
 6717POPC   PO424084  24.477  30.719   9.153
 6717POPC   GL124085  24.518  30.719   8.853
 6717POPC   GL224086  24.562  30.727   8.853
 6717POPC   C1A24087  24.458  30.724   8.553
 6717POPC   D2A24088  24.517  30.667   8.253
 6717POPC   C3A24089  24.480  30.651   7.953
 6717POPC   C4A24090  24.442  30.673   7.653
 6717POPC   C1B24091  24.739  30.848   8.553
 6717POPC   C2B24092  24.748  30.800   8.253
 6717POPC   C3B24093  24.660  30.823   7.953
 6717POPC   C4B24094  24.729  30.802   7.653
 6718POPC   NC324095  13.674  40.832   9.453
 6718POPC   PO424096  13.672  40.763   9.153
 6718POPC   GL124097  13.616  40.755   8.853
 6718POPC   GL224098  13.733  40.868   8.853
 6718POPC   C1A24099  13.642  40.804   8.553
 6718POPC   D2A24100  13.639  40.752   8.253
 6718POPC   C3A24101  13.607  40.757   7.953
 6718POPC   C4A24102  13.613  40.797   7.653
 6718POPC   C1B24103  13.841  41.007   8.553
 6718POPC   C2B24104  13.813  40.938   8.253
 6718POPC   C3B24105  13.828  41.007   7.953
 6718POPC   C4B24106  13.805  41.006   7.653
 6719POPC   NC324107  42.333  36.119   9.453
 6719POPC   PO424108  42.313  36.133   9.153
 6719POPC   GL124109  42.343  36.139   8.853
 6719POPC   GL224110  42.267  36.195   8.853
 6719POPC   C1A24111  42.369  36.096   8.553
 6719POPC   D2A24112  42.322  36.119   8.253
 6719POPC   C3A24113  42.375  36.090   7.953
 6719POPC   C4A24114  42.373  36.113   7.653
 6719POPC   C1B24115  42.209  36.347   8.553
 6719POPC   C2B24116  42.159  36.374   8.253
 6719POPC   C3B24117  42.219  36.292   7.953
 6719POPC   C4B24118  42.232  36.382   7.653
 6720POPC   NC324119  25.286   2.013   9.453
 6720POPC   PO424120  25.222   2.003   9.153
 6720POPC   GL124121  25.226   2.010   8.853
 6720POPC   GL224122  25.212   2.136   8.853
 6720POPC   C1A24123  25.284   1.956   8.553
 6720POPC   D2A24124  25.251   1.946   8.253
 6720POPC   C3A24125  25.298   2.033   7.953
 6720POPC   C4A24126  25.296   1.995   7.653
 6720POPC   C1B24127  25.215   2.202   8.553
 6720POPC   C2B24128  25.184   2.245   8.253
 6720POPC   C3B24129  25.171   2.251   7.953
 6720POPC   C4B24130  25.252   2.254   7.653
 6721POPC   NC324131  20.625   1.259   9.453
 6721POPC   PO424132  20.598   1.189   9.153
 6721POPC   GL124133  20.641   1.252   8.853
 6721POPC   GL224134  20.506   1.309   8.853
 6721POPC   C1A24135  20.649   1.235   8.553
 6721POPC   D2A24136  20.573   1.223   8.253
 6721POPC   C3A24137  20.597   1.233   7.953
 6721POPC   C4A24138  20.622   1.257   7.653
 6721POPC   C1B24139  20.497   1.402   8.553
 6721POPC   C2B24140  20.467   1.385   8.253
 6721POPC   C3B24141  20.425   1.423   7.953
 6721POPC   C4B24142  20.427   1.448   7.653
 6722POPC   NC324143  15.989  26.043   9.453
 6722POPC   PO424144  15.996  26.007   9.153
 6722POPC   GL124145  15.910  26.025   8.853
 6722POPC   GL224146  15.996  25.997   8.853
 6722POPC   C1A24147  15.920  25.993   8.553
 6722POPC   D2A24148  15.955  26.081   8.253
 6722POPC   C3A24149  15.979  25.991   7.953
 6722POPC   C4A24150  15.994  26.057   7.653
 6722POPC   C1B24151  16.088  25.911   8.553
 6722POPC   C2B24152  16.083  25.823   8.253
 6722POPC   C3B24153  16.148  25.879   7.953
 6722POPC   C4B24154  16.120  25.874   7.653
 6723POPC   NC324155  16.780   2.743   9.453
 6723POPC   PO424156  16.687   2.777   9.153
 6723POPC   GL124157  16.741   2.784   8.853
 6723POPC   GL224158  16.647   2.809   8.853
 6723POPC   C1A24159  16.694   2.807   8.553
 6723POPC   D2A24160  16.687   2.757   8.253
 6723POPC   C3A24161  16.733   2.756   7.953
 6723POPC   C4A24162  16.683   2.718   7.653
 6723POPC   C1B24163  16.494   2.870   8.553
 6723POPC   C2B24164  16.525   2.882   8.253
 6723POPC   C3B24165  16.530   2.897   7.953
 6723POPC   C4B24166  16.488   2.872   7.653
 6724POPC   NC324167  26.846  22.157   9.453
 6724POPC   PO424168  26.771  22.190   9.153
 6724POPC   GL124169  26.844  22.208   8.853
 6724POPC   GL224170  26.802  22.089   8.853
 6724POPC   C1A24171  26.767  22.206   8.553
 6724POPC   D2A24172  26.857  22.142   8.253
 6724POPC   C3A24173  26.862  22.153   7.953
 6724POPC   C4A24174  26.781  22.167   7.653
 6724POPC   C1B24175  26.690  21.882   8.553
 6724POPC   C2B24176  26.763  21.958   8.253
 6724POPC   C3B24177  26.755  21.962   7.953
 6724POPC   C4B24178  26.746  21.959   7.653
 6725POPC   NC324179   7.390  29.966   9.453
 6725POPC   PO424180   7.443  29.955   9.153
 6725POPC   GL124181   7.393  29.927   8.853
 6725POPC   GL224182   7.560  29.982   8.853
 6725POPC   C1A24183   7.381  29.935   8.553
 6725POPC   D2A24184   7.408  29.939   8.253
 6725POPC   C3A24185   7.433  29.910   7.953
 6725POPC   C4A24186   7.460  29.882   7.653
 6725POPC   C1B24187   7.645  30.034   8.553
 6725POPC   C2B24188   7.585  30.047   8.253
 6725POPC   C3B24189   7.616  30.045   7.953
 6725POPC   C4B24190   7.631  30.113   7.653
 6726POPC   NC324191  38.477   5.857   9.453
 6726POPC   PO424192  38.451   5.841   9.153
 6726POPC   GL124193  38.428   5.883   8.853
 6726POPC   GL224194  38.536   5.772   8.853
 6726POPC   C1A24195  38.481   5.839   8.553
 6726POPC   D2A24196  38.453   5.846   8.253
 6726POPC   C3A24197  38.412   5.829   7.953
 6726POPC   C4A24198  38.489   5.905   7.653
 6726POPC   C1B24199  38.500   5.646   8.553
 6726POPC   C2B24200  38.568   5.621   8.253
 6726POPC   C3B24201  38.492   5.594   7.953
 6726POPC   C4B24202  38.501   5.676   7.653
 6727POPC   NC324203  25.262  26.846   9.453
 6727POPC   PO424204  25.228  26.784   9.153
 6727POPC   GL124205  25.233  26.850   8.853
 6727POPC   GL224206  25.312  26.915   8.853
 6727POPC   C1A24207  25.243  26.832   8.553
 6727POPC   D2A24208  25.222  26.838   8.253
 6727POPC   C3A24209  25.238  26.851   7.953
 6727POPC   C4A24210  25.221  26.817   7.653
 6727POPC   C1B24211  25.373  26.999   8.553
 6727POPC   C2B24212  25.459  27.022   8.253
 6727POPC   C3B24213  25.381  27.008   7.953
 6727POPC   C4B24214  25.434  26.989   7.653
 6728POPC   NC324215  31.425   6.642   9.453
 6728POPC   PO424216  31.439   6.689   9.153
 6728POPC   GL124217  31.473   6.657   8.853
 6728POPC   GL224218  31.620   6.665   8.853
 6728POPC   C1A24219  31.500   6.620   8.553
 6728POPC   D2A24220  31.491   6.659   8.253
 6728POPC   C3A24221  31.484   6.615   7.953
 6728POPC   C4A24222  31.478   6.673   7.653
 6728POPC   C1B24223  31.701   6.689   8.553
 6728POPC   C2B24224  31.676   6.680   8.253
 6728POPC   C3B24225  31.726   6.685   7.953
 6728POPC   C4B24226  31.750   6.711   7.653
 6729POPC   NC324227  16.703  36.130   9.453
 6729POPC   PO424228  16.695  36.145   9.153
 6729POPC   GL124229  16.768  36.163   8.853
 6729POPC   GL224230  16.619  36.216   8.853
 6729POPC   C1A24231  16.692  36.111   8.553
 6729POPC   D2A24232  16.701  36.154   8.253
 6729POPC   C3A24233  16.768  36.146   7.953
 6729POPC   C4A24234  16.713  36.114   7.653
 6729POPC   C1B24235  16.491  36.238   8.553
 6729POPC   C2B24236  16.549  36.264   8.253
 6729POPC   C3B24237  16.556  36.292   7.953
 6729POPC   C4B24238  16.561  36.285   7.653
 6730POPC   NC324239   1.168  18.326   9.453
 6730POPC   PO424240   1.236  18.235   9.153
 6730POPC   GL124241   1.220  18.316   8.853
 6730POPC   GL224242   1.107  18.262   8.853
 6730POPC   C1A24243   1.222  18.287   8.553
 6730POPC   D2A24244   1.259  18.331   8.253
 6730POPC   C3A24245   1.208  18.316   7.953
 6730POPC   C4A24246   1.259  18.261   7.653
 6730POPC   C1B24247   0.965  18.342   8.553
 6730POPC   C2B24248   0.917  18.330   8.253
 6730POPC   C3B24249   0.982  18.285   7.953
 6730POPC   C4B24250   1.007  18.274   7.653
 6731POPC   NC324251  12.855  44.671   9.453
 6731POPC   PO424252  12.805  44.620   9.153
 6731POPC   GL124253  12.825  44.644   8.853
 6731POPC   GL224254  12.880  44.601   8.853
 6731POPC   C1A24255  12.886  44.634   8.553
 6731POPC   D2A24256  12.853  44.678   8.253
 6731POPC   C3A24257  12.859  44.629   7.953
 6731POPC   C4A24258  12.804  44.677   7.653
 6731POPC   C1B24259  13.004  44.445   8.553
 6731POPC   C2B24260  12.959  44.496   8.253
 6731POPC   C3B24261  12.995  44.482   7.953
 6731POPC   C4B24262  12.953  44.428   7.653
 6732POPC   NC324263  13.654   5.916   9.453
 6732POPC   PO424264  13.653   5.858   9.153
 6732POPC   GL124265  13.675   5.914   8.853
 6732POPC   GL224266  13.590   5.968   8.853
 6732POPC   C1A24267  13.581   5.875   8.553
 6732POPC   D2A24268  13.604   5.854   8.253
 6732POPC   C3A24269  13.668   5.857   7.953
 6732POPC   C4A24270  13.624   5.870   7.653
 6732POPC   C1B24271  13.561   6.110   8.553
 6732POPC   C2B24272  13.551   6.114   8.253
 6732POPC   C3B24273  13.584   6.113   7.953
 6732POPC   C4B24274  13.624   6.110   7.653
 6733POPC   NC324275  28.377  40.757   9.453
 6733POPC   PO424276  28.363  40.785   9.153
 6733POPC   GL124277  28.374  40.809   8.853
 6733POPC   GL224278  28.481  40.825   8.853
 6733POPC   C1A24279  28.376  40.796   8.553
 6733POPC   D2A24280  28.386  40.796   8.253
 6733POPC   C3A24281  28.384  40.775   7.953
 6733POPC   C4A24282  28.417  40.817   7.653
 6733POPC   C1B24283  28.613  40.915   8.553
 6733POPC   C2B24284  28.631  40.917   8.253
 6733POPC   C3B24285  28.608  40.851   7.953
 6733POPC   C4B24286  28.565  40.851   7.653
 6734POPC   NC324287  30.727   6.597   9.453
 6734POPC   PO424288  30.647   6.630   9.153
 6734POPC   GL124289  30.671   6.670   8.853
 6734POPC   GL224290  30.822   6.678   8.853
 6734POPC   C1A24291  30.668   6.644   8.553
 6734POPC   D2A24292  30.681   6.685   8.253
 6734POPC   C3A24293  30.651   6.600   7.953
 6734POPC   C4A24294  30.725   6.693   7.653
 6734POPC   C1B24295  30.929   6.674   8.553
 6734POPC   C2B24296  30.973   6.621   8.253
 6734POPC   C3B24297  30.949   6.682   7.953
 6734POPC   C4B24298  30.959   6.647   7.653
 6735POPC   NC324299   8.929   7.427   9.453
 6735POPC   PO424300   9.006   7.408   9.153
 6735POPC   GL124301   8.973   7.404   8.853
 6735POPC   GL224302   8.867   7.402   8.853
 6735POPC   C1A24303   9.014   7.465   8.553
 6735POPC   D2A24304   8.975   7.442   8.253
 6735POPC   C3A24305   8.951   7.397   7.953
 6735POPC   C4A24306   8.962   7.380   7.653
 6735POPC   C1B24307   8.707   7.391   8.553
 6735POPC   C2B24308   8.733   7.345   8.253
 6735POPC   C3B24309   8.743   7.410   7.953
 6735POPC   C4B24310   8.687   7.370   7.653
 6736POPC   NC324311  36.079  30.669   9.453
 6736POPC   PO424312  36.109  30.672   9.153
 6736POPC   GL124313  36.154  30.654   8.853
 6736POPC   GL224314  36.045  30.631   8.853
 6736POPC   C1A24315  36.080  30.648   8.553
 6736POPC   D2A24316  36.090  30.667   8.253
 6736POPC   C3A24317  36.111  30.699   7.953
 6736POPC   C4A24318  36.078  30.687   7.653
 6736POPC   C1B24319  35.868  30.624   8.553
 6736POPC   C2B24320  35.878  30.626   8.253
 6736POPC   C3B24321  35.891  30.628   7.953
 6736POPC   C4B24322  35.858  30.640   7.653
 6737POPC   NC324323  38.474  19.823   9.453
 6737POPC   PO424324  38.442  19.824   9.153
 6737POPC   GL124325  38.469  19.841   8.853
 6737POPC   GL224326  38.308  19.873   8.853
 6737POPC   C1A24327  38.505  19.790   8.553
 6737POPC   D2A24328  38.448  19.836   8.253
 6737POPC   C3A24329  38.481  19.842   7.953
 6737POPC   C4A24330  38.504  19.858   7.653
 6737POPC   C1B24331  38.231  19.894   8.553
 6737POPC   C2B24332  38.217  19.953   8.253
 6737POPC   C3B24333  38.213  19.970   7.953
 6737POPC   C4B24334  38.225  19.941   7.653
 6738POPC   NC324335  29.151  38.449   9.453
 6738POPC   PO424336  29.157  38.427   9.153
 6738POPC   GL124337  29.135  38.428   8.853
 6738POPC   GL224338  29.300  38.364   8.853
 6738POPC   C1A24339  29.166  38.495   8.553
 6738POPC   D2A24340  29.126  38.482   8.253
 6738POPC   C3A24341  29.121  38.431   7.953
 6738POPC   C4A24342  29.132  38.475   7.653
 6738POPC   C1B24343  29.353  38.377   8.553
 6738POPC   C2B24344  29.414  38.357   8.253
 6738POPC   C3B24345  29.418  38.413   7.953
 6738POPC   C4B24346  29.423  38.328   7.653
 6739POPC   NC324347  41.573  36.146   9.453
 6739POPC   PO424348  41.598  36.127   9.153
 6739POPC   GL124349  41.566  36.140   8.853
 6739POPC   GL224350  41.492  35.975   8.853
 6739POPC   C1A24351  41.532  36.129   8.553
 6739POPC   D2A24352  41.552  36.081   8.253
 6739POPC   C3A24353  41.558  36.120   7.953
 6739POPC   C4A24354  41.520  36.174   7.653
 6739POPC   C1B24355  41.421  35.907   8.553
 6739POPC   C2B24356  41.490  35.882   8.253
 6739POPC   C3B24357  41.434  35.866   7.953
 6739POPC   C4B24358  41.405  35.879   7.653
 6740POPC   NC324359  19.077  41.531   9.453
 6740POPC   PO424360  19.070  41.594   9.153
 6740POPC   GL124361  19.072  41.598   8.853
 6740POPC   GL224362  19.013  41.714   8.853
 6740POPC   C1A24363  19.020  41.557   8.553
 6740POPC   D2A24364  19.044  41.573   8.253
 6740POPC   C3A24365  19.059  41.545   7.953
 6740POPC   C4A24366  19.085  41.534   7.653
 6740POPC   C1B24367  19.017  41.799   8.553
 6740POPC   C2B24368  18.970  41.814   8.253
 6740POPC   C3B24369  19.013  41.806   7.953
 6740POPC   C4B24370  18.982  41.794   7.653
 6741POPC   NC324371  39.253  40.020   9.453
 6741POPC   PO424372  39.243  40.012   9.153
 6741POPC   GL124373  39.241  40.014   8.853
 6741POPC   GL224374  39.138  40.113   8.853
 6741POPC   C1A24375  39.270  39.992   8.553
 6741POPC   D2A24376  39.192  40.022   8.253
 6741POPC   C3A24377  39.242  40.030   7.953
 6741POPC   C4A24378  39.249  39.977   7.653
 6741POPC   C1B24379  38.981  40.123   8.553
 6741POPC   C2B24380  38.969  40.098   8.253
 6741POPC   C3B24381  38.978  40.151   7.953
 6741POPC   C4B24382  38.982  40.117   7.653
 6742POPC   NC324383  22.987  22.905   9.453
 6742POPC   PO424384  22.959  22.939   9.153
 6742POPC   GL124385  22.903  22.945   8.853
 6742POPC   GL224386  23.017  22.954   8.853
 6742POPC   C1A24387  22.958  22.944   8.553
 6742POPC   D2A24388  22.935  22.932   8.253
 6742POPC   C3A24389  22.982  22.924   7.953
 6742POPC   C4A24390  22.909  22.957   7.653
 6742POPC   C1B24391  23.151  23.099   8.553
 6742POPC   C2B24392  23.109  23.090   8.253
 6742POPC   C3B24393  23.117  23.111   7.953
 6742POPC   C4B24394  23.167  23.026   7.653
 6743POPC   NC324395  35.378  39.199   9.453
 6743POPC   PO424396  35.317  39.250   9.153
 6743POPC   GL124397  35.393  39.193   8.853
 6743POPC   GL224398  35.355  39.379   8.853
 6743POPC   C1A24399  35.324  39.200   8.553
 6743POPC   D2A24400  35.335  39.236   8.253
 6743POPC   C3A24401  35.363  39.275   7.953
 6743POPC   C4A24402  35.369  39.268   7.653
 6743POPC   C1B24403  35.327  39.470   8.553
 6743POPC   C2B24404  35.380  39.461   8.253
 6743POPC   C3B24405  35.371  39.462   7.953
 6743POPC   C4B24406  35.381  39.487   7.653
 6744POPC   NC324407  44.700   5.067   9.453
 6744POPC   PO424408  44.619   5.141   9.153
 6744POPC   GL124409  44.708   5.081   8.853
 6744POPC   GL224410  44.756   5.139   8.853
 6744POPC   C1A24411  44.645   5.089   8.553
 6744POPC   D2A24412  44.689   5.121   8.253
 6744POPC   C3A24413  44.696   5.052   7.953
 6744POPC   C4A24414  44.706   5.063   7.653
 6744POPC   C1B24415  44.893   5.284   8.553
 6744POPC   C2B24416  44.889   5.257   8.253
 6744POPC   C3B24417  44.846   5.272   7.953
 6744POPC   C4B24418  44.858   5.222   7.653
 6745POPC   NC324419   6.632  44.676   9.453
 6745POPC   PO424420   6.604  44.673   9.153
 6745POPC   GL124421   6.658  44.681   8.853
 6745POPC   GL224422   6.709  44.549   8.853
 6745POPC   C1A24423   6.608  44.702   8.553
 6745POPC   D2A24424   6.653  44.668   8.253
 6745POPC   C3A24425   6.635  44.618   7.953
 6745POPC   C4A24426   6.668  44.634   7.653
 6745POPC   C1B24427   6.784  44.509   8.553
 6745POPC   C2B24428   6.808  44.511   8.253
 6745POPC   C3B24429   6.780  44.497   7.953
 6745POPC   C4B24430   6.863  44.484   7.653
 6746POPC   NC324431  31.515  32.974   9.453
 6746POPC   PO424432  31.520  33.038   9.153
 6746POPC   GL124433  31.521  33.054   8.853
 6746POPC   GL224434  31.460  32.895   8.853
 6746POPC   C1A24435  31.464  33.032   8.553
 6746POPC   D2A24436  31.499  32.984   8.253
 6746POPC   C3A24437  31.486  33.007   7.953
 6746POPC   C4A24438  31.465  32.987   7.653
 6746POPC   C1B24439  31.405  32.741   8.553
 6746POPC   C2B24440  31.488  32.796   8.253
 6746POPC   C3B24441  31.447  32.798   7.953
 6746POPC   C4B24442  31.412  32.765   7.653
 6747POPC   NC324443  25.302  22.169   9.453
 6747POPC   PO424444  25.231  22.130   9.153
 6747POPC   GL124445  25.304  22.183   8.853
 6747POPC   GL224446  25.260  22.031   8.853
 6747POPC   C1A24447  25.292  22.182   8.553
 6747POPC   D2A24448  25.306  22.196   8.253
 6747POPC   C3A24449  25.272  22.194   7.953
 6747POPC   C4A24450  25.221  22.119   7.653
 6747POPC   C1B24451  25.328  21.867   8.553
 6747POPC   C2B24452  25.292  21.916   8.253
 6747POPC   C3B24453  25.320  21.868   7.953
 6747POPC   C4B24454  25.283  21.895   7.653
 6748POPC   NC324455  11.291  30.689   9.453
 6748POPC   PO424456  11.272  30.733   9.153
 6748POPC   GL124457  11.306  30.697   8.853
 6748POPC   GL224458  11.291  30.850   8.853
 6748POPC   C1A24459  11.287  30.695   8.553
 6748POPC   D2A24460  11.345  30.692   8.253
 6748POPC   C3A24461  11.282  30.658   7.953
 6748POPC   C4A24462  11.251  30.709   7.653
 6748POPC   C1B24463  11.238  30.907   8.553
 6748POPC   C2B24464  11.306  30.933   8.253
 6748POPC   C3B24465  11.266  30.938   7.953
 6748POPC   C4B24466  11.316  30.908   7.653
 6749POPC   NC324467  27.612  16.768   9.453
 6749POPC   PO424468  27.638  16.768   9.153
 6749POPC   GL124469  27.551  16.726   8.853
 6749POPC   GL224470  27.544  16.812   8.853
 6749POPC   C1A24471  27.578  16.727   8.553
 6749POPC   D2A24472  27.563  16.737   8.253
 6749POPC   C3A24473  27.632  16.746   7.953
 6749POPC   C4A24474  27.614  16.684   7.653
 6749POPC   C1B24475  27.462  16.923   8.553
 6749POPC   C2B24476  27.501  16.986   8.253
 6749POPC   C3B24477  27.494  16.973   7.953
 6749POPC   C4B24478  27.483  16.963   7.653
 6750POPC   NC324479  28.356  22.152   9.453
 6750POPC   PO424480  28.336  22.210   9.153
 6750POPC   GL124481  28.418  22.207   8.853
 6750POPC   GL224482  28.449  22.136   8.853
 6750POPC   C1A24483  28.414  22.117   8.553
 6750POPC   D2A24484  28.412  22.183   8.253
 6750POPC   C3A24485  28.415  22.151   7.953
 6750POPC   C4A24486  28.334  22.179   7.653
 6750POPC   C1B24487  28.619  22.097   8.553
 6750POPC   C2B24488  28.632  22.065   8.253
 6750POPC   C3B24489  28.604  22.113   7.953
 6750POPC   C4B24490  28.606  22.125   7.653
 6751POPC   NC324491  42.321  21.392   9.453
 6751POPC   PO424492  42.342  21.358   9.153
 6751POPC   GL124493  42.360  21.348   8.853
 6751POPC   GL224494  42.414  21.289   8.853
 6751POPC   C1A24495  42.331  21.391   8.553
 6751POPC   D2A24496  42.302  21.431   8.253
 6751POPC   C3A24497  42.330  21.357   7.953
 6751POPC   C4A24498  42.334  21.358   7.653
 6751POPC   C1B24499  42.431  21.167   8.553
 6751POPC   C2B24500  42.355  21.094   8.253
 6751POPC   C3B24501  42.352  21.108   7.953
 6751POPC   C4B24502  42.442  21.138   7.653
 6752POPC   NC324503  41.565  19.852   9.453
 6752POPC   PO424504  41.514  19.866   9.153
 6752POPC   GL124505  41.588  19.881   8.853
 6752POPC   GL224506  41.480  19.818   8.853
 6752POPC   C1A24507  41.585  19.832   8.553
 6752POPC   D2A24508  41.588  19.815   8.253
 6752POPC   C3A24509  41.547  19.884   7.953
 6752POPC   C4A24510  41.540  19.793   7.653
 6752POPC   C1B24511  41.298  19.761   8.553
 6752POPC   C2B24512  41.290  19.744   8.253
 6752POPC   C3B24513  41.361  19.733   7.953
 6752POPC   C4B24514  41.303  19.807   7.653
 6753POPC   NC324515  10.564   8.242   9.453
 6753POPC   PO424516  10.497   8.230   9.153
 6753POPC   GL124517  10.562   8.201   8.853
 6753POPC   GL224518  10.597   8.182   8.853
 6753POPC   C1A24519  10.495   8.200   8.553
 6753POPC   D2A24520  10.570   8.175   8.253
 6753POPC   C3A24521  10.522   8.239   7.953
 6753POPC   C4A24522  10.534   8.199   7.653
 6753POPC   C1B24523  10.749   8.112   8.553
 6753POPC   C2B24524  10.710   8.042   8.253
 6753POPC   C3B24525  10.713   8.044   7.953
 6753POPC   C4B24526  10.757   8.103   7.653
 6754POPC   NC324527  33.824  18.301   9.453
 6754POPC   PO424528  33.820  18.322   9.153
 6754POPC   GL124529  33.792  18.237   8.853
 6754POPC   GL224530  33.718  18.391   8.853
 6754POPC   C1A24531  33.831  18.254   8.553
 6754POPC   D2A24532  33.757  18.312   8.253
 6754POPC   C3A24533  33.771  18.332   7.953
 6754POPC   C4A24534  33.817  18.329   7.653
 6754POPC   C1B24535  33.643  18.478   8.553
 6754POPC   C2B24536  33.699  18.533   8.253
 6754POPC   C3B24537  33.672  18.519   7.953
 6754POPC   C4B24538  33.606  18.441   7.653
 6755POPC   NC324539  35.384  21.356   9.453
 6755POPC   PO424540  35.345  21.379   9.153
 6755POPC   GL124541  35.309  21.391   8.853
 6755POPC   GL224542  35.334  21.509   8.853
 6755POPC   C1A24543  35.304  21.354   8.553
 6755POPC   D2A24544  35.377  21.381   8.253
 6755POPC   C3A24545  35.321  21.396   7.953
 6755POPC   C4A24546  35.357  21.400   7.653
 6755POPC   C1B24547  35.398  21.621   8.553
 6755POPC   C2B24548  35.350  21.673   8.253
 6755POPC   C3B24549  35.341  21.665   7.953
 6755POPC   C4B24550  35.383  21.648   7.653
 6756POPC   NC324551  40.826  23.735   9.453
 6756POPC   PO424552  40.789  23.701   9.153
 6756POPC   GL124553  40.815  23.665   8.853
 6756POPC   GL224554  40.857  23.564   8.853
 6756POPC   C1A24555  40.762  23.668   8.553
 6756POPC   D2A24556  40.753  23.675   8.253
 6756POPC   C3A24557  40.770  23.710   7.953
 6756POPC   C4A24558  40.746  23.685   7.653
 6756POPC   C1B24559  40.892  23.445   8.553
 6756POPC   C2B24560  40.861  23.464   8.253
 6756POPC   C3B24561  40.876  23.454   7.953
 6756POPC   C4B24562  40.846  23.453   7.653
 6757POPC   NC324563  23.723  40.783   9.453
 6757POPC   PO424564  23.729  40.810   9.153
 6757POPC   GL124565  23.694  40.820   8.853
 6757POPC   GL224566  23.590  40.771   8.853
 6757POPC   C1A24567  23.692  40.768   8.553
 6757POPC   D2A24568  23.698  40.797   8.253
 6757POPC   C3A24569  23.706  40.737   7.953
 6757POPC   C4A24570  23.705  40.765   7.653
 6757POPC   C1B24571  23.512  40.867   8.553
 6757POPC   C2B24572  23.519  40.814   8.253
 6757POPC   C3B24573  23.508  40.842   7.953
 6757POPC   C4B24574  23.449  40.829   7.653
 6758POPC   NC324575   5.123  15.153   9.453
 6758POPC   PO424576   5.058  15.166   9.153
 6758POPC   GL124577   5.114  15.217   8.853
 6758POPC   GL224578   4.984  15.159   8.853
 6758POPC   C1A24579   5.085  15.192   8.553
 6758POPC   D2A24580   5.055  15.221   8.253
 6758POPC   C3A24581   5.104  15.214   7.953
 6758POPC   C4A24582   5.123  15.156   7.653
 6758POPC   C1B24583   4.898  15.062   8.553
 6758POPC   C2B24584   4.840  15.034   8.253
 6758POPC   C3B24585   4.867  15.086   7.953
 6758POPC   C4B24586   4.923  15.005   7.653
 6759POPC   NC324587  25.284  20.645   9.453
 6759POPC   PO424588  25.259  20.629   9.153
 6759POPC   GL124589  25.275  20.570   8.853
 6759POPC   GL224590  25.148  20.682   8.853
 6759POPC   C1A24591  25.240  20.562   8.553
 6759POPC   D2A24592  25.244  20.584   8.253
 6759POPC   C3A24593  25.272  20.582   7.953
 6759POPC   C4A24594  25.251  20.635   7.653
 6759POPC   C1B24595  25.016  20.796   8.553
 6759POPC   C2B24596  25.079  20.716   8.253
 6759POPC   C3B24597  25.097  20.800   7.953
 6759POPC   C4B24598  25.039  20.719   7.653
 6760POPC   NC324599   4.303  39.988   9.453
 6760POPC   PO424600   4.330  40.023   9.153
 6760POPC   GL124601   4.344  40.045   8.853
 6760POPC   GL224602   4.376  40.127   8.853
 6760POPC   C1A24603   4.308  40.024   8.553
 6760POPC   D2A24604   4.282  39.992   8.253
 6760POPC   C3A24605   4.312  40.042   7.953
 6760POPC   C4A24606   4.337  39.986   7.653
 6760POPC   C1B24607   4.557  40.142   8.553
 6760POPC   C2B24608   4.476  40.193   8.253
 6760POPC   C3B24609   4.505  40.142   7.953
 6760POPC   C4B24610   4.530  40.133   7.653
 6761POPC   NC324611  26.776   7.381   9.453
 6761POPC   PO424612  26.789   7.408   9.153
 6761POPC   GL124613  26.820   7.430   8.853
 6761POPC   GL224614  26.697   7.363   8.853
 6761POPC   C1A24615  26.815   7.456   8.553
 6761POPC   D2A24616  26.801   7.403   8.253
 6761POPC   C3A24617  26.800   7.406   7.953
 6761POPC   C4A24618  26.782   7.402   7.653
 6761POPC   C1B24619  26.603   7.341   8.553
 6761POPC   C2B24620  26.590   7.340   8.253
 6761POPC   C3B24621  26.581   7.415   7.953
 6761POPC   C4B24622  26.554   7.381   7.653
 6762POPC   NC324623  15.917  18.264   9.453
 6762POPC   PO424624  15.944  18.313   9.153
 6762POPC   GL124625  16.001  18.252   8.853
 6762POPC   GL224626  15.904  18.369   8.853
 6762POPC   C1A24627  15.943  18.295   8.553
 6762POPC   D2A24628  15.919  18.292   8.253
 6762POPC   C3A24629  15.993  18.250   7.953
 6762POPC   C4A24630  15.967  18.235   7.653
 6762POPC   C1B24631  15.841  18.470   8.553
 6762POPC   C2B24632  15.896  18.547   8.253
 6762POPC   C3B24633  15.895  18.535   7.953
 6762POPC   C4B24634  15.912  18.506   7.653
 6763POPC   NC324635  24.510   1.945   9.453
 6763POPC   PO424636  24.467   1.947   9.153
 6763POPC   GL124637  24.467   2.028   8.853
 6763POPC   GL224638  24.610   2.060   8.853
 6763POPC   C1A24639  24.491   1.958   8.553
 6763POPC   D2A24640  24.514   1.975   8.253
 6763POPC   C3A24641  24.515   1.969   7.953
 6763POPC   C4A24642  24.481   2.038   7.653
 6763POPC   C1B24643  24.723   2.109   8.553
 6763POPC   C2B24644  24.721   2.179   8.253
 6763POPC   C3B24645  24.678   2.182   7.953
 6763POPC   C4B24646  24.703   2.124   7.653
 6764POPC   NC324647  28.351  27.548   9.453
 6764POPC   PO424648  28.400  27.575   9.153
 6764POPC   GL124649  28.364  27.561   8.853
 6764POPC   GL224650  28.222  27.636   8.853
 6764POPC   C1A24651  28.379  27.545   8.553
 6764POPC   D2A24652  28.328  27.560   8.253
 6764POPC   C3A24653  28.320  27.599   7.953
 6764POPC   C4A24654  28.415  27.570   7.653
 6764POPC   C1B24655  28.124  27.760   8.553
 6764POPC   C2B24656  28.185  27.791   8.253
 6764POPC   C3B24657  28.171  27.757   7.953
 6764POPC   C4B24658  28.148  27.751   7.653
 6765POPC   NC324659  29.165  37.689   9.453
 6765POPC   PO424660  29.095  37.647   9.153
 6765POPC   GL124661  29.130  37.646   8.853
 6765POPC   GL224662  29.160  37.817   8.853
 6765POPC   C1A24663  29.178  37.700   8.553
 6765POPC   D2A24664  29.188  37.696   8.253
 6765POPC   C3A24665  29.097  37.674   7.953
 6765POPC   C4A24666  29.177  37.677   7.653
 6765POPC   C1B24667  29.125  37.952   8.553
 6765POPC   C2B24668  29.091  37.899   8.253
 6765POPC   C3B24669  29.060  37.903   7.953
 6765POPC   C4B24670  29.127  37.965   7.653
 6766POPC   NC324671   8.940   8.247   9.453
 6766POPC   PO424672   8.990   8.241   9.153
 6766POPC   GL124673   8.989   8.184   8.853
 6766POPC   GL224674   8.989   8.324   8.853
 6766POPC   C1A24675   9.013   8.149   8.553
 6766POPC   D2A24676   8.940   8.171   8.253
 6766POPC   C3A24677   8.959   8.196   7.953
 6766POPC   C4A24678   8.996   8.244   7.653
 6766POPC   C1B24679   8.987   8.462   8.553
 6766POPC   C2B24680   8.977   8.415   8.253
 6766POPC   C3B24681   8.934   8.432   7.953
 6766POPC   C4B24682   8.929   8.410   7.653
 6767POPC   NC324683  26.780  32.237   9.453
 6767POPC   PO424684  26.803  32.216   9.153
 6767POPC   GL124685  26.799  32.261   8.853
 6767POPC   GL224686  26.912  32.146   8.853
 6767POPC   C1A24687  26.852  32.239   8.553
 6767POPC   D2A24688  26.852  32.200   8.253
 6767POPC   C3A24689  26.808  32.248   7.953
 6767POPC   C4A24690  26.795  32.236   7.653
 6767POPC   C1B24691  26.998  32.105   8.553
 6767POPC   C2B24692  26.941  32.060   8.253
 6767POPC   C3B24693  27.033  32.110   7.953
 6767POPC   C4B24694  27.031  32.107   7.653
 6768POPC   NC324695  29.916   8.978   9.453
 6768POPC   PO424696  29.873   8.965   9.153
 6768POPC   GL124697  29.958   8.981   8.853
 6768POPC   GL224698  29.788   9.029   8.853
 6768POPC   C1A24699  29.899   8.926   8.553
 6768POPC   D2A24700  29.937   8.961   8.253
 6768POPC   C3A24701  29.964   8.948   7.953
 6768POPC   C4A24702  29.959   8.931   7.653
 6768POPC   C1B24703  29.686   8.989   8.553
 6768POPC   C2B24704  29.698   9.075   8.253
 6768POPC   C3B24705  29.712   9.063   7.953
 6768POPC   C4B24706  29.639   9.030   7.653
 6769POPC   NC324707   8.947   9.747   9.453
 6769POPC   PO424708   8.972   9.777   9.153
 6769POPC   GL124709   8.954   9.705   8.853
 6769POPC   GL224710   8.846   9.731   8.853
 6769POPC   C1A24711   8.933   9.708   8.553
 6769POPC   D2A24712   9.021   9.742   8.253
 6769POPC   C3A24713   8.981   9.703   7.953
 6769POPC   C4A24714   8.957   9.744   7.653
 6769POPC   C1B24715   8.729   9.661   8.553
 6769POPC   C2B24716   8.688   9.715   8.253
 6769POPC   C3B24717   8.770   9.664   7.953
 6769POPC   C4B24718   8.713   9.693   7.653
 6770POPC   NC324719   4.325  13.606   9.453
 6770POPC   PO424720   4.285  13.617   9.153
 6770POPC   GL124721   4.335  13.670   8.853
 6770POPC   GL224722   4.275  13.762   8.853
 6770POPC   C1A24723   4.291  13.639   8.553
 6770POPC   D2A24724   4.277  13.663   8.253
 6770POPC   C3A24725   4.354  13.641   7.953
 6770POPC   C4A24726   4.308  13.672   7.653
 6770POPC   C1B24727   4.360  13.894   8.553
 6770POPC   C2B24728   4.288  13.830   8.253
 6770POPC   C3B24729   4.310  13.856   7.953
 6770POPC   C4B24730   4.312  13.876   7.653
 6771POPC   NC324731   9.758  22.952   9.453
 6771POPC   PO424732   9.794  22.980   9.153
 6771POPC   GL124733   9.712  22.902   8.853
 6771POPC   GL224734   9.838  23.001   8.853
 6771POPC   C1A24735   9.731  22.889   8.553
 6771POPC   D2A24736   9.706  22.933   8.253
 6771POPC   C3A24737   9.769  22.954   7.953
 6771POPC   C4A24738   9.750  22.941   7.653
 6771POPC   C1B24739   9.830  23.142   8.553
 6771POPC   C2B24740   9.898  23.180   8.253
 6771POPC   C3B24741   9.923  23.155   7.953
 6771POPC   C4B24742   9.906  23.125   7.653
 6772POPC   NC324743  31.435  23.666   9.453
 6772POPC   PO424744  31.426  23.693   9.153
 6772POPC   GL124745  31.488  23.691   8.853
 6772POPC   GL224746  31.551  23.753   8.853
 6772POPC   C1A24747  31.433  23.761   8.553
 6772POPC   D2A24748  31.512  23.694   8.253
 6772POPC   C3A24749  31.433  23.690   7.953
 6772POPC   C4A24750  31.477  23.733   7.653
 6772POPC   C1B24751  31.745  23.740   8.553
 6772POPC   C2B24752  31.724  23.698   8.253
 6772POPC   C3B24753  31.698  23.656   7.953
 6772POPC   C4B24754  31.760  23.743   7.653
 6773POPC   NC324755  25.267   0.442   9.453
 6773POPC   PO424756  25.240   0.430   9.153
 6773POPC   GL124757  25.276   0.454   8.853
 6773POPC   GL224758  25.260   0.559   8.853
 6773POPC   C1A24759  25.255   0.394   8.553
 6773POPC   D2A24760  25.314   0.470   8.253
 6773POPC   C3A24761  25.218   0.448   7.953
 6773POPC   C4A24762  25.271   0.407   7.653
 6773POPC   C1B24763  25.232   0.668   8.553
 6773POPC   C2B24764  25.262   0.678   8.253
 6773POPC   C3B24765  25.236   0.734   7.953
 6773POPC   C4B24766  25.272   0.732   7.653
 6774POPC   NC324767  33.007  30.665   9.453
 6774POPC   PO424768  33.070  30.718   9.153
 6774POPC   GL124769  33.028  30.684   8.853
 6774POPC   GL224770  33.131  30.757   8.853
 6774POPC   C1A24771  33.034  30.682   8.553
 6774POPC   D2A24772  33.038  30.683   8.253
 6774POPC   C3A24773  33.034  30.712   7.953
 6774POPC   C4A24774  33.031  30.708   7.653
 6774POPC   C1B24775  33.206  30.831   8.553
 6774POPC   C2B24776  33.235  30.891   8.253
 6774POPC   C3B24777  33.184  30.860   7.953
 6774POPC   C4B24778  33.160  30.902   7.653
 6775POPC   NC324779  43.158   9.746   9.453
 6775POPC   PO424780  43.119   9.782   9.153
 6775POPC   GL124781  43.087   9.713   8.853
 6775POPC   GL224782  42.962   9.783   8.853
 6775POPC   C1A24783  43.088   9.771   8.553
 6775POPC   D2A24784  43.140   9.778   8.253
 6775POPC   C3A24785  43.121   9.776   7.953
 6775POPC   C4A24786  43.084   9.717   7.653
 6775POPC   C1B24787  42.881   9.873   8.553
 6775POPC   C2B24788  42.877   9.871   8.253
 6775POPC   C3B24789  42.872   9.885   7.953
 6775POPC   C4B24790  42.857   9.854   7.653
 6776POPC   NC324791  26.036  23.737   9.453
 6776POPC   PO424792  26.085  23.759   9.153
 6776POPC   GL124793  26.032  23.688   8.853
 6776POPC   GL224794  26.093  23.554   8.853
 6776POPC   C1A24795  26.007  23.699   8.553
 6776POPC   D2A24796  26.057  23.724   8.253
 6776POPC   C3A24797  26.067  23.718   7.953
 6776POPC   C4A24798  26.068  23.743   7.653
 6776POPC   C1B24799  26.145  23.512   8.553
 6776POPC   C2B24800  26.152  23.448   8.253
 6776POPC   C3B24801  26.196  23.489   7.953
 6776POPC   C4B24802  26.162  23.494   7.653
 6777POPC   NC324803  43.889   5.916   9.453
 6777POPC   PO424804  43.923   5.863   9.153
 6777POPC   GL124805  43.864   5.844   8.853
 6777POPC   GL224806  43.885   5.766   8.853
 6777POPC   C1A24807  43.870   5.832   8.553
 6777POPC   D2A24808  43.866   5.842   8.253
 6777POPC   C3A24809  43.866   5.874   7.953
 6777POPC   C4A24810  43.904   5.910   7.653
 6777POPC   C1B24811  43.933   5.611   8.553
 6777POPC   C2B24812  43.937   5.624   8.253
 6777POPC   C3B24813  43.888   5.631   7.953
 6777POPC   C4B24814  43.889   5.644   7.653
 6778POPC   NC324815   7.451  35.363   9.453
 6778POPC   PO424816   7.452  35.370   9.153
 6778POPC   GL124817   7.437  35.389   8.853
 6778POPC   GL224818   7.407  35.254   8.853
 6778POPC   C1A24819   7.433  35.373   8.553
 6778POPC   D2A24820   7.394  35.344   8.253
 6778POPC   C3A24821   7.462  35.309   7.953
 6778POPC   C4A24822   7.402  35.316   7.653
 6778POPC   C1B24823   7.442  35.148   8.553
 6778POPC   C2B24824   7.480  35.124   8.253
 6778POPC   C3B24825   7.472  35.117   7.953
 6778POPC   C4B24826   7.463  35.125   7.653
 6779POPC   NC324827  25.275  28.329   9.453
 6779POPC   PO424828  25.241  28.329   9.153
 6779POPC   GL124829  25.290  28.396   8.853
 6779POPC   GL224830  25.393  28.327   8.853
 6779POPC   C1A24831  25.311  28.405   8.553
 6779POPC   D2A24832  25.216  28.362   8.253
 6779POPC   C3A24833  25.218  28.391   7.953
 6779POPC   C4A24834  25.231  28.368   7.653
 6779POPC   C1B24835  25.467  28.246   8.553
 6779POPC   C2B24836  25.439  28.209   8.253
 6779POPC   C3B24837  25.411  28.239   7.953
 6779POPC   C4B24838  25.429  28.210   7.653
 6780POPC   NC324839  17.524  34.561   9.453
 6780POPC   PO424840  17.517  34.583   9.153
 6780POPC   GL124841  17.506  34.560   8.853
 6780POPC   GL224842  17.476  34.685   8.853
 6780POPC   C1A24843  17.513  34.600   8.553
 6780POPC   D2A24844  17.469  34.532   8.253
 6780POPC   C3A24845  17.503  34.581   7.953
 6780POPC   C4A24846  17.547  34.537   7.653
 6780POPC   C1B24847  17.460  34.845   8.553
 6780POPC   C2B24848  17.516  34.798   8.253
 6780POPC   C3B24849  17.534  34.842   7.953
 6780POPC   C4B24850  17.551  34.822   7.653
 6781POPC   NC324851  20.616  21.386   9.453
 6781POPC   PO424852  20.627  21.387   9.153
 6781POPC   GL124853  20.650  21.400   8.853
 6781POPC   GL224854  20.666  21.417   8.853
 6781POPC   C1A24855  20.564  21.407   8.553
 6781POPC   D2A24856  20.652  21.347   8.253
 6781POPC   C3A24857  20.600  21.357   7.953
 6781POPC   C4A24858  20.632  21.381   7.653
 6781POPC   C1B24859  20.866  21.477   8.553
 6781POPC   C2B24860  20.836  21.509   8.253
 6781POPC   C3B24861  20.841  21.486   7.953
 6781POPC   C4B24862  20.778  21.571   7.653
 6782POPC   NC324863  36.140   8.978   9.453
 6782POPC   PO424864  36.104   8.977   9.153
 6782POPC   GL124865  36.177   8.987   8.853
 6782POPC   GL224866  36.030   8.994   8.853
 6782POPC   C1A24867  36.165   8.975   8.553
 6782POPC   D2A24868  36.088   8.941   8.253
 6782POPC   C3A24869  36.136   8.958   7.953
 6782POPC   C4A24870  36.110   9.014   7.653
 6782POPC   C1B24871  35.835   8.990   8.553
 6782POPC   C2B24872  35.832   8.984   8.253
 6782POPC   C3B24873  35.858   8.944   7.953
 6782POPC   C4B24874  35.907   8.993   7.653
 6783POPC   NC324875  21.431  20.618   9.453
 6783POPC   PO424876  21.394  20.639   9.153
 6783POPC   GL124877  21.382  20.642   8.853
 6783POPC   GL224878  21.256  20.684   8.853
 6783POPC   C1A24879  21.377  20.622   8.553
 6783POPC   D2A24880  21.432  20.566   8.253
 6783POPC   C3A24881  21.356  20.624   7.953
 6783POPC   C4A24882  21.354  20.621   7.653
 6783POPC   C1B24883  21.213  20.738   8.553
 6783POPC   C2B24884  21.230  20.791   8.253
 6783POPC   C3B24885  21.169  20.791   7.953
 6783POPC   C4B24886  21.221  20.771   7.653
 6784POPC   NC324887  43.062  28.326   9.453
 6784POPC   PO424888  43.086  28.346   9.153
 6784POPC   GL124889  43.154  28.390   8.853
 6784POPC   GL224890  43.235  28.339   8.853
 6784POPC   C1A24891  43.149  28.355   8.553
 6784POPC   D2A24892  43.157  28.412   8.253
 6784POPC   C3A24893  43.119  28.330   7.953
 6784POPC   C4A24894  43.063  28.408   7.653
 6784POPC   C1B24895  43.383  28.264   8.553
 6784POPC   C2B24896  43.360  28.285   8.253
 6784POPC   C3B24897  43.334  28.247   7.953
 6784POPC   C4B24898  43.367  28.304   7.653
 6785POPC   NC324899  43.867  39.262   9.453
 6785POPC   PO424900  43.900  39.231   9.153
 6785POPC   GL124901  43.881  39.256   8.853
 6785POPC   GL224902  44.013  39.177   8.853
 6785POPC   C1A24903  43.839  39.233   8.553
 6785POPC   D2A24904  43.930  39.214   8.253
 6785POPC   C3A24905  43.906  39.216   7.953
 6785POPC   C4A24906  43.843  39.239   7.653
 6785POPC   C1B24907  44.075  39.069   8.553
 6785POPC   C2B24908  44.138  39.094   8.253
 6785POPC   C3B24909  44.083  39.094   7.953
 6785POPC   C4B24910  44.047  39.096   7.653
 6786POPC   NC324911  24.441  21.366   9.453
 6786POPC   PO424912  24.466  21.436   9.153
 6786POPC   GL124913  24.456  21.358   8.853
 6786POPC   GL224914  24.475  21.535   8.853
 6786POPC   C1A24915  24.539  21.412   8.553
 6786POPC   D2A24916  24.482  21.421   8.253
 6786POPC   C3A24917  24.497  21.406   7.953
 6786POPC   C4A24918  24.505  21.403   7.653
 6786POPC   C1B24919  24.448  21.683   8.553
 6786POPC   C2B24920  24.440  21.594   8.253
 6786POPC   C3B24921  24.443  21.648   7.953
 6786POPC   C4B24922  24.441  21.652   7.653
 6787POPC   NC324923  33.829   7.389   9.453
 6787POPC   PO424924  33.840   7.430   9.153
 6787POPC   GL124925  33.820   7.468   8.853
 6787POPC   GL224926  33.728   7.301   8.853
 6787POPC   C1A24927  33.808   7.421   8.553
 6787POPC   D2A24928  33.764   7.415   8.253
 6787POPC   C3A24929  33.821   7.398   7.953
 6787POPC   C4A24930  33.826   7.377   7.653
 6787POPC   C1B24931  33.591   7.210   8.553
 6787POPC   C2B24932  33.591   7.233   8.253
 6787POPC   C3B24933  33.656   7.295   7.953
 6787POPC   C4B24934  33.604   7.215   7.653
 6788POPC   NC324935  36.174  14.425   9.453
 6788POPC   PO424936  36.078  14.399   9.153
 6788POPC   GL124937  36.082  14.432   8.853
 6788POPC   GL224938  36.095  14.543   8.853
 6788POPC   C1A24939  36.137  14.408   8.553
 6788POPC   D2A24940  36.170  14.434   8.253
 6788POPC   C3A24941  36.155  14.383   7.953
 6788POPC   C4A24942  36.130  14.392   7.653
 6788POPC   C1B24943  36.088  14.633   8.553
 6788POPC   C2B24944  36.151  14.634   8.253
 6788POPC   C3B24945  36.153  14.665   7.953
 6788POPC   C4B24946  36.151  14.612   7.653
 6789POPC   NC324947  19.020  40.820   9.453
 6789POPC   PO424948  19.077  40.743   9.153
 6789POPC   GL124949  19.015  40.752   8.853
 6789POPC   GL224950  19.120  40.649   8.853
 6789POPC   C1A24951  19.083  40.811   8.553
 6789POPC   D2A24952  19.075  40.796   8.253
 6789POPC   C3A24953  19.050  40.798   7.953
 6789POPC   C4A24954  19.083  40.830   7.653
 6789POPC   C1B24955  19.172  40.510   8.553
 6789POPC   C2B24956  19.202  40.514   8.253
 6789POPC   C3B24957  19.149  40.605   7.953
 6789POPC   C4B24958  19.214  40.593   7.653
 6790POPC   NC324959   4.323  31.467   9.453
 6790POPC   PO424960   4.275  31.496   9.153
 6790POPC   GL124961   4.288  31.516   8.853
 6790POPC   GL224962   4.254  31.383   8.853
 6790POPC   C1A24963   4.367  31.447   8.553
 6790POPC   D2A24964   4.297  31.458   8.253
 6790POPC   C3A24965   4.325  31.458   7.953
 6790POPC   C4A24966   4.367  31.465   7.653
 6790POPC   C1B24967   4.105  31.357   8.553
 6790POPC   C2B24968   4.093  31.342   8.253
 6790POPC   C3B24969   4.120  31.334   7.953
 6790POPC   C4B24970   4.166  31.279   7.653
 6791POPC   NC324971  43.075  36.088   9.453
 6791POPC   PO424972  43.138  36.142   9.153
 6791POPC   GL124973  43.156  36.124   8.853
 6791POPC   GL224974  43.202  36.163   8.853
 6791POPC   C1A24975  43.149  36.145   8.553
 6791POPC   D2A24976  43.142  36.084   8.253
 6791POPC   C3A24977  43.160  36.088   7.953
 6791POPC   C4A24978  43.126  36.133   7.653
 6791POPC   C1B24979  43.366  36.304   8.553
 6791POPC   C2B24980  43.368  36.295   8.253
 6791POPC   C3B24981  43.295  36.264   7.953
 6791POPC   C4B24982  43.276  36.281   7.653
 6792POPC   NC324983  29.096   5.121   9.453
 6792POPC   PO424984  29.151   5.093   9.153
 6792POPC   GL124985  29.168   5.061   8.853
 6792POPC   GL224986  29.068   5.144   8.853
 6792POPC   C1A24987  29.165   5.095   8.553
 6792POPC   D2A24988  29.127   5.070   8.253
 6792POPC   C3A24989  29.193   5.066   7.953
 6792POPC   C4A24990  29.167   5.100   7.653
 6792POPC   C1B24991  28.887   5.199   8.553
 6792POPC   C2B24992  28.947   5.190   8.253
 6792POPC   C3B24993  28.962   5.167   7.953
 6792POPC   C4B24994  28.935   5.226   7.653
 6793POPC   NC324995  36.174  33.042   9.453
 6793POPC   PO424996  36.099  33.037   9.153
 6793POPC   GL124997  36.166  33.012   8.853
 6793POPC   GL224998  35.978  33.010   8.853
 6793POPC   C1A24999  36.175  33.013   8.553
 6793POPC   D2A25000  36.168  33.021   8.253
 6793POPC   C3A25001  36.082  32.978   7.953
 6793POPC   C4A25002  36.079  33.072   7.653
 6793POPC   C1B25003  35.853  32.933   8.553
 6793POPC   C2B25004  35.865  32.973   8.253
 6793POPC   C3B25005  35.880  32.943   7.953
 6793POPC   C4B25006  35.851  32.920   7.653
 6794POPC   NC325007  15.178  21.400   9.453
 6794POPC   PO425008  15.178  21.387   9.153
 6794POPC   GL125009  15.167  21.398   8.853
 6794POPC   GL225010  15.275  21.238   8.853
 6794POPC   C1A25011  15.136  21.395   8.553
 6794POPC   D2A25012  15.136  21.417   8.253
 6794POPC   C3A25013  15.216  21.342   7.953
 6794POPC   C4A25014  15.162  21.415   7.653
 6794POPC   C1B25015  15.287  21.218   8.553
 6794POPC   C2B25016  15.312  21.126   8.253
 6794POPC   C3B25017  15.294  21.144   7.953
 6794POPC   C4B25018  15.346  21.220   7.653
 6795POPC   NC325019   5.844  20.658   9.453
 6795POPC   PO425020   5.839  20.620   9.153
 6795POPC   GL125021   5.887  20.659   8.853
 6795POPC   GL225022   5.944  20.710   8.853
 6795POPC   C1A25023   5.899  20.654   8.553
 6795POPC   D2A25024   5.852  20.651   8.253
 6795POPC   C3A25025   5.884  20.635   7.953
 6795POPC   C4A25026   5.872  20.624   7.653
 6795POPC   C1B25027   6.111  20.725   8.553
 6795POPC   C2B25028   6.091  20.713   8.253
 6795POPC   C3B25029   6.135  20.702   7.953
 6795POPC   C4B25030   6.058  20.678   7.653
 6796POPC   NC325031  19.857  36.154   9.453
 6796POPC   PO425032  19.805  36.080   9.153
 6796POPC   GL125033  19.834  36.121   8.853
 6796POPC   GL225034  19.936  36.095   8.853
 6796POPC   C1A25035  19.868  36.118   8.553
 6796POPC   D2A25036  19.849  36.142   8.253
 6796POPC   C3A25037  19.790  36.134   7.953
 6796POPC   C4A25038  19.816  36.083   7.653
 6796POPC   C1B25039  20.075  36.127   8.553
 6796POPC   C2B25040  20.098  36.161   8.253
 6796POPC   C3B25041  20.105  36.199   7.953
 6796POPC   C4B25042  20.094  36.112   7.653
 6797POPC   NC325043  27.626   6.671   9.453
 6797POPC   PO425044  27.642   6.682   9.153
 6797POPC   GL125045  27.557   6.655   8.853
 6797POPC   GL225046  27.451   6.610   8.853
 6797POPC   C1A25047  27.613   6.616   8.553
 6797POPC   D2A25048  27.620   6.617   8.253
 6797POPC   C3A25049  27.583   6.627   7.953
 6797POPC   C4A25050  27.573   6.619   7.653
 6797POPC   C1B25051  27.330   6.616   8.553
 6797POPC   C2B25052  27.308   6.579   8.253
 6797POPC   C3B25053  27.300   6.641   7.953
 6797POPC   C4B25054  27.379   6.626   7.653
 6798POPC   NC325055  26.013  41.571   9.453
 6798POPC   PO425056  26.047  41.586   9.153
 6798POPC   GL125057  26.028  41.523   8.853
 6798POPC   GL225058  26.104  41.641   8.853
 6798POPC   C1A25059  26.047  41.588   8.553
 6798POPC   D2A25060  26.055  41.527   8.253
 6798POPC   C3A25061  26.024  41.573   7.953
 6798POPC   C4A25062  26.023  41.552   7.653
 6798POPC   C1B25063  26.222  41.652   8.553
 6798POPC   C2B25064  26.298  41.719   8.253
 6798POPC   C3B25065  26.216  41.710   7.953
 6798POPC   C4B25066  26.296  41.655   7.653
 6799POPC   NC325067  35.372  25.270   9.453
 6799POPC   PO425068  35.304  25.288   9.153
 6799POPC   GL125069  35.353  25.240   8.853
 6799POPC   GL225070  35.522  25.295   8.853
 6799POPC   C1A25071  35.372  25.305   8.553
 6799POPC   D2A25072  35.321  25.303   8.253
 6799POPC   C3A25073  35.330  25.223   7.953
 6799POPC   C4A25074  35.311  25.304   7.653
 6799POPC   C1B25075  35.598  25.251   8.553
 6799POPC   C2B25076  35.605  25.217   8.253
 6799POPC   C3B25077  35.611  25.241   7.953
 6799POPC   C4B25078  35.588  25.216   7.653
 6800POPC   NC325079  44.683  38.443   9.453
 6800POPC   PO425080  44.711  38.492   9.153
 6800POPC   GL125081  44.656  38.453   8.853
 6800POPC   GL225082  44.836  38.468   8.853
 6800POPC   C1A25083  44.625  38.500   8.553
 6800POPC   D2A25084  44.639  38.488   8.253
 6800POPC   C3A25085  44.710  38.428   7.953
 6800POPC   C4A25086  44.639  38.470   7.653
 6800POPC   C1B25087  44.868  38.483   8.553
 6800POPC   C2B25088  44.898  38.519   8.253
 6800POPC   C3B25089  44.885  38.445   7.953
 6800POPC   C4B25090  44.938  38.451   7.653
 6801POPC   NC325091  19.078  25.228   9.453
 6801POPC   PO425092  19.011  25.281   9.153
 6801POPC   GL125093  19.078  25.285   8.853
 6801POPC   GL225094  19.187  25.399   8.853
 6801POPC   C1A25095  19.009  25.226   8.553
 6801POPC   D2A25096  19.091  25.294   8.253
 6801POPC   C3A25097  19.029  25.311   7.953
 6801POPC   C4A25098  19.105  25.305   7.653
 6801POPC   C1B25099  19.261  25.402   8.553
 6801POPC   C2B25100  19.211  25.425   8.253
 6801POPC   C3B25101  19.262  25.414   7.953
 6801POPC   C4B25102  19.280  25.466   7.653
 6802POPC   NC325103  43.081   4.338   9.453
 6802POPC   PO425104  43.123   4.291   9.153
 6802POPC   GL125105  43.158   4.298   8.853
 6802POPC   GL225106  43.145   4.178   8.853
 6802POPC   C1A25107  43.095   4.299   8.553
 6802POPC   D2A25108  43.085   4.300   8.253
 6802POPC   C3A25109  43.139   4.286   7.953
 6802POPC   C4A25110  43.160   4.339   7.653
 6802POPC   C1B25111  43.290   4.148   8.553
 6802POPC   C2B25112  43.280   4.161   8.253
 6802POPC   C3B25113  43.226   4.140   7.953
 6802POPC   C4B25114  43.310   4.093   7.653
 6803POPC   NC325115  21.363  29.957   9.453
 6803POPC   PO425116  21.390  29.886   9.153
 6803POPC   GL125117  21.360  29.901   8.853
 6803POPC   GL225118  21.302  30.021   8.853
 6803POPC   C1A25119  21.389  29.939   8.553
 6803POPC   D2A25120  21.355  29.951   8.253
 6803POPC   C3A25121  21.396  29.880   7.953
 6803POPC   C4A25122  21.423  29.884   7.653
 6803POPC   C1B25123  21.362  30.209   8.553
 6803POPC   C2B25124  21.275  30.144   8.253
 6803POPC   C3B25125  21.280  30.116   7.953
 6803POPC   C4B25126  21.360  30.148   7.653
 6804POPC   NC325127  20.574  28.414   9.453
 6804POPC   PO425128  20.610  28.364   9.153
 6804POPC   GL125129  20.564  28.351   8.853
 6804POPC   GL225130  20.521  28.307   8.853
 6804POPC   C1A25131  20.590  28.384   8.553
 6804POPC   D2A25132  20.608  28.412   8.253
 6804POPC   C3A25133  20.627  28.384   7.953
 6804POPC   C4A25134  20.650  28.323   7.653
 6804POPC   C1B25135  20.446  28.121   8.553
 6804POPC   C2B25136  20.503  28.150   8.253
 6804POPC   C3B25137  20.433  28.143   7.953
 6804POPC   C4B25138  20.457  28.207   7.653
 6805POPC   NC325139  15.954  24.474   9.453
 6805POPC   PO425140  15.985  24.521   9.153
 6805POPC   GL125141  15.924  24.529   8.853
 6805POPC   GL225142  16.110  24.514   8.853
 6805POPC   C1A25143  15.992  24.441   8.553
 6805POPC   D2A25144  15.974  24.467   8.253
 6805POPC   C3A25145  15.978  24.485   7.953
 6805POPC   C4A25146  15.961  24.459   7.653
 6805POPC   C1B25147  16.190  24.481   8.553
 6805POPC   C2B25148  16.254  24.492   8.253
 6805POPC   C3B25149  16.158  24.494   7.953
 6805POPC   C4B25150  16.174  24.521   7.653
 6806POPC   NC325151  36.936  23.669   9.453
 6806POPC   PO425152  36.905  23.761   9.153
 6806POPC   GL125153  36.882  23.680   8.853
 6806POPC   GL225154  36.837  23.578   8.853
 6806POPC   C1A25155  36.874  23.727   8.553
 6806POPC   D2A25156  36.895  23.733   8.253
 6806POPC   C3A25157  36.856  23.709   7.953
 6806POPC   C4A25158  36.885  23.711   7.653
 6806POPC   C1B25159  36.902  23.474   8.553
 6806POPC   C2B25160  36.832  23.498   8.253
 6806POPC   C3B25161  36.884  23.463   7.953
 6806POPC   C4B25162  36.880  23.432   7.653
 6807POPC   NC325163  22.976  43.084   9.453
 6807POPC   PO425164  22.948  43.136   9.153
 6807POPC   GL125165  22.929  43.137   8.853
 6807POPC   GL225166  22.888  43.002   8.853
 6807POPC   C1A25167  22.930  43.127   8.553
 6807POPC   D2A25168  22.967  43.087   8.253
 6807POPC   C3A25169  22.898  43.159   7.953
 6807POPC   C4A25170  22.954  43.071   7.653
 6807POPC   C1B25171  22.782  42.917   8.553
 6807POPC   C2B25172  22.819  42.973   8.253
 6807POPC   C3B25173  22.813  42.900   7.953
 6807POPC   C4B25174  22.813  42.885   7.653
 6808POPC   NC325175  12.816  36.090   9.453
 6808POPC   PO425176  12.863  36.096   9.153
 6808POPC   GL125177  12.870  36.099   8.853
 6808POPC   GL225178  12.915  36.028   8.853
 6808POPC   C1A25179  12.893  36.121   8.553
 6808POPC   D2A25180  12.870  36.149   8.253
 6808POPC   C3A25181  12.899  36.152   7.953
 6808POPC   C4A25182  12.860  36.132   7.653
 6808POPC   C1B25183  12.929  35.858   8.553
 6808POPC   C2B25184  12.894  35.841   8.253
 6808POPC   C3B25185  12.902  35.931   7.953
 6808POPC   C4B25186  12.872  35.843   7.653
 6809POPC   NC325187   5.841  43.092   9.453
 6809POPC   PO425188   5.892  43.116   9.153
 6809POPC   GL125189   5.860  43.097   8.853
 6809POPC   GL225190   5.899  43.009   8.853
 6809POPC   C1A25191   5.827  43.086   8.553
 6809POPC   D2A25192   5.850  43.100   8.253
 6809POPC   C3A25193   5.915  43.114   7.953
 6809POPC   C4A25194   5.859  43.134   7.653
 6809POPC   C1B25195   5.944  42.836   8.553
 6809POPC   C2B25196   5.940  42.828   8.253
 6809POPC   C3B25197   5.909  42.853   7.953
 6809POPC   C4B25198   5.905  42.854   7.653
 6810POPC   NC325199  30.703  28.392   9.453
 6810POPC   PO425200  30.729  28.343   9.153
 6810POPC   GL125201  30.675  28.413   8.853
 6810POPC   GL225202  30.763  28.330   8.853
 6810POPC   C1A25203  30.660  28.323   8.553
 6810POPC   D2A25204  30.668  28.414   8.253
 6810POPC   C3A25205  30.650  28.347   7.953
 6810POPC   C4A25206  30.713  28.345   7.653
 6810POPC   C1B25207  30.915  28.287   8.553
 6810POPC   C2B25208  30.882  28.195   8.253
 6810POPC   C3B25209  30.939  28.282   7.953
 6810POPC   C4B25210  30.936  28.230   7.653
 6811POPC   NC325211   3.556  43.151   9.453
 6811POPC   PO425212   3.572  43.083   9.153
 6811POPC   GL125213   3.541  43.129   8.853
 6811POPC   GL225214   3.418  43.171   8.853
 6811POPC   C1A25215   3.587  43.063   8.553
 6811POPC   D2A25216   3.567  43.075   8.253
 6811POPC   C3A25217   3.519  43.118   7.953
 6811POPC   C4A25218   3.516  43.140   7.653
 6811POPC   C1B25219   3.252  43.123   8.553
 6811POPC   C2B25220   3.274  43.190   8.253
 6811POPC   C3B25221   3.314  43.192   7.953
 6811POPC   C4B25222   3.279  43.161   7.653
 6812POPC   NC325223  25.253  21.354   9.453
 6812POPC   PO425224  25.245  21.354   9.153
 6812POPC   GL125225  25.235  21.360   8.853
 6812POPC   GL225226  25.126  21.368   8.853
 6812POPC   C1A25227  25.227  21.343   8.553
 6812POPC   D2A25228  25.273  21.356   8.253
 6812POPC   C3A25229  25.268  21.426   7.953
 6812POPC   C4A25230  25.234  21.408   7.653
 6812POPC   C1B25231  25.027  21.394   8.553
 6812POPC   C2B25232  24.990  21.356   8.253
 6812POPC   C3B25233  25.034  21.378   7.953
 6812POPC   C4B25234  25.056  21.318   7.653
 6813POPC   NC325235  38.485  22.196   9.453
 6813POPC   PO425236  38.433  22.195   9.153
 6813POPC   GL125237  38.500  22.209   8.853
 6813POPC   GL225238  38.486  22.296   8.853
 6813POPC   C1A25239  38.421  22.156   8.553
 6813POPC   D2A25240  38.487  22.201   8.253
 6813POPC   C3A25241  38.499  22.160   7.953
 6813POPC   C4A25242  38.463  22.198   7.653
 6813POPC   C1B25243  38.586  22.438   8.553
 6813POPC   C2B25244  38.586  22.397   8.253
 6813POPC   C3B25245  38.503  22.425   7.953
 6813POPC   C4B25246  38.555  22.438   7.653
 6814POPC   NC325247  31.503  31.475   9.453
 6814POPC   PO425248  31.509  31.521   9.153
 6814POPC   GL125249  31.515  31.447   8.853
 6814POPC   GL225250  31.519  31.562   8.853
 6814POPC   C1A25251  31.435  31.514   8.553
 6814POPC   D2A25252  31.456  31.424   8.253
 6814POPC   C3A25253  31.512  31.519   7.953
 6814POPC   C4A25254  31.458  31.460   7.653
 6814POPC   C1B25255  31.572  31.724   8.553
 6814POPC   C2B25256  31.547  31.751   8.253
 6814POPC   C3B25257  31.533  31.756   7.953
 6814POPC   C4B25258  31.581  31.732   7.653
 6815POPC   NC325259  28.380  26.780   9.453
 6815POPC   PO425260  28.407  26.852   9.153
 6815POPC   GL125261  28.409  26.787   8.853
 6815POPC   GL225262  28.312  26.693   8.853
 6815POPC   C1A25263  28.356  26.795   8.553
 6815POPC   D2A25264  28.341  26.855   8.253
 6815POPC   C3A25265  28.372  26.803   7.953
 6815POPC   C4A25266  28.380  26.808   7.653
 6815POPC   C1B25267  28.287  26.562   8.553
 6815POPC   C2B25268  28.329  26.546   8.253
 6815POPC   C3B25269  28.291  26.599   7.953
 6815POPC   C4B25270  28.317  26.607   7.653
 6816POPC   NC325271  10.517   5.045   9.453
 6816POPC   PO425272  10.524   5.133   9.153
 6816POPC   GL125273  10.478   5.049   8.853
 6816POPC   GL225274  10.646   4.993   8.853
 6816POPC   C1A25275  10.511   5.065   8.553
 6816POPC   D2A25276  10.518   5.073   8.253
 6816POPC   C3A25277  10.572   5.122   7.953
 6816POPC   C4A25278  10.563   5.128   7.653
 6816POPC   C1B25279  10.720   5.010   8.553
 6816POPC   C2B25280  10.711   4.930   8.253
 6816POPC   C3B25281  10.784   4.917   7.953
 6816POPC   C4B25282  10.694   4.946   7.653
 6817POPC   NC325283  23.743  28.367   9.453
 6817POPC   PO425284  23.762  28.363   9.153
 6817POPC   GL125285  23.677  28.331   8.853
 6817POPC   GL225286  23.648  28.226   8.853
 6817POPC   C1A25287  23.714  28.364   8.553
 6817POPC   D2A25288  23.715  28.360   8.253
 6817POPC   C3A25289  23.740  28.397   7.953
 6817POPC   C4A25290  23.755  28.414   7.653
 6817POPC   C1B25291  23.629  28.101   8.553
 6817POPC   C2B25292  23.577  28.116   8.253
 6817POPC   C3B25293  23.623  28.140   7.953
 6817POPC   C4B25294  23.580  28.095   7.653
 6818POPC   NC325295  41.529   8.948   9.453
 6818POPC   PO425296  41.588   8.960   9.153
 6818POPC   GL125297  41.521   8.994   8.853
 6818POPC   GL225298  41.414   8.936   8.853
 6818POPC   C1A25299  41.554   8.950   8.553
 6818POPC   D2A25300  41.533   8.962   8.253
 6818POPC   C3A25301  41.525   8.974   7.953
 6818POPC   C4A25302  41.521   8.923   7.653
 6818POPC   C1B25303  41.314   8.896   8.553
 6818POPC   C2B25304  41.315   8.835   8.253
 6818POPC   C3B25305  41.335   8.845   7.953
 6818POPC   C4B25306  41.276   8.893   7.653
 6819POPC   NC325307  22.963  42.343   9.453
 6819POPC   PO425308  22.943  42.296   9.153
 6819POPC   GL125309  22.889  42.292   8.853
 6819POPC   GL225310  22.885  42.277   8.853
 6819POPC   C1A25311  22.892  42.349   8.553
 6819POPC   D2A25312  22.964  42.293   8.253
 6819POPC   C3A25313  22.912  42.303   7.953
 6819POPC   C4A25314  22.986  42.302   7.653
 6819POPC   C1B25315  22.851  42.146   8.553
 6819POPC   C2B25316  22.831  42.169   8.253
 6819POPC   C3B25317  22.787  42.164   7.953
 6819POPC   C4B25318  22.814  42.120   7.653
 6820POPC   NC325319  16.707   0.483   9.453
 6820POPC   PO425320  16.774   0.460   9.153
 6820POPC   GL125321  16.714   0.420   8.853
 6820POPC   GL225322  16.643   0.347   8.853
 6820POPC   C1A25323  16.739   0.478   8.553
 6820POPC   D2A25324  16.688   0.438   8.253
 6820POPC   C3A25325  16.737   0.439   7.953
 6820POPC   C4A25326  16.691   0.442   7.653
 6820POPC   C1B25327  16.574   0.247   8.553
 6820POPC   C2B25328  16.655   0.187   8.253
 6820POPC   C3B25329  16.630   0.184   7.953
 6820POPC   C4B25330  16.582   0.217   7.653
 6821POPC   NC325331  26.079   8.190   9.453
 6821POPC   PO425332  26.040   8.156   9.153
 6821POPC   GL125333  26.037   8.220   8.853
 6821POPC   GL225334  26.106   8.121   8.853
 6821POPC   C1A25335  26.045   8.150   8.553
 6821POPC   D2A25336  26.068   8.164   8.253
 6821POPC   C3A25337  26.040   8.178   7.953
 6821POPC   C4A25338  26.083   8.203   7.653
 6821POPC   C1B25339  26.222   8.115   8.553
 6821POPC   C2B25340  26.303   8.123   8.253
 6821POPC   C3B25341  26.312   8.034   7.953
 6821POPC   C4B25342  26.269   8.108   7.653
 6822POPC   NC325343  20.646  27.589   9.453
 6822POPC   PO425344  20.609  27.560   9.153
 6822POPC   GL125345  20.594  27.615   8.853
 6822POPC   GL225346  20.502  27.659   8.853
 6822POPC   C1A25347  20.615  27.601   8.553
 6822POPC   D2A25348  20.656  27.580   8.253
 6822POPC   C3A25349  20.633  27.560   7.953
 6822POPC   C4A25350  20.643  27.563   7.653
 6822POPC   C1B25351  20.345  27.631   8.553
 6822POPC   C2B25352  20.365  27.614   8.253
 6822POPC   C3B25353  20.381  27.672   7.953
 6822POPC   C4B25354  20.317  27.625   7.653
 6823POPC   NC325355  19.079   1.237   9.453
 6823POPC   PO425356  19.090   1.260   9.153
 6823POPC   GL125357  19.091   1.194   8.853
 6823POPC   GL225358  19.080   1.306   8.853
 6823POPC   C1A25359  19.055   1.230   8.553
 6823POPC   D2A25360  19.059   1.220   8.253
 6823POPC   C3A25361  19.024   1.229   7.953
 6823POPC   C4A25362  19.074   1.167   7.653
 6823POPC   C1B25363  19.026   1.434   8.553
 6823POPC   C2B25364  19.064   1.435   8.253
 6823POPC   C3B25365  19.027   1.490   7.953
 6823POPC   C4B25366  18.979   1.419   7.653
 6824POPC   NC325367   8.190  19.869   9.453
 6824POPC   PO425368   8.159  19.875   9.153
 6824POPC   GL125369   8.153  19.852   8.853
 6824POPC   GL225370   8.058  19.752   8.853
 6824POPC   C1A25371   8.220  19.814   8.553
 6824POPC   D2A25372   8.196  19.862   8.253
 6824POPC   C3A25373   8.210  19.849   7.953
 6824POPC   C4A25374   8.215  19.799   7.653
 6824POPC   C1B25375   7.986  19.691   8.553
 6824POPC   C2B25376   8.035  19.718   8.253
 6824POPC   C3B25377   8.002  19.664   7.953
 6824POPC   C4B25378   7.971  19.660   7.653
 6825POPC   NC325379  13.667  41.595   9.453
 6825POPC   PO425380  13.626  41.523   9.153
 6825POPC   GL125381  13.670  41.584   8.853
 6825POPC   GL225382  13.687  41.658   8.853
 6825POPC   C1A25383  13.603  41.528   8.553
 6825POPC   D2A25384  13.578  41.576   8.253
 6825POPC   C3A25385  13.619  41.537   7.953
 6825POPC   C4A25386  13.616  41.533   7.653
 6825POPC   C1B25387  13.670  41.829   8.553
 6825POPC   C2B25388  13.707  41.786   8.253
 6825POPC   C3B25389  13.677  41.821   7.953
 6825POPC   C4B25390  13.672  41.855   7.653
 6826POPC   NC325391  43.841  35.330   9.453
 6826POPC   PO425392  43.865  35.319   9.153
 6826POPC   GL125393  43.932  35.376   8.853
 6826POPC   GL225394  43.753  35.470   8.853
 6826POPC   C1A25395  43.874  35.338   8.553
 6826POPC   D2A25396  43.837  35.330   8.253
 6826POPC   C3A25397  43.892  35.306   7.953
 6826POPC   C4A25398  43.851  35.363   7.653
 6826POPC   C1B25399  43.656  35.532   8.553
 6826POPC   C2B25400  43.698  35.461   8.253
 6826POPC   C3B25401  43.711  35.489   7.953
 6826POPC   C4B25402  43.708  35.515   7.653
 6827POPC   NC325403   9.764  30.735   9.453
 6827POPC   PO425404   9.701  30.665   9.153
 6827POPC   GL125405   9.784  30.657   8.853
 6827POPC   GL225406   9.812  30.629   8.853
 6827POPC   C1A25407   9.707  30.695   8.553
 6827POPC   D2A25408   9.756  30.673   8.253
 6827POPC   C3A25409   9.727  30.705   7.953
 6827POPC   C4A25410   9.789  30.664   7.653
 6827POPC   C1B25411   9.945  30.598   8.553
 6827POPC   C2B25412  10.000  30.600   8.253
 6827POPC   C3B25413   9.980  30.529   7.953
 6827POPC   C4B25414   9.931  30.607   7.653
 6828POPC   NC325415  32.983   5.882   9.453
 6828POPC   PO425416  33.052   5.860   9.153
 6828POPC   GL125417  33.010   5.830   8.853
 6828POPC   GL225418  32.891   5.898   8.853
 6828POPC   C1A25419  33.031   5.846   8.553
 6828POPC   D2A25420  33.014   5.915   8.253
 6828POPC   C3A25421  32.988   5.840   7.953
 6828POPC   C4A25422  33.067   5.856   7.653
 6828POPC   C1B25423  32.826   5.980   8.553
 6828POPC   C2B25424  32.792   5.929   8.253
 6828POPC   C3B25425  32.749   6.008   7.953
 6828POPC   C4B25426  32.757   5.965   7.653
 6829POPC   NC325427  40.020   1.259   9.453
 6829POPC   PO425428  39.990   1.241   9.153
 6829POPC   GL125429  39.963   1.197   8.853
 6829POPC   GL225430  40.112   1.217   8.853
 6829POPC   C1A25431  40.015   1.198   8.553
 6829POPC   D2A25432  39.972   1.261   8.253
 6829POPC   C3A25433  40.035   1.260   7.953
 6829POPC   C4A25434  39.975   1.181   7.653
 6829POPC   C1B25435  40.250   1.298   8.553
 6829POPC   C2B25436  40.270   1.277   8.253
 6829POPC   C3B25437  40.244   1.265   7.953
 6829POPC   C4B25438  40.201   1.305   7.653
 6830POPC   NC325439  19.037  43.885   9.453
 6830POPC   PO425440  19.047  43.895   9.153
 6830POPC   GL125441  19.086  43.897   8.853
 6830POPC   GL225442  19.062  43.764   8.853
 6830POPC   C1A25443  19.100  43.934   8.553
 6830POPC   D2A25444  19.013  43.853   8.253
 6830POPC   C3A25445  19.067  43.879   7.953
 6830POPC   C4A25446  19.075  43.905   7.653
 6830POPC   C1B25447  19.054  43.637   8.553
 6830POPC   C2B25448  19.038  43.657   8.253
 6830POPC   C3B25449  19.048  43.652   7.953
 6830POPC   C4B25450  19.043  43.679   7.653
 6831POPC   NC325451  40.054  43.895   9.453
 6831POPC   PO425452  39.992  43.909   9.153
 6831POPC   GL125453  40.044  43.844   8.853
 6831POPC   GL225454  39.889  43.883   8.853
 6831POPC   C1A25455  40.047  43.933   8.553
 6831POPC   D2A25456  40.010  43.870   8.253
 6831POPC   C3A25457  40.021  43.912   7.953
 6831POPC   C4A25458  39.965  43.918   7.653
 6831POPC   C1B25459  39.768  43.911   8.553
 6831POPC   C2B25460  39.716  43.911   8.253
 6831POPC   C3B25461  39.747  43.889   7.953
 6831POPC   C4B25462  39.758  43.847   7.653
 6832POPC   NC325463   0.411  25.287   9.453
 6832POPC   PO425464   0.477  25.288   9.153
 6832POPC   GL125465   0.464  25.259   8.853
 6832POPC   GL225466   0.350  25.397   8.853
 6832POPC   C1A25467   0.419  25.295   8.553
 6832POPC   D2A25468   0.446  25.236   8.253
 6832POPC   C3A25469   0.394  25.254   7.953
 6832POPC   C4A25470   0.414  25.288   7.653
 6832POPC   C1B25471   0.336  25.478   8.553
 6832POPC   C2B25472   0.306  25.427   8.253
 6832POPC   C3B25473   0.338  25.439   7.953
 6832POPC   C4B25474   0.281  25.428   7.653
 6833POPC   NC325475  40.748  32.291   9.453
 6833POPC   PO425476  40.797  32.236   9.153
 6833POPC   GL125477  40.745  32.220   8.853
 6833POPC   GL225478  40.881  32.286   8.853
 6833POPC   C1A25479  40.827  32.236   8.553
 6833POPC   D2A25480  40.786  32.297   8.253
 6833POPC   C3A25481  40.745  32.285   7.953
 6833POPC   C4A25482  40.755  32.212   7.653
 6833POPC   C1B25483  41.032  32.250   8.553
 6833POPC   C2B25484  41.070  32.272   8.253
 6833POPC   C3B25485  41.026  32.268   7.953
 6833POPC   C4B25486  41.035  32.315   7.653
 6834POPC   NC325487  22.114  33.065   9.453
 6834POPC   PO425488  22.196  33.034   9.153
 6834POPC   GL125489  22.122  33.005   8.853
 6834POPC   GL225490  22.223  32.973   8.853
 6834POPC   C1A25491  22.200  33.010   8.553
 6834POPC   D2A25492  22.133  32.986   8.253
 6834POPC   C3A25493  22.132  33.006   7.953
 6834POPC   C4A25494  22.121  32.983   7.653
 6834POPC   C1B25495  22.373  32.797   8.553
 6834POPC   C2B25496  22.349  32.820   8.253
 6834POPC   C3B25497  22.317  32.812   7.953
 6834POPC   C4B25498  22.367  32.872   7.653
 6835POPC   NC325499   9.005   6.656   9.453
 6835POPC   PO425500   8.933   6.663   9.153
 6835POPC   GL125501   8.935   6.671   8.853
 6835POPC   GL225502   9.097   6.721   8.853
 6835POPC   C1A25503   8.963   6.688   8.553
 6835POPC   D2A25504   8.987   6.651   8.253
 6835POPC   C3A25505   8.965   6.612   7.953
 6835POPC   C4A25506   8.969   6.606   7.653
 6835POPC   C1B25507   9.170   6.748   8.553
 6835POPC   C2B25508   9.152   6.807   8.253
 6835POPC   C3B25509   9.225   6.778   7.953
 6835POPC   C4B25510   9.201   6.775   7.653
 6836POPC   NC325511  26.815  41.551   9.453
 6836POPC   PO425512  26.778  41.590   9.153
 6836POPC   GL125513  26.826  41.594   8.853
 6836POPC   GL225514  26.863  41.716   8.853
 6836POPC   C1A25515  26.790  41.549   8.553
 6836POPC   D2A25516  26.811  41.591   8.253
 6836POPC   C3A25517  26.853  41.554   7.953
 6836POPC   C4A25518  26.839  41.572   7.653
 6836POPC   C1B25519  26.857  41.819   8.553
 6836POPC   C2B25520  26.833  41.782   8.253
 6836POPC   C3B25521  26.839  41.793   7.953
 6836POPC   C4B25522  26.823  41.805   7.653
 6837POPC   NC325523  10.524  30.691   9.453
 6837POPC   PO425524  10.506  30.690   9.153
 6837POPC   GL125525  10.500  30.715   8.853
 6837POPC   GL225526  10.479  30.793   8.853
 6837POPC   C1A25527  10.571  30.677   8.553
 6837POPC   D2A25528  10.491  30.676   8.253
 6837POPC   C3A25529  10.481  30.655   7.953
 6837POPC   C4A25530  10.560  30.694   7.653
 6837POPC   C1B25531  10.428  30.956   8.553
 6837POPC   C2B25532  10.383  30.909   8.253
 6837POPC   C3B25533  10.470  30.904   7.953
 6837POPC   C4B25534  10.407  30.927   7.653
 6838POPC   NC325535  36.115  21.355   9.453
 6838POPC   PO425536  36.176  21.403   9.153
 6838POPC   GL125537  36.133  21.338   8.853
 6838POPC   GL225538  36.150  21.315   8.853
 6838POPC   C1A25539  36.091  21.340   8.553
 6838POPC   D2A25540  36.125  21.432   8.253
 6838POPC   C3A25541  36.078  21.361   7.953
 6838POPC   C4A25542  36.116  21.421   7.653
 6838POPC   C1B25543  36.308  21.231   8.553
 6838POPC   C2B25544  36.272  21.187   8.253
 6838POPC   C3B25545  36.300  21.193   7.953
 6838POPC   C4B25546  36.299  21.198   7.653
 6839POPC   NC325547  25.240  34.551   9.453
 6839POPC   PO425548  25.309  34.528   9.153
 6839POPC   GL125549  25.221  34.620   8.853
 6839POPC   GL225550  25.391  34.495   8.853
 6839POPC   C1A25551  25.216  34.603   8.553
 6839POPC   D2A25552  25.305  34.589   8.253
 6839POPC   C3A25553  25.282  34.551   7.953
 6839POPC   C4A25554  25.247  34.592   7.653
 6839POPC   C1B25555  25.412  34.354   8.553
 6839POPC   C2B25556  25.434  34.346   8.253
 6839POPC   C3B25557  25.419  34.346   7.953
 6839POPC   C4B25558  25.387  34.389   7.653
 6840POPC   NC325559  43.882  44.668   9.453
 6840POPC   PO425560  43.910  44.658   9.153
 6840POPC   GL125561  43.929  44.633   8.853
 6840POPC   GL225562  43.808  44.773   8.853
 6840POPC   C1A25563  43.906  44.655   8.553
 6840POPC   D2A25564  43.849  44.656   8.253
 6840POPC   C3A25565  43.888  44.643   7.953
 6840POPC   C4A25566  43.852  44.639   7.653
 6840POPC   C1B25567  43.833  44.861   8.553
 6840POPC   C2B25568  43.866  44.883   8.253
 6840POPC   C3B25569  43.807  44.930   7.953
 6840POPC   C4B25570  43.825  44.866   7.653
 6841POPC   NC325571  12.081  26.013   9.453
 6841POPC   PO425572  12.033  26.060   9.153
 6841POPC   GL125573  12.087  26.043   8.853
 6841POPC   GL225574  12.041  25.890   8.853
 6841POPC   C1A25575  12.105  26.036   8.553
 6841POPC   D2A25576  12.107  25.992   8.253
 6841POPC   C3A25577  12.083  26.006   7.953
 6841POPC   C4A25578  12.094  26.063   7.653
 6841POPC   C1B25579  11.954  25.855   8.553
 6841POPC   C2B25580  12.015  25.772   8.253
 6841POPC   C3B25581  12.027  25.790   7.953
 6841POPC   C4B25582  11.940  25.824   7.653
 6842POPC   NC325583  43.109  33.768   9.453
 6842POPC   PO425584  43.144  33.841   9.153
 6842POPC   GL125585  43.110  33.796   8.853
 6842POPC   GL225586  43.213  33.781   8.853
 6842POPC   C1A25587  43.123  33.806   8.553
 6842POPC   D2A25588  43.151  33.780   8.253
 6842POPC   C3A25589  43.065  33.767   7.953
 6842POPC   C4A25590  43.142  33.783   7.653
 6842POPC   C1B25591  43.318  33.735   8.553
 6842POPC   C2B25592  43.312  33.692   8.253
 6842POPC   C3B25593  43.361  33.711   7.953
 6842POPC   C4B25594  43.372  33.782   7.653
 6843POPC   NC325595  19.824  26.048   9.453
 6843POPC   PO425596  19.807  26.088   9.153
 6843POPC   GL125597  19.866  26.088   8.853
 6843POPC   GL225598  19.857  25.879   8.853
 6843POPC   C1A25599  19.795  26.070   8.553
 6843POPC   D2A25600  19.808  26.052   8.253
 6843POPC   C3A25601  19.844  26.082   7.953
 6843POPC   C4A25602  19.823  26.089   7.653
 6843POPC   C1B25603  19.842  25.747   8.553
 6843POPC   C2B25604  19.805  25.843   8.253
 6843POPC   C3B25605  19.839  25.784   7.953
 6843POPC   C4B25606  19.807  25.795   7.653
 6844POPC   NC325607  36.171   8.187   9.453
 6844POPC   PO425608  36.161   8.236   9.153
 6844POPC   GL125609  36.124   8.149   8.853
 6844POPC   GL225610  36.146   8.043   8.853
 6844POPC   C1A25611  36.165   8.231   8.553
 6844POPC   D2A25612  36.104   8.191   8.253
 6844POPC   C3A25613  36.162   8.180   7.953
 6844POPC   C4A25614  36.087   8.231   7.653
 6844POPC   C1B25615  36.280   7.969   8.553
 6844POPC   C2B25616  36.242   7.946   8.253
 6844POPC   C3B25617  36.253   7.922   7.953
 6844POPC   C4B25618  36.260   7.954   7.653
 6845POPC   NC325619  29.114  17.471   9.453
 6845POPC   PO425620  29.114  17.459   9.153
 6845POPC   GL125621  29.171  17.459   8.853
 6845POPC   GL225622  29.045  17.422   8.853
 6845POPC   C1A25623  29.142  17.498   8.553
 6845POPC   D2A25624  29.124  17.496   8.253
 6845POPC   C3A25625  29.107  17.463   7.953
 6845POPC   C4A25626  29.104  17.521   7.653
 6845POPC   C1B25627  28.946  17.452   8.553
 6845POPC   C2B25628  28.882  17.402   8.253
 6845POPC   C3B25629  28.943  17.400   7.953
 6845POPC   C4B25630  28.892  17.392   7.653
 6846POPC   NC325631  32.212  30.740   9.453
 6846POPC   PO425632  32.215  30.729   9.153
 6846POPC   GL125633  32.243  30.675   8.853
 6846POPC   GL225634  32.232  30.836   8.853
 6846POPC   C1A25635  32.220  30.699   8.553
 6846POPC   D2A25636  32.258  30.662   8.253
 6846POPC   C3A25637  32.234  30.661   7.953
 6846POPC   C4A25638  32.295  30.739   7.653
 6846POPC   C1B25639  32.246  30.987   8.553
 6846POPC   C2B25640  32.208  30.896   8.253
 6846POPC   C3B25641  32.259  30.948   7.953
 6846POPC   C4B25642  32.229  30.924   7.653
 6847POPC   NC325643  12.850   6.595   9.453
 6847POPC   PO425644  12.833   6.655   9.153
 6847POPC   GL125645  12.851   6.661   8.853
 6847POPC   GL225646  12.817   6.554   8.853
 6847POPC   C1A25647  12.816   6.692   8.553
 6847POPC   D2A25648  12.853   6.654   8.253
 6847POPC   C3A25649  12.811   6.596   7.953
 6847POPC   C4A25650  12.868   6.643   7.653
 6847POPC   C1B25651  12.737   6.399   8.553
 6847POPC   C2B25652  12.732   6.485   8.253
 6847POPC   C3B25653  12.702   6.393   7.953
 6847POPC   C4B25654  12.755   6.432   7.653
 6848POPC   NC325655  38.426   3.567   9.453
 6848POPC   PO425656  38.505   3.549   9.153
 6848POPC   GL125657  38.465   3.533   8.853
 6848POPC   GL225658  38.307   3.626   8.853
 6848POPC   C1A25659  38.437   3.492   8.553
 6848POPC   D2A25660  38.459   3.563   8.253
 6848POPC   C3A25661  38.445   3.572   7.953
 6848POPC   C4A25662  38.500   3.515   7.653
 6848POPC   C1B25663  38.206   3.694   8.553
 6848POPC   C2B25664  38.285   3.717   8.253
 6848POPC   C3B25665  38.300   3.635   7.953
 6848POPC   C4B25666  38.226   3.683   7.653
 6849POPC   NC325667  28.363  36.859   9.453
 6849POPC   PO425668  28.386  36.896   9.153
 6849POPC   GL125669  28.418  36.917   8.853
 6849POPC   GL225670  28.256  36.987   8.853
 6849POPC   C1A25671  28.369  36.895   8.553
 6849POPC   D2A25672  28.331  36.940   8.253
 6849POPC   C3A25673  28.320  36.912   7.953
 6849POPC   C4A25674  28.393  36.935   7.653
 6849POPC   C1B25675  28.184  37.066   8.553
 6849POPC   C2B25676  28.176  37.066   8.253
 6849POPC   C3B25677  28.102  37.065   7.953
 6849POPC   C4B25678  28.120  37.002   7.653
 6850POPC   NC325679  14.439   0.401   9.453
 6850POPC   PO425680  14.401   0.434   9.153
 6850POPC   GL125681  14.403   0.457   8.853
 6850POPC   GL225682  14.373   0.531   8.853
 6850POPC   C1A25683  14.383   0.431   8.553
 6850POPC   D2A25684  14.414   0.393   8.253
 6850POPC   C3A25685  14.440   0.449   7.953
 6850POPC   C4A25686  14.448   0.430   7.653
 6850POPC   C1B25687  14.348   0.693   8.553
 6850POPC   C2B25688  14.320   0.715   8.253
 6850POPC   C3B25689  14.315   0.681   7.953
 6850POPC   C4B25690  14.399   0.638   7.653
 6851POPC   NC325691  12.120  36.105   9.453
 6851POPC   PO425692  12.111  36.105   9.153
 6851POPC   GL125693  12.053  36.119   8.853
 6851POPC   GL225694  11.957  36.156   8.853
 6851POPC   C1A25695  12.115  36.093   8.553
 6851POPC   D2A25696  12.093  36.177   8.253
 6851POPC   C3A25697  12.074  36.102   7.953
 6851POPC   C4A25698  12.078  36.094   7.653
 6851POPC   C1B25699  11.832  36.150   8.553
 6851POPC   C2B25700  11.803  36.106   8.253
 6851POPC   C3B25701  11.843  36.146   7.953
 6851POPC   C4B25702  11.791  36.146   7.653
 6852POPC   NC325703  40.004   4.296   9.453
 6852POPC   PO425704  40.010   4.319   9.153
 6852POPC   GL125705  40.023   4.296   8.853
 6852POPC   GL225706  40.093   4.384   8.853
 6852POPC   C1A25707  40.011   4.334   8.553
 6852POPC   D2A25708  40.046   4.361   8.253
 6852POPC   C3A25709  39.963   4.308   7.953
 6852POPC   C4A25710  39.985   4.343   7.653
 6852POPC   C1B25711  40.130   4.502   8.553
 6852POPC   C2B25712  40.092   4.492   8.253
 6852POPC   C3B25713  40.148   4.501   7.953
 6852POPC   C4B25714  40.094   4.512   7.653
 6853POPC   NC325715  42.335  40.751   9.453
 6853POPC   PO425716  42.338  40.743   9.153
 6853POPC   GL125717  42.383  40.808   8.853
 6853POPC   GL225718  42.205  40.853   8.853
 6853POPC   C1A25719  42.310  40.762   8.553
 6853POPC   D2A25720  42.322  40.774   8.253
 6853POPC   C3A25721  42.367  40.750   7.953
 6853POPC   C4A25722  42.305  40.788   7.653
 6853POPC   C1B25723  42.104  40.914   8.553
 6853POPC   C2B25724  42.131  40.931   8.253
 6853POPC   C3B25725  42.185  40.990   7.953
 6853POPC   C4B25726  42.164  40.947   7.653
 6854POPC   NC325727  23.671  26.083   9.453
 6854POPC   PO425728  23.691  26.075   9.153
 6854POPC   GL125729  23.726  26.072   8.853
 6854POPC   GL225730  23.625  25.952   8.853
 6854POPC   C1A25731  23.710  26.007   8.553
 6854POPC   D2A25732  23.746  26.062   8.253
 6854POPC   C3A25733  23.711  26.044   7.953
 6854POPC   C4A25734  23.672  26.085   7.653
 6854POPC   C1B25735  23.592  25.867   8.553
 6854POPC   C2B25736  23.565  25.817   8.253
 6854POPC   C3B25737  23.625  25.781   7.953
 6854POPC   C4B25738  23.588  25.827   7.653
 6855POPC   NC325739   6.654  31.488   9.453
 6855POPC   PO425740   6.658  31.444   9.153
 6855POPC   GL125741   6.601  31.496   8.853
 6855POPC   GL225742   6.532  31.508   8.853
 6855POPC   C1A25743   6.689  31.490   8.553
 6855POPC   D2A25744   6.670  31.432   8.253
 6855POPC   C3A25745   6.622  31.451   7.953
 6855POPC   C4A25746   6.669  31.487   7.653
 6855POPC   C1B25747   6.361  31.519   8.553
 6855POPC   C2B25748   6.433  31.454   8.253
 6855POPC   C3B25749   6.376  31.527   7.953
 6855POPC   C4B25750   6.396  31.455   7.653
 6856POPC   NC325751  30.664  32.297   9.453
 6856POPC   PO425752  30.696  32.250   9.153
 6856POPC   GL125753  30.739  32.229   8.853
 6856POPC   GL225754  30.782  32.272   8.853
 6856POPC   C1A25755  30.724  32.258   8.553
 6856POPC   D2A25756  30.670  32.203   8.253
 6856POPC   C3A25757  30.745  32.289   7.953
 6856POPC   C4A25758  30.690  32.206   7.653
 6856POPC   C1B25759  30.926  32.254   8.553
 6856POPC   C2B25760  30.940  32.250   8.253
 6856POPC   C3B25761  30.965  32.171   7.953
 6856POPC   C4B25762  30.909  32.220   7.653
 6857POPC   NC325763   3.522  40.001   9.453
 6857POPC   PO425764   3.576  39.980   9.153
 6857POPC   GL125765   3.546  40.014   8.853
 6857POPC   GL225766   3.504  39.904   8.853
 6857POPC   C1A25767   3.503  40.012   8.553
 6857POPC   D2A25768   3.584  40.044   8.253
 6857POPC   C3A25769   3.591  40.041   7.953
 6857POPC   C4A25770   3.544  39.990   7.653
 6857POPC   C1B25771   3.544  39.803   8.553
 6857POPC   C2B25772   3.562  39.747   8.253
 6857POPC   C3B25773   3.520  39.794   7.953
 6857POPC   C4B25774   3.595  39.741   7.653
 6858POPC   NC325775  36.905  22.199   9.453
 6858POPC   PO425776  36.948  22.178   9.153
 6858POPC   GL125777  36.893  22.122   8.853
 6858POPC   GL225778  36.962  22.064   8.853
 6858POPC   C1A25779  36.902  22.201   8.553
 6858POPC   D2A25780  36.879  22.141   8.253
 6858POPC   C3A25781  36.885  22.169   7.953
 6858POPC   C4A25782  36.935  22.154   7.653
 6858POPC   C1B25783  37.087  21.951   8.553
 6858POPC   C2B25784  37.073  21.961   8.253
 6858POPC   C3B25785  37.124  22.026   7.953
 6858POPC   C4B25786  37.055  22.034   7.653
 6859POPC   NC325787  36.946  19.802   9.453
 6859POPC   PO425788  36.937  19.791   9.153
 6859POPC   GL125789  36.930  19.817   8.853
 6859POPC   GL225790  36.888  19.729   8.853
 6859POPC   C1A25791  36.923  19.859   8.553
 6859POPC   D2A25792  36.908  19.850   8.253
 6859POPC   C3A25793  36.859  19.884   7.953
 6859POPC   C4A25794  36.906  19.821   7.653
 6859POPC   C1B25795  36.918  19.569   8.553
 6859POPC   C2B25796  36.943  19.611   8.253
 6859POPC   C3B25797  36.924  19.551   7.953
 6859POPC   C4B25798  36.901  19.606   7.653
 6860POPC   NC325799  22.914  18.330   9.453
 6860POPC   PO425800  22.891  18.285   9.153
 6860POPC   GL125801  22.929  18.279   8.853
 6860POPC   GL225802  22.854  18.212   8.853
 6860POPC   C1A25803  22.927  18.299   8.553
 6860POPC   D2A25804  22.903  18.278   8.253
 6860POPC   C3A25805  22.898  18.272   7.953
 6860POPC   C4A25806  22.908  18.319   7.653
 6860POPC   C1B25807  22.712  18.129   8.553
 6860POPC   C2B25808  22.708  18.163   8.253
 6860POPC   C3B25809  22.714  18.191   7.953
 6860POPC   C4B25810  22.717  18.166   7.653
 6861POPC   NC325811  40.733   6.648   9.453
 6861POPC   PO425812  40.764   6.684   9.153
 6861POPC   GL125813  40.782   6.600   8.853
 6861POPC   GL225814  40.886   6.677   8.853
 6861POPC   C1A25815  40.735   6.628   8.553
 6861POPC   D2A25816  40.808   6.654   8.253
 6861POPC   C3A25817  40.735   6.609   7.953
 6861POPC   C4A25818  40.764   6.664   7.653
 6861POPC   C1B25819  41.011   6.828   8.553
 6861POPC   C2B25820  41.018   6.787   8.253
 6861POPC   C3B25821  40.951   6.752   7.953
 6861POPC   C4B25822  41.006   6.800   7.653
 6862POPC   NC325823  21.408  38.503   9.453
 6862POPC   PO425824  21.430  38.434   9.153
 6862POPC   GL125825  21.408  38.491   8.853
 6862POPC   GL225826  21.338  38.346   8.853
 6862POPC   C1A25827  21.412  38.500   8.553
 6862POPC   D2A25828  21.365  38.468   8.253
 6862POPC   C3A25829  21.384  38.448   7.953
 6862POPC   C4A25830  21.365  38.502   7.653
 6862POPC   C1B25831  21.173  38.224   8.553
 6862POPC   C2B25832  21.217  38.234   8.253
 6862POPC   C3B25833  21.261  38.228   7.953
 6862POPC   C4B25834  21.226  38.271   7.653
 6863POPC   NC325835  43.094  38.471   9.453
 6863POPC   PO425836  43.138  38.426   9.153
 6863POPC   GL125837  43.135  38.415   8.853
 6863POPC   GL225838  43.046  38.355   8.853
 6863POPC   C1A25839  43.112  38.498   8.553
 6863POPC   D2A25840  43.065  38.433   8.253
 6863POPC   C3A25841  43.061  38.461   7.953
 6863POPC   C4A25842  43.111  38.435   7.653
 6863POPC   C1B25843  42.924  38.292   8.553
 6863POPC   C2B25844  42.956  38.261   8.253
 6863POPC   C3B25845  42.889  38.243   7.953
 6863POPC   C4B25846  42.962  38.255   7.653
 6864POPC   NC325847  38.459  28.323   9.453
 6864POPC   PO425848  38.467  28.399   9.153
 6864POPC   GL125849  38.410  28.410   8.853
 6864POPC   GL225850  38.441  28.286   8.853
 6864POPC   C1A25851  38.408  28.385   8.553
 6864POPC   D2A25852  38.479  28.322   8.253
 6864POPC   C3A25853  38.462  28.410   7.953
 6864POPC   C4A25854  38.499  28.331   7.653
 6864POPC   C1B25855  38.545  28.129   8.553
 6864POPC   C2B25856  38.530  28.161   8.253
 6864POPC   C3B25857  38.524  28.136   7.953
 6864POPC   C4B25858  38.526  28.117   7.653
 6865POPC   NC325859  12.032   4.364   9.453
 6865POPC   PO425860  12.123   4.312   9.153
 6865POPC   GL125861  12.040   4.362   8.853
 6865POPC   GL225862  12.048   4.435   8.853
 6865POPC   C1A25863  12.104   4.314   8.553
 6865POPC   D2A25864  12.084   4.329   8.253
 6865POPC   C3A25865  12.027   4.313   7.953
 6865POPC   C4A25866  12.112   4.318   7.653
 6865POPC   C1B25867  11.967   4.561   8.553
 6865POPC   C2B25868  11.981   4.563   8.253
 6865POPC   C3B25869  11.912   4.540   7.953
 6865POPC   C4B25870  11.937   4.512   7.653
 6866POPC   NC325871  22.966  22.161   9.453
 6866POPC   PO425872  22.941  22.162   9.153
 6866POPC   GL125873  22.958  22.185   8.853
 6866POPC   GL225874  23.078  22.168   8.853
 6866POPC   C1A25875  22.954  22.139   8.553
 6866POPC   D2A25876  22.916  22.118   8.253
 6866POPC   C3A25877  22.985  22.200   7.953
 6866POPC   C4A25878  22.966  22.177   7.653
 6866POPC   C1B25879  23.139  22.184   8.553
 6866POPC   C2B25880  23.211  22.161   8.253
 6866POPC   C3B25881  23.221  22.241   7.953
 6866POPC   C4B25882  23.225  22.214   7.653
 6867POPC   NC325883  42.297  33.049   9.453
 6867POPC   PO425884  42.362  33.029   9.153
 6867POPC   GL125885  42.300  33.028   8.853
 6867POPC   GL225886  42.268  33.081   8.853
 6867POPC   C1A25887  42.307  32.990   8.553
 6867POPC   D2A25888  42.306  32.984   8.253
 6867POPC   C3A25889  42.354  33.035   7.953
 6867POPC   C4A25890  42.353  33.030   7.653
 6867POPC   C1B25891  42.159  33.175   8.553
 6867POPC   C2B25892  42.109  33.245   8.253
 6867POPC   C3B25893  42.164  33.229   7.953
 6867POPC   C4B25894  42.196  33.193   7.653
 6868POPC   NC325895  33.756  43.932   9.453
 6868POPC   PO425896  33.763  43.928   9.153
 6868POPC   GL125897  33.779  43.915   8.853
 6868POPC   GL225898  33.923  43.826   8.853
 6868POPC   C1A25899  33.829  43.875   8.553
 6868POPC   D2A25900  33.823  43.910   8.253
 6868POPC   C3A25901  33.818  43.883   7.953
 6868POPC   C4A25902  33.756  43.922   7.653
 6868POPC   C1B25903  34.011  43.870   8.553
 6868POPC   C2B25904  34.083  43.861   8.253
 6868POPC   C3B25905  34.030  43.820   7.953
 6868POPC   C4B25906  34.074  43.876   7.653
 6869POPC   NC325907   5.138   8.956   9.453
 6869POPC   PO425908   5.125   8.988   9.153
 6869POPC   GL125909   5.123   9.014   8.853
 6869POPC   GL225910   5.031   9.119   8.853
 6869POPC   C1A25911   5.136   8.995   8.553
 6869POPC   D2A25912   5.128   8.934   8.253
 6869POPC   C3A25913   5.113   8.952   7.953
 6869POPC   C4A25914   5.122   8.942   7.653
 6869POPC   C1B25915   5.025   9.168   8.553
 6869POPC   C2B25916   5.071   9.200   8.253
 6869POPC   C3B25917   5.029   9.236   7.953
 6869POPC   C4B25918   5.067   9.200   7.653
 6870POPC   NC325919  35.329  36.894   9.453
 6870POPC   PO425920  35.392  36.904   9.153
 6870POPC   GL125921  35.333  36.876   8.853
 6870POPC   GL225922  35.248  36.956   8.853
 6870POPC   C1A25923  35.360  36.858   8.553
 6870POPC   D2A25924  35.369  36.869   8.253
 6870POPC   C3A25925  35.396  36.877   7.953
 6870POPC   C4A25926  35.389  36.879   7.653
 6870POPC   C1B25927  35.076  37.000   8.553
 6870POPC   C2B25928  35.087  36.967   8.253
 6870POPC   C3B25929  35.115  37.017   7.953
 6870POPC   C4B25930  35.152  36.956   7.653
 6871POPC   NC325931  33.758   4.349   9.453
 6871POPC   PO425932  33.800   4.317   9.153
 6871POPC   GL125933  33.789   4.276   8.853
 6871POPC   GL225934  33.887   4.196   8.853
 6871POPC   C1A25935  33.765   4.351   8.553
 6871POPC   D2A25936  33.780   4.357   8.253
 6871POPC   C3A25937  33.766   4.304   7.953
 6871POPC   C4A25938  33.787   4.290   7.653
 6871POPC   C1B25939  33.982   4.085   8.553
 6871POPC   C2B25940  33.950   4.095   8.253
 6871POPC   C3B25941  33.939   4.141   7.953
 6871POPC   C4B25942  33.959   4.145   7.653
 6872POPC   NC325943  42.315  43.934   9.453
 6872POPC   PO425944  42.368  43.854   9.153
 6872POPC   GL125945  42.382  43.903   8.853
 6872POPC   GL225946  42.241  43.910   8.853
 6872POPC   C1A25947  42.300  43.916   8.553
 6872POPC   D2A25948  42.296  43.882   8.253
 6872POPC   C3A25949  42.355  43.886   7.953
 6872POPC   C4A25950  42.290  43.876   7.653
 6872POPC   C1B25951  42.091  44.060   8.553
 6872POPC   C2B25952  42.087  43.986   8.253
 6872POPC   C3B25953  42.161  43.998   7.953
 6872POPC   C4B25954  42.159  44.008   7.653
 6873POPC   NC325955  14.402   8.999   9.453
 6873POPC   PO425956  14.445   8.966   9.153
 6873POPC   GL125957  14.378   8.978   8.853
 6873POPC   GL225958  14.511   8.969   8.853
 6873POPC   C1A25959  14.439   8.968   8.553
 6873POPC   D2A25960  14.363   8.987   8.253
 6873POPC   C3A25961  14.354   8.942   7.953
 6873POPC   C4A25962  14.393   8.948   7.653
 6873POPC   C1B25963  14.639   8.918   8.553
 6873POPC   C2B25964  14.604   8.938   8.253
 6873POPC   C3B25965  14.672   8.897   7.953
 6873POPC   C4B25966  14.599   8.886   7.653
 6874POPC   NC325967  16.742  39.962   9.453
 6874POPC   PO425968  16.763  40.031   9.153
 6874POPC   GL125969  16.703  39.958   8.853
 6874POPC   GL225970  16.688  40.093   8.853
 6874POPC   C1A25971  16.690  40.040   8.553
 6874POPC   D2A25972  16.724  40.033   8.253
 6874POPC   C3A25973  16.764  40.013   7.953
 6874POPC   C4A25974  16.693  40.026   7.653
 6874POPC   C1B25975  16.653  40.272   8.553
 6874POPC   C2B25976  16.650  40.283   8.253
 6874POPC   C3B25977  16.669  40.214   7.953
 6874POPC   C4B25978  16.711  40.282   7.653
 6875POPC   NC325979  27.553  39.252   9.453
 6875POPC   PO425980  27.637  39.244   9.153
 6875POPC   GL125981  27.643  39.240   8.853
 6875POPC   GL225982  27.649  39.282   8.853
 6875POPC   C1A25983  27.563  39.274   8.553
 6875POPC   D2A25984  27.549  39.268   8.253
 6875POPC   C3A25985  27.554  39.278   7.953
 6875POPC   C4A25986  27.602  39.244   7.653
 6875POPC   C1B25987  27.760  39.436   8.553
 6875POPC   C2B25988  27.791  39.403   8.253
 6875POPC   C3B25989  27.780  39.427   7.953
 6875POPC   C4B25990  27.781  39.382   7.653
 6876POPC   NC325991  26.830  44.662   9.453
 6876POPC   PO425992  26.826  44.672   9.153
 6876POPC   GL125993  26.776  44.703   8.853
 6876POPC   GL225994  26.934  44.640   8.853
 6876POPC   C1A25995  26.777  44.627   8.553
 6876POPC   D2A25996  26.862  44.614   8.253
 6876POPC   C3A25997  26.827  44.669   7.953
 6876POPC   C4A25998  26.808  44.653   7.653
 6876POPC   C1B25999  27.060  44.704   8.553
 6876POPC   C2B26000  27.042  44.730   8.253
 6876POPC   C3B26001  27.027  44.724   7.953
 6876POPC   C4B26002  27.052  44.705   7.653
 6877POPC   NC326003  41.553  33.752   9.453
 6877POPC   PO426004  41.571  33.816   9.153
 6877POPC   GL126005  41.551  33.753   8.853
 6877POPC   GL226006  41.478  33.931   8.853
 6877POPC   C1A26007  41.581  33.817   8.553
 6877POPC   D2A26008  41.575  33.765   8.253
 6877POPC   C3A26009  41.516  33.757   7.953
 6877POPC   C4A26010  41.587  33.788   7.653
 6877POPC   C1B26011  41.461  34.069   8.553
 6877POPC   C2B26012  41.439  34.086   8.253
 6877POPC   C3B26013  41.459  34.056   7.953
 6877POPC   C4B26014  41.513  34.083   7.653
 6878POPC   NC326015  29.193  30.690   9.453
 6878POPC   PO426016  29.183  30.668   9.153
 6878POPC   GL126017  29.184  30.678   8.853
 6878POPC   GL226018  29.122  30.845   8.853
 6878POPC   C1A26019  29.159  30.709   8.553
 6878POPC   D2A26020  29.155  30.745   8.253
 6878POPC   C3A26021  29.163  30.719   7.953
 6878POPC   C4A26022  29.162  30.694   7.653
 6878POPC   C1B26023  29.124  30.986   8.553
 6878POPC   C2B26024  29.191  30.908   8.253
 6878POPC   C3B26025  29.153  30.939   7.953
 6878POPC   C4B26026  29.102  30.987   7.653
 6879POPC   NC326027  22.947  27.636   9.453
 6879POPC   PO426028  22.907  27.601   9.153
 6879POPC   GL126029  22.889  27.606   8.853
 6879POPC   GL226030  22.811  27.641   8.853
 6879POPC   C1A26031  22.899  27.605   8.553
 6879POPC   D2A26032  22.930  27.628   8.253
 6879POPC   C3A26033  22.975  27.620   7.953
 6879POPC   C4A26034  22.978  27.628   7.653
 6879POPC   C1B26035  22.712  27.715   8.553
 6879POPC   C2B26036  22.709  27.627   8.253
 6879POPC   C3B26037  22.726  27.698   7.953
 6879POPC   C4B26038  22.685  27.690   7.653
 6880POPC   NC326039  33.761  26.010   9.453
 6880POPC   PO426040  33.789  26.080   9.153
 6880POPC   GL126041  33.780  26.005   8.853
 6880POPC   GL226042  33.833  25.956   8.853
 6880POPC   C1A26043  33.820  26.088   8.553
 6880POPC   D2A26044  33.831  26.056   8.253
 6880POPC   C3A26045  33.828  26.012   7.953
 6880POPC   C4A26046  33.822  26.051   7.653
 6880POPC   C1B26047  33.842  25.837   8.553
 6880POPC   C2B26048  33.757  25.832   8.253
 6880POPC   C3B26049  33.760  25.743   7.953
 6880POPC   C4B26050  33.816  25.813   7.653
 6881POPC   NC326051  24.455  28.389   9.453
 6881POPC   PO426052  24.532  28.363   9.153
 6881POPC   GL126053  24.488  28.360   8.853
 6881POPC   GL226054  24.411  28.474   8.853
 6881POPC   C1A26055  24.511  28.398   8.553
 6881POPC   D2A26056  24.515  28.347   8.253
 6881POPC   C3A26057  24.486  28.334   7.953
 6881POPC   C4A26058  24.490  28.341   7.653
 6881POPC   C1B26059  24.230  28.505   8.553
 6881POPC   C2B26060  24.249  28.534   8.253
 6881POPC   C3B26061  24.238  28.532   7.953
 6881POPC   C4B26062  24.249  28.485   7.653
 6882POPC   NC326063  29.947  34.611   9.453
 6882POPC   PO426064  29.934  34.590   9.153
 6882POPC   GL126065  29.903  34.581   8.853
 6882POPC   GL226066  30.021  34.474   8.853
 6882POPC   C1A26067  29.952  34.552   8.553
 6882POPC   D2A26068  29.895  34.615   8.253
 6882POPC   C3A26069  29.966  34.585   7.953
 6882POPC   C4A26070  29.875  34.597   7.653
 6882POPC   C1B26071  30.063  34.394   8.553
 6882POPC   C2B26072  30.109  34.395   8.253
 6882POPC   C3B26073  30.115  34.405   7.953
 6882POPC   C4B26074  30.091  34.426   7.653
 6883POPC   NC326075   1.241  43.880   9.453
 6883POPC   PO426076   1.219  43.888   9.153
 6883POPC   GL126077   1.234  43.921   8.853
 6883POPC   GL226078   1.111  43.823   8.853
 6883POPC   C1A26079   1.171  43.902   8.553
 6883POPC   D2A26080   1.241  43.890   8.253
 6883POPC   C3A26081   1.239  43.890   7.953
 6883POPC   C4A26082   1.179  43.891   7.653
 6883POPC   C1B26083   0.967  43.716   8.553
 6883POPC   C2B26084   1.034  43.780   8.253
 6883POPC   C3B26085   0.986  43.770   7.953
 6883POPC   C4B26086   1.033  43.797   7.653
 6884POPC   NC326087  29.166  21.425   9.453
 6884POPC   PO426088  29.096  21.375   9.153
 6884POPC   GL126089  29.136  21.410   8.853
 6884POPC   GL226090  29.047  21.399   8.853
 6884POPC   C1A26091  29.143  21.365   8.553
 6884POPC   D2A26092  29.117  21.381   8.253
 6884POPC   C3A26093  29.185  21.389   7.953
 6884POPC   C4A26094  29.151  21.367   7.653
 6884POPC   C1B26095  28.929  21.378   8.553
 6884POPC   C2B26096  28.938  21.387   8.253
 6884POPC   C3B26097  28.939  21.397   7.953
 6884POPC   C4B26098  28.875  21.392   7.653
 6885POPC   NC326099   0.398  28.345   9.453
 6885POPC   PO426100   0.480  28.352   9.153
 6885POPC   GL126101   0.390  28.408   8.853
 6885POPC   GL226102   0.493  28.497   8.853
 6885POPC   C1A26103   0.400  28.369   8.553
 6885POPC   D2A26104   0.442  28.329   8.253
 6885POPC   C3A26105   0.415  28.328   7.953
 6885POPC   C4A26106   0.436  28.407   7.653
 6885POPC   C1B26107   0.615  28.589   8.553
 6885POPC   C2B26108   0.597  28.589   8.253
 6885POPC   C3B26109   0.570  28.579   7.953
 6885POPC   C4B26110   0.623  28.560   7.653
 6886POPC   NC326111   6.653  33.762   9.453
 6886POPC   PO426112   6.656  33.837   9.153
 6886POPC   GL126113   6.626  33.795   8.853
 6886POPC   GL226114   6.732  33.861   8.853
 6886POPC   C1A26115   6.635  33.799   8.553
 6886POPC   D2A26116   6.673  33.765   8.253
 6886POPC   C3A26117   6.645  33.800   7.953
 6886POPC   C4A26118   6.639  33.782   7.653
 6886POPC   C1B26119   6.884  33.857   8.553
 6886POPC   C2B26120   6.878  33.909   8.253
 6886POPC   C3B26121   6.908  33.838   7.953
 6886POPC   C4B26122   6.907  33.891   7.653
 6887POPC   NC326123  34.540  22.156   9.453
 6887POPC   PO426124  34.624  22.151   9.153
 6887POPC   GL126125  34.624  22.198   8.853
 6887POPC   GL226126  34.712  22.034   8.853
 6887POPC   C1A26127  34.549  22.199   8.553
 6887POPC   D2A26128  34.541  22.123   8.253
 6887POPC   C3A26129  34.583  22.178   7.953
 6887POPC   C4A26130  34.618  22.207   7.653
 6887POPC   C1B26131  34.768  22.020   8.553
 6887POPC   C2B26132  34.797  21.970   8.253
 6887POPC   C3B26133  34.789  22.008   7.953
 6887POPC   C4B26134  34.758  21.951   7.653
 6888POPC   NC326135  36.884  33.054   9.453
 6888POPC   PO426136  36.882  33.016   9.153
 6888POPC   GL126137  36.854  33.055   8.853
 6888POPC   GL226138  36.791  33.082   8.853
 6888POPC   C1A26139  36.918  33.063   8.553
 6888POPC   D2A26140  36.936  33.011   8.253
 6888POPC   C3A26141  36.854  33.009   7.953
 6888POPC   C4A26142  36.904  33.013   7.653
 6888POPC   C1B26143  36.752  33.223   8.553
 6888POPC   C2B26144  36.738  33.172   8.253
 6888POPC   C3B26145  36.692  33.222   7.953
 6888POPC   C4B26146  36.728  33.247   7.653
 6889POPC   NC326147  36.945  39.274   9.453
 6889POPC   PO426148  36.868  39.206   9.153
 6889POPC   GL126149  36.952  39.194   8.853
 6889POPC   GL226150  36.800  39.188   8.853
 6889POPC   C1A26151  36.937  39.279   8.553
 6889POPC   D2A26152  36.859  39.233   8.253
 6889POPC   C3A26153  36.856  39.205   7.953
 6889POPC   C4A26154  36.861  39.232   7.653
 6889POPC   C1B26155  36.677  39.153   8.553
 6889POPC   C2B26156  36.693  39.192   8.253
 6889POPC   C3B26157  36.650  39.231   7.953
 6889POPC   C4B26158  36.642  39.149   7.653
 6890POPC   NC326159  39.257   2.788   9.453
 6890POPC   PO426160  39.236   2.766   9.153
 6890POPC   GL126161  39.235   2.801   8.853
 6890POPC   GL226162  39.387   2.829   8.853
 6890POPC   C1A26163  39.244   2.728   8.553
 6890POPC   D2A26164  39.232   2.720   8.253
 6890POPC   C3A26165  39.182   2.749   7.953
 6890POPC   C4A26166  39.226   2.800   7.653
 6890POPC   C1B26167  39.465   2.928   8.553
 6890POPC   C2B26168  39.413   2.924   8.253
 6890POPC   C3B26169  39.489   2.863   7.953
 6890POPC   C4B26170  39.440   2.864   7.653
 6891POPC   NC326171  42.363  38.501   9.453
 6891POPC   PO426172  42.383  38.432   9.153
 6891POPC   GL126173  42.375  38.445   8.853
 6891POPC   GL226174  42.484  38.504   8.853
 6891POPC   C1A26175  42.379  38.455   8.553
 6891POPC   D2A26176  42.364  38.461   8.253
 6891POPC   C3A26177  42.337  38.437   7.953
 6891POPC   C4A26178  42.302  38.459   7.653
 6891POPC   C1B26179  42.607  38.542   8.553
 6891POPC   C2B26180  42.539  38.534   8.253
 6891POPC   C3B26181  42.533  38.551   7.953
 6891POPC   C4B26182  42.558  38.481   7.653
 6892POPC   NC326183  42.307  43.074   9.453
 6892POPC   PO426184  42.375  43.063   9.153
 6892POPC   GL126185  42.328  43.079   8.853
 6892POPC   GL226186  42.386  42.996   8.853
 6892POPC   C1A26187  42.344  43.158   8.553
 6892POPC   D2A26188  42.371  43.148   8.253
 6892POPC   C3A26189  42.296  43.100   7.953
 6892POPC   C4A26190  42.377  43.085   7.653
 6892POPC   C1B26191  42.416  42.852   8.553
 6892POPC   C2B26192  42.375  42.868   8.253
 6892POPC   C3B26193  42.446  42.894   7.953
 6892POPC   C4B26194  42.401  42.873   7.653
 6893POPC   NC326195  19.081   0.470   9.453
 6893POPC   PO426196  19.082   0.447   9.153
 6893POPC   GL126197  19.096   0.453   8.853
 6893POPC   GL226198  19.042   0.534   8.853
 6893POPC   C1A26199  19.100   0.473   8.553
 6893POPC   D2A26200  19.058   0.405   8.253
 6893POPC   C3A26201  19.062   0.398   7.953
 6893POPC   C4A26202  19.012   0.428   7.653
 6893POPC   C1B26203  18.951   0.707   8.553
 6893POPC   C2B26204  19.015   0.629   8.253
 6893POPC   C3B26205  18.960   0.686   7.953
 6893POPC   C4B26206  18.929   0.627   7.653
 6894POPC   NC326207  44.626  15.228   9.453
 6894POPC   PO426208  44.618  15.158   9.153
 6894POPC   GL126209  44.685  15.170   8.853
 6894POPC   GL226210  44.678  15.281   8.853
 6894POPC   C1A26211  44.688  15.131   8.553
 6894POPC   D2A26212  44.637  15.185   8.253
 6894POPC   C3A26213  44.627  15.215   7.953
 6894POPC   C4A26214  44.710  15.203   7.653
 6894POPC   C1B26215  44.759  15.407   8.553
 6894POPC   C2B26216  44.796  15.385   8.253
 6894POPC   C3B26217  44.840  15.373   7.953
 6894POPC   C4B26218  44.821  15.393   7.653
 6895POPC   NC326219  12.804  37.721   9.453
 6895POPC   PO426220  12.874  37.683   9.153
 6895POPC   GL126221  12.826  37.723   8.853
 6895POPC   GL226222  12.729  37.733   8.853
 6895POPC   C1A26223  12.831  37.684   8.553
 6895POPC   D2A26224  12.881  37.660   8.253
 6895POPC   C3A26225  12.873  37.712   7.953
 6895POPC   C4A26226  12.811  37.677   7.653
 6895POPC   C1B26227  12.556  37.702   8.553
 6895POPC   C2B26228  12.634  37.761   8.253
 6895POPC   C3B26229  12.556  37.699   7.953
 6895POPC   C4B26230  12.610  37.697   7.653
 6896POPC   NC326231  29.918  30.660   9.453
 6896POPC   PO426232  29.940  30.661   9.153
 6896POPC   GL126233  29.952  30.670   8.853
 6896POPC   GL226234  29.983  30.817   8.853
 6896POPC   C1A26235  29.871  30.712   8.553
 6896POPC   D2A26236  29.930  30.690   8.253
 6896POPC   C3A26237  29.903  30.692   7.953
 6896POPC   C4A26238  29.887  30.735   7.653
 6896POPC   C1B26239  30.020  30.953   8.553
 6896POPC   C2B26240  30.036  30.927   8.253
 6896POPC   C3B26241  30.045  30.876   7.953
 6896POPC   C4B26242  30.012  30.930   7.653
 6897POPC   NC326243  39.963   9.748   9.453
 6897POPC   PO426244  39.994   9.746   9.153
 6897POPC   GL126245  39.975   9.770   8.853
 6897POPC   GL226246  40.014   9.660   8.853
 6897POPC   C1A26247  39.984   9.768   8.553
 6897POPC   D2A26248  40.022   9.717   8.253
 6897POPC   C3A26249  39.988   9.794   7.953
 6897POPC   C4A26250  39.965   9.739   7.653
 6897POPC   C1B26251  40.029   9.487   8.553
 6897POPC   C2B26252  39.978   9.480   8.253
 6897POPC   C3B26253  40.032   9.508   7.953
 6897POPC   C4B26254  40.004   9.454   7.653
 6898POPC   NC326255  12.851  28.369   9.453
 6898POPC   PO426256  12.851  28.396   9.153
 6898POPC   GL126257  12.815  28.366   8.853
 6898POPC   GL226258  12.936  28.481   8.853
 6898POPC   C1A26259  12.900  28.380   8.553
 6898POPC   D2A26260  12.825  28.328   8.253
 6898POPC   C3A26261  12.822  28.371   7.953
 6898POPC   C4A26262  12.874  28.418   7.653
 6898POPC   C1B26263  13.060  28.567   8.553
 6898POPC   C2B26264  13.086  28.553   8.253
 6898POPC   C3B26265  13.053  28.473   7.953
 6898POPC   C4B26266  13.022  28.476   7.653
 6899POPC   NC326267  43.931  40.773   9.453
 6899POPC   PO426268  43.852  40.780   9.153
 6899POPC   GL126269  43.887  40.753   8.853
 6899POPC   GL226270  43.943  40.863   8.853
 6899POPC   C1A26271  43.841  40.746   8.553
 6899POPC   D2A26272  43.875  40.768   8.253
 6899POPC   C3A26273  43.871  40.779   7.953
 6899POPC   C4A26274  43.902  40.775   7.653
 6899POPC   C1B26275  44.019  41.028   8.553
 6899POPC   C2B26276  44.024  40.999   8.253
 6899POPC   C3B26277  44.027  40.987   7.953
 6899POPC   C4B26278  44.013  41.013   7.653
 6900POPC   NC326279  34.584  32.275   9.453
 6900POPC   PO426280  34.541  32.228   9.153
 6900POPC   GL126281  34.557  32.230   8.853
 6900POPC   GL226282  34.722  32.176   8.853
 6900POPC   C1A26283  34.567  32.278   8.553
 6900POPC   D2A26284  34.533  32.284   8.253
 6900POPC   C3A26285  34.543  32.230   7.953
 6900POPC   C4A26286  34.608  32.218   7.653
 6900POPC   C1B26287  34.866  32.162   8.553
 6900POPC   C2B26288  34.869  32.217   8.253
 6900POPC   C3B26289  34.772  32.164   7.953
 6900POPC   C4B26290  34.785  32.170   7.653
 6901POPC   NC326291   5.073  31.427   9.453
 6901POPC   PO426292   5.110  31.487   9.153
 6901POPC   GL126293   5.088  31.466   8.853
 6901POPC   GL226294   5.147  31.558   8.853
 6901POPC   C1A26295   5.044  31.438   8.553
 6901POPC   D2A26296   5.095  31.475   8.253
 6901POPC   C3A26297   5.065  31.459   7.953
 6901POPC   C4A26298   5.090  31.455   7.653
 6901POPC   C1B26299   5.093  31.741   8.553
 6901POPC   C2B26300   5.158  31.753   8.253
 6901POPC   C3B26301   5.159  31.745   7.953
 6901POPC   C4B26302   5.090  31.762   7.653
 6902POPC   NC326303  11.282   3.506   9.453
 6902POPC   PO426304  11.340   3.565   9.153
 6902POPC   GL126305  11.340   3.585   8.853
 6902POPC   GL226306  11.334   3.689   8.853
 6902POPC   C1A26307  11.310   3.581   8.553
 6902POPC   D2A26308  11.269   3.549   8.253
 6902POPC   C3A26309  11.343   3.509   7.953
 6902POPC   C4A26310  11.316   3.540   7.653
 6902POPC   C1B26311  11.364   3.731   8.553
 6902POPC   C2B26312  11.369   3.800   8.253
 6902POPC   C3B26313  11.378   3.760   7.953
 6902POPC   C4B26314  11.358   3.809   7.653
 6903POPC   NC326315  33.066  44.668   9.453
 6903POPC   PO426316  32.980  44.683   9.153
 6903POPC   GL126317  33.002  44.657   8.853
 6903POPC   GL226318  33.170  44.689   8.853
 6903POPC   C1A26319  33.036  44.657   8.553
 6903POPC   D2A26320  33.055  44.659   8.253
 6903POPC   C3A26321  33.034  44.624   7.953
 6903POPC   C4A26322  33.025  44.614   7.653
 6903POPC   C1B26323  33.248  44.700   8.553
 6903POPC   C2B26324  33.272  44.735   8.253
 6903POPC   C3B26325  33.251  44.727   7.953
 6903POPC   C4B26326  33.279  44.702   7.653
 6904POPC   NC326327  36.151  39.268   9.453
 6904POPC   PO426328  36.087  39.267   9.153
 6904POPC   GL126329  36.127  39.211   8.853
 6904POPC   GL226330  36.246  39.179   8.853
 6904POPC   C1A26331  36.149  39.205   8.553
 6904POPC   D2A26332  36.165  39.268   8.253
 6904POPC   C3A26333  36.108  39.271   7.953
 6904POPC   C4A26334  36.173  39.215   7.653
 6904POPC   C1B26335  36.416  39.244   8.553
 6904POPC   C2B26336  36.345  39.172   8.253
 6904POPC   C3B26337  36.416  39.187   7.953
 6904POPC   C4B26338  36.403  39.216   7.653
 6905POPC   NC326339   4.333  36.866   9.453
 6905POPC   PO426340   4.348  36.878   9.153
 6905POPC   GL126341   4.356  36.931   8.853
 6905POPC   GL226342   4.372  36.998   8.853
 6905POPC   C1A26343   4.341  36.949   8.553
 6905POPC   D2A26344   4.308  36.922   8.253
 6905POPC   C3A26345   4.296  36.895   7.953
 6905POPC   C4A26346   4.352  36.854   7.653
 6905POPC   C1B26347   4.411  37.112   8.553
 6905POPC   C2B26348   4.431  37.117   8.253
 6905POPC   C3B26349   4.377  37.161   7.953
 6905POPC   C4B26350   4.421  37.146   7.653
 6906POPC   NC326351  29.959  43.147   9.453
 6906POPC   PO426352  29.903  43.141   9.153
 6906POPC   GL126353  29.960  43.090   8.853
 6906POPC   GL226354  30.010  43.151   8.853
 6906POPC   C1A26355  29.947  43.089   8.553
 6906POPC   D2A26356  29.926  43.160   8.253
 6906POPC   C3A26357  29.952  43.113   7.953
 6906POPC   C4A26358  29.950  43.141   7.653
 6906POPC   C1B26359  30.073  43.307   8.553
 6906POPC   C2B26360  30.135  43.290   8.253
 6906POPC   C3B26361  30.108  43.287   7.953
 6906POPC   C4B26362  30.069  43.258   7.653
 6907POPC   NC326363  30.701  34.562   9.453
 6907POPC   PO426364  30.649  34.585   9.153
 6907POPC   GL126365  30.719  34.533   8.853
 6907POPC   GL226366  30.863  34.521   8.853
 6907POPC   C1A26367  30.650  34.578   8.553
 6907POPC   D2A26368  30.681  34.615   8.253
 6907POPC   C3A26369  30.720  34.575   7.953
 6907POPC   C4A26370  30.734  34.572   7.653
 6907POPC   C1B26371  30.898  34.510   8.553
 6907POPC   C2B26372  30.978  34.600   8.253
 6907POPC   C3B26373  30.946  34.502   7.953
 6907POPC   C4B26374  30.947  34.595   7.653
 6908POPC   NC326375  24.504  15.947   9.453
 6908POPC   PO426376  24.490  15.936   9.153
 6908POPC   GL126377  24.529  15.941   8.853
 6908POPC   GL226378  24.593  15.831   8.853
 6908POPC   C1A26379  24.471  15.985   8.553
 6908POPC   D2A26380  24.440  15.927   8.253
 6908POPC   C3A26381  24.447  15.910   7.953
 6908POPC   C4A26382  24.444  15.955   7.653
 6908POPC   C1B26383  24.570  15.716   8.553
 6908POPC   C2B26384  24.646  15.701   8.253
 6908POPC   C3B26385  24.573  15.774   7.953
 6908POPC   C4B26386  24.617  15.728   7.653
 6909POPC   NC326387  17.466   5.131   9.453
 6909POPC   PO426388  17.500   5.123   9.153
 6909POPC   GL126389  17.473   5.064   8.853
 6909POPC   GL226390  17.475   5.240   8.853
 6909POPC   C1A26391  17.512   5.110   8.553
 6909POPC   D2A26392  17.493   5.128   8.253
 6909POPC   C3A26393  17.511   5.131   7.953
 6909POPC   C4A26394  17.510   5.107   7.653
 6909POPC   C1B26395  17.330   5.322   8.553
 6909POPC   C2B26396  17.349   5.328   8.253
 6909POPC   C3B26397  17.337   5.333   7.953
 6909POPC   C4B26398  17.392   5.325   7.653
 6910POPC   NC326399  15.995  38.471   9.453
 6910POPC   PO426400  15.940  38.472   9.153
 6910POPC   GL126401  15.972  38.464   8.853
 6910POPC   GL226402  15.868  38.341   8.853
 6910POPC   C1A26403  15.983  38.437   8.553
 6910POPC   D2A26404  16.004  38.482   8.253
 6910POPC   C3A26405  15.933  38.432   7.953
 6910POPC   C4A26406  15.950  38.407   7.653
 6910POPC   C1B26407  15.753  38.276   8.553
 6910POPC   C2B26408  15.784  38.270   8.253
 6910POPC   C3B26409  15.789  38.228   7.953
 6910POPC   C4B26410  15.767  38.289   7.653
 6911POPC   NC326411  18.263   5.129   9.453
 6911POPC   PO426412  18.314   5.047   9.153
 6911POPC   GL126413  18.332   5.060   8.853
 6911POPC   GL226414  18.179   5.012   8.853
 6911POPC   C1A26415  18.292   5.123   8.553
 6911POPC   D2A26416  18.279   5.105   8.253
 6911POPC   C3A26417  18.259   5.067   7.953
 6911POPC   C4A26418  18.291   5.077   7.653
 6911POPC   C1B26419  18.081   5.042   8.553
 6911POPC   C2B26420  18.016   4.986   8.253
 6911POPC   C3B26421  18.017   5.008   7.953
 6911POPC   C4B26422  18.043   5.059   7.653
 6912POPC   NC326423  15.220  36.859   9.453
 6912POPC   PO426424  15.165  36.877   9.153
 6912POPC   GL126425  15.158  36.868   8.853
 6912POPC   GL226426  15.230  36.819   8.853
 6912POPC   C1A26427  15.150  36.910   8.553
 6912POPC   D2A26428  15.208  36.910   8.253
 6912POPC   C3A26429  15.194  36.899   7.953
 6912POPC   C4A26430  15.170  36.931   7.653
 6912POPC   C1B26431  15.343  36.714   8.553
 6912POPC   C2B26432  15.342  36.670   8.253
 6912POPC   C3B26433  15.382  36.754   7.953
 6912POPC   C4B26434  15.329  36.726   7.653
 6913POPC   NC326435   2.752  36.078   9.453
 6913POPC   PO426436   2.813  36.122   9.153
 6913POPC   GL126437   2.722  36.126   8.853
 6913POPC   GL226438   2.863  36.020   8.853
 6913POPC   C1A26439   2.809  36.104   8.553
 6913POPC   D2A26440   2.748  36.101   8.253
 6913POPC   C3A26441   2.797  36.106   7.953
 6913POPC   C4A26442   2.750  36.112   7.653
 6913POPC   C1B26443   2.934  36.016   8.553
 6913POPC   C2B26444   2.932  35.960   8.253
 6913POPC   C3B26445   2.930  35.942   7.953
 6913POPC   C4B26446   2.923  35.972   7.653
 6914POPC   NC326447  28.321  39.999   9.453
 6914POPC   PO426448  28.329  40.054   9.153
 6914POPC   GL126449  28.403  40.024   8.853
 6914POPC   GL226450  28.487  40.026   8.853
 6914POPC   C1A26451  28.339  40.028   8.553
 6914POPC   D2A26452  28.404  40.053   8.253
 6914POPC   C3A26453  28.353  39.992   7.953
 6914POPC   C4A26454  28.403  40.006   7.653
 6914POPC   C1B26455  28.574  39.987   8.553
 6914POPC   C2B26456  28.648  40.004   8.253
 6914POPC   C3B26457  28.645  40.036   7.953
 6914POPC   C4B26458  28.652  40.076   7.653
 6915POPC   NC326459  34.624  44.688   9.453
 6915POPC   PO426460  34.557  44.678   9.153
 6915POPC   GL126461  34.598  44.686   8.853
 6915POPC   GL226462  34.629  44.555   8.853
 6915POPC   C1A26463  34.615  44.711   8.553
 6915POPC   D2A26464  34.626  44.654   8.253
 6915POPC   C3A26465  34.548  44.639   7.953
 6915POPC   C4A26466  34.530  44.664   7.653
 6915POPC   C1B26467  34.769  44.492   8.553
 6915POPC   C2B26468  34.791  44.534   8.253
 6915POPC   C3B26469  34.757  44.539   7.953
 6915POPC   C4B26470  34.820  44.533   7.653
 6916POPC   NC326471  35.395  23.749   9.453
 6916POPC   PO426472  35.321  23.710   9.153
 6916POPC   GL126473  35.319  23.761   8.853
 6916POPC   GL226474  35.476  23.780   8.853
 6916POPC   C1A26475  35.326  23.746   8.553
 6916POPC   D2A26476  35.381  23.734   8.253
 6916POPC   C3A26477  35.331  23.708   7.953
 6916POPC   C4A26478  35.373  23.723   7.653
 6916POPC   C1B26479  35.550  23.808   8.553
 6916POPC   C2B26480  35.610  23.770   8.253
 6916POPC   C3B26481  35.547  23.780   7.953
 6916POPC   C4B26482  35.573  23.736   7.653
 6917POPC   NC326483  12.122  23.676   9.453
 6917POPC   PO426484  12.047  23.681   9.153
 6917POPC   GL126485  12.054  23.674   8.853
 6917POPC   GL226486  11.938  23.803   8.853
 6917POPC   C1A26487  12.105  23.755   8.553
 6917POPC   D2A26488  12.056  23.711   8.253
 6917POPC   C3A26489  12.090  23.749   7.953
 6917POPC   C4A26490  12.097  23.685   7.653
 6917POPC   C1B26491  11.858  23.795   8.553
 6917POPC   C2B26492  11.843  23.850   8.253
 6917POPC   C3B26493  11.891  23.803   7.953
 6917POPC   C4B26494  11.814  23.809   7.653
 6918POPC   NC326495  20.572  32.231   9.453
 6918POPC   PO426496  20.570  32.205   9.153
 6918POPC   GL126497  20.607  32.290   8.853
 6918POPC   GL226498  20.521  32.379   8.853
 6918POPC   C1A26499  20.612  32.205   8.553
 6918POPC   D2A26500  20.563  32.236   8.253
 6918POPC   C3A26501  20.627  32.199   7.953
 6918POPC   C4A26502  20.601  32.243   7.653
 6918POPC   C1B26503  20.434  32.380   8.553
 6918POPC   C2B26504  20.444  32.412   8.253
 6918POPC   C3B26505  20.428  32.376   7.953
 6918POPC   C4B26506  20.470  32.454   7.653
 6919POPC   NC326507  43.843  26.800   9.453
 6919POPC   PO426508  43.841  26.772   9.153
 6919POPC   GL126509  43.872  26.800   8.853
 6919POPC   GL226510  43.723  26.828   8.853
 6919POPC   C1A26511  43.836  26.821   8.553
 6919POPC   D2A26512  43.916  26.828   8.253
 6919POPC   C3A26513  43.906  26.858   7.953
 6919POPC   C4A26514  43.842  26.818   7.653
 6919POPC   C1B26515  43.606  26.930   8.553
 6919POPC   C2B26516  43.640  26.908   8.253
 6919POPC   C3B26517  43.687  26.878   7.953
 6919POPC   C4B26518  43.611  26.902   7.653
 6920POPC   NC326519   3.555  12.872   9.453
 6920POPC   PO426520   3.529  12.803   9.153
 6920POPC   GL126521   3.493  12.870   8.853
 6920POPC   GL226522   3.490  12.952   8.853
 6920POPC   C1A26523   3.585  12.849   8.553
 6920POPC   D2A26524   3.564  12.854   8.253
 6920POPC   C3A26525   3.567  12.855   7.953
 6920POPC   C4A26526   3.571  12.814   7.653
 6920POPC   C1B26527   3.318  12.958   8.553
 6920POPC   C2B26528   3.294  12.995   8.253
 6920POPC   C3B26529   3.390  12.982   7.953
 6920POPC   C4B26530   3.324  13.046   7.653
 6921POPC   NC326531   0.431   1.258   9.453
 6921POPC   PO426532   0.442   1.231   9.153
 6921POPC   GL126533   0.437   1.165   8.853
 6921POPC   GL226534   0.298   1.209   8.853
 6921POPC   C1A26535   0.434   1.225   8.553
 6921POPC   D2A26536   0.447   1.259   8.253
 6921POPC   C3A26537   0.391   1.249   7.953
 6921POPC   C4A26538   0.404   1.236   7.653
 6921POPC   C1B26539   0.198   1.273   8.553
 6921POPC   C2B26540   0.194   1.305   8.253
 6921POPC   C3B26541   0.144   1.263   7.953
 6921POPC   C4B26542   0.231   1.294   7.653
 6922POPC   NC326543  31.474  44.641   9.453
 6922POPC   PO426544  31.461  44.617   9.153
 6922POPC   GL126545  31.475  44.687   8.853
 6922POPC   GL226546  31.547  44.594   8.853
 6922POPC   C1A26547  31.512  44.649   8.553
 6922POPC   D2A26548  31.444  44.706   8.253
 6922POPC   C3A26549  31.471  44.660   7.953
 6922POPC   C4A26550  31.513  44.676   7.653
 6922POPC   C1B26551  31.640  44.452   8.553
 6922POPC   C2B26552  31.632  44.440   8.253
 6922POPC   C3B26553  31.615  44.464   7.953
 6922POPC   C4B26554  31.647  44.417   7.653
 6923POPC   NC326555   2.020   8.944   9.453
 6923POPC   PO426556   2.034   9.013   9.153
 6923POPC   GL126557   1.943   8.954   8.853
 6923POPC   GL226558   1.900   9.016   8.853
 6923POPC   C1A26559   1.975   8.964   8.553
 6923POPC   D2A26560   1.961   8.943   8.253
 6923POPC   C3A26561   1.965   8.991   7.953
 6923POPC   C4A26562   1.978   8.935   7.653
 6923POPC   C1B26563   1.756   9.117   8.553
 6923POPC   C2B26564   1.742   9.081   8.253
 6923POPC   C3B26565   1.760   9.046   7.953
 6923POPC   C4B26566   1.734   9.097   7.653
 6924POPC   NC326567   8.923  13.601   9.453
 6924POPC   PO426568   8.978  13.586   9.153
 6924POPC   GL126569   8.940  13.644   8.853
 6924POPC   GL226570   8.851  13.557   8.853
 6924POPC   C1A26571   8.955  13.655   8.553
 6924POPC   D2A26572   8.932  13.658   8.253
 6924POPC   C3A26573   8.942  13.659   7.953
 6924POPC   C4A26574   8.993  13.675   7.653
 6924POPC   C1B26575   8.711  13.539   8.553
 6924POPC   C2B26576   8.712  13.572   8.253
 6924POPC   C3B26577   8.737  13.555   7.953
 6924POPC   C4B26578   8.686  13.539   7.653
 6925POPC   NC326579   6.635   5.883   9.453
 6925POPC   PO426580   6.665   5.905   9.153
 6925POPC   GL126581   6.693   5.885   8.853
 6925POPC   GL226582   6.647   5.743   8.853
 6925POPC   C1A26583   6.670   5.877   8.553
 6925POPC   D2A26584   6.674   5.863   8.253
 6925POPC   C3A26585   6.694   5.883   7.953
 6925POPC   C4A26586   6.635   5.904   7.653
 6925POPC   C1B26587   6.689   5.646   8.553
 6925POPC   C2B26588   6.723   5.597   8.253
 6925POPC   C3B26589   6.752   5.638   7.953
 6925POPC   C4B26590   6.749   5.617   7.653
 6926POPC   NC326591   6.687   8.976   9.453
 6926POPC   PO426592   6.693   8.988   9.153
 6926POPC   GL126593   6.689   8.946   8.853
 6926POPC   GL226594   6.724   9.108   8.853
 6926POPC   C1A26595   6.621   8.974   8.553
 6926POPC   D2A26596   6.680   8.968   8.253
 6926POPC   C3A26597   6.633   8.973   7.953
 6926POPC   C4A26598   6.642   8.929   7.653
 6926POPC   C1B26599   6.797   9.224   8.553
 6926POPC   C2B26600   6.795   9.191   8.253
 6926POPC   C3B26601   6.725   9.206   7.953
 6926POPC   C4B26602   6.712   9.167   7.653
 6927POPC   NC326603   6.645  33.025   9.453
 6927POPC   PO426604   6.675  33.022   9.153
 6927POPC   GL126605   6.636  32.992   8.853
 6927POPC   GL226606   6.563  33.058   8.853
 6927POPC   C1A26607   6.695  33.054   8.553
 6927POPC   D2A26608   6.635  33.060   8.253
 6927POPC   C3A26609   6.609  33.028   7.953
 6927POPC   C4A26610   6.602  33.007   7.653
 6927POPC   C1B26611   6.476  33.182   8.553
 6927POPC   C2B26612   6.491  33.181   8.253
 6927POPC   C3B26613   6.414  33.188   7.953
 6927POPC   C4B26614   6.484  33.199   7.653
 6928POPC   NC326615  39.195  39.234   9.453
 6928POPC   PO426616  39.246  39.241   9.153
 6928POPC   GL126617  39.245  39.259   8.853
 6928POPC   GL226618  39.322  39.295   8.853
 6928POPC   C1A26619  39.244  39.275   8.553
 6928POPC   D2A26620  39.264  39.198   8.253
 6928POPC   C3A26621  39.257  39.245   7.953
 6928POPC   C4A26622  39.276  39.254   7.653
 6928POPC   C1B26623  39.413  39.369   8.553
 6928POPC   C2B26624  39.467  39.346   8.253
 6928POPC   C3B26625  39.409  39.394   7.953
 6928POPC   C4B26626  39.461  39.365   7.653
 6929POPC   NC326627   7.409  29.105   9.453
 6929POPC   PO426628   7.426  29.188   9.153
 6929POPC   GL126629   7.379  29.132   8.853
 6929POPC   GL226630   7.373  29.269   8.853
 6929POPC   C1A26631   7.466  29.163   8.553
 6929POPC   D2A26632   7.443  29.187   8.253
 6929POPC   C3A26633   7.419  29.140   7.953
 6929POPC   C4A26634   7.456  29.175   7.653
 6929POPC   C1B26635   7.255  29.372   8.553
 6929POPC   C2B26636   7.307  29.335   8.253
 6929POPC   C3B26637   7.306  29.353   7.953
 6929POPC   C4B26638   7.257  29.390   7.653
 6930POPC   NC326639   8.192  24.456   9.453
 6930POPC   PO426640   8.196  24.471   9.153
 6930POPC   GL126641   8.228  24.442   8.853
 6930POPC   GL226642   8.210  24.561   8.853
 6930POPC   C1A26643   8.234  24.467   8.553
 6930POPC   D2A26644   8.147  24.522   8.253
 6930POPC   C3A26645   8.160  24.457   7.953
 6930POPC   C4A26646   8.181  24.484   7.653
 6930POPC   C1B26647   8.269  24.684   8.553
 6930POPC   C2B26648   8.297  24.722   8.253
 6930POPC   C3B26649   8.291  24.734   7.953
 6930POPC   C4B26650   8.356  24.681   7.653
 6931POPC   NC326651  38.500  10.479   9.453
 6931POPC   PO426652  38.427  10.491   9.153
 6931POPC   GL126653  38.454  10.573   8.853
 6931POPC   GL226654  38.622  10.537   8.853
 6931POPC   C1A26655  38.464  10.508   8.553
 6931POPC   D2A26656  38.482  10.554   8.253
 6931POPC   C3A26657  38.473  10.476   7.953
 6931POPC   C4A26658  38.428  10.489   7.653
 6931POPC   C1B26659  38.678  10.541   8.553
 6931POPC   C2B26660  38.722  10.457   8.253
 6931POPC   C3B26661  38.728  10.458   7.953
 6931POPC   C4B26662  38.749  10.522   7.653
 6932POPC   NC326663  43.089  29.127   9.453
 6932POPC   PO426664  43.106  29.131   9.153
 6932POPC   GL126665  43.085  29.195   8.853
 6932POPC   GL226666  43.024  29.099   8.853
 6932POPC   C1A26667  43.150  29.122   8.553
 6932POPC   D2A26668  43.143  29.142   8.253
 6932POPC   C3A26669  43.106  29.112   7.953
 6932POPC   C4A26670  43.118  29.173   7.653
 6932POPC   C1B26671  42.860  29.068   8.553
 6932POPC   C2B26672  42.900  28.988   8.253
 6932POPC   C3B26673  42.880  29.049   7.953
 6932POPC   C4B26674  42.932  29.073   7.653
 6933POPC   NC326675  10.485   0.438   9.453
 6933POPC   PO426676  10.542   0.392   9.153
 6933POPC   GL126677  10.476   0.436   8.853
 6933POPC   GL226678  10.660   0.427   8.853
 6933POPC   C1A26679  10.485   0.480   8.553
 6933POPC   D2A26680  10.520   0.439   8.253
 6933POPC   C3A26681  10.537   0.402   7.953
 6933POPC   C4A26682  10.519   0.418   7.653
 6933POPC   C1B26683  10.772   0.362   8.553
 6933POPC   C2B26684  10.729   0.401   8.253
 6933POPC   C3B26685  10.756   0.439   7.953
 6933POPC   C4B26686  10.817   0.392   7.653
 6934POPC   NC326687  15.156  19.847   9.453
 6934POPC   PO426688  15.157  19.883   9.153
 6934POPC   GL126689  15.192  19.814   8.853
 6934POPC   GL226690  15.129  19.924   8.853
 6934POPC   C1A26691  15.139  19.797   8.553
 6934POPC   D2A26692  15.171  19.840   8.253
 6934POPC   C3A26693  15.173  19.821   7.953
 6934POPC   C4A26694  15.150  19.813   7.653
 6934POPC   C1B26695  15.011  20.043   8.553
 6934POPC   C2B26696  15.068  19.980   8.253
 6934POPC   C3B26697  15.024  20.004   7.953
 6934POPC   C4B26698  15.006  20.069   7.653
 6935POPC   NC326699  14.370   9.768   9.453
 6935POPC   PO426700  14.440   9.783   9.153
 6935POPC   GL126701  14.391   9.783   8.853
 6935POPC   GL226702  14.369   9.583   8.853
 6935POPC   C1A26703  14.419   9.701   8.553
 6935POPC   D2A26704  14.383   9.770   8.253
 6935POPC   C3A26705  14.379   9.737   7.953
 6935POPC   C4A26706  14.377   9.773   7.653
 6935POPC   C1B26707  14.423   9.530   8.553
 6935POPC   C2B26708  14.421   9.547   8.253
 6935POPC   C3B26709  14.379   9.457   7.953
 6935POPC   C4B26710  14.369   9.475   7.653
 6936POPC   NC326711   8.952  31.424   9.453
 6936POPC   PO426712   9.016  31.464   9.153
 6936POPC   GL126713   8.981  31.506   8.853
 6936POPC   GL226714   8.977  31.359   8.853
 6936POPC   C1A26715   9.001  31.512   8.553
 6936POPC   D2A26716   8.968  31.466   8.253
 6936POPC   C3A26717   9.012  31.448   7.953
 6936POPC   C4A26718   8.942  31.446   7.653
 6936POPC   C1B26719   8.924  31.191   8.553
 6936POPC   C2B26720   8.951  31.249   8.253
 6936POPC   C3B26721   8.894  31.214   7.953
 6936POPC   C4B26722   8.952  31.239   7.653
 6937POPC   NC326723   9.750  16.710   9.453
 6937POPC   PO426724   9.796  16.746   9.153
 6937POPC   GL126725   9.789  16.776   8.853
 6937POPC   GL226726   9.876  16.724   8.853
 6937POPC   C1A26727   9.703  16.763   8.553
 6937POPC   D2A26728   9.797  16.718   8.253
 6937POPC   C3A26729   9.728  16.750   7.953
 6937POPC   C4A26730   9.773  16.735   7.653
 6937POPC   C1B26731  10.011  16.597   8.553
 6937POPC   C2B26732   9.934  16.635   8.253
 6937POPC   C3B26733   9.950  16.596   7.953
 6937POPC   C4B26734   9.955  16.595   7.653
 6938POPC   NC326735  26.860   4.313   9.453
 6938POPC   PO426736  26.814   4.327   9.153
 6938POPC   GL126737  26.848   4.281   8.853
 6938POPC   GL226738  26.989   4.271   8.853
 6938POPC   C1A26739  26.822   4.359   8.553
 6938POPC   D2A26740  26.842   4.276   8.253
 6938POPC   C3A26741  26.784   4.272   7.953
 6938POPC   C4A26742  26.787   4.329   7.653
 6938POPC   C1B26743  27.086   4.265   8.553
 6938POPC   C2B26744  27.047   4.308   8.253
 6938POPC   C3B26745  27.101   4.273   7.953
 6938POPC   C4B26746  27.093   4.314   7.653
 6939POPC   NC326747  11.254  39.225   9.453
 6939POPC   PO426748  11.316  39.202   9.153
 6939POPC   GL126749  11.331  39.205   8.853
 6939POPC   GL226750  11.387  39.206   8.853
 6939POPC   C1A26751  11.332  39.199   8.553
 6939POPC   D2A26752  11.344  39.244   8.253
 6939POPC   C3A26753  11.325  39.257   7.953
 6939POPC   C4A26754  11.250  39.187   7.653
 6939POPC   C1B26755  11.514  39.260   8.553
 6939POPC   C2B26756  11.569  39.224   8.253
 6939POPC   C3B26757  11.501  39.257   7.953
 6939POPC   C4B26758  11.538  39.226   7.653
 6940POPC   NC326759  27.615  20.571   9.453
 6940POPC   PO426760  27.622  20.649   9.153
 6940POPC   GL126761  27.572  20.561   8.853
 6940POPC   GL226762  27.478  20.590   8.853
 6940POPC   C1A26763  27.586  20.586   8.553
 6940POPC   D2A26764  27.577  20.565   8.253
 6940POPC   C3A26765  27.591  20.563   7.953
 6940POPC   C4A26766  27.553  20.576   7.653
 6940POPC   C1B26767  27.372  20.504   8.553
 6940POPC   C2B26768  27.387  20.575   8.253
 6940POPC   C3B26769  27.330  20.566   7.953
 6940POPC   C4B26770  27.368  20.487   7.653
 6941POPC   NC326771   8.195  27.575   9.453
 6941POPC   PO426772   8.217  27.583   9.153
 6941POPC   GL126773   8.225  27.588   8.853
 6941POPC   GL226774   8.318  27.569   8.853
 6941POPC   C1A26775   8.177  27.624   8.553
 6941POPC   D2A26776   8.238  27.627   8.253
 6941POPC   C3A26777   8.225  27.635   7.953
 6941POPC   C4A26778   8.188  27.597   7.653
 6941POPC   C1B26779   8.475  27.543   8.553
 6941POPC   C2B26780   8.456  27.509   8.253
 6941POPC   C3B26781   8.389  27.523   7.953
 6941POPC   C4B26782   8.485  27.498   7.653
 6942POPC   NC326783  12.085  22.947   9.453
 6942POPC   PO426784  12.029  22.905   9.153
 6942POPC   GL126785  12.062  22.948   8.853
 6942POPC   GL226786  11.998  23.078   8.853
 6942POPC   C1A26787  12.124  22.975   8.553
 6942POPC   D2A26788  12.065  22.930   8.253
 6942POPC   C3A26789  12.109  22.908   7.953
 6942POPC   C4A26790  12.031  22.935   7.653
 6942POPC   C1B26791  11.980  23.202   8.553
 6942POPC   C2B26792  12.012  23.160   8.253
 6942POPC   C3B26793  11.996  23.176   7.953
 6942POPC   C4B26794  12.017  23.179   7.653
 6943POPC   NC326795  41.591  37.720   9.453
 6943POPC   PO426796  41.563  37.705   9.153
 6943POPC   GL126797  41.509  37.719   8.853
 6943POPC   GL226798  41.644  37.750   8.853
 6943POPC   C1A26799  41.529  37.721   8.553
 6943POPC   D2A26800  41.536  37.690   8.253
 6943POPC   C3A26801  41.570  37.678   7.953
 6943POPC   C4A26802  41.575  37.651   7.653
 6943POPC   C1B26803  41.688  37.901   8.553
 6943POPC   C2B26804  41.656  37.891   8.253
 6943POPC   C3B26805  41.721  37.897   7.953
 6943POPC   C4B26806  41.673  37.894   7.653
 6944POPC   NC326807  11.294   9.016   9.453
 6944POPC   PO426808  11.269   8.965   9.153
 6944POPC   GL126809  11.316   8.991   8.853
 6944POPC   GL226810  11.392   8.861   8.853
 6944POPC   C1A26811  11.272   8.940   8.553
 6944POPC   D2A26812  11.299   8.955   8.253
 6944POPC   C3A26813  11.343   8.929   7.953
 6944POPC   C4A26814  11.318   8.963   7.653
 6944POPC   C1B26815  11.469   8.772   8.553
 6944POPC   C2B26816  11.398   8.768   8.253
 6944POPC   C3B26817  11.402   8.753   7.953
 6944POPC   C4B26818  11.461   8.743   7.653
 6945POPC   NC326819  20.646   2.753   9.453
 6945POPC   PO426820  20.638   2.744   9.153
 6945POPC   GL126821  20.600   2.749   8.853
 6945POPC   GL226822  20.691   2.654   8.853
 6945POPC   C1A26823  20.619   2.737   8.553
 6945POPC   D2A26824  20.578   2.807   8.253
 6945POPC   C3A26825  20.568   2.815   7.953
 6945POPC   C4A26826  20.616   2.740   7.653
 6945POPC   C1B26827  20.743   2.601   8.553
 6945POPC   C2B26828  20.797   2.607   8.253
 6945POPC   C3B26829  20.738   2.538   7.953
 6945POPC   C4B26830  20.772   2.551   7.653
 6946POPC   NC326831  32.206  18.235   9.453
 6946POPC   PO426832  32.225  18.258   9.153
 6946POPC   GL126833  32.250  18.266   8.853
 6946POPC   GL226834  32.388  18.278   8.853
 6946POPC   C1A26835  32.272  18.304   8.553
 6946POPC   D2A26836  32.259  18.304   8.253
 6946POPC   C3A26837  32.209  18.240   7.953
 6946POPC   C4A26838  32.290  18.261   7.653
 6946POPC   C1B26839  32.454  18.211   8.553
 6946POPC   C2B26840  32.451  18.159   8.253
 6946POPC   C3B26841  32.515  18.229   7.953
 6946POPC   C4B26842  32.465  18.208   7.653
 6947POPC   NC326843  25.291  29.154   9.453
 6947POPC   PO426844  25.305  29.167   9.153
 6947POPC   GL126845  25.254  29.156   8.853
 6947POPC   GL226846  25.337  29.046   8.853
 6947POPC   C1A26847  25.256  29.183   8.553
 6947POPC   D2A26848  25.273  29.100   8.253
 6947POPC   C3A26849  25.305  29.120   7.953
 6947POPC   C4A26850  25.264  29.167   7.653
 6947POPC   C1B26851  25.489  28.989   8.553
 6947POPC   C2B26852  25.460  28.995   8.253
 6947POPC   C3B26853  25.483  28.942   7.953
 6947POPC   C4B26854  25.476  28.989   7.653
 6948POPC   NC326855  39.242  21.398   9.453
 6948POPC   PO426856  39.255  21.392   9.153
 6948POPC   GL126857  39.206  21.356   8.853
 6948POPC   GL226858  39.071  21.362   8.853
 6948POPC   C1A26859  39.223  21.422   8.553
 6948POPC   D2A26860  39.186  21.422   8.253
 6948POPC   C3A26861  39.264  21.393   7.953
 6948POPC   C4A26862  39.190  21.375   7.653
 6948POPC   C1B26863  38.995  21.396   8.553
 6948POPC   C2B26864  38.946  21.383   8.253
 6948POPC   C3B26865  39.008  21.426   7.953
 6948POPC   C4B26866  39.006  21.365   7.653
 6949POPC   NC326867  34.550  26.797   9.453
 6949POPC   PO426868  34.539  26.830   9.153
 6949POPC   GL126869  34.619  26.815   8.853
 6949POPC   GL226870  34.538  26.967   8.853
 6949POPC   C1A26871  34.565  26.855   8.553
 6949POPC   D2A26872  34.602  26.769   8.253
 6949POPC   C3A26873  34.540  26.827   7.953
 6949POPC   C4A26874  34.589  26.833   7.653
 6949POPC   C1B26875  34.571  27.070   8.553
 6949POPC   C2B26876  34.557  27.041   8.253
 6949POPC   C3B26877  34.521  27.068   7.953
 6949POPC   C4B26878  34.570  27.092   7.653
 6950POPC   NC326879  41.542  43.922   9.453
 6950POPC   PO426880  41.546  43.891   9.153
 6950POPC   GL126881  41.512  43.848   8.853
 6950POPC   GL226882  41.548  44.011   8.853
 6950POPC   C1A26883  41.594  43.851   8.553
 6950POPC   D2A26884  41.579  43.921   8.253
 6950POPC   C3A26885  41.535  43.917   7.953
 6950POPC   C4A26886  41.568  43.860   7.653
 6950POPC   C1B26887  41.655  44.132   8.553
 6950POPC   C2B26888  41.575  44.112   8.253
 6950POPC   C3B26889  41.635  44.127   7.953
 6950POPC   C4B26890  41.658  44.120   7.653
 6951POPC   NC326891  21.375  44.656   9.453
 6951POPC   PO426892  21.433  44.689   9.153
 6951POPC   GL126893  21.430  44.620   8.853
 6951POPC   GL226894  21.253  44.529   8.853
 6951POPC   C1A26895  21.364  44.620   8.553
 6951POPC   D2A26896  21.402  44.697   8.253
 6951POPC   C3A26897  21.337  44.646   7.953
 6951POPC   C4A26898  21.362  44.693   7.653
 6951POPC   C1B26899  21.241  44.514   8.553
 6951POPC   C2B26900  21.228  44.498   8.253
 6951POPC   C3B26901  21.240  44.506   7.953
 6951POPC   C4B26902  21.214  44.465   7.653
 6952POPC   NC326903   2.775  12.101   9.453
 6952POPC   PO426904   2.749  12.070   9.153
 6952POPC   GL126905   2.806  12.058   8.853
 6952POPC   GL226906   2.790  12.203   8.853
 6952POPC   C1A26907   2.812  12.115   8.553
 6952POPC   D2A26908   2.791  12.053   8.253
 6952POPC   C3A26909   2.815  12.103   7.953
 6952POPC   C4A26910   2.807  12.058   7.653
 6952POPC   C1B26911   2.880  12.286   8.553
 6952POPC   C2B26912   2.887  12.303   8.253
 6952POPC   C3B26913   2.910  12.287   7.953
 6952POPC   C4B26914   2.897  12.279   7.653
 6953POPC   NC326915  25.253  40.770   9.453
 6953POPC   PO426916  25.282  40.786   9.153
 6953POPC   GL126917  25.311  40.824   8.853
 6953POPC   GL226918  25.378  40.778   8.853
 6953POPC   C1A26919  25.296  40.832   8.553
 6953POPC   D2A26920  25.256  40.759   8.253
 6953POPC   C3A26921  25.218  40.827   7.953
 6953POPC   C4A26922  25.294  40.757   7.653
 6953POPC   C1B26923  25.462  40.690   8.553
 6953POPC   C2B26924  25.529  40.737   8.253
 6953POPC   C3B26925  25.486  40.717   7.953
 6953POPC   C4B26926  25.483  40.737   7.653
 6954POPC   NC326927  35.320   7.460   9.453
 6954POPC   PO426928  35.356   7.463   9.153
 6954POPC   GL126929  35.385   7.450   8.853
 6954POPC   GL226930  35.353   7.325   8.853
 6954POPC   C1A26931  35.339   7.467   8.553
 6954POPC   D2A26932  35.355   7.428   8.253
 6954POPC   C3A26933  35.356   7.407   7.953
 6954POPC   C4A26934  35.307   7.455   7.653
 6954POPC   C1B26935  35.260   7.161   8.553
 6954POPC   C2B26936  35.221   7.179   8.253
 6954POPC   C3B26937  35.243   7.223   7.953
 6954POPC   C4B26938  35.220   7.220   7.653
 6955POPC   NC326939   5.839  33.790   9.453
 6955POPC   PO426940   5.918  33.761   9.153
 6955POPC   GL126941   5.888  33.820   8.853
 6955POPC   GL226942   5.880  33.702   8.853
 6955POPC   C1A26943   5.910  33.766   8.553
 6955POPC   D2A26944   5.853  33.783   8.253
 6955POPC   C3A26945   5.906  33.824   7.953
 6955POPC   C4A26946   5.864  33.837   7.653
 6955POPC   C1B26947   5.972  33.564   8.553
 6955POPC   C2B26948   6.021  33.579   8.253
 6955POPC   C3B26949   5.977  33.536   7.953
 6955POPC   C4B26950   5.958  33.554   7.653
 6956POPC   NC326951   6.684  43.079   9.453
 6956POPC   PO426952   6.688  43.122   9.153
 6956POPC   GL126953   6.644  43.119   8.853
 6956POPC   GL226954   6.765  43.105   8.853
 6956POPC   C1A26955   6.681  43.092   8.553
 6956POPC   D2A26956   6.688  43.124   8.253
 6956POPC   C3A26957   6.631  43.084   7.953
 6956POPC   C4A26958   6.681  43.064   7.653
 6956POPC   C1B26959   6.907  43.165   8.553
 6956POPC   C2B26960   6.908  43.130   8.253
 6956POPC   C3B26961   6.847  43.105   7.953
 6956POPC   C4B26962   6.881  43.182   7.653
 6957POPC   NC326963  36.122  22.194   9.453
 6957POPC   PO426964  36.142  22.198   9.153
 6957POPC   GL126965  36.119  22.163   8.853
 6957POPC   GL226966  35.988  22.104   8.853
 6957POPC   C1A26967  36.093  22.186   8.553
 6957POPC   D2A26968  36.111  22.139   8.253
 6957POPC   C3A26969  36.093  22.142   7.953
 6957POPC   C4A26970  36.129  22.208   7.653
 6957POPC   C1B26971  35.914  22.069   8.553
 6957POPC   C2B26972  35.947  22.031   8.253
 6957POPC   C3B26973  35.923  22.028   7.953
 6957POPC   C4B26974  35.957  22.056   7.653
 6958POPC   NC326975  28.394   8.181   9.453
 6958POPC   PO426976  28.330   8.243   9.153
 6958POPC   GL126977  28.347   8.246   8.853
 6958POPC   GL226978  28.322   8.112   8.853
 6958POPC   C1A26979  28.332   8.185   8.553
 6958POPC   D2A26980  28.379   8.155   8.253
 6958POPC   C3A26981  28.349   8.225   7.953
 6958POPC   C4A26982  28.327   8.240   7.653
 6958POPC   C1B26983  28.250   8.020   8.553
 6958POPC   C2B26984  28.218   7.929   8.253
 6958POPC   C3B26985  28.259   7.992   7.953
 6958POPC   C4B26986  28.300   8.022   7.653
 6959POPC   NC326987  43.889  10.491   9.453
 6959POPC   PO426988  43.923  10.554   9.153
 6959POPC   GL126989  43.850  10.562   8.853
 6959POPC   GL226990  44.007  10.638   8.853
 6959POPC   C1A26991  43.842  10.490   8.553
 6959POPC   D2A26992  43.930  10.508   8.253
 6959POPC   C3A26993  43.890  10.544   7.953
 6959POPC   C4A26994  43.918  10.500   7.653
 6959POPC   C1B26995  44.000  10.731   8.553
 6959POPC   C2B26996  44.013  10.727   8.253
 6959POPC   C3B26997  44.010  10.757   7.953
 6959POPC   C4B26998  44.013  10.700   7.653
 6960POPC   NC326999   8.971  15.983   9.453
 6960POPC   PO427000   9.013  15.934   9.153
 6960POPC   GL127001   8.971  15.935   8.853
 6960POPC   GL227002   8.873  15.980   8.853
 6960POPC   C1A27003   8.939  15.984   8.553
 6960POPC   D2A27004   8.979  15.909   8.253
 6960POPC   C3A27005   8.931  15.989   7.953
 6960POPC   C4A27006   8.930  15.944   7.653
 6960POPC   C1B27007   8.773  16.036   8.553
 6960POPC   C2B27008   8.678  16.033   8.253
 6960POPC   C3B27009   8.728  15.948   7.953
 6960POPC   C4B27010   8.703  15.975   7.653
 6961POPC   NC327011  33.068  36.935   9.453
 6961POPC   PO427012  33.007  36.862   9.153
 6961POPC   GL127013  33.049  36.911   8.853
 6961POPC   GL227014  32.913  36.801   8.853
 6961POPC   C1A27015  32.995  36.879   8.553
 6961POPC   D2A27016  33.002  36.934   8.253
 6961POPC   C3A27017  33.007  36.900   7.953
 6961POPC   C4A27018  33.004  36.934   7.653
 6961POPC   C1B27019  32.832  36.760   8.553
 6961POPC   C2B27020  32.823  36.798   8.253
 6961POPC   C3B27021  32.781  36.789   7.953
 6961POPC   C4B27022  32.803  36.823   7.653
 6962POPC   NC327023  17.462  11.316   9.453
 6962POPC   PO427024  17.485  11.281   9.153
 6962POPC   GL127025  17.459  11.256   8.853
 6962POPC   GL227026  17.582  11.202   8.853
 6962POPC   C1A27027  17.468  11.288   8.553
 6962POPC   D2A27028  17.547  11.325   8.253
 6962POPC   C3A27029  17.536  11.292   7.953
 6962POPC   C4A27030  17.540  11.343   7.653
 6962POPC   C1B27031  17.607  11.045   8.553
 6962POPC   C2B27032  17.599  11.025   8.253
 6962POPC   C3B27033  17.623  11.103   7.953
 6962POPC   C4B27034  17.621  11.091   7.653
 6963POPC   NC327035  43.855  42.294   9.453
 6963POPC   PO427036  43.889  42.353   9.153
 6963POPC   GL127037  43.894  42.362   8.853
 6963POPC   GL227038  43.965  42.270   8.853
 6963POPC   C1A27039  43.841  42.372   8.553
 6963POPC   D2A27040  43.879  42.383   8.253
 6963POPC   C3A27041  43.867  42.328   7.953
 6963POPC   C4A27042  43.853  42.293   7.653
 6963POPC   C1B27043  44.060  42.160   8.553
 6963POPC   C2B27044  44.039  42.197   8.253
 6963POPC   C3B27045  44.118  42.192   7.953
 6963POPC   C4B27046  44.032  42.172   7.653
 6964POPC   NC327047  23.759  29.912   9.453
 6964POPC   PO427048  23.711  29.894   9.153
 6964POPC   GL127049  23.688  29.934   8.853
 6964POPC   GL227050  23.836  29.894   8.853
 6964POPC   C1A27051  23.695  29.944   8.553
 6964POPC   D2A27052  23.708  29.931   8.253
 6964POPC   C3A27053  23.751  29.939   7.953
 6964POPC   C4A27054  23.703  29.945   7.653
 6964POPC   C1B27055  23.913  29.726   8.553
 6964POPC   C2B27056  23.877  29.734   8.253
 6964POPC   C3B27057  23.947  29.805   7.953
 6964POPC   C4B27058  23.867  29.794   7.653
 6965POPC   NC327059  27.576  39.984   9.453
 6965POPC   PO427060  27.607  40.020   9.153
 6965POPC   GL127061  27.557  40.031   8.853
 6965POPC   GL227062  27.612  40.129   8.853
 6965POPC   C1A27063  27.605  39.968   8.553
 6965POPC   D2A27064  27.550  40.038   8.253
 6965POPC   C3A27065  27.574  39.958   7.953
 6965POPC   C4A27066  27.623  40.017   7.653
 6965POPC   C1B27067  27.695  40.233   8.553
 6965POPC   C2B27068  27.724  40.263   8.253
 6965POPC   C3B27069  27.701  40.272   7.953
 6965POPC   C4B27070  27.735  40.278   7.653
 6966POPC   NC327071  15.909   6.622   9.453
 6966POPC   PO427072  15.986   6.614   9.153
 6966POPC   GL127073  15.993   6.666   8.853
 6966POPC   GL227074  16.050   6.555   8.853
 6966POPC   C1A27075  15.920   6.692   8.553
 6966POPC   D2A27076  15.970   6.656   8.253
 6966POPC   C3A27077  15.983   6.629   7.953
 6966POPC   C4A27078  16.003   6.649   7.653
 6966POPC   C1B27079  16.179   6.511   8.553
 6966POPC   C2B27080  16.149   6.504   8.253
 6966POPC   C3B27081  16.164   6.488   7.953
 6966POPC   C4B27082  16.123   6.478   7.653
 6967POPC   NC327083  26.019  12.047   9.453
 6967POPC   PO427084  26.012  12.119   9.153
 6967POPC   GL127085  26.024  12.071   8.853
 6967POPC   GL227086  25.996  11.954   8.853
 6967POPC   C1A27087  26.005  12.095   8.553
 6967POPC   D2A27088  26.004  12.042   8.253
 6967POPC   C3A27089  26.040  12.095   7.953
 6967POPC   C4A27090  26.091  12.048   7.653
 6967POPC   C1B27091  25.965  11.851   8.553
 6967POPC   C2B27092  25.979  11.802   8.253
 6967POPC   C3B27093  25.992  11.788   7.953
 6967POPC   C4B27094  26.056  11.815   7.653
 6968POPC   NC327095  13.638  36.097   9.453
 6968POPC   PO427096  13.672  36.135   9.153
 6968POPC   GL127097  13.616  36.164   8.853
 6968POPC   GL227098  13.522  36.118   8.853
 6968POPC   C1A27099  13.643  36.112   8.553
 6968POPC   D2A27100  13.621  36.146   8.253
 6968POPC   C3A27101  13.657  36.134   7.953
 6968POPC   C4A27102  13.628  36.095   7.653
 6968POPC   C1B27103  13.389  36.129   8.553
 6968POPC   C2B27104  13.387  36.187   8.253
 6968POPC   C3B27105  13.370  36.109   7.953
 6968POPC   C4B27106  13.412  36.151   7.653
 6969POPC   NC327107  13.598  12.822   9.453
 6969POPC   PO427108  13.619  12.863   9.153
 6969POPC   GL127109  13.638  12.876   8.853
 6969POPC   GL227110  13.546  12.736   8.853
 6969POPC   C1A27111  13.625  12.897   8.553
 6969POPC   D2A27112  13.630  12.818   8.253
 6969POPC   C3A27113  13.601  12.810   7.953
 6969POPC   C4A27114  13.627  12.840   7.653
 6969POPC   C1B27115  13.466  12.646   8.553
 6969POPC   C2B27116  13.453  12.653   8.253
 6969POPC   C3B27117  13.492  12.617   7.953
 6969POPC   C4B27118  13.452  12.644   7.653
 6970POPC   NC327119  12.891   5.131   9.453
 6970POPC   PO427120  12.877   5.047   9.153
 6970POPC   GL127121  12.861   5.050   8.853
 6970POPC   GL227122  12.773   5.028   8.853
 6970POPC   C1A27123  12.828   5.089   8.553
 6970POPC   D2A27124  12.812   5.080   8.253
 6970POPC   C3A27125  12.806   5.095   7.953
 6970POPC   C4A27126  12.856   5.064   7.653
 6970POPC   C1B27127  12.611   5.014   8.553
 6970POPC   C2B27128  12.649   4.993   8.253
 6970POPC   C3B27129  12.646   4.993   7.953
 6970POPC   C4B27130  12.623   5.054   7.653
 6971POPC   NC327131  19.804   2.797   9.453
 6971POPC   PO427132  19.794   2.726   9.153
 6971POPC   GL127133  19.785   2.790   8.853
 6971POPC   GL227134  19.894   2.877   8.853
 6971POPC   C1A27135  19.857   2.768   8.553
 6971POPC   D2A27136  19.876   2.771   8.253
 6971POPC   C3A27137  19.786   2.808   7.953
 6971POPC   C4A27138  19.830   2.793   7.653
 6971POPC   C1B27139  20.038   2.903   8.553
 6971POPC   C2B27140  20.030   2.903   8.253
 6971POPC   C3B27141  20.014   2.964   7.953
 6971POPC   C4B27142  20.047   2.979   7.653
 6972POPC   NC327143  38.436  20.600   9.453
 6972POPC   PO427144  38.456  20.591   9.153
 6972POPC   GL127145  38.448  20.655   8.853
 6972POPC   GL227146  38.307  20.598   8.853
 6972POPC   C1A27147  38.438  20.647   8.553
 6972POPC   D2A27148  38.422  20.603   8.253
 6972POPC   C3A27149  38.441  20.629   7.953
 6972POPC   C4A27150  38.505  20.629   7.653
 6972POPC   C1B27151  38.252  20.518   8.553
 6972POPC   C2B27152  38.273  20.506   8.253
 6972POPC   C3B27153  38.189  20.473   7.953
 6972POPC   C4B27154  38.208  20.466   7.653
 6973POPC   NC327155  41.555  11.256   9.453
 6973POPC   PO427156  41.515  11.269   9.153
 6973POPC   GL127157  41.510  11.308   8.853
 6973POPC   GL227158  41.515  11.189   8.853
 6973POPC   C1A27159  41.561  11.272   8.553
 6973POPC   D2A27160  41.568  11.346   8.253
 6973POPC   C3A27161  41.528  11.299   7.953
 6973POPC   C4A27162  41.596  11.315   7.653
 6973POPC   C1B27163  41.453  11.063   8.553
 6973POPC   C2B27164  41.527  11.106   8.253
 6973POPC   C3B27165  41.468  11.071   7.953
 6973POPC   C4B27166  41.489  11.068   7.653
 6974POPC   NC327167  40.829  27.634   9.453
 6974POPC   PO427168  40.753  27.618   9.153
 6974POPC   GL127169  40.752  27.571   8.853
 6974POPC   GL227170  40.911  27.477   8.853
 6974POPC   C1A27171  40.752  27.556   8.553
 6974POPC   D2A27172  40.743  27.631   8.253
 6974POPC   C3A27173  40.808  27.610   7.953
 6974POPC   C4A27174  40.827  27.603   7.653
 6974POPC   C1B27175  40.964  27.408   8.553
 6974POPC   C2B27176  40.997  27.452   8.253
 6974POPC   C3B27177  40.997  27.404   7.953
 6974POPC   C4B27178  40.923  27.416   7.653
 6975POPC   NC327179  12.838  22.170   9.453
 6975POPC   PO427180  12.865  22.114   9.153
 6975POPC   GL127181  12.865  22.124   8.853
 6975POPC   GL227182  12.887  22.307   8.853
 6975POPC   C1A27183  12.892  22.192   8.553
 6975POPC   D2A27184  12.855  22.150   8.253
 6975POPC   C3A27185  12.876  22.123   7.953
 6975POPC   C4A27186  12.899  22.158   7.653
 6975POPC   C1B27187  12.983  22.393   8.553
 6975POPC   C2B27188  13.017  22.420   8.253
 6975POPC   C3B27189  12.995  22.392   7.953
 6975POPC   C4B27190  12.954  22.380   7.653
 6976POPC   NC327191  34.612  22.947   9.453
 6976POPC   PO427192  34.573  22.984   9.153
 6976POPC   GL127193  34.584  22.897   8.853
 6976POPC   GL227194  34.596  23.013   8.853
 6976POPC   C1A27195  34.552  22.973   8.553
 6976POPC   D2A27196  34.582  22.974   8.253
 6976POPC   C3A27197  34.625  22.910   7.953
 6976POPC   C4A27198  34.536  22.964   7.653
 6976POPC   C1B27199  34.638  23.185   8.553
 6976POPC   C2B27200  34.666  23.193   8.253
 6976POPC   C3B27201  34.682  23.177   7.953
 6976POPC   C4B27202  34.708  23.143   7.653
 6977POPC   NC327203  28.340   6.649   9.453
 6977POPC   PO427204  28.355   6.681   9.153
 6977POPC   GL127205  28.327   6.676   8.853
 6977POPC   GL227206  28.328   6.548   8.853
 6977POPC   C1A27207  28.407   6.660   8.553
 6977POPC   D2A27208  28.353   6.609   8.253
 6977POPC   C3A27209  28.345   6.631   7.953
 6977POPC   C4A27210  28.321   6.607   7.653
 6977POPC   C1B27211  28.186   6.476   8.553
 6977POPC   C2B27212  28.186   6.444   8.253
 6977POPC   C3B27213  28.250   6.474   7.953
 6977POPC   C4B27214  28.178   6.464   7.653
 6978POPC   NC327215  11.296   5.901   9.453
 6978POPC   PO427216  11.337   5.849   9.153
 6978POPC   GL127217  11.303   5.861   8.853
 6978POPC   GL227218  11.163   5.947   8.853
 6978POPC   C1A27219  11.328   5.916   8.553
 6978POPC   D2A27220  11.270   5.875   8.253
 6978POPC   C3A27221  11.335   5.861   7.953
 6978POPC   C4A27222  11.297   5.856   7.653
 6978POPC   C1B27223  11.075   5.988   8.553
 6978POPC   C2B27224  11.104   5.994   8.253
 6978POPC   C3B27225  11.126   6.022   7.953
 6978POPC   C4B27226  11.040   6.035   7.653
 6979POPC   NC327227  15.154  11.318   9.453
 6979POPC   PO427228  15.221  11.258   9.153
 6979POPC   GL127229  15.201  11.324   8.853
 6979POPC   GL227230  15.131  11.187   8.853
 6979POPC   C1A27231  15.223  11.323   8.553
 6979POPC   D2A27232  15.179  11.339   8.253
 6979POPC   C3A27233  15.165  11.318   7.953
 6979POPC   C4A27234  15.197  11.310   7.653
 6979POPC   C1B27235  15.077  11.048   8.553
 6979POPC   C2B27236  15.072  11.069   8.253
 6979POPC   C3B27237  15.021  11.080   7.953
 6979POPC   C4B27238  15.056  11.123   7.653
 6980POPC   NC327239  14.378  26.860   9.453
 6980POPC   PO427240  14.417  26.771   9.153
 6980POPC   GL127241  14.433  26.825   8.853
 6980POPC   GL227242  14.419  26.655   8.853
 6980POPC   C1A27243  14.438  26.861   8.553
 6980POPC   D2A27244  14.393  26.843   8.253
 6980POPC   C3A27245  14.425  26.808   7.953
 6980POPC   C4A27246  14.419  26.844   7.653
 6980POPC   C1B27247  14.336  26.552   8.553
 6980POPC   C2B27248  14.399  26.597   8.253
 6980POPC   C3B27249  14.317  26.589   7.953
 6980POPC   C4B27250  14.373  26.618   7.653
 6981POPC   NC327251  11.327  17.485   9.453
 6981POPC   PO427252  11.307  17.523   9.153
 6981POPC   GL127253  11.322  17.501   8.853
 6981POPC   GL227254  11.302  17.657   8.853
 6981POPC   C1A27255  11.325  17.532   8.553
 6981POPC   D2A27256  11.281  17.489   8.253
 6981POPC   C3A27257  11.347  17.551   7.953
 6981POPC   C4A27258  11.282  17.508   7.653
 6981POPC   C1B27259  11.281  17.763   8.553
 6981POPC   C2B27260  11.351  17.791   8.253
 6981POPC   C3B27261  11.373  17.725   7.953
 6981POPC   C4B27262  11.329  17.711   7.653
 6982POPC   NC327263  32.240  21.391   9.453
 6982POPC   PO427264  32.204  21.434   9.153
 6982POPC   GL127265  32.211  21.392   8.853
 6982POPC   GL227266  32.235  21.302   8.853
 6982POPC   C1A27267  32.284  21.412   8.553
 6982POPC   D2A27268  32.206  21.386   8.253
 6982POPC   C3A27269  32.267  21.412   7.953
 6982POPC   C4A27270  32.270  21.366   7.653
 6982POPC   C1B27271  32.263  21.099   8.553
 6982POPC   C2B27272  32.241  21.094   8.253
 6982POPC   C3B27273  32.269  21.173   7.953
 6982POPC   C4B27274  32.319  21.131   7.653
 6983POPC   NC327275   4.300  16.711   9.453
 6983POPC   PO427276   4.277  16.702   9.153
 6983POPC   GL127277   4.308  16.721   8.853
 6983POPC   GL227278   4.185  16.864   8.853
 6983POPC   C1A27279   4.272  16.710   8.553
 6983POPC   D2A27280   4.300  16.708   8.253
 6983POPC   C3A27281   4.326  16.753   7.953
 6983POPC   C4A27282   4.292  16.742   7.653
 6983POPC   C1B27283   4.110  16.935   8.553
 6983POPC   C2B27284   4.146  16.922   8.253
 6983POPC   C3B27285   4.108  16.911   7.953
 6983POPC   C4B27286   4.087  16.891   7.653
 6984POPC   NC327287  44.623  12.117   9.453
 6984POPC   PO427288  44.630  12.104   9.153
 6984POPC   GL127289  44.622  12.106   8.853
 6984POPC   GL227290  44.625  11.970   8.853
 6984POPC   C1A27291  44.668  12.049   8.553
 6984POPC   D2A27292  44.635  12.057   8.253
 6984POPC   C3A27293  44.649  12.081   7.953
 6984POPC   C4A27294  44.645  12.058   7.653
 6984POPC   C1B27295  44.543  11.809   8.553
 6984POPC   C2B27296  44.561  11.862   8.253
 6984POPC   C3B27297  44.577  11.888   7.953
 6984POPC   C4B27298  44.558  11.862   7.653
 6985POPC   NC327299  36.950   8.965   9.453
 6985POPC   PO427300  36.945   8.977   9.153
 6985POPC   GL127301  36.885   8.929   8.853
 6985POPC   GL227302  36.787   8.938   8.853
 6985POPC   C1A27303  36.893   8.946   8.553
 6985POPC   D2A27304  36.898   9.020   8.253
 6985POPC   C3A27305  36.902   9.002   7.953
 6985POPC   C4A27306  36.909   8.999   7.653
 6985POPC   C1B27307  36.744   8.861   8.553
 6985POPC   C2B27308  36.705   8.836   8.253
 6985POPC   C3B27309  36.740   8.833   7.953
 6985POPC   C4B27310  36.731   8.835   7.653
 6986POPC   NC327311   0.427  14.406   9.453
 6986POPC   PO427312   0.478  14.419   9.153
 6986POPC   GL127313   0.403  14.452   8.853
 6986POPC   GL227314   0.575  14.429   8.853
 6986POPC   C1A27315   0.428  14.384   8.553
 6986POPC   D2A27316   0.392  14.431   8.253
 6986POPC   C3A27317   0.416  14.370   7.953
 6986POPC   C4A27318   0.484  14.452   7.653
 6986POPC   C1B27319   0.713  14.397   8.553
 6986POPC   C2B27320   0.720  14.441   8.253
 6986POPC   C3B27321   0.654  14.444   7.953
 6986POPC   C4B27322   0.694  14.380   7.653
 6987POPC   NC327323  36.170  24.503   9.453
 6987POPC   PO427324  36.149  24.448   9.153
 6987POPC   GL127325  36.130  24.474   8.853
 6987POPC   GL227326  36.122  24.594   8.853
 6987POPC   C1A27327  36.103  24.499   8.553
 6987POPC   D2A27328  36.122  24.456   8.253
 6987POPC   C3A27329  36.104  24.527   7.953
 6987POPC   C4A27330  36.175  24.516   7.653
 6987POPC   C1B27331  36.146  24.713   8.553
 6987POPC   C2B27332  36.196  24.761   8.253
 6987POPC   C3B27333  36.157  24.684   7.953
 6987POPC   C4B27334  36.175  24.760   7.653
 6988POPC   NC327335  35.315  32.222   9.453
 6988POPC   PO427336  35.384  32.261   9.153
 6988POPC   GL127337  35.361  32.243   8.853
 6988POPC   GL227338  35.391  32.074   8.853
 6988POPC   C1A27339  35.371  32.243   8.553
 6988POPC   D2A27340  35.326  32.230   8.253
 6988POPC   C3A27341  35.351  32.205   7.953
 6988POPC   C4A27342  35.399  32.200   7.653
 6988POPC   C1B27343  35.358  32.003   8.553
 6988POPC   C2B27344  35.382  31.957   8.253
 6988POPC   C3B27345  35.315  32.004   7.953
 6988POPC   C4B27346  35.385  31.971   7.653
 6989POPC   NC327347   0.431   8.955   9.453
 6989POPC   PO427348   0.396   8.976   9.153
 6989POPC   GL127349   0.424   8.929   8.853
 6989POPC   GL227350   0.351   8.898   8.853
 6989POPC   C1A27351   0.421   8.997   8.553
 6989POPC   D2A27352   0.471   8.935   8.253
 6989POPC   C3A27353   0.423   8.925   7.953
 6989POPC   C4A27354   0.445   8.967   7.653
 6989POPC   C1B27355   0.327   8.763   8.553
 6989POPC   C2B27356   0.361   8.789   8.253
 6989POPC   C3B27357   0.329   8.785   7.953
 6989POPC   C4B27358   0.368   8.748   7.653
 6990POPC   NC327359  25.252  18.273   9.453
 6990POPC   PO427360  25.224  18.319   9.153
 6990POPC   GL127361  25.306  18.320   8.853
 6990POPC   GL227362  25.153  18.223   8.853
 6990POPC   C1A27363  25.227  18.267   8.553
 6990POPC   D2A27364  25.216  18.269   8.253
 6990POPC   C3A27365  25.304  18.296   7.953
 6990POPC   C4A27366  25.287  18.240   7.653
 6990POPC   C1B27367  25.049  18.131   8.553
 6990POPC   C2B27368  25.079  18.078   8.253
 6990POPC   C3B27369  25.085  18.168   7.953
 6990POPC   C4B27370  25.087  18.147   7.653
 6991POPC   NC327371  12.847  27.557   9.453
 6991POPC   PO427372  12.841  27.585   9.153
 6991POPC   GL127373  12.812  27.605   8.853
 6991POPC   GL227374  12.819  27.456   8.853
 6991POPC   C1A27375  12.886  27.631   8.553
 6991POPC   D2A27376  12.818  27.546   8.253
 6991POPC   C3A27377  12.863  27.634   7.953
 6991POPC   C4A27378  12.819  27.633   7.653
 6991POPC   C1B27379  12.805  27.371   8.553
 6991POPC   C2B27380  12.845  27.315   8.253
 6991POPC   C3B27381  12.766  27.392   7.953
 6991POPC   C4B27382  12.789  27.343   7.653
 6992POPC   NC327383  19.064  26.046   9.453
 6992POPC   PO427384  19.067  26.033   9.153
 6992POPC   GL127385  19.023  26.075   8.853
 6992POPC   GL227386  18.929  26.080   8.853
 6992POPC   C1A27387  19.099  26.075   8.553
 6992POPC   D2A27388  19.032  26.052   8.253
 6992POPC   C3A27389  19.069  26.088   7.953
 6992POPC   C4A27390  19.026  26.048   7.653
 6992POPC   C1B27391  18.793  26.079   8.553
 6992POPC   C2B27392  18.846  26.039   8.253
 6992POPC   C3B27393  18.764  26.112   7.953
 6992POPC   C4B27394  18.767  26.043   7.653
 6993POPC   NC327395  43.901  22.964   9.453
 6993POPC   PO427396  43.854  22.958   9.153
 6993POPC   GL127397  43.893  22.982   8.853
 6993POPC   GL227398  43.998  22.934   8.853
 6993POPC   C1A27399  43.881  22.960   8.553
 6993POPC   D2A27400  43.842  22.899   8.253
 6993POPC   C3A27401  43.934  22.937   7.953
 6993POPC   C4A27402  43.849  22.903   7.653
 6993POPC   C1B27403  44.118  22.884   8.553
 6993POPC   C2B27404  44.162  22.892   8.253
 6993POPC   C3B27405  44.173  22.854   7.953
 6993POPC   C4B27406  44.167  22.853   7.653
 6994POPC   NC327407  24.510  22.893   9.453
 6994POPC   PO427408  24.498  22.904   9.153
 6994POPC   GL127409  24.463  22.931   8.853
 6994POPC   GL227410  24.427  23.053   8.853
 6994POPC   C1A27411  24.533  22.952   8.553
 6994POPC   D2A27412  24.487  22.938   8.253
 6994POPC   C3A27413  24.472  22.916   7.953
 6994POPC   C4A27414  24.509  22.905   7.653
 6994POPC   C1B27415  24.433  23.183   8.553
 6994POPC   C2B27416  24.478  23.188   8.253
 6994POPC   C3B27417  24.401  23.176   7.953
 6994POPC   C4B27418  24.423  23.231   7.653
 6995POPC   NC327419  14.375   4.345   9.453
 6995POPC   PO427420  14.393   4.335   9.153
 6995POPC   GL127421  14.391   4.267   8.853
 6995POPC   GL227422  14.375   4.402   8.853
 6995POPC   C1A27423  14.386   4.350   8.553
 6995POPC   D2A27424  14.366   4.323   8.253
 6995POPC   C3A27425  14.437   4.365   7.953
 6995POPC   C4A27426  14.408   4.364   7.653
 6995POPC   C1B27427  14.333   4.545   8.553
 6995POPC   C2B27428  14.319   4.609   8.253
 6995POPC   C3B27429  14.322   4.528   7.953
 6995POPC   C4B27430  14.310   4.570   7.653
 6996POPC   NC327431  29.190  26.043   9.453
 6996POPC   PO427432  29.180  26.038   9.153
 6996POPC   GL127433  29.161  26.024   8.853
 6996POPC   GL227434  29.137  26.152   8.853
 6996POPC   C1A27435  29.193  26.024   8.553
 6996POPC   D2A27436  29.123  26.018   8.253
 6996POPC   C3A27437  29.174  26.036   7.953
 6996POPC   C4A27438  29.139  26.013   7.653
 6996POPC   C1B27439  29.119  26.293   8.553
 6996POPC   C2B27440  29.109  26.302   8.253
 6996POPC   C3B27441  29.121  26.293   7.953
 6996POPC   C4B27442  29.125  26.324   7.653
 6997POPC   NC327443  15.966  17.556   9.453
 6997POPC   PO427444  15.974  17.533   9.153
 6997POPC   GL127445  15.932  17.525   8.853
 6997POPC   GL227446  15.961  17.591   8.853
 6997POPC   C1A27447  15.984  17.528   8.553
 6997POPC   D2A27448  15.941  17.484   8.253
 6997POPC   C3A27449  15.963  17.532   7.953
 6997POPC   C4A27450  15.910  17.501   7.653
 6997POPC   C1B27451  16.014  17.800   8.553
 6997POPC   C2B27452  15.982  17.774   8.253
 6997POPC   C3B27453  15.988  17.735   7.953
 6997POPC   C4B27454  15.921  17.755   7.653
 6998POPC   NC327455  36.098  36.866   9.453
 6998POPC   PO427456  36.130  36.883   9.153
 6998POPC   GL127457  36.144  36.926   8.853
 6998POPC   GL227458  36.121  36.792   8.853
 6998POPC   C1A27459  36.125  36.866   8.553
 6998POPC   D2A27460  36.093  36.889   8.253
 6998POPC   C3A27461  36.129  36.873   7.953
 6998POPC   C4A27462  36.171  36.888   7.653
 6998POPC   C1B27463  36.078  36.634   8.553
 6998POPC   C2B27464  36.033  36.673   8.253
 6998POPC   C3B27465  36.018  36.628   7.953
 6998POPC   C4B27466  36.026  36.660   7.653
 6999POPC   NC327467  26.852  33.766   9.453
 6999POPC   PO427468  26.861  33.841   9.153
 6999POPC   GL127469  26.846  33.827   8.853
 6999POPC   GL227470  26.854  33.738   8.853
 6999POPC   C1A27471  26.859  33.830   8.553
 6999POPC   D2A27472  26.818  33.773   8.253
 6999POPC   C3A27473  26.773  33.794   7.953
 6999POPC   C4A27474  26.830  33.769   7.653
 6999POPC   C1B27475  26.936  33.623   8.553
 6999POPC   C2B27476  26.938  33.617   8.253
 6999POPC   C3B27477  26.951  33.645   7.953
 6999POPC   C4B27478  26.964  33.583   7.653
 7000POPC   NC327479   0.398  44.699   9.453
 7000POPC   PO427480   0.454  44.649   9.153
 7000POPC   GL127481   0.401  44.645   8.853
 7000POPC   GL227482   0.383  44.802   8.853
 7000POPC   C1A27483   0.427  44.615   8.553
 7000POPC   D2A27484   0.482  44.622   8.253
 7000POPC   C3A27485   0.449  44.660   7.953
 7000POPC   C4A27486   0.446  44.656   7.653
 7000POPC   C1B27487   0.454  44.959   8.553
 7000POPC   C2B27488   0.456  44.889   8.253
 7000POPC   C3B27489   0.386  44.928   7.953
 7000POPC   C4B27490   0.399  44.914   7.653
 7001POPC   NC327491  44.708   7.456   9.453
 7001POPC   PO427492  44.696   7.412   9.153
 7001POPC   GL127493  44.615   7.374   8.853
 7001POPC   GL227494  44.765   7.385   8.853
 7001POPC   C1A27495  44.639   7.401   8.553
 7001POPC   D2A27496  44.691   7.423   8.253
 7001POPC   C3A27497  44.651   7.462   7.953
 7001POPC   C4A27498  44.647   7.443   7.653
 7001POPC   C1B27499  44.944   7.371   8.553
 7001POPC   C2B27500  44.909   7.343   8.253
 7001POPC   C3B27501  44.859   7.357   7.953
 7001POPC   C4B27502  44.867   7.311   7.653
 7002POPC   NC327503  22.151  43.121   9.453
 7002POPC   PO427504  22.139  43.076   9.153
 7002POPC   GL127505  22.161  43.140   8.853
 7002POPC   GL227506  22.281  43.165   8.853
 7002POPC   C1A27507  22.180  43.158   8.553
 7002POPC   D2A27508  22.135  43.061   8.253
 7002POPC   C3A27509  22.156  43.133   7.953
 7002POPC   C4A27510  22.150  43.069   7.653
 7002POPC   C1B27511  22.383  43.286   8.553
 7002POPC   C2B27512  22.390  43.256   8.253
 7002POPC   C3B27513  22.380  43.249   7.953
 7002POPC   C4B27514  22.384  43.271   7.653
 7003POPC   NC327515  43.153  19.830   9.453
 7003POPC   PO427516  43.074  19.818   9.153
 7003POPC   GL127517  43.144  19.883   8.853
 7003POPC   GL227518  43.132  19.714   8.853
 7003POPC   C1A27519  43.075  19.843   8.553
 7003POPC   D2A27520  43.087  19.867   8.253
 7003POPC   C3A27521  43.121  19.788   7.953
 7003POPC   C4A27522  43.096  19.811   7.653
 7003POPC   C1B27523  43.089  19.547   8.553
 7003POPC   C2B27524  43.050  19.590   8.253
 7003POPC   C3B27525  43.079  19.543   7.953
 7003POPC   C4B27526  43.042  19.566   7.653
 7004POPC   NC327527  37.714  28.354   9.453
 7004POPC   PO427528  37.674  28.346   9.153
 7004POPC   GL127529  37.654  28.414   8.853
 7004POPC   GL227530  37.614  28.331   8.853
 7004POPC   C1A27531  37.701  28.340   8.553
 7004POPC   D2A27532  37.692  28.405   8.253
 7004POPC   C3A27533  37.660  28.407   7.953
 7004POPC   C4A27534  37.652  28.386   7.653
 7004POPC   C1B27535  37.470  28.279   8.553
 7004POPC   C2B27536  37.414  28.233   8.253
 7004POPC   C3B27537  37.501  28.265   7.953
 7004POPC   C4B27538  37.431  28.213   7.653
 7005POPC   NC327539  13.584  12.067   9.453
 7005POPC   PO427540  13.582  12.062   9.153
 7005POPC   GL127541  13.606  12.098   8.853
 7005POPC   GL227542  13.628  12.170   8.853
 7005POPC   C1A27543  13.635  12.079   8.553
 7005POPC   D2A27544  13.597  12.108   8.253
 7005POPC   C3A27545  13.652  12.043   7.953
 7005POPC   C4A27546  13.578  12.108   7.653
 7005POPC   C1B27547  13.494  12.268   8.553
 7005POPC   C2B27548  13.542  12.304   8.253
 7005POPC   C3B27549  13.494  12.336   7.953
 7005POPC   C4B27550  13.576  12.316   7.653
 7006POPC   NC327551  41.536  29.895   9.453
 7006POPC   PO427552  41.597  29.899   9.153
 7006POPC   GL127553  41.555  29.882   8.853
 7006POPC   GL227554  41.698  29.800   8.853
 7006POPC   C1A27555  41.587  29.901   8.553
 7006POPC   D2A27556  41.582  29.918   8.253
 7006POPC   C3A27557  41.563  29.952   7.953
 7006POPC   C4A27558  41.566  29.934   7.653
 7006POPC   C1B27559  41.763  29.720   8.553
 7006POPC   C2B27560  41.757  29.721   8.253
 7006POPC   C3B27561  41.715  29.743   7.953
 7006POPC   C4B27562  41.748  29.752   7.653
 7007POPC   NC327563   3.584   7.419   9.453
 7007POPC   PO427564   3.573   7.437   9.153
 7007POPC   GL127565   3.511   7.415   8.853
 7007POPC   GL227566   3.596   7.517   8.853
 7007POPC   C1A27567   3.549   7.432   8.553
 7007POPC   D2A27568   3.565   7.388   8.253
 7007POPC   C3A27569   3.495   7.448   7.953
 7007POPC   C4A27570   3.557   7.442   7.653
 7007POPC   C1B27571   3.568   7.647   8.553
 7007POPC   C2B27572   3.584   7.667   8.253
 7007POPC   C3B27573   3.544   7.699   7.953
 7007POPC   C4B27574   3.588   7.674   7.653
 7008POPC   NC327575   1.197  15.134   9.453
 7008POPC   PO427576   1.187  15.148   9.153
 7008POPC   GL127577   1.218  15.149   8.853
 7008POPC   GL227578   1.145  15.267   8.853
 7008POPC   C1A27579   1.231  15.210   8.553
 7008POPC   D2A27580   1.200  15.179   8.253
 7008POPC   C3A27581   1.242  15.218   7.953
 7008POPC   C4A27582   1.224  15.194   7.653
 7008POPC   C1B27583   1.103  15.357   8.553
 7008POPC   C2B27584   1.112  15.342   8.253
 7008POPC   C3B27585   1.122  15.346   7.953
 7008POPC   C4B27586   1.095  15.429   7.653
 7009POPC   NC327587   1.940   7.422   9.453
 7009POPC   PO427588   2.008   7.427   9.153
 7009POPC   GL127589   2.013   7.379   8.853
 7009POPC   GL227590   1.893   7.474   8.853
 7009POPC   C1A27591   2.025   7.386   8.553
 7009POPC   D2A27592   2.039   7.403   8.253
 7009POPC   C3A27593   1.960   7.413   7.953
 7009POPC   C4A27594   2.028   7.431   7.653
 7009POPC   C1B27595   1.790   7.431   8.553
 7009POPC   C2B27596   1.775   7.424   8.253
 7009POPC   C3B27597   1.789   7.432   7.953
 7009POPC   C4B27598   1.693   7.431   7.653
 7010POPC   NC327599   4.291   6.608   9.453
 7010POPC   PO427600   4.294   6.608   9.153
 7010POPC   GL127601   4.316   6.646   8.853
 7010POPC   GL227602   4.354   6.560   8.853
 7010POPC   C1A27603   4.361   6.612   8.553
 7010POPC   D2A27604   4.348   6.637   8.253
 7010POPC   C3A27605   4.311   6.647   7.953
 7010POPC   C4A27606   4.297   6.612   7.653
 7010POPC   C1B27607   4.410   6.470   8.553
 7010POPC   C2B27608   4.443   6.409   8.253
 7010POPC   C3B27609   4.390   6.473   7.953
 7010POPC   C4B27610   4.398   6.427   7.653
 7011POPC   NC327611  43.934  36.140   9.453
 7011POPC   PO427612  43.874  36.171   9.153
 7011POPC   GL127613  43.848  36.121   8.853
 7011POPC   GL227614  43.816  36.011   8.853
 7011POPC   C1A27615  43.933  36.164   8.553
 7011POPC   D2A27616  43.915  36.113   8.253
 7011POPC   C3A27617  43.923  36.137   7.953
 7011POPC   C4A27618  43.933  36.124   7.653
 7011POPC   C1B27619  43.662  35.989   8.553
 7011POPC   C2B27620  43.656  35.989   8.253
 7011POPC   C3B27621  43.724  35.951   7.953
 7011POPC   C4B27622  43.718  35.919   7.653
 7012POPC   NC327623  29.876  43.849   9.453
 7012POPC   PO427624  29.919  43.883   9.153
 7012POPC   GL127625  29.939  43.858   8.853
 7012POPC   GL227626  29.757  43.919   8.853
 7012POPC   C1A27627  29.892  43.868   8.553
 7012POPC   D2A27628  29.943  43.843   8.253
 7012POPC   C3A27629  29.957  43.909   7.953
 7012POPC   C4A27630  29.880  43.853   7.653
 7012POPC   C1B27631  29.680  43.914   8.553
 7012POPC   C2B27632  29.648  43.987   8.253
 7012POPC   C3B27633  29.690  43.943   7.953
 7012POPC   C4B27634  29.660  44.002   7.653
 7013POPC   NC327635  26.788  15.157   9.453
 7013POPC   PO427636  26.776  15.135   9.153
 7013POPC   GL127637  26.791  15.177   8.853
 7013POPC   GL227638  26.926  15.061   8.853
 7013POPC   C1A27639  26.776  15.189   8.553
 7013POPC   D2A27640  26.863  15.138   8.253
 7013POPC   C3A27641  26.770  15.139   7.953
 7013POPC   C4A27642  26.825  15.184   7.653
 7013POPC   C1B27643  26.941  15.004   8.553
 7013POPC   C2B27644  26.928  14.975   8.253
 7013POPC   C3B27645  27.009  15.002   7.953
 7013POPC   C4B27646  26.996  14.950   7.653
 7014POPC   NC327647  37.703  43.885   9.453
 7014POPC   PO427648  37.691  43.934   9.153
 7014POPC   GL127649  37.692  43.905   8.853
 7014POPC   GL227650  37.727  43.737   8.853
 7014POPC   C1A27651  37.710  43.906   8.553
 7014POPC   D2A27652  37.682  43.894   8.253
 7014POPC   C3A27653  37.663  43.891   7.953
 7014POPC   C4A27654  37.706  43.934   7.653
 7014POPC   C1B27655  37.854  43.723   8.553
 7014POPC   C2B27656  37.832  43.707   8.253
 7014POPC   C3B27657  37.849  43.700   7.953
 7014POPC   C4B27658  37.773  43.636   7.653
 7015POPC   NC327659  36.920  31.518   9.453
 7015POPC   PO427660  36.914  31.508   9.153
 7015POPC   GL127661  36.867  31.498   8.853
 7015POPC   GL227662  36.947  31.330   8.853
 7015POPC   C1A27663  36.896  31.454   8.553
 7015POPC   D2A27664  36.891  31.488   8.253
 7015POPC   C3A27665  36.883  31.455   7.953
 7015POPC   C4A27666  36.911  31.436   7.653
 7015POPC   C1B27667  37.007  31.269   8.553
 7015POPC   C2B27668  36.942  31.275   8.253
 7015POPC   C3B27669  36.969  31.270   7.953
 7015POPC   C4B27670  36.976  31.253   7.653
 7016POPC   NC327671  18.273  35.343   9.453
 7016POPC   PO427672  18.294  35.318   9.153
 7016POPC   GL127673  18.290  35.308   8.853
 7016POPC   GL227674  18.423  35.385   8.853
 7016POPC   C1A27675  18.241  35.380   8.553
 7016POPC   D2A27676  18.312  35.360   8.253
 7016POPC   C3A27677  18.241  35.348   7.953
 7016POPC   C4A27678  18.257  35.382   7.653
 7016POPC   C1B27679  18.512  35.477   8.553
 7016POPC   C2B27680  18.503  35.527   8.253
 7016POPC   C3B27681  18.443  35.495   7.953
 7016POPC   C4B27682  18.517  35.480   7.653
 7017POPC   NC327683  30.706  22.986   9.453
 7017POPC   PO427684  30.684  22.896   9.153
 7017POPC   GL127685  30.677  22.935   8.853
 7017POPC   GL227686  30.559  23.016   8.853
 7017POPC   C1A27687  30.688  22.925   8.553
 7017POPC   D2A27688  30.650  22.981   8.253
 7017POPC   C3A27689  30.678  22.980   7.953
 7017POPC   C4A27690  30.698  22.944   7.653
 7017POPC   C1B27691  30.502  23.049   8.553
 7017POPC   C2B27692  30.539  23.124   8.253
 7017POPC   C3B27693  30.537  23.053   7.953
 7017POPC   C4B27694  30.523  23.054   7.653
 7018POPC   NC327695  12.081   3.541   9.453
 7018POPC   PO427696  12.113   3.516   9.153
 7018POPC   GL127697  12.028   3.522   8.853
 7018POPC   GL227698  11.978   3.550   8.853
 7018POPC   C1A27699  12.062   3.567   8.553
 7018POPC   D2A27700  12.028   3.504   8.253
 7018POPC   C3A27701  12.068   3.575   7.953
 7018POPC   C4A27702  12.032   3.554   7.653
 7018POPC   C1B27703  11.845   3.596   8.553
 7018POPC   C2B27704  11.779   3.567   8.253
 7018POPC   C3B27705  11.868   3.586   7.953
 7018POPC   C4B27706  11.869   3.602   7.653
 7019POPC   NC327707  43.155   1.231   9.453
 7019POPC   PO427708  43.135   1.213   9.153
 7019POPC   GL127709  43.080   1.174   8.853
 7019POPC   GL227710  43.183   1.136   8.853
 7019POPC   C1A27711  43.153   1.247   8.553
 7019POPC   D2A27712  43.158   1.195   8.253
 7019POPC   C3A27713  43.096   1.195   7.953
 7019POPC   C4A27714  43.123   1.263   7.653
 7019POPC   C1B27715  43.258   1.002   8.553
 7019POPC   C2B27716  43.253   1.013   8.253
 7019POPC   C3B27717  43.348   1.012   7.953
 7019POPC   C4B27718  43.258   1.005   7.653
 7020POPC   NC327719  19.068  42.304   9.453
 7020POPC   PO427720  19.083  42.321   9.153
 7020POPC   GL127721  19.096  42.339   8.853
 7020POPC   GL227722  19.043  42.437   8.853
 7020POPC   C1A27723  19.040  42.356   8.553
 7020POPC   D2A27724  19.105  42.381   8.253
 7020POPC   C3A27725  19.021  42.320   7.953
 7020POPC   C4A27726  19.017  42.304   7.653
 7020POPC   C1B27727  19.054  42.571   8.553
 7020POPC   C2B27728  19.040  42.613   8.253
 7020POPC   C3B27729  19.039  42.575   7.953
 7020POPC   C4B27730  19.040  42.611   7.653
 7021POPC   NC327731  27.609  42.317   9.453
 7021POPC   PO427732  27.556  42.285   9.153
 7021POPC   GL127733  27.638  42.304   8.853
 7021POPC   GL227734  27.483  42.221   8.853
 7021POPC   C1A27735  27.548  42.377   8.553
 7021POPC   D2A27736  27.596  42.328   8.253
 7021POPC   C3A27737  27.634  42.305   7.953
 7021POPC   C4A27738  27.637  42.382   7.653
 7021POPC   C1B27739  27.419  42.189   8.553
 7021POPC   C2B27740  27.351  42.196   8.253
 7021POPC   C3B27741  27.380  42.187   7.953
 7021POPC   C4B27742  27.338  42.180   7.653
 7022POPC   NC327743  32.991  17.521   9.453
 7022POPC   PO427744  33.045  17.479   9.153
 7022POPC   GL127745  33.044  17.459   8.853
 7022POPC   GL227746  33.175  17.487   8.853
 7022POPC   C1A27747  33.069  17.471   8.553
 7022POPC   D2A27748  32.974  17.534   8.253
 7022POPC   C3A27749  33.048  17.518   7.953
 7022POPC   C4A27750  32.999  17.510   7.653
 7022POPC   C1B27751  33.270  17.523   8.553
 7022POPC   C2B27752  33.250  17.553   8.253
 7022POPC   C3B27753  33.289  17.527   7.953
 7022POPC   C4B27754  33.272  17.510   7.653
 7023POPC   NC327755  23.695  22.948   9.453
 7023POPC   PO427756  23.681  22.943   9.153
 7023POPC   GL127757  23.722  22.909   8.853
 7023POPC   GL227758  23.635  22.974   8.853
 7023POPC   C1A27759  23.742  22.980   8.553
 7023POPC   D2A27760  23.672  22.931   8.253
 7023POPC   C3A27761  23.745  22.928   7.953
 7023POPC   C4A27762  23.717  22.981   7.653
 7023POPC   C1B27763  23.499  22.946   8.553
 7023POPC   C2B27764  23.425  22.968   8.253
 7023POPC   C3B27765  23.491  22.954   7.953
 7023POPC   C4B27766  23.422  22.980   7.653
 7024POPC   NC327767   2.763  10.501   9.453
 7024POPC   PO427768   2.745  10.516   9.153
 7024POPC   GL127769   2.728  10.481   8.853
 7024POPC   GL227770   2.899  10.604   8.853
 7024POPC   C1A27771   2.746  10.508   8.553
 7024POPC   D2A27772   2.721  10.485   8.253
 7024POPC   C3A27773   2.815  10.513   7.953
 7024POPC   C4A27774   2.801  10.510   7.653
 7024POPC   C1B27775   2.970  10.664   8.553
 7024POPC   C2B27776   2.938  10.654   8.253
 7024POPC   C3B27777   3.023  10.681   7.953
 7024POPC   C4B27778   3.032  10.653   7.653
 7025POPC   NC327779  19.799  39.986   9.453
 7025POPC   PO427780  19.871  40.025   9.153
 7025POPC   GL127781  19.807  40.026   8.853
 7025POPC   GL227782  19.926  40.091   8.853
 7025POPC   C1A27783  19.841  39.959   8.553
 7025POPC   D2A27784  19.879  39.964   8.253
 7025POPC   C3A27785  19.853  39.973   7.953
 7025POPC   C4A27786  19.828  39.973   7.653
 7025POPC   C1B27787  19.881  40.214   8.553
 7025POPC   C2B27788  19.939  40.193   8.253
 7025POPC   C3B27789  19.932  40.239   7.953
 7025POPC   C4B27790  19.961  40.281   7.653
 7026POPC   NC327791  14.410  36.176   9.453
 7026POPC   PO427792  14.417  36.131   9.153
 7026POPC   GL127793  14.381  36.121   8.853
 7026POPC   GL227794  14.492  36.083   8.853
 7026POPC   C1A27795  14.386  36.094   8.553
 7026POPC   D2A27796  14.364  36.126   8.253
 7026POPC   C3A27797  14.453  36.141   7.953
 7026POPC   C4A27798  14.431  36.138   7.653
 7026POPC   C1B27799  14.626  35.994   8.553
 7026POPC   C2B27800  14.632  36.005   8.253
 7026POPC   C3B27801  14.627  36.057   7.953
 7026POPC   C4B27802  14.675  36.026   7.653
 7027POPC   NC327803   8.242  22.206   9.453
 7027POPC   PO427804   8.174  22.117   9.153
 7027POPC   GL127805   8.176  22.120   8.853
 7027POPC   GL227806   8.327  22.259   8.853
 7027POPC   C1A27807   8.231  22.119   8.553
 7027POPC   D2A27808   8.222  22.137   8.253
 7027POPC   C3A27809   8.200  22.125   7.953
 7027POPC   C4A27810   8.227  22.149   7.653
 7027POPC   C1B27811   8.384  22.306   8.553
 7027POPC   C2B27812   8.341  22.350   8.253
 7027POPC   C3B27813   8.350  22.355   7.953
 7027POPC   C4B27814   8.354  22.386   7.653
 7028POPC   NC327815  16.724  24.468   9.453
 7028POPC   PO427816  16.728  24.468   9.153
 7028POPC   GL127817  16.753  24.472   8.853
 7028POPC   GL227818  16.805  24.572   8.853
 7028POPC   C1A27819  16.717  24.491   8.553
 7028POPC   D2A27820  16.764  24.506   8.253
 7028POPC   C3A27821  16.774  24.515   7.953
 7028POPC   C4A27822  16.683  24.486   7.653
 7028POPC   C1B27823  16.780  24.751   8.553
 7028POPC   C2B27824  16.821  24.684   8.253
 7028POPC   C3B27825  16.837  24.767   7.953
 7028POPC   C4B27826  16.833  24.716   7.653
 7029POPC   NC327827   0.477   0.437   9.453
 7029POPC   PO427828   0.400   0.448   9.153
 7029POPC   GL127829   0.422   0.476   8.853
 7029POPC   GL227830   0.532   0.437   8.853
 7029POPC   C1A27831   0.434   0.420   8.553
 7029POPC   D2A27832   0.410   0.468   8.253
 7029POPC   C3A27833   0.441   0.457   7.953
 7029POPC   C4A27834   0.473   0.408   7.653
 7029POPC   C1B27835   0.704   0.417   8.553
 7029POPC   C2B27836   0.734   0.486   8.253
 7029POPC   C3B27837   0.641   0.409   7.953
 7029POPC   C4B27838   0.681   0.408   7.653
 7030POPC   NC327839  16.739  33.784   9.453
 7030POPC   PO427840  16.707  33.838   9.153
 7030POPC   GL127841  16.766  33.796   8.853
 7030POPC   GL227842  16.798  33.779   8.853
 7030POPC   C1A27843  16.773  33.762   8.553
 7030POPC   D2A27844  16.734  33.762   8.253
 7030POPC   C3A27845  16.713  33.840   7.953
 7030POPC   C4A27846  16.708  33.847   7.653
 7030POPC   C1B27847  16.974  33.714   8.553
 7030POPC   C2B27848  16.972  33.668   8.253
 7030POPC   C3B27849  16.911  33.646   7.953
 7030POPC   C4B27850  16.914  33.674   7.653
 7031POPC   NC327851  17.534   6.604   9.453
 7031POPC   PO427852  17.477   6.657   9.153
 7031POPC   GL127853  17.462   6.650   8.853
 7031POPC   GL227854  17.609   6.579   8.853
 7031POPC   C1A27855  17.497   6.649   8.553
 7031POPC   D2A27856  17.477   6.656   8.253
 7031POPC   C3A27857  17.477   6.691   7.953
 7031POPC   C4A27858  17.508   6.634   7.653
 7031POPC   C1B27859  17.582   6.416   8.553
 7031POPC   C2B27860  17.596   6.430   8.253
 7031POPC   C3B27861  17.562   6.438   7.953
 7031POPC   C4B27862  17.623   6.447   7.653
 7032POPC   NC327863  35.344  36.110   9.453
 7032POPC   PO427864  35.362  36.129   9.153
 7032POPC   GL127865  35.316  36.158   8.853
 7032POPC   GL227866  35.286  36.226   8.853
 7032POPC   C1A27867  35.312  36.095   8.553
 7032POPC   D2A27868  35.317  36.159   8.253
 7032POPC   C3A27869  35.368  36.171   7.953
 7032POPC   C4A27870  35.351  36.135   7.653
 7032POPC   C1B27871  35.283  36.312   8.553
 7032POPC   C2B27872  35.216  36.331   8.253
 7032POPC   C3B27873  35.203  36.373   7.953
 7032POPC   C4B27874  35.234  36.377   7.653
 7033POPC   NC327875  17.513  35.361   9.453
 7033POPC   PO427876  17.460  35.335   9.153
 7033POPC   GL127877  17.461  35.355   8.853
 7033POPC   GL227878  17.583  35.439   8.853
 7033POPC   C1A27879  17.470  35.353   8.553
 7033POPC   D2A27880  17.509  35.305   8.253
 7033POPC   C3A27881  17.546  35.339   7.953
 7033POPC   C4A27882  17.478  35.327   7.653
 7033POPC   C1B27883  17.653  35.535   8.553
 7033POPC   C2B27884  17.620  35.567   8.253
 7033POPC   C3B27885  17.663  35.572   7.953
 7033POPC   C4B27886  17.685  35.560   7.653
 7034POPC   NC327887  33.787  38.407   9.453
 7034POPC   PO427888  33.797  38.469   9.153
 7034POPC   GL127889  33.833  38.496   8.853
 7034POPC   GL227890  33.776  38.615   8.853
 7034POPC   C1A27891  33.791  38.410   8.553
 7034POPC   D2A27892  33.772  38.458   8.253
 7034POPC   C3A27893  33.801  38.448   7.953
 7034POPC   C4A27894  33.820  38.452   7.653
 7034POPC   C1B27895  33.836  38.714   8.553
 7034POPC   C2B27896  33.800  38.733   8.253
 7034POPC   C3B27897  33.877  38.735   7.953
 7034POPC   C4B27898  33.853  38.678   7.653
 7035POPC   NC327899  36.114  18.332   9.453
 7035POPC   PO427900  36.121  18.320   9.153
 7035POPC   GL127901  36.133  18.274   8.853
 7035POPC   GL227902  35.981  18.275   8.853
 7035POPC   C1A27903  36.124  18.289   8.553
 7035POPC   D2A27904  36.144  18.276   8.253
 7035POPC   C3A27905  36.099  18.304   7.953
 7035POPC   C4A27906  36.138  18.316   7.653
 7035POPC   C1B27907  35.872  18.313   8.553
 7035POPC   C2B27908  35.912  18.271   8.253
 7035POPC   C3B27909  35.903  18.293   7.953
 7035POPC   C4B27910  35.854  18.339   7.653
 7036POPC   NC327911  11.295   8.245   9.453
 7036POPC   PO427912  11.340   8.230   9.153
 7036POPC   GL127913  11.317   8.203   8.853
 7036POPC   GL227914  11.194   8.220   8.853
 7036POPC   C1A27915  11.270   8.176   8.553
 7036POPC   D2A27916  11.311   8.205   8.253
 7036POPC   C3A27917  11.288   8.197   7.953
 7036POPC   C4A27918  11.332   8.174   7.653
 7036POPC   C1B27919  11.064   8.212   8.553
 7036POPC   C2B27920  11.091   8.213   8.253
 7036POPC   C3B27921  11.069   8.186   7.953
 7036POPC   C4B27922  11.087   8.180   7.653
 7037POPC   NC327923  42.381   8.930   9.453
 7037POPC   PO427924  42.308   8.961   9.153
 7037POPC   GL127925  42.377   8.958   8.853
 7037POPC   GL227926  42.175   8.978   8.853
 7037POPC   C1A27927  42.365   8.970   8.553
 7037POPC   D2A27928  42.323   8.953   8.253
 7037POPC   C3A27929  42.318   9.017   7.953
 7037POPC   C4A27930  42.328   8.942   7.653
 7037POPC   C1B27931  42.080   8.933   8.553
 7037POPC   C2B27932  42.137   8.936   8.253
 7037POPC   C3B27933  42.058   8.944   7.953
 7037POPC   C4B27934  42.120   8.910   7.653
 7038POPC   NC327935  34.612  39.222   9.453
 7038POPC   PO427936  34.600  39.200   9.153
 7038POPC   GL127937  34.552  39.205   8.853
 7038POPC   GL227938  34.468  39.294   8.853
 7038POPC   C1A27939  34.551  39.212   8.553
 7038POPC   D2A27940  34.549  39.195   8.253
 7038POPC   C3A27941  34.535  39.277   7.953
 7038POPC   C4A27942  34.589  39.280   7.653
 7038POPC   C1B27943  34.330  39.242   8.553
 7038POPC   C2B27944  34.320  39.301   8.253
 7038POPC   C3B27945  34.365  39.252   7.953
 7038POPC   C4B27946  34.321  39.303   7.653
 7039POPC   NC327947   9.701  22.127   9.453
 7039POPC   PO427948   9.796  22.183   9.153
 7039POPC   GL127949   9.740  22.158   8.853
 7039POPC   GL227950   9.659  22.229   8.853
 7039POPC   C1A27951   9.782  22.162   8.553
 7039POPC   D2A27952   9.724  22.140   8.253
 7039POPC   C3A27953   9.789  22.155   7.953
 7039POPC   C4A27954   9.776  22.114   7.653
 7039POPC   C1B27955   9.500  22.292   8.553
 7039POPC   C2B27956   9.511  22.213   8.253
 7039POPC   C3B27957   9.551  22.261   7.953
 7039POPC   C4B27958   9.479  22.228   7.653
 7040POPC   NC327959   7.455  12.057   9.453
 7040POPC   PO427960   7.465  12.054   9.153
 7040POPC   GL127961   7.458  12.056   8.853
 7040POPC   GL227962   7.319  12.165   8.853
 7040POPC   C1A27963   7.461  12.125   8.553
 7040POPC   D2A27964   7.419  12.073   8.253
 7040POPC   C3A27965   7.464  12.041   7.953
 7040POPC   C4A27966   7.433  12.098   7.653
 7040POPC   C1B27967   7.232  12.194   8.553
 7040POPC   C2B27968   7.228  12.204   8.253
 7040POPC   C3B27969   7.217  12.227   7.953
 7040POPC   C4B27970   7.234  12.269   7.653
 7041POPC   NC327971   0.450  11.296   9.453
 7041POPC   PO427972   0.423  11.301   9.153
 7041POPC   GL127973   0.473  11.334   8.853
 7041POPC   GL227974   0.501  11.412   8.853
 7041POPC   C1A27975   0.464  11.330   8.553
 7041POPC   D2A27976   0.483  11.308   8.253
 7041POPC   C3A27977   0.478  11.338   7.953
 7041POPC   C4A27978   0.458  11.329   7.653
 7041POPC   C1B27979   0.545  11.548   8.553
 7041POPC   C2B27980   0.529  11.584   8.253
 7041POPC   C3B27981   0.509  11.505   7.953
 7041POPC   C4B27982   0.511  11.496   7.653
 7042POPC   NC327983   7.413  17.503   9.453
 7042POPC   PO427984   7.382  17.531   9.153
 7042POPC   GL127985   7.401  17.482   8.853
 7042POPC   GL227986   7.455  17.623   8.853
 7042POPC   C1A27987   7.463  17.491   8.553
 7042POPC   D2A27988   7.388  17.473   8.253
 7042POPC   C3A27989   7.409  17.533   7.953
 7042POPC   C4A27990   7.399  17.521   7.653
 7042POPC   C1B27991   7.427  17.804   8.553
 7042POPC   C2B27992   7.374  17.744   8.253
 7042POPC   C3B27993   7.372  17.795   7.953
 7042POPC   C4B27994   7.364  17.772   7.653
 7043POPC   NC327995  37.633   8.228   9.453
 7043POPC   PO427996  37.635   8.169   9.153
 7043POPC   GL127997  37.696   8.172   8.853
 7043POPC   GL227998  37.620   8.368   8.853
 7043POPC   C1A27999  37.705   8.164   8.553
 7043POPC   D2A28000  37.721   8.209   8.253
 7043POPC   C3A28001  37.701   8.230   7.953
 7043POPC   C4A28002  37.698   8.195   7.653
 7043POPC   C1B28003  37.591   8.488   8.553
 7043POPC   C2B28004  37.670   8.439   8.253
 7043POPC   C3B28005  37.642   8.410   7.953
 7043POPC   C4B28006  37.667   8.432   7.653
 7044POPC   NC328007  33.786  34.572   9.453
 7044POPC   PO428008  33.764  34.600   9.153
 7044POPC   GL128009  33.808  34.586   8.853
 7044POPC   GL228010  33.753  34.679   8.853
 7044POPC   C1A28011  33.781  34.578   8.553
 7044POPC   D2A28012  33.830  34.538   8.253
 7044POPC   C3A28013  33.816  34.586   7.953
 7044POPC   C4A28014  33.847  34.617   7.653
 7044POPC   C1B28015  33.645  34.823   8.553
 7044POPC   C2B28016  33.734  34.835   8.253
 7044POPC   C3B28017  33.679  34.796   7.953
 7044POPC   C4B28018  33.712  34.830   7.653
 7045POPC   NC328019  44.614   1.963   9.453
 7045POPC   PO428020  44.673   2.033   9.153
 7045POPC   GL128021  44.696   1.961   8.853
 7045POPC   GL228022  44.699   2.122   8.853
 7045POPC   C1A28023  44.632   1.990   8.553
 7045POPC   D2A28024  44.697   2.008   8.253
 7045POPC   C3A28025  44.709   1.968   7.953
 7045POPC   C4A28026  44.627   1.995   7.653
 7045POPC   C1B28027  44.756   2.239   8.553
 7045POPC   C2B28028  44.697   2.210   8.253
 7045POPC   C3B28029  44.730   2.208   7.953
 7045POPC   C4B28030  44.684   2.225   7.653
 7046POPC   NC328031  27.627   4.352   9.453
 7046POPC   PO428032  27.605   4.270   9.153
 7046POPC   GL128033  27.594   4.295   8.853
 7046POPC   GL228034  27.685   4.272   8.853
 7046POPC   C1A28035  27.601   4.326   8.553
 7046POPC   D2A28036  27.545   4.331   8.253
 7046POPC   C3A28037  27.601   4.298   7.953
 7046POPC   C4A28038  27.628   4.343   7.653
 7046POPC   C1B28039  27.836   4.223   8.553
 7046POPC   C2B28040  27.770   4.172   8.253
 7046POPC   C3B28041  27.833   4.209   7.953
 7046POPC   C4B28042  27.827   4.226   7.653
 7047POPC   NC328043   8.954  27.593   9.453
 7047POPC   PO428044   8.979  27.570   9.153
 7047POPC   GL128045   9.000  27.586   8.853
 7047POPC   GL228046   8.946  27.511   8.853
 7047POPC   C1A28047   8.991  27.608   8.553
 7047POPC   D2A28048   8.963  27.559   8.253
 7047POPC   C3A28049   8.928  27.642   7.953
 7047POPC   C4A28050   8.995  27.621   7.653
 7047POPC   C1B28051   8.850  27.351   8.553
 7047POPC   C2B28052   8.873  27.318   8.253
 7047POPC   C3B28053   8.874  27.359   7.953
 7047POPC   C4B28054   8.841  27.364   7.653
 7048POPC   NC328055  11.302  36.132   9.453
 7048POPC   PO428056  11.266  36.112   9.153
 7048POPC   GL128057  11.269  36.087   8.853
 7048POPC   GL228058  11.320  36.284   8.853
 7048POPC   C1A28059  11.327  36.175   8.553
 7048POPC   D2A28060  11.330  36.175   8.253
 7048POPC   C3A28061  11.302  36.146   7.953
 7048POPC   C4A28062  11.313  36.111   7.653
 7048POPC   C1B28063  11.423  36.346   8.553
 7048POPC   C2B28064  11.365  36.323   8.253
 7048POPC   C3B28065  11.461  36.389   7.953
 7048POPC   C4B28066  11.403  36.380   7.653
 7049POPC   NC328067   0.476  26.816   9.453
 7049POPC   PO428068   0.396  26.797   9.153
 7049POPC   GL128069   0.409  26.790   8.853
 7049POPC   GL228070   0.428  26.964   8.853
 7049POPC   C1A28071   0.427  26.835   8.553
 7049POPC   D2A28072   0.412  26.821   8.253
 7049POPC   C3A28073   0.471  26.770   7.953
 7049POPC   C4A28074   0.404  26.791   7.653
 7049POPC   C1B28075   0.415  27.089   8.553
 7049POPC   C2B28076   0.377  27.088   8.253
 7049POPC   C3B28077   0.344  27.064   7.953
 7049POPC   C4B28078   0.409  27.027   7.653
 7050POPC   NC328079  27.544  32.271   9.453
 7050POPC   PO428080  27.620  32.265   9.153
 7050POPC   GL128081  27.623  32.292   8.853
 7050POPC   GL228082  27.437  32.272   8.853
 7050POPC   C1A28083  27.631  32.231   8.553
 7050POPC   D2A28084  27.640  32.210   8.253
 7050POPC   C3A28085  27.588  32.276   7.953
 7050POPC   C4A28086  27.606  32.239   7.653
 7050POPC   C1B28087  27.354  32.255   8.553
 7050POPC   C2B28088  27.390  32.280   8.253
 7050POPC   C3B28089  27.303  32.235   7.953
 7050POPC   C4B28090  27.383  32.314   7.653
 7051POPC   NC328091   8.214  28.413   9.453
 7051POPC   PO428092   8.186  28.394   9.153
 7051POPC   GL128093   8.172  28.414   8.853
 7051POPC   GL228094   8.226  28.249   8.853
 7051POPC   C1A28095   8.243  28.335   8.553
 7051POPC   D2A28096   8.164  28.348   8.253
 7051POPC   C3A28097   8.192  28.343   7.953
 7051POPC   C4A28098   8.175  28.325   7.653
 7051POPC   C1B28099   8.255  28.161   8.553
 7051POPC   C2B28100   8.224  28.129   8.253
 7051POPC   C3B28101   8.282  28.089   7.953
 7051POPC   C4B28102   8.232  28.124   7.653
 7052POPC   NC328103  31.473  22.896   9.453
 7052POPC   PO428104  31.437  22.951   9.153
 7052POPC   GL128105  31.456  22.955   8.853
 7052POPC   GL228106  31.572  23.008   8.853
 7052POPC   C1A28107  31.455  22.970   8.553
 7052POPC   D2A28108  31.457  22.932   8.253
 7052POPC   C3A28109  31.458  22.915   7.953
 7052POPC   C4A28110  31.507  22.972   7.653
 7052POPC   C1B28111  31.655  23.126   8.553
 7052POPC   C2B28112  31.680  23.113   8.253
 7052POPC   C3B28113  31.609  23.129   7.953
 7052POPC   C4B28114  31.620  23.085   7.653
 7053POPC   NC328115  29.159  43.156   9.453
 7053POPC   PO428116  29.136  43.120   9.153
 7053POPC   GL128117  29.114  43.063   8.853
 7053POPC   GL228118  29.059  43.032   8.853
 7053POPC   C1A28119  29.154  43.146   8.553
 7053POPC   D2A28120  29.107  43.071   8.253
 7053POPC   C3A28121  29.177  43.080   7.953
 7053POPC   C4A28122  29.103  43.157   7.653
 7053POPC   C1B28123  28.954  43.040   8.553
 7053POPC   C2B28124  28.926  42.999   8.253
 7053POPC   C3B28125  28.917  43.025   7.953
 7053POPC   C4B28126  28.936  42.999   7.653
 7054POPC   NC328127   9.762   5.886   9.453
 7054POPC   PO428128   9.735   5.915   9.153
 7054POPC   GL128129   9.784   5.856   8.853
 7054POPC   GL228130   9.609   5.896   8.853
 7054POPC   C1A28131   9.701   5.905   8.553
 7054POPC   D2A28132   9.780   5.892   8.253
 7054POPC   C3A28133   9.726   5.866   7.953
 7054POPC   C4A28134   9.748   5.873   7.653
 7054POPC   C1B28135   9.518   6.043   8.553
 7054POPC   C2B28136   9.548   6.053   8.253
 7054POPC   C3B28137   9.576   5.994   7.953
 7054POPC   C4B28138   9.500   5.992   7.653
 7055POPC   NC328139   9.759  42.356   9.453
 7055POPC   PO428140   9.786  42.324   9.153
 7055POPC   GL128141   9.761  42.334   8.853
 7055POPC   GL228142   9.667  42.483   8.853
 7055POPC   C1A28143   9.768  42.351   8.553
 7055POPC   D2A28144   9.770  42.291   8.253
 7055POPC   C3A28145   9.707  42.300   7.953
 7055POPC   C4A28146   9.768  42.333   7.653
 7055POPC   C1B28147   9.665  42.591   8.553
 7055POPC   C2B28148   9.629  42.551   8.253
 7055POPC   C3B28149   9.631  42.617   7.953
 7055POPC   C4B28150   9.693  42.610   7.653
 7056POPC   NC328151   7.405  21.393   9.453
 7056POPC   PO428152   7.451  21.411   9.153
 7056POPC   GL128153   7.404  21.376   8.853
 7056POPC   GL228154   7.535  21.416   8.853
 7056POPC   C1A28155   7.413  21.372   8.553
 7056POPC   D2A28156   7.449  21.409   8.253
 7056POPC   C3A28157   7.431  21.391   7.953
 7056POPC   C4A28158   7.373  21.410   7.653
 7056POPC   C1B28159   7.616  21.440   8.553
 7056POPC   C2B28160   7.648  21.502   8.253
 7056POPC   C3B28161   7.691  21.427   7.953
 7056POPC   C4B28162   7.661  21.441   7.653
 7057POPC   NC328163  38.495   6.656   9.453
 7057POPC   PO428164  38.438   6.682   9.153
 7057POPC   GL128165  38.453   6.672   8.853
 7057POPC   GL228166  38.526   6.743   8.853
 7057POPC   C1A28167  38.502   6.613   8.553
 7057POPC   D2A28168  38.481   6.603   8.253
 7057POPC   C3A28169  38.468   6.687   7.953
 7057POPC   C4A28170  38.466   6.680   7.653
 7057POPC   C1B28171  38.700   6.817   8.553
 7057POPC   C2B28172  38.714   6.780   8.253
 7057POPC   C3B28173  38.666   6.739   7.953
 7057POPC   C4B28174  38.628   6.770   7.653
 7058POPC   NC328175  40.763  41.562   9.453
 7058POPC   PO428176  40.807  41.595   9.153
 7058POPC   GL128177  40.804  41.556   8.853
 7058POPC   GL228178  40.718  41.407   8.853
 7058POPC   C1A28179  40.761  41.560   8.553
 7058POPC   D2A28180  40.773  41.532   8.253
 7058POPC   C3A28181  40.791  41.510   7.953
 7058POPC   C4A28182  40.796  41.565   7.653
 7058POPC   C1B28183  40.698  41.313   8.553
 7058POPC   C2B28184  40.674  41.381   8.253
 7058POPC   C3B28185  40.658  41.327   7.953
 7058POPC   C4B28186  40.629  41.376   7.653
 7059POPC   NC328187  29.903   7.441   9.453
 7059POPC   PO428188  29.882   7.442   9.153
 7059POPC   GL128189  29.890   7.446   8.853
 7059POPC   GL228190  29.801   7.383   8.853
 7059POPC   C1A28191  29.910   7.371   8.553
 7059POPC   D2A28192  29.934   7.380   8.253
 7059POPC   C3A28193  29.953   7.460   7.953
 7059POPC   C4A28194  29.914   7.435   7.653
 7059POPC   C1B28195  29.649   7.309   8.553
 7059POPC   C2B28196  29.666   7.289   8.253
 7059POPC   C3B28197  29.677   7.298   7.953
 7059POPC   C4B28198  29.728   7.320   7.653
 7060POPC   NC328199  24.471  25.264   9.453
 7060POPC   PO428200  24.503  25.273   9.153
 7060POPC   GL128201  24.459  25.251   8.853
 7060POPC   GL228202  24.339  25.261   8.853
 7060POPC   C1A28203  24.454  25.234   8.553
 7060POPC   D2A28204  24.495  25.278   8.253
 7060POPC   C3A28205  24.484  25.263   7.953
 7060POPC   C4A28206  24.482  25.216   7.653
 7060POPC   C1B28207  24.243  25.227   8.553
 7060POPC   C2B28208  24.269  25.217   8.253
 7060POPC   C3B28209  24.283  25.214   7.953
 7060POPC   C4B28210  24.272  25.234   7.653
 7061POPC   NC328211  42.298   0.404   9.453
 7061POPC   PO428212  42.339   0.447   9.153
 7061POPC   GL128213  42.364   0.436   8.853
 7061POPC   GL228214  42.440   0.310   8.853
 7061POPC   C1A28215  42.320   0.478   8.553
 7061POPC   D2A28216  42.329   0.390   8.253
 7061POPC   C3A28217  42.317   0.445   7.953
 7061POPC   C4A28218  42.289   0.429   7.653
 7061POPC   C1B28219  42.481   0.233   8.553
 7061POPC   C2B28220  42.467   0.263   8.253
 7061POPC   C3B28221  42.422   0.192   7.953
 7061POPC   C4B28222  42.447   0.236   7.653
 7062POPC   NC328223  28.397  31.522   9.453
 7062POPC   PO428224  28.392  31.472   9.153
 7062POPC   GL128225  28.340  31.465   8.853
 7062POPC   GL228226  28.455  31.378   8.853
 7062POPC   C1A28227  28.372  31.510   8.553
 7062POPC   D2A28228  28.345  31.437   8.253
 7062POPC   C3A28229  28.403  31.451   7.953
 7062POPC   C4A28230  28.343  31.424   7.653
 7062POPC   C1B28231  28.630  31.345   8.553
 7062POPC   C2B28232  28.607  31.385   8.253
 7062POPC   C3B28233  28.548  31.357   7.953
 7062POPC   C4B28234  28.554  31.411   7.653
 7063POPC   NC328235  30.690  27.579   9.453
 7063POPC   PO428236  30.673  27.554   9.153
 7063POPC   GL128237  30.650  27.632   8.853
 7063POPC   GL228238  30.594  27.442   8.853
 7063POPC   C1A28239  30.739  27.624   8.553
 7063POPC   D2A28240  30.666  27.613   8.253
 7063POPC   C3A28241  30.722  27.597   7.953
 7063POPC   C4A28242  30.734  27.569   7.653
 7063POPC   C1B28243  30.538  27.360   8.553
 7063POPC   C2B28244  30.554  27.347   8.253
 7063POPC   C3B28245  30.543  27.339   7.953
 7063POPC   C4B28246  30.553  27.335   7.653
 7064POPC   NC328247   7.445  10.565   9.453
 7064POPC   PO428248   7.449  10.492   9.153
 7064POPC   GL128249   7.400  10.550   8.853
 7064POPC   GL228250   7.316  10.466   8.853
 7064POPC   C1A28251   7.455  10.570   8.553
 7064POPC   D2A28252   7.415  10.512   8.253
 7064POPC   C3A28253   7.418  10.494   7.953
 7064POPC   C4A28254   7.395  10.503   7.653
 7064POPC   C1B28255   7.164  10.518   8.553
 7064POPC   C2B28256   7.203  10.505   8.253
 7064POPC   C3B28257   7.205  10.510   7.953
 7064POPC   C4B28258   7.133  10.495   7.653
 7065POPC   NC328259  34.615  10.476   9.453
 7065POPC   PO428260  34.599  10.547   9.153
 7065POPC   GL128261  34.571  10.485   8.853
 7065POPC   GL228262  34.503  10.688   8.853
 7065POPC   C1A28263  34.592  10.491   8.553
 7065POPC   D2A28264  34.596  10.569   8.253
 7065POPC   C3A28265  34.568  10.497   7.953
 7065POPC   C4A28266  34.583  10.517   7.653
 7065POPC   C1B28267  34.472  10.715   8.553
 7065POPC   C2B28268  34.525  10.758   8.253
 7065POPC   C3B28269  34.543  10.742   7.953
 7065POPC   C4B28270  34.452  10.739   7.653
 7066POPC   NC328271   8.240  34.581   9.453
 7066POPC   PO428272   8.232  34.601   9.153
 7066POPC   GL128273   8.184  34.561   8.853
 7066POPC   GL228274   8.199  34.652   8.853
 7066POPC   C1A28275   8.178  34.594   8.553
 7066POPC   D2A28276   8.176  34.583   8.253
 7066POPC   C3A28277   8.202  34.583   7.953
 7066POPC   C4A28278   8.206  34.584   7.653
 7066POPC   C1B28279   8.275  34.802   8.553
 7066POPC   C2B28280   8.233  34.832   8.253
 7066POPC   C3B28281   8.306  34.779   7.953
 7066POPC   C4B28282   8.282  34.857   7.653
 7067POPC   NC328283  29.140  27.640   9.453
 7067POPC   PO428284  29.133  27.555   9.153
 7067POPC   GL128285  29.131  27.564   8.853
 7067POPC   GL228286  29.048  27.520   8.853
 7067POPC   C1A28287  29.123  27.632   8.553
 7067POPC   D2A28288  29.176  27.553   8.253
 7067POPC   C3A28289  29.098  27.547   7.953
 7067POPC   C4A28290  29.181  27.636   7.653
 7067POPC   C1B28291  28.991  27.383   8.553
 7067POPC   C2B28292  29.030  27.360   8.253
 7067POPC   C3B28293  28.977  27.429   7.953
 7067POPC   C4B28294  28.989  27.428   7.653
 7068POPC   NC328295  34.535  25.307   9.453
 7068POPC   PO428296  34.617  25.262   9.153
 7068POPC   GL128297  34.596  25.237   8.853
 7068POPC   GL228298  34.564  25.115   8.853
 7068POPC   C1A28299  34.596  25.256   8.553
 7068POPC   D2A28300  34.592  25.293   8.253
 7068POPC   C3A28301  34.546  25.296   7.953
 7068POPC   C4A28302  34.613  25.221   7.653
 7068POPC   C1B28303  34.451  25.052   8.553
 7068POPC   C2B28304  34.472  25.053   8.253
 7068POPC   C3B28305  34.468  25.051   7.953
 7068POPC   C4B28306  34.478  25.001   7.653
 7069POPC   NC328307  23.710   1.978   9.453
 7069POPC   PO428308  23.674   2.010   9.153
 7069POPC   GL128309  23.748   1.973   8.853
 7069POPC   GL228310  23.628   2.018   8.853
 7069POPC   C1A28311  23.746   2.020   8.553
 7069POPC   D2A28312  23.696   1.991   8.253
 7069POPC   C3A28313  23.739   1.967   7.953
 7069POPC   C4A28314  23.715   2.013   7.653
 7069POPC   C1B28315  23.492   2.136   8.553
 7069POPC   C2B28316  23.450   2.065   8.253
 7069POPC   C3B28317  23.476   2.080   7.953
 7069POPC   C4B28318  23.486   2.070   7.653
 7070POPC   NC328319  31.481  29.949   9.453
 7070POPC   PO428320  31.487  29.885   9.153
 7070POPC   GL128321  31.435  29.897   8.853
 7070POPC   GL228322  31.359  29.844   8.853
 7070POPC   C1A28323  31.487  29.916   8.553
 7070POPC   D2A28324  31.425  29.945   8.253
 7070POPC   C3A28325  31.512  29.916   7.953
 7070POPC   C4A28326  31.494  29.902   7.653
 7070POPC   C1B28327  31.290  29.772   8.553
 7070POPC   C2B28328  31.320  29.756   8.253
 7070POPC   C3B28329  31.346  29.707   7.953
 7070POPC   C4B28330  31.284  29.769   7.653
 7071POPC   NC328331  10.512   9.712   9.453
 7071POPC   PO428332  10.531   9.797   9.153
 7071POPC   GL128333  10.544   9.786   8.853
 7071POPC   GL228334  10.406   9.832   8.853
 7071POPC   C1A28335  10.542   9.719   8.553
 7071POPC   D2A28336  10.539   9.791   8.253
 7071POPC   C3A28337  10.550   9.794   7.953
 7071POPC   C4A28338  10.558   9.710   7.653
 7071POPC   C1B28339  10.389   9.937   8.553
 7071POPC   C2B28340  10.362   9.925   8.253
 7071POPC   C3B28341  10.324   9.903   7.953
 7071POPC   C4B28342  10.383   9.962   7.653
 7072POPC   NC328343   4.355  20.654   9.453
 7072POPC   PO428344   4.362  20.597   9.153
 7072POPC   GL128345   4.366  20.615   8.853
 7072POPC   GL228346   4.261  20.681   8.853
 7072POPC   C1A28347   4.280  20.618   8.553
 7072POPC   D2A28348   4.330  20.572   8.253
 7072POPC   C3A28349   4.349  20.579   7.953
 7072POPC   C4A28350   4.289  20.564   7.653
 7072POPC   C1B28351   4.191  20.844   8.553
 7072POPC   C2B28352   4.224  20.835   8.253
 7072POPC   C3B28353   4.257  20.841   7.953
 7072POPC   C4B28354   4.202  20.826   7.653
 7073POPC   NC328355   8.209  32.266   9.453
 7073POPC   PO428356   8.184  32.276   9.153
 7073POPC   GL128357   8.227  32.279   8.853
 7073POPC   GL228358   8.026  32.271   8.853
 7073POPC   C1A28359   8.246  32.260   8.553
 7073POPC   D2A28360   8.234  32.207   8.253
 7073POPC   C3A28361   8.233  32.241   7.953
 7073POPC   C4A28362   8.175  32.223   7.653
 7073POPC   C1B28363   7.937  32.328   8.553
 7073POPC   C2B28364   7.992  32.276   8.253
 7073POPC   C3B28365   7.949  32.275   7.953
 7073POPC   C4B28366   7.935  32.274   7.653
 7074POPC   NC328367  25.300  36.926   9.453
 7074POPC   PO428368  25.285  36.924   9.153
 7074POPC   GL128369  25.297  36.868   8.853
 7074POPC   GL228370  25.186  36.769   8.853
 7074POPC   C1A28371  25.312  36.867   8.553
 7074POPC   D2A28372  25.247  36.948   8.253
 7074POPC   C3A28373  25.300  36.860   7.953
 7074POPC   C4A28374  25.233  36.918   7.653
 7074POPC   C1B28375  25.077  36.703   8.553
 7074POPC   C2B28376  25.164  36.738   8.253
 7074POPC   C3B28377  25.110  36.741   7.953
 7074POPC   C4B28378  25.145  36.728   7.653
 7075POPC   NC328379  36.104  23.741   9.453
 7075POPC   PO428380  36.095  23.748   9.153
 7075POPC   GL128381  36.123  23.730   8.853
 7075POPC   GL228382  36.128  23.851   8.853
 7075POPC   C1A28383  36.138  23.670   8.553
 7075POPC   D2A28384  36.163  23.746   8.253
 7075POPC   C3A28385  36.107  23.726   7.953
 7075POPC   C4A28386  36.141  23.728   7.653
 7075POPC   C1B28387  36.112  24.002   8.553
 7075POPC   C2B28388  36.048  24.001   8.253
 7075POPC   C3B28389  36.096  24.001   7.953
 7075POPC   C4B28390  36.034  23.989   7.653
 7076POPC   NC328391  19.835  29.136   9.453
 7076POPC   PO428392  19.871  29.142   9.153
 7076POPC   GL128393  19.840  29.194   8.853
 7076POPC   GL228394  19.684  29.244   8.853
 7076POPC   C1A28395  19.841  29.096   8.553
 7076POPC   D2A28396  19.824  29.166   8.253
 7076POPC   C3A28397  19.874  29.152   7.953
 7076POPC   C4A28398  19.879  29.159   7.653
 7076POPC   C1B28399  19.654  29.273   8.553
 7076POPC   C2B28400  19.621  29.270   8.253
 7076POPC   C3B28401  19.629  29.312   7.953
 7076POPC   C4B28402  19.648  29.297   7.653
 7077POPC   NC328403  10.534  19.834   9.453
 7077POPC   PO428404  10.573  19.839   9.153
 7077POPC   GL128405  10.547  19.786   8.853
 7077POPC   GL228406  10.462  19.795   8.853
 7077POPC   C1A28407  10.523  19.851   8.553
 7077POPC   D2A28408  10.553  19.797   8.253
 7077POPC   C3A28409  10.519  19.854   7.953
 7077POPC   C4A28410  10.493  19.850   7.653
 7077POPC   C1B28411  10.305  19.725   8.553
 7077POPC   C2B28412  10.260  19.662   8.253
 7077POPC   C3B28413  10.323  19.680   7.953
 7077POPC   C4B28414  10.348  19.734   7.653
 7078POPC   NC328415  29.118  36.857   9.453
 7078POPC   PO428416  29.121  36.906   9.153
 7078POPC   GL128417  29.115  36.916   8.853
 7078POPC   GL228418  29.150  36.759   8.853
 7078POPC   C1A28419  29.110  36.915   8.553
 7078POPC   D2A28420  29.100  36.884   8.253
 7078POPC   C3A28421  29.103  36.862   7.953
 7078POPC   C4A28422  29.174  36.877   7.653
 7078POPC   C1B28423  29.051  36.652   8.553
 7078POPC   C2B28424  29.043  36.638   8.253
 7078POPC   C3B28425  29.023  36.696   7.953
 7078POPC   C4B28426  29.028  36.641   7.653
 7079POPC   NC328427  39.269  44.693   9.453
 7079POPC   PO428428  39.235  44.682   9.153
 7079POPC   GL128429  39.259  44.619   8.853
 7079POPC   GL228430  39.395  44.612   8.853
 7079POPC   C1A28431  39.183  44.694   8.553
 7079POPC   D2A28432  39.250  44.650   8.253
 7079POPC   C3A28433  39.279  44.665   7.953
 7079POPC   C4A28434  39.208  44.670   7.653
 7079POPC   C1B28435  39.529  44.623   8.553
 7079POPC   C2B28436  39.463  44.680   8.253
 7079POPC   C3B28437  39.463  44.702   7.953
 7079POPC   C4B28438  39.511  44.638   7.653
 7080POPC   NC328439  22.128  17.516   9.453
 7080POPC   PO428440  22.178  17.504   9.153
 7080POPC   GL128441  22.133  17.551   8.853
 7080POPC   GL228442  22.285  17.387   8.853
 7080POPC   C1A28443  22.150  17.519   8.553
 7080POPC   D2A28444  22.172  17.483   8.253
 7080POPC   C3A28445  22.125  17.512   7.953
 7080POPC   C4A28446  22.191  17.520   7.653
 7080POPC   C1B28447  22.404  17.387   8.553
 7080POPC   C2B28448  22.325  17.379   8.253
 7080POPC   C3B28449  22.385  17.315   7.953
 7080POPC   C4B28450  22.375  17.374   7.653
 7081POPC   NC328451  40.047  18.241   9.453
 7081POPC   PO428452  40.043  18.241   9.153
 7081POPC   GL128453  40.043  18.242   8.853
 7081POPC   GL228454  40.021  18.195   8.853
 7081POPC   C1A28455  39.957  18.323   8.553
 7081POPC   D2A28456  39.963  18.273   8.253
 7081POPC   C3A28457  40.017  18.289   7.953
 7081POPC   C4A28458  40.030  18.272   7.653
 7081POPC   C1B28459  40.147  18.011   8.553
 7081POPC   C2B28460  40.112  18.068   8.253
 7081POPC   C3B28461  40.106  18.014   7.953
 7081POPC   C4B28462  40.127  18.101   7.653
 7082POPC   NC328463  15.986  42.303   9.453
 7082POPC   PO428464  15.933  42.355   9.153
 7082POPC   GL128465  15.930  42.345   8.853
 7082POPC   GL228466  16.040  42.258   8.853
 7082POPC   C1A28467  15.986  42.294   8.553
 7082POPC   D2A28468  15.939  42.383   8.253
 7082POPC   C3A28469  15.982  42.314   7.953
 7082POPC   C4A28470  15.954  42.328   7.653
 7082POPC   C1B28471  16.175  42.208   8.553
 7082POPC   C2B28472  16.122  42.183   8.253
 7082POPC   C3B28473  16.128  42.192   7.953
 7082POPC   C4B28474  16.184  42.151   7.653
 7083POPC   NC328475  43.077  26.007   9.453
 7083POPC   PO428476  43.088  26.005   9.153
 7083POPC   GL128477  43.114  26.024   8.853
 7083POPC   GL228478  42.967  26.123   8.853
 7083POPC   C1A28479  43.061  26.055   8.553
 7083POPC   D2A28480  43.122  26.050   8.253
 7083POPC   C3A28481  43.068  26.018   7.953
 7083POPC   C4A28482  43.155  26.026   7.653
 7083POPC   C1B28483  42.868  26.091   8.553
 7083POPC   C2B28484  42.851  26.107   8.253
 7083POPC   C3B28485  42.837  26.078   7.953
 7083POPC   C4B28486  42.826  26.111   7.653
 7084POPC   NC328487   5.872  33.059   9.453
 7084POPC   PO428488   5.845  32.999   9.153
 7084POPC   GL128489   5.908  33.006   8.853
 7084POPC   GL228490   5.852  33.187   8.853
 7084POPC   C1A28491   5.860  33.064   8.553
 7084POPC   D2A28492   5.835  33.008   8.253
 7084POPC   C3A28493   5.855  33.008   7.953
 7084POPC   C4A28494   5.915  32.992   7.653
 7084POPC   C1B28495   5.959  33.257   8.553
 7084POPC   C2B28496   5.913  33.276   8.253
 7084POPC   C3B28497   5.879  33.255   7.953
 7084POPC   C4B28498   5.905  33.288   7.653
 7085POPC   NC328499  34.526  38.468   9.453
 7085POPC   PO428500  34.606  38.408   9.153
 7085POPC   GL128501  34.621  38.487   8.853
 7085POPC   GL228502  34.587  38.304   8.853
 7085POPC   C1A28503  34.597  38.495   8.553
 7085POPC   D2A28504  34.546  38.483   8.253
 7085POPC   C3A28505  34.609  38.456   7.953
 7085POPC   C4A28506  34.609  38.486   7.653
 7085POPC   C1B28507  34.649  38.170   8.553
 7085POPC   C2B28508  34.680  38.259   8.253
 7085POPC   C3B28509  34.655  38.263   7.953
 7085POPC   C4B28510  34.675  38.200   7.653
 7086POPC   NC328511  36.112   7.418   9.453
 7086POPC   PO428512  36.109   7.430   9.153
 7086POPC   GL128513  36.111   7.458   8.853
 7086POPC   GL228514  36.038   7.446   8.853
 7086POPC   C1A28515  36.122   7.377   8.553
 7086POPC   D2A28516  36.147   7.463   8.253
 7086POPC   C3A28517  36.106   7.433   7.953
 7086POPC   C4A28518  36.133   7.456   7.653
 7086POPC   C1B28519  35.882   7.467   8.553
 7086POPC   C2B28520  35.858   7.524   8.253
 7086POPC   C3B28521  35.890   7.526   7.953
 7086POPC   C4B28522  35.896   7.455   7.653
 7087POPC   NC328523  38.456  39.281   9.453
 7087POPC   PO428524  38.459  39.225   9.153
 7087POPC   GL128525  38.412  39.185   8.853
 7087POPC   GL228526  38.504  39.124   8.853
 7087POPC   C1A28527  38.428  39.221   8.553
 7087POPC   D2A28528  38.464  39.224   8.253
 7087POPC   C3A28529  38.440  39.228   7.953
 7087POPC   C4A28530  38.414  39.270   7.653
 7087POPC   C1B28531  38.608  39.016   8.553
 7087POPC   C2B28532  38.534  39.049   8.253
 7087POPC   C3B28533  38.581  38.964   7.953
 7087POPC   C4B28534  38.609  39.014   7.653
 7088POPC   NC328535  20.598  36.089   9.453
 7088POPC   PO428536  20.640  36.124   9.153
 7088POPC   GL128537  20.575  36.165   8.853
 7088POPC   GL228538  20.762  36.175   8.853
 7088POPC   C1A28539  20.625  36.093   8.553
 7088POPC   D2A28540  20.611  36.106   8.253
 7088POPC   C3A28541  20.648  36.079   7.953
 7088POPC   C4A28542  20.579  36.158   7.653
 7088POPC   C1B28543  20.796  36.247   8.553
 7088POPC   C2B28544  20.835  36.292   8.253
 7088POPC   C3B28545  20.783  36.300   7.953
 7088POPC   C4B28546  20.799  36.316   7.653
 7089POPC   NC328547   7.444   8.244   9.453
 7089POPC   PO428548   7.449   8.151   9.153
 7089POPC   GL128549   7.451   8.230   8.853
 7089POPC   GL228550   7.297   8.121   8.853
 7089POPC   C1A28551   7.373   8.243   8.553
 7089POPC   D2A28552   7.437   8.187   8.253
 7089POPC   C3A28553   7.378   8.195   7.953
 7089POPC   C4A28554   7.390   8.201   7.653
 7089POPC   C1B28555   7.244   8.004   8.553
 7089POPC   C2B28556   7.219   8.029   8.253
 7089POPC   C3B28557   7.245   8.087   7.953
 7089POPC   C4B28558   7.185   8.007   7.653
 7090POPC   NC328559  26.074  43.104   9.453
 7090POPC   PO428560  25.993  43.130   9.153
 7090POPC   GL128561  26.034  43.116   8.853
 7090POPC   GL228562  25.920  43.182   8.853
 7090POPC   C1A28563  26.068  43.154   8.553
 7090POPC   D2A28564  26.069  43.140   8.253
 7090POPC   C3A28565  26.033  43.065   7.953
 7090POPC   C4A28566  26.040  43.070   7.653
 7090POPC   C1B28567  25.804  43.172   8.553
 7090POPC   C2B28568  25.769  43.192   8.253
 7090POPC   C3B28569  25.818  43.165   7.953
 7090POPC   C4B28570  25.833  43.165   7.653
 7091POPC   NC328571  26.859   6.691   9.453
 7091POPC   PO428572  26.767   6.640   9.153
 7091POPC   GL128573  26.787   6.649   8.853
 7091POPC   GL228574  26.925   6.572   8.853
 7091POPC   C1A28575  26.804   6.610   8.553
 7091POPC   D2A28576  26.798   6.651   8.253
 7091POPC   C3A28577  26.857   6.611   7.953
 7091POPC   C4A28578  26.787   6.688   7.653
 7091POPC   C1B28579  27.088   6.618   8.553
 7091POPC   C2B28580  27.042   6.617   8.253
 7091POPC   C3B28581  27.063   6.570   7.953
 7091POPC   C4B28582  27.086   6.592   7.653
 7092POPC   NC328583  43.070  43.898   9.453
 7092POPC   PO428584  43.081  43.910   9.153
 7092POPC   GL128585  43.089  43.918   8.853
 7092POPC   GL228586  43.067  43.773   8.853
 7092POPC   C1A28587  43.108  43.844   8.553
 7092POPC   D2A28588  43.119  43.888   8.253
 7092POPC   C3A28589  43.076  43.924   7.953
 7092POPC   C4A28590  43.098  43.920   7.653
 7092POPC   C1B28591  43.066  43.670   8.553
 7092POPC   C2B28592  43.086  43.618   8.253
 7092POPC   C3B28593  43.116  43.600   7.953
 7092POPC   C4B28594  43.050  43.597   7.653
 7093POPC   NC328595   1.253  15.987   9.453
 7093POPC   PO428596   1.250  15.976   9.153
 7093POPC   GL128597   1.245  15.911   8.853
 7093POPC   GL228598   1.315  15.870   8.853
 7093POPC   C1A28599   1.203  15.990   8.553
 7093POPC   D2A28600   1.211  15.986   8.253
 7093POPC   C3A28601   1.240  15.987   7.953
 7093POPC   C4A28602   1.205  15.954   7.653
 7093POPC   C1B28603   1.373  15.762   8.553
 7093POPC   C2B28604   1.386  15.752   8.253
 7093POPC   C3B28605   1.357  15.735   7.953
 7093POPC   C4B28606   1.343  15.726   7.653
 7094POPC   NC328607  29.153  19.020   9.453
 7094POPC   PO428608  29.122  19.049   9.153
 7094POPC   GL128609  29.123  19.091   8.853
 7094POPC   GL228610  29.082  19.211   8.853
 7094POPC   C1A28611  29.127  19.037   8.553
 7094POPC   D2A28612  29.109  19.023   8.253
 7094POPC   C3A28613  29.101  19.020   7.953
 7094POPC   C4A28614  29.150  19.059   7.653
 7094POPC   C1B28615  29.062  19.309   8.553
 7094POPC   C2B28616  29.088  19.350   8.253
 7094POPC   C3B28617  29.078  19.300   7.953
 7094POPC   C4B28618  29.118  19.280   7.653
 7095POPC   NC328619   6.665  16.780   9.453
 7095POPC   PO428620   6.668  16.763   9.153
 7095POPC   GL128621   6.667  16.720   8.853
 7095POPC   GL228622   6.486  16.770   8.853
 7095POPC   C1A28623   6.683  16.755   8.553
 7095POPC   D2A28624   6.602  16.749   8.253
 7095POPC   C3A28625   6.667  16.772   7.953
 7095POPC   C4A28626   6.608  16.743   7.653
 7095POPC   C1B28627   6.386  16.800   8.553
 7095POPC   C2B28628   6.462  16.858   8.253
 7095POPC   C3B28629   6.382  16.804   7.953
 7095POPC   C4B28630   6.440  16.818   7.653
 7096POPC   NC328631  27.598  29.945   9.453
 7096POPC   PO428632  27.605  29.905   9.153
 7096POPC   GL128633  27.609  29.962   8.853
 7096POPC   GL228634  27.555  29.849   8.853
 7096POPC   C1A28635  27.587  29.925   8.553
 7096POPC   D2A28636  27.549  29.932   8.253
 7096POPC   C3A28637  27.557  29.889   7.953
 7096POPC   C4A28638  27.582  29.911   7.653
 7096POPC   C1B28639  27.469  29.672   8.553
 7096POPC   C2B28640  27.467  29.663   8.253
 7096POPC   C3B28641  27.455  29.740   7.953
 7096POPC   C4B28642  27.495  29.658   7.653
 7097POPC   NC328643   6.637  19.869   9.453
 7097POPC   PO428644   6.620  19.808   9.153
 7097POPC   GL128645   6.631  19.788   8.853
 7097POPC   GL228646   6.710  19.781   8.853
 7097POPC   C1A28647   6.618  19.830   8.553
 7097POPC   D2A28648   6.680  19.870   8.253
 7097POPC   C3A28649   6.620  19.864   7.953
 7097POPC   C4A28650   6.635  19.797   7.653
 7097POPC   C1B28651   6.826  19.687   8.553
 7097POPC   C2B28652   6.813  19.708   8.253
 7097POPC   C3B28653   6.869  19.715   7.953
 7097POPC   C4B28654   6.839  19.677   7.653
 7098POPC   NC328655  36.908   5.057   9.453
 7098POPC   PO428656  36.891   5.094   9.153
 7098POPC   GL128657  36.871   5.108   8.853
 7098POPC   GL228658  37.020   5.054   8.853
 7098POPC   C1A28659  36.856   5.139   8.553
 7098POPC   D2A28660  36.856   5.057   8.253
 7098POPC   C3A28661  36.904   5.127   7.953
 7098POPC   C4A28662  36.868   5.118   7.653
 7098POPC   C1B28663  37.120   4.999   8.553
 7098POPC   C2B28664  37.157   4.998   8.253
 7098POPC   C3B28665  37.177   5.012   7.953
 7098POPC   C4B28666  37.100   4.989   7.653
 7099POPC   NC328667  12.102   5.825   9.453
 7099POPC   PO428668  12.094   5.917   9.153
 7099POPC   GL128669  12.036   5.884   8.853
 7099POPC   GL228670  12.071   5.770   8.853
 7099POPC   C1A28671  12.044   5.857   8.553
 7099POPC   D2A28672  12.117   5.850   8.253
 7099POPC   C3A28673  12.046   5.895   7.953
 7099POPC   C4A28674  12.093   5.828   7.653
 7099POPC   C1B28675  12.073   5.605   8.553
 7099POPC   C2B28676  12.101   5.621   8.253
 7099POPC   C3B28677  12.071   5.595   7.953
 7099POPC   C4B28678  12.076   5.628   7.653
 7100POPC   NC328679  13.675   1.243   9.453
 7100POPC   PO428680  13.659   1.221   9.153
 7100POPC   GL128681  13.642   1.206   8.853
 7100POPC   GL228682  13.729   1.278   8.853
 7100POPC   C1A28683  13.645   1.171   8.553
 7100POPC   D2A28684  13.636   1.165   8.253
 7100POPC   C3A28685  13.604   1.215   7.953
 7100POPC   C4A28686  13.676   1.205   7.653
 7100POPC   C1B28687  13.823   1.413   8.553
 7100POPC   C2B28688  13.746   1.430   8.253
 7100POPC   C3B28689  13.842   1.401   7.953
 7100POPC   C4B28690  13.747   1.392   7.653
 7101POPC   NC328691  15.972   3.526   9.453
 7101POPC   PO428692  15.930   3.533   9.153
 7101POPC   GL128693  15.931   3.512   8.853
 7101POPC   GL228694  15.970   3.649   8.853
 7101POPC   C1A28695  15.981   3.518   8.553
 7101POPC   D2A28696  15.949   3.493   8.253
 7101POPC   C3A28697  15.974   3.523   7.953
 7101POPC   C4A28698  15.953   3.534   7.653
 7101POPC   C1B28699  15.880   3.753   8.553
 7101POPC   C2B28700  15.927   3.826   8.253
 7101POPC   C3B28701  15.961   3.798   7.953
 7101POPC   C4B28702  15.889   3.808   7.653
 7102POPC   NC328703   0.480  35.345   9.453
 7102POPC   PO428704   0.484  35.399   9.153
 7102POPC   GL128705   0.482  35.378   8.853
 7102POPC   GL228706   0.370  35.455   8.853
 7102POPC   C1A28707   0.471  35.374   8.553
 7102POPC   D2A28708   0.426  35.391   8.253
 7102POPC   C3A28709   0.406  35.306   7.953
 7102POPC   C4A28710   0.413  35.335   7.653
 7102POPC   C1B28711   0.374  35.612   8.553
 7102POPC   C2B28712   0.366  35.637   8.253
 7102POPC   C3B28713   0.415  35.595   7.953
 7102POPC   C4B28714   0.338  35.592   7.653
 7103POPC   NC328715  12.105  27.631   9.453
 7103POPC   PO428716  12.095  27.565   9.153
 7103POPC   GL128717  12.125  27.619   8.853
 7103POPC   GL228718  12.061  27.670   8.853
 7103POPC   C1A28719  12.111  27.552   8.553
 7103POPC   D2A28720  12.054  27.626   8.253
 7103POPC   C3A28721  12.102  27.634   7.953
 7103POPC   C4A28722  12.038  27.636   7.653
 7103POPC   C1B28723  11.983  27.840   8.553
 7103POPC   C2B28724  11.957  27.822   8.253
 7103POPC   C3B28725  11.926  27.797   7.953
 7103POPC   C4B28726  12.008  27.852   7.653
 7104POPC   NC328727  10.540  31.516   9.453
 7104POPC   PO428728  10.540  31.450   9.153
 7104POPC   GL128729  10.567  31.492   8.853
 7104POPC   GL228730  10.576  31.641   8.853
 7104POPC   C1A28731  10.518  31.478   8.553
 7104POPC   D2A28732  10.481  31.470   8.253
 7104POPC   C3A28733  10.510  31.520   7.953
 7104POPC   C4A28734  10.543  31.454   7.653
 7104POPC   C1B28735  10.617  31.755   8.553
 7104POPC   C2B28736  10.618  31.758   8.253
 7104POPC   C3B28737  10.625  31.713   7.953
 7104POPC   C4B28738  10.570  31.717   7.653
 7105POPC   NC328739  43.113  22.196   9.453
 7105POPC   PO428740  43.150  22.126   9.153
 7105POPC   GL128741  43.073  22.180   8.853
 7105POPC   GL228742  43.216  22.031   8.853
 7105POPC   C1A28743  43.153  22.123   8.553
 7105POPC   D2A28744  43.159  22.139   8.253
 7105POPC   C3A28745  43.070  22.138   7.953
 7105POPC   C4A28746  43.073  22.198   7.653
 7105POPC   C1B28747  43.262  21.965   8.553
 7105POPC   C2B28748  43.268  21.909   8.253
 7105POPC   C3B28749  43.211  21.966   7.953
 7105POPC   C4B28750  43.259  21.909   7.653
 7106POPC   NC328751   7.373   6.685   9.453
 7106POPC   PO428752   7.408   6.689   9.153
 7106POPC   GL128753   7.453   6.599   8.853
 7106POPC   GL228754   7.565   6.664   8.853
 7106POPC   C1A28755   7.453   6.628   8.553
 7106POPC   D2A28756   7.410   6.645   8.253
 7106POPC   C3A28757   7.432   6.633   7.953
 7106POPC   C4A28758   7.463   6.636   7.653
 7106POPC   C1B28759   7.653   6.626   8.553
 7106POPC   C2B28760   7.719   6.652   8.253
 7106POPC   C3B28761   7.646   6.597   7.953
 7106POPC   C4B28762   7.636   6.643   7.653
 7107POPC   NC328763  22.938  37.690   9.453
 7107POPC   PO428764  22.911  37.713   9.153
 7107POPC   GL128765  22.972  37.685   8.853
 7107POPC   GL228766  22.908  37.823   8.853
 7107POPC   C1A28767  22.976  37.664   8.553
 7107POPC   D2A28768  22.926  37.687   8.253
 7107POPC   C3A28769  22.918  37.649   7.953
 7107POPC   C4A28770  22.899  37.684   7.653
 7107POPC   C1B28771  22.857  37.889   8.553
 7107POPC   C2B28772  22.780  37.941   8.253
 7107POPC   C3B28773  22.872  37.898   7.953
 7107POPC   C4B28774  22.860  37.860   7.653
 7108POPC   NC328775  14.386  18.272   9.453
 7108POPC   PO428776  14.402  18.331   9.153
 7108POPC   GL128777  14.427  18.315   8.853
 7108POPC   GL228778  14.352  18.183   8.853
 7108POPC   C1A28779  14.407  18.309   8.553
 7108POPC   D2A28780  14.364  18.251   8.253
 7108POPC   C3A28781  14.356  18.322   7.953
 7108POPC   C4A28782  14.360  18.332   7.653
 7108POPC   C1B28783  14.273  18.079   8.553
 7108POPC   C2B28784  14.338  18.041   8.253
 7108POPC   C3B28785  14.306  18.013   7.953
 7108POPC   C4B28786  14.314  18.082   7.653
 7109POPC   NC328787   2.036   6.601   9.453
 7109POPC   PO428788   1.997   6.606   9.153
 7109POPC   GL128789   1.986   6.656   8.853
 7109POPC   GL228790   1.944   6.576   8.853
 7109POPC   C1A28791   2.023   6.630   8.553
 7109POPC   D2A28792   2.010   6.638   8.253
 7109POPC   C3A28793   2.012   6.665   7.953
 7109POPC   C4A28794   2.032   6.610   7.653
 7109POPC   C1B28795   1.875   6.469   8.553
 7109POPC   C2B28796   1.831   6.466   8.253
 7109POPC   C3B28797   1.851   6.463   7.953
 7109POPC   C4B28798   1.836   6.466   7.653
 7110POPC   NC328799  44.650  14.401   9.453
 7110POPC   PO428800  44.617  14.360   9.153
 7110POPC   GL128801  44.630  14.389   8.853
 7110POPC   GL228802  44.661  14.307   8.853
 7110POPC   C1A28803  44.697  14.434   8.553
 7110POPC   D2A28804  44.697  14.451   8.253
 7110POPC   C3A28805  44.650  14.421   7.953
 7110POPC   C4A28806  44.663  14.440   7.653
 7110POPC   C1B28807  44.707  14.153   8.553
 7110POPC   C2B28808  44.731  14.108   8.253
 7110POPC   C3B28809  44.681  14.120   7.953
 7110POPC   C4B28810  44.685  14.140   7.653
 7111POPC   NC328811  32.244  26.007   9.453
 7111POPC   PO428812  32.287  25.994   9.153
 7111POPC   GL128813  32.240  26.005   8.853
 7111POPC   GL228814  32.289  26.114   8.853
 7111POPC   C1A28815  32.287  26.089   8.553
 7111POPC   D2A28816  32.243  26.005   8.253
 7111POPC   C3A28817  32.205  26.086   7.953
 7111POPC   C4A28818  32.238  26.004   7.653
 7111POPC   C1B28819  32.265  26.330   8.553
 7111POPC   C2B28820  32.357  26.277   8.253
 7111POPC   C3B28821  32.297  26.260   7.953
 7111POPC   C4B28822  32.281  26.249   7.653
 7112POPC   NC328823  29.935   8.151   9.453
 7112POPC   PO428824  29.904   8.192   9.153
 7112POPC   GL128825  29.966   8.164   8.853
 7112POPC   GL228826  30.049   8.215   8.853
 7112POPC   C1A28827  29.921   8.164   8.553
 7112POPC   D2A28828  29.874   8.239   8.253
 7112POPC   C3A28829  29.960   8.154   7.953
 7112POPC   C4A28830  29.965   8.221   7.653
 7112POPC   C1B28831  30.173   8.184   8.553
 7112POPC   C2B28832  30.173   8.151   8.253
 7112POPC   C3B28833  30.188   8.191   7.953
 7112POPC   C4B28834  30.129   8.174   7.653
 7113POPC   NC328835   8.241   1.201   9.453
 7113POPC   PO428836   8.200   1.218   9.153
 7113POPC   GL128837   8.158   1.232   8.853
 7113POPC   GL228838   8.164   1.350   8.853
 7113POPC   C1A28839   8.166   1.240   8.553
 7113POPC   D2A28840   8.230   1.222   8.253
 7113POPC   C3A28841   8.202   1.232   7.953
 7113POPC   C4A28842   8.167   1.178   7.653
 7113POPC   C1B28843   8.212   1.484   8.553
 7113POPC   C2B28844   8.159   1.495   8.253
 7113POPC   C3B28845   8.204   1.467   7.953
 7113POPC   C4B28846   8.241   1.423   7.653
 7114POPC   NC328847   7.453  20.660   9.453
 7114POPC   PO428848   7.438  20.593   9.153
 7114POPC   GL128849   7.438  20.610   8.853
 7114POPC   GL228850   7.554  20.524   8.853
 7114POPC   C1A28851   7.375  20.568   8.553
 7114POPC   D2A28852   7.399  20.627   8.253
 7114POPC   C3A28853   7.380  20.658   7.953
 7114POPC   C4A28854   7.420  20.564   7.653
 7114POPC   C1B28855   7.605  20.471   8.553
 7114POPC   C2B28856   7.618  20.510   8.253
 7114POPC   C3B28857   7.642  20.482   7.953
 7114POPC   C4B28858   7.651  20.485   7.653
 7115POPC   NC328859   0.422  16.747   9.453
 7115POPC   PO428860   0.388  16.753   9.153
 7115POPC   GL128861   0.419  16.771   8.853
 7115POPC   GL228862   0.601  16.806   8.853
 7115POPC   C1A28863   0.430  16.698   8.553
 7115POPC   D2A28864   0.406  16.705   8.253
 7115POPC   C3A28865   0.422  16.722   7.953
 7115POPC   C4A28866   0.421  16.771   7.653
 7115POPC   C1B28867   0.709  16.852   8.553
 7115POPC   C2B28868   0.643  16.844   8.253
 7115POPC   C3B28869   0.700  16.835   7.953
 7115POPC   C4B28870   0.633  16.787   7.653
 7116POPC   NC328871  26.771  40.807   9.453
 7116POPC   PO428872  26.787  40.821   9.153
 7116POPC   GL128873  26.785  40.796   8.853
 7116POPC   GL228874  26.730  40.703   8.853
 7116POPC   C1A28875  26.781  40.775   8.553
 7116POPC   D2A28876  26.783  40.812   8.253
 7116POPC   C3A28877  26.853  40.744   7.953
 7116POPC   C4A28878  26.801  40.744   7.653
 7116POPC   C1B28879  26.617  40.601   8.553
 7116POPC   C2B28880  26.577  40.654   8.253
 7116POPC   C3B28881  26.632  40.597   7.953
 7116POPC   C4B28882  26.616  40.647   7.653
 7117POPC   NC328883  14.373  24.492   9.453
 7117POPC   PO428884  14.378  24.448   9.153
 7117POPC   GL128885  14.386  24.495   8.853
 7117POPC   GL228886  14.395  24.410   8.853
 7117POPC   C1A28887  14.380  24.465   8.553
 7117POPC   D2A28888  14.435  24.446   8.253
 7117POPC   C3A28889  14.429  24.494   7.953
 7117POPC   C4A28890  14.425  24.533   7.653
 7117POPC   C1B28891  14.368  24.241   8.553
 7117POPC   C2B28892  14.317  24.207   8.253
 7117POPC   C3B28893  14.353  24.221   7.953
 7117POPC   C4B28894  14.303  24.294   7.653
 7118POPC   NC328895  34.568  36.878   9.453
 7118POPC   PO428896  34.577  36.913   9.153
 7118POPC   GL128897  34.588  36.877   8.853
 7118POPC   GL228898  34.583  36.743   8.853
 7118POPC   C1A28899  34.586  36.901   8.553
 7118POPC   D2A28900  34.581  36.909   8.253
 7118POPC   C3A28901  34.623  36.913   7.953
 7118POPC   C4A28902  34.545  36.896   7.653
 7118POPC   C1B28903  34.602  36.616   8.553
 7118POPC   C2B28904  34.512  36.683   8.253
 7118POPC   C3B28905  34.563  36.663   7.953
 7118POPC   C4B28906  34.588  36.691   7.653
 7119POPC   NC328907  30.714  38.473   9.453
 7119POPC   PO428908  30.656  38.432   9.153
 7119POPC   GL128909  30.684  38.485   8.853
 7119POPC   GL228910  30.554  38.459   8.853
 7119POPC   C1A28911  30.667  38.453   8.553
 7119POPC   D2A28912  30.722  38.492   8.253
 7119POPC   C3A28913  30.735  38.433   7.953
 7119POPC   C4A28914  30.733  38.484   7.653
 7119POPC   C1B28915  30.460  38.558   8.553
 7119POPC   C2B28916  30.454  38.536   8.253
 7119POPC   C3B28917  30.436  38.578   7.953
 7119POPC   C4B28918  30.432  38.527   7.653
 7120POPC   NC328919  12.894  38.489   9.453
 7120POPC   PO428920  12.841  38.423   9.153
 7120POPC   GL128921  12.835  38.491   8.853
 7120POPC   GL228922  12.847  38.385   8.853
 7120POPC   C1A28923  12.853  38.493   8.553
 7120POPC   D2A28924  12.824  38.455   8.253
 7120POPC   C3A28925  12.874  38.490   7.953
 7120POPC   C4A28926  12.816  38.486   7.653
 7120POPC   C1B28927  12.940  38.257   8.553
 7120POPC   C2B28928  12.928  38.203   8.253
 7120POPC   C3B28929  12.954  38.204   7.953
 7120POPC   C4B28930  12.922  38.195   7.653
 7121POPC   NC328931  14.362  43.090   9.453
 7121POPC   PO428932  14.366  43.156   9.153
 7121POPC   GL128933  14.449  43.066   8.853
 7121POPC   GL228934  14.469  43.034   8.853
 7121POPC   C1A28935  14.359  43.083   8.553
 7121POPC   D2A28936  14.370  43.124   8.253
 7121POPC   C3A28937  14.375  43.123   7.953
 7121POPC   C4A28938  14.412  43.146   7.653
 7121POPC   C1B28939  14.649  42.965   8.553
 7121POPC   C2B28940  14.560  42.989   8.253
 7121POPC   C3B28941  14.601  42.996   7.953
 7121POPC   C4B28942  14.608  42.968   7.653
 7122POPC   NC328943   8.173  35.354   9.453
 7122POPC   PO428944   8.148  35.343   9.153
 7122POPC   GL128945   8.234  35.342   8.853
 7122POPC   GL228946   8.249  35.444   8.853
 7122POPC   C1A28947   8.220  35.375   8.553
 7122POPC   D2A28948   8.213  35.377   8.253
 7122POPC   C3A28949   8.152  35.394   7.953
 7122POPC   C4A28950   8.155  35.375   7.653
 7122POPC   C1B28951   8.321  35.587   8.553
 7122POPC   C2B28952   8.350  35.525   8.253
 7122POPC   C3B28953   8.354  35.597   7.953
 7122POPC   C4B28954   8.336  35.509   7.653
 7123POPC   NC328955  15.998  23.730   9.453
 7123POPC   PO428956  15.984  23.698   9.153
 7123POPC   GL128957  15.938  23.700   8.853
 7123POPC   GL228958  16.013  23.563   8.853
 7123POPC   C1A28959  15.953  23.705   8.553
 7123POPC   D2A28960  15.909  23.683   8.253
 7123POPC   C3A28961  15.940  23.737   7.953
 7123POPC   C4A28962  15.991  23.708   7.653
 7123POPC   C1B28963  15.989  23.448   8.553
 7123POPC   C2B28964  15.970  23.460   8.253
 7123POPC   C3B28965  15.965  23.484   7.953
 7123POPC   C4B28966  15.942  23.509   7.653
 7124POPC   NC328967  31.433  29.143   9.453
 7124POPC   PO428968  31.473  29.108   9.153
 7124POPC   GL128969  31.517  29.116   8.853
 7124POPC   GL228970  31.542  29.081   8.853
 7124POPC   C1A28971  31.447  29.102   8.553
 7124POPC   D2A28972  31.503  29.184   8.253
 7124POPC   C3A28973  31.453  29.159   7.953
 7124POPC   C4A28974  31.518  29.194   7.653
 7124POPC   C1B28975  31.597  28.927   8.553
 7124POPC   C2B28976  31.619  28.919   8.253
 7124POPC   C3B28977  31.598  28.916   7.953
 7124POPC   C4B28978  31.610  28.979   7.653
 7125POPC   NC328979  36.137  19.882   9.453
 7125POPC   PO428980  36.112  19.865   9.153
 7125POPC   GL128981  36.099  19.789   8.853
 7125POPC   GL228982  36.077  19.869   8.853
 7125POPC   C1A28983  36.089  19.840   8.553
 7125POPC   D2A28984  36.091  19.847   8.253
 7125POPC   C3A28985  36.158  19.876   7.953
 7125POPC   C4A28986  36.172  19.809   7.653
 7125POPC   C1B28987  35.926  20.023   8.553
 7125POPC   C2B28988  35.929  20.007   8.253
 7125POPC   C3B28989  35.923  19.952   7.953
 7125POPC   C4B28990  35.885  19.977   7.653
 7126POPC   NC328991  31.458  38.494   9.453
 7126POPC   PO428992  31.425  38.476   9.153
 7126POPC   GL128993  31.458  38.484   8.853
 7126POPC   GL228994  31.533  38.439   8.853
 7126POPC   C1A28995  31.431  38.459   8.553
 7126POPC   D2A28996  31.469  38.459   8.253
 7126POPC   C3A28997  31.479  38.473   7.953
 7126POPC   C4A28998  31.440  38.470   7.653
 7126POPC   C1B28999  31.657  38.325   8.553
 7126POPC   C2B29000  31.671  38.365   8.253
 7126POPC   C3B29001  31.718  38.293   7.953
 7126POPC   C4B29002  31.649  38.325   7.653
 7127POPC   NC329003  39.988  36.136   9.453
 7127POPC   PO429004  39.958  36.110   9.153
 7127POPC   GL129005  40.020  36.127   8.853
 7127POPC   GL229006  39.962  36.013   8.853
 7127POPC   C1A29007  40.003  36.133   8.553
 7127POPC   D2A29008  40.037  36.136   8.253
 7127POPC   C3A29009  39.960  36.116   7.953
 7127POPC   C4A29010  40.039  36.174   7.653
 7127POPC   C1B29011  39.860  35.849   8.553
 7127POPC   C2B29012  39.949  35.894   8.253
 7127POPC   C3B29013  39.918  35.928   7.953
 7127POPC   C4B29014  39.941  35.858   7.653
 7128POPC   NC329015  15.991  22.186   9.453
 7128POPC   PO429016  15.918  22.170   9.153
 7128POPC   GL129017  15.994  22.175   8.853
 7128POPC   GL229018  16.032  22.034   8.853
 7128POPC   C1A29019  15.977  22.176   8.553
 7128POPC   D2A29020  16.003  22.178   8.253
 7128POPC   C3A29021  15.962  22.173   7.953
 7128POPC   C4A29022  15.927  22.199   7.653
 7128POPC   C1B29023  16.025  21.963   8.553
 7128POPC   C2B29024  15.979  21.959   8.253
 7128POPC   C3B29025  15.989  21.902   7.953
 7128POPC   C4B29026  16.017  21.895   7.653
 7129POPC   NC329027  22.973  40.825   9.453
 7129POPC   PO429028  22.926  40.739   9.153
 7129POPC   GL129029  22.932  40.797   8.853
 7129POPC   GL229030  23.050  40.817   8.853
 7129POPC   C1A29031  22.971  40.816   8.553
 7129POPC   D2A29032  22.900  40.825   8.253
 7129POPC   C3A29033  22.950  40.829   7.953
 7129POPC   C4A29034  22.910  40.791   7.653
 7129POPC   C1B29035  23.182  40.833   8.553
 7129POPC   C2B29036  23.137  40.847   8.253
 7129POPC   C3B29037  23.184  40.810   7.953
 7129POPC   C4B29038  23.214  40.802   7.653
 7130POPC   NC329039  10.507  35.304   9.453
 7130POPC   PO429040  10.506  35.327   9.153
 7130POPC   GL129041  10.571  35.386   8.853
 7130POPC   GL229042  10.434  35.479   8.853
 7130POPC   C1A29043  10.555  35.399   8.553
 7130POPC   D2A29044  10.504  35.350   8.253
 7130POPC   C3A29045  10.536  35.324   7.953
 7130POPC   C4A29046  10.490  35.363   7.653
 7130POPC   C1B29047  10.418  35.535   8.553
 7130POPC   C2B29048  10.389  35.507   8.253
 7130POPC   C3B29049  10.390  35.568   7.953
 7130POPC   C4B29050  10.369  35.558   7.653
 7131POPC   NC329051  24.456  23.752   9.453
 7131POPC   PO429052  24.499  23.690   9.153
 7131POPC   GL129053  24.441  23.723   8.853
 7131POPC   GL229054  24.486  23.588   8.853
 7131POPC   C1A29055  24.512  23.669   8.553
 7131POPC   D2A29056  24.445  23.735   8.253
 7131POPC   C3A29057  24.475  23.677   7.953
 7131POPC   C4A29058  24.446  23.699   7.653
 7131POPC   C1B29059  24.536  23.454   8.553
 7131POPC   C2B29060  24.560  23.428   8.253
 7131POPC   C3B29061  24.520  23.423   7.953
 7131POPC   C4B29062  24.557  23.452   7.653
 7132POPC   NC329063   5.120  43.150   9.453
 7132POPC   PO429064   5.103  43.097   9.153
 7132POPC   GL129065   5.139  43.109   8.853
 7132POPC   GL229066   5.014  43.050   8.853
 7132POPC   C1A29067   5.083  43.110   8.553
 7132POPC   D2A29068   5.110  43.071   8.253
 7132POPC   C3A29069   5.078  43.136   7.953
 7132POPC   C4A29070   5.115  43.101   7.653
 7132POPC   C1B29071   4.826  43.069   8.553
 7132POPC   C2B29072   4.879  43.057   8.253
 7132POPC   C3B29073   4.835  43.047   7.953
 7132POPC   C4B29074   4.880  43.128   7.653
 7133POPC   NC329075  35.392  13.591   9.453
 7133POPC   PO429076  35.321  13.636   9.153
 7133POPC   GL129077  35.359  13.600   8.853
 7133POPC   GL229078  35.254  13.550   8.853
 7133POPC   C1A29079  35.371  13.619   8.553
 7133POPC   D2A29080  35.330  13.664   8.253
 7133POPC   C3A29081  35.393  13.649   7.953
 7133POPC   C4A29082  35.393  13.645   7.653
 7133POPC   C1B29083  35.149  13.592   8.553
 7133POPC   C2B29084  35.102  13.537   8.253
 7133POPC   C3B29085  35.102  13.564   7.953
 7133POPC   C4B29086  35.126  13.579   7.653
 7134POPC   NC329087  26.782  17.486   9.453
 7134POPC   PO429088  26.847  17.520   9.153
 7134POPC   GL129089  26.841  17.539   8.853
 7134POPC   GL229090  26.957  17.596   8.853
 7134POPC   C1A29091  26.770  17.508   8.553
 7134POPC   D2A29092  26.851  17.512   8.253
 7134POPC   C3A29093  26.822  17.535   7.953
 7134POPC   C4A29094  26.807  17.476   7.653
 7134POPC   C1B29095  27.005  17.640   8.553
 7134POPC   C2B29096  27.039  17.612   8.253
 7134POPC   C3B29097  27.026  17.626   7.953
 7134POPC   C4B29098  27.072  17.673   7.653
 7135POPC   NC329099  13.597  34.581   9.453
 7135POPC   PO429100  13.632  34.605   9.153
 7135POPC   GL129101  13.634  34.540   8.853
 7135POPC   GL229102  13.725  34.447   8.853
 7135POPC   C1A29103  13.667  34.542   8.553
 7135POPC   D2A29104  13.640  34.537   8.253
 7135POPC   C3A29105  13.672  34.546   7.953
 7135POPC   C4A29106  13.650  34.587   7.653
 7135POPC   C1B29107  13.758  34.310   8.553
 7135POPC   C2B29108  13.783  34.352   8.253
 7135POPC   C3B29109  13.760  34.394   7.953
 7135POPC   C4B29110  13.716  34.342   7.653
 7136POPC   NC329111   1.244   0.416   9.453
 7136POPC   PO429112   1.247   0.488   9.153
 7136POPC   GL129113   1.166   0.410   8.853
 7136POPC   GL229114   1.043   0.440   8.853
 7136POPC   C1A29115   1.258   0.457   8.553
 7136POPC   D2A29116   1.199   0.438   8.253
 7136POPC   C3A29117   1.255   0.418   7.953
 7136POPC   C4A29118   1.201   0.449   7.653
 7136POPC   C1B29119   0.947   0.508   8.553
 7136POPC   C2B29120   0.963   0.459   8.253
 7136POPC   C3B29121   1.007   0.477   7.953
 7136POPC   C4B29122   0.954   0.513   7.653
 7137POPC   NC329123   7.425  15.930   9.453
 7137POPC   PO429124   7.380  15.960   9.153
 7137POPC   GL129125   7.411  15.960   8.853
 7137POPC   GL229126   7.389  16.060   8.853
 7137POPC   C1A29127   7.427  15.946   8.553
 7137POPC   D2A29128   7.375  15.912   8.253
 7137POPC   C3A29129   7.391  15.959   7.953
 7137POPC   C4A29130   7.430  15.905   7.653
 7137POPC   C1B29131   7.373  16.241   8.553
 7137POPC   C2B29132   7.437  16.166   8.253
 7137POPC   C3B29133   7.402  16.183   7.953
 7137POPC   C4B29134   7.443  16.235   7.653
 7138POPC   NC329135  41.549   5.825   9.453
 7138POPC   PO429136  41.592   5.907   9.153
 7138POPC   GL129137  41.566   5.842   8.853
 7138POPC   GL229138  41.461   5.883   8.853
 7138POPC   C1A29139  41.514   5.910   8.553
 7138POPC   D2A29140  41.518   5.886   8.253
 7138POPC   C3A29141  41.603   5.869   7.953
 7138POPC   C4A29142  41.548   5.917   7.653
 7138POPC   C1B29143  41.279   5.964   8.553
 7138POPC   C2B29144  41.351   5.975   8.253
 7138POPC   C3B29145  41.332   5.916   7.953
 7138POPC   C4B29146  41.290   6.002   7.653
 7139POPC   NC329147  29.928   5.089   9.453
 7139POPC   PO429148  29.899   5.131   9.153
 7139POPC   GL129149  29.908   5.084   8.853
 7139POPC   GL229150  29.987   4.998   8.853
 7139POPC   C1A29151  29.919   5.060   8.553
 7139POPC   D2A29152  29.882   5.082   8.253
 7139POPC   C3A29153  29.900   5.072   7.953
 7139POPC   C4A29154  29.874   5.120   7.653
 7139POPC   C1B29155  30.172   4.985   8.553
 7139POPC   C2B29156  30.110   4.954   8.253
 7139POPC   C3B29157  30.123   4.947   7.953
 7139POPC   C4B29158  30.123   5.044   7.653
 7140POPC   NC329159  27.588  33.051   9.453
 7140POPC   PO429160  27.550  32.977   9.153
 7140POPC   GL129161  27.563  32.989   8.853
 7140POPC   GL229162  27.662  32.961   8.853
 7140POPC   C1A29163  27.602  33.045   8.553
 7140POPC   D2A29164  27.556  33.024   8.253
 7140POPC   C3A29165  27.545  33.035   7.953
 7140POPC   C4A29166  27.616  33.051   7.653
 7140POPC   C1B29167  27.702  32.819   8.553
 7140POPC   C2B29168  27.714  32.782   8.253
 7140POPC   C3B29169  27.673  32.801   7.953
 7140POPC   C4B29170  27.719  32.815   7.653
 7141POPC   NC329171  19.010   8.923   9.453
 7141POPC   PO429172  19.056   9.008   9.153
 7141POPC   GL129173  19.035   8.924   8.853
 7141POPC   GL229174  19.141   8.947   8.853
 7141POPC   C1A29175  19.061   8.967   8.553
 7141POPC   D2A29176  19.064   8.938   8.253
 7141POPC   C3A29177  19.080   8.956   7.953
 7141POPC   C4A29178  19.056   8.930   7.653
 7141POPC   C1B29179  19.249   8.834   8.553
 7141POPC   C2B29180  19.272   8.902   8.253
 7141POPC   C3B29181  19.281   8.823   7.953
 7141POPC   C4B29182  19.292   8.911   7.653
 7142POPC   NC329183  20.573  39.238   9.453
 7142POPC   PO429184  20.634  39.251   9.153
 7142POPC   GL129185  20.568  39.279   8.853
 7142POPC   GL229186  20.711  39.282   8.853
 7142POPC   C1A29187  20.582  39.190   8.553
 7142POPC   D2A29188  20.589  39.270   8.253
 7142POPC   C3A29189  20.649  39.182   7.953
 7142POPC   C4A29190  20.564  39.225   7.653
 7142POPC   C1B29191  20.807  39.402   8.553
 7142POPC   C2B29192  20.787  39.326   8.253
 7142POPC   C3B29193  20.803  39.382   7.953
 7142POPC   C4B29194  20.858  39.321   7.653
 7143POPC   NC329195  24.469  24.505   9.453
 7143POPC   PO429196  24.472  24.532   9.153
 7143POPC   GL129197  24.443  24.460   8.853
 7143POPC   GL229198  24.511  24.628   8.853
 7143POPC   C1A29199  24.539  24.488   8.553
 7143POPC   D2A29200  24.472  24.503   8.253
 7143POPC   C3A29201  24.523  24.526   7.953
 7143POPC   C4A29202  24.481  24.519   7.653
 7143POPC   C1B29203  24.457  24.734   8.553
 7143POPC   C2B29204  24.418  24.705   8.253
 7143POPC   C3B29205  24.496  24.715   7.953
 7143POPC   C4B29206  24.457  24.693   7.653
 7144POPC   NC329207  27.559  21.357   9.453
 7144POPC   PO429208  27.569  21.352   9.153
 7144POPC   GL129209  27.559  21.431   8.853
 7144POPC   GL229210  27.679  21.297   8.853
 7144POPC   C1A29211  27.612  21.426   8.553
 7144POPC   D2A29212  27.628  21.407   8.253
 7144POPC   C3A29213  27.605  21.391   7.953
 7144POPC   C4A29214  27.601  21.343   7.653
 7144POPC   C1B29215  27.870  21.342   8.553
 7144POPC   C2B29216  27.860  21.273   8.253
 7144POPC   C3B29217  27.846  21.353   7.953
 7144POPC   C4B29218  27.843  21.282   7.653
 7145POPC   NC329219  16.686   5.074   9.453
 7145POPC   PO429220  16.741   5.086   9.153
 7145POPC   GL129221  16.731   5.138   8.853
 7145POPC   GL229222  16.609   5.120   8.853
 7145POPC   C1A29223  16.752   5.059   8.553
 7145POPC   D2A29224  16.717   5.103   8.253
 7145POPC   C3A29225  16.741   5.128   7.953
 7145POPC   C4A29226  16.746   5.112   7.653
 7145POPC   C1B29227  16.520   5.106   8.553
 7145POPC   C2B29228  16.460   5.134   8.253
 7145POPC   C3B29229  16.459   5.125   7.953
 7145POPC   C4B29230  16.501   5.193   7.653
 7146POPC   NC329231  36.884   7.390   9.453
 7146POPC   PO429232  36.941   7.431   9.153
 7146POPC   GL129233  36.941   7.434   8.853
 7146POPC   GL229234  36.806   7.504   8.853
 7146POPC   C1A29235  36.878   7.444   8.553
 7146POPC   D2A29236  36.915   7.408   8.253
 7146POPC   C3A29237  36.926   7.371   7.953
 7146POPC   C4A29238  36.870   7.377   7.653
 7146POPC   C1B29239  36.749   7.645   8.553
 7146POPC   C2B29240  36.777   7.575   8.253
 7146POPC   C3B29241  36.704   7.653   7.953
 7146POPC   C4B29242  36.724   7.659   7.653
 7147POPC   NC329243  19.024   4.345   9.453
 7147POPC   PO429244  19.033   4.355   9.153
 7147POPC   GL129245  19.097   4.315   8.853
 7147POPC   GL229246  18.933   4.281   8.853
 7147POPC   C1A29247  19.063   4.363   8.553
 7147POPC   D2A29248  19.015   4.318   8.253
 7147POPC   C3A29249  19.056   4.340   7.953
 7147POPC   C4A29250  19.031   4.316   7.653
 7147POPC   C1B29251  18.882   4.168   8.553
 7147POPC   C2B29252  18.858   4.208   8.253
 7147POPC   C3B29253  18.813   4.185   7.953
 7147POPC   C4B29254  18.885   4.183   7.653
 7148POPC   NC329255  43.083  23.682   9.453
 7148POPC   PO429256  43.101  23.697   9.153
 7148POPC   GL129257  43.118  23.716   8.853
 7148POPC   GL229258  43.224  23.814   8.853
 7148POPC   C1A29259  43.114  23.689   8.553
 7148POPC   D2A29260  43.091  23.743   8.253
 7148POPC   C3A29261  43.119  23.687   7.953
 7148POPC   C4A29262  43.123  23.734   7.653
 7148POPC   C1B29263  43.304  23.966   8.553
 7148POPC   C2B29264  43.221  23.940   8.253
 7148POPC   C3B29265  43.234  23.953   7.953
 7148POPC   C4B29266  43.266  23.869   7.653
 7149POPC   NC329267  11.311  32.264   9.453
 7149POPC   PO429268  11.298  32.231   9.153
 7149POPC   GL129269  11.285  32.224   8.853
 7149POPC   GL229270  11.369  32.143   8.853
 7149POPC   C1A29271  11.273  32.265   8.553
 7149POPC   D2A29272  11.330  32.293   8.253
 7149POPC   C3A29273  11.315  32.251   7.953
 7149POPC   C4A29274  11.332  32.237   7.653
 7149POPC   C1B29275  11.489  32.053   8.553
 7149POPC   C2B29276  11.438  32.096   8.253
 7149POPC   C3B29277  11.492  32.091   7.953
 7149POPC   C4B29278  11.448  32.104   7.653
 7150POPC   NC329279   5.098   7.452   9.453
 7150POPC   PO429280   5.099   7.383   9.153
 7150POPC   GL129281   5.124   7.372   8.853
 7150POPC   GL229282   5.021   7.342   8.853
 7150POPC   C1A29283   5.053   7.415   8.553
 7150POPC   D2A29284   5.125   7.434   8.253
 7150POPC   C3A29285   5.111   7.434   7.953
 7150POPC   C4A29286   5.074   7.379   7.653
 7150POPC   C1B29287   4.976   7.241   8.553
 7150POPC   C2B29288   5.006   7.167   8.253
 7150POPC   C3B29289   4.974   7.249   7.953
 7150POPC   C4B29290   4.943   7.198   7.653
 7151POPC   NC329291  29.886  19.077   9.453
 7151POPC   PO429292  29.969  19.043   9.153
 7151POPC   GL129293  29.874  19.107   8.853
 7151POPC   GL229294  29.989  18.961   8.853
 7151POPC   C1A29295  29.966  19.059   8.553
 7151POPC   D2A29296  29.944  19.022   8.253
 7151POPC   C3A29297  29.893  19.048   7.953
 7151POPC   C4A29298  29.928  19.070   7.653
 7151POPC   C1B29299  30.103  18.838   8.553
 7151POPC   C2B29300  30.016  18.848   8.253
 7151POPC   C3B29301  30.077  18.869   7.953
 7151POPC   C4B29302  30.059  18.888   7.653
 7152POPC   NC329303  18.252   7.467   9.453
 7152POPC   PO429304  18.251   7.387   9.153
 7152POPC   GL129305  18.248   7.391   8.853
 7152POPC   GL229306  18.425   7.366   8.853
 7152POPC   C1A29307  18.237   7.380   8.553
 7152POPC   D2A29308  18.243   7.462   8.253
 7152POPC   C3A29309  18.280   7.431   7.953
 7152POPC   C4A29310  18.285   7.453   7.653
 7152POPC   C1B29311  18.519   7.228   8.553
 7152POPC   C2B29312  18.451   7.233   8.253
 7152POPC   C3B29313  18.505   7.265   7.953
 7152POPC   C4B29314  18.480   7.254   7.653
 7153POPC   NC329315   1.991  18.312   9.453
 7153POPC   PO429316   1.949  18.277   9.153
 7153POPC   GL129317   1.972  18.313   8.853
 7153POPC   GL229318   1.885  18.216   8.853
 7153POPC   C1A29319   2.032  18.270   8.553
 7153POPC   D2A29320   1.985  18.323   8.253
 7153POPC   C3A29321   1.945  18.274   7.953
 7153POPC   C4A29322   2.021  18.311   7.653
 7153POPC   C1B29323   1.825  18.170   8.553
 7153POPC   C2B29324   1.743  18.124   8.253
 7153POPC   C3B29325   1.744  18.140   7.953
 7153POPC   C4B29326   1.757  18.108   7.653
 7154POPC   NC329327  24.445  29.949   9.453
 7154POPC   PO429328  24.513  29.895   9.153
 7154POPC   GL129329  24.467  29.908   8.853
 7154POPC   GL229330  24.573  29.865   8.853
 7154POPC   C1A29331  24.484  29.912   8.553
 7154POPC   D2A29332  24.508  29.879   8.253
 7154POPC   C3A29333  24.457  29.962   7.953
 7154POPC   C4A29334  24.441  29.879   7.653
 7154POPC   C1B29335  24.738  29.869   8.553
 7154POPC   C2B29336  24.713  29.932   8.253
 7154POPC   C3B29337  24.718  29.852   7.953
 7154POPC   C4B29338  24.756  29.902   7.653
 7155POPC   NC329339  27.583  40.791   9.453
 7155POPC   PO429340  27.548  40.833   9.153
 7155POPC   GL129341  27.641  40.776   8.853
 7155POPC   GL229342  27.555  40.661   8.853
 7155POPC   C1A29343  27.590  40.816   8.553
 7155POPC   D2A29344  27.589  40.745   8.253
 7155POPC   C3A29345  27.552  40.740   7.953
 7155POPC   C4A29346  27.577  40.759   7.653
 7155POPC   C1B29347  27.475  40.629   8.553
 7155POPC   C2B29348  27.467  40.544   8.253
 7155POPC   C3B29349  27.420  40.611   7.953
 7155POPC   C4B29350  27.486  40.566   7.653
 7156POPC   NC329351  26.863  38.427   9.453
 7156POPC   PO429352  26.797  38.444   9.153
 7156POPC   GL129353  26.781  38.480   8.853
 7156POPC   GL229354  26.881  38.288   8.853
 7156POPC   C1A29355  26.834  38.432   8.553
 7156POPC   D2A29356  26.808  38.456   8.253
 7156POPC   C3A29357  26.829  38.488   7.953
 7156POPC   C4A29358  26.848  38.442   7.653
 7156POPC   C1B29359  26.893  38.256   8.553
 7156POPC   C2B29360  26.947  38.207   8.253
 7156POPC   C3B29361  26.904  38.234   7.953
 7156POPC   C4B29362  26.867  38.207   7.653
 7157POPC   NC329363   1.220  19.010   9.453
 7157POPC   PO429364   1.225  19.081   9.153
 7157POPC   GL129365   1.202  19.014   8.853
 7157POPC   GL229366   1.297  18.907   8.853
 7157POPC   C1A29367   1.235  19.106   8.553
 7157POPC   D2A29368   1.221  19.041   8.253
 7157POPC   C3A29369   1.263  19.045   7.953
 7157POPC   C4A29370   1.165  19.056   7.653
 7157POPC   C1B29371   1.311  18.864   8.553
 7157POPC   C2B29372   1.358  18.825   8.253
 7157POPC   C3B29373   1.338  18.828   7.953
 7157POPC   C4B29374   1.350  18.891   7.653
 7158POPC   NC329375   3.558  21.355   9.453
 7158POPC   PO429376   3.580  21.338   9.153
 7158POPC   GL129377   3.495  21.358   8.853
 7158POPC   GL229378   3.417  21.297   8.853
 7158POPC   C1A29379   3.573  21.345   8.553
 7158POPC   D2A29380   3.562  21.390   8.253
 7158POPC   C3A29381   3.562  21.400   7.953
 7158POPC   C4A29382   3.514  21.397   7.653
 7158POPC   C1B29383   3.302  21.255   8.553
 7158POPC   C2B29384   3.261  21.298   8.253
 7158POPC   C3B29385   3.302  21.315   7.953
 7158POPC   C4B29386   3.305  21.331   7.653
 7159POPC   NC329387  44.696  40.739   9.453
 7159POPC   PO429388  44.653  40.776   9.153
 7159POPC   GL129389  44.630  40.751   8.853
 7159POPC   GL229390  44.755  40.719   8.853
 7159POPC   C1A29391  44.705  40.740   8.553
 7159POPC   D2A29392  44.669  40.787   8.253
 7159POPC   C3A29393  44.689  40.814   7.953
 7159POPC   C4A29394  44.689  40.761   7.653
 7159POPC   C1B29395  44.861  40.634   8.553
 7159POPC   C2B29396  44.827  40.647   8.253
 7159POPC   C3B29397  44.869  40.598   7.953
 7159POPC   C4B29398  44.858  40.612   7.653
 7160POPC   NC329399   0.391   7.440   9.453
 7160POPC   PO429400   0.426   7.378   9.153
 7160POPC   GL129401   0.465   7.461   8.853
 7160POPC   GL229402   0.298   7.495   8.853
 7160POPC   C1A29403   0.422   7.464   8.553
 7160POPC   D2A29404   0.459   7.445   8.253
 7160POPC   C3A29405   0.435   7.405   7.953
 7160POPC   C4A29406   0.467   7.401   7.653
 7160POPC   C1B29407   0.214   7.544   8.553
 7160POPC   C2B29408   0.300   7.632   8.253
 7160POPC   C3B29409   0.219   7.605   7.953
 7160POPC   C4B29410   0.241   7.612   7.653
 7161POPC   NC329411  10.565  34.588   9.453
 7161POPC   PO429412  10.528  34.602   9.153
 7161POPC   GL129413  10.529  34.559   8.853
 7161POPC   GL229414  10.536  34.652   8.853
 7161POPC   C1A29415  10.503  34.556   8.553
 7161POPC   D2A29416  10.522  34.594   8.253
 7161POPC   C3A29417  10.529  34.544   7.953
 7161POPC   C4A29418  10.501  34.586   7.653
 7161POPC   C1B29419  10.481  34.778   8.553
 7161POPC   C2B29420  10.562  34.791   8.253
 7161POPC   C3B29421  10.503  34.816   7.953
 7161POPC   C4B29422  10.506  34.806   7.653
 7162POPC   NC329423   2.723  22.181   9.453
 7162POPC   PO429424   2.799  22.144   9.153
 7162POPC   GL129425   2.722  22.113   8.853
 7162POPC   GL229426   2.633  22.131   8.853
 7162POPC   C1A29427   2.736  22.117   8.553
 7162POPC   D2A29428   2.792  22.151   8.253
 7162POPC   C3A29429   2.785  22.120   7.953
 7162POPC   C4A29430   2.734  22.175   7.653
 7162POPC   C1B29431   2.483  22.024   8.553
 7162POPC   C2B29432   2.501  22.059   8.253
 7162POPC   C3B29433   2.572  22.108   7.953
 7162POPC   C4B29434   2.539  22.108   7.653
 7163POPC   NC329435  10.495   2.749   9.453
 7163POPC   PO429436  10.475   2.744   9.153
 7163POPC   GL129437  10.550   2.718   8.853
 7163POPC   GL229438  10.592   2.930   8.853
 7163POPC   C1A29439  10.560   2.755   8.553
 7163POPC   D2A29440  10.516   2.728   8.253
 7163POPC   C3A29441  10.526   2.800   7.953
 7163POPC   C4A29442  10.537   2.757   7.653
 7163POPC   C1B29443  10.586   2.988   8.553
 7163POPC   C2B29444  10.539   3.046   8.253
 7163POPC   C3B29445  10.577   3.008   7.953
 7163POPC   C4B29446  10.540   3.006   7.653
 7164POPC   NC329447  17.473  43.884   9.453
 7164POPC   PO429448  17.523  43.843   9.153
 7164POPC   GL129449  17.552  43.864   8.853
 7164POPC   GL229450  17.371  43.933   8.853
 7164POPC   C1A29451  17.466  43.887   8.553
 7164POPC   D2A29452  17.505  43.864   8.253
 7164POPC   C3A29453  17.531  43.897   7.953
 7164POPC   C4A29454  17.465  43.840   7.653
 7164POPC   C1B29455  17.276  44.057   8.553
 7164POPC   C2B29456  17.276  44.062   8.253
 7164POPC   C3B29457  17.309  44.036   7.953
 7164POPC   C4B29458  17.333  44.095   7.653
 7165POPC   NC329459  29.912  18.312   9.453
 7165POPC   PO429460  29.964  18.268   9.153
 7165POPC   GL129461  29.879  18.325   8.853
 7165POPC   GL229462  29.964  18.183   8.853
 7165POPC   C1A29463  29.912  18.294   8.553
 7165POPC   D2A29464  29.938  18.283   8.253
 7165POPC   C3A29465  29.959  18.290   7.953
 7165POPC   C4A29466  29.967  18.294   7.653
 7165POPC   C1B29467  30.055  18.064   8.553
 7165POPC   C2B29468  30.031  18.050   8.253
 7165POPC   C3B29469  30.015  18.012   7.953
 7165POPC   C4B29470  30.000  18.080   7.653
 7166POPC   NC329471  26.021  36.931   9.453
 7166POPC   PO429472  26.078  36.869   9.153
 7166POPC   GL129473  26.064  36.952   8.853
 7166POPC   GL229474  25.913  37.003   8.853
 7166POPC   C1A29475  26.049  36.895   8.553
 7166POPC   D2A29476  25.996  36.899   8.253
 7166POPC   C3A29477  25.999  36.898   7.953
 7166POPC   C4A29478  26.064  36.858   7.653
 7166POPC   C1B29479  25.834  37.042   8.553
 7166POPC   C2B29480  25.806  36.992   8.253
 7166POPC   C3B29481  25.778  36.975   7.953
 7166POPC   C4B29482  25.863  37.007   7.653
 7167POPC   NC329483  35.330  14.422   9.453
 7167POPC   PO429484  35.354  14.378   9.153
 7167POPC   GL129485  35.340  14.426   8.853
 7167POPC   GL229486  35.322  14.512   8.853
 7167POPC   C1A29487  35.336  14.436   8.553
 7167POPC   D2A29488  35.357  14.399   8.253
 7167POPC   C3A29489  35.385  14.378   7.953
 7167POPC   C4A29490  35.370  14.416   7.653
 7167POPC   C1B29491  35.224  14.637   8.553
 7167POPC   C2B29492  35.227  14.655   8.253
 7167POPC   C3B29493  35.224  14.595   7.953
 7167POPC   C4B29494  35.184  14.583   7.653
 7168POPC   NC329495  15.142   1.260   9.453
 7168POPC   PO429496  15.130   1.250   9.153
 7168POPC   GL129497  15.147   1.231   8.853
 7168POPC   GL229498  15.302   1.206   8.853
 7168POPC   C1A29499  15.161   1.214   8.553
 7168POPC   D2A29500  15.184   1.197   8.253
 7168POPC   C3A29501  15.180   1.166   7.953
 7168POPC   C4A29502  15.143   1.214   7.653
 7168POPC   C1B29503  15.458   1.236   8.553
 7168POPC   C2B29504  15.379   1.184   8.253
 7168POPC   C3B29505  15.380   1.150   7.953
 7168POPC   C4B29506  15.383   1.205   7.653
 7169POPC   NC329507  18.328  39.185   9.453
 7169POPC   PO429508  18.302  39.193   9.153
 7169POPC   GL129509  18.273  39.183   8.853
 7169POPC   GL229510  18.339  39.294   8.853
 7169POPC   C1A29511  18.318  39.275   8.553
 7169POPC   D2A29512  18.331  39.235   8.253
 7169POPC   C3A29513  18.319  39.265   7.953
 7169POPC   C4A29514  18.324  39.222   7.653
 7169POPC   C1B29515  18.445  39.450   8.553
 7169POPC   C2B29516  18.430  39.462   8.253
 7169POPC   C3B29517  18.413  39.400   7.953
 7169POPC   C4B29518  18.440  39.458   7.653
 7170POPC   NC329519   2.807  17.459   9.453
 7170POPC   PO429520   2.721  17.497   9.153
 7170POPC   GL129521   2.738  17.463   8.853
 7170POPC   GL229522   2.779  17.365   8.853
 7170POPC   C1A29523   2.727  17.551   8.553
 7170POPC   D2A29524   2.727  17.510   8.253
 7170POPC   C3A29525   2.781  17.482   7.953
 7170POPC   C4A29526   2.725  17.518   7.653
 7170POPC   C1B29527   2.781  17.274   8.553
 7170POPC   C2B29528   2.876  17.236   8.253
 7170POPC   C3B29529   2.816  17.303   7.953
 7170POPC   C4B29530   2.829  17.295   7.653
 7171POPC   NC329531  39.256   1.180   9.453
 7171POPC   PO429532  39.214   1.211   9.153
 7171POPC   GL129533  39.212   1.200   8.853
 7171POPC   GL229534  39.288   1.101   8.853
 7171POPC   C1A29535  39.276   1.224   8.553
 7171POPC   D2A29536  39.246   1.234   8.253
 7171POPC   C3A29537  39.224   1.259   7.953
 7171POPC   C4A29538  39.254   1.176   7.653
 7171POPC   C1B29539  39.431   1.012   8.553
 7171POPC   C2B29540  39.380   1.090   8.253
 7171POPC   C3B29541  39.437   1.095   7.953
 7171POPC   C4B29542  39.432   1.025   7.653
 7172POPC   NC329543  31.432  43.892   9.453
 7172POPC   PO429544  31.463  43.843   9.153
 7172POPC   GL129545  31.458  43.919   8.853
 7172POPC   GL229546  31.590  43.866   8.853
 7172POPC   C1A29547  31.438  43.925   8.553
 7172POPC   D2A29548  31.456  43.927   8.253
 7172POPC   C3A29549  31.514  43.925   7.953
 7172POPC   C4A29550  31.438  43.900   7.653
 7172POPC   C1B29551  31.767  43.828   8.553
 7172POPC   C2B29552  31.752  43.887   8.253
 7172POPC   C3B29553  31.743  43.788   7.953
 7172POPC   C4B29554  31.717  43.813   7.653
 7173POPC   NC329555  33.072  26.802   9.453
 7173POPC   PO429556  33.073  26.779   9.153
 7173POPC   GL129557  33.028  26.825   8.853
 7173POPC   GL229558  32.875  26.843   8.853
 7173POPC   C1A29559  33.049  26.842   8.553
 7173POPC   D2A29560  32.987  26.844   8.253
 7173POPC   C3A29561  33.061  26.849   7.953
 7173POPC   C4A29562  33.043  26.867   7.653
 7173POPC   C1B29563  32.795  26.839   8.553
 7173POPC   C2B29564  32.748  26.856   8.253
 7173POPC   C3B29565  32.788  26.874   7.953
 7173POPC   C4B29566  32.821  26.881   7.653
 7174POPC   NC329567  33.751  42.347   9.453
 7174POPC   PO429568  33.805  42.334   9.153
 7174POPC   GL129569  33.776  42.322   8.853
 7174POPC   GL229570  33.764  42.248   8.853
 7174POPC   C1A29571  33.812  42.297   8.553
 7174POPC   D2A29572  33.784  42.368   8.253
 7174POPC   C3A29573  33.779  42.318   7.953
 7174POPC   C4A29574  33.831  42.379   7.653
 7174POPC   C1B29575  33.766  42.140   8.553
 7174POPC   C2B29576  33.764  42.104   8.253
 7174POPC   C3B29577  33.750  42.134   7.953
 7174POPC   C4B29578  33.698  42.104   7.653
 7175POPC   NC329579  39.239  43.838   9.453
 7175POPC   PO429580  39.261  43.915   9.153
 7175POPC   GL129581  39.220  43.921   8.853
 7175POPC   GL229582  39.349  43.927   8.853
 7175POPC   C1A29583  39.266  43.852   8.553
 7175POPC   D2A29584  39.253  43.906   8.253
 7175POPC   C3A29585  39.240  43.866   7.953
 7175POPC   C4A29586  39.236  43.840   7.653
 7175POPC   C1B29587  39.502  44.021   8.553
 7175POPC   C2B29588  39.410  43.960   8.253
 7175POPC   C3B29589  39.438  43.991   7.953
 7175POPC   C4B29590  39.474  44.001   7.653
 7176POPC   NC329591  23.691  29.194   9.453
 7176POPC   PO429592  23.750  29.109   9.153
 7176POPC   GL129593  23.759  29.189   8.853
 7176POPC   GL229594  23.812  29.189   8.853
 7176POPC   C1A29595  23.688  29.137   8.553
 7176POPC   D2A29596  23.684  29.111   8.253
 7176POPC   C3A29597  23.731  29.139   7.953
 7176POPC   C4A29598  23.664  29.166   7.653
 7176POPC   C1B29599  23.839  29.381   8.553
 7176POPC   C2B29600  23.850  29.329   8.253
 7176POPC   C3B29601  23.925  29.379   7.953
 7176POPC   C4B29602  23.904  29.371   7.653
 7177POPC   NC329603  21.400   1.208   9.453
 7177POPC   PO429604  21.343   1.250   9.153
 7177POPC   GL129605  21.424   1.197   8.853
 7177POPC   GL229606  21.386   1.044   8.853
 7177POPC   C1A29607  21.416   1.211   8.553
 7177POPC   D2A29608  21.408   1.194   8.253
 7177POPC   C3A29609  21.402   1.247   7.953
 7177POPC   C4A29610  21.417   1.230   7.653
 7177POPC   C1B29611  21.392   0.945   8.553
 7177POPC   C2B29612  21.357   0.942   8.253
 7177POPC   C3B29613  21.388   0.946   7.953
 7177POPC   C4B29614  21.392   0.938   7.653
 7178POPC   NC329615  24.523  27.639   9.453
 7178POPC   PO429616  24.536  27.606   9.153
 7178POPC   GL129617  24.510  27.563   8.853
 7178POPC   GL229618  24.369  27.516   8.853
 7178POPC   C1A29619  24.513  27.585   8.553
 7178POPC   D2A29620  24.467  27.616   8.253
 7178POPC   C3A29621  24.490  27.560   7.953
 7178POPC   C4A29622  24.533  27.563   7.653
 7178POPC   C1B29623  24.261  27.552   8.553
 7178POPC   C2B29624  24.298  27.529   8.253
 7178POPC   C3B29625  24.221  27.529   7.953
 7178POPC   C4B29626  24.227  27.523   7.653
 7179POPC   NC329627  24.465   8.988   9.453
 7179POPC   PO429628  24.538   8.932   9.153
 7179POPC   GL129629  24.441   8.959   8.853
 7179POPC   GL229630  24.355   9.100   8.853
 7179POPC   C1A29631  24.443   8.936   8.553
 7179POPC   D2A29632  24.533   8.926   8.253
 7179POPC   C3A29633  24.441   9.021   7.953
 7179POPC   C4A29634  24.522   8.963   7.653
 7179POPC   C1B29635  24.356   9.183   8.553
 7179POPC   C2B29636  24.279   9.177   8.253
 7179POPC   C3B29637  24.296   9.159   7.953
 7179POPC   C4B29638  24.295   9.126   7.653
 7180POPC   NC329639  32.227  19.009   9.453
 7180POPC   PO429640  32.213  19.030   9.153
 7180POPC   GL129641  32.261  19.052   8.853
 7180POPC   GL229642  32.412  19.047   8.853
 7180POPC   C1A29643  32.256  19.025   8.553
 7180POPC   D2A29644  32.277  19.030   8.253
 7180POPC   C3A29645  32.235  19.063   7.953
 7180POPC   C4A29646  32.261  19.027   7.653
 7180POPC   C1B29647  32.529  18.991   8.553
 7180POPC   C2B29648  32.500  19.016   8.253
 7180POPC   C3B29649  32.455  19.013   7.953
 7180POPC   C4B29650  32.509  18.997   7.653
 7181POPC   NC329651   5.825  29.165   9.453
 7181POPC   PO429652   5.855  29.192   9.153
 7181POPC   GL129653   5.919  29.116   8.853
 7181POPC   GL229654   5.964  29.111   8.853
 7181POPC   C1A29655   5.876  29.117   8.553
 7181POPC   D2A29656   5.886  29.097   8.253
 7181POPC   C3A29657   5.837  29.140   7.953
 7181POPC   C4A29658   5.877  29.146   7.653
 7181POPC   C1B29659   6.156  29.146   8.553
 7181POPC   C2B29660   6.134  29.172   8.253
 7181POPC   C3B29661   6.159  29.181   7.953
 7181POPC   C4B29662   6.134  29.220   7.653
 7182POPC   NC329663  38.488  37.680   9.453
 7182POPC   PO429664  38.465  37.674   9.153
 7182POPC   GL129665  38.439  37.686   8.853
 7182POPC   GL229666  38.416  37.516   8.853
 7182POPC   C1A29667  38.435  37.691   8.553
 7182POPC   D2A29668  38.445  37.638   8.253
 7182POPC   C3A29669  38.410  37.722   7.953
 7182POPC   C4A29670  38.458  37.715   7.653
 7182POPC   C1B29671  38.346  37.400   8.553
 7182POPC   C2B29672  38.421  37.417   8.253
 7182POPC   C3B29673  38.430  37.465   7.953
 7182POPC   C4B29674  38.354  37.437   7.653
 7183POPC   NC329675  42.309  32.231   9.453
 7183POPC   PO429676  42.304  32.209   9.153
 7183POPC   GL129677  42.378  32.238   8.853
 7183POPC   GL229678  42.192  32.320   8.853
 7183POPC   C1A29679  42.310  32.268   8.553
 7183POPC   D2A29680  42.327  32.213   8.253
 7183POPC   C3A29681  42.373  32.255   7.953
 7183POPC   C4A29682  42.311  32.292   7.653
 7183POPC   C1B29683  42.172  32.383   8.553
 7183POPC   C2B29684  42.170  32.378   8.253
 7183POPC   C3B29685  42.097  32.341   7.953
 7183POPC   C4B29686  42.101  32.395   7.653
 7184POPC   NC329687   6.667  12.033   9.453
 7184POPC   PO429688   6.662  12.073   9.153
 7184POPC   GL129689   6.676  12.043   8.853
 7184POPC   GL229690   6.718  12.017   8.853
 7184POPC   C1A29691   6.694  12.084   8.553
 7184POPC   D2A29692   6.642  12.115   8.253
 7184POPC   C3A29693   6.610  12.067   7.953
 7184POPC   C4A29694   6.691  12.100   7.653
 7184POPC   C1B29695   6.847  12.021   8.553
 7184POPC   C2B29696   6.877  11.951   8.253
 7184POPC   C3B29697   6.897  11.999   7.953
 7184POPC   C4B29698   6.905  11.945   7.653
 7185POPC   NC329699  22.125  35.381   9.453
 7185POPC   PO429700  22.146  35.309   9.153
 7185POPC   GL129701  22.152  35.376   8.853
 7185POPC   GL229702  22.309  35.408   8.853
 7185POPC   C1A29703  22.186  35.308   8.553
 7185POPC   D2A29704  22.141  35.386   8.253
 7185POPC   C3A29705  22.148  35.377   7.953
 7185POPC   C4A29706  22.180  35.385   7.653
 7185POPC   C1B29707  22.354  35.450   8.553
 7185POPC   C2B29708  22.360  35.444   8.253
 7185POPC   C3B29709  22.414  35.414   7.953
 7185POPC   C4B29710  22.370  35.460   7.653
 7186POPC   NC329711  37.630  38.488   9.453
 7186POPC   PO429712  37.641  38.491   9.153
 7186POPC   GL129713  37.686  38.444   8.853
 7186POPC   GL229714  37.691  38.345   8.853
 7186POPC   C1A29715  37.722  38.429   8.553
 7186POPC   D2A29716  37.686  38.453   8.253
 7186POPC   C3A29717  37.710  38.451   7.953
 7186POPC   C4A29718  37.673  38.477   7.653
 7186POPC   C1B29719  37.778  38.205   8.553
 7186POPC   C2B29720  37.765  38.217   8.253
 7186POPC   C3B29721  37.738  38.177   7.953
 7186POPC   C4B29722  37.747  38.229   7.653
 7187POPC   NC329723   8.178   3.580   9.453
 7187POPC   PO429724   8.183   3.502   9.153
 7187POPC   GL129725   8.162   3.498   8.853
 7187POPC   GL229726   8.036   3.548   8.853
 7187POPC   C1A29727   8.213   3.533   8.553
 7187POPC   D2A29728   8.238   3.538   8.253
 7187POPC   C3A29729   8.224   3.511   7.953
 7187POPC   C4A29730   8.148   3.534   7.653
 7187POPC   C1B29731   7.919   3.603   8.553
 7187POPC   C2B29732   7.965   3.692   8.253
 7187POPC   C3B29733   7.936   3.671   7.953
 7187POPC   C4B29734   7.990   3.681   7.653
 7188POPC   NC329735  43.073  17.499   9.453
 7188POPC   PO429736  43.070  17.486   9.153
 7188POPC   GL129737  43.106  17.525   8.853
 7188POPC   GL229738  43.049  17.383   8.853
 7188POPC   C1A29739  43.109  17.547   8.553
 7188POPC   D2A29740  43.070  17.496   8.253
 7188POPC   C3A29741  43.079  17.536   7.953
 7188POPC   C4A29742  43.078  17.505   7.653
 7188POPC   C1B29743  42.998  17.255   8.553
 7188POPC   C2B29744  42.999  17.285   8.253
 7188POPC   C3B29745  43.035  17.223   7.953
 7188POPC   C4B29746  43.042  17.258   7.653
 7189POPC   NC329747  17.512  12.052   9.453
 7189POPC   PO429748  17.511  12.124   9.153
 7189POPC   GL129749  17.496  12.110   8.853
 7189POPC   GL229750  17.424  12.049   8.853
 7189POPC   C1A29751  17.485  12.091   8.553
 7189POPC   D2A29752  17.467  12.113   8.253
 7189POPC   C3A29753  17.529  12.068   7.953
 7189POPC   C4A29754  17.478  12.123   7.653
 7189POPC   C1B29755  17.299  12.042   8.553
 7189POPC   C2B29756  17.245  11.959   8.253
 7189POPC   C3B29757  17.309  11.991   7.953
 7189POPC   C4B29758  17.230  12.018   7.653
 7190POPC   NC329759  22.952  20.624   9.453
 7190POPC   PO429760  22.894  20.639   9.153
 7190POPC   GL129761  22.963  20.578   8.853
 7190POPC   GL229762  22.849  20.586   8.853
 7190POPC   C1A29763  22.920  20.603   8.553
 7190POPC   D2A29764  22.945  20.576   8.253
 7190POPC   C3A29765  22.980  20.639   7.953
 7190POPC   C4A29766  22.947  20.640   7.653
 7190POPC   C1B29767  22.700  20.605   8.553
 7190POPC   C2B29768  22.710  20.595   8.253
 7190POPC   C3B29769  22.720  20.573   7.953
 7190POPC   C4B29770  22.720  20.601   7.653
 7191POPC   NC329771  30.682  31.491   9.453
 7191POPC   PO429772  30.651  31.439   9.153
 7191POPC   GL129773  30.741  31.475   8.853
 7191POPC   GL229774  30.770  31.454   8.853
 7191POPC   C1A29775  30.689  31.463   8.553
 7191POPC   D2A29776  30.698  31.492   8.253
 7191POPC   C3A29777  30.653  31.446   7.953
 7191POPC   C4A29778  30.662  31.449   7.653
 7191POPC   C1B29779  30.975  31.390   8.553
 7191POPC   C2B29780  30.900  31.429   8.253
 7191POPC   C3B29781  30.934  31.390   7.953
 7191POPC   C4B29782  30.934  31.419   7.653
 7192POPC   NC329783  15.150   3.563   9.453
 7192POPC   PO429784  15.138   3.495   9.153
 7192POPC   GL129785  15.149   3.537   8.853
 7192POPC   GL229786  15.188   3.387   8.853
 7192POPC   C1A29787  15.221   3.587   8.553
 7192POPC   D2A29788  15.140   3.590   8.253
 7192POPC   C3A29789  15.178   3.525   7.953
 7192POPC   C4A29790  15.214   3.589   7.653
 7192POPC   C1B29791  15.194   3.262   8.553
 7192POPC   C2B29792  15.153   3.271   8.253
 7192POPC   C3B29793  15.164   3.313   7.953
 7192POPC   C4B29794  15.128   3.291   7.653
 7193POPC   NC329795  12.112  39.275   9.453
 7193POPC   PO429796  12.105  39.220   9.153
 7193POPC   GL129797  12.033  39.273   8.853
 7193POPC   GL229798  12.083  39.072   8.853
 7193POPC   C1A29799  12.077  39.221   8.553
 7193POPC   D2A29800  12.099  39.256   8.253
 7193POPC   C3A29801  12.099  39.253   7.953
 7193POPC   C4A29802  12.081  39.232   7.653
 7193POPC   C1B29803  12.106  38.981   8.553
 7193POPC   C2B29804  12.081  38.952   8.253
 7193POPC   C3B29805  12.015  38.942   7.953
 7193POPC   C4B29806  12.051  38.977   7.653
 7194POPC   NC329807  33.798  16.738   9.453
 7194POPC   PO429808  33.784  16.684   9.153
 7194POPC   GL129809  33.751  16.745   8.853
 7194POPC   GL229810  33.668  16.737   8.853
 7194POPC   C1A29811  33.815  16.748   8.553
 7194POPC   D2A29812  33.786  16.773   8.253
 7194POPC   C3A29813  33.776  16.736   7.953
 7194POPC   C4A29814  33.759  16.719   7.653
 7194POPC   C1B29815  33.560  16.852   8.553
 7194POPC   C2B29816  33.550  16.843   8.253
 7194POPC   C3B29817  33.592  16.794   7.953
 7194POPC   C4B29818  33.617  16.845   7.653
 7195POPC   NC329819   5.118  11.309   9.453
 7195POPC   PO429820   5.136  11.345   9.153
 7195POPC   GL129821   5.076  11.323   8.853
 7195POPC   GL229822   5.120  11.182   8.853
 7195POPC   C1A29823   5.099  11.301   8.553
 7195POPC   D2A29824   5.050  11.289   8.253
 7195POPC   C3A29825   5.104  11.252   7.953
 7195POPC   C4A29826   5.102  11.330   7.653
 7195POPC   C1B29827   5.007  11.080   8.553
 7195POPC   C2B29828   5.070  11.089   8.253
 7195POPC   C3B29829   5.068  11.068   7.953
 7195POPC   C4B29830   4.999  11.059   7.653
 7196POPC   NC329831  38.470  38.428   9.453
 7196POPC   PO429832  38.475  38.478   9.153
 7196POPC   GL129833  38.498  38.484   8.853
 7196POPC   GL229834  38.382  38.533   8.853
 7196POPC   C1A29835  38.498  38.496   8.553
 7196POPC   D2A29836  38.491  38.458   8.253
 7196POPC   C3A29837  38.492  38.442   7.953
 7196POPC   C4A29838  38.457  38.505   7.653
 7196POPC   C1B29839  38.226  38.512   8.553
 7196POPC   C2B29840  38.200  38.572   8.253
 7196POPC   C3B29841  38.223  38.516   7.953
 7196POPC   C4B29842  38.251  38.549   7.653
 7197POPC   NC329843  14.420  39.212   9.453
 7197POPC   PO429844  14.357  39.277   9.153
 7197POPC   GL129845  14.378  39.229   8.853
 7197POPC   GL229846  14.260  39.297   8.853
 7197POPC   C1A29847  14.450  39.257   8.553
 7197POPC   D2A29848  14.397  39.222   8.253
 7197POPC   C3A29849  14.386  39.213   7.953
 7197POPC   C4A29850  14.393  39.226   7.653
 7197POPC   C1B29851  14.227  39.385   8.553
 7197POPC   C2B29852  14.221  39.353   8.253
 7197POPC   C3B29853  14.215  39.332   7.953
 7197POPC   C4B29854  14.231  39.340   7.653
 7198POPC   NC329855  26.786  26.024   9.453
 7198POPC   PO429856  26.841  26.016   9.153
 7198POPC   GL129857  26.797  26.016   8.853
 7198POPC   GL229858  26.671  25.954   8.853
 7198POPC   C1A29859  26.864  26.045   8.553
 7198POPC   D2A29860  26.844  26.037   8.253
 7198POPC   C3A29861  26.861  25.994   7.953
 7198POPC   C4A29862  26.829  26.032   7.653
 7198POPC   C1B29863  26.604  25.883   8.553
 7198POPC   C2B29864  26.602  25.919   8.253
 7198POPC   C3B29865  26.564  25.921   7.953
 7198POPC   C4B29866  26.569  25.917   7.653
 7199POPC   NC329867   9.708  26.768   9.453
 7199POPC   PO429868   9.725  26.803   9.153
 7199POPC   GL129869   9.719  26.820   8.853
 7199POPC   GL229870   9.786  26.962   8.853
 7199POPC   C1A29871   9.713  26.831   8.553
 7199POPC   D2A29872   9.743  26.796   8.253
 7199POPC   C3A29873   9.776  26.791   7.953
 7199POPC   C4A29874   9.754  26.807   7.653
 7199POPC   C1B29875   9.901  27.025   8.553
 7199POPC   C2B29876   9.874  27.018   8.253
 7199POPC   C3B29877   9.898  26.997   7.953
 7199POPC   C4B29878   9.897  27.066   7.653
 7200POPC   NC329879  19.789   5.904   9.453
 7200POPC   PO429880  19.848   5.857   9.153
 7200POPC   GL129881  19.841   5.888   8.853
 7200POPC   GL229882  19.751   5.939   8.853
 7200POPC   C1A29883  19.807   5.857   8.553
 7200POPC   D2A29884  19.873   5.846   8.253
 7200POPC   C3A29885  19.869   5.871   7.953
 7200POPC   C4A29886  19.845   5.907   7.653
 7200POPC   C1B29887  19.592   5.934   8.553
 7200POPC   C2B29888  19.554   5.902   8.253
 7200POPC   C3B29889  19.610   5.958   7.953
 7200POPC   C4B29890  19.594   5.922   7.653
 7201POPC   NC329891  18.277  26.003   9.453
 7201POPC   PO429892  18.241  26.054   9.153
 7201POPC   GL129893  18.273  26.089   8.853
 7201POPC   GL229894  18.448  26.026   8.853
 7201POPC   C1A29895  18.266  26.047   8.553
 7201POPC   D2A29896  18.307  26.088   8.253
 7201POPC   C3A29897  18.317  26.009   7.953
 7201POPC   C4A29898  18.303  26.049   7.653
 7201POPC   C1B29899  18.498  26.049   8.553
 7201POPC   C2B29900  18.576  26.025   8.253
 7201POPC   C3B29901  18.510  26.077   7.953
 7201POPC   C4B29902  18.485  26.104   7.653
 7202POPC   NC329903   7.433   9.765   9.453
 7202POPC   PO429904   7.459   9.764   9.153
 7202POPC   GL129905   7.465   9.757   8.853
 7202POPC   GL229906   7.457   9.912   8.853
 7202POPC   C1A29907   7.394   9.796   8.553
 7202POPC   D2A29908   7.399   9.719   8.253
 7202POPC   C3A29909   7.435   9.749   7.953
 7202POPC   C4A29910   7.432   9.776   7.653
 7202POPC   C1B29911   7.480   9.965   8.553
 7202POPC   C2B29912   7.479   9.958   8.253
 7202POPC   C3B29913   7.543   9.970   7.953
 7202POPC   C4B29914   7.480   9.927   7.653
 7203POPC   NC329915  22.948  32.285   9.453
 7203POPC   PO429916  22.977  32.236   9.153
 7203POPC   GL129917  22.985  32.211   8.853
 7203POPC   GL229918  22.911  32.124   8.853
 7203POPC   C1A29919  22.920  32.213   8.553
 7203POPC   D2A29920  22.915  32.268   8.253
 7203POPC   C3A29921  22.894  32.208   7.953
 7203POPC   C4A29922  22.957  32.255   7.653
 7203POPC   C1B29923  22.914  32.048   8.553
 7203POPC   C2B29924  22.917  31.978   8.253
 7203POPC   C3B29925  22.925  32.028   7.953
 7203POPC   C4B29926  22.924  31.973   7.653
 7204POPC   NC329927  42.343  30.649   9.453
 7204POPC   PO429928  42.338  30.651   9.153
 7204POPC   GL129929  42.295  30.697   8.853
 7204POPC   GL229930  42.240  30.722   8.853
 7204POPC   C1A29931  42.302  30.708   8.553
 7204POPC   D2A29932  42.329  30.647   8.253
 7204POPC   C3A29933  42.343  30.681   7.953
 7204POPC   C4A29934  42.382  30.719   7.653
 7204POPC   C1B29935  42.099  30.726   8.553
 7204POPC   C2B29936  42.096  30.692   8.253
 7204POPC   C3B29937  42.079  30.739   7.953
 7204POPC   C4B29938  42.125  30.706   7.653
 7205POPC   NC329939  27.561  23.754   9.453
 7205POPC   PO429940  27.635  23.755   9.153
 7205POPC   GL129941  27.556  23.757   8.853
 7205POPC   GL229942  27.508  23.631   8.853
 7205POPC   C1A29943  27.555  23.666   8.553
 7205POPC   D2A29944  27.568  23.726   8.253
 7205POPC   C3A29945  27.578  23.682   7.953
 7205POPC   C4A29946  27.597  23.762   7.653
 7205POPC   C1B29947  27.381  23.575   8.553
 7205POPC   C2B29948  27.435  23.591   8.253
 7205POPC   C3B29949  27.405  23.521   7.953
 7205POPC   C4B29950  27.401  23.505   7.653
 7206POPC   NC329951  28.414  24.446   9.453
 7206POPC   PO429952  28.366  24.537   9.153
 7206POPC   GL129953  28.400  24.496   8.853
 7206POPC   GL229954  28.514  24.529   8.853
 7206POPC   C1A29955  28.387  24.498   8.553
 7206POPC   D2A29956  28.323  24.458   8.253
 7206POPC   C3A29957  28.345  24.504   7.953
 7206POPC   C4A29958  28.339  24.468   7.653
 7206POPC   C1B29959  28.610  24.469   8.553
 7206POPC   C2B29960  28.587  24.476   8.253
 7206POPC   C3B29961  28.640  24.497   7.953
 7206POPC   C4B29962  28.616  24.521   7.653
 7207POPC   NC329963   1.940  37.636   9.453
 7207POPC   PO429964   1.940  37.701   9.153
 7207POPC   GL129965   1.986  37.716   8.853
 7207POPC   GL229966   1.892  37.729   8.853
 7207POPC   C1A29967   1.940  37.643   8.553
 7207POPC   D2A29968   1.948  37.720   8.253
 7207POPC   C3A29969   1.976  37.719   7.953
 7207POPC   C4A29970   1.967  37.722   7.653
 7207POPC   C1B29971   1.756  37.873   8.553
 7207POPC   C2B29972   1.835  37.862   8.253
 7207POPC   C3B29973   1.789  37.842   7.953
 7207POPC   C4B29974   1.844  37.804   7.653
 7208POPC   NC329975   4.322  19.044   9.453
 7208POPC   PO429976   4.326  19.063   9.153
 7208POPC   GL129977   4.326  19.109   8.853
 7208POPC   GL229978   4.181  19.119   8.853
 7208POPC   C1A29979   4.337  19.034   8.553
 7208POPC   D2A29980   4.324  19.025   8.253
 7208POPC   C3A29981   4.270  19.035   7.953
 7208POPC   C4A29982   4.273  19.109   7.653
 7208POPC   C1B29983   4.157  19.204   8.553
 7208POPC   C2B29984   4.094  19.181   8.253
 7208POPC   C3B29985   4.145  19.266   7.953
 7208POPC   C4B29986   4.154  19.265   7.653
 7209POPC   NC329987  40.807  44.697   9.453
 7209POPC   PO429988  40.815  44.680   9.153
 7209POPC   GL129989  40.783  44.680   8.853
 7209POPC   GL229990  40.706  44.749   8.853
 7209POPC   C1A29991  40.827  44.639   8.553
 7209POPC   D2A29992  40.737  44.695   8.253
 7209POPC   C3A29993  40.756  44.662   7.953
 7209POPC   C4A29994  40.803  44.685   7.653
 7209POPC   C1B29995  40.590  44.803   8.553
 7209POPC   C2B29996  40.619  44.825   8.253
 7209POPC   C3B29997  40.641  44.807   7.953
 7209POPC   C4B29998  40.620  44.815   7.653
 7210POPC   NC329999  41.586  22.123   9.453
 7210POPC   PO430000  41.582  22.167   9.153
 7210POPC   GL130001  41.540  22.132   8.853
 7210POPC   GL230002  41.438  22.218   8.853
 7210POPC   C1A30003  41.578  22.149   8.553
 7210POPC   D2A30004  41.586  22.151   8.253
 7210POPC   C3A30005  41.522  22.132   7.953
 7210POPC   C4A30006  41.552  22.149   7.653
 7210POPC   C1B30007  41.410  22.414   8.553
 7210POPC   C2B30008  41.398  22.394   8.253
 7210POPC   C3B30009  41.409  22.391   7.953
 7210POPC   C4B30010  41.402  22.330   7.653
 7211POPC   NC330011  35.323  20.649   9.453
 7211POPC   PO430012  35.400  20.610   9.153
 7211POPC   GL130013  35.387  20.614   8.853
 7211POPC   GL230014  35.437  20.740   8.853
 7211POPC   C1A30015  35.370  20.639   8.553
 7211POPC   D2A30016  35.308  20.623   8.253
 7211POPC   C3A30017  35.398  20.599   7.953
 7211POPC   C4A30018  35.344  20.593   7.653
 7211POPC   C1B30019  35.502  20.841   8.553
 7211POPC   C2B30020  35.516  20.841   8.253
 7211POPC   C3B30021  35.494  20.821   7.953
 7211POPC   C4B30022  35.504  20.822   7.653
 7212POPC   NC330023  29.101   4.351   9.453
 7212POPC   PO430024  29.177   4.305   9.153
 7212POPC   GL130025  29.150   4.290   8.853
 7212POPC   GL230026  29.022   4.425   8.853
 7212POPC   C1A30027  29.100   4.267   8.553
 7212POPC   D2A30028  29.139   4.316   8.253
 7212POPC   C3A30029  29.167   4.366   7.953
 7212POPC   C4A30030  29.106   4.310   7.653
 7212POPC   C1B30031  28.907   4.426   8.553
 7212POPC   C2B30032  28.901   4.436   8.253
 7212POPC   C3B30033  28.960   4.461   7.953
 7212POPC   C4B30034  28.894   4.463   7.653
 7213POPC   NC330035  44.621  18.332   9.453
 7213POPC   PO430036  44.662  18.252   9.153
 7213POPC   GL130037  44.675  18.315   8.853
 7213POPC   GL230038  44.517  18.241   8.853
 7213POPC   C1A30039  44.618  18.239   8.553
 7213POPC   D2A30040  44.663  18.260   8.253
 7213POPC   C3A30041  44.688  18.325   7.953
 7213POPC   C4A30042  44.661  18.302   7.653
 7213POPC   C1B30043  44.430  18.150   8.553
 7213POPC   C2B30044  44.443  18.228   8.253
 7213POPC   C3B30045  44.448  18.186   7.953
 7213POPC   C4B30046  44.412  18.146   7.653
 7214POPC   NC330047  23.743  23.696   9.453
 7214POPC   PO430048  23.690  23.722   9.153
 7214POPC   GL130049  23.748  23.734   8.853
 7214POPC   GL230050  23.602  23.679   8.853
 7214POPC   C1A30051  23.710  23.685   8.553
 7214POPC   D2A30052  23.682  23.694   8.253
 7214POPC   C3A30053  23.733  23.711   7.953
 7214POPC   C4A30054  23.693  23.665   7.653
 7214POPC   C1B30055  23.446  23.730   8.553
 7214POPC   C2B30056  23.421  23.692   8.253
 7214POPC   C3B30057  23.500  23.737   7.953
 7214POPC   C4B30058  23.457  23.742   7.653
 7215POPC   NC330059  26.066   3.504   9.453
 7215POPC   PO430060  26.023   3.579   9.153
 7215POPC   GL130061  26.036   3.538   8.853
 7215POPC   GL230062  26.102   3.672   8.853
 7215POPC   C1A30063  26.051   3.564   8.553
 7215POPC   D2A30064  26.076   3.557   8.253
 7215POPC   C3A30065  26.037   3.504   7.953
 7215POPC   C4A30066  26.029   3.562   7.653
 7215POPC   C1B30067  26.170   3.801   8.553
 7215POPC   C2B30068  26.124   3.814   8.253
 7215POPC   C3B30069  26.137   3.779   7.953
 7215POPC   C4B30070  26.182   3.721   7.653
 7216POPC   NC330071  26.004  28.346   9.453
 7216POPC   PO430072  26.067  28.351   9.153
 7216POPC   GL130073  26.059  28.324   8.853
 7216POPC   GL230074  25.978  28.449   8.853
 7216POPC   C1A30075  26.024  28.376   8.553
 7216POPC   D2A30076  26.088  28.405   8.253
 7216POPC   C3A30077  26.025  28.343   7.953
 7216POPC   C4A30078  26.077  28.417   7.653
 7216POPC   C1B30079  25.887  28.572   8.553
 7216POPC   C2B30080  25.846  28.589   8.253
 7216POPC   C3B30081  25.898  28.590   7.953
 7216POPC   C4B30082  25.911  28.557   7.653
 7217POPC   NC330083  15.979   7.399   9.453
 7217POPC   PO430084  15.931   7.460   9.153
 7217POPC   GL130085  15.983   7.462   8.853
 7217POPC   GL230086  15.950   7.330   8.853
 7217POPC   C1A30087  15.977   7.426   8.553
 7217POPC   D2A30088  15.986   7.401   8.253
 7217POPC   C3A30089  15.926   7.455   7.953
 7217POPC   C4A30090  15.919   7.420   7.653
 7217POPC   C1B30091  15.903   7.206   8.553
 7217POPC   C2B30092  15.872   7.198   8.253
 7217POPC   C3B30093  15.853   7.225   7.953
 7217POPC   C4B30094  15.910   7.130   7.653
 7218POPC   NC330095   9.746   5.094   9.453
 7218POPC   PO430096   9.775   5.128   9.153
 7218POPC   GL130097   9.718   5.062   8.853
 7218POPC   GL230098   9.685   5.217   8.853
 7218POPC   C1A30099   9.720   5.124   8.553
 7218POPC   D2A30100   9.765   5.123   8.253
 7218POPC   C3A30101   9.722   5.055   7.953
 7218POPC   C4A30102   9.730   5.116   7.653
 7218POPC   C1B30103   9.641   5.361   8.553
 7218POPC   C2B30104   9.728   5.313   8.253
 7218POPC   C3B30105   9.686   5.364   7.953
 7218POPC   C4B30106   9.718   5.316   7.653
 7219POPC   NC330107  33.001  29.114   9.453
 7219POPC   PO430108  32.979  29.097   9.153
 7219POPC   GL130109  33.055  29.114   8.853
 7219POPC   GL230110  32.928  29.284   8.853
 7219POPC   C1A30111  32.999  29.116   8.553
 7219POPC   D2A30112  33.050  29.175   8.253
 7219POPC   C3A30113  32.982  29.169   7.953
 7219POPC   C4A30114  33.028  29.114   7.653
 7219POPC   C1B30115  32.850  29.366   8.553
 7219POPC   C2B30116  32.860  29.341   8.253
 7219POPC   C3B30117  32.821  29.353   7.953
 7219POPC   C4B30118  32.861  29.326   7.653
 7220POPC   NC330119   8.958   1.263   9.453
 7220POPC   PO430120   8.970   1.183   9.153
 7220POPC   GL130121   8.989   1.248   8.853
 7220POPC   GL230122   9.107   1.256   8.853
 7220POPC   C1A30123   8.982   1.224   8.553
 7220POPC   D2A30124   8.929   1.231   8.253
 7220POPC   C3A30125   8.966   1.209   7.953
 7220POPC   C4A30126   8.958   1.221   7.653
 7220POPC   C1B30127   9.186   1.293   8.553
 7220POPC   C2B30128   9.205   1.362   8.253
 7220POPC   C3B30129   9.213   1.345   7.953
 7220POPC   C4B30130   9.210   1.303   7.653
 7221POPC   NC330131   2.022  35.350   9.453
 7221POPC   PO430132   1.969  35.321   9.153
 7221POPC   GL130133   2.026  35.402   8.853
 7221POPC   GL230134   2.134  35.287   8.853
 7221POPC   C1A30135   1.996  35.398   8.553
 7221POPC   D2A30136   1.960  35.346   8.253
 7221POPC   C3A30137   1.952  35.368   7.953
 7221POPC   C4A30138   1.953  35.360   7.653
 7221POPC   C1B30139   2.251  35.263   8.553
 7221POPC   C2B30140   2.215  35.235   8.253
 7221POPC   C3B30141   2.195  35.210   7.953
 7221POPC   C4B30142   2.241  35.227   7.653
 7222POPC   NC330143  11.336  41.528   9.453
 7222POPC   PO430144  11.279  41.602   9.153
 7222POPC   GL130145  11.319  41.546   8.853
 7222POPC   GL230146  11.420  41.644   8.853
 7222POPC   C1A30147  11.317  41.521   8.553
 7222POPC   D2A30148  11.260  41.607   8.253
 7222POPC   C3A30149  11.263  41.572   7.953
 7222POPC   C4A30150  11.256  41.533   7.653
 7222POPC   C1B30151  11.485  41.684   8.553
 7222POPC   C2B30152  11.530  41.663   8.253
 7222POPC   C3B30153  11.523  41.726   7.953
 7222POPC   C4B30154  11.483  41.691   7.653
 7223POPC   NC330155  17.512   8.230   9.453
 7223POPC   PO430156  17.459   8.234   9.153
 7223POPC   GL130157  17.543   8.205   8.853
 7223POPC   GL230158  17.512   8.336   8.853
 7223POPC   C1A30159  17.531   8.212   8.553
 7223POPC   D2A30160  17.551   8.179   8.253
 7223POPC   C3A30161  17.502   8.235   7.953
 7223POPC   C4A30162  17.544   8.173   7.653
 7223POPC   C1B30163  17.457   8.484   8.553
 7223POPC   C2B30164  17.504   8.471   8.253
 7223POPC   C3B30165  17.476   8.477   7.953
 7223POPC   C4B30166  17.442   8.460   7.653
 7224POPC   NC330167  26.030  42.335   9.453
 7224POPC   PO430168  26.050  42.300   9.153
 7224POPC   GL130169  26.011  42.307   8.853
 7224POPC   GL230170  26.184  42.268   8.853
 7224POPC   C1A30171  26.068  42.349   8.553
 7224POPC   D2A30172  25.994  42.371   8.253
 7224POPC   C3A30173  26.055  42.301   7.953
 7224POPC   C4A30174  26.012  42.296   7.653
 7224POPC   C1B30175  26.215  42.192   8.553
 7224POPC   C2B30176  26.243  42.195   8.253
 7224POPC   C3B30177  26.303  42.199   7.953
 7224POPC   C4B30178  26.223  42.181   7.653
 7225POPC   NC330179  12.870  18.324   9.453
 7225POPC   PO430180  12.875  18.247   9.153
 7225POPC   GL130181  12.893  18.317   8.853
 7225POPC   GL230182  12.741  18.176   8.853
 7225POPC   C1A30183  12.851  18.265   8.553
 7225POPC   D2A30184  12.871  18.293   8.253
 7225POPC   C3A30185  12.840  18.306   7.953
 7225POPC   C4A30186  12.871  18.323   7.653
 7225POPC   C1B30187  12.735  18.055   8.553
 7225POPC   C2B30188  12.682  18.112   8.253
 7225POPC   C3B30189  12.720  18.102   7.953
 7225POPC   C4B30190  12.720  18.045   7.653
 7226POPC   NC330191  28.349  26.030   9.453
 7226POPC   PO430192  28.357  26.021   9.153
 7226POPC   GL130193  28.347  26.009   8.853
 7226POPC   GL230194  28.425  26.092   8.853
 7226POPC   C1A30195  28.353  26.080   8.553
 7226POPC   D2A30196  28.326  26.055   8.253
 7226POPC   C3A30197  28.345  26.072   7.953
 7226POPC   C4A30198  28.381  26.078   7.653
 7226POPC   C1B30199  28.499  26.201   8.553
 7226POPC   C2B30200  28.497  26.207   8.253
 7226POPC   C3B30201  28.521  26.203   7.953
 7226POPC   C4B30202  28.564  26.244   7.653
 7227POPC   NC330203   1.992  42.342   9.453
 7227POPC   PO430204   1.993  42.357   9.153
 7227POPC   GL130205   1.998  42.313   8.853
 7227POPC   GL230206   1.923  42.411   8.853
 7227POPC   C1A30207   1.941  42.357   8.553
 7227POPC   D2A30208   1.957  42.288   8.253
 7227POPC   C3A30209   2.003  42.301   7.953
 7227POPC   C4A30210   1.975  42.349   7.653
 7227POPC   C1B30211   1.816  42.492   8.553
 7227POPC   C2B30212   1.760  42.432   8.253
 7227POPC   C3B30213   1.754  42.428   7.953
 7227POPC   C4B30214   1.818  42.483   7.653
 7228POPC   NC330215  39.237   7.404   9.453
 7228POPC   PO430216  39.246   7.380   9.153
 7228POPC   GL130217  39.243   7.377   8.853
 7228POPC   GL230218  39.344   7.355   8.853
 7228POPC   C1A30219  39.279   7.444   8.553
 7228POPC   D2A30220  39.185   7.426   8.253
 7228POPC   C3A30221  39.238   7.376   7.953
 7228POPC   C4A30222  39.194   7.417   7.653
 7228POPC   C1B30223  39.510   7.352   8.553
 7228POPC   C2B30224  39.462   7.368   8.253
 7228POPC   C3B30225  39.454   7.357   7.953
 7228POPC   C4B30226  39.472   7.372   7.653
 7229POPC   NC330227  26.070  14.435   9.453
 7229POPC   PO430228  26.035  14.434   9.153
 7229POPC   GL130229  26.037  14.428   8.853
 7229POPC   GL230230  25.898  14.371   8.853
 7229POPC   C1A30231  26.020  14.398   8.553
 7229POPC   D2A30232  26.080  14.402   8.253
 7229POPC   C3A30233  26.074  14.369   7.953
 7229POPC   C4A30234  26.005  14.403   7.653
 7229POPC   C1B30235  25.874  14.288   8.553
 7229POPC   C2B30236  25.824  14.292   8.253
 7229POPC   C3B30237  25.811  14.290   7.953
 7229POPC   C4B30238  25.826  14.282   7.653
 7230POPC   NC330239  21.432   9.776   9.453
 7230POPC   PO430240  21.407   9.721   9.153
 7230POPC   GL130241  21.433   9.702   8.853
 7230POPC   GL230242  21.349   9.878   8.853
 7230POPC   C1A30243  21.346   9.701   8.553
 7230POPC   D2A30244  21.417   9.769   8.253
 7230POPC   C3A30245  21.433   9.729   7.953
 7230POPC   C4A30246  21.406   9.772   7.653
 7230POPC   C1B30247  21.205   9.964   8.553
 7230POPC   C2B30248  21.207   9.973   8.253
 7230POPC   C3B30249  21.195   9.985   7.953
 7230POPC   C4B30250  21.195   9.978   7.653
 7231POPC   NC330251  12.052  13.630   9.453
 7231POPC   PO430252  12.053  13.645   9.153
 7231POPC   GL130253  12.102  13.662   8.853
 7231POPC   GL230254  12.012  13.792   8.853
 7231POPC   C1A30255  12.126  13.604   8.553
 7231POPC   D2A30256  12.035  13.671   8.253
 7231POPC   C3A30257  12.035  13.652   7.953
 7231POPC   C4A30258  12.113  13.583   7.653
 7231POPC   C1B30259  12.005  13.893   8.553
 7231POPC   C2B30260  11.957  13.908   8.253
 7231POPC   C3B30261  12.011  13.829   7.953
 7231POPC   C4B30262  11.965  13.830   7.653
 7232POPC   NC330263  12.069  25.313   9.453
 7232POPC   PO430264  12.042  25.216   9.153
 7232POPC   GL130265  12.062  25.234   8.853
 7232POPC   GL230266  12.066  25.397   8.853
 7232POPC   C1A30267  12.035  25.234   8.553
 7232POPC   D2A30268  12.095  25.274   8.253
 7232POPC   C3A30269  12.106  25.243   7.953
 7232POPC   C4A30270  12.037  25.246   7.653
 7232POPC   C1B30271  12.064  25.493   8.553
 7232POPC   C2B30272  12.032  25.547   8.253
 7232POPC   C3B30273  12.088  25.480   7.953
 7232POPC   C4B30274  12.029  25.561   7.653
 7233POPC   NC330275  40.817  37.674   9.453
 7233POPC   PO430276  40.781  37.724   9.153
 7233POPC   GL130277  40.802  37.659   8.853
 7233POPC   GL230278  40.878  37.658   8.853
 7233POPC   C1A30279  40.779  37.650   8.553
 7233POPC   D2A30280  40.808  37.631   8.253
 7233POPC   C3A30281  40.832  37.646   7.953
 7233POPC   C4A30282  40.736  37.641   7.653
 7233POPC   C1B30283  41.054  37.681   8.553
 7233POPC   C2B30284  41.050  37.692   8.253
 7233POPC   C3B30285  41.027  37.718   7.953
 7233POPC   C4B30286  41.002  37.691   7.653
 7234POPC   NC330287  39.269   8.942   9.453
 7234POPC   PO430288  39.268   9.013   9.153
 7234POPC   GL130289  39.228   8.950   8.853
 7234POPC   GL230290  39.132   9.069   8.853
 7234POPC   C1A30291  39.245   8.970   8.553
 7234POPC   D2A30292  39.234   8.927   8.253
 7234POPC   C3A30293  39.191   8.934   7.953
 7234POPC   C4A30294  39.259   8.978   7.653
 7234POPC   C1B30295  39.110   9.172   8.553
 7234POPC   C2B30296  39.109   9.234   8.253
 7234POPC   C3B30297  39.074   9.150   7.953
 7234POPC   C4B30298  39.082   9.217   7.653
 7235POPC   NC330299  18.295  44.642   9.453
 7235POPC   PO430300  18.301  44.696   9.153
 7235POPC   GL130301  18.274  44.649   8.853
 7235POPC   GL230302  18.128  44.614   8.853
 7235POPC   C1A30303  18.284  44.686   8.553
 7235POPC   D2A30304  18.330  44.689   8.253
 7235POPC   C3A30305  18.261  44.664   7.953
 7235POPC   C4A30306  18.287  44.708   7.653
 7235POPC   C1B30307  18.016  44.625   8.553
 7235POPC   C2B30308  18.025  44.623   8.253
 7235POPC   C3B30309  18.048  44.618   7.953
 7235POPC   C4B30310  18.012  44.638   7.653
 7236POPC   NC330311  35.348  28.409   9.453
 7236POPC   PO430312  35.360  28.350   9.153
 7236POPC   GL130313  35.385  28.364   8.853
 7236POPC   GL230314  35.184  28.371   8.853
 7236POPC   C1A30315  35.380  28.383   8.553
 7236POPC   D2A30316  35.371  28.320   8.253
 7236POPC   C3A30317  35.311  28.375   7.953
 7236POPC   C4A30318  35.355  28.349   7.653
 7236POPC   C1B30319  35.079  28.338   8.553
 7236POPC   C2B30320  35.132  28.358   8.253
 7236POPC   C3B30321  35.076  28.333   7.953
 7236POPC   C4B30322  35.158  28.346   7.653
 7237POPC   NC330323   7.450  11.258   9.453
 7237POPC   PO430324   7.433  11.302   9.153
 7237POPC   GL130325   7.426  11.335   8.853
 7237POPC   GL230326   7.396  11.133   8.853
 7237POPC   C1A30327   7.390  11.307   8.553
 7237POPC   D2A30328   7.440  11.329   8.253
 7237POPC   C3A30329   7.452  11.276   7.953
 7237POPC   C4A30330   7.407  11.272   7.653
 7237POPC   C1B30331   7.454  11.001   8.553
 7237POPC   C2B30332   7.463  11.024   8.253
 7237POPC   C3B30333   7.401  11.052   7.953
 7237POPC   C4B30334   7.448  11.011   7.653
 7238POPC   NC330335  27.572   0.397   9.453
 7238POPC   PO430336  27.628   0.478   9.153
 7238POPC   GL130337  27.548   0.411   8.853
 7238POPC   GL230338  27.704   0.559   8.853
 7238POPC   C1A30339  27.595   0.451   8.553
 7238POPC   D2A30340  27.624   0.401   8.253
 7238POPC   C3A30341  27.602   0.401   7.953
 7238POPC   C4A30342  27.593   0.423   7.653
 7238POPC   C1B30343  27.766   0.572   8.553
 7238POPC   C2B30344  27.808   0.617   8.253
 7238POPC   C3B30345  27.758   0.590   7.953
 7238POPC   C4B30346  27.803   0.610   7.653
 7239POPC   NC330347  14.380  39.964   9.453
 7239POPC   PO430348  14.447  39.960   9.153
 7239POPC   GL130349  14.436  39.973   8.853
 7239POPC   GL230350  14.332  39.916   8.853
 7239POPC   C1A30351  14.375  39.966   8.553
 7239POPC   D2A30352  14.377  40.052   8.253
 7239POPC   C3A30353  14.400  40.054   7.953
 7239POPC   C4A30354  14.367  40.050   7.653
 7239POPC   C1B30355  14.244  39.871   8.553
 7239POPC   C2B30356  14.237  39.900   8.253
 7239POPC   C3B30357  14.154  39.853   7.953
 7239POPC   C4B30358  14.210  39.853   7.653
 7240POPC   NC330359  33.770   9.746   9.453
 7240POPC   PO430360  33.792   9.783   9.153
 7240POPC   GL130361  33.788   9.732   8.853
 7240POPC   GL230362  33.857   9.631   8.853
 7240POPC   C1A30363  33.764   9.725   8.553
 7240POPC   D2A30364  33.798   9.795   8.253
 7240POPC   C3A30365  33.790   9.714   7.953
 7240POPC   C4A30366  33.789   9.790   7.653
 7240POPC   C1B30367  33.939   9.520   8.553
 7240POPC   C2B30368  33.922   9.552   8.253
 7240POPC   C3B30369  33.937   9.529   7.953
 7240POPC   C4B30370  33.927   9.519   7.653
 7241POPC   NC330371   5.129  42.333   9.453
 7241POPC   PO430372   5.114  42.322   9.153
 7241POPC   GL130373   5.074  42.295   8.853
 7241POPC   GL230374   4.932  42.314   8.853
 7241POPC   C1A30375   5.053  42.321   8.553
 7241POPC   D2A30376   5.123  42.376   8.253
 7241POPC   C3A30377   5.119  42.339   7.953
 7241POPC   C4A30378   5.081  42.341   7.653
 7241POPC   C1B30379   4.840  42.240   8.553
 7241POPC   C2B30380   4.841  42.220   8.253
 7241POPC   C3B30381   4.912  42.237   7.953
 7241POPC   C4B30382   4.844  42.253   7.653
 7242POPC   NC330383  36.861  11.276   9.453
 7242POPC   PO430384  36.902  11.346   9.153
 7242POPC   GL130385  36.883  11.344   8.853
 7242POPC   GL230386  37.030  11.349   8.853
 7242POPC   C1A30387  36.953  11.271   8.553
 7242POPC   D2A30388  36.915  11.286   8.253
 7242POPC   C3A30389  36.868  11.251   7.953
 7242POPC   C4A30390  36.914  11.259   7.653
 7242POPC   C1B30391  37.144  11.387   8.553
 7242POPC   C2B30392  37.117  11.451   8.253
 7242POPC   C3B30393  37.092  11.448   7.953
 7242POPC   C4B30394  37.100  11.459   7.653
 7243POPC   NC330395  44.679  39.253   9.453
 7243POPC   PO430396  44.706  39.213   9.153
 7243POPC   GL130397  44.677  39.211   8.853
 7243POPC   GL230398  44.768  39.321   8.853
 7243POPC   C1A30399  44.692  39.192   8.553
 7243POPC   D2A30400  44.707  39.226   8.253
 7243POPC   C3A30401  44.675  39.242   7.953
 7243POPC   C4A30402  44.618  39.202   7.653
 7243POPC   C1B30403  44.871  39.320   8.553
 7243POPC   C2B30404  44.825  39.377   8.253
 7243POPC   C3B30405  44.884  39.384   7.953
 7243POPC   C4B30406  44.913  39.359   7.653
 7244POPC   NC330407  26.081  25.992   9.453
 7244POPC   PO430408  26.018  26.038   9.153
 7244POPC   GL130409  26.081  26.069   8.853
 7244POPC   GL230410  26.065  25.915   8.853
 7244POPC   C1A30411  26.008  26.026   8.553
 7244POPC   D2A30412  26.043  26.046   8.253
 7244POPC   C3A30413  26.011  26.041   7.953
 7244POPC   C4A30414  26.024  26.071   7.653
 7244POPC   C1B30415  26.092  25.814   8.553
 7244POPC   C2B30416  26.080  25.796   8.253
 7244POPC   C3B30417  26.073  25.792   7.953
 7244POPC   C4B30418  26.061  25.765   7.653
 7245POPC   NC330419   6.680  15.906   9.453
 7245POPC   PO430420   6.603  15.946   9.153
 7245POPC   GL130421   6.691  15.945   8.853
 7245POPC   GL230422   6.563  15.801   8.853
 7245POPC   C1A30423   6.642  15.974   8.553
 7245POPC   D2A30424   6.668  15.967   8.253
 7245POPC   C3A30425   6.689  15.951   7.953
 7245POPC   C4A30426   6.683  15.991   7.653
 7245POPC   C1B30427   6.548  15.718   8.553
 7245POPC   C2B30428   6.482  15.790   8.253
 7245POPC   C3B30429   6.559  15.729   7.953
 7245POPC   C4B30430   6.496  15.794   7.653
 7246POPC   NC330431  27.581  38.454   9.453
 7246POPC   PO430432  27.603  38.447   9.153
 7246POPC   GL130433  27.613  38.437   8.853
 7246POPC   GL230434  27.511  38.575   8.853
 7246POPC   C1A30435  27.618  38.471   8.553
 7246POPC   D2A30436  27.556  38.487   8.253
 7246POPC   C3A30437  27.563  38.469   7.953
 7246POPC   C4A30438  27.603  38.500   7.653
 7246POPC   C1B30439  27.420  38.670   8.553
 7246POPC   C2B30440  27.499  38.702   8.253
 7246POPC   C3B30441  27.483  38.657   7.953
 7246POPC   C4B30442  27.416  38.626   7.653
 7247POPC   NC330443  30.684  35.341   9.453
 7247POPC   PO430444  30.741  35.392   9.153
 7247POPC   GL130445  30.688  35.348   8.853
 7247POPC   GL230446  30.850  35.357   8.853
 7247POPC   C1A30447  30.665  35.362   8.553
 7247POPC   D2A30448  30.679  35.378   8.253
 7247POPC   C3A30449  30.732  35.344   7.953
 7247POPC   C4A30450  30.669  35.381   7.653
 7247POPC   C1B30451  30.910  35.373   8.553
 7247POPC   C2B30452  30.911  35.359   8.253
 7247POPC   C3B30453  30.937  35.291   7.953
 7247POPC   C4B30454  30.952  35.374   7.653
 7248POPC   NC330455  10.525   1.988   9.453
 7248POPC   PO430456  10.477   2.031   9.153
 7248POPC   GL130457  10.567   2.009   8.853
 7248POPC   GL230458  10.558   2.077   8.853
 7248POPC   C1A30459  10.497   1.997   8.553
 7248POPC   D2A30460  10.486   1.982   8.253
 7248POPC   C3A30461  10.489   2.032   7.953
 7248POPC   C4A30462  10.509   2.037   7.653
 7248POPC   C1B30463  10.609   2.254   8.553
 7248POPC   C2B30464  10.618   2.213   8.253
 7248POPC   C3B30465  10.591   2.255   7.953
 7248POPC   C4B30466  10.689   2.240   7.653
 7249POPC   NC330467  17.489  19.103   9.453
 7249POPC   PO430468  17.517  19.015   9.153
 7249POPC   GL130469  17.519  19.095   8.853
 7249POPC   GL230470  17.634  19.110   8.853
 7249POPC   C1A30471  17.537  19.009   8.553
 7249POPC   D2A30472  17.474  19.072   8.253
 7249POPC   C3A30473  17.522  19.070   7.953
 7249POPC   C4A30474  17.497  19.031   7.653
 7249POPC   C1B30475  17.790  19.096   8.553
 7249POPC   C2B30476  17.783  19.053   8.253
 7249POPC   C3B30477  17.774  19.065   7.953
 7249POPC   C4B30478  17.720  19.118   7.653
 7250POPC   NC330479  32.233  37.692   9.453
 7250POPC   PO430480  32.267  37.637   9.153
 7250POPC   GL130481  32.212  37.647   8.853
 7250POPC   GL230482  32.172  37.794   8.853
 7250POPC   C1A30483  32.264  37.660   8.553
 7250POPC   D2A30484  32.217  37.688   8.253
 7250POPC   C3A30485  32.286  37.636   7.953
 7250POPC   C4A30486  32.261  37.702   7.653
 7250POPC   C1B30487  32.002  37.841   8.553
 7250POPC   C2B30488  32.001  37.851   8.253
 7250POPC   C3B30489  32.073  37.825   7.953
 7250POPC   C4B30490  32.019  37.852   7.653
 7251POPC   NC330491  24.452  12.901   9.453
 7251POPC   PO430492  24.505  12.864   9.153
 7251POPC   GL130493  24.478  12.861   8.853
 7251POPC   GL230494  24.342  12.862   8.853
 7251POPC   C1A30495  24.451  12.878   8.553
 7251POPC   D2A30496  24.445  12.862   8.253
 7251POPC   C3A30497  24.501  12.812   7.953
 7251POPC   C4A30498  24.513  12.853   7.653
 7251POPC   C1B30499  24.260  12.923   8.553
 7251POPC   C2B30500  24.230  12.887   8.253
 7251POPC   C3B30501  24.269  12.896   7.953
 7251POPC   C4B30502  24.237  12.873   7.653
 7252POPC   NC330503  16.730  42.357   9.453
 7252POPC   PO430504  16.772  42.374   9.153
 7252POPC   GL130505  16.749  42.308   8.853
 7252POPC   GL230506  16.682  42.303   8.853
 7252POPC   C1A30507  16.778  42.285   8.553
 7252POPC   D2A30508  16.729  42.311   8.253
 7252POPC   C3A30509  16.741  42.313   7.953
 7252POPC   C4A30510  16.698  42.374   7.653
 7252POPC   C1B30511  16.522  42.197   8.553
 7252POPC   C2B30512  16.505  42.128   8.253
 7252POPC   C3B30513  16.487  42.153   7.953
 7252POPC   C4B30514  16.567  42.159   7.653
 7253POPC   NC330515  43.090  16.684   9.453
 7253POPC   PO430516  43.096  16.697   9.153
 7253POPC   GL130517  43.089  16.777   8.853
 7253POPC   GL230518  43.203  16.799   8.853
 7253POPC   C1A30519  43.112  16.695   8.553
 7253POPC   D2A30520  43.105  16.746   8.253
 7253POPC   C3A30521  43.086  16.692   7.953
 7253POPC   C4A30522  43.134  16.779   7.653
 7253POPC   C1B30523  43.403  16.767   8.553
 7253POPC   C2B30524  43.322  16.747   8.253
 7253POPC   C3B30525  43.365  16.834   7.953
 7253POPC   C4B30526  43.368  16.790   7.653
 7254POPC   NC330527  41.602  29.171   9.453
 7254POPC   PO430528  41.543  29.108   9.153
 7254POPC   GL130529  41.520  29.190   8.853
 7254POPC   GL230530  41.608  29.311   8.853
 7254POPC   C1A30531  41.531  29.106   8.553
 7254POPC   D2A30532  41.590  29.158   8.253
 7254POPC   C3A30533  41.595  29.159   7.953
 7254POPC   C4A30534  41.588  29.105   7.653
 7254POPC   C1B30535  41.622  29.441   8.553
 7254POPC   C2B30536  41.561  29.387   8.253
 7254POPC   C3B30537  41.615  29.391   7.953
 7254POPC   C4B30538  41.558  29.423   7.653
 7255POPC   NC330539  12.032   0.427   9.453
 7255POPC   PO430540  12.121   0.446   9.153
 7255POPC   GL130541  12.099   0.445   8.853
 7255POPC   GL230542  11.937   0.443   8.853
 7255POPC   C1A30543  12.041   0.462   8.553
 7255POPC   D2A30544  12.046   0.456   8.253
 7255POPC   C3A30545  12.100   0.467   7.953
 7255POPC   C4A30546  12.123   0.465   7.653
 7255POPC   C1B30547  11.859   0.376   8.553
 7255POPC   C2B30548  11.851   0.370   8.253
 7255POPC   C3B30549  11.801   0.369   7.953
 7255POPC   C4B30550  11.831   0.450   7.653
 7256POPC   NC330551  25.300   9.021   9.453
 7256POPC   PO430552  25.297   9.000   9.153
 7256POPC   GL130553  25.267   8.975   8.853
 7256POPC   GL230554  25.268   9.061   8.853
 7256POPC   C1A30555  25.258   8.938   8.553
 7256POPC   D2A30556  25.285   9.011   8.253
 7256POPC   C3A30557  25.223   8.960   7.953
 7256POPC   C4A30558  25.225   9.004   7.653
 7256POPC   C1B30559  25.279   9.243   8.553
 7256POPC   C2B30560  25.364   9.216   8.253
 7256POPC   C3B30561  25.360   9.179   7.953
 7256POPC   C4B30562  25.329   9.213   7.653
 7257POPC   NC330563  17.514   7.384   9.453
 7257POPC   PO430564  17.512   7.448   9.153
 7257POPC   GL130565  17.527   7.460   8.853
 7257POPC   GL230566  17.490   7.559   8.853
 7257POPC   C1A30567  17.524   7.394   8.553
 7257POPC   D2A30568  17.487   7.383   8.253
 7257POPC   C3A30569  17.544   7.449   7.953
 7257POPC   C4A30570  17.492   7.398   7.653
 7257POPC   C1B30571  17.374   7.690   8.553
 7257POPC   C2B30572  17.370   7.639   8.253
 7257POPC   C3B30573  17.420   7.661   7.953
 7257POPC   C4B30574  17.444   7.612   7.653
 7258POPC   NC330575   0.426  23.727   9.453
 7258POPC   PO430576   0.438  23.763   9.153
 7258POPC   GL130577   0.440  23.741   8.853
 7258POPC   GL230578   0.355  23.760   8.853
 7258POPC   C1A30579   0.455  23.741   8.553
 7258POPC   D2A30580   0.403  23.738   8.253
 7258POPC   C3A30581   0.423  23.689   7.953
 7258POPC   C4A30582   0.456  23.685   7.653
 7258POPC   C1B30583   0.250  23.745   8.553
 7258POPC   C2B30584   0.223  23.819   8.253
 7258POPC   C3B30585   0.162  23.769   7.953
 7258POPC   C4B30586   0.155  23.804   7.653
 7259POPC   NC330587  26.805  26.825   9.453
 7259POPC   PO430588  26.800  26.785   9.153
 7259POPC   GL130589  26.801  26.866   8.853
 7259POPC   GL230590  26.652  26.755   8.853
 7259POPC   C1A30591  26.867  26.831   8.553
 7259POPC   D2A30592  26.825  26.791   8.253
 7259POPC   C3A30593  26.810  26.860   7.953
 7259POPC   C4A30594  26.815  26.793   7.653
 7259POPC   C1B30595  26.593  26.824   8.553
 7259POPC   C2B30596  26.536  26.789   8.253
 7259POPC   C3B30597  26.549  26.784   7.953
 7259POPC   C4B30598  26.558  26.778   7.653
 7260POPC   NC330599   3.515  12.106   9.453
 7260POPC   PO430600   3.580  12.031   9.153
 7260POPC   GL130601   3.546  12.029   8.853
 7260POPC   GL230602   3.450  12.036   8.853
 7260POPC   C1A30603   3.545  12.048   8.553
 7260POPC   D2A30604   3.539  12.038   8.253
 7260POPC   C3A30605   3.581  12.031   7.953
 7260POPC   C4A30606   3.576  12.105   7.653
 7260POPC   C1B30607   3.302  11.869   8.553
 7260POPC   C2B30608   3.345  11.874   8.253
 7260POPC   C3B30609   3.330  11.900   7.953
 7260POPC   C4B30610   3.301  11.954   7.653
 7261POPC   NC330611  43.109  32.225   9.453
 7261POPC   PO430612  43.081  32.206   9.153
 7261POPC   GL130613  43.140  32.275   8.853
 7261POPC   GL230614  43.073  32.396   8.853
 7261POPC   C1A30615  43.153  32.243   8.553
 7261POPC   D2A30616  43.083  32.258   8.253
 7261POPC   C3A30617  43.160  32.233   7.953
 7261POPC   C4A30618  43.068  32.227   7.653
 7261POPC   C1B30619  42.956  32.432   8.553
 7261POPC   C2B30620  43.007  32.417   8.253
 7261POPC   C3B30621  43.013  32.467   7.953
 7261POPC   C4B30622  42.990  32.445   7.653
 7262POPC   NC330623  19.017  36.873   9.453
 7262POPC   PO430624  19.080  36.868   9.153
 7262POPC   GL130625  19.018  36.949   8.853
 7262POPC   GL230626  18.945  36.831   8.853
 7262POPC   C1A30627  19.021  36.882   8.553
 7262POPC   D2A30628  19.048  36.924   8.253
 7262POPC   C3A30629  19.040  36.933   7.953
 7262POPC   C4A30630  19.069  36.949   7.653
 7262POPC   C1B30631  18.867  36.719   8.553
 7262POPC   C2B30632  18.903  36.718   8.253
 7262POPC   C3B30633  18.852  36.765   7.953
 7262POPC   C4B30634  18.864  36.680   7.653
 7263POPC   NC330635   1.977  15.163   9.453
 7263POPC   PO430636   2.012  15.221   9.153
 7263POPC   GL130637   1.940  15.170   8.853
 7263POPC   GL230638   2.059  15.255   8.853
 7263POPC   C1A30639   1.962  15.165   8.553
 7263POPC   D2A30640   1.952  15.221   8.253
 7263POPC   C3A30641   1.974  15.207   7.953
 7263POPC   C4A30642   2.032  15.205   7.653
 7263POPC   C1B30643   2.130  15.353   8.553
 7263POPC   C2B30644   2.131  15.348   8.253
 7263POPC   C3B30645   2.186  15.345   7.953
 7263POPC   C4B30646   2.167  15.371   7.653
 7264POPC   NC330647  41.543   5.073   9.453
 7264POPC   PO430648  41.514   5.134   9.153
 7264POPC   GL130649  41.565   5.077   8.853
 7264POPC   GL230650  41.541   5.199   8.853
 7264POPC   C1A30651  41.570   5.091   8.553
 7264POPC   D2A30652  41.531   5.093   8.253
 7264POPC   C3A30653  41.577   5.130   7.953
 7264POPC   C4A30654  41.567   5.140   7.653
 7264POPC   C1B30655  41.607   5.356   8.553
 7264POPC   C2B30656  41.563   5.384   8.253
 7264POPC   C3B30657  41.628   5.376   7.953
 7264POPC   C4B30658  41.617   5.380   7.653
 7265POPC   NC330659  20.617  29.920   9.453
 7265POPC   PO430660  20.599  29.950   9.153
 7265POPC   GL130661  20.610  29.924   8.853
 7265POPC   GL230662  20.557  29.792   8.853
 7265POPC   C1A30663  20.607  29.884   8.553
 7265POPC   D2A30664  20.622  29.907   8.253
 7265POPC   C3A30665  20.566  29.936   7.953
 7265POPC   C4A30666  20.615  29.905   7.653
 7265POPC   C1B30667  20.429  29.671   8.553
 7265POPC   C2B30668  20.493  29.747   8.253
 7265POPC   C3B30669  20.506  29.727   7.953
 7265POPC   C4B30670  20.422  29.738   7.653
 7266POPC   NC330671  23.670  16.718   9.453
 7266POPC   PO430672  23.686  16.726   9.153
 7266POPC   GL130673  23.669  16.733   8.853
 7266POPC   GL230674  23.640  16.607   8.853
 7266POPC   C1A30675  23.746  16.745   8.553
 7266POPC   D2A30676  23.669  16.757   8.253
 7266POPC   C3A30677  23.724  16.712   7.953
 7266POPC   C4A30678  23.697  16.762   7.653
 7266POPC   C1B30679  23.658  16.469   8.553
 7266POPC   C2B30680  23.700  16.474   8.253
 7266POPC   C3B30681  23.684  16.457   7.953
 7266POPC   C4B30682  23.677  16.511   7.653
 7267POPC   NC330683  13.664  16.744   9.453
 7267POPC   PO430684  13.585  16.722   9.153
 7267POPC   GL130685  13.667  16.724   8.853
 7267POPC   GL230686  13.769  16.751   8.853
 7267POPC   C1A30687  13.603  16.720   8.553
 7267POPC   D2A30688  13.644  16.689   8.253
 7267POPC   C3A30689  13.582  16.704   7.953
 7267POPC   C4A30690  13.615  16.686   7.653
 7267POPC   C1B30691  13.877  16.691   8.553
 7267POPC   C2B30692  13.830  16.641   8.253
 7267POPC   C3B30693  13.905  16.708   7.953
 7267POPC   C4B30694  13.873  16.728   7.653
 7268POPC   NC330695   1.183  40.769   9.453
 7268POPC   PO430696   1.177  40.765   9.153
 7268POPC   GL130697   1.202  40.799   8.853
 7268POPC   GL230698   1.124  40.859   8.853
 7268POPC   C1A30699   1.218  40.827   8.553
 7268POPC   D2A30700   1.251  40.807   8.253
 7268POPC   C3A30701   1.235  40.735   7.953
 7268POPC   C4A30702   1.243  40.808   7.653
 7268POPC   C1B30703   0.999  40.861   8.553
 7268POPC   C2B30704   0.967  40.899   8.253
 7268POPC   C3B30705   1.011  40.846   7.953
 7268POPC   C4B30706   1.001  40.908   7.653
 7269POPC   NC330707  35.314  16.733   9.453
 7269POPC   PO430708  35.381  16.769   9.153
 7269POPC   GL130709  35.322  16.752   8.853
 7269POPC   GL230710  35.242  16.830   8.853
 7269POPC   C1A30711  35.399  16.760   8.553
 7269POPC   D2A30712  35.304  16.758   8.253
 7269POPC   C3A30713  35.348  16.742   7.953
 7269POPC   C4A30714  35.333  16.695   7.653
 7269POPC   C1B30715  35.099  16.808   8.553
 7269POPC   C2B30716  35.103  16.820   8.253
 7269POPC   C3B30717  35.152  16.881   7.953
 7269POPC   C4B30718  35.080  16.798   7.653
 7270POPC   NC330719  22.124   1.204   9.453
 7270POPC   PO430720  22.199   1.175   9.153
 7270POPC   GL130721  22.132   1.257   8.853
 7270POPC   GL230722  22.154   1.352   8.853
 7270POPC   C1A30723  22.123   1.164   8.553
 7270POPC   D2A30724  22.194   1.173   8.253
 7270POPC   C3A30725  22.195   1.259   7.953
 7270POPC   C4A30726  22.142   1.236   7.653
 7270POPC   C1B30727  22.154   1.488   8.553
 7270POPC   C2B30728  22.150   1.460   8.253
 7270POPC   C3B30729  22.080   1.492   7.953
 7270POPC   C4B30730  22.150   1.490   7.653
 7271POPC   NC330731  38.406  29.970   9.453
 7271POPC   PO430732  38.422  29.900   9.153
 7271POPC   GL130733  38.421  29.949   8.853
 7271POPC   GL230734  38.361  29.997   8.853
 7271POPC   C1A30735  38.490  29.920   8.553
 7271POPC   D2A30736  38.434  29.959   8.253
 7271POPC   C3A30737  38.458  29.908   7.953
 7271POPC   C4A30738  38.458  29.909   7.653
 7271POPC   C1B30739  38.199  30.004   8.553
 7271POPC   C2B30740  38.203  30.040   8.253
 7271POPC   C3B30741  38.192  30.011   7.953
 7271POPC   C4B30742  38.245  30.015   7.653
 7272POPC   NC330743  41.593  25.286   9.453
 7272POPC   PO430744  41.513  25.248   9.153
 7272POPC   GL130745  41.562  25.307   8.853
 7272POPC   GL230746  41.626  25.347   8.853
 7272POPC   C1A30747  41.562  25.218   8.553
 7272POPC   D2A30748  41.601  25.257   8.253
 7272POPC   C3A30749  41.516  25.280   7.953
 7272POPC   C4A30750  41.586  25.227   7.653
 7272POPC   C1B30751  41.721  25.434   8.553
 7272POPC   C2B30752  41.759  25.459   8.253
 7272POPC   C3B30753  41.767  25.447   7.953
 7272POPC   C4B30754  41.772  25.465   7.653
 7273POPC   NC330755   1.165  13.616   9.453
 7273POPC   PO430756   1.213  13.676   9.153
 7273POPC   GL130757   1.199  13.594   8.853
 7273POPC   GL230758   1.298  13.768   8.853
 7273POPC   C1A30759   1.223  13.640   8.553
 7273POPC   D2A30760   1.250  13.620   8.253
 7273POPC   C3A30761   1.234  13.664   7.953
 7273POPC   C4A30762   1.164  13.653   7.653
 7273POPC   C1B30763   1.393  13.823   8.553
 7273POPC   C2B30764   1.383  13.778   8.253
 7273POPC   C3B30765   1.337  13.843   7.953
 7273POPC   C4B30766   1.336  13.859   7.653
 7274POPC   NC330767  20.597  42.359   9.453
 7274POPC   PO430768  20.641  42.348   9.153
 7274POPC   GL130769  20.627  42.299   8.853
 7274POPC   GL230770  20.548  42.182   8.853
 7274POPC   C1A30771  20.602  42.350   8.553
 7274POPC   D2A30772  20.628  42.352   8.253
 7274POPC   C3A30773  20.602  42.308   7.953
 7274POPC   C4A30774  20.569  42.286   7.653
 7274POPC   C1B30775  20.555  42.126   8.553
 7274POPC   C2B30776  20.493  42.121   8.253
 7274POPC   C3B30777  20.505  42.096   7.953
 7274POPC   C4B30778  20.488  42.147   7.653
 7275POPC   NC330779  16.001  40.801   9.453
 7275POPC   PO430780  15.908  40.808   9.153
 7275POPC   GL130781  15.929  40.822   8.853
 7275POPC   GL230782  16.000  40.860   8.853
 7275POPC   C1A30783  15.944  40.813   8.553
 7275POPC   D2A30784  15.989  40.798   8.253
 7275POPC   C3A30785  15.988  40.785   7.953
 7275POPC   C4A30786  15.967  40.821   7.653
 7275POPC   C1B30787  16.148  41.021   8.553
 7275POPC   C2B30788  16.092  40.935   8.253
 7275POPC   C3B30789  16.119  41.015   7.953
 7275POPC   C4B30790  16.120  41.006   7.653
 7276POPC   NC330791  27.591  27.546   9.453
 7276POPC   PO430792  27.639  27.643   9.153
 7276POPC   GL130793  27.545  27.627   8.853
 7276POPC   GL230794  27.462  27.534   8.853
 7276POPC   C1A30795  27.552  27.565   8.553
 7276POPC   D2A30796  27.576  27.571   8.253
 7276POPC   C3A30797  27.609  27.631   7.953
 7276POPC   C4A30798  27.576  27.549   7.653
 7276POPC   C1B30799  27.331  27.457   8.553
 7276POPC   C2B30800  27.343  27.479   8.253
 7276POPC   C3B30801  27.408  27.506   7.953
 7276POPC   C4B30802  27.428  27.490   7.653
 7277POPC   NC330803   8.229  43.158   9.453
 7277POPC   PO430804   8.187  43.069   9.153
 7277POPC   GL130805   8.155  43.088   8.853
 7277POPC   GL230806   8.164  42.951   8.853
 7277POPC   C1A30807   8.152  43.063   8.553
 7277POPC   D2A30808   8.247  43.107   8.253
 7277POPC   C3A30809   8.234  43.078   7.953
 7277POPC   C4A30810   8.186  43.156   7.653
 7277POPC   C1B30811   8.235  42.900   8.553
 7277POPC   C2B30812   8.184  42.838   8.253
 7277POPC   C3B30813   8.229  42.846   7.953
 7277POPC   C4B30814   8.205  42.875   7.653
 7278POPC   NC330815  37.657  30.667   9.453
 7278POPC   PO430816  37.698  30.738   9.153
 7278POPC   GL130817  37.710  30.742   8.853
 7278POPC   GL230818  37.758  30.769   8.853
 7278POPC   C1A30819  37.720  30.717   8.553
 7278POPC   D2A30820  37.700  30.745   8.253
 7278POPC   C3A30821  37.646  30.745   7.953
 7278POPC   C4A30822  37.715  30.667   7.653
 7278POPC   C1B30823  37.780  30.914   8.553
 7278POPC   C2B30824  37.745  30.963   8.253
 7278POPC   C3B30825  37.769  30.934   7.953
 7278POPC   C4B30826  37.796  30.978   7.653
 7279POPC   NC330827  37.666  32.283   9.453
 7279POPC   PO430828  37.650  32.273   9.153
 7279POPC   GL130829  37.729  32.258   8.853
 7279POPC   GL230830  37.668  32.142   8.853
 7279POPC   C1A30831  37.691  32.253   8.553
 7279POPC   D2A30832  37.674  32.289   8.253
 7279POPC   C3A30833  37.658  32.235   7.953
 7279POPC   C4A30834  37.728  32.216   7.653
 7279POPC   C1B30835  37.582  31.972   8.553
 7279POPC   C2B30836  37.621  31.991   8.253
 7279POPC   C3B30837  37.623  32.055   7.953
 7279POPC   C4B30838  37.572  31.995   7.653
 7280POPC   NC330839  21.399   0.396   9.453
 7280POPC   PO430840  21.355   0.478   9.153
 7280POPC   GL130841  21.363   0.462   8.853
 7280POPC   GL230842  21.316   0.320   8.853
 7280POPC   C1A30843  21.354   0.418   8.553
 7280POPC   D2A30844  21.340   0.397   8.253
 7280POPC   C3A30845  21.373   0.460   7.953
 7280POPC   C4A30846  21.395   0.409   7.653
 7280POPC   C1B30847  21.294   0.229   8.553
 7280POPC   C2B30848  21.376   0.225   8.253
 7280POPC   C3B30849  21.351   0.165   7.953
 7280POPC   C4B30850  21.352   0.223   7.653
 7281POPC   NC330851   2.776  43.102   9.453
 7281POPC   PO430852   2.809  43.063   9.153
 7281POPC   GL130853   2.807  43.069   8.853
 7281POPC   GL230854   2.885  43.225   8.853
 7281POPC   C1A30855   2.751  43.087   8.553
 7281POPC   D2A30856   2.809  43.114   8.253
 7281POPC   C3A30857   2.803  43.146   7.953
 7281POPC   C4A30858   2.733  43.066   7.653
 7281POPC   C1B30859   2.969  43.283   8.553
 7281POPC   C2B30860   2.977  43.283   8.253
 7281POPC   C3B30861   2.882  43.330   7.953
 7281POPC   C4B30862   2.958  43.334   7.653
 7282POPC   NC330863  43.152   2.760   9.453
 7282POPC   PO430864  43.090   2.796   9.153
 7282POPC   GL130865  43.099   2.726   8.853
 7282POPC   GL230866  43.038   2.855   8.853
 7282POPC   C1A30867  43.061   2.759   8.553
 7282POPC   D2A30868  43.080   2.815   8.253
 7282POPC   C3A30869  43.111   2.804   7.953
 7282POPC   C4A30870  43.116   2.724   7.653
 7282POPC   C1B30871  43.028   2.976   8.553
 7282POPC   C2B30872  43.053   3.029   8.253
 7282POPC   C3B30873  42.990   2.988   7.953
 7282POPC   C4B30874  43.007   3.031   7.653
 7283POPC   NC330875  22.189  19.869   9.453
 7283POPC   PO430876  22.144  19.860   9.153
 7283POPC   GL130877  22.175  19.842   8.853
 7283POPC   GL230878  22.118  19.890   8.853
 7283POPC   C1A30879  22.199  19.847   8.553
 7283POPC   D2A30880  22.134  19.883   8.253
 7283POPC   C3A30881  22.142  19.843   7.953
 7283POPC   C4A30882  22.200  19.828   7.653
 7283POPC   C1B30883  21.940  19.998   8.553
 7283POPC   C2B30884  22.005  19.956   8.253
 7283POPC   C3B30885  21.937  20.010   7.953
 7283POPC   C4B30886  21.926  20.031   7.653
 7284POPC   NC330887  19.878  24.478   9.453
 7284POPC   PO430888  19.880  24.450   9.153
 7284POPC   GL130889  19.795  24.493   8.853
 7284POPC   GL230890  19.939  24.476   8.853
 7284POPC   C1A30891  19.876  24.448   8.553
 7284POPC   D2A30892  19.859  24.530   8.253
 7284POPC   C3A30893  19.799  24.473   7.953
 7284POPC   C4A30894  19.803  24.480   7.653
 7284POPC   C1B30895  20.103  24.373   8.553
 7284POPC   C2B30896  20.088  24.465   8.253
 7284POPC   C3B30897  20.080  24.442   7.953
 7284POPC   C4B30898  20.069  24.404   7.653
 7285POPC   NC330899  36.914   9.718   9.453
 7285POPC   PO430900  36.860   9.707   9.153
 7285POPC   GL130901  36.946   9.754   8.853
 7285POPC   GL230902  37.011   9.853   8.853
 7285POPC   C1A30903  36.918   9.766   8.553
 7285POPC   D2A30904  36.923   9.787   8.253
 7285POPC   C3A30905  36.936   9.738   7.953
 7285POPC   C4A30906  36.856   9.745   7.653
 7285POPC   C1B30907  37.075   9.910   8.553
 7285POPC   C2B30908  37.061   9.973   8.253
 7285POPC   C3B30909  37.034   9.884   7.953
 7285POPC   C4B30910  37.094   9.938   7.653
 7286POPC   NC330911  19.798  33.847   9.453
 7286POPC   PO430912  19.792  33.754   9.153
 7286POPC   GL130913  19.855  33.802   8.853
 7286POPC   GL230914  19.728  33.722   8.853
 7286POPC   C1A30915  19.842  33.779   8.553
 7286POPC   D2A30916  19.883  33.818   8.253
 7286POPC   C3A30917  19.823  33.772   7.953
 7286POPC   C4A30918  19.797  33.816   7.653
 7286POPC   C1B30919  19.622  33.710   8.553
 7286POPC   C2B30920  19.588  33.701   8.253
 7286POPC   C3B30921  19.582  33.721   7.953
 7286POPC   C4B30922  19.610  33.693   7.653
 7287POPC   NC330923  43.908  28.388   9.453
 7287POPC   PO430924  43.935  28.394   9.153
 7287POPC   GL130925  43.874  28.377   8.853
 7287POPC   GL230926  43.808  28.473   8.853
 7287POPC   C1A30927  43.936  28.333   8.553
 7287POPC   D2A30928  43.894  28.375   8.253
 7287POPC   C3A30929  43.927  28.319   7.953
 7287POPC   C4A30930  43.875  28.392   7.653
 7287POPC   C1B30931  43.717  28.539   8.553
 7287POPC   C2B30932  43.741  28.603   8.253
 7287POPC   C3B30933  43.787  28.578   7.953
 7287POPC   C4B30934  43.785  28.550   7.653
 7288POPC   NC330935  36.090  44.678   9.453
 7288POPC   PO430936  36.165  44.687   9.153
 7288POPC   GL130937  36.136  44.631   8.853
 7288POPC   GL230938  36.120  44.816   8.853
 7288POPC   C1A30939  36.166  44.631   8.553
 7288POPC   D2A30940  36.144  44.666   8.253
 7288POPC   C3A30941  36.097  44.693   7.953
 7288POPC   C4A30942  36.135  44.686   7.653
 7288POPC   C1B30943  36.211  44.926   8.553
 7288POPC   C2B30944  36.179  44.898   8.253
 7288POPC   C3B30945  36.239  44.853   7.953
 7288POPC   C4B30946  36.249  44.920   7.653
 7289POPC   NC330947  15.964  19.787   9.453
 7289POPC   PO430948  15.915  19.852   9.153
 7289POPC   GL130949  15.918  19.815   8.853
 7289POPC   GL230950  15.980  19.665   8.853
 7289POPC   C1A30951  15.957  19.790   8.553
 7289POPC   D2A30952  15.946  19.838   8.253
 7289POPC   C3A30953  15.935  19.795   7.953
 7289POPC   C4A30954  15.997  19.797   7.653
 7289POPC   C1B30955  15.969  19.569   8.553
 7289POPC   C2B30956  16.024  19.629   8.253
 7289POPC   C3B30957  15.979  19.606   7.953
 7289POPC   C4B30958  16.006  19.597   7.653
 7290POPC   NC330959  29.179  24.469   9.453
 7290POPC   PO430960  29.167  24.526   9.153
 7290POPC   GL130961  29.130  24.529   8.853
 7290POPC   GL230962  29.047  24.555   8.853
 7290POPC   C1A30963  29.160  24.460   8.553
 7290POPC   D2A30964  29.165  24.485   8.253
 7290POPC   C3A30965  29.098  24.483   7.953
 7290POPC   C4A30966  29.193  24.511   7.653
 7290POPC   C1B30967  28.924  24.536   8.553
 7290POPC   C2B30968  28.904  24.520   8.253
 7290POPC   C3B30969  28.873  24.583   7.953
 7290POPC   C4B30970  28.951  24.573   7.653
 7291POPC   NC330971  40.750   3.522   9.453
 7291POPC   PO430972  40.774   3.530   9.153
 7291POPC   GL130973  40.747   3.549   8.853
 7291POPC   GL230974  40.876   3.603   8.853
 7291POPC   C1A30975  40.809   3.582   8.553
 7291POPC   D2A30976  40.809   3.551   8.253
 7291POPC   C3A30977  40.797   3.573   7.953
 7291POPC   C4A30978  40.773   3.497   7.653
 7291POPC   C1B30979  40.928   3.701   8.553
 7291POPC   C2B30980  40.919   3.763   8.253
 7291POPC   C3B30981  40.904   3.745   7.953
 7291POPC   C4B30982  40.956   3.762   7.653
 7292POPC   NC330983  39.971  19.827   9.453
 7292POPC   PO430984  39.964  19.832   9.153
 7292POPC   GL130985  39.999  19.842   8.853
 7292POPC   GL230986  39.923  19.759   8.853
 7292POPC   C1A30987  40.011  19.847   8.553
 7292POPC   D2A30988  39.987  19.838   8.253
 7292POPC   C3A30989  40.056  19.837   7.953
 7292POPC   C4A30990  39.961  19.797   7.653
 7292POPC   C1B30991  39.815  19.592   8.553
 7292POPC   C2B30992  39.865  19.585   8.253
 7292POPC   C3B30993  39.858  19.652   7.953
 7292POPC   C4B30994  39.852  19.628   7.653
 7293POPC   NC330995  22.148  36.857   9.453
 7293POPC   PO430996  22.153  36.884   9.153
 7293POPC   GL130997  22.160  36.940   8.853
 7293POPC   GL230998  22.065  36.858   8.853
 7293POPC   C1A30999  22.137  36.912   8.553
 7293POPC   D2A31000  22.205  36.860   8.253
 7293POPC   C3A31001  22.198  36.901   7.953
 7293POPC   C4A31002  22.212  36.855   7.653
 7293POPC   C1B31003  21.985  36.772   8.553
 7293POPC   C2B31004  21.989  36.786   8.253
 7293POPC   C3B31005  21.980  36.823   7.953
 7293POPC   C4B31006  21.932  36.756   7.653
 7294POPC   NC331007  24.515  10.499   9.453
 7294POPC   PO431008  24.476  10.510   9.153
 7294POPC   GL131009  24.463  10.553   8.853
 7294POPC   GL231010  24.422  10.418   8.853
 7294POPC   C1A31011  24.450  10.562   8.553
 7294POPC   D2A31012  24.516  10.539   8.253
 7294POPC   C3A31013  24.517  10.504   7.953
 7294POPC   C4A31014  24.529  10.569   7.653
 7294POPC   C1B31015  24.496  10.317   8.553
 7294POPC   C2B31016  24.422  10.270   8.253
 7294POPC   C3B31017  24.470  10.259   7.953
 7294POPC   C4B31018  24.435  10.290   7.653
 7295POPC   NC331019  23.685  43.919   9.453
 7295POPC   PO431020  23.730  43.898   9.153
 7295POPC   GL131021  23.763  43.872   8.853
 7295POPC   GL231022  23.759  43.761   8.853
 7295POPC   C1A31023  23.671  43.903   8.553
 7295POPC   D2A31024  23.688  43.854   8.253
 7295POPC   C3A31025  23.694  43.936   7.953
 7295POPC   C4A31026  23.673  43.856   7.653
 7295POPC   C1B31027  23.824  43.620   8.553
 7295POPC   C2B31028  23.846  43.632   8.253
 7295POPC   C3B31029  23.799  43.612   7.953
 7295POPC   C4B31030  23.828  43.685   7.653
 7296POPC   NC331031  29.903  19.787   9.453
 7296POPC   PO431032  29.920  19.853   9.153
 7296POPC   GL131033  29.882  19.790   8.853
 7296POPC   GL231034  30.028  19.879   8.853
 7296POPC   C1A31035  29.919  19.809   8.553
 7296POPC   D2A31036  29.961  19.807   8.253
 7296POPC   C3A31037  29.925  19.829   7.953
 7296POPC   C4A31038  29.878  19.803   7.653
 7296POPC   C1B31039  30.079  20.036   8.553
 7296POPC   C2B31040  30.070  20.039   8.253
 7296POPC   C3B31041  30.155  20.034   7.953
 7296POPC   C4B31042  30.105  19.950   7.653
 7297POPC   NC331043  43.905  43.080   9.453
 7297POPC   PO431044  43.926  43.110   9.153
 7297POPC   GL131045  43.849  43.090   8.853
 7297POPC   GL231046  43.789  43.044   8.853
 7297POPC   C1A31047  43.932  43.158   8.553
 7297POPC   D2A31048  43.882  43.136   8.253
 7297POPC   C3A31049  43.858  43.094   7.953
 7297POPC   C4A31050  43.898  43.084   7.653
 7297POPC   C1B31051  43.645  42.998   8.553
 7297POPC   C2B31052  43.651  42.923   8.253
 7297POPC   C3B31053  43.694  42.916   7.953
 7297POPC   C4B31054  43.707  42.916   7.653
 7298POPC   NC331055  41.549   6.667   9.453
 7298POPC   PO431056  41.540   6.606   9.153
 7298POPC   GL131057  41.591   6.656   8.853
 7298POPC   GL231058  41.499   6.689   8.853
 7298POPC   C1A31059  41.519   6.675   8.553
 7298POPC   D2A31060  41.594   6.631   8.253
 7298POPC   C3A31061  41.564   6.682   7.953
 7298POPC   C4A31062  41.517   6.603   7.653
 7298POPC   C1B31063  41.318   6.758   8.553
 7298POPC   C2B31064  41.337   6.813   8.253
 7298POPC   C3B31065  41.326   6.782   7.953
 7298POPC   C4B31066  41.411   6.850   7.653
 7299POPC   NC331067  11.312  19.855   9.453
 7299POPC   PO431068  11.267  19.846   9.153
 7299POPC   GL131069  11.252  19.842   8.853
 7299POPC   GL231070  11.147  19.846   8.853
 7299POPC   C1A31071  11.291  19.832   8.553
 7299POPC   D2A31072  11.285  19.874   8.253
 7299POPC   C3A31073  11.347  19.828   7.953
 7299POPC   C4A31074  11.290  19.787   7.653
 7299POPC   C1B31075  11.050  19.803   8.553
 7299POPC   C2B31076  11.024  19.799   8.253
 7299POPC   C3B31077  11.079  19.731   7.953
 7299POPC   C4B31078  11.010  19.816   7.653
 7300POPC   NC331079  44.644  22.907   9.453
 7300POPC   PO431080  44.675  22.959   9.153
 7300POPC   GL131081  44.673  22.919   8.853
 7300POPC   GL231082  44.797  22.958   8.853
 7300POPC   C1A31083  44.615  22.985   8.553
 7300POPC   D2A31084  44.669  22.936   8.253
 7300POPC   C3A31085  44.697  22.906   7.953
 7300POPC   C4A31086  44.655  22.921   7.653
 7300POPC   C1B31087  44.937  22.943   8.553
 7300POPC   C2B31088  44.882  22.923   8.253
 7300POPC   C3B31089  44.862  22.943   7.953
 7300POPC   C4B31090  44.913  22.941   7.653
 7301POPC   NC331091  12.828  19.788   9.453
 7301POPC   PO431092  12.874  19.816   9.153
 7301POPC   GL131093  12.872  19.867   8.853
 7301POPC   GL231094  12.804  19.717   8.853
 7301POPC   C1A31095  12.901  19.872   8.553
 7301POPC   D2A31096  12.807  19.789   8.253
 7301POPC   C3A31097  12.808  19.798   7.953
 7301POPC   C4A31098  12.829  19.854   7.653
 7301POPC   C1B31099  12.772  19.611   8.553
 7301POPC   C2B31100  12.773  19.617   8.253
 7301POPC   C3B31101  12.748  19.553   7.953
 7301POPC   C4B31102  12.753  19.610   7.653
 7302POPC   NC331103  33.068  26.033   9.453
 7302POPC   PO431104  33.073  26.011   9.153
 7302POPC   GL131105  33.026  26.026   8.853
 7302POPC   GL231106  33.155  25.965   8.853
 7302POPC   C1A31107  33.014  25.992   8.553
 7302POPC   D2A31108  33.034  26.088   8.253
 7302POPC   C3A31109  33.009  26.075   7.953
 7302POPC   C4A31110  33.011  26.002   7.653
 7302POPC   C1B31111  33.216  25.862   8.553
 7302POPC   C2B31112  33.184  25.883   8.253
 7302POPC   C3B31113  33.244  25.815   7.953
 7302POPC   C4B31114  33.172  25.837   7.653
 7303POPC   NC331115  39.209  19.813   9.453
 7303POPC   PO431116  39.248  19.817   9.153
 7303POPC   GL131117  39.214  19.829   8.853
 7303POPC   GL231118  39.328  19.846   8.853
 7303POPC   C1A31119  39.257  19.814   8.553
 7303POPC   D2A31120  39.244  19.787   8.253
 7303POPC   C3A31121  39.234  19.841   7.953
 7303POPC   C4A31122  39.221  19.859   7.653
 7303POPC   C1B31123  39.488  19.986   8.553
 7303POPC   C2B31124  39.434  19.899   8.253
 7303POPC   C3B31125  39.500  19.906   7.953
 7303POPC   C4B31126  39.410  19.919   7.653
 7304POPC   NC331127  33.818  24.480   9.453
 7304POPC   PO431128  33.824  24.496   9.153
 7304POPC   GL131129  33.816  24.529   8.853
 7304POPC   GL231130  33.823  24.574   8.853
 7304POPC   C1A31131  33.825  24.460   8.553
 7304POPC   D2A31132  33.769  24.496   8.253
 7304POPC   C3A31133  33.793  24.521   7.953
 7304POPC   C4A31134  33.808  24.520   7.653
 7304POPC   C1B31135  33.800  24.728   8.553
 7304POPC   C2B31136  33.795  24.723   8.253
 7304POPC   C3B31137  33.716  24.772   7.953
 7304POPC   C4B31138  33.775  24.695   7.653
 7305POPC   NC331139  34.611  29.150   9.453
 7305POPC   PO431140  34.597  29.133   9.153
 7305POPC   GL131141  34.542  29.132   8.853
 7305POPC   GL231142  34.613  29.025   8.853
 7305POPC   C1A31143  34.571  29.109   8.553
 7305POPC   D2A31144  34.545  29.140   8.253
 7305POPC   C3A31145  34.542  29.184   7.953
 7305POPC   C4A31146  34.551  29.099   7.653
 7305POPC   C1B31147  34.547  28.850   8.553
 7305POPC   C2B31148  34.594  28.883   8.253
 7305POPC   C3B31149  34.577  28.866   7.953
 7305POPC   C4B31150  34.563  28.911   7.653
 7306POPC   NC331151  29.926  23.753   9.453
 7306POPC   PO431152  29.910  23.743   9.153
 7306POPC   GL131153  29.923  23.761   8.853
 7306POPC   GL231154  29.800  23.605   8.853
 7306POPC   C1A31155  29.890  23.668   8.553
 7306POPC   D2A31156  29.941  23.676   8.253
 7306POPC   C3A31157  29.920  23.693   7.953
 7306POPC   C4A31158  29.920  23.697   7.653
 7306POPC   C1B31159  29.756  23.551   8.553
 7306POPC   C2B31160  29.695  23.578   8.253
 7306POPC   C3B31161  29.771  23.543   7.953
 7306POPC   C4B31162  29.729  23.537   7.653
 7307POPC   NC331163   8.959   3.517   9.453
 7307POPC   PO431164   8.983   3.515   9.153
 7307POPC   GL131165   8.981   3.522   8.853
 7307POPC   GL231166   9.076   3.647   8.853
 7307POPC   C1A31167   8.996   3.589   8.553
 7307POPC   D2A31168   8.971   3.548   8.253
 7307POPC   C3A31169   9.020   3.558   7.953
 7307POPC   C4A31170   9.017   3.579   7.653
 7307POPC   C1B31171   9.199   3.643   8.553
 7307POPC   C2B31172   9.141   3.642   8.253
 7307POPC   C3B31173   9.207   3.650   7.953
 7307POPC   C4B31174   9.193   3.643   7.653
 7308POPC   NC331175  19.873  36.871   9.453
 7308POPC   PO431176  19.883  36.913   9.153
 7308POPC   GL131177  19.842  36.897   8.853
 7308POPC   GL231178  19.735  36.954   8.853
 7308POPC   C1A31179  19.856  36.883   8.553
 7308POPC   D2A31180  19.862  36.901   8.253
 7308POPC   C3A31181  19.864  36.943   7.953
 7308POPC   C4A31182  19.785  36.953   7.653
 7308POPC   C1B31183  19.579  37.061   8.553
 7308POPC   C2B31184  19.629  37.050   8.253
 7308POPC   C3B31185  19.596  36.995   7.953
 7308POPC   C4B31186  19.572  37.057   7.653
 7309POPC   NC331187  12.085  31.464   9.453
 7309POPC   PO431188  12.079  31.449   9.153
 7309POPC   GL131189  12.092  31.437   8.853
 7309POPC   GL231190  12.063  31.547   8.853
 7309POPC   C1A31191  12.063  31.464   8.553
 7309POPC   D2A31192  12.116  31.426   8.253
 7309POPC   C3A31193  12.100  31.482   7.953
 7309POPC   C4A31194  12.049  31.498   7.653
 7309POPC   C1B31195  12.008  31.692   8.553
 7309POPC   C2B31196  12.040  31.677   8.253
 7309POPC   C3B31197  12.032  31.697   7.953
 7309POPC   C4B31198  12.008  31.719   7.653
 7310POPC   NC331199  41.593  10.496   9.453
 7310POPC   PO431200  41.529  10.518   9.153
 7310POPC   GL131201  41.548  10.496   8.853
 7310POPC   GL231202  41.606  10.658   8.853
 7310POPC   C1A31203  41.521  10.571   8.553
 7310POPC   D2A31204  41.569  10.546   8.253
 7310POPC   C3A31205  41.558  10.555   7.953
 7310POPC   C4A31206  41.585  10.475   7.653
 7310POPC   C1B31207  41.638  10.725   8.553
 7310POPC   C2B31208  41.732  10.766   8.253
 7310POPC   C3B31209  41.734  10.754   7.953
 7310POPC   C4B31210  41.670  10.755   7.653
 7311POPC   NC331211  31.476  25.269   9.453
 7311POPC   PO431212  31.511  25.244   9.153
 7311POPC   GL131213  31.461  25.260   8.853
 7311POPC   GL231214  31.444  25.095   8.853
 7311POPC   C1A31215  31.479  25.242   8.553
 7311POPC   D2A31216  31.477  25.222   8.253
 7311POPC   C3A31217  31.461  25.312   7.953
 7311POPC   C4A31218  31.427  25.304   7.653
 7311POPC   C1B31219  31.382  25.035   8.553
 7311POPC   C2B31220  31.425  25.059   8.253
 7311POPC   C3B31221  31.414  24.987   7.953
 7311POPC   C4B31222  31.427  25.035   7.653
 7312POPC   NC331223  29.113  23.738   9.453
 7312POPC   PO431224  29.150  23.730   9.153
 7312POPC   GL131225  29.124  23.688   8.853
 7312POPC   GL231226  29.256  23.651   8.853
 7312POPC   C1A31227  29.125  23.688   8.553
 7312POPC   D2A31228  29.123  23.702   8.253
 7312POPC   C3A31229  29.110  23.718   7.953
 7312POPC   C4A31230  29.183  23.679   7.653
 7312POPC   C1B31231  29.384  23.608   8.553
 7312POPC   C2B31232  29.361  23.533   8.253
 7312POPC   C3B31233  29.383  23.611   7.953
 7312POPC   C4B31234  29.374  23.612   7.653
 7313POPC   NC331235  32.240  35.371   9.453
 7313POPC   PO431236  32.222  35.381   9.153
 7313POPC   GL131237  32.271  35.302   8.853
 7313POPC   GL231238  32.171  35.339   8.853
 7313POPC   C1A31239  32.251  35.384   8.553
 7313POPC   D2A31240  32.258  35.320   8.253
 7313POPC   C3A31241  32.231  35.363   7.953
 7313POPC   C4A31242  32.261  35.394   7.653
 7313POPC   C1B31243  32.035  35.404   8.553
 7313POPC   C2B31244  32.021  35.400   8.253
 7313POPC   C3B31245  32.028  35.349   7.953
 7313POPC   C4B31246  31.978  35.340   7.653
 7314POPC   NC331247  29.178   3.558   9.453
 7314POPC   PO431248  29.130   3.577   9.153
 7314POPC   GL131249  29.157   3.546   8.853
 7314POPC   GL231250  29.050   3.620   8.853
 7314POPC   C1A31251  29.150   3.554   8.553
 7314POPC   D2A31252  29.111   3.533   8.253
 7314POPC   C3A31253  29.127   3.533   7.953
 7314POPC   C4A31254  29.111   3.558   7.653
 7314POPC   C1B31255  28.950   3.674   8.553
 7314POPC   C2B31256  28.935   3.654   8.253
 7314POPC   C3B31257  28.889   3.690   7.953
 7314POPC   C4B31258  28.936   3.615   7.653
 7315POPC   NC331259  11.325  18.248   9.453
 7315POPC   PO431260  11.254  18.260   9.153
 7315POPC   GL131261  11.287  18.325   8.853
 7315POPC   GL231262  11.286  18.370   8.853
 7315POPC   C1A31263  11.299  18.286   8.553
 7315POPC   D2A31264  11.340  18.312   8.253
 7315POPC   C3A31265  11.313  18.311   7.953
 7315POPC   C4A31266  11.272  18.331   7.653
 7315POPC   C1B31267  11.376  18.567   8.553
 7315POPC   C2B31268  11.385  18.477   8.253
 7315POPC   C3B31269  11.405  18.528   7.953
 7315POPC   C4B31270  11.361  18.478   7.653
 7316POPC   NC331271  38.446  23.743   9.453
 7316POPC   PO431272  38.504  23.708   9.153
 7316POPC   GL131273  38.414  23.693   8.853
 7316POPC   GL231274  38.353  23.729   8.853
 7316POPC   C1A31275  38.485  23.747   8.553
 7316POPC   D2A31276  38.413  23.678   8.253
 7316POPC   C3A31277  38.443  23.693   7.953
 7316POPC   C4A31278  38.477  23.674   7.653
 7316POPC   C1B31279  38.184  23.711   8.553
 7316POPC   C2B31280  38.172  23.616   8.253
 7316POPC   C3B31281  38.209  23.710   7.953
 7316POPC   C4B31282  38.188  23.680   7.653
 7317POPC   NC331283   9.781  14.394   9.453
 7317POPC   PO431284   9.746  14.413   9.153
 7317POPC   GL131285   9.718  14.364   8.853
 7317POPC   GL231286   9.793  14.279   8.853
 7317POPC   C1A31287   9.769  14.420   8.553
 7317POPC   D2A31288   9.788  14.408   8.253
 7317POPC   C3A31289   9.719  14.359   7.953
 7317POPC   C4A31290   9.714  14.375   7.653
 7317POPC   C1B31291   9.911  14.200   8.553
 7317POPC   C2B31292   9.865  14.166   8.253
 7317POPC   C3B31293   9.838  14.197   7.953
 7317POPC   C4B31294   9.897  14.237   7.653
 7318POPC   NC331295   2.810  19.087   9.453
 7318POPC   PO431296   2.726  19.037   9.153
 7318POPC   GL131297   2.813  19.082   8.853
 7318POPC   GL231298   2.722  19.145   8.853
 7318POPC   C1A31299   2.790  19.082   8.553
 7318POPC   D2A31300   2.758  19.069   8.253
 7318POPC   C3A31301   2.721  19.060   7.953
 7318POPC   C4A31302   2.758  19.066   7.653
 7318POPC   C1B31303   2.611  19.309   8.553
 7318POPC   C2B31304   2.597  19.212   8.253
 7318POPC   C3B31305   2.601  19.306   7.953
 7318POPC   C4B31306   2.628  19.294   7.653
 7319POPC   NC331307  43.932  38.457   9.453
 7319POPC   PO431308  43.930  38.475   9.153
 7319POPC   GL131309  43.864  38.430   8.853
 7319POPC   GL231310  43.763  38.533   8.853
 7319POPC   C1A31311  43.903  38.490   8.553
 7319POPC   D2A31312  43.918  38.500   8.253
 7319POPC   C3A31313  43.877  38.455   7.953
 7319POPC   C4A31314  43.859  38.475   7.653
 7319POPC   C1B31315  43.738  38.655   8.553
 7319POPC   C2B31316  43.664  38.563   8.253
 7319POPC   C3B31317  43.675  38.630   7.953
 7319POPC   C4B31318  43.663  38.592   7.653
 7320POPC   NC331319  20.615  43.871   9.453
 7320POPC   PO431320  20.655  43.927   9.153
 7320POPC   GL131321  20.618  43.873   8.853
 7320POPC   GL231322  20.703  43.748   8.853
 7320POPC   C1A31323  20.617  43.907   8.553
 7320POPC   D2A31324  20.636  43.861   8.253
 7320POPC   C3A31325  20.611  43.855   7.953
 7320POPC   C4A31326  20.643  43.903   7.653
 7320POPC   C1B31327  20.728  43.717   8.553
 7320POPC   C2B31328  20.703  43.699   8.253
 7320POPC   C3B31329  20.753  43.678   7.953
 7320POPC   C4B31330  20.720  43.699   7.653
 7321POPC   NC331331  12.047  44.644   9.453
 7321POPC   PO431332  12.072  44.697   9.153
 7321POPC   GL131333  12.032  44.632   8.853
 7321POPC   GL231334  12.165  44.543   8.853
 7321POPC   C1A31335  12.097  44.643   8.553
 7321POPC   D2A31336  12.031  44.684   8.253
 7321POPC   C3A31337  12.048  44.689   7.953
 7321POPC   C4A31338  12.104  44.684   7.653
 7321POPC   C1B31339  12.304  44.510   8.553
 7321POPC   C2B31340  12.288  44.477   8.253
 7321POPC   C3B31341  12.287  44.472   7.953
 7321POPC   C4B31342  12.300  44.493   7.653
 7322POPC   NC331343  19.803  33.001   9.453
 7322POPC   PO431344  19.866  33.000   9.153
 7322POPC   GL131345  19.834  32.975   8.853
 7322POPC   GL231346  19.893  32.904   8.853
 7322POPC   C1A31347  19.842  32.980   8.553
 7322POPC   D2A31348  19.813  33.047   8.253
 7322POPC   C3A31349  19.875  33.068   7.953
 7322POPC   C4A31350  19.798  33.007   7.653
 7322POPC   C1B31351  19.980  32.841   8.553
 7322POPC   C2B31352  20.016  32.808   8.253
 7322POPC   C3B31353  20.024  32.885   7.953
 7322POPC   C4B31354  19.992  32.809   7.653
 7323POPC   NC331355   0.399  20.590   9.453
 7323POPC   PO431356   0.468  20.577   9.153
 7323POPC   GL131357   0.461  20.645   8.853
 7323POPC   GL231358   0.291  20.708   8.853
 7323POPC   C1A31359   0.448  20.564   8.553
 7323POPC   D2A31360   0.402  20.627   8.253
 7323POPC   C3A31361   0.477  20.599   7.953
 7323POPC   C4A31362   0.446  20.615   7.653
 7323POPC   C1B31363   0.204  20.722   8.553
 7323POPC   C2B31364   0.282  20.780   8.253
 7323POPC   C3B31365   0.210  20.805   7.953
 7323POPC   C4B31366   0.205  20.749   7.653
 7324POPC   NC331367  43.888  31.470   9.453
 7324POPC   PO431368  43.860  31.449   9.153
 7324POPC   GL131369  43.891  31.433   8.853
 7324POPC   GL231370  43.805  31.388   8.853
 7324POPC   C1A31371  43.857  31.498   8.553
 7324POPC   D2A31372  43.886  31.502   8.253
 7324POPC   C3A31373  43.935  31.492   7.953
 7324POPC   C4A31374  43.930  31.484   7.653
 7324POPC   C1B31375  43.851  31.249   8.553
 7324POPC   C2B31376  43.777  31.225   8.253
 7324POPC   C3B31377  43.865  31.245   7.953
 7324POPC   C4B31378  43.855  31.198   7.653
 7325POPC   NC331379  14.407   3.525   9.453
 7325POPC   PO431380  14.431   3.501   9.153
 7325POPC   GL131381  14.424   3.501   8.853
 7325POPC   GL231382  14.256   3.495   8.853
 7325POPC   C1A31383  14.424   3.497   8.553
 7325POPC   D2A31384  14.378   3.570   8.253
 7325POPC   C3A31385  14.400   3.537   7.953
 7325POPC   C4A31386  14.368   3.492   7.653
 7325POPC   C1B31387  14.189   3.389   8.553
 7325POPC   C2B31388  14.179   3.347   8.253
 7325POPC   C3B31389  14.201   3.374   7.953
 7325POPC   C4B31390  14.168   3.362   7.653
 7326POPC   NC331391  34.567  24.501   9.453
 7326POPC   PO431392  34.528  24.490   9.153
 7326POPC   GL131393  34.571  24.523   8.853
 7326POPC   GL231394  34.599  24.379   8.853
 7326POPC   C1A31395  34.623  24.478   8.553
 7326POPC   D2A31396  34.535  24.511   8.253
 7326POPC   C3A31397  34.537  24.471   7.953
 7326POPC   C4A31398  34.563  24.536   7.653
 7326POPC   C1B31399  34.516  24.288   8.553
 7326POPC   C2B31400  34.522  24.249   8.253
 7326POPC   C3B31401  34.530  24.194   7.953
 7326POPC   C4B31402  34.494  24.231   7.653
 7327POPC   NC331403   9.010  21.341   9.453
 7327POPC   PO431404   8.992  21.397   9.153
 7327POPC   GL131405   9.013  21.413   8.853
 7327POPC   GL231406   9.060  21.321   8.853
 7327POPC   C1A31407   8.956  21.396   8.553
 7327POPC   D2A31408   9.013  21.356   8.253
 7327POPC   C3A31409   8.928  21.420   7.953
 7327POPC   C4A31410   8.980  21.404   7.653
 7327POPC   C1B31411   9.198  21.206   8.553
 7327POPC   C2B31412   9.129  21.195   8.253
 7327POPC   C3B31413   9.191  21.267   7.953
 7327POPC   C4B31414   9.133  21.171   7.653
 7328POPC   NC331415  15.169   7.387   9.453
 7328POPC   PO431416  15.136   7.422   9.153
 7328POPC   GL131417  15.135   7.406   8.853
 7328POPC   GL231418  15.249   7.524   8.853
 7328POPC   C1A31419  15.210   7.396   8.553
 7328POPC   D2A31420  15.223   7.409   8.253
 7328POPC   C3A31421  15.209   7.458   7.953
 7328POPC   C4A31422  15.153   7.421   7.653
 7328POPC   C1B31423  15.351   7.587   8.553
 7328POPC   C2B31424  15.378   7.627   8.253
 7328POPC   C3B31425  15.377   7.624   7.953
 7328POPC   C4B31426  15.362   7.587   7.653
 7329POPC   NC331427  13.641   7.457   9.453
 7329POPC   PO431428  13.610   7.460   9.153
 7329POPC   GL131429  13.674   7.446   8.853
 7329POPC   GL231430  13.471   7.456   8.853
 7329POPC   C1A31431  13.623   7.396   8.553
 7329POPC   D2A31432  13.612   7.426   8.253
 7329POPC   C3A31433  13.667   7.459   7.953
 7329POPC   C4A31434  13.660   7.428   7.653
 7329POPC   C1B31435  13.441   7.518   8.553
 7329POPC   C2B31436  13.345   7.463   8.253
 7329POPC   C3B31437  13.353   7.458   7.953
 7329POPC   C4B31438  13.394   7.537   7.653
 7330POPC   NC331439  37.656  23.689   9.453
 7330POPC   PO431440  37.652  23.712   9.153
 7330POPC   GL131441  37.714  23.736   8.853
 7330POPC   GL231442  37.536  23.729   8.853
 7330POPC   C1A31443  37.722  23.701   8.553
 7330POPC   D2A31444  37.651  23.710   8.253
 7330POPC   C3A31445  37.668  23.764   7.953
 7330POPC   C4A31446  37.699  23.708   7.653
 7330POPC   C1B31447  37.391  23.806   8.553
 7330POPC   C2B31448  37.398  23.822   8.253
 7330POPC   C3B31449  37.466  23.820   7.953
 7330POPC   C4B31450  37.443  23.738   7.653
 7331POPC   NC331451  39.274   2.017   9.453
 7331POPC   PO431452  39.192   2.022   9.153
 7331POPC   GL131453  39.182   1.945   8.853
 7331POPC   GL231454  39.114   1.917   8.853
 7331POPC   C1A31455  39.185   1.941   8.553
 7331POPC   D2A31456  39.273   1.976   8.253
 7331POPC   C3A31457  39.234   1.984   7.953
 7331POPC   C4A31458  39.263   1.986   7.653
 7331POPC   C1B31459  39.006   1.855   8.553
 7331POPC   C2B31460  39.035   1.862   8.253
 7331POPC   C3B31461  39.015   1.830   7.953
 7331POPC   C4B31462  38.987   1.829   7.653
 7332POPC   NC331463  26.810  10.545   9.453
 7332POPC   PO431464  26.836  10.509   9.153
 7332POPC   GL131465  26.801  10.545   8.853
 7332POPC   GL231466  26.841  10.645   8.853
 7332POPC   C1A31467  26.796  10.559   8.553
 7332POPC   D2A31468  26.850  10.546   8.253
 7332POPC   C3A31469  26.855  10.509   7.953
 7332POPC   C4A31470  26.772  10.491   7.653
 7332POPC   C1B31471  26.748  10.818   8.553
 7332POPC   C2B31472  26.724  10.735   8.253
 7332POPC   C3B31473  26.764  10.729   7.953
 7332POPC   C4B31474  26.788  10.763   7.653
 7333POPC   NC331475   5.909   9.784   9.453
 7333POPC   PO431476   5.913   9.790   9.153
 7333POPC   GL131477   5.860   9.786   8.853
 7333POPC   GL231478   5.721   9.718   8.853
 7333POPC   C1A31479   5.848   9.781   8.553
 7333POPC   D2A31480   5.892   9.770   8.253
 7333POPC   C3A31481   5.892   9.779   7.953
 7333POPC   C4A31482   5.866   9.772   7.653
 7333POPC   C1B31483   5.605   9.684   8.553
 7333POPC   C2B31484   5.599   9.720   8.253
 7333POPC   C3B31485   5.607   9.689   7.953
 7333POPC   C4B31486   5.583   9.743   7.653
 7334POPC   NC331487  17.530  40.809   9.453
 7334POPC   PO431488  17.470  40.742   9.153
 7334POPC   GL131489  17.474  40.811   8.853
 7334POPC   GL231490  17.484  40.665   8.853
 7334POPC   C1A31491  17.543  40.812   8.553
 7334POPC   D2A31492  17.470  40.817   8.253
 7334POPC   C3A31493  17.524  40.816   7.953
 7334POPC   C4A31494  17.502  40.831   7.653
 7334POPC   C1B31495  17.392  40.526   8.553
 7334POPC   C2B31496  17.451  40.503   8.253
 7334POPC   C3B31497  17.460  40.576   7.953
 7334POPC   C4B31498  17.435  40.528   7.653
 7335POPC   NC331499  16.758  43.089   9.453
 7335POPC   PO431500  16.714  43.154   9.153
 7335POPC   GL131501  16.759  43.092   8.853
 7335POPC   GL231502  16.576  43.116   8.853
 7335POPC   C1A31503  16.702  43.123   8.553
 7335POPC   D2A31504  16.736  43.104   8.253
 7335POPC   C3A31505  16.771  43.122   7.953
 7335POPC   C4A31506  16.762  43.066   7.653
 7335POPC   C1B31507  16.510  43.042   8.553
 7335POPC   C2B31508  16.528  42.994   8.253
 7335POPC   C3B31509  16.456  42.988   7.953
 7335POPC   C4B31510  16.545  43.032   7.653
 7336POPC   NC331511  12.054  18.272   9.453
 7336POPC   PO431512  12.041  18.302   9.153
 7336POPC   GL131513  12.065  18.271   8.853
 7336POPC   GL231514  12.034  18.204   8.853
 7336POPC   C1A31515  12.036  18.272   8.553
 7336POPC   D2A31516  12.045  18.321   8.253
 7336POPC   C3A31517  12.115  18.267   7.953
 7336POPC   C4A31518  12.071  18.321   7.653
 7336POPC   C1B31519  11.970  18.049   8.553
 7336POPC   C2B31520  11.929  18.055   8.253
 7336POPC   C3B31521  11.924  18.024   7.953
 7336POPC   C4B31522  11.955  18.019   7.653
 7337POPC   NC331523  26.823  12.866   9.453
 7337POPC   PO431524  26.852  12.866   9.153
 7337POPC   GL131525  26.783  12.882   8.853
 7337POPC   GL231526  26.938  12.913   8.853
 7337POPC   C1A31527  26.785  12.864   8.553
 7337POPC   D2A31528  26.855  12.851   8.253
 7337POPC   C3A31529  26.776  12.882   7.953
 7337POPC   C4A31530  26.829  12.822   7.653
 7337POPC   C1B31531  27.072  12.920   8.553
 7337POPC   C2B31532  27.051  12.951   8.253
 7337POPC   C3B31533  27.080  12.960   7.953
 7337POPC   C4B31534  27.056  13.000   7.653
 7338POPC   NC331535   3.531  38.493   9.453
 7338POPC   PO431536   3.495  38.471   9.153
 7338POPC   GL131537   3.548  38.479   8.853
 7338POPC   GL231538   3.452  38.486   8.853
 7338POPC   C1A31539   3.546  38.460   8.553
 7338POPC   D2A31540   3.514  38.503   8.253
 7338POPC   C3A31541   3.551  38.481   7.953
 7338POPC   C4A31542   3.560  38.409   7.653
 7338POPC   C1B31543   3.349  38.543   8.553
 7338POPC   C2B31544   3.348  38.487   8.253
 7338POPC   C3B31545   3.310  38.519   7.953
 7338POPC   C4B31546   3.272  38.536   7.653
 7339POPC   NC331547  35.350  38.476   9.453
 7339POPC   PO431548  35.360  38.469   9.153
 7339POPC   GL131549  35.353  38.498   8.853
 7339POPC   GL231550  35.382  38.303   8.853
 7339POPC   C1A31551  35.382  38.411   8.553
 7339POPC   D2A31552  35.398  38.412   8.253
 7339POPC   C3A31553  35.338  38.412   7.953
 7339POPC   C4A31554  35.320  38.420   7.653
 7339POPC   C1B31555  35.347  38.183   8.553
 7339POPC   C2B31556  35.352  38.164   8.253
 7339POPC   C3B31557  35.313  38.254   7.953
 7339POPC   C4B31558  35.337  38.213   7.653
 7340POPC   NC331559  12.825  14.354   9.453
 7340POPC   PO431560  12.813  14.419   9.153
 7340POPC   GL131561  12.823  14.432   8.853
 7340POPC   GL231562  12.921  14.320   8.853
 7340POPC   C1A31563  12.830  14.436   8.553
 7340POPC   D2A31564  12.848  14.436   8.253
 7340POPC   C3A31565  12.857  14.382   7.953
 7340POPC   C4A31566  12.826  14.383   7.653
 7340POPC   C1B31567  12.894  14.159   8.553
 7340POPC   C2B31568  12.864  14.144   8.253
 7340POPC   C3B31569  12.931  14.167   7.953
 7340POPC   C4B31570  12.914  14.155   7.653
 7341POPC   NC331571  34.578  28.416   9.453
 7341POPC   PO431572  34.532  28.358   9.153
 7341POPC   GL131573  34.594  28.414   8.853
 7341POPC   GL231574  34.604  28.531   8.853
 7341POPC   C1A31575  34.529  28.369   8.553
 7341POPC   D2A31576  34.619  28.330   8.253
 7341POPC   C3A31577  34.568  28.418   7.953
 7341POPC   C4A31578  34.565  28.331   7.653
 7341POPC   C1B31579  34.553  28.572   8.553
 7341POPC   C2B31580  34.541  28.605   8.253
 7341POPC   C3B31581  34.515  28.655   7.953
 7341POPC   C4B31582  34.513  28.649   7.653
 7342POPC   NC331583  23.686  20.581   9.453
 7342POPC   PO431584  23.707  20.570   9.153
 7342POPC   GL131585  23.698  20.598   8.853
 7342POPC   GL231586  23.645  20.677   8.853
 7342POPC   C1A31587  23.763  20.596   8.553
 7342POPC   D2A31588  23.695  20.601   8.253
 7342POPC   C3A31589  23.707  20.579   7.953
 7342POPC   C4A31590  23.695  20.618   7.653
 7342POPC   C1B31591  23.622  20.879   8.553
 7342POPC   C2B31592  23.582  20.880   8.253
 7342POPC   C3B31593  23.633  20.853   7.953
 7342POPC   C4B31594  23.634  20.802   7.653
 7343POPC   NC331595  29.110  10.556   9.453
 7343POPC   PO431596  29.134  10.548   9.153
 7343POPC   GL131597  29.117  10.565   8.853
 7343POPC   GL231598  29.141  10.420   8.853
 7343POPC   C1A31599  29.133  10.572   8.553
 7343POPC   D2A31600  29.099  10.546   8.253
 7343POPC   C3A31601  29.150  10.514   7.953
 7343POPC   C4A31602  29.180  10.494   7.653
 7343POPC   C1B31603  29.194  10.298   8.553
 7343POPC   C2B31604  29.277  10.240   8.253
 7343POPC   C3B31605  29.220  10.328   7.953
 7343POPC   C4B31606  29.256  10.311   7.653
 7344POPC   NC331607  37.653   2.732   9.453
 7344POPC   PO431608  37.699   2.745   9.153
 7344POPC   GL131609  37.718   2.754   8.853
 7344POPC   GL231610  37.649   2.613   8.853
 7344POPC   C1A31611  37.651   2.807   8.553
 7344POPC   D2A31612  37.673   2.765   8.253
 7344POPC   C3A31613  37.665   2.801   7.953
 7344POPC   C4A31614  37.704   2.741   7.653
 7344POPC   C1B31615  37.677   2.535   8.553
 7344POPC   C2B31616  37.719   2.500   8.253
 7344POPC   C3B31617  37.688   2.478   7.953
 7344POPC   C4B31618  37.700   2.513   7.653
 7345POPC   NC331619   0.475  37.652   9.453
 7345POPC   PO431620   0.389  37.681   9.153
 7345POPC   GL131621   0.436  37.646   8.853
 7345POPC   GL231622   0.582  37.679   8.853
 7345POPC   C1A31623   0.452  37.683   8.553
 7345POPC   D2A31624   0.470  37.711   8.253
 7345POPC   C3A31625   0.399  37.669   7.953
 7345POPC   C4A31626   0.443  37.688   7.653
 7345POPC   C1B31627   0.706  37.614   8.553
 7345POPC   C2B31628   0.675  37.591   8.253
 7345POPC   C3B31629   0.655  37.591   7.953
 7345POPC   C4B31630   0.683  37.635   7.653
 7346POPC   NC331631  27.550  43.146   9.453
 7346POPC   PO431632  27.569  43.085   9.153
 7346POPC   GL131633  27.619  43.084   8.853
 7346POPC   GL231634  27.437  43.103   8.853
 7346POPC   C1A31635  27.636  43.157   8.553
 7346POPC   D2A31636  27.606  43.123   8.253
 7346POPC   C3A31637  27.585  43.141   7.953
 7346POPC   C4A31638  27.564  43.097   7.653
 7346POPC   C1B31639  27.317  43.139   8.553
 7346POPC   C2B31640  27.396  43.141   8.253
 7346POPC   C3B31641  27.346  43.150   7.953
 7346POPC   C4B31642  27.314  43.134   7.653
 7347POPC   NC331643  36.895   5.914   9.453
 7347POPC   PO431644  36.863   5.849   9.153
 7347POPC   GL131645  36.856   5.850   8.853
 7347POPC   GL231646  36.955   5.982   8.853
 7347POPC   C1A31647  36.885   5.848   8.553
 7347POPC   D2A31648  36.922   5.833   8.253
 7347POPC   C3A31649  36.925   5.839   7.953
 7347POPC   C4A31650  36.870   5.821   7.653
 7347POPC   C1B31651  36.864   6.143   8.553
 7347POPC   C2B31652  36.951   6.153   8.253
 7347POPC   C3B31653  36.930   6.122   7.953
 7347POPC   C4B31654  36.905   6.118   7.653
 7348POPC   NC331655  43.072  35.317   9.453
 7348POPC   PO431656  43.085  35.388   9.153
 7348POPC   GL131657  43.101  35.325   8.853
 7348POPC   GL231658  43.071  35.507   8.853
 7348POPC   C1A31659  43.141  35.305   8.553
 7348POPC   D2A31660  43.144  35.311   8.253
 7348POPC   C3A31661  43.120  35.313   7.953
 7348POPC   C4A31662  43.141  35.389   7.653
 7348POPC   C1B31663  43.073  35.596   8.553
 7348POPC   C2B31664  42.999  35.573   8.253
 7348POPC   C3B31665  43.019  35.638   7.953
 7348POPC   C4B31666  43.032  35.630   7.653
 7349POPC   NC331667  39.968  29.913   9.453
 7349POPC   PO431668  40.029  29.949   9.153
 7349POPC   GL131669  39.976  29.922   8.853
 7349POPC   GL231670  39.913  29.956   8.853
 7349POPC   C1A31671  39.957  29.878   8.553
 7349POPC   D2A31672  40.001  29.899   8.253
 7349POPC   C3A31673  39.961  29.915   7.953
 7349POPC   C4A31674  39.990  29.913   7.653
 7349POPC   C1B31675  39.760  30.035   8.553
 7349POPC   C2B31676  39.803  30.089   8.253
 7349POPC   C3B31677  39.857  30.065   7.953
 7349POPC   C4B31678  39.822  30.065   7.653
 7350POPC   NC331679  29.876  35.372   9.453
 7350POPC   PO431680  29.943  35.389   9.153
 7350POPC   GL131681  29.888  35.355   8.853
 7350POPC   GL231682  30.045  35.475   8.853
 7350POPC   C1A31683  29.917  35.341   8.553
 7350POPC   D2A31684  29.946  35.397   8.253
 7350POPC   C3A31685  29.872  35.381   7.953
 7350POPC   C4A31686  29.874  35.311   7.653
 7350POPC   C1B31687  30.059  35.502   8.553
 7350POPC   C2B31688  30.051  35.529   8.253
 7350POPC   C3B31689  30.098  35.524   7.953
 7350POPC   C4B31690  30.110  35.535   7.653
 7351POPC   NC331691  15.177   4.334   9.453
 7351POPC   PO431692  15.194   4.342   9.153
 7351POPC   GL131693  15.196   4.271   8.853
 7351POPC   GL231694  15.161   4.205   8.853
 7351POPC   C1A31695  15.180   4.322   8.553
 7351POPC   D2A31696  15.171   4.366   8.253
 7351POPC   C3A31697  15.223   4.337   7.953
 7351POPC   C4A31698  15.150   4.319   7.653
 7351POPC   C1B31699  15.260   4.063   8.553
 7351POPC   C2B31700  15.213   4.095   8.253
 7351POPC   C3B31701  15.245   4.042   7.953
 7351POPC   C4B31702  15.204   4.033   7.653
 7352POPC   NC331703  39.970  39.973   9.453
 7352POPC   PO431704  40.002  40.000   9.153
 7352POPC   GL131705  40.050  40.041   8.853
 7352POPC   GL231706  39.891  40.019   8.853
 7352POPC   C1A31707  40.047  39.962   8.553
 7352POPC   D2A31708  39.966  40.007   8.253
 7352POPC   C3A31709  40.034  40.032   7.953
 7352POPC   C4A31710  40.035  39.970   7.653
 7352POPC   C1B31711  39.804  40.105   8.553
 7352POPC   C2B31712  39.761  40.118   8.253
 7352POPC   C3B31713  39.765  40.072   7.953
 7352POPC   C4B31714  39.783  40.069   7.653
 7353POPC   NC331715  35.375   8.212   9.453
 7353POPC   PO431716  35.373   8.228   9.153
 7353POPC   GL131717  35.381   8.241   8.853
 7353POPC   GL231718  35.274   8.156   8.853
 7353POPC   C1A31719  35.390   8.209   8.553
 7353POPC   D2A31720  35.342   8.202   8.253
 7353POPC   C3A31721  35.317   8.153   7.953
 7353POPC   C4A31722  35.387   8.163   7.653
 7353POPC   C1B31723  35.165   8.119   8.553
 7353POPC   C2B31724  35.136   8.097   8.253
 7353POPC   C3B31725  35.161   8.112   7.953
 7353POPC   C4B31726  35.161   8.112   7.653
 7354POPC   NC331727  43.091  25.240   9.453
 7354POPC   PO431728  43.124  25.309   9.153
 7354POPC   GL131729  43.145  25.300   8.853
 7354POPC   GL231730  43.012  25.395   8.853
 7354POPC   C1A31731  43.160  25.224   8.553
 7354POPC   D2A31732  43.117  25.276   8.253
 7354POPC   C3A31733  43.104  25.290   7.953
 7354POPC   C4A31734  43.133  25.258   7.653
 7354POPC   C1B31735  42.983  25.468   8.553
 7354POPC   C2B31736  42.971  25.460   8.253
 7354POPC   C3B31737  42.946  25.432   7.953
 7354POPC   C4B31738  42.927  25.489   7.653
 7355POPC   NC331739  29.967  33.072   9.453
 7355POPC   PO431740  29.883  33.072   9.153
 7355POPC   GL131741  29.966  33.019   8.853
 7355POPC   GL231742  29.856  32.956   8.853
 7355POPC   C1A31743  29.968  32.979   8.553
 7355POPC   D2A31744  29.886  32.996   8.253
 7355POPC   C3A31745  29.935  33.052   7.953
 7355POPC   C4A31746  29.966  33.014   7.653
 7355POPC   C1B31747  29.721  32.930   8.553
 7355POPC   C2B31748  29.701  32.852   8.253
 7355POPC   C3B31749  29.741  32.906   7.953
 7355POPC   C4B31750  29.733  32.930   7.653
 7356POPC   NC331751   7.431   4.310   9.453
 7356POPC   PO431752   7.408   4.313   9.153
 7356POPC   GL131753   7.443   4.338   8.853
 7356POPC   GL231754   7.451   4.199   8.853
 7356POPC   C1A31755   7.461   4.351   8.553
 7356POPC   D2A31756   7.407   4.272   8.253
 7356POPC   C3A31757   7.457   4.355   7.953
 7356POPC   C4A31758   7.380   4.331   7.653
 7356POPC   C1B31759   7.390   4.057   8.553
 7356POPC   C2B31760   7.360   4.058   8.253
 7356POPC   C3B31761   7.379   4.112   7.953
 7356POPC   C4B31762   7.414   4.065   7.653
 7357POPC   NC331763  18.316  40.031   9.453
 7357POPC   PO431764  18.308  40.036   9.153
 7357POPC   GL131765  18.292  39.997   8.853
 7357POPC   GL231766  18.301  40.141   8.853
 7357POPC   C1A31767  18.271  40.004   8.553
 7357POPC   D2A31768  18.320  40.001   8.253
 7357POPC   C3A31769  18.312  39.991   7.953
 7357POPC   C4A31770  18.275  39.969   7.653
 7357POPC   C1B31771  18.456  40.246   8.553
 7357POPC   C2B31772  18.450  40.208   8.253
 7357POPC   C3B31773  18.444  40.259   7.953
 7357POPC   C4B31774  18.406  40.207   7.653
 7358POPC   NC331775   3.507  13.583   9.453
 7358POPC   PO431776   3.588  13.628   9.153
 7358POPC   GL131777   3.574  13.593   8.853
 7358POPC   GL231778   3.508  13.770   8.853
 7358POPC   C1A31779   3.493  13.601   8.553
 7358POPC   D2A31780   3.509  13.638   8.253
 7358POPC   C3A31781   3.531  13.655   7.953
 7358POPC   C4A31782   3.561  13.627   7.653
 7358POPC   C1B31783   3.423  13.825   8.553
 7358POPC   C2B31784   3.388  13.836   8.253
 7358POPC   C3B31785   3.343  13.810   7.953
 7358POPC   C4B31786   3.396  13.862   7.653
 7359POPC   NC331787  42.382  25.309   9.453
 7359POPC   PO431788  42.335  25.227   9.153
 7359POPC   GL131789  42.286  25.233   8.853
 7359POPC   GL231790  42.269  25.390   8.853
 7359POPC   C1A31791  42.379  25.268   8.553
 7359POPC   D2A31792  42.291  25.260   8.253
 7359POPC   C3A31793  42.362  25.253   7.953
 7359POPC   C4A31794  42.297  25.229   7.653
 7359POPC   C1B31795  42.301  25.469   8.553
 7359POPC   C2B31796  42.227  25.536   8.253
 7359POPC   C3B31797  42.241  25.539   7.953
 7359POPC   C4B31798  42.263  25.555   7.653
 7360POPC   NC331799  28.329  41.592   9.453
 7360POPC   PO431800  28.376  41.525   9.153
 7360POPC   GL131801  28.356  41.554   8.853
 7360POPC   GL231802  28.338  41.720   8.853
 7360POPC   C1A31803  28.333  41.537   8.553
 7360POPC   D2A31804  28.388  41.590   8.253
 7360POPC   C3A31805  28.322  41.537   7.953
 7360POPC   C4A31806  28.404  41.600   7.653
 7360POPC   C1B31807  28.241  41.833   8.553
 7360POPC   C2B31808  28.255  41.774   8.253
 7360POPC   C3B31809  28.325  41.803   7.953
 7360POPC   C4B31810  28.339  41.799   7.653
 7361POPC   NC331811  19.884  41.584   9.453
 7361POPC   PO431812  19.857  41.583   9.153
 7361POPC   GL131813  19.789  41.605   8.853
 7361POPC   GL231814  19.931  41.575   8.853
 7361POPC   C1A31815  19.828  41.587   8.553
 7361POPC   D2A31816  19.837  41.561   8.253
 7361POPC   C3A31817  19.787  41.585   7.953
 7361POPC   C4A31818  19.843  41.567   7.653
 7361POPC   C1B31819  20.076  41.615   8.553
 7361POPC   C2B31820  20.035  41.677   8.253
 7361POPC   C3B31821  20.094  41.618   7.953
 7361POPC   C4B31822  20.071  41.677   7.653
 7362POPC   NC331823  43.141  33.059   9.453
 7362POPC   PO431824  43.138  33.051   9.153
 7362POPC   GL131825  43.085  33.012   8.853
 7362POPC   GL231826  43.041  33.114   8.853
 7362POPC   C1A31827  43.097  32.979   8.553
 7362POPC   D2A31828  43.092  33.045   8.253
 7362POPC   C3A31829  43.072  33.058   7.953
 7362POPC   C4A31830  43.077  32.997   7.653
 7362POPC   C1B31831  42.863  33.112   8.553
 7362POPC   C2B31832  42.859  33.130   8.253
 7362POPC   C3B31833  42.884  33.151   7.953
 7362POPC   C4B31834  42.878  33.080   7.653
 7363POPC   NC331835   1.234   8.975   9.453
 7363POPC   PO431836   1.248   8.978   9.153
 7363POPC   GL131837   1.200   8.940   8.853
 7363POPC   GL231838   1.340   9.061   8.853
 7363POPC   C1A31839   1.261   8.950   8.553
 7363POPC   D2A31840   1.233   8.924   8.253
 7363POPC   C3A31841   1.237   8.986   7.953
 7363POPC   C4A31842   1.208   9.004   7.653
 7363POPC   C1B31843   1.394   9.141   8.553
 7363POPC   C2B31844   1.405   9.106   8.253
 7363POPC   C3B31845   1.441   9.129   7.953
 7363POPC   C4B31846   1.418   9.070   7.653
 7364POPC   NC331847   1.168  25.242   9.453
 7364POPC   PO431848   1.218  25.237   9.153
 7364POPC   GL131849   1.214  25.227   8.853
 7364POPC   GL231850   1.316  25.148   8.853
 7364POPC   C1A31851   1.237  25.271   8.553
 7364POPC   D2A31852   1.261  25.268   8.253
 7364POPC   C3A31853   1.248  25.303   7.953
 7364POPC   C4A31854   1.194  25.251   7.653
 7364POPC   C1B31855   1.432  25.051   8.553
 7364POPC   C2B31856   1.418  25.083   8.253
 7364POPC   C3B31857   1.429  25.116   7.953
 7364POPC   C4B31858   1.396  25.049   7.653
 7365POPC   NC331859  25.224  14.367   9.453
 7365POPC   PO431860  25.294  14.354   9.153
 7365POPC   GL131861  25.234  14.434   8.853
 7365POPC   GL231862  25.209  14.316   8.853
 7365POPC   C1A31863  25.273  14.444   8.553
 7365POPC   D2A31864  25.300  14.395   8.253
 7365POPC   C3A31865  25.305  14.426   7.953
 7365POPC   C4A31866  25.290  14.428   7.653
 7365POPC   C1B31867  25.224  14.175   8.553
 7365POPC   C2B31868  25.182  14.142   8.253
 7365POPC   C3B31869  25.236  14.174   7.953
 7365POPC   C4B31870  25.206  14.205   7.653
 7366POPC   NC331871   8.956  44.699   9.453
 7366POPC   PO431872   8.936  44.708   9.153
 7366POPC   GL131873   8.967  44.679   8.853
 7366POPC   GL231874   9.102  44.565   8.853
 7366POPC   C1A31875   9.013  44.695   8.553
 7366POPC   D2A31876   8.943  44.686   8.253
 7366POPC   C3A31877   8.977  44.681   7.953
 7366POPC   C4A31878   8.948  44.663   7.653
 7366POPC   C1B31879   9.160  44.502   8.553
 7366POPC   C2B31880   9.149  44.492   8.253
 7366POPC   C3B31881   9.236  44.560   7.953
 7366POPC   C4B31882   9.236  44.541   7.653
 7367POPC   NC331883  44.616  32.221   9.453
 7367POPC   PO431884  44.651  32.270   9.153
 7367POPC   GL131885  44.614  32.291   8.853
 7367POPC   GL231886  44.613  32.304   8.853
 7367POPC   C1A31887  44.688  32.227   8.553
 7367POPC   D2A31888  44.699  32.282   8.253
 7367POPC   C3A31889  44.691  32.257   7.953
 7367POPC   C4A31890  44.705  32.253   7.653
 7367POPC   C1B31891  44.460  32.426   8.553
 7367POPC   C2B31892  44.515  32.389   8.253
 7367POPC   C3B31893  44.477  32.385   7.953
 7367POPC   C4B31894  44.512  32.398   7.653
 7368POPC   NC331895   0.434  40.779   9.453
 7368POPC   PO431896   0.441  40.818   9.153
 7368POPC   GL131897   0.402  40.805   8.853
 7368POPC   GL231898   0.384  40.639   8.853
 7368POPC   C1A31899   0.482  40.736   8.553
 7368POPC   D2A31900   0.469  40.781   8.253
 7368POPC   C3A31901   0.480  40.793   7.953
 7368POPC   C4A31902   0.455  40.829   7.653
 7368POPC   C1B31903   0.393  40.491   8.553
 7368POPC   C2B31904   0.444  40.494   8.253
 7368POPC   C3B31905   0.370  40.491   7.953
 7368POPC   C4B31906   0.380  40.505   7.653
 7369POPC   NC331907  16.003  36.136   9.453
 7369POPC   PO431908  15.924  36.095   9.153
 7369POPC   GL131909  15.972  36.158   8.853
 7369POPC   GL231910  15.939  35.982   8.853
 7369POPC   C1A31911  15.944  36.128   8.553
 7369POPC   D2A31912  15.992  36.101   8.253
 7369POPC   C3A31913  15.923  36.167   7.953
 7369POPC   C4A31914  15.967  36.115   7.653
 7369POPC   C1B31915  15.863  35.845   8.553
 7369POPC   C2B31916  15.900  35.921   8.253
 7369POPC   C3B31917  15.835  35.850   7.953
 7369POPC   C4B31918  15.930  35.861   7.653
 7370POPC   NC331919  43.135   0.412   9.453
 7370POPC   PO431920  43.062   0.456   9.153
 7370POPC   GL131921  43.073   0.468   8.853
 7370POPC   GL231922  43.065   0.362   8.853
 7370POPC   C1A31923  43.081   0.458   8.553
 7370POPC   D2A31924  43.132   0.483   8.253
 7370POPC   C3A31925  43.075   0.467   7.953
 7370POPC   C4A31926  43.082   0.423   7.653
 7370POPC   C1B31927  42.989   0.193   8.553
 7370POPC   C2B31928  43.021   0.216   8.253
 7370POPC   C3B31929  42.991   0.232   7.953
 7370POPC   C4B31930  43.057   0.177   7.653
 7371POPC   NC331931  17.480  26.866   9.453
 7371POPC   PO431932  17.485  26.809   9.153
 7371POPC   GL131933  17.552  26.862   8.853
 7371POPC   GL231934  17.426  26.876   8.853
 7371POPC   C1A31935  17.489  26.853   8.553
 7371POPC   D2A31936  17.488  26.859   8.253
 7371POPC   C3A31937  17.510  26.806   7.953
 7371POPC   C4A31938  17.484  26.835   7.653
 7371POPC   C1B31939  17.366  27.039   8.553
 7371POPC   C2B31940  17.365  26.987   8.253
 7371POPC   C3B31941  17.345  27.065   7.953
 7371POPC   C4B31942  17.342  27.052   7.653
 7372POPC   NC331943  36.938   6.660   9.453
 7372POPC   PO431944  36.953   6.630   9.153
 7372POPC   GL131945  36.930   6.635   8.853
 7372POPC   GL231946  36.896   6.793   8.853
 7372POPC   C1A31947  36.921   6.693   8.553
 7372POPC   D2A31948  36.868   6.656   8.253
 7372POPC   C3A31949  36.898   6.685   7.953
 7372POPC   C4A31950  36.902   6.609   7.653
 7372POPC   C1B31951  36.994   6.863   8.553
 7372POPC   C2B31952  36.927   6.903   8.253
 7372POPC   C3B31953  36.981   6.919   7.953
 7372POPC   C4B31954  36.987   6.859   7.653
 7373POPC   NC331955  42.302  36.902   9.453
 7373POPC   PO431956  42.335  36.900   9.153
 7373POPC   GL131957  42.333  36.942   8.853
 7373POPC   GL231958  42.186  37.004   8.853
 7373POPC   C1A31959  42.376  36.877   8.553
 7373POPC   D2A31960  42.367  36.895   8.253
 7373POPC   C3A31961  42.373  36.866   7.953
 7373POPC   C4A31962  42.351  36.902   7.653
 7373POPC   C1B31963  42.136  37.054   8.553
 7373POPC   C2B31964  42.160  36.992   8.253
 7373POPC   C3B31965  42.122  36.989   7.953
 7373POPC   C4B31966  42.080  36.992   7.653
 7374POPC   NC331967  28.379  25.241   9.453
 7374POPC   PO431968  28.328  25.242   9.153
 7374POPC   GL131969  28.378  25.298   8.853
 7374POPC   GL231970  28.220  25.238   8.853
 7374POPC   C1A31971  28.406  25.235   8.553
 7374POPC   D2A31972  28.414  25.228   8.253
 7374POPC   C3A31973  28.390  25.240   7.953
 7374POPC   C4A31974  28.334  25.298   7.653
 7374POPC   C1B31975  28.169  25.218   8.553
 7374POPC   C2B31976  28.134  25.227   8.253
 7374POPC   C3B31977  28.090  25.257   7.953
 7374POPC   C4B31978  28.084  25.287   7.653
 7375POPC   NC331979  16.703  43.874   9.453
 7375POPC   PO431980  16.718  43.879   9.153
 7375POPC   GL131981  16.724  43.876   8.853
 7375POPC   GL231982  16.843  43.907   8.853
 7375POPC   C1A31983  16.763  43.884   8.553
 7375POPC   D2A31984  16.777  43.838   8.253
 7375POPC   C3A31985  16.745  43.926   7.953
 7375POPC   C4A31986  16.771  43.907   7.653
 7375POPC   C1B31987  17.014  43.956   8.553
 7375POPC   C2B31988  16.993  43.976   8.253
 7375POPC   C3B31989  16.929  43.922   7.953
 7375POPC   C4B31990  17.020  43.974   7.653
 7376POPC   NC331991  36.918  10.527   9.453
 7376POPC   PO431992  36.941  10.480   9.153
 7376POPC   GL131993  36.893  10.560   8.853
 7376POPC   GL231994  36.827  10.586   8.853
 7376POPC   C1A31995  36.894  10.501   8.553
 7376POPC   D2A31996  36.944  10.543   8.253
 7376POPC   C3A31997  36.895  10.568   7.953
 7376POPC   C4A31998  36.882  10.516   7.653
 7376POPC   C1B31999  36.735  10.758   8.553
 7376POPC   C2B32000  36.739  10.751   8.253
 7376POPC   C3B32001  36.763  10.700   7.953
 7376POPC   C4B32002  36.739  10.766   7.653
 7377POPC   NC332003  22.976  29.924   9.453
 7377POPC   PO432004  22.943  29.925   9.153
 7377POPC   GL132005  22.949  29.913   8.853
 7377POPC   GL232006  22.824  29.826   8.853
 7377POPC   C1A32007  22.961  29.884   8.553
 7377POPC   D2A32008  22.975  29.880   8.253
 7377POPC   C3A32009  22.965  29.958   7.953
 7377POPC   C4A32010  22.897  29.889   7.653
 7377POPC   C1B32011  22.847  29.724   8.553
 7377POPC   C2B32012  22.825  29.719   8.253
 7377POPC   C3B32013  22.787  29.677   7.953
 7377POPC   C4B32014  22.778  29.718   7.653
 7378POPC   NC332015  40.044  21.345   9.453
 7378POPC   PO432016  39.972  21.388   9.153
 7378POPC   GL132017  39.984  21.434   8.853
 7378POPC   GL232018  40.026  21.309   8.853
 7378POPC   C1A32019  40.007  21.397   8.553
 7378POPC   D2A32020  40.044  21.382   8.253
 7378POPC   C3A32021  39.964  21.411   7.953
 7378POPC   C4A32022  40.037  21.405   7.653
 7378POPC   C1B32023  40.066  21.180   8.553
 7378POPC   C2B32024  40.034  21.096   8.253
 7378POPC   C3B32025  40.020  21.177   7.953
 7378POPC   C4B32026  40.014  21.125   7.653
 7379POPC   NC332027  15.200  16.738   9.453
 7379POPC   PO432028  15.176  16.751   9.153
 7379POPC   GL132029  15.204  16.780   8.853
 7379POPC   GL232030  15.046  16.835   8.853
 7379POPC   C1A32031  15.136  16.733   8.553
 7379POPC   D2A32032  15.210  16.762   8.253
 7379POPC   C3A32033  15.215  16.701   7.953
 7379POPC   C4A32034  15.166  16.736   7.653
 7379POPC   C1B32035  14.979  16.871   8.553
 7379POPC   C2B32036  14.990  16.868   8.253
 7379POPC   C3B32037  15.005  16.961   7.953
 7379POPC   C4B32038  15.055  16.874   7.653
 7380POPC   NC332039  13.662   8.168   9.453
 7380POPC   PO432040  13.596   8.223   9.153
 7380POPC   GL132041  13.621   8.212   8.853
 7380POPC   GL232042  13.594   8.120   8.853
 7380POPC   C1A32043  13.663   8.216   8.553
 7380POPC   D2A32044  13.669   8.155   8.253
 7380POPC   C3A32045  13.644   8.209   7.953
 7380POPC   C4A32046  13.629   8.178   7.653
 7380POPC   C1B32047  13.537   8.009   8.553
 7380POPC   C2B32048  13.521   8.016   8.253
 7380POPC   C3B32049  13.556   8.002   7.953
 7380POPC   C4B32050  13.565   7.959   7.653
 7381POPC   NC332051  19.799  35.337   9.453
 7381POPC   PO432052  19.850  35.320   9.153
 7381POPC   GL132053  19.874  35.328   8.853
 7381POPC   GL232054  19.687  35.405   8.853
 7381POPC   C1A32055  19.799  35.372   8.553
 7381POPC   D2A32056  19.833  35.321   8.253
 7381POPC   C3A32057  19.811  35.371   7.953
 7381POPC   C4A32058  19.788  35.343   7.653
 7381POPC   C1B32059  19.539  35.380   8.553
 7381POPC   C2B32060  19.536  35.414   8.253
 7381POPC   C3B32061  19.556  35.398   7.953
 7381POPC   C4B32062  19.545  35.345   7.653
 7382POPC   NC332063  44.615  44.679   9.453
 7382POPC   PO432064  44.645  44.697   9.153
 7382POPC   GL132065  44.653  44.676   8.853
 7382POPC   GL232066  44.675  44.773   8.853
 7382POPC   C1A32067  44.659  44.649   8.553
 7382POPC   D2A32068  44.619  44.700   8.253
 7382POPC   C3A32069  44.613  44.614   7.953
 7382POPC   C4A32070  44.672  44.631   7.653
 7382POPC   C1B32071  44.755  44.913   8.553
 7382POPC   C2B32072  44.760  44.903   8.253
 7382POPC   C3B32073  44.700  44.931   7.953
 7382POPC   C4B32074  44.707  44.921   7.653
 7383POPC   NC332075  12.081  35.346   9.453
 7383POPC   PO432076  12.073  35.332   9.153
 7383POPC   GL132077  12.060  35.370   8.853
 7383POPC   GL232078  11.993  35.429   8.853
 7383POPC   C1A32079  12.048  35.337   8.553
 7383POPC   D2A32080  12.070  35.341   8.253
 7383POPC   C3A32081  12.047  35.316   7.953
 7383POPC   C4A32082  12.102  35.303   7.653
 7383POPC   C1B32083  11.831  35.484   8.553
 7383POPC   C2B32084  11.881  35.515   8.253
 7383POPC   C3B32085  11.902  35.508   7.953
 7383POPC   C4B32086  11.839  35.519   7.653
 7384POPC   NC332087   0.485  39.251   9.453
 7384POPC   PO432088   0.442  39.225   9.153
 7384POPC   GL132089   0.417  39.241   8.853
 7384POPC   GL232090   0.463  39.393   8.853
 7384POPC   C1A32091   0.427  39.211   8.553
 7384POPC   D2A32092   0.430  39.263   8.253
 7384POPC   C3A32093   0.390  39.279   7.953
 7384POPC   C4A32094   0.471  39.194   7.653
 7384POPC   C1B32095   0.416  39.478   8.553
 7384POPC   C2B32096   0.485  39.521   8.253
 7384POPC   C3B32097   0.477  39.468   7.953
 7384POPC   C4B32098   0.412  39.528   7.653
 7385POPC   NC332099  44.631  13.596   9.453
 7385POPC   PO432100  44.710  13.677   9.153
 7385POPC   GL132101  44.665  13.627   8.853
 7385POPC   GL232102  44.679  13.455   8.853
 7385POPC   C1A32103  44.675  13.592   8.553
 7385POPC   D2A32104  44.624  13.578   8.253
 7385POPC   C3A32105  44.712  13.623   7.953
 7385POPC   C4A32106  44.643  13.655   7.653
 7385POPC   C1B32107  44.663  13.345   8.553
 7385POPC   C2B32108  44.663  13.422   8.253
 7385POPC   C3B32109  44.601  13.378   7.953
 7385POPC   C4B32110  44.627  13.403   7.653
 7386POPC   NC332111  25.280   9.796   9.453
 7386POPC   PO432112  25.299   9.787   9.153
 7386POPC   GL132113  25.290   9.736   8.853
 7386POPC   GL232114  25.243   9.881   8.853
 7386POPC   C1A32115  25.299   9.780   8.553
 7386POPC   D2A32116  25.313   9.774   8.253
 7386POPC   C3A32117  25.278   9.734   7.953
 7386POPC   C4A32118  25.272   9.796   7.653
 7386POPC   C1B32119  25.307   9.963   8.553
 7386POPC   C2B32120  25.303  10.038   8.253
 7386POPC   C3B32121  25.271   9.979   7.953
 7386POPC   C4B32122  25.226  10.007   7.653
 7387POPC   NC332123  13.666  22.918   9.453
 7387POPC   PO432124  13.626  22.915   9.153
 7387POPC   GL132125  13.660  22.913   8.853
 7387POPC   GL232126  13.525  22.976   8.853
 7387POPC   C1A32127  13.603  22.908   8.553
 7387POPC   D2A32128  13.607  22.957   8.253
 7387POPC   C3A32129  13.584  22.965   7.953
 7387POPC   C4A32130  13.638  22.923   7.653
 7387POPC   C1B32131  13.444  23.061   8.553
 7387POPC   C2B32132  13.356  23.082   8.253
 7387POPC   C3B32133  13.445  23.010   7.953
 7387POPC   C4B32134  13.439  22.994   7.653
 7388POPC   NC332135  44.643  10.572   9.453
 7388POPC   PO432136  44.632  10.543   9.153
 7388POPC   GL132137  44.655  10.506   8.853
 7388POPC   GL232138  44.762  10.637   8.853
 7388POPC   C1A32139  44.627  10.497   8.553
 7388POPC   D2A32140  44.673  10.500   8.253
 7388POPC   C3A32141  44.663  10.520   7.953
 7388POPC   C4A32142  44.682  10.493   7.653
 7388POPC   C1B32143  44.748  10.755   8.553
 7388POPC   C2B32144  44.816  10.759   8.253
 7388POPC   C3B32145  44.825  10.762   7.953
 7388POPC   C4B32146  44.761  10.789   7.653
 7389POPC   NC332147  18.327  38.441   9.453
 7389POPC   PO432148  18.245  38.424   9.153
 7389POPC   GL132149  18.269  38.444   8.853
 7389POPC   GL232150  18.303  38.396   8.853
 7389POPC   C1A32151  18.281  38.459   8.553
 7389POPC   D2A32152  18.312  38.458   8.253
 7389POPC   C3A32153  18.267  38.486   7.953
 7389POPC   C4A32154  18.284  38.417   7.653
 7389POPC   C1B32155  18.415  38.247   8.553
 7389POPC   C2B32156  18.431  38.273   8.253
 7389POPC   C3B32157  18.441  38.267   7.953
 7389POPC   C4B32158  18.420  38.214   7.653
 7390POPC   NC332159  18.297  34.617   9.453
 7390POPC   PO432160  18.316  34.561   9.153
 7390POPC   GL132161  18.235  34.591   8.853
 7390POPC   GL232162  18.403  34.483   8.853
 7390POPC   C1A32163  18.288  34.547   8.553
 7390POPC   D2A32164  18.272  34.526   8.253
 7390POPC   C3A32165  18.237  34.570   7.953
 7390POPC   C4A32166  18.306  34.530   7.653
 7390POPC   C1B32167  18.477  34.479   8.553
 7390POPC   C2B32168  18.562  34.509   8.253
 7390POPC   C3B32169  18.509  34.478   7.953
 7390POPC   C4B32170  18.507  34.498   7.653
 7391POPC   NC332171  33.783  27.578   9.453
 7391POPC   PO432172  33.814  27.642   9.153
 7391POPC   GL132173  33.821  27.609   8.853
 7391POPC   GL232174  33.804  27.432   8.853
 7391POPC   C1A32175  33.823  27.631   8.553
 7391POPC   D2A32176  33.808  27.597   8.253
 7391POPC   C3A32177  33.761  27.633   7.953
 7391POPC   C4A32178  33.772  27.554   7.653
 7391POPC   C1B32179  33.816  27.297   8.553
 7391POPC   C2B32180  33.786  27.313   8.253
 7391POPC   C3B32181  33.789  27.305   7.953
 7391POPC   C4B32182  33.766  27.332   7.653
 7392POPC   NC332183   0.414   2.815   9.453
 7392POPC   PO432184   0.414   2.723   9.153
 7392POPC   GL132185   0.423   2.796   8.853
 7392POPC   GL232186   0.508   2.901   8.853
 7392POPC   C1A32187   0.441   2.742   8.553
 7392POPC   D2A32188   0.419   2.802   8.253
 7392POPC   C3A32189   0.394   2.794   7.953
 7392POPC   C4A32190   0.405   2.807   7.653
 7392POPC   C1B32191   0.584   3.013   8.553
 7392POPC   C2B32192   0.591   2.980   8.253
 7392POPC   C3B32193   0.539   2.975   7.953
 7392POPC   C4B32194   0.624   2.938   7.653
 7393POPC   NC332195  37.660  34.556   9.453
 7393POPC   PO432196  37.721  34.558   9.153
 7393POPC   GL132197  37.728  34.531   8.853
 7393POPC   GL232198  37.768  34.621   8.853
 7393POPC   C1A32199  37.695  34.583   8.553
 7393POPC   D2A32200  37.657  34.587   8.253
 7393POPC   C3A32201  37.661  34.544   7.953
 7393POPC   C4A32202  37.699  34.557   7.653
 7393POPC   C1B32203  37.899  34.592   8.553
 7393POPC   C2B32204  37.891  34.553   8.253
 7393POPC   C3B32205  37.967  34.580   7.953
 7393POPC   C4B32206  37.904  34.565   7.653
 7394POPC   NC332207  10.531  10.526   9.453
 7394POPC   PO432208  10.570  10.500   9.153
 7394POPC   GL132209  10.490  10.544   8.853
 7394POPC   GL232210  10.602  10.537   8.853
 7394POPC   C1A32211  10.564  10.481   8.553
 7394POPC   D2A32212  10.506  10.538   8.253
 7394POPC   C3A32213  10.483  10.520   7.953
 7394POPC   C4A32214  10.564  10.528   7.653
 7394POPC   C1B32215  10.738  10.584   8.553
 7394POPC   C2B32216  10.747  10.667   8.253
 7394POPC   C3B32217  10.748  10.658   7.953
 7394POPC   C4B32218  10.747  10.612   7.653
 7395POPC   NC332219   8.233   9.711   9.453
 7395POPC   PO432220   8.191   9.739   9.153
 7395POPC   GL132221   8.170   9.730   8.853
 7395POPC   GL232222   8.119   9.857   8.853
 7395POPC   C1A32223   8.179   9.767   8.553
 7395POPC   D2A32224   8.161   9.779   8.253
 7395POPC   C3A32225   8.153   9.796   7.953
 7395POPC   C4A32226   8.217   9.777   7.653
 7395POPC   C1B32227   8.109   9.987   8.553
 7395POPC   C2B32228   8.140   9.966   8.253
 7395POPC   C3B32229   8.045   9.977   7.953
 7395POPC   C4B32230   8.127  10.012   7.653
 7396POPC   NC332231  28.333  28.379   9.453
 7396POPC   PO432232  28.350  28.337   9.153
 7396POPC   GL132233  28.407  28.348   8.853
 7396POPC   GL232234  28.344  28.466   8.853
 7396POPC   C1A32235  28.323  28.335   8.553
 7396POPC   D2A32236  28.379  28.375   8.253
 7396POPC   C3A32237  28.390  28.344   7.953
 7396POPC   C4A32238  28.406  28.412   7.653
 7396POPC   C1B32239  28.283  28.623   8.553
 7396POPC   C2B32240  28.284  28.544   8.253
 7396POPC   C3B32241  28.260  28.543   7.953
 7396POPC   C4B32242  28.239  28.582   7.653
 7397POPC   NC332243   9.755  12.102   9.453
 7397POPC   PO432244   9.704  12.096   9.153
 7397POPC   GL132245   9.714  12.054   8.853
 7397POPC   GL232246   9.638  12.015   8.853
 7397POPC   C1A32247   9.791  12.125   8.553
 7397POPC   D2A32248   9.699  12.039   8.253
 7397POPC   C3A32249   9.761  12.106   7.953
 7397POPC   C4A32250   9.727  12.125   7.653
 7397POPC   C1B32251   9.554  11.982   8.553
 7397POPC   C2B32252   9.530  11.968   8.253
 7397POPC   C3B32253   9.467  11.988   7.953
 7397POPC   C4B32254   9.471  11.992   7.653
 7398POPC   NC332255   2.749  40.039   9.453
 7398POPC   PO432256   2.729  39.984   9.153
 7398POPC   GL132257   2.805  40.034   8.853
 7398POPC   GL232258   2.665  40.003   8.853
 7398POPC   C1A32259   2.798  40.042   8.553
 7398POPC   D2A32260   2.806  40.006   8.253
 7398POPC   C3A32261   2.776  40.034   7.953
 7398POPC   C4A32262   2.738  39.969   7.653
 7398POPC   C1B32263   2.552  39.972   8.553
 7398POPC   C2B32264   2.516  39.977   8.253
 7398POPC   C3B32265   2.483  39.966   7.953
 7398POPC   C4B32266   2.493  39.941   7.653
 7399POPC   NC332267  41.571   9.737   9.453
 7399POPC   PO432268  41.558   9.744   9.153
 7399POPC   GL132269  41.605   9.781   8.853
 7399POPC   GL232270  41.456   9.882   8.853
 7399POPC   C1A32271  41.575   9.777   8.553
 7399POPC   D2A32272  41.585   9.754   8.253
 7399POPC   C3A32273  41.559   9.701   7.953
 7399POPC   C4A32274  41.556   9.700   7.653
 7399POPC   C1B32275  41.366   9.972   8.553
 7399POPC   C2B32276  41.381   9.923   8.253
 7399POPC   C3B32277  41.387   9.916   7.953
 7399POPC   C4B32278  41.344   9.922   7.653
 7400POPC   NC332279  21.405  28.370   9.453
 7400POPC   PO432280  21.358  28.366   9.153
 7400POPC   GL132281  21.360  28.341   8.853
 7400POPC   GL232282  21.275  28.343   8.853
 7400POPC   C1A32283  21.375  28.330   8.553
 7400POPC   D2A32284  21.368  28.417   8.253
 7400POPC   C3A32285  21.395  28.390   7.953
 7400POPC   C4A32286  21.363  28.332   7.653
 7400POPC   C1B32287  21.118  28.304   8.553
 7400POPC   C2B32288  21.150  28.340   8.253
 7400POPC   C3B32289  21.157  28.251   7.953
 7400POPC   C4B32290  21.186  28.267   7.653
 7401POPC   NC332291  33.055  28.341   9.453
 7401POPC   PO432292  33.023  28.410   9.153
 7401POPC   GL132293  33.058  28.340   8.853
 7401POPC   GL232294  32.921  28.248   8.853
 7401POPC   C1A32295  32.977  28.390   8.553
 7401POPC   D2A32296  32.995  28.345   8.253
 7401POPC   C3A32297  33.040  28.414   7.953
 7401POPC   C4A32298  32.974  28.376   7.653
 7401POPC   C1B32299  32.834  28.215   8.553
 7401POPC   C2B32300  32.825  28.175   8.253
 7401POPC   C3B32301  32.825  28.218   7.953
 7401POPC   C4B32302  32.863  28.174   7.653
 7402POPC   NC332303   3.496  15.954   9.453
 7402POPC   PO432304   3.570  15.983   9.153
 7402POPC   GL132305   3.531  15.950   8.853
 7402POPC   GL232306   3.619  16.010   8.853
 7402POPC   C1A32307   3.519  15.995   8.553
 7402POPC   D2A32308   3.588  15.959   8.253
 7402POPC   C3A32309   3.556  15.998   7.953
 7402POPC   C4A32310   3.535  15.952   7.653
 7402POPC   C1B32311   3.804  15.924   8.553
 7402POPC   C2B32312   3.820  15.961   8.253
 7402POPC   C3B32313   3.784  15.945   7.953
 7402POPC   C4B32314   3.808  15.991   7.653
 7403POPC   NC332315  21.406  39.186   9.453
 7403POPC   PO432316  21.352  39.205   9.153
 7403POPC   GL132317  21.417  39.218   8.853
 7403POPC   GL232318  21.473  39.231   8.853
 7403POPC   C1A32319  21.434  39.266   8.553
 7403POPC   D2A32320  21.366  39.276   8.253
 7403POPC   C3A32321  21.385  39.206   7.953
 7403POPC   C4A32322  21.432  39.201   7.653
 7403POPC   C1B32323  21.646  39.170   8.553
 7403POPC   C2B32324  21.623  39.200   8.253
 7403POPC   C3B32325  21.591  39.141   7.953
 7403POPC   C4B32326  21.646  39.191   7.653
 7404POPC   NC332327  36.887  22.985   9.453
 7404POPC   PO432328  36.905  22.905   9.153
 7404POPC   GL132329  36.885  22.928   8.853
 7404POPC   GL232330  36.798  22.963   8.853
 7404POPC   C1A32331  36.901  22.919   8.553
 7404POPC   D2A32332  36.930  22.908   8.253
 7404POPC   C3A32333  36.856  22.939   7.953
 7404POPC   C4A32334  36.932  22.895   7.653
 7404POPC   C1B32335  36.644  22.915   8.553
 7404POPC   C2B32336  36.656  22.937   8.253
 7404POPC   C3B32337  36.682  22.881   7.953
 7404POPC   C4B32338  36.680  22.896   7.653
 7405POPC   NC332339  33.007  27.596   9.453
 7405POPC   PO432340  33.041  27.574   9.153
 7405POPC   GL132341  33.042  27.548   8.853
 7405POPC   GL232342  32.880  27.564   8.853
 7405POPC   C1A32343  33.043  27.638   8.553
 7405POPC   D2A32344  33.016  27.591   8.253
 7405POPC   C3A32345  33.026  27.625   7.953
 7405POPC   C4A32346  33.045  27.614   7.653
 7405POPC   C1B32347  32.864  27.467   8.553
 7405POPC   C2B32348  32.864  27.395   8.253
 7405POPC   C3B32349  32.839  27.488   7.953
 7405POPC   C4B32350  32.801  27.447   7.653
 7406POPC   NC332351  13.636   0.465   9.453
 7406POPC   PO432352  13.672   0.482   9.153
 7406POPC   GL132353  13.638   0.457   8.853
 7406POPC   GL232354  13.532   0.542   8.853
 7406POPC   C1A32355  13.672   0.420   8.553
 7406POPC   D2A32356  13.623   0.416   8.253
 7406POPC   C3A32357  13.631   0.482   7.953
 7406POPC   C4A32358  13.676   0.420   7.653
 7406POPC   C1B32359  13.388   0.571   8.553
 7406POPC   C2B32360  13.458   0.635   8.253
 7406POPC   C3B32361  13.383   0.539   7.953
 7406POPC   C4B32362  13.407   0.636   7.653
 7407POPC   NC332363  34.583  21.419   9.453
 7407POPC   PO432364  34.600  21.357   9.153
 7407POPC   GL132365  34.594  21.393   8.853
 7407POPC   GL232366  34.678  21.240   8.853
 7407POPC   C1A32367  34.549  21.352   8.553
 7407POPC   D2A32368  34.551  21.340   8.253
 7407POPC   C3A32369  34.542  21.399   7.953
 7407POPC   C4A32370  34.597  21.359   7.653
 7407POPC   C1B32371  34.697  21.212   8.553
 7407POPC   C2B32372  34.652  21.191   8.253
 7407POPC   C3B32373  34.682  21.200   7.953
 7407POPC   C4B32374  34.675  21.141   7.653
 7408POPC   NC332375  42.367   9.717   9.453
 7408POPC   PO432376  42.294   9.715   9.153
 7408POPC   GL132377  42.293   9.732   8.853
 7408POPC   GL232378  42.397   9.839   8.853
 7408POPC   C1A32379  42.327   9.772   8.553
 7408POPC   D2A32380  42.289   9.770   8.253
 7408POPC   C3A32381  42.356   9.760   7.953
 7408POPC   C4A32382  42.318   9.730   7.653
 7408POPC   C1B32383  42.448   9.949   8.553
 7408POPC   C2B32384  42.533   9.901   8.253
 7408POPC   C3B32385  42.445   9.986   7.953
 7408POPC   C4B32386  42.449   9.908   7.653
 7409POPC   NC332387  42.354  39.987   9.453
 7409POPC   PO432388  42.369  40.021   9.153
 7409POPC   GL132389  42.370  39.993   8.853
 7409POPC   GL232390  42.358  39.920   8.853
 7409POPC   C1A32391  42.323  39.973   8.553
 7409POPC   D2A32392  42.346  40.034   8.253
 7409POPC   C3A32393  42.360  39.966   7.953
 7409POPC   C4A32394  42.301  40.007   7.653
 7409POPC   C1B32395  42.248  39.723   8.553
 7409POPC   C2B32396  42.275  39.805   8.253
 7409POPC   C3B32397  42.322  39.809   7.953
 7409POPC   C4B32398  42.332  39.741   7.653
 7410POPC   NC332399   8.152   6.689   9.453
 7410POPC   PO432400   8.238   6.624   9.153
 7410POPC   GL132401   8.217   6.646   8.853
 7410POPC   GL232402   8.174   6.736   8.853
 7410POPC   C1A32403   8.219   6.647   8.553
 7410POPC   D2A32404   8.154   6.599   8.253
 7410POPC   C3A32405   8.165   6.653   7.953
 7410POPC   C4A32406   8.204   6.655   7.653
 7410POPC   C1B32407   8.218   6.891   8.553
 7410POPC   C2B32408   8.257   6.879   8.253
 7410POPC   C3B32409   8.254   6.926   7.953
 7410POPC   C4B32410   8.188   6.943   7.653
 7411POPC   NC332411  44.707  16.003   9.453
 7411POPC   PO432412  44.620  15.997   9.153
 7411POPC   GL132413  44.622  15.930   8.853
 7411POPC   GL232414  44.594  15.955   8.853
 7411POPC   C1A32415  44.636  15.969   8.553
 7411POPC   D2A32416  44.661  15.933   8.253
 7411POPC   C3A32417  44.660  15.913   7.953
 7411POPC   C4A32418  44.625  15.953   7.653
 7411POPC   C1B32419  44.441  16.010   8.553
 7411POPC   C2B32420  44.422  16.023   8.253
 7411POPC   C3B32421  44.468  16.007   7.953
 7411POPC   C4B32422  44.401  16.002   7.653
 7412POPC   NC332423  39.242  16.762   9.453
 7412POPC   PO432424  39.185  16.724   9.153
 7412POPC   GL132425  39.271  16.752   8.853
 7412POPC   GL232426  39.189  16.586   8.853
 7412POPC   C1A32427  39.260  16.760   8.553
 7412POPC   D2A32428  39.198  16.682   8.253
 7412POPC   C3A32429  39.198  16.691   7.953
 7412POPC   C4A32430  39.205  16.715   7.653
 7412POPC   C1B32431  39.151  16.539   8.553
 7412POPC   C2B32432  39.136  16.498   8.253
 7412POPC   C3B32433  39.147  16.457   7.953
 7412POPC   C4B32434  39.177  16.498   7.653
 7413POPC   NC332435  33.772  19.820   9.453
 7413POPC   PO432436  33.788  19.862   9.153
 7413POPC   GL132437  33.817  19.812   8.853
 7413POPC   GL232438  33.715  19.738   8.853
 7413POPC   C1A32439  33.802  19.844   8.553
 7413POPC   D2A32440  33.784  19.820   8.253
 7413POPC   C3A32441  33.822  19.868   7.953
 7413POPC   C4A32442  33.847  19.835   7.653
 7413POPC   C1B32443  33.579  19.683   8.553
 7413POPC   C2B32444  33.612  19.643   8.253
 7413POPC   C3B32445  33.661  19.636   7.953
 7413POPC   C4B32446  33.602  19.665   7.653
 7414POPC   NC332447  28.381   9.016   9.453
 7414POPC   PO432448  28.360   8.945   9.153
 7414POPC   GL132449  28.350   9.013   8.853
 7414POPC   GL232450  28.464   9.005   8.853
 7414POPC   C1A32451  28.376   9.005   8.553
 7414POPC   D2A32452  28.392   8.964   8.253
 7414POPC   C3A32453  28.397   8.985   7.953
 7414POPC   C4A32454  28.383   8.959   7.653
 7414POPC   C1B32455  28.581   8.981   8.553
 7414POPC   C2B32456  28.659   8.973   8.253
 7414POPC   C3B32457  28.665   8.980   7.953
 7414POPC   C4B32458  28.653   9.021   7.653
 7415POPC   NC332459  12.075  40.830   9.453
 7415POPC   PO432460  12.108  40.806   9.153
 7415POPC   GL132461  12.085  40.767   8.853
 7415POPC   GL232462  11.922  40.794   8.853
 7415POPC   C1A32463  12.028  40.787   8.553
 7415POPC   D2A32464  12.030  40.814   8.253
 7415POPC   C3A32465  12.110  40.820   7.953
 7415POPC   C4A32466  12.034  40.781   7.653
 7415POPC   C1B32467  11.851  40.804   8.553
 7415POPC   C2B32468  11.807  40.837   8.253
 7415POPC   C3B32469  11.806  40.830   7.953
 7415POPC   C4B32470  11.869  40.875   7.653
 7416POPC   NC332471  15.226   0.429   9.453
 7416POPC   PO432472  15.137   0.413   9.153
 7416POPC   GL132473  15.220   0.447   8.853
 7416POPC   GL232474  15.205   0.585   8.853
 7416POPC   C1A32475  15.199   0.400   8.553
 7416POPC   D2A32476  15.155   0.477   8.253
 7416POPC   C3A32477  15.143   0.455   7.953
 7416POPC   C4A32478  15.161   0.418   7.653
 7416POPC   C1B32479  15.141   0.639   8.553
 7416POPC   C2B32480  15.158   0.698   8.253
 7416POPC   C3B32481  15.194   0.668   7.953
 7416POPC   C4B32482  15.194   0.660   7.653
 7417POPC   NC332483  12.840   1.263   9.453
 7417POPC   PO432484  12.887   1.195   9.153
 7417POPC   GL132485  12.900   1.223   8.853
 7417POPC   GL232486  12.747   1.361   8.853
 7417POPC   C1A32487  12.881   1.207   8.553
 7417POPC   D2A32488  12.861   1.217   8.253
 7417POPC   C3A32489  12.884   1.166   7.953
 7417POPC   C4A32490  12.830   1.176   7.653
 7417POPC   C1B32491  12.741   1.422   8.553
 7417POPC   C2B32492  12.728   1.390   8.253
 7417POPC   C3B32493  12.686   1.379   7.953
 7417POPC   C4B32494  12.709   1.439   7.653
 7418POPC   NC332495  33.808  40.832   9.453
 7418POPC   PO432496  33.838  40.791   9.153
 7418POPC   GL132497  33.774  40.796   8.853
 7418POPC   GL232498  33.786  40.689   8.853
 7418POPC   C1A32499  33.811  40.752   8.553
 7418POPC   D2A32500  33.794  40.795   8.253
 7418POPC   C3A32501  33.804  40.739   7.953
 7418POPC   C4A32502  33.777  40.733   7.653
 7418POPC   C1B32503  33.816  40.504   8.553
 7418POPC   C2B32504  33.811  40.515   8.253
 7418POPC   C3B32505  33.781  40.578   7.953
 7418POPC   C4B32506  33.757  40.550   7.653
 7419POPC   NC332507  25.245  37.641   9.453
 7419POPC   PO432508  25.253  37.632   9.153
 7419POPC   GL132509  25.284  37.692   8.853
 7419POPC   GL232510  25.188  37.751   8.853
 7419POPC   C1A32511  25.275  37.630   8.553
 7419POPC   D2A32512  25.269  37.642   8.253
 7419POPC   C3A32513  25.288  37.697   7.953
 7419POPC   C4A32514  25.228  37.663   7.653
 7419POPC   C1B32515  25.020  37.837   8.553
 7419POPC   C2B32516  25.072  37.802   8.253
 7419POPC   C3B32517  25.078  37.829   7.953
 7419POPC   C4B32518  25.022  37.782   7.653
 7420POPC   NC332519   6.615  29.147   9.453
 7420POPC   PO432520   6.626  29.169   9.153
 7420POPC   GL132521   6.620  29.164   8.853
 7420POPC   GL232522   6.577  29.156   8.853
 7420POPC   C1A32523   6.670  29.163   8.553
 7420POPC   D2A32524   6.662  29.135   8.253
 7420POPC   C3A32525   6.647  29.129   7.953
 7420POPC   C4A32526   6.679  29.135   7.653
 7420POPC   C1B32527   6.399  29.209   8.553
 7420POPC   C2B32528   6.404  29.273   8.253
 7420POPC   C3B32529   6.376  29.203   7.953
 7420POPC   C4B32530   6.372  29.210   7.653
 7421POPC   NC332531  26.825  11.316   9.453
 7421POPC   PO432532  26.799  11.343   9.153
 7421POPC   GL132533  26.861  11.349   8.853
 7421POPC   GL232534  26.791  11.189   8.853
 7421POPC   C1A32535  26.846  11.339   8.553
 7421POPC   D2A32536  26.791  11.281   8.253
 7421POPC   C3A32537  26.827  11.336   7.953
 7421POPC   C4A32538  26.778  11.281   7.653
 7421POPC   C1B32539  26.813  11.049   8.553
 7421POPC   C2B32540  26.764  11.014   8.253
 7421POPC   C3B32541  26.823  11.096   7.953
 7421POPC   C4B32542  26.795  11.060   7.653
 7422POPC   NC332543  37.708  26.035   9.453
 7422POPC   PO432544  37.643  26.057   9.153
 7422POPC   GL132545  37.650  25.999   8.853
 7422POPC   GL232546  37.694  26.181   8.853
 7422POPC   C1A32547  37.691  25.992   8.553
 7422POPC   D2A32548  37.651  26.023   8.253
 7422POPC   C3A32549  37.698  26.054   7.953
 7422POPC   C4A32550  37.630  26.000   7.653
 7422POPC   C1B32551  37.790  26.291   8.553
 7422POPC   C2B32552  37.739  26.284   8.253
 7422POPC   C3B32553  37.767  26.296   7.953
 7422POPC   C4B32554  37.811  26.238   7.653
 7423POPC   NC332555  38.418  31.473   9.453
 7423POPC   PO432556  38.433  31.464   9.153
 7423POPC   GL132557  38.457  31.515   8.853
 7423POPC   GL232558  38.294  31.467   8.853
 7423POPC   C1A32559  38.436  31.475   8.553
 7423POPC   D2A32560  38.504  31.448   8.253
 7423POPC   C3A32561  38.412  31.428   7.953
 7423POPC   C4A32562  38.468  31.485   7.653
 7423POPC   C1B32563  38.254  31.565   8.553
 7423POPC   C2B32564  38.206  31.582   8.253
 7423POPC   C3B32565  38.252  31.578   7.953
 7423POPC   C4B32566  38.231  31.573   7.653
 7424POPC   NC332567  13.668  27.601   9.453
 7424POPC   PO432568  13.643  27.543   9.153
 7424POPC   GL132569  13.599  27.635   8.853
 7424POPC   GL232570  13.691  27.568   8.853
 7424POPC   C1A32571  13.600  27.588   8.553
 7424POPC   D2A32572  13.643  27.564   8.253
 7424POPC   C3A32573  13.592  27.628   7.953
 7424POPC   C4A32574  13.660  27.643   7.653
 7424POPC   C1B32575  13.837  27.425   8.553
 7424POPC   C2B32576  13.877  27.498   8.253
 7424POPC   C3B32577  13.828  27.426   7.953
 7424POPC   C4B32578  13.886  27.467   7.653
 7425POPC   NC332579  21.430  33.000   9.453
 7425POPC   PO432580  21.387  33.060   9.153
 7425POPC   GL132581  21.343  33.006   8.853
 7425POPC   GL232582  21.490  33.046   8.853
 7425POPC   C1A32583  21.398  32.988   8.553
 7425POPC   D2A32584  21.399  33.003   8.253
 7425POPC   C3A32585  21.391  33.062   7.953
 7425POPC   C4A32586  21.432  33.030   7.653
 7425POPC   C1B32587  21.633  33.089   8.553
 7425POPC   C2B32588  21.604  33.011   8.253
 7425POPC   C3B32589  21.680  33.036   7.953
 7425POPC   C4B32590  21.674  33.087   7.653
 7426POPC   NC332591  17.544   2.038   9.453
 7426POPC   PO432592  17.465   1.946   9.153
 7426POPC   GL132593  17.508   1.942   8.853
 7426POPC   GL232594  17.598   2.113   8.853
 7426POPC   C1A32595  17.509   1.965   8.553
 7426POPC   D2A32596  17.495   2.021   8.253
 7426POPC   C3A32597  17.499   1.965   7.953
 7426POPC   C4A32598  17.484   2.037   7.653
 7426POPC   C1B32599  17.620   2.208   8.553
 7426POPC   C2B32600  17.574   2.263   8.253
 7426POPC   C3B32601  17.544   2.241   7.953
 7426POPC   C4B32602  17.601   2.272   7.653
 7427POPC   NC332603  40.030  43.136   9.453
 7427POPC   PO432604  40.049  43.120   9.153
 7427POPC   GL132605  40.011  43.064   8.853
 7427POPC   GL232606  39.879  43.058   8.853
 7427POPC   C1A32607  39.997  43.118   8.553
 7427POPC   D2A32608  40.055  43.159   8.253
 7427POPC   C3A32609  40.042  43.073   7.953
 7427POPC   C4A32610  39.997  43.094   7.653
 7427POPC   C1B32611  39.808  42.902   8.553
 7427POPC   C2B32612  39.791  42.990   8.253
 7427POPC   C3B32613  39.821  42.912   7.953
 7427POPC   C4B32614  39.806  42.994   7.653
 7428POPC   NC332615  41.567   1.995   9.453
 7428POPC   PO432616  41.578   1.952   9.153
 7428POPC   GL132617  41.559   1.964   8.853
 7428POPC   GL232618  41.660   2.018   8.853
 7428POPC   C1A32619  41.603   1.993   8.553
 7428POPC   D2A32620  41.601   2.026   8.253
 7428POPC   C3A32621  41.598   2.016   7.953
 7428POPC   C4A32622  41.579   1.987   7.653
 7428POPC   C1B32623  41.780   1.993   8.553
 7428POPC   C2B32624  41.771   1.976   8.253
 7428POPC   C3B32625  41.763   1.946   7.953
 7428POPC   C4B32626  41.778   1.980   7.653
 7429POPC   NC332627  40.043   0.436   9.453
 7429POPC   PO432628  39.986   0.422   9.153
 7429POPC   GL132629  39.959   0.454   8.853
 7429POPC   GL232630  39.893   0.444   8.853
 7429POPC   C1A32631  39.957   0.432   8.553
 7429POPC   D2A32632  40.016   0.479   8.253
 7429POPC   C3A32633  39.961   0.439   7.953
 7429POPC   C4A32634  39.958   0.485   7.653
 7429POPC   C1B32635  39.783   0.505   8.553
 7429POPC   C2B32636  39.775   0.516   8.253
 7429POPC   C3B32637  39.744   0.449   7.953
 7429POPC   C4B32638  39.811   0.524   7.653
 7430POPC   NC332639  37.705  22.952   9.453
 7430POPC   PO432640  37.692  22.956   9.153
 7430POPC   GL132641  37.647  22.955   8.853
 7430POPC   GL232642  37.825  23.052   8.853
 7430POPC   C1A32643  37.653  22.965   8.553
 7430POPC   D2A32644  37.720  22.891   8.253
 7430POPC   C3A32645  37.727  22.904   7.953
 7430POPC   C4A32646  37.657  22.979   7.653
 7430POPC   C1B32647  37.845  23.129   8.553
 7430POPC   C2B32648  37.849  23.094   8.253
 7430POPC   C3B32649  37.929  23.066   7.953
 7430POPC   C4B32650  37.897  23.067   7.653
 7431POPC   NC332651  37.699  24.523   9.453
 7431POPC   PO432652  37.675  24.459   9.153
 7431POPC   GL132653  37.695  24.533   8.853
 7431POPC   GL232654  37.788  24.348   8.853
 7431POPC   C1A32655  37.635  24.534   8.553
 7431POPC   D2A32656  37.676  24.520   8.253
 7431POPC   C3A32657  37.694  24.490   7.953
 7431POPC   C4A32658  37.712  24.531   7.653
 7431POPC   C1B32659  37.787  24.291   8.553
 7431POPC   C2B32660  37.837  24.260   8.253
 7431POPC   C3B32661  37.839  24.331   7.953
 7431POPC   C4B32662  37.857  24.307   7.653
 7432POPC   NC332663  32.270  43.909   9.453
 7432POPC   PO432664  32.293  43.880   9.153
 7432POPC   GL132665  32.223  43.866   8.853
 7432POPC   GL232666  32.383  43.937   8.853
 7432POPC   C1A32667  32.273  43.845   8.553
 7432POPC   D2A32668  32.220  43.904   8.253
 7432POPC   C3A32669  32.198  43.926   7.953
 7432POPC   C4A32670  32.255  43.839   7.653
 7432POPC   C1B32671  32.391  44.075   8.553
 7432POPC   C2B32672  32.440  44.113   8.253
 7432POPC   C3B32673  32.418  44.066   7.953
 7432POPC   C4B32674  32.399  44.094   7.653
 7433POPC   NC332675  25.296  26.006   9.453
 7433POPC   PO432676  25.225  26.089   9.153
 7433POPC   GL132677  25.270  26.028   8.853
 7433POPC   GL232678  25.113  25.987   8.853
 7433POPC   C1A32679  25.217  26.063   8.553
 7433POPC   D2A32680  25.309  26.070   8.253
 7433POPC   C3A32681  25.309  26.032   7.953
 7433POPC   C4A32682  25.261  26.045   7.653
 7433POPC   C1B32683  24.993  25.998   8.553
 7433POPC   C2B32684  24.998  25.975   8.253
 7433POPC   C3B32685  25.010  26.026   7.953
 7433POPC   C4B32686  24.974  26.005   7.653
 7434POPC   NC332687  36.107  20.659   9.453
 7434POPC   PO432688  36.083  20.623   9.153
 7434POPC   GL132689  36.167  20.604   8.853
 7434POPC   GL232690  36.082  20.699   8.853
 7434POPC   C1A32691  36.151  20.639   8.553
 7434POPC   D2A32692  36.155  20.571   8.253
 7434POPC   C3A32693  36.176  20.579   7.953
 7434POPC   C4A32694  36.102  20.626   7.653
 7434POPC   C1B32695  36.004  20.798   8.553
 7434POPC   C2B32696  36.021  20.820   8.253
 7434POPC   C3B32697  35.989  20.874   7.953
 7434POPC   C4B32698  36.061  20.841   7.653
 7435POPC   NC332699  20.602  19.809   9.453
 7435POPC   PO432700  20.633  19.812   9.153
 7435POPC   GL132701  20.624  19.843   8.853
 7435POPC   GL232702  20.612  19.972   8.853
 7435POPC   C1A32703  20.582  19.820   8.553
 7435POPC   D2A32704  20.631  19.846   8.253
 7435POPC   C3A32705  20.626  19.796   7.953
 7435POPC   C4A32706  20.589  19.879   7.653
 7435POPC   C1B32707  20.567  20.064   8.553
 7435POPC   C2B32708  20.585  20.088   8.253
 7435POPC   C3B32709  20.508  20.041   7.953
 7435POPC   C4B32710  20.510  20.128   7.653
 7436POPC   NC332711  43.878  43.858   9.453
 7436POPC   PO432712  43.866  43.840   9.153
 7436POPC   GL132713  43.918  43.866   8.853
 7436POPC   GL232714  43.757  43.967   8.853
 7436POPC   C1A32715  43.873  43.911   8.553
 7436POPC   D2A32716  43.839  43.842   8.253
 7436POPC   C3A32717  43.872  43.870   7.953
 7436POPC   C4A32718  43.869  43.844   7.653
 7436POPC   C1B32719  43.701  44.047   8.553
 7436POPC   C2B32720  43.683  44.031   8.253
 7436POPC   C3B32721  43.712  43.987   7.953
 7436POPC   C4B32722  43.656  44.000   7.653
 7437POPC   NC332723   5.062  13.674   9.453
 7437POPC   PO432724   5.095  13.643   9.153
 7437POPC   GL132725   5.087  13.586   8.853
 7437POPC   GL232726   4.997  13.538   8.853
 7437POPC   C1A32727   5.047  13.644   8.553
 7437POPC   D2A32728   5.063  13.621   8.253
 7437POPC   C3A32729   5.109  13.622   7.953
 7437POPC   C4A32730   5.139  13.620   7.653
 7437POPC   C1B32731   4.821  13.578   8.553
 7437POPC   C2B32732   4.876  13.578   8.253
 7437POPC   C3B32733   4.812  13.490   7.953
 7437POPC   C4B32734   4.861  13.569   7.653
 7438POPC   NC332735  39.246   6.632   9.453
 7438POPC   PO432736  39.234   6.665   9.153
 7438POPC   GL132737  39.265   6.606   8.853
 7438POPC   GL232738  39.108   6.552   8.853
 7438POPC   C1A32739  39.239   6.653   8.553
 7438POPC   D2A32740  39.186   6.628   8.253
 7438POPC   C3A32741  39.245   6.628   7.953
 7438POPC   C4A32742  39.281   6.630   7.653
 7438POPC   C1B32743  38.960   6.590   8.553
 7438POPC   C2B32744  38.993   6.544   8.253
 7438POPC   C3B32745  38.954   6.545   7.953
 7438POPC   C4B32746  39.005   6.546   7.653
 7439POPC   NC332747  16.735   6.645   9.453
 7439POPC   PO432748  16.692   6.660   9.153
 7439POPC   GL132749  16.703   6.610   8.853
 7439POPC   GL232750  16.741   6.568   8.853
 7439POPC   C1A32751  16.733   6.639   8.553
 7439POPC   D2A32752  16.772   6.596   8.253
 7439POPC   C3A32753  16.733   6.616   7.953
 7439POPC   C4A32754  16.702   6.634   7.653
 7439POPC   C1B32755  16.691   6.414   8.553
 7439POPC   C2B32756  16.643   6.355   8.253
 7439POPC   C3B32757  16.674   6.411   7.953
 7439POPC   C4B32758  16.717   6.440   7.653
 7440POPC   NC332759  12.105  19.023   9.453
 7440POPC   PO432760  12.046  19.016   9.153
 7440POPC   GL132761  12.031  19.082   8.853
 7440POPC   GL232762  12.044  19.188   8.853
 7440POPC   C1A32763  12.107  19.010   8.553
 7440POPC   D2A32764  12.077  19.084   8.253
 7440POPC   C3A32765  12.060  19.020   7.953
 7440POPC   C4A32766  12.033  19.083   7.653
 7440POPC   C1B32767  12.055  19.305   8.553
 7440POPC   C2B32768  12.065  19.334   8.253
 7440POPC   C3B32769  12.016  19.340   7.953
 7440POPC   C4B32770  12.086  19.342   7.653
 7441POPC   NC332771  36.916  12.861   9.453
 7441POPC   PO432772  36.939  12.892   9.153
 7441POPC   GL132773  36.854  12.822   8.853
 7441POPC   GL232774  36.813  12.888   8.853
 7441POPC   C1A32775  36.864  12.844   8.553
 7441POPC   D2A32776  36.891  12.883   8.253
 7441POPC   C3A32777  36.868  12.807   7.953
 7441POPC   C4A32778  36.911  12.823   7.653
 7441POPC   C1B32779  36.674  12.927   8.553
 7441POPC   C2B32780  36.619  12.902   8.253
 7441POPC   C3B32781  36.698  12.892   7.953
 7441POPC   C4B32782  36.613  12.902   7.653
 7442POPC   NC332783  12.825   5.833   9.453
 7442POPC   PO432784  12.870   5.834   9.153
 7442POPC   GL132785  12.901   5.855   8.853
 7442POPC   GL232786  12.985   5.845   8.853
 7442POPC   C1A32787  12.887   5.913   8.553
 7442POPC   D2A32788  12.822   5.918   8.253
 7442POPC   C3A32789  12.866   5.880   7.953
 7442POPC   C4A32790  12.820   5.820   7.653
 7442POPC   C1B32791  13.090   5.906   8.553
 7442POPC   C2B32792  13.081   5.841   8.253
 7442POPC   C3B32793  13.111   5.880   7.953
 7442POPC   C4B32794  13.116   5.881   7.653
 7443POPC   NC332795  19.857  19.868   9.453
 7443POPC   PO432796  19.824  19.808   9.153
 7443POPC   GL132797  19.845  19.850   8.853
 7443POPC   GL232798  19.983  19.716   8.853
 7443POPC   C1A32799  19.838  19.832   8.553
 7443POPC   D2A32800  19.786  19.839   8.253
 7443POPC   C3A32801  19.834  19.801   7.953
 7443POPC   C4A32802  19.864  19.833   7.653
 7443POPC   C1B32803  20.071  19.721   8.553
 7443POPC   C2B32804  20.036  19.690   8.253
 7443POPC   C3B32805  20.062  19.675   7.953
 7443POPC   C4B32806  20.009  19.709   7.653
 7444POPC   NC332807  44.704  12.889   9.453
 7444POPC   PO432808  44.689  12.823   9.153
 7444POPC   GL132809  44.673  12.829   8.853
 7444POPC   GL232810  44.511  12.840   8.853
 7444POPC   C1A32811  44.616  12.874   8.553
 7444POPC   D2A32812  44.669  12.863   8.253
 7444POPC   C3A32813  44.691  12.869   7.953
 7444POPC   C4A32814  44.633  12.869   7.653
 7444POPC   C1B32815  44.423  12.798   8.553
 7444POPC   C2B32816  44.433  12.788   8.253
 7444POPC   C3B32817  44.455  12.806   7.953
 7444POPC   C4B32818  44.423  12.809   7.653
 7445POPC   NC332819  37.727  41.583   9.453
 7445POPC   PO432820  37.683  41.558   9.153
 7445POPC   GL132821  37.674  41.554   8.853
 7445POPC   GL232822  37.770  41.619   8.853
 7445POPC   C1A32823  37.676  41.568   8.553
 7445POPC   D2A32824  37.710  41.547   8.253
 7445POPC   C3A32825  37.693  41.535   7.953
 7445POPC   C4A32826  37.699  41.599   7.653
 7445POPC   C1B32827  37.863  41.699   8.553
 7445POPC   C2B32828  37.902  41.679   8.253
 7445POPC   C3B32829  37.886  41.612   7.953
 7445POPC   C4B32830  37.863  41.620   7.653
 7446POPC   NC332831   0.465   4.350   9.453
 7446POPC   PO432832   0.447   4.324   9.153
 7446POPC   GL132833   0.468   4.366   8.853
 7446POPC   GL232834   0.456   4.184   8.853
 7446POPC   C1A32835   0.464   4.338   8.553
 7446POPC   D2A32836   0.414   4.301   8.253
 7446POPC   C3A32837   0.475   4.306   7.953
 7446POPC   C4A32838   0.446   4.295   7.653
 7446POPC   C1B32839   0.362   4.105   8.553
 7446POPC   C2B32840   0.380   4.116   8.253
 7446POPC   C3B32841   0.416   4.044   7.953
 7446POPC   C4B32842   0.356   4.077   7.653
 7447POPC   NC332843   5.872   8.164   9.453
 7447POPC   PO432844   5.887   8.196   9.153
 7447POPC   GL132845   5.895   8.189   8.853
 7447POPC   GL232846   5.758   8.200   8.853
 7447POPC   C1A32847   5.883   8.232   8.553
 7447POPC   D2A32848   5.842   8.195   8.253
 7447POPC   C3A32849   5.826   8.207   7.953
 7447POPC   C4A32850   5.847   8.198   7.653
 7447POPC   C1B32851   5.577   8.289   8.553
 7447POPC   C2B32852   5.605   8.279   8.253
 7447POPC   C3B32853   5.674   8.290   7.953
 7447POPC   C4B32854   5.662   8.285   7.653
 7448POPC   NC332855  42.376  44.657   9.453
 7448POPC   PO432856  42.354  44.657   9.153
 7448POPC   GL132857  42.289  44.685   8.853
 7448POPC   GL232858  42.188  44.626   8.853
 7448POPC   C1A32859  42.352  44.625   8.553
 7448POPC   D2A32860  42.354  44.644   8.253
 7448POPC   C3A32861  42.335  44.629   7.953
 7448POPC   C4A32862  42.290  44.659   7.653
 7448POPC   C1B32863  42.047  44.668   8.553
 7448POPC   C2B32864  42.126  44.643   8.253
 7448POPC   C3B32865  42.092  44.664   7.953
 7448POPC   C4B32866  42.037  44.696   7.653
 7449POPC   NC332867  21.405  19.876   9.453
 7449POPC   PO432868  21.365  19.791   9.153
 7449POPC   GL132869  21.347  19.815   8.853
 7449POPC   GL232870  21.375  19.952   8.853
 7449POPC   C1A32871  21.393  19.824   8.553
 7449POPC   D2A32872  21.430  19.882   8.253
 7449POPC   C3A32873  21.432  19.864   7.953
 7449POPC   C4A32874  21.419  19.879   7.653
 7449POPC   C1B32875  21.315  20.095   8.553
 7449POPC   C2B32876  21.355  20.024   8.253
 7449POPC   C3B32877  21.324  20.097   7.953
 7449POPC   C4B32878  21.340  20.049   7.653
 7450POPC   NC332879   5.881  35.378   9.453
 7450POPC   PO432880   5.897  35.368   9.153
 7450POPC   GL132881   5.842  35.363   8.853
 7450POPC   GL232882   5.715  35.286   8.853
 7450POPC   C1A32883   5.854  35.379   8.553
 7450POPC   D2A32884   5.918  35.370   8.253
 7450POPC   C3A32885   5.910  35.368   7.953
 7450POPC   C4A32886   5.861  35.396   7.653
 7450POPC   C1B32887   5.606  35.335   8.553
 7450POPC   C2B32888   5.614  35.315   8.253
 7450POPC   C3B32889   5.656  35.331   7.953
 7450POPC   C4B32890   5.650  35.262   7.653
 7451POPC   NC332891  15.218  23.720   9.453
 7451POPC   PO432892  15.135  23.734   9.153
 7451POPC   GL132893  15.143  23.737   8.853
 7451POPC   GL232894  15.040  23.762   8.853
 7451POPC   C1A32895  15.215  23.690   8.553
 7451POPC   D2A32896  15.133  23.674   8.253
 7451POPC   C3A32897  15.140  23.685   7.953
 7451POPC   C4A32898  15.178  23.678   7.653
 7451POPC   C1B32899  14.933  23.803   8.553
 7451POPC   C2B32900  14.962  23.811   8.253
 7451POPC   C3B32901  14.946  23.765   7.953
 7451POPC   C4B32902  14.933  23.795   7.653
 7452POPC   NC332903   4.283  36.176   9.453
 7452POPC   PO432904   4.327  36.095   9.153
 7452POPC   GL132905   4.363  36.120   8.853
 7452POPC   GL232906   4.317  36.222   8.853
 7452POPC   C1A32907   4.289  36.090   8.553
 7452POPC   D2A32908   4.334  36.176   8.253
 7452POPC   C3A32909   4.292  36.093   7.953
 7452POPC   C4A32910   4.292  36.142   7.653
 7452POPC   C1B32911   4.236  36.351   8.553
 7452POPC   C2B32912   4.282  36.398   8.253
 7452POPC   C3B32913   4.275  36.381   7.953
 7452POPC   C4B32914   4.252  36.325   7.653
 7453POPC   NC332915  39.224  23.716   9.453
 7453POPC   PO432916  39.209  23.707   9.153
 7453POPC   GL132917  39.218  23.755   8.853
 7453POPC   GL232918  39.112  23.811   8.853
 7453POPC   C1A32919  39.267  23.707   8.553
 7453POPC   D2A32920  39.201  23.718   8.253
 7453POPC   C3A32921  39.192  23.693   7.953
 7453POPC   C4A32922  39.188  23.750   7.653
 7453POPC   C1B32923  39.051  23.837   8.553
 7453POPC   C2B32924  39.072  23.855   8.253
 7453POPC   C3B32925  39.055  23.857   7.953
 7453POPC   C4B32926  39.053  23.855   7.653
 7454POPC   NC332927  38.440  27.632   9.453
 7454POPC   PO432928  38.406  27.548   9.153
 7454POPC   GL132929  38.430  27.589   8.853
 7454POPC   GL232930  38.382  27.523   8.853
 7454POPC   C1A32931  38.443  27.560   8.553
 7454POPC   D2A32932  38.447  27.608   8.253
 7454POPC   C3A32933  38.412  27.612   7.953
 7454POPC   C4A32934  38.486  27.577   7.653
 7454POPC   C1B32935  38.298  27.418   8.553
 7454POPC   C2B32936  38.240  27.392   8.253
 7454POPC   C3B32937  38.332  27.431   7.953
 7454POPC   C4B32938  38.251  27.367   7.653
 7455POPC   NC332939   8.954  22.174   9.453
 7455POPC   PO432940   8.962  22.147   9.153
 7455POPC   GL132941   8.990  22.178   8.853
 7455POPC   GL232942   8.943  22.070   8.853
 7455POPC   C1A32943   8.980  22.142   8.553
 7455POPC   D2A32944   9.007  22.139   8.253
 7455POPC   C3A32945   8.996  22.176   7.953
 7455POPC   C4A32946   8.973  22.147   7.653
 7455POPC   C1B32947   8.885  21.974   8.553
 7455POPC   C2B32948   8.877  21.949   8.253
 7455POPC   C3B32949   8.831  21.921   7.953
 7455POPC   C4B32950   8.878  21.974   7.653
 7456POPC   NC332951  30.725  26.768   9.453
 7456POPC   PO432952  30.732  26.829   9.153
 7456POPC   GL132953  30.744  26.788   8.853
 7456POPC   GL232954  30.826  26.703   8.853
 7456POPC   C1A32955  30.737  26.837   8.553
 7456POPC   D2A32956  30.664  26.831   8.253
 7456POPC   C3A32957  30.696  26.827   7.953
 7456POPC   C4A32958  30.721  26.856   7.653
 7456POPC   C1B32959  30.863  26.634   8.553
 7456POPC   C2B32960  30.942  26.684   8.253
 7456POPC   C3B32961  30.941  26.716   7.953
 7456POPC   C4B32962  30.875  26.650   7.653
 7457POPC   NC332963   0.431  22.914   9.453
 7457POPC   PO432964   0.397  22.917   9.153
 7457POPC   GL132965   0.468  22.965   8.853
 7457POPC   GL232966   0.512  22.892   8.853
 7457POPC   C1A32967   0.419  22.942   8.553
 7457POPC   D2A32968   0.443  22.890   8.253
 7457POPC   C3A32969   0.413  22.933   7.953
 7457POPC   C4A32970   0.462  22.985   7.653
 7457POPC   C1B32971   0.600  22.746   8.553
 7457POPC   C2B32972   0.679  22.818   8.253
 7457POPC   C3B32973   0.597  22.741   7.953
 7457POPC   C4B32974   0.655  22.833   7.653
 7458POPC   NC332975   8.999  19.022   9.453
 7458POPC   PO432976   8.935  19.067   9.153
 7458POPC   GL132977   8.937  19.100   8.853
 7458POPC   GL232978   8.903  18.920   8.853
 7458POPC   C1A32979   8.983  19.079   8.553
 7458POPC   D2A32980   9.000  19.065   8.253
 7458POPC   C3A32981   8.965  19.029   7.953
 7458POPC   C4A32982   8.944  19.068   7.653
 7458POPC   C1B32983   8.909  18.817   8.553
 7458POPC   C2B32984   8.879  18.818   8.253
 7458POPC   C3B32985   8.910  18.829   7.953
 7458POPC   C4B32986   8.947  18.837   7.653
 7459POPC   NC332987  33.840  15.158   9.453
 7459POPC   PO432988  33.849  15.144   9.153
 7459POPC   GL132989  33.810  15.152   8.853
 7459POPC   GL232990  33.853  15.114   8.853
 7459POPC   C1A32991  33.847  15.215   8.553
 7459POPC   D2A32992  33.795  15.133   8.253
 7459POPC   C3A32993  33.755  15.212   7.953
 7459POPC   C4A32994  33.834  15.199   7.653
 7459POPC   C1B32995  34.023  15.040   8.553
 7459POPC   C2B32996  33.952  15.066   8.253
 7459POPC   C3B32997  33.997  14.987   7.953
 7459POPC   C4B32998  33.989  14.979   7.653
 7460POPC   NC332999  27.617  35.354   9.453
 7460POPC   PO433000  27.548  35.384   9.153
 7460POPC   GL133001  27.587  35.337   8.853
 7460POPC   GL233002  27.521  35.410   8.853
 7460POPC   C1A33003  27.630  35.375   8.553
 7460POPC   D2A33004  27.622  35.376   8.253
 7460POPC   C3A33005  27.601  35.320   7.953
 7460POPC   C4A33006  27.622  35.354   7.653
 7460POPC   C1B33007  27.487  35.557   8.553
 7460POPC   C2B33008  27.419  35.586   8.253
 7460POPC   C3B33009  27.445  35.543   7.953
 7460POPC   C4B33010  27.448  35.573   7.653
 7461POPC   NC333011  28.340  19.064   9.453
 7461POPC   PO433012  28.402  19.009   9.153
 7461POPC   GL133013  28.394  19.011   8.853
 7461POPC   GL233014  28.439  18.950   8.853
 7461POPC   C1A33015  28.375  19.054   8.553
 7461POPC   D2A33016  28.365  19.108   8.253
 7461POPC   C3A33017  28.331  19.066   7.953
 7461POPC   C4A33018  28.352  19.089   7.653
 7461POPC   C1B33019  28.475  18.851   8.553
 7461POPC   C2B33020  28.455  18.787   8.253
 7461POPC   C3B33021  28.438  18.810   7.953
 7461POPC   C4B33022  28.441  18.804   7.653
 7462POPC   NC333023   1.234  11.320   9.453
 7462POPC   PO433024   1.257  11.312   9.153
 7462POPC   GL133025   1.180  11.329   8.853
 7462POPC   GL233026   1.072  11.278   8.853
 7462POPC   C1A33027   1.177  11.305   8.553
 7462POPC   D2A33028   1.214  11.294   8.253
 7462POPC   C3A33029   1.228  11.282   7.953
 7462POPC   C4A33030   1.208  11.286   7.653
 7462POPC   C1B33031   1.043  11.148   8.553
 7462POPC   C2B33032   1.018  11.182   8.253
 7462POPC   C3B33033   1.013  11.159   7.953
 7462POPC   C4B33034   0.969  11.184   7.653
 7463POPC   NC333035  32.237  36.919   9.453
 7463POPC   PO433036  32.226  36.941   9.153
 7463POPC   GL133037  32.262  36.860   8.853
 7463POPC   GL233038  32.255  36.796   8.853
 7463POPC   C1A33039  32.216  36.872   8.553
 7463POPC   D2A33040  32.287  36.893   8.253
 7463POPC   C3A33041  32.253  36.887   7.953
 7463POPC   C4A33042  32.203  36.877   7.653
 7463POPC   C1B33043  32.136  36.656   8.553
 7463POPC   C2B33044  32.163  36.710   8.253
 7463POPC   C3B33045  32.201  36.632   7.953
 7463POPC   C4B33046  32.213  36.708   7.653
 7464POPC   NC333047  14.440   5.855   9.453
 7464POPC   PO433048  14.394   5.826   9.153
 7464POPC   GL133049  14.413   5.839   8.853
 7464POPC   GL233050  14.275   6.012   8.853
 7464POPC   C1A33051  14.365   5.820   8.553
 7464POPC   D2A33052  14.406   5.836   8.253
 7464POPC   C3A33053  14.433   5.862   7.953
 7464POPC   C4A33054  14.453   5.845   7.653
 7464POPC   C1B33055  14.218   6.073   8.553
 7464POPC   C2B33056  14.199   6.091   8.253
 7464POPC   C3B33057  14.202   6.053   7.953
 7464POPC   C4B33058  14.210   6.038   7.653
 7465POPC   NC333059  44.696   0.427   9.453
 7465POPC   PO433060  44.650   0.486   9.153
 7465POPC   GL133061  44.660   0.423   8.853
 7465POPC   GL233062  44.769   0.469   8.853
 7465POPC   C1A33063  44.673   0.389   8.553
 7465POPC   D2A33064  44.632   0.449   8.253
 7465POPC   C3A33065  44.620   0.411   7.953
 7465POPC   C4A33066  44.645   0.402   7.653
 7465POPC   C1B33067  44.873   0.556   8.553
 7465POPC   C2B33068  44.838   0.561   8.253
 7465POPC   C3B33069  44.907   0.564   7.953
 7465POPC   C4B33070  44.899   0.579   7.653
 7466POPC   NC333071  39.186   5.088   9.453
 7466POPC   PO433072  39.278   5.124   9.153
 7466POPC   GL133073  39.211   5.084   8.853
 7466POPC   GL233074  39.141   5.185   8.853
 7466POPC   C1A33075  39.280   5.078   8.553
 7466POPC   D2A33076  39.250   5.141   8.253
 7466POPC   C3A33077  39.277   5.079   7.953
 7466POPC   C4A33078  39.216   5.114   7.653
 7466POPC   C1B33079  39.072   5.223   8.553
 7466POPC   C2B33080  39.001   5.245   8.253
 7466POPC   C3B33081  39.052   5.259   7.953
 7466POPC   C4B33082  39.044   5.253   7.653
 7467POPC   NC333083  32.285  42.317   9.453
 7467POPC   PO433084  32.238  42.358   9.153
 7467POPC   GL133085  32.241  42.292   8.853
 7467POPC   GL233086  32.312  42.220   8.853
 7467POPC   C1A33087  32.262  42.358   8.553
 7467POPC   D2A33088  32.246  42.364   8.253
 7467POPC   C3A33089  32.282  42.361   7.953
 7467POPC   C4A33090  32.213  42.285   7.653
 7467POPC   C1B33091  32.299  42.136   8.553
 7467POPC   C2B33092  32.343  42.099   8.253
 7467POPC   C3B33093  32.306  42.051   7.953
 7467POPC   C4B33094  32.331  42.059   7.653
 7468POPC   NC333095  14.385  12.806   9.453
 7468POPC   PO433096  14.437  12.817   9.153
 7468POPC   GL133097  14.356  12.834   8.853
 7468POPC   GL233098  14.363  12.759   8.853
 7468POPC   C1A33099  14.433  12.809   8.553
 7468POPC   D2A33100  14.439  12.900   8.253
 7468POPC   C3A33101  14.398  12.835   7.953
 7468POPC   C4A33102  14.413  12.850   7.653
 7468POPC   C1B33103  14.252  12.685   8.553
 7468POPC   C2B33104  14.278  12.694   8.253
 7468POPC   C3B33105  14.301  12.652   7.953
 7468POPC   C4B33106  14.234  12.694   7.653
 7469POPC   NC333107   7.372  18.322   9.453
 7469POPC   PO433108   7.396  18.270   9.153
 7469POPC   GL133109   7.401  18.242   8.853
 7469POPC   GL233110   7.275  18.288   8.853
 7469POPC   C1A33111   7.381  18.250   8.553
 7469POPC   D2A33112   7.427  18.328   8.253
 7469POPC   C3A33113   7.467  18.281   7.953
 7469POPC   C4A33114   7.384  18.255   7.653
 7469POPC   C1B33115   7.168  18.328   8.553
 7469POPC   C2B33116   7.127  18.262   8.253
 7469POPC   C3B33117   7.193  18.236   7.953
 7469POPC   C4B33118   7.207  18.233   7.653
 7470POPC   NC333119  35.335  35.326   9.453
 7470POPC   PO433120  35.307  35.392   9.153
 7470POPC   GL133121  35.339  35.305   8.853
 7470POPC   GL233122  35.420  35.193   8.853
 7470POPC   C1A33123  35.338  35.305   8.553
 7470POPC   D2A33124  35.365  35.380   8.253
 7470POPC   C3A33125  35.363  35.369   7.953
 7470POPC   C4A33126  35.395  35.324   7.653
 7470POPC   C1B33127  35.391  35.061   8.553
 7470POPC   C2B33128  35.405  35.085   8.253
 7470POPC   C3B33129  35.375  35.120   7.953
 7470POPC   C4B33130  35.396  35.155   7.653
 7471POPC   NC333131  19.808  30.670   9.453
 7471POPC   PO433132  19.875  30.671   9.153
 7471POPC   GL133133  19.873  30.739   8.853
 7471POPC   GL233134  19.875  30.542   8.853
 7471POPC   C1A33135  19.834  30.666   8.553
 7471POPC   D2A33136  19.809  30.663   8.253
 7471POPC   C3A33137  19.802  30.687   7.953
 7471POPC   C4A33138  19.788  30.731   7.653
 7471POPC   C1B33139  19.846  30.486   8.553
 7471POPC   C2B33140  19.888  30.457   8.253
 7471POPC   C3B33141  19.834  30.425   7.953
 7471POPC   C4B33142  19.856  30.444   7.653
 7472POPC   NC333143   8.966  25.219   9.453
 7472POPC   PO433144   8.933  25.263   9.153
 7472POPC   GL133145   8.953  25.314   8.853
 7472POPC   GL233146   9.004  25.125   8.853
 7472POPC   C1A33147   8.957  25.221   8.553
 7472POPC   D2A33148   8.959  25.223   8.253
 7472POPC   C3A33149   8.968  25.242   7.953
 7472POPC   C4A33150   8.933  25.237   7.653
 7472POPC   C1B33151   9.050  25.012   8.553
 7472POPC   C2B33152   9.083  25.010   8.253
 7472POPC   C3B33153   9.113  25.081   7.953
 7472POPC   C4B33154   9.104  25.027   7.653
 7473POPC   NC333155   8.978  29.164   9.453
 7473POPC   PO433156   8.948  29.114   9.153
 7473POPC   GL133157   8.979  29.107   8.853
 7473POPC   GL233158   9.085  29.140   8.853
 7473POPC   C1A33159   8.945  29.111   8.553
 7473POPC   D2A33160   8.935  29.117   8.253
 7473POPC   C3A33161   9.019  29.113   7.953
 7473POPC   C4A33162   8.947  29.130   7.653
 7473POPC   C1B33163   9.177  29.154   8.553
 7473POPC   C2B33164   9.267  29.185   8.253
 7473POPC   C3B33165   9.192  29.196   7.953
 7473POPC   C4B33166   9.181  29.211   7.653
 7474POPC   NC333167  12.099  20.569   9.453
 7474POPC   PO433168  12.115  20.654   9.153
 7474POPC   GL133169  12.074  20.616   8.853
 7474POPC   GL233170  11.957  20.583   8.853
 7474POPC   C1A33171  12.042  20.657   8.553
 7474POPC   D2A33172  12.104  20.597   8.253
 7474POPC   C3A33173  12.038  20.658   7.953
 7474POPC   C4A33174  12.123  20.578   7.653
 7474POPC   C1B33175  11.778  20.592   8.553
 7474POPC   C2B33176  11.801  20.602   8.253
 7474POPC   C3B33177  11.839  20.610   7.953
 7474POPC   C4B33178  11.798  20.674   7.653
 7475POPC   NC333179  23.761  37.669   9.453
 7475POPC   PO433180  23.716  37.719   9.153
 7475POPC   GL133181  23.725  37.645   8.853
 7475POPC   GL233182  23.834  37.781   8.853
 7475POPC   C1A33183  23.741  37.671   8.553
 7475POPC   D2A33184  23.667  37.675   8.253
 7475POPC   C3A33185  23.731  37.692   7.953
 7475POPC   C4A33186  23.724  37.645   7.653
 7475POPC   C1B33187  23.896  37.866   8.553
 7475POPC   C2B33188  23.902  37.810   8.253
 7475POPC   C3B33189  23.907  37.891   7.953
 7475POPC   C4B33190  23.860  37.895   7.653
 7476POPC   NC333191  23.691  10.528   9.453
 7476POPC   PO433192  23.739  10.530   9.153
 7476POPC   GL133193  23.668  10.500   8.853
 7476POPC   GL233194  23.678  10.398   8.853
 7476POPC   C1A33195  23.716  10.518   8.553
 7476POPC   D2A33196  23.741  10.553   8.253
 7476POPC   C3A33197  23.739  10.545   7.953
 7476POPC   C4A33198  23.699  10.548   7.653
 7476POPC   C1B33199  23.687  10.241   8.553
 7476POPC   C2B33200  23.609  10.254   8.253
 7476POPC   C3B33201  23.624  10.261   7.953
 7476POPC   C4B33202  23.641  10.297   7.653
 7477POPC   NC333203  23.739  40.011   9.453
 7477POPC   PO433204  23.679  40.011   9.153
 7477POPC   GL133205  23.715  39.982   8.853
 7477POPC   GL233206  23.571  39.989   8.853
 7477POPC   C1A33207  23.744  40.040   8.553
 7477POPC   D2A33208  23.713  39.988   8.253
 7477POPC   C3A33209  23.668  39.998   7.953
 7477POPC   C4A33210  23.745  39.962   7.653
 7477POPC   C1B33211  23.447  39.933   8.553
 7477POPC   C2B33212  23.444  39.931   8.253
 7477POPC   C3B33213  23.476  39.932   7.953
 7477POPC   C4B33214  23.454  40.014   7.653
 7478POPC   NC333215  37.633   0.397   9.453
 7478POPC   PO433216  37.719   0.430   9.153
 7478POPC   GL133217  37.675   0.398   8.853
 7478POPC   GL233218  37.818   0.494   8.853
 7478POPC   C1A33219  37.639   0.482   8.553
 7478POPC   D2A33220  37.715   0.486   8.253
 7478POPC   C3A33221  37.669   0.474   7.953
 7478POPC   C4A33222  37.706   0.388   7.653
 7478POPC   C1B33223  37.880   0.560   8.553
 7478POPC   C2B33224  37.874   0.552   8.253
 7478POPC   C3B33225  37.925   0.512   7.953
 7478POPC   C4B33226  37.950   0.546   7.653
 7479POPC   NC333227  44.636  35.387   9.453
 7479POPC   PO433228  44.682  35.322   9.153
 7479POPC   GL133229  44.625  35.361   8.853
 7479POPC   GL233230  44.566  35.426   8.853
 7479POPC   C1A33231  44.623  35.375   8.553
 7479POPC   D2A33232  44.676  35.351   8.253
 7479POPC   C3A33233  44.659  35.399   7.953
 7479POPC   C4A33234  44.623  35.326   7.653
 7479POPC   C1B33235  44.479  35.569   8.553
 7479POPC   C2B33236  44.509  35.547   8.253
 7479POPC   C3B33237  44.489  35.563   7.953
 7479POPC   C4B33238  44.493  35.568   7.653
 7480POPC   NC333239   2.724   7.388   9.453
 7480POPC   PO433240   2.746   7.427   9.153
 7480POPC   GL133241   2.748   7.463   8.853
 7480POPC   GL233242   2.622   7.457   8.853
 7480POPC   C1A33243   2.764   7.440   8.553
 7480POPC   D2A33244   2.722   7.449   8.253
 7480POPC   C3A33245   2.814   7.452   7.953
 7480POPC   C4A33246   2.724   7.457   7.653
 7480POPC   C1B33247   2.509   7.575   8.553
 7480POPC   C2B33248   2.521   7.493   8.253
 7480POPC   C3B33249   2.513   7.504   7.953
 7480POPC   C4B33250   2.552   7.552   7.653
 7481POPC   NC333251   1.996  19.023   9.453
 7481POPC   PO433252   1.948  19.056   9.153
 7481POPC   GL133253   2.013  19.042   8.853
 7481POPC   GL233254   2.096  19.002   8.853
 7481POPC   C1A33255   2.036  19.048   8.553
 7481POPC   D2A33256   2.011  19.093   8.253
 7481POPC   C3A33257   1.976  19.032   7.953
 7481POPC   C4A33258   2.023  19.033   7.653
 7481POPC   C1B33259   2.185  18.912   8.553
 7481POPC   C2B33260   2.181  18.846   8.253
 7481POPC   C3B33261   2.156  18.891   7.953
 7481POPC   C4B33262   2.178  18.849   7.653
 7482POPC   NC333263  33.752  29.902   9.453
 7482POPC   PO433264  33.812  29.962   9.153
 7482POPC   GL133265  33.814  29.967   8.853
 7482POPC   GL233266  33.648  29.966   8.853
 7482POPC   C1A33267  33.811  29.923   8.553
 7482POPC   D2A33268  33.797  29.918   8.253
 7482POPC   C3A33269  33.792  29.883   7.953
 7482POPC   C4A33270  33.757  29.960   7.653
 7482POPC   C1B33271  33.584  30.030   8.553
 7482POPC   C2B33272  33.539  30.030   8.253
 7482POPC   C3B33273  33.606  30.058   7.953
 7482POPC   C4B33274  33.621  30.058   7.653
 7483POPC   NC333275  20.600  37.680   9.453
 7483POPC   PO433276  20.573  37.708   9.153
 7483POPC   GL133277  20.654  37.700   8.853
 7483POPC   GL233278  20.569  37.731   8.853
 7483POPC   C1A33279  20.570  37.716   8.553
 7483POPC   D2A33280  20.611  37.721   8.253
 7483POPC   C3A33281  20.627  37.658   7.953
 7483POPC   C4A33282  20.643  37.703   7.653
 7483POPC   C1B33283  20.444  37.901   8.553
 7483POPC   C2B33284  20.411  37.831   8.253
 7483POPC   C3B33285  20.420  37.891   7.953
 7483POPC   C4B33286  20.483  37.838   7.653
 7484POPC   NC333287  31.459  39.196   9.453
 7484POPC   PO433288  31.440  39.195   9.153
 7484POPC   GL133289  31.462  39.216   8.853
 7484POPC   GL233290  31.437  39.374   8.853
 7484POPC   C1A33291  31.503  39.263   8.553
 7484POPC   D2A33292  31.481  39.211   8.253
 7484POPC   C3A33293  31.449  39.201   7.953
 7484POPC   C4A33294  31.446  39.232   7.653
 7484POPC   C1B33295  31.450  39.484   8.553
 7484POPC   C2B33296  31.435  39.428   8.253
 7484POPC   C3B33297  31.375  39.522   7.953
 7484POPC   C4B33298  31.375  39.457   7.653
 7485POPC   NC333299  33.024   8.974   9.453
 7485POPC   PO433300  32.979   8.991   9.153
 7485POPC   GL133301  33.001   8.930   8.853
 7485POPC   GL233302  33.060   8.892   8.853
 7485POPC   C1A33303  33.004   8.943   8.553
 7485POPC   D2A33304  33.069   8.963   8.253
 7485POPC   C3A33305  33.073   8.996   7.953
 7485POPC   C4A33306  33.003   8.993   7.653
 7485POPC   C1B33307  33.109   8.717   8.553
 7485POPC   C2B33308  33.065   8.722   8.253
 7485POPC   C3B33309  33.072   8.736   7.953
 7485POPC   C4B33310  33.052   8.773   7.653
 7486POPC   NC333311   9.004  12.068   9.453
 7486POPC   PO433312   8.958  12.103   9.153
 7486POPC   GL133313   8.966  12.072   8.853
 7486POPC   GL233314   8.819  12.179   8.853
 7486POPC   C1A33315   8.925  12.081   8.553
 7486POPC   D2A33316   9.007  12.119   8.253
 7486POPC   C3A33317   9.019  12.078   7.953
 7486POPC   C4A33318   8.966  12.124   7.653
 7486POPC   C1B33319   8.750  12.200   8.553
 7486POPC   C2B33320   8.714  12.191   8.253
 7486POPC   C3B33321   8.787  12.230   7.953
 7486POPC   C4B33322   8.768  12.242   7.653
 7487POPC   NC333323  21.389  19.013   9.453
 7487POPC   PO433324  21.433  19.010   9.153
 7487POPC   GL133325  21.426  19.015   8.853
 7487POPC   GL233326  21.335  18.928   8.853
 7487POPC   C1A33327  21.435  19.101   8.553
 7487POPC   D2A33328  21.369  19.081   8.253
 7487POPC   C3A33329  21.412  19.049   7.953
 7487POPC   C4A33330  21.436  19.065   7.653
 7487POPC   C1B33331  21.360  18.840   8.553
 7487POPC   C2B33332  21.339  18.835   8.253
 7487POPC   C3B33333  21.313  18.786   7.953
 7487POPC   C4B33334  21.313  18.835   7.653
 7488POPC   NC333335  32.272  15.166   9.453
 7488POPC   PO433336  32.199  15.142   9.153
 7488POPC   GL133337  32.261  15.196   8.853
 7488POPC   GL233338  32.379  15.252   8.853
 7488POPC   C1A33339  32.233  15.216   8.553
 7488POPC   D2A33340  32.199  15.150   8.253
 7488POPC   C3A33341  32.289  15.182   7.953
 7488POPC   C4A33342  32.265  15.140   7.653
 7488POPC   C1B33343  32.466  15.293   8.553
 7488POPC   C2B33344  32.497  15.271   8.253
 7488POPC   C3B33345  32.469  15.293   7.953
 7488POPC   C4B33346  32.461  15.266   7.653
 7489POPC   NC333347  44.703  27.595   9.453
 7489POPC   PO433348  44.632  27.633   9.153
 7489POPC   GL133349  44.686  27.622   8.853
 7489POPC   GL233350  44.572  27.503   8.853
 7489POPC   C1A33351  44.635  27.602   8.553
 7489POPC   D2A33352  44.623  27.635   8.253
 7489POPC   C3A33353  44.681  27.563   7.953
 7489POPC   C4A33354  44.624  27.554   7.653
 7489POPC   C1B33355  44.481  27.356   8.553
 7489POPC   C2B33356  44.541  27.441   8.253
 7489POPC   C3B33357  44.553  27.341   7.953
 7489POPC   C4B33358  44.556  27.426   7.653
 7490POPC   NC333359  23.756  14.354   9.453
 7490POPC   PO433360  23.751  14.438   9.153
 7490POPC   GL133361  23.713  14.397   8.853
 7490POPC   GL233362  23.631  14.511   8.853
 7490POPC   C1A33363  23.692  14.361   8.553
 7490POPC   D2A33364  23.744  14.365   8.253
 7490POPC   C3A33365  23.707  14.428   7.953
 7490POPC   C4A33366  23.763  14.389   7.653
 7490POPC   C1B33367  23.587  14.629   8.553
 7490POPC   C2B33368  23.627  14.628   8.253
 7490POPC   C3B33369  23.598  14.585   7.953
 7490POPC   C4B33370  23.632  14.640   7.653
 7491POPC   NC333371  43.855  20.580   9.453
 7491POPC   PO433372  43.863  20.630   9.153
 7491POPC   GL133373  43.917  20.648   8.853
 7491POPC   GL233374  43.790  20.601   8.853
 7491POPC   C1A33375  43.859  20.652   8.553
 7491POPC   D2A33376  43.907  20.611   8.253
 7491POPC   C3A33377  43.922  20.591   7.953
 7491POPC   C4A33378  43.877  20.598   7.653
 7491POPC   C1B33379  43.708  20.493   8.553
 7491POPC   C2B33380  43.712  20.503   8.253
 7491POPC   C3B33381  43.669  20.459   7.953
 7491POPC   C4B33382  43.634  20.487   7.653
 7492POPC   NC333383  42.308  26.068   9.453
 7492POPC   PO433384  42.337  26.036   9.153
 7492POPC   GL133385  42.366  26.073   8.853
 7492POPC   GL233386  42.480  26.085   8.853
 7492POPC   C1A33387  42.355  26.022   8.553
 7492POPC   D2A33388  42.351  26.088   8.253
 7492POPC   C3A33389  42.304  26.054   7.953
 7492POPC   C4A33390  42.371  26.054   7.653
 7492POPC   C1B33391  42.566  26.018   8.553
 7492POPC   C2B33392  42.625  26.021   8.253
 7492POPC   C3B33393  42.565  26.106   7.953
 7492POPC   C4B33394  42.615  26.059   7.653
 7493POPC   NC333395  28.340  19.872   9.453
 7493POPC   PO433396  28.382  19.790   9.153
 7493POPC   GL133397  28.319  19.879   8.853
 7493POPC   GL233398  28.516  19.837   8.853
 7493POPC   C1A33399  28.347  19.857   8.553
 7493POPC   D2A33400  28.384  19.825   8.253
 7493POPC   C3A33401  28.347  19.808   7.953
 7493POPC   C4A33402  28.361  19.799   7.653
 7493POPC   C1B33403  28.641  19.735   8.553
 7493POPC   C2B33404  28.660  19.808   8.253
 7493POPC   C3B33405  28.598  19.815   7.953
 7493POPC   C4B33406  28.589  19.772   7.653
 7494POPC   NC333407   5.894  28.351   9.453
 7494POPC   PO433408   5.866  28.365   9.153
 7494POPC   GL133409   5.892  28.328   8.853
 7494POPC   GL233410   5.806  28.331   8.853
 7494POPC   C1A33411   5.906  28.362   8.553
 7494POPC   D2A33412   5.846  28.363   8.253
 7494POPC   C3A33413   5.890  28.411   7.953
 7494POPC   C4A33414   5.879  28.331   7.653
 7494POPC   C1B33415   5.685  28.203   8.553
 7494POPC   C2B33416   5.601  28.240   8.253
 7494POPC   C3B33417   5.617  28.286   7.953
 7494POPC   C4B33418   5.606  28.234   7.653
 7495POPC   NC333419  15.217  22.970   9.453
 7495POPC   PO433420  15.218  22.953   9.153
 7495POPC   GL133421  15.147  22.946   8.853
 7495POPC   GL233422  15.265  23.049   8.853
 7495POPC   C1A33423  15.203  22.953   8.553
 7495POPC   D2A33424  15.212  22.920   8.253
 7495POPC   C3A33425  15.140  22.984   7.953
 7495POPC   C4A33426  15.148  22.926   7.653
 7495POPC   C1B33427  15.418  23.100   8.553
 7495POPC   C2B33428  15.334  23.049   8.253
 7495POPC   C3B33429  15.415  23.118   7.953
 7495POPC   C4B33430  15.391  23.082   7.653
 7496POPC   NC333431   6.662   5.124   9.453
 7496POPC   PO433432   6.604   5.074   9.153
 7496POPC   GL133433   6.635   5.074   8.853
 7496POPC   GL233434   6.583   5.249   8.853
 7496POPC   C1A33435   6.619   5.065   8.553
 7496POPC   D2A33436   6.636   5.106   8.253
 7496POPC   C3A33437   6.684   5.076   7.953
 7496POPC   C4A33438   6.658   5.047   7.653
 7496POPC   C1B33439   6.597   5.348   8.553
 7496POPC   C2B33440   6.582   5.367   8.253
 7496POPC   C3B33441   6.600   5.332   7.953
 7496POPC   C4B33442   6.582   5.389   7.653
 7497POPC   NC333443  33.771  31.446   9.453
 7497POPC   PO433444  33.778  31.464   9.153
 7497POPC   GL133445  33.796  31.488   8.853
 7497POPC   GL233446  33.795  31.605   8.853
 7497POPC   C1A33447  33.769  31.510   8.553
 7497POPC   D2A33448  33.799  31.449   8.253
 7497POPC   C3A33449  33.830  31.483   7.953
 7497POPC   C4A33450  33.783  31.478   7.653
 7497POPC   C1B33451  33.688  31.691   8.553
 7497POPC   C2B33452  33.708  31.730   8.253
 7497POPC   C3B33453  33.749  31.701   7.953
 7497POPC   C4B33454  33.702  31.671   7.653
 7498POPC   NC333455   9.700  12.862   9.453
 7498POPC   PO433456   9.757  12.902   9.153
 7498POPC   GL133457   9.758  12.874   8.853
 7498POPC   GL233458   9.883  12.824   8.853
 7498POPC   C1A33459   9.710  12.855   8.553
 7498POPC   D2A33460   9.701  12.844   8.253
 7498POPC   C3A33461   9.719  12.809   7.953
 7498POPC   C4A33462   9.699  12.879   7.653
 7498POPC   C1B33463   9.972  12.779   8.553
 7498POPC   C2B33464   9.975  12.808   8.253
 7498POPC   C3B33465  10.026  12.726   7.953
 7498POPC   C4B33466  10.021  12.791   7.653
 7499POPC   NC333467  27.604  19.787   9.453
 7499POPC   PO433468  27.623  19.834   9.153
 7499POPC   GL133469  27.597  19.850   8.853
 7499POPC   GL233470  27.711  19.901   8.853
 7499POPC   C1A33471  27.559  19.789   8.553
 7499POPC   D2A33472  27.581  19.846   8.253
 7499POPC   C3A33473  27.592  19.793   7.953
 7499POPC   C4A33474  27.634  19.830   7.653
 7499POPC   C1B33475  27.819  19.977   8.553
 7499POPC   C2B33476  27.784  20.029   8.253
 7499POPC   C3B33477  27.810  19.988   7.953
 7499POPC   C4B33478  27.804  19.977   7.653
 7500POPC   NC333479  37.691  37.688   9.453
 7500POPC   PO433480  37.721  37.726   9.153
 7500POPC   GL133481  37.702  37.662   8.853
 7500POPC   GL233482  37.780  37.740   8.853
 7500POPC   C1A33483  37.682  37.646   8.553
 7500POPC   D2A33484  37.666  37.634   8.253
 7500POPC   C3A33485  37.680  37.712   7.953
 7500POPC   C4A33486  37.666  37.685   7.653
 7500POPC   C1B33487  37.919  37.750   8.553
 7500POPC   C2B33488  37.857  37.777   8.253
 7500POPC   C3B33489  37.923  37.826   7.953
 7500POPC   C4B33490  37.926  37.754   7.653
 7501POPC   NC333491   5.109  14.380   9.453
 7501POPC   PO433492   5.061  14.442   9.153
 7501POPC   GL133493   5.049  14.354   8.853
 7501POPC   GL233494   5.225  14.373   8.853
 7501POPC   C1A33495   5.142  14.421   8.553
 7501POPC   D2A33496   5.086  14.366   8.253
 7501POPC   C3A33497   5.084  14.413   7.953
 7501POPC   C4A33498   5.091  14.400   7.653
 7501POPC   C1B33499   5.281  14.259   8.553
 7501POPC   C2B33500   5.272  14.301   8.253
 7501POPC   C3B33501   5.258  14.249   7.953
 7501POPC   C4B33502   5.278  14.286   7.653
 7502POPC   NC333503  31.443  17.482   9.453
 7502POPC   PO433504  31.427  17.459   9.153
 7502POPC   GL133505  31.444  17.461   8.853
 7502POPC   GL233506  31.340  17.533   8.853
 7502POPC   C1A33507  31.489  17.549   8.553
 7502POPC   D2A33508  31.423  17.480   8.253
 7502POPC   C3A33509  31.518  17.541   7.953
 7502POPC   C4A33510  31.438  17.470   7.653
 7502POPC   C1B33511  31.267  17.531   8.553
 7502POPC   C2B33512  31.203  17.566   8.253
 7502POPC   C3B33513  31.263  17.557   7.953
 7502POPC   C4B33514  31.269  17.488   7.653
 7503POPC   NC333515  24.521  40.801   9.453
 7503POPC   PO433516  24.538  40.802   9.153
 7503POPC   GL133517  24.510  40.742   8.853
 7503POPC   GL233518  24.624  40.679   8.853
 7503POPC   C1A33519  24.505  40.779   8.553
 7503POPC   D2A33520  24.527  40.751   8.253
 7503POPC   C3A33521  24.472  40.832   7.953
 7503POPC   C4A33522  24.458  40.758   7.653
 7503POPC   C1B33523  24.723  40.644   8.553
 7503POPC   C2B33524  24.644  40.630   8.253
 7503POPC   C3B33525  24.655  40.583   7.953
 7503POPC   C4B33526  24.662  40.586   7.653
 7504POPC   NC333527  12.884  36.941   9.453
 7504POPC   PO433528  12.808  36.867   9.153
 7504POPC   GL133529  12.848  36.921   8.853
 7504POPC   GL233530  12.975  37.008   8.853
 7504POPC   C1A33531  12.856  36.953   8.553
 7504POPC   D2A33532  12.895  36.922   8.253
 7504POPC   C3A33533  12.847  36.940   7.953
 7504POPC   C4A33534  12.888  36.941   7.653
 7504POPC   C1B33535  13.072  37.059   8.553
 7504POPC   C2B33536  12.989  37.127   8.253
 7504POPC   C3B33537  12.976  37.115   7.953
 7504POPC   C4B33538  13.039  37.091   7.653
 7505POPC   NC333539  12.834  19.066   9.453
 7505POPC   PO433540  12.884  19.080   9.153
 7505POPC   GL133541  12.877  19.103   8.853
 7505POPC   GL233542  12.965  19.088   8.853
 7505POPC   C1A33543  12.844  19.022   8.553
 7505POPC   D2A33544  12.881  19.107   8.253
 7505POPC   C3A33545  12.815  19.069   7.953
 7505POPC   C4A33546  12.814  19.073   7.653
 7505POPC   C1B33547  13.095  19.191   8.553
 7505POPC   C2B33548  13.025  19.228   8.253
 7505POPC   C3B33549  13.070  19.200   7.953
 7505POPC   C4B33550  13.019  19.216   7.653
 7506POPC   NC333551  42.380  10.545   9.453
 7506POPC   PO433552  42.353  10.560   9.153
 7506POPC   GL133553  42.298  10.547   8.853
 7506POPC   GL233554  42.354  10.619   8.853
 7506POPC   C1A33555  42.304  10.537   8.553
 7506POPC   D2A33556  42.316  10.545   8.253
 7506POPC   C3A33557  42.371  10.544   7.953
 7506POPC   C4A33558  42.342  10.491   7.653
 7506POPC   C1B33559  42.399  10.800   8.553
 7506POPC   C2B33560  42.429  10.732   8.253
 7506POPC   C3B33561  42.408  10.788   7.953
 7506POPC   C4B33562  42.442  10.796   7.653
 7507POPC   NC333563  18.326  22.945   9.453
 7507POPC   PO433564  18.273  22.897   9.153
 7507POPC   GL133565  18.263  22.920   8.853
 7507POPC   GL233566  18.258  22.806   8.853
 7507POPC   C1A33567  18.279  22.902   8.553
 7507POPC   D2A33568  18.302  22.970   8.253
 7507POPC   C3A33569  18.293  22.976   7.953
 7507POPC   C4A33570  18.237  22.951   7.653
 7507POPC   C1B33571  18.167  22.760   8.553
 7507POPC   C2B33572  18.105  22.704   8.253
 7507POPC   C3B33573  18.142  22.757   7.953
 7507POPC   C4B33574  18.089  22.786   7.653
 7508POPC   NC333575  37.713  43.129   9.453
 7508POPC   PO433576  37.645  43.145   9.153
 7508POPC   GL133577  37.655  43.077   8.853
 7508POPC   GL233578  37.658  43.218   8.853
 7508POPC   C1A33579  37.670  43.074   8.553
 7508POPC   D2A33580  37.697  43.110   8.253
 7508POPC   C3A33581  37.683  43.095   7.953
 7508POPC   C4A33582  37.643  43.093   7.653
 7508POPC   C1B33583  37.506  43.336   8.553
 7508POPC   C2B33584  37.537  43.351   8.253
 7508POPC   C3B33585  37.544  43.352   7.953
 7508POPC   C4B33586  37.538  43.364   7.653
 7509POPC   NC333587  11.261  23.705   9.453
 7509POPC   PO433588  11.274  23.695   9.153
 7509POPC   GL133589  11.289  23.721   8.853
 7509POPC   GL233590  11.251  23.628   8.853
 7509POPC   C1A33591  11.321  23.713   8.553
 7509POPC   D2A33592  11.279  23.724   8.253
 7509POPC   C3A33593  11.308  23.687   7.953
 7509POPC   C4A33594  11.308  23.744   7.653
 7509POPC   C1B33595  11.151  23.561   8.553
 7509POPC   C2B33596  11.159  23.536   8.253
 7509POPC   C3B33597  11.141  23.510   7.953
 7509POPC   C4B33598  11.092  23.508   7.653
 7510POPC   NC333599   0.424  19.850   9.453
 7510POPC   PO433600   0.427  19.863   9.153
 7510POPC   GL133601   0.436  19.834   8.853
 7510POPC   GL233602   0.395  19.956   8.853
 7510POPC   C1A33603   0.466  19.844   8.553
 7510POPC   D2A33604   0.454  19.808   8.253
 7510POPC   C3A33605   0.468  19.820   7.953
 7510POPC   C4A33606   0.453  19.858   7.653
 7510POPC   C1B33607   0.431  20.082   8.553
 7510POPC   C2B33608   0.478  20.133   8.253
 7510POPC   C3B33609   0.432  20.124   7.953
 7510POPC   C4B33610   0.404  20.045   7.653
 7511POPC   NC333611   8.180  44.626   9.453
 7511POPC   PO433612   8.222  44.688   9.153
 7511POPC   GL133613   8.181  44.659   8.853
 7511POPC   GL233614   8.125  44.523   8.853
 7511POPC   C1A33615   8.158  44.624   8.553
 7511POPC   D2A33616   8.209  44.654   8.253
 7511POPC   C3A33617   8.172  44.701   7.953
 7511POPC   C4A33618   8.156  44.703   7.653
 7511POPC   C1B33619   8.115  44.416   8.553
 7511POPC   C2B33620   8.141  44.462   8.253
 7511POPC   C3B33621   8.145  44.460   7.953
 7511POPC   C4B33622   8.113  44.385   7.653
 7512POPC   NC333623  29.959  15.955   9.453
 7512POPC   PO433624  29.911  15.922   9.153
 7512POPC   GL133625  29.948  15.916   8.853
 7512POPC   GL233626  30.074  15.924   8.853
 7512POPC   C1A33627  29.929  15.922   8.553
 7512POPC   D2A33628  29.892  15.921   8.253
 7512POPC   C3A33629  29.949  15.997   7.953
 7512POPC   C4A33630  29.901  15.930   7.653
 7512POPC   C1B33631  30.125  15.939   8.553
 7512POPC   C2B33632  30.136  15.954   8.253
 7512POPC   C3B33633  30.208  15.929   7.953
 7512POPC   C4B33634  30.146  15.949   7.653
 7513POPC   NC333635   5.111  10.524   9.453
 7513POPC   PO433636   5.122  10.527   9.153
 7513POPC   GL133637   5.069  10.555   8.853
 7513POPC   GL233638   5.098  10.383   8.853
 7513POPC   C1A33639   5.061  10.537   8.553
 7513POPC   D2A33640   5.127  10.521   8.253
 7513POPC   C3A33641   5.134  10.479   7.953
 7513POPC   C4A33642   5.053  10.530   7.653
 7513POPC   C1B33643   5.216  10.257   8.553
 7513POPC   C2B33644   5.166  10.312   8.253
 7513POPC   C3B33645   5.203  10.280   7.953
 7513POPC   C4B33646   5.142  10.252   7.653
 7514POPC   NC333647  22.977  12.859   9.453
 7514POPC   PO433648  22.939  12.876   9.153
 7514POPC   GL133649  22.953  12.864   8.853
 7514POPC   GL233650  22.789  12.942   8.853
 7514POPC   C1A33651  22.904  12.834   8.553
 7514POPC   D2A33652  22.958  12.810   8.253
 7514POPC   C3A33653  22.935  12.902   7.953
 7514POPC   C4A33654  22.934  12.807   7.653
 7514POPC   C1B33655  22.705  12.948   8.553
 7514POPC   C2B33656  22.751  12.922   8.253
 7514POPC   C3B33657  22.690  12.923   7.953
 7514POPC   C4B33658  22.742  12.994   7.653
 7515POPC   NC333659  26.063  17.523   9.453
 7515POPC   PO433660  26.060  17.485   9.153
 7515POPC   GL133661  26.013  17.484   8.853
 7515POPC   GL233662  26.117  17.441   8.853
 7515POPC   C1A33663  26.016  17.464   8.553
 7515POPC   D2A33664  26.066  17.510   8.253
 7515POPC   C3A33665  26.064  17.482   7.953
 7515POPC   C4A33666  26.086  17.475   7.653
 7515POPC   C1B33667  26.299  17.484   8.553
 7515POPC   C2B33668  26.277  17.505   8.253
 7515POPC   C3B33669  26.284  17.503   7.953
 7515POPC   C4B33670  26.322  17.437   7.653
 7516POPC   NC333671  36.892   8.205   9.453
 7516POPC   PO433672  36.867   8.236   9.153
 7516POPC   GL133673  36.888   8.223   8.853
 7516POPC   GL233674  36.865   8.102   8.853
 7516POPC   C1A33675  36.878   8.197   8.553
 7516POPC   D2A33676  36.940   8.193   8.253
 7516POPC   C3A33677  36.904   8.170   7.953
 7516POPC   C4A33678  36.925   8.216   7.653
 7516POPC   C1B33679  36.839   7.946   8.553
 7516POPC   C2B33680  36.893   7.987   8.253
 7516POPC   C3B33681  36.828   7.948   7.953
 7516POPC   C4B33682  36.814   7.968   7.653
 7517POPC   NC333683  14.369  25.995   9.453
 7517POPC   PO433684  14.450  25.995   9.153
 7517POPC   GL133685  14.394  25.993   8.853
 7517POPC   GL233686  14.251  26.045   8.853
 7517POPC   C1A33687  14.400  26.030   8.553
 7517POPC   D2A33688  14.432  26.015   8.253
 7517POPC   C3A33689  14.370  26.003   7.953
 7517POPC   C4A33690  14.446  26.046   7.653
 7517POPC   C1B33691  14.188  25.935   8.553
 7517POPC   C2B33692  14.159  25.973   8.253
 7517POPC   C3B33693  14.131  25.965   7.953
 7517POPC   C4B33694  14.176  25.988   7.653
 7518POPC   NC333695  12.039  11.320   9.453
 7518POPC   PO433696  12.046  11.332   9.153
 7518POPC   GL133697  12.035  11.341   8.853
 7518POPC   GL233698  11.989  11.172   8.853
 7518POPC   C1A33699  12.124  11.302   8.553
 7518POPC   D2A33700  12.126  11.329   8.253
 7518POPC   C3A33701  12.080  11.276   7.953
 7518POPC   C4A33702  12.080  11.340   7.653
 7518POPC   C1B33703  11.963  11.045   8.553
 7518POPC   C2B33704  11.946  11.069   8.253
 7518POPC   C3B33705  12.009  11.116   7.953
 7518POPC   C4B33706  11.955  11.065   7.653
 7519POPC   NC333707  35.367  41.544   9.453
 7519POPC   PO433708  35.373  41.519   9.153
 7519POPC   GL133709  35.389  41.541   8.853
 7519POPC   GL233710  35.503  41.574   8.853
 7519POPC   C1A33711  35.328  41.569   8.553
 7519POPC   D2A33712  35.353  41.572   8.253
 7519POPC   C3A33713  35.381  41.597   7.953
 7519POPC   C4A33714  35.397  41.568   7.653
 7519POPC   C1B33715  35.546  41.689   8.553
 7519POPC   C2B33716  35.544  41.665   8.253
 7519POPC   C3B33717  35.603  41.625   7.953
 7519POPC   C4B33718  35.564  41.611   7.653
 7520POPC   NC333719  16.757  37.663   9.453
 7520POPC   PO433720  16.684  37.676   9.153
 7520POPC   GL133721  16.752  37.634   8.853
 7520POPC   GL233722  16.666  37.597   8.853
 7520POPC   C1A33723  16.777  37.673   8.553
 7520POPC   D2A33724  16.697  37.640   8.253
 7520POPC   C3A33725  16.771  37.677   7.953
 7520POPC   C4A33726  16.762  37.661   7.653
 7520POPC   C1B33727  16.610  37.458   8.553
 7520POPC   C2B33728  16.542  37.521   8.253
 7520POPC   C3B33729  16.537  37.452   7.953
 7520POPC   C4B33730  16.545  37.459   7.653
 7521POPC   NC333731  14.362  19.836   9.453
 7521POPC   PO433732  14.453  19.823   9.153
 7521POPC   GL133733  14.403  19.808   8.853
 7521POPC   GL233734  14.555  19.897   8.853
 7521POPC   C1A33735  14.367  19.800   8.553
 7521POPC   D2A33736  14.425  19.858   8.253
 7521POPC   C3A33737  14.373  19.853   7.953
 7521POPC   C4A33738  14.404  19.816   7.653
 7521POPC   C1B33739  14.665  19.951   8.553
 7521POPC   C2B33740  14.643  19.869   8.253
 7521POPC   C3B33741  14.693  19.873   7.953
 7521POPC   C4B33742  14.594  19.900   7.653
 7522POPC   NC333743   1.973  43.871   9.453
 7522POPC   PO433744   2.031  43.877   9.153
 7522POPC   GL133745   1.952  43.899   8.853
 7522POPC   GL233746   2.068  43.799   8.853
 7522POPC   C1A33747   1.940  43.915   8.553
 7522POPC   D2A33748   2.015  43.888   8.253
 7522POPC   C3A33749   2.015  43.875   7.953
 7522POPC   C4A33750   1.956  43.851   7.653
 7522POPC   C1B33751   2.163  43.786   8.553
 7522POPC   C2B33752   2.213  43.708   8.253
 7522POPC   C3B33753   2.181  43.695   7.953
 7522POPC   C4B33754   2.171  43.705   7.653
 7523POPC   NC333755  43.088  39.963   9.453
 7523POPC   PO433756  43.139  40.047   9.153
 7523POPC   GL133757  43.073  40.041   8.853
 7523POPC   GL233758  43.187  40.009   8.853
 7523POPC   C1A33759  43.090  40.015   8.553
 7523POPC   D2A33760  43.133  40.015   8.253
 7523POPC   C3A33761  43.157  39.992   7.953
 7523POPC   C4A33762  43.087  39.983   7.653
 7523POPC   C1B33763  43.361  39.997   8.553
 7523POPC   C2B33764  43.393  40.025   8.253
 7523POPC   C3B33765  43.410  40.019   7.953
 7523POPC   C4B33766  43.333  40.030   7.653
 7524POPC   NC333767  24.503  29.110   9.453
 7524POPC   PO433768  24.518  29.126   9.153
 7524POPC   GL133769  24.491  29.169   8.853
 7524POPC   GL233770  24.356  29.229   8.853
 7524POPC   C1A33771  24.513  29.137   8.553
 7524POPC   D2A33772  24.523  29.171   8.253
 7524POPC   C3A33773  24.462  29.150   7.953
 7524POPC   C4A33774  24.525  29.107   7.653
 7524POPC   C1B33775  24.240  29.305   8.553
 7524POPC   C2B33776  24.333  29.339   8.253
 7524POPC   C3B33777  24.327  29.253   7.953
 7524POPC   C4B33778  24.309  29.286   7.653
 7525POPC   NC333779  34.536  26.033   9.453
 7525POPC   PO433780  34.587  26.025   9.153
 7525POPC   GL133781  34.596  26.054   8.853
 7525POPC   GL233782  34.541  25.947   8.853
 7525POPC   C1A33783  34.620  26.071   8.553
 7525POPC   D2A33784  34.625  26.006   8.253
 7525POPC   C3A33785  34.563  26.004   7.953
 7525POPC   C4A33786  34.599  25.994   7.653
 7525POPC   C1B33787  34.491  25.817   8.553
 7525POPC   C2B33788  34.537  25.797   8.253
 7525POPC   C3B33789  34.498  25.768   7.953
 7525POPC   C4B33790  34.488  25.805   7.653
 7526POPC   NC333791  32.246  39.261   9.453
 7526POPC   PO433792  32.214  39.195   9.153
 7526POPC   GL133793  32.202  39.264   8.853
 7526POPC   GL233794  32.321  39.165   8.853
 7526POPC   C1A33795  32.237  39.191   8.553
 7526POPC   D2A33796  32.208  39.237   8.253
 7526POPC   C3A33797  32.248  39.258   7.953
 7526POPC   C4A33798  32.200  39.236   7.653
 7526POPC   C1B33799  32.439  39.051   8.553
 7526POPC   C2B33800  32.357  39.017   8.253
 7526POPC   C3B33801  32.360  39.065   7.953
 7526POPC   C4B33802  32.392  39.032   7.653
 7527POPC   NC333803  11.310  29.939   9.453
 7527POPC   PO433804  11.253  29.951   9.153
 7527POPC   GL133805  11.345  29.908   8.853
 7527POPC   GL233806  11.302  30.022   8.853
 7527POPC   C1A33807  11.291  29.908   8.553
 7527POPC   D2A33808  11.308  29.932   8.253
 7527POPC   C3A33809  11.333  29.944   7.953
 7527POPC   C4A33810  11.322  29.922   7.653
 7527POPC   C1B33811  11.251  30.175   8.553
 7527POPC   C2B33812  11.272  30.133   8.253
 7527POPC   C3B33813  11.237  30.121   7.953
 7527POPC   C4B33814  11.210  30.200   7.653
 7528POPC   NC333815  33.841  30.669   9.453
 7528POPC   PO433816  33.844  30.692   9.153
 7528POPC   GL133817  33.825  30.689   8.853
 7528POPC   GL233818  33.795  30.795   8.853
 7528POPC   C1A33819  33.810  30.699   8.553
 7528POPC   D2A33820  33.840  30.692   8.253
 7528POPC   C3A33821  33.755  30.746   7.953
 7528POPC   C4A33822  33.845  30.670   7.653
 7528POPC   C1B33823  33.648  30.879   8.553
 7528POPC   C2B33824  33.672  30.877   8.253
 7528POPC   C3B33825  33.725  30.943   7.953
 7528POPC   C4B33826  33.677  30.938   7.653
 7529POPC   NC333827  11.323  35.371   9.453
 7529POPC   PO433828  11.348  35.370   9.153
 7529POPC   GL133829  11.321  35.336   8.853
 7529POPC   GL233830  11.442  35.269   8.853
 7529POPC   C1A33831  11.261  35.329   8.553
 7529POPC   D2A33832  11.339  35.379   8.253
 7529POPC   C3A33833  11.327  35.399   7.953
 7529POPC   C4A33834  11.341  35.380   7.653
 7529POPC   C1B33835  11.474  35.195   8.553
 7529POPC   C2B33836  11.501  35.223   8.253
 7529POPC   C3B33837  11.546  35.184   7.953
 7529POPC   C4B33838  11.478  35.189   7.653
 7530POPC   NC333839  16.728   1.943   9.453
 7530POPC   PO433840  16.742   1.987   9.153
 7530POPC   GL133841  16.741   1.963   8.853
 7530POPC   GL233842  16.586   1.957   8.853
 7530POPC   C1A33843  16.742   2.002   8.553
 7530POPC   D2A33844  16.740   1.980   8.253
 7530POPC   C3A33845  16.739   1.999   7.953
 7530POPC   C4A33846  16.777   1.979   7.653
 7530POPC   C1B33847  16.454   1.961   8.553
 7530POPC   C2B33848  16.474   2.016   8.253
 7530POPC   C3B33849  16.490   2.028   7.953
 7530POPC   C4B33850  16.525   1.972   7.653
 7531POPC   NC333851  12.060  43.084   9.453
 7531POPC   PO433852  12.088  43.108   9.153
 7531POPC   GL133853  12.043  43.143   8.853
 7531POPC   GL233854  12.041  43.216   8.853
 7531POPC   C1A33855  12.026  43.120   8.553
 7531POPC   D2A33856  12.123  43.101   8.253
 7531POPC   C3A33857  12.043  43.105   7.953
 7531POPC   C4A33858  12.048  43.079   7.653
 7531POPC   C1B33859  12.036  43.328   8.553
 7531POPC   C2B33860  12.069  43.351   8.253
 7531POPC   C3B33861  12.045  43.324   7.953
 7531POPC   C4B33862  12.071  43.368   7.653
 7532POPC   NC333863  23.669  17.494   9.453
 7532POPC   PO433864  23.679  17.469   9.153
 7532POPC   GL133865  23.734  17.491   8.853
 7532POPC   GL233866  23.726  17.368   8.853
 7532POPC   C1A33867  23.754  17.470   8.553
 7532POPC   D2A33868  23.760  17.551   8.253
 7532POPC   C3A33869  23.667  17.543   7.953
 7532POPC   C4A33870  23.738  17.463   7.653
 7532POPC   C1B33871  23.844  17.252   8.553
 7532POPC   C2B33872  23.851  17.246   8.253
 7532POPC   C3B33873  23.823  17.302   7.953
 7532POPC   C4B33874  23.827  17.269   7.653
 7533POPC   NC333875   0.439  13.582   9.453
 7533POPC   PO433876   0.410  13.588   9.153
 7533POPC   GL133877   0.395  13.646   8.853
 7533POPC   GL233878   0.276  13.606   8.853
 7533POPC   C1A33879   0.421  13.674   8.553
 7533POPC   D2A33880   0.484  13.660   8.253
 7533POPC   C3A33881   0.470  13.579   7.953
 7533POPC   C4A33882   0.462  13.581   7.653
 7533POPC   C1B33883   0.144  13.608   8.553
 7533POPC   C2B33884   0.229  13.557   8.253
 7533POPC   C3B33885   0.216  13.586   7.953
 7533POPC   C4B33886   0.179  13.548   7.653
 7534POPC   NC333887  43.864  34.588   9.453
 7534POPC   PO433888  43.910  34.553   9.153
 7534POPC   GL133889  43.922  34.567   8.853
 7534POPC   GL233890  43.877  34.491   8.853
 7534POPC   C1A33891  43.905  34.611   8.553
 7534POPC   D2A33892  43.856  34.586   8.253
 7534POPC   C3A33893  43.871  34.537   7.953
 7534POPC   C4A33894  43.915  34.580   7.653
 7534POPC   C1B33895  43.825  34.373   8.553
 7534POPC   C2B33896  43.768  34.296   8.253
 7534POPC   C3B33897  43.773  34.319   7.953
 7534POPC   C4B33898  43.816  34.299   7.653
 7535POPC   NC333899  42.312  41.527   9.453
 7535POPC   PO433900  42.293  41.521   9.153
 7535POPC   GL133901  42.365  41.518   8.853
 7535POPC   GL233902  42.182  41.566   8.853
 7535POPC   C1A33903  42.372  41.528   8.553
 7535POPC   D2A33904  42.324  41.570   8.253
 7535POPC   C3A33905  42.334  41.587   7.953
 7535POPC   C4A33906  42.328  41.597   7.653
 7535POPC   C1B33907  42.115  41.644   8.553
 7535POPC   C2B33908  42.043  41.571   8.253
 7535POPC   C3B33909  42.108  41.627   7.953
 7535POPC   C4B33910  42.077  41.552   7.653
 7536POPC   NC333911  16.684  38.441   9.453
 7536POPC   PO433912  16.749  38.460   9.153
 7536POPC   GL133913  16.682  38.469   8.853
 7536POPC   GL233914  16.617  38.371   8.853
 7536POPC   C1A33915  16.762  38.485   8.553
 7536POPC   D2A33916  16.749  38.459   8.253
 7536POPC   C3A33917  16.758  38.415   7.953
 7536POPC   C4A33918  16.718  38.493   7.653
 7536POPC   C1B33919  16.567  38.277   8.553
 7536POPC   C2B33920  16.582  38.304   8.253
 7536POPC   C3B33921  16.556  38.264   7.953
 7536POPC   C4B33922  16.568  38.219   7.653
 7537POPC   NC333923  14.371   2.778   9.453
 7537POPC   PO433924  14.362   2.726   9.153
 7537POPC   GL133925  14.378   2.773   8.853
 7537POPC   GL233926  14.467   2.656   8.853
 7537POPC   C1A33927  14.433   2.725   8.553
 7537POPC   D2A33928  14.376   2.739   8.253
 7537POPC   C3A33929  14.354   2.764   7.953
 7537POPC   C4A33930  14.364   2.734   7.653
 7537POPC   C1B33931  14.574   2.622   8.553
 7537POPC   C2B33932  14.558   2.645   8.253
 7537POPC   C3B33933  14.611   2.559   7.953
 7537POPC   C4B33934  14.631   2.628   7.653
 7538POPC   NC333935  43.089  21.344   9.453
 7538POPC   PO433936  43.086  21.436   9.153
 7538POPC   GL133937  43.088  21.397   8.853
 7538POPC   GL233938  43.004  21.320   8.853
 7538POPC   C1A33939  43.146  21.389   8.553
 7538POPC   D2A33940  43.100  21.428   8.253
 7538POPC   C3A33941  43.067  21.433   7.953
 7538POPC   C4A33942  43.152  21.389   7.653
 7538POPC   C1B33943  42.852  21.327   8.553
 7538POPC   C2B33944  42.852  21.323   8.253
 7538POPC   C3B33945  42.830  21.335   7.953
 7538POPC   C4B33946  42.903  21.308   7.653
 7539POPC   NC333947  29.905  27.626   9.453
 7539POPC   PO433948  29.932  27.562   9.153
 7539POPC   GL133949  29.945  27.548   8.853
 7539POPC   GL233950  30.034  27.583   8.853
 7539POPC   C1A33951  29.873  27.575   8.553
 7539POPC   D2A33952  29.969  27.571   8.253
 7539POPC   C3A33953  29.943  27.578   7.953
 7539POPC   C4A33954  29.900  27.626   7.653
 7539POPC   C1B33955  30.161  27.598   8.553
 7539POPC   C2B33956  30.183  27.570   8.253
 7539POPC   C3B33957  30.153  27.607   7.953
 7539POPC   C4B33958  30.218  27.588   7.653
 7540POPC   NC333959  26.794  43.879   9.453
 7540POPC   PO433960  26.780  43.910   9.153
 7540POPC   GL133961  26.837  43.889   8.853
 7540POPC   GL233962  26.918  43.898   8.853
 7540POPC   C1A33963  26.864  43.871   8.553
 7540POPC   D2A33964  26.816  43.885   8.253
 7540POPC   C3A33965  26.836  43.919   7.953
 7540POPC   C4A33966  26.838  43.860   7.653
 7540POPC   C1B33967  27.063  43.820   8.553
 7540POPC   C2B33968  27.099  43.852   8.253
 7540POPC   C3B33969  27.020  43.837   7.953
 7540POPC   C4B33970  27.093  43.837   7.653
 7541POPC   NC333971  29.955   1.173   9.453
 7541POPC   PO433972  29.942   1.178   9.153
 7541POPC   GL133973  29.901   1.247   8.853
 7541POPC   GL233974  30.015   1.118   8.853
 7541POPC   C1A33975  29.942   1.260   8.553
 7541POPC   D2A33976  29.889   1.212   8.253
 7541POPC   C3A33977  29.879   1.210   7.953
 7541POPC   C4A33978  29.900   1.204   7.653
 7541POPC   C1B33979  30.060   0.952   8.553
 7541POPC   C2B33980  30.051   0.969   8.253
 7541POPC   C3B33981  30.002   0.941   7.953
 7541POPC   C4B33982  30.044   0.999   7.653
 7542POPC   NC333983   7.401  27.634   9.453
 7542POPC   PO433984   7.410  27.603   9.153
 7542POPC   GL133985   7.373  27.570   8.853
 7542POPC   GL233986   7.457  27.481   8.853
 7542POPC   C1A33987   7.434  27.562   8.553
 7542POPC   D2A33988   7.404  27.557   8.253
 7542POPC   C3A33989   7.401  27.640   7.953
 7542POPC   C4A33990   7.389  27.599   7.653
 7542POPC   C1B33991   7.516  27.387   8.553
 7542POPC   C2B33992   7.571  27.398   8.253
 7542POPC   C3B33993   7.522  27.347   7.953
 7542POPC   C4B33994   7.539  27.365   7.653
 7543POPC   NC333995   1.258  40.033   9.453
 7543POPC   PO433996   1.164  40.012   9.153
 7543POPC   GL133997   1.180  39.989   8.853
 7543POPC   GL233998   1.142  40.166   8.853
 7543POPC   C1A33999   1.217  40.021   8.553
 7543POPC   D2A34000   1.173  40.025   8.253
 7543POPC   C3A34001   1.195  40.000   7.953
 7543POPC   C4A34002   1.220  39.980   7.653
 7543POPC   C1B34003   1.131  40.267   8.553
 7543POPC   C2B34004   1.121  40.254   8.253
 7543POPC   C3B34005   1.138  40.217   7.953
 7543POPC   C4B34006   1.138  40.269   7.653
 7544POPC   NC334007  22.934  33.838   9.453
 7544POPC   PO434008  22.954  33.800   9.153
 7544POPC   GL134009  22.893  33.842   8.853
 7544POPC   GL234010  22.980  33.931   8.853
 7544POPC   C1A34011  22.942  33.779   8.553
 7544POPC   D2A34012  22.921  33.809   8.253
 7544POPC   C3A34013  22.985  33.776   7.953
 7544POPC   C4A34014  22.953  33.780   7.653
 7544POPC   C1B34015  22.993  34.033   8.553
 7544POPC   C2B34016  22.960  34.054   8.253
 7544POPC   C3B34017  23.023  34.023   7.953
 7544POPC   C4B34018  23.013  34.071   7.653
 7545POPC   NC334019   9.744  18.290   9.453
 7545POPC   PO434020   9.762  18.316   9.153
 7545POPC   GL134021   9.782  18.285   8.853
 7545POPC   GL234022   9.659  18.324   8.853
 7545POPC   C1A34023   9.718  18.270   8.553
 7545POPC   D2A34024   9.763  18.263   8.253
 7545POPC   C3A34025   9.796  18.288   7.953
 7545POPC   C4A34026   9.763  18.250   7.653
 7545POPC   C1B34027   9.577  18.413   8.553
 7545POPC   C2B34028   9.541  18.369   8.253
 7545POPC   C3B34029   9.499  18.421   7.953
 7545POPC   C4B34030   9.503  18.385   7.653
 7546POPC   NC334031  19.027   8.160   9.453
 7546POPC   PO434032  19.024   8.152   9.153
 7546POPC   GL134033  19.014   8.204   8.853
 7546POPC   GL234034  19.133   8.267   8.853
 7546POPC   C1A34035  19.067   8.153   8.553
 7546POPC   D2A34036  19.106   8.158   8.253
 7546POPC   C3A34037  19.091   8.246   7.953
 7546POPC   C4A34038  19.089   8.235   7.653
 7546POPC   C1B34039  19.253   8.415   8.553
 7546POPC   C2B34040  19.163   8.408   8.253
 7546POPC   C3B34041  19.197   8.346   7.953
 7546POPC   C4B34042  19.209   8.354   7.653
 7547POPC   NC334043  33.848  33.807   9.453
 7547POPC   PO434044  33.776  33.774   9.153
 7547POPC   GL134045  33.754  33.834   8.853
 7547POPC   GL234046  33.901  33.870   8.853
 7547POPC   C1A34047  33.800  33.806   8.553
 7547POPC   D2A34048  33.825  33.841   8.253
 7547POPC   C3A34049  33.812  33.777   7.953
 7547POPC   C4A34050  33.753  33.811   7.653
 7547POPC   C1B34051  33.928  34.029   8.553
 7547POPC   C2B34052  34.007  34.036   8.253
 7547POPC   C3B34053  33.991  34.039   7.953
 7547POPC   C4B34054  33.999  34.037   7.653
 7548POPC   NC334055  37.691  12.113   9.453
 7548POPC   PO434056  37.657  12.081   9.153
 7548POPC   GL134057  37.639  12.070   8.853
 7548POPC   GL234058  37.722  12.237   8.853
 7548POPC   C1A34059  37.716  12.058   8.553
 7548POPC   D2A34060  37.717  12.032   8.253
 7548POPC   C3A34061  37.718  12.105   7.953
 7548POPC   C4A34062  37.684  12.090   7.653
 7548POPC   C1B34063  37.810  12.261   8.553
 7548POPC   C2B34064  37.794  12.304   8.253
 7548POPC   C3B34065  37.776  12.301   7.953
 7548POPC   C4B34066  37.828  12.306   7.653
 7549POPC   NC334067   8.163  12.062   9.453
 7549POPC   PO434068   8.186  12.064   9.153
 7549POPC   GL134069   8.220  12.086   8.853
 7549POPC   GL234070   8.295  12.174   8.853
 7549POPC   C1A34071   8.183  12.102   8.553
 7549POPC   D2A34072   8.179  12.094   8.253
 7549POPC   C3A34073   8.182  12.066   7.953
 7549POPC   C4A34074   8.212  12.113   7.653
 7549POPC   C1B34075   8.283  12.324   8.553
 7549POPC   C2B34076   8.260  12.296   8.253
 7549POPC   C3B34077   8.338  12.341   7.953
 7549POPC   C4B34078   8.280  12.301   7.653
 7550POPC   NC334079  39.223  17.512   9.453
 7550POPC   PO434080  39.270  17.548   9.153
 7550POPC   GL134081  39.277  17.537   8.853
 7550POPC   GL234082  39.251  17.394   8.853
 7550POPC   C1A34083  39.258  17.541   8.553
 7550POPC   D2A34084  39.190  17.526   8.253
 7550POPC   C3A34085  39.272  17.532   7.953
 7550POPC   C4A34086  39.231  17.539   7.653
 7550POPC   C1B34087  39.189  17.291   8.553
 7550POPC   C2B34088  39.250  17.237   8.253
 7550POPC   C3B34089  39.216  17.269   7.953
 7550POPC   C4B34090  39.193  17.261   7.653
 7551POPC   NC334091  19.096  29.186   9.453
 7551POPC   PO434092  19.042  29.139   9.153
 7551POPC   GL134093  19.037  29.164   8.853
 7551POPC   GL234094  18.911  29.115   8.853
 7551POPC   C1A34095  19.076  29.116   8.553
 7551POPC   D2A34096  19.018  29.138   8.253
 7551POPC   C3A34097  19.016  29.194   7.953
 7551POPC   C4A34098  19.077  29.189   7.653
 7551POPC   C1B34099  18.802  29.182   8.553
 7551POPC   C2B34100  18.766  29.137   8.253
 7551POPC   C3B34101  18.780  29.155   7.953
 7551POPC   C4B34102  18.790  29.205   7.653
 7552POPC   NC334103  42.289  18.308   9.453
 7552POPC   PO434104  42.377  18.317   9.153
 7552POPC   GL134105  42.287  18.270   8.853
 7552POPC   GL234106  42.415  18.178   8.853
 7552POPC   C1A34107  42.317  18.289   8.553
 7552POPC   D2A34108  42.362  18.275   8.253
 7552POPC   C3A34109  42.379  18.310   7.953
 7552POPC   C4A34110  42.291  18.298   7.653
 7552POPC   C1B34111  42.493  18.116   8.553
 7552POPC   C2B34112  42.434  18.106   8.253
 7552POPC   C3B34113  42.447  18.071   7.953
 7552POPC   C4B34114  42.443  18.087   7.653
 7553POPC   NC334115  19.083  28.396   9.453
 7553POPC   PO434116  19.042  28.368   9.153
 7553POPC   GL134117  19.029  28.374   8.853
 7553POPC   GL234118  18.897  28.382   8.853
 7553POPC   C1A34119  19.102  28.379   8.553
 7553POPC   D2A34120  19.078  28.328   8.253
 7553POPC   C3A34121  19.030  28.394   7.953
 7553POPC   C4A34122  19.013  28.326   7.653
 7553POPC   C1B34123  18.856  28.382   8.553
 7553POPC   C2B34124  18.804  28.344   8.253
 7553POPC   C3B34125  18.805  28.342   7.953
 7553POPC   C4B34126  18.786  28.377   7.653
 7554POPC   NC334127   9.012   5.874   9.453
 7554POPC   PO434128   8.994   5.876   9.153
 7554POPC   GL134129   8.936   5.848   8.853
 7554POPC   GL234130   8.999   5.973   8.853
 7554POPC   C1A34131   8.962   5.889   8.553
 7554POPC   D2A34132   8.969   5.864   8.253
 7554POPC   C3A34133   8.950   5.874   7.953
 7554POPC   C4A34134   8.965   5.835   7.653
 7554POPC   C1B34135   8.891   6.157   8.553
 7554POPC   C2B34136   8.890   6.165   8.253
 7554POPC   C3B34137   8.977   6.103   7.953
 7554POPC   C4B34138   8.963   6.134   7.653
 7555POPC   NC334139  44.684   3.530   9.453
 7555POPC   PO434140  44.642   3.514   9.153
 7555POPC   GL134141  44.666   3.498   8.853
 7555POPC   GL234142  44.617   3.485   8.853
 7555POPC   C1A34143  44.643   3.504   8.553
 7555POPC   D2A34144  44.700   3.577   8.253
 7555POPC   C3A34145  44.662   3.518   7.953
 7555POPC   C4A34146  44.681   3.498   7.653
 7555POPC   C1B34147  44.473   3.332   8.553
 7555POPC   C2B34148  44.472   3.371   8.253
 7555POPC   C3B34149  44.528   3.335   7.953
 7555POPC   C4B34150  44.433   3.341   7.653
 7556POPC   NC334151  15.980  22.913   9.453
 7556POPC   PO434152  15.921  22.934   9.153
 7556POPC   GL134153  15.907  22.899   8.853
 7556POPC   GL234154  16.022  23.099   8.853
 7556POPC   C1A34155  15.917  22.913   8.553
 7556POPC   D2A34156  15.908  22.891   8.253
 7556POPC   C3A34157  15.947  22.977   7.953
 7556POPC   C4A34158  15.961  22.948   7.653
 7556POPC   C1B34159  16.079  23.144   8.553
 7556POPC   C2B34160  16.081  23.190   8.253
 7556POPC   C3B34161  16.038  23.128   7.953
 7556POPC   C4B34162  16.007  23.140   7.653
 7557POPC   NC334163   5.093  17.525   9.453
 7557POPC   PO434164   5.107  17.502   9.153
 7557POPC   GL134165   5.084  17.523   8.853
 7557POPC   GL234166   5.152  17.537   8.853
 7557POPC   C1A34167   5.111  17.518   8.553
 7557POPC   D2A34168   5.100  17.463   8.253
 7557POPC   C3A34169   5.088  17.498   7.953
 7557POPC   C4A34170   5.099  17.549   7.653
 7557POPC   C1B34171   5.318  17.612   8.553
 7557POPC   C2B34172   5.293  17.676   8.253
 7557POPC   C3B34173   5.325  17.699   7.953
 7557POPC   C4B34174   5.260  17.643   7.653
 7558POPC   NC334175  17.523  23.744   9.453
 7558POPC   PO434176  17.458  23.718   9.153
 7558POPC   GL134177  17.466  23.745   8.853
 7558POPC   GL234178  17.605  23.632   8.853
 7558POPC   C1A34179  17.495  23.729   8.553
 7558POPC   D2A34180  17.542  23.708   8.253
 7558POPC   C3A34181  17.463  23.712   7.953
 7558POPC   C4A34182  17.477  23.752   7.653
 7558POPC   C1B34183  17.654  23.493   8.553
 7558POPC   C2B34184  17.700  23.549   8.253
 7558POPC   C3B34185  17.706  23.550   7.953
 7558POPC   C4B34186  17.712  23.563   7.653
 7559POPC   NC334187  12.079  12.101   9.453
 7559POPC   PO434188  12.040  12.107   9.153
 7559POPC   GL134189  12.105  12.105   8.853
 7559POPC   GL234190  12.201  12.167   8.853
 7559POPC   C1A34191  12.090  12.036   8.553
 7559POPC   D2A34192  12.106  12.038   8.253
 7559POPC   C3A34193  12.079  12.108   7.953
 7559POPC   C4A34194  12.054  12.103   7.653
 7559POPC   C1B34195  12.309  12.156   8.553
 7559POPC   C2B34196  12.292  12.171   8.253
 7559POPC   C3B34197  12.331  12.154   7.953
 7559POPC   C4B34198  12.285  12.191   7.653
 7560POPC   NC334199   0.479  36.093   9.453
 7560POPC   PO434200   0.470  36.096   9.153
 7560POPC   GL134201   0.399  36.122   8.853
 7560POPC   GL234202   0.541  36.237   8.853
 7560POPC   C1A34203   0.414  36.107   8.553
 7560POPC   D2A34204   0.464  36.102   8.253
 7560POPC   C3A34205   0.477  36.092   7.953
 7560POPC   C4A34206   0.454  36.110   7.653
 7560POPC   C1B34207   0.594  36.335   8.553
 7560POPC   C2B34208   0.654  36.354   8.253
 7560POPC   C3B34209   0.630  36.316   7.953
 7560POPC   C4B34210   0.643  36.303   7.653
 7561POPC   NC334211  26.810   5.051   9.453
 7561POPC   PO434212  26.785   5.070   9.153
 7561POPC   GL134213  26.770   5.079   8.853
 7561POPC   GL234214  26.914   4.990   8.853
 7561POPC   C1A34215  26.794   5.139   8.553
 7561POPC   D2A34216  26.860   5.105   8.253
 7561POPC   C3A34217  26.809   5.130   7.953
 7561POPC   C4A34218  26.832   5.105   7.653
 7561POPC   C1B34219  27.060   5.005   8.553
 7561POPC   C2B34220  26.986   4.954   8.253
 7561POPC   C3B34221  27.049   4.930   7.953
 7561POPC   C4B34222  27.050   4.939   7.653
 7562POPC   NC334223  19.067  11.264   9.453
 7562POPC   PO434224  19.106  11.340   9.153
 7562POPC   GL134225  19.030  11.332   8.853
 7562POPC   GL234226  19.174  11.388   8.853
 7562POPC   C1A34227  19.097  11.316   8.553
 7562POPC   D2A34228  19.020  11.305   8.253
 7562POPC   C3A34229  19.046  11.270   7.953
 7562POPC   C4A34230  19.097  11.341   7.653
 7562POPC   C1B34231  19.237  11.452   8.553
 7562POPC   C2B34232  19.275  11.402   8.253
 7562POPC   C3B34233  19.317  11.465   7.953
 7562POPC   C4B34234  19.241  11.446   7.653
 7563POPC   NC334235  38.502   7.464   9.453
 7563POPC   PO434236  38.455   7.418   9.153
 7563POPC   GL134237  38.452   7.441   8.853
 7563POPC   GL234238  38.395   7.587   8.853
 7563POPC   C1A34239  38.475   7.387   8.553
 7563POPC   D2A34240  38.448   7.433   8.253
 7563POPC   C3A34241  38.429   7.451   7.953
 7563POPC   C4A34242  38.467   7.452   7.653
 7563POPC   C1B34243  38.476   7.652   8.553
 7563POPC   C2B34244  38.392   7.662   8.253
 7563POPC   C3B34245  38.439   7.690   7.953
 7563POPC   C4B34246  38.426   7.640   7.653
 7564POPC   NC334247  35.308  39.958   9.453
 7564POPC   PO434248  35.305  39.977   9.153
 7564POPC   GL134249  35.375  40.015   8.853
 7564POPC   GL234250  35.473  40.109   8.853
 7564POPC   C1A34251  35.351  40.039   8.553
 7564POPC   D2A34252  35.314  39.976   8.253
 7564POPC   C3A34253  35.312  39.971   7.953
 7564POPC   C4A34254  35.362  40.017   7.653
 7564POPC   C1B34255  35.574  40.098   8.553
 7564POPC   C2B34256  35.599  40.101   8.253
 7564POPC   C3B34257  35.580  40.147   7.953
 7564POPC   C4B34258  35.601  40.165   7.653
 7565POPC   NC334259  37.693   5.907   9.453
 7565POPC   PO434260  37.698   5.863   9.153
 7565POPC   GL134261  37.652   5.882   8.853
 7565POPC   GL234262  37.537   5.798   8.853
 7565POPC   C1A34263  37.699   5.870   8.553
 7565POPC   D2A34264  37.706   5.885   8.253
 7565POPC   C3A34265  37.667   5.865   7.953
 7565POPC   C4A34266  37.693   5.843   7.653
 7565POPC   C1B34267  37.461   5.756   8.553
 7565POPC   C2B34268  37.444   5.777   8.253
 7565POPC   C3B34269  37.449   5.762   7.953
 7565POPC   C4B34270  37.462   5.808   7.653
 7566POPC   NC334271   7.435   0.437   9.453
 7566POPC   PO434272   7.442   0.475   9.153
 7566POPC   GL134273   7.385   0.451   8.853
 7566POPC   GL234274   7.583   0.468   8.853
 7566POPC   C1A34275   7.372   0.392   8.553
 7566POPC   D2A34276   7.458   0.391   8.253
 7566POPC   C3A34277   7.461   0.391   7.953
 7566POPC   C4A34278   7.454   0.465   7.653
 7566POPC   C1B34279   7.638   0.555   8.553
 7566POPC   C2B34280   7.637   0.465   8.253
 7566POPC   C3B34281   7.703   0.480   7.953
 7566POPC   C4B34282   7.653   0.517   7.653
 7567POPC   NC334283  26.850   8.939   9.453
 7567POPC   PO434284  26.852   8.969   9.153
 7567POPC   GL134285  26.857   8.933   8.853
 7567POPC   GL234286  26.870   9.109   8.853
 7567POPC   C1A34287  26.808   8.976   8.553
 7567POPC   D2A34288  26.857   9.014   8.253
 7567POPC   C3A34289  26.791   8.962   7.953
 7567POPC   C4A34290  26.807   8.927   7.653
 7567POPC   C1B34291  26.942   9.167   8.553
 7567POPC   C2B34292  26.962   9.160   8.253
 7567POPC   C3B34293  26.971   9.173   7.953
 7567POPC   C4B34294  26.944   9.205   7.653
 7568POPC   NC334295  26.084   5.831   9.453
 7568POPC   PO434296  26.070   5.875   9.153
 7568POPC   GL134297  26.046   5.863   8.853
 7568POPC   GL234298  26.127   5.788   8.853
 7568POPC   C1A34299  26.068   5.876   8.553
 7568POPC   D2A34300  26.085   5.844   8.253
 7568POPC   C3A34301  26.002   5.898   7.953
 7568POPC   C4A34302  26.084   5.887   7.653
 7568POPC   C1B34303  26.268   5.799   8.553
 7568POPC   C2B34304  26.259   5.792   8.253
 7568POPC   C3B34305  26.274   5.819   7.953
 7568POPC   C4B34306  26.304   5.771   7.653
 7569POPC   NC334307  10.572  44.704   9.453
 7569POPC   PO434308  10.574  44.666   9.153
 7569POPC   GL134309  10.540  44.616   8.853
 7569POPC   GL234310  10.544  44.510   8.853
 7569POPC   C1A34311  10.562  44.681   8.553
 7569POPC   D2A34312  10.478  44.691   8.253
 7569POPC   C3A34313  10.523  44.665   7.953
 7569POPC   C4A34314  10.557  44.647   7.653
 7569POPC   C1B34315  10.606  44.452   8.553
 7569POPC   C2B34316  10.626  44.473   8.253
 7569POPC   C3B34317  10.660  44.423   7.953
 7569POPC   C4B34318  10.671  44.451   7.653
 7570POPC   NC334319  19.107  37.719   9.453
 7570POPC   PO434320  19.101  37.709   9.153
 7570POPC   GL134321  19.055  37.672   8.853
 7570POPC   GL234322  18.999  37.634   8.853
 7570POPC   C1A34323  19.035  37.695   8.553
 7570POPC   D2A34324  19.106  37.686   8.253
 7570POPC   C3A34325  19.098  37.640   7.953
 7570POPC   C4A34326  19.107  37.645   7.653
 7570POPC   C1B34327  18.898  37.489   8.553
 7570POPC   C2B34328  18.907  37.517   8.253
 7570POPC   C3B34329  18.924  37.442   7.953
 7570POPC   C4B34330  18.910  37.466   7.653
 7571POPC   NC334331  33.038  25.256   9.453
 7571POPC   PO434332  33.000  25.252   9.153
 7571POPC   GL134333  32.982  25.227   8.853
 7571POPC   GL234334  32.864  25.199   8.853
 7571POPC   C1A34335  33.045  25.219   8.553
 7571POPC   D2A34336  33.024  25.239   8.253
 7571POPC   C3A34337  33.034  25.284   7.953
 7571POPC   C4A34338  32.976  25.306   7.653
 7571POPC   C1B34339  32.769  25.164   8.553
 7571POPC   C2B34340  32.835  25.148   8.253
 7571POPC   C3B34341  32.813  25.212   7.953
 7571POPC   C4B34342  32.747  25.186   7.653
 7572POPC   NC334343  23.763  38.471   9.453
 7572POPC   PO434344  23.712  38.479   9.153
 7572POPC   GL134345  23.714  38.434   8.853
 7572POPC   GL234346  23.627  38.414   8.853
 7572POPC   C1A34347  23.740  38.422   8.553
 7572POPC   D2A34348  23.681  38.487   8.253
 7572POPC   C3A34349  23.718  38.419   7.953
 7572POPC   C4A34350  23.724  38.437   7.653
 7572POPC   C1B34351  23.543  38.303   8.553
 7572POPC   C2B34352  23.461  38.371   8.253
 7572POPC   C3B34353  23.538  38.318   7.953
 7572POPC   C4B34354  23.492  38.346   7.653
 7573POPC   NC334355   9.772   0.436   9.453
 7573POPC   PO434356   9.699   0.448   9.153
 7573POPC   GL134357   9.739   0.424   8.853
 7573POPC   GL234358   9.744   0.358   8.853
 7573POPC   C1A34359   9.752   0.447   8.553
 7573POPC   D2A34360   9.733   0.423   8.253
 7573POPC   C3A34361   9.793   0.406   7.953
 7573POPC   C4A34362   9.795   0.391   7.653
 7573POPC   C1B34363   9.740   0.199   8.553
 7573POPC   C2B34364   9.760   0.180   8.253
 7573POPC   C3B34365   9.779   0.208   7.953
 7573POPC   C4B34366   9.786   0.143   7.653
 7574POPC   NC334367  26.037  40.000   9.453
 7574POPC   PO434368  26.054  40.051   9.153
 7574POPC   GL134369  26.009  39.994   8.853
 7574POPC   GL234370  26.180  39.998   8.853
 7574POPC   C1A34371  25.997  40.007   8.553
 7574POPC   D2A34372  26.015  40.012   8.253
 7574POPC   C3A34373  26.056  40.026   7.953
 7574POPC   C4A34374  26.039  40.038   7.653
 7574POPC   C1B34375  26.278  40.010   8.553
 7574POPC   C2B34376  26.311  39.937   8.253
 7574POPC   C3B34377  26.242  39.962   7.953
 7574POPC   C4B34378  26.272  39.966   7.653
 7575POPC   NC334379  33.817  37.666   9.453
 7575POPC   PO434380  33.767  37.704   9.153
 7575POPC   GL134381  33.842  37.656   8.853
 7575POPC   GL234382  33.877  37.685   8.853
 7575POPC   C1A34383  33.845  37.651   8.553
 7575POPC   D2A34384  33.810  37.712   8.253
 7575POPC   C3A34385  33.803  37.677   7.953
 7575POPC   C4A34386  33.841  37.718   7.653
 7575POPC   C1B34387  34.037  37.592   8.553
 7575POPC   C2B34388  34.019  37.632   8.253
 7575POPC   C3B34389  33.996  37.588   7.953
 7575POPC   C4B34390  34.006  37.645   7.653
 7576POPC   NC334391  24.506  18.251   9.453
 7576POPC   PO434392  24.529  18.316   9.153
 7576POPC   GL134393  24.524  18.251   8.853
 7576POPC   GL234394  24.602  18.235   8.853
 7576POPC   C1A34395  24.499  18.305   8.553
 7576POPC   D2A34396  24.445  18.269   8.253
 7576POPC   C3A34397  24.500  18.265   7.953
 7576POPC   C4A34398  24.450  18.279   7.653
 7576POPC   C1B34399  24.724  18.326   8.553
 7576POPC   C2B34400  24.732  18.288   8.253
 7576POPC   C3B34401  24.757  18.271   7.953
 7576POPC   C4B34402  24.750  18.255   7.653
 7577POPC   NC334403  30.685  43.145   9.453
 7577POPC   PO434404  30.697  43.086   9.153
 7577POPC   GL134405  30.662  43.145   8.853
 7577POPC   GL234406  30.770  42.950   8.853
 7577POPC   C1A34407  30.729  43.112   8.553
 7577POPC   D2A34408  30.737  43.159   8.253
 7577POPC   C3A34409  30.714  43.125   7.953
 7577POPC   C4A34410  30.678  43.155   7.653
 7577POPC   C1B34411  30.766  42.871   8.553
 7577POPC   C2B34412  30.822  42.877   8.253
 7577POPC   C3B34413  30.854  42.859   7.953
 7577POPC   C4B34414  30.811  42.915   7.653
 7578POPC   NC334415  27.549  25.258   9.453
 7578POPC   PO434416  27.612  25.274   9.153
 7578POPC   GL134417  27.581  25.273   8.853
 7578POPC   GL234418  27.604  25.108   8.853
 7578POPC   C1A34419  27.548  25.250   8.553
 7578POPC   D2A34420  27.577  25.226   8.253
 7578POPC   C3A34421  27.550  25.266   7.953
 7578POPC   C4A34422  27.566  25.261   7.653
 7578POPC   C1B34423  27.527  25.025   8.553
 7578POPC   C2B34424  27.556  24.980   8.253
 7578POPC   C3B34425  27.588  25.021   7.953
 7578POPC   C4B34426  27.560  25.024   7.653
 7579POPC   NC334427  27.631  19.083   9.453
 7579POPC   PO434428  27.599  19.101   9.153
 7579POPC   GL134429  27.549  19.021   8.853
 7579POPC   GL234430  27.480  19.104   8.853
 7579POPC   C1A34431  27.615  19.060   8.553
 7579POPC   D2A34432  27.607  19.016   8.253
 7579POPC   C3A34433  27.628  19.060   7.953
 7579POPC   C4A34434  27.627  19.081   7.653
 7579POPC   C1B34435  27.319  19.206   8.553
 7579POPC   C2B34436  27.382  19.131   8.253
 7579POPC   C3B34437  27.409  19.114   7.953
 7579POPC   C4B34438  27.393  19.180   7.653
 7580POPC   NC334439  33.818   6.632   9.453
 7580POPC   PO434440  33.826   6.637   9.153
 7580POPC   GL134441  33.814   6.667   8.853
 7580POPC   GL234442  33.799   6.748   8.853
 7580POPC   C1A34443  33.795   6.656   8.553
 7580POPC   D2A34444  33.823   6.667   8.253
 7580POPC   C3A34445  33.833   6.611   7.953
 7580POPC   C4A34446  33.807   6.645   7.653
 7580POPC   C1B34447  33.903   6.914   8.553
 7580POPC   C2B34448  33.934   6.888   8.253
 7580POPC   C3B34449  33.876   6.898   7.953
 7580POPC   C4B34450  33.851   6.848   7.653
 7581POPC   NC334451  18.274  41.524   9.453
 7581POPC   PO434452  18.275  41.546   9.153
 7581POPC   GL134453  18.247  41.511   8.853
 7581POPC   GL234454  18.320  41.606   8.853
 7581POPC   C1A34455  18.297  41.602   8.553
 7581POPC   D2A34456  18.275  41.524   8.253
 7581POPC   C3A34457  18.256  41.541   7.953
 7581POPC   C4A34458  18.241  41.595   7.653
 7581POPC   C1B34459  18.487  41.772   8.553
 7581POPC   C2B34460  18.413  41.765   8.253
 7581POPC   C3B34461  18.408  41.694   7.953
 7581POPC   C4B34462  18.430  41.793   7.653
 7582POPC   NC334463  25.306  11.338   9.453
 7582POPC   PO434464  25.284  11.281   9.153
 7582POPC   GL134465  25.313  11.253   8.853
 7582POPC   GL234466  25.299  11.452   8.853
 7582POPC   C1A34467  25.228  11.307   8.553
 7582POPC   D2A34468  25.307  11.300   8.253
 7582POPC   C3A34469  25.298  11.269   7.953
 7582POPC   C4A34470  25.300  11.346   7.653
 7582POPC   C1B34471  25.323  11.527   8.553
 7582POPC   C2B34472  25.286  11.579   8.253
 7582POPC   C3B34473  25.344  11.566   7.953
 7582POPC   C4B34474  25.291  11.577   7.653
 7583POPC   NC334475  15.156  25.265   9.453
 7583POPC   PO434476  15.148  25.241   9.153
 7583POPC   GL134477  15.159  25.301   8.853
 7583POPC   GL234478  15.090  25.178   8.853
 7583POPC   C1A34479  15.202  25.220   8.553
 7583POPC   D2A34480  15.148  25.232   8.253
 7583POPC   C3A34481  15.175  25.260   7.953
 7583POPC   C4A34482  15.148  25.225   7.653
 7583POPC   C1B34483  14.992  25.122   8.553
 7583POPC   C2B34484  14.987  25.050   8.253
 7583POPC   C3B34485  15.052  25.129   7.953
 7583POPC   C4B34486  15.045  25.131   7.653
 7584POPC   NC334487  13.669  40.001   9.453
 7584POPC   PO434488  13.590  40.003   9.153
 7584POPC   GL134489  13.611  39.998   8.853
 7584POPC   GL234490  13.649  40.092   8.853
 7584POPC   C1A34491  13.633  39.988   8.553
 7584POPC   D2A34492  13.658  39.964   8.253
 7584POPC   C3A34493  13.638  39.959   7.953
 7584POPC   C4A34494  13.605  40.055   7.653
 7584POPC   C1B34495  13.699  40.212   8.553
 7584POPC   C2B34496  13.737  40.273   8.253
 7584POPC   C3B34497  13.710  40.284   7.953
 7584POPC   C4B34498  13.724  40.272   7.653
 7585POPC   NC334499  28.325   4.329   9.453
 7585POPC   PO434500  28.397   4.293   9.153
 7585POPC   GL134501  28.385   4.287   8.853
 7585POPC   GL234502  28.405   4.184   8.853
 7585POPC   C1A34503  28.359   4.364   8.553
 7585POPC   D2A34504  28.396   4.360   8.253
 7585POPC   C3A34505  28.367   4.317   7.953
 7585POPC   C4A34506  28.361   4.327   7.653
 7585POPC   C1B34507  28.480   4.142   8.553
 7585POPC   C2B34508  28.579   4.144   8.253
 7585POPC   C3B34509  28.552   4.140   7.953
 7585POPC   C4B34510  28.569   4.086   7.653
 7586POPC   NC334511  38.444   2.759   9.453
 7586POPC   PO434512  38.473   2.789   9.153
 7586POPC   GL134513  38.480   2.734   8.853
 7586POPC   GL234514  38.470   2.696   8.853
 7586POPC   C1A34515  38.455   2.734   8.553
 7586POPC   D2A34516  38.476   2.719   8.253
 7586POPC   C3A34517  38.462   2.749   7.953
 7586POPC   C4A34518  38.495   2.797   7.653
 7586POPC   C1B34519  38.598   2.510   8.553
 7586POPC   C2B34520  38.600   2.544   8.253
 7586POPC   C3B34521  38.564   2.543   7.953
 7586POPC   C4B34522  38.580   2.518   7.653
 7587POPC   NC334523   1.228  16.701   9.453
 7587POPC   PO434524   1.192  16.741   9.153
 7587POPC   GL134525   1.165  16.766   8.853
 7587POPC   GL234526   1.268  16.833   8.853
 7587POPC   C1A34527   1.208  16.763   8.553
 7587POPC   D2A34528   1.211  16.696   8.253
 7587POPC   C3A34529   1.225  16.718   7.953
 7587POPC   C4A34530   1.217  16.763   7.653
 7587POPC   C1B34531   1.358  16.964   8.553
 7587POPC   C2B34532   1.389  16.963   8.253
 7587POPC   C3B34533   1.345  16.887   7.953
 7587POPC   C4B34534   1.357  16.912   7.653
 7588POPC   NC334535  13.617   4.296   9.453
 7588POPC   PO434536  13.634   4.291   9.153
 7588POPC   GL134537  13.616   4.322   8.853
 7588POPC   GL234538  13.560   4.372   8.853
 7588POPC   C1A34539  13.669   4.271   8.553
 7588POPC   D2A34540  13.631   4.367   8.253
 7588POPC   C3A34541  13.580   4.363   7.953
 7588POPC   C4A34542  13.640   4.335   7.653
 7588POPC   C1B34543  13.427   4.399   8.553
 7588POPC   C2B34544  13.412   4.395   8.253
 7588POPC   C3B34545  13.386   4.444   7.953
 7588POPC   C4B34546  13.415   4.436   7.653
 7589POPC   NC334547  20.643  41.541   9.453
 7589POPC   PO434548  20.636  41.573   9.153
 7589POPC   GL134549  20.579  41.580   8.853
 7589POPC   GL234550  20.490  41.546   8.853
 7589POPC   C1A34551  20.613  41.582   8.553
 7589POPC   D2A34552  20.572  41.572   8.253
 7589POPC   C3A34553  20.593  41.566   7.953
 7589POPC   C4A34554  20.583  41.581   7.653
 7589POPC   C1B34555  20.380  41.496   8.553
 7589POPC   C2B34556  20.350  41.464   8.253
 7589POPC   C3B34557  20.361  41.473   7.953
 7589POPC   C4B34558  20.367  41.490   7.653
 7590POPC   NC334559  15.970   2.020   9.453
 7590POPC   PO434560  15.962   2.039   9.153
 7590POPC   GL134561  15.922   2.002   8.853
 7590POPC   GL234562  15.957   1.867   8.853
 7590POPC   C1A34563  15.919   2.000   8.553
 7590POPC   D2A34564  15.942   1.952   8.253
 7590POPC   C3A34565  15.972   1.952   7.953
 7590POPC   C4A34566  15.996   2.017   7.653
 7590POPC   C1B34567  15.967   1.714   8.553
 7590POPC   C2B34568  15.884   1.779   8.253
 7590POPC   C3B34569  15.970   1.783   7.953
 7590POPC   C4B34570  15.943   1.762   7.653
 7591POPC   NC334571  13.622   5.098   9.453
 7591POPC   PO434572  13.677   5.132   9.153
 7591POPC   GL134573  13.593   5.115   8.853
 7591POPC   GL234574  13.542   5.049   8.853
 7591POPC   C1A34575  13.631   5.105   8.553
 7591POPC   D2A34576  13.597   5.121   8.253
 7591POPC   C3A34577  13.634   5.103   7.953
 7591POPC   C4A34578  13.591   5.120   7.653
 7591POPC   C1B34579  13.405   4.970   8.553
 7591POPC   C2B34580  13.382   4.962   8.253
 7591POPC   C3B34581  13.412   5.049   7.953
 7591POPC   C4B34582  13.358   5.019   7.653
 7592POPC   NC334583  31.422  10.550   9.453
 7592POPC   PO434584  31.505  10.480   9.153
 7592POPC   GL134585  31.513  10.492   8.853
 7592POPC   GL234586  31.561  10.427   8.853
 7592POPC   C1A34587  31.452  10.553   8.553
 7592POPC   D2A34588  31.485  10.533   8.253
 7592POPC   C3A34589  31.466  10.574   7.953
 7592POPC   C4A34590  31.520  10.520   7.653
 7592POPC   C1B34591  31.624  10.335   8.553
 7592POPC   C2B34592  31.704  10.339   8.253
 7592POPC   C3B34593  31.677  10.360   7.953
 7592POPC   C4B34594  31.691  10.369   7.653
 7593POPC   NC334595  34.613  43.877   9.453
 7593POPC   PO434596  34.553  43.892   9.153
 7593POPC   GL134597  34.550  43.901   8.853
 7593POPC   GL234598  34.506  43.803   8.853
 7593POPC   C1A34599  34.602  43.847   8.553
 7593POPC   D2A34600  34.555  43.910   8.253
 7593POPC   C3A34601  34.552  43.905   7.953
 7593POPC   C4A34602  34.559  43.932   7.653
 7593POPC   C1B34603  34.515  43.599   8.553
 7593POPC   C2B34604  34.456  43.671   8.253
 7593POPC   C3B34605  34.450  43.650   7.953
 7593POPC   C4B34606  34.488  43.626   7.653
 7594POPC   NC334607  26.040  26.772   9.453
 7594POPC   PO434608  26.086  26.782   9.153
 7594POPC   GL134609  26.065  26.862   8.853
 7594POPC   GL234610  25.976  26.753   8.853
 7594POPC   C1A34611  26.087  26.808   8.553
 7594POPC   D2A34612  26.073  26.861   8.253
 7594POPC   C3A34613  26.055  26.811   7.953
 7594POPC   C4A34614  26.077  26.813   7.653
 7594POPC   C1B34615  25.893  26.565   8.553
 7594POPC   C2B34616  25.887  26.582   8.253
 7594POPC   C3B34617  25.897  26.574   7.953
 7594POPC   C4B34618  25.949  26.598   7.653
 7595POPC   NC334619  35.306   9.727   9.453
 7595POPC   PO434620  35.313   9.778   9.153
 7595POPC   GL134621  35.356   9.700   8.853
 7595POPC   GL234622  35.395   9.616   8.853
 7595POPC   C1A34623  35.343   9.755   8.553
 7595POPC   D2A34624  35.318   9.757   8.253
 7595POPC   C3A34625  35.355   9.734   7.953
 7595POPC   C4A34626  35.324   9.719   7.653
 7595POPC   C1B34627  35.483   9.544   8.553
 7595POPC   C2B34628  35.489   9.536   8.253
 7595POPC   C3B34629  35.528   9.611   7.953
 7595POPC   C4B34630  35.501   9.613   7.653
 7596POPC   NC334631  22.198  18.279   9.453
 7596POPC   PO434632  22.128  18.321   9.153
 7596POPC   GL134633  22.187  18.296   8.853
 7596POPC   GL234634  21.992  18.267   8.853
 7596POPC   C1A34635  22.150  18.315   8.553
 7596POPC   D2A34636  22.134  18.239   8.253
 7596POPC   C3A34637  22.211  18.233   7.953
 7596POPC   C4A34638  22.113  18.260   7.653
 7596POPC   C1B34639  21.949  18.236   8.553
 7596POPC   C2B34640  21.927  18.200   8.253
 7596POPC   C3B34641  21.878  18.183   7.953
 7596POPC   C4B34642  21.898  18.209   7.653
 7597POPC   NC334643  34.609  36.169   9.453
 7597POPC   PO434644  34.546  36.170   9.153
 7597POPC   GL134645  34.536  36.118   8.853
 7597POPC   GL234646  34.620  36.275   8.853
 7597POPC   C1A34647  34.596  36.135   8.553
 7597POPC   D2A34648  34.589  36.104   8.253
 7597POPC   C3A34649  34.624  36.159   7.953
 7597POPC   C4A34650  34.575  36.105   7.653
 7597POPC   C1B34651  34.628  36.382   8.553
 7597POPC   C2B34652  34.565  36.351   8.253
 7597POPC   C3B34653  34.580  36.386   7.953
 7597POPC   C4B34654  34.629  36.368   7.653
 7598POPC   NC334655  15.206  22.198   9.453
 7598POPC   PO434656  15.188  22.120   9.153
 7598POPC   GL134657  15.178  22.182   8.853
 7598POPC   GL234658  15.293  22.253   8.853
 7598POPC   C1A34659  15.142  22.179   8.553
 7598POPC   D2A34660  15.167  22.164   8.253
 7598POPC   C3A34661  15.192  22.154   7.953
 7598POPC   C4A34662  15.153  22.183   7.653
 7598POPC   C1B34663  15.378  22.327   8.553
 7598POPC   C2B34664  15.361  22.395   8.253
 7598POPC   C3B34665  15.319  22.347   7.953
 7598POPC   C4B34666  15.374  22.357   7.653
 7599POPC   NC334667  10.505  21.390   9.453
 7599POPC   PO434668  10.526  21.432   9.153
 7599POPC   GL134669  10.524  21.424   8.853
 7599POPC   GL234670  10.626  21.349   8.853
 7599POPC   C1A34671  10.484  21.338   8.553
 7599POPC   D2A34672  10.483  21.428   8.253
 7599POPC   C3A34673  10.479  21.356   7.953
 7599POPC   C4A34674  10.509  21.376   7.653
 7599POPC   C1B34675  10.699  21.244   8.553
 7599POPC   C2B34676  10.772  21.207   8.253
 7599POPC   C3B34677  10.758  21.208   7.953
 7599POPC   C4B34678  10.686  21.264   7.653
 7600POPC   NC334679  14.437  40.749   9.453
 7600POPC   PO434680  14.434  40.762   9.153
 7600POPC   GL134681  14.403  40.824   8.853
 7600POPC   GL234682  14.410  40.625   8.853
 7600POPC   C1A34683  14.422  40.770   8.553
 7600POPC   D2A34684  14.367  40.759   8.253
 7600POPC   C3A34685  14.355  40.751   7.953
 7600POPC   C4A34686  14.412  40.819   7.653
 7600POPC   C1B34687  14.411  40.567   8.553
 7600POPC   C2B34688  14.447  40.492   8.253
 7600POPC   C3B34689  14.459  40.521   7.953
 7600POPC   C4B34690  14.372  40.569   7.653
 7601POPC   NC334691  14.404   8.162   9.453
 7601POPC   PO434692  14.355   8.242   9.153
 7601POPC   GL134693  14.396   8.215   8.853
 7601POPC   GL234694  14.509   8.180   8.853
 7601POPC   C1A34695  14.411   8.171   8.553
 7601POPC   D2A34696  14.396   8.223   8.253
 7601POPC   C3A34697  14.416   8.156   7.953
 7601POPC   C4A34698  14.453   8.229   7.653
 7601POPC   C1B34699  14.632   8.267   8.553
 7601POPC   C2B34700  14.671   8.204   8.253
 7601POPC   C3B34701  14.654   8.275   7.953
 7601POPC   C4B34702  14.656   8.221   7.653
 7602POPC   NC334703  12.103   1.181   9.453
 7602POPC   PO434704  12.112   1.174   9.153
 7602POPC   GL134705  12.080   1.214   8.853
 7602POPC   GL234706  11.958   1.086   8.853
 7602POPC   C1A34707  12.042   1.180   8.553
 7602POPC   D2A34708  12.098   1.178   8.253
 7602POPC   C3A34709  12.044   1.181   7.953
 7602POPC   C4A34710  12.090   1.180   7.653
 7602POPC   C1B34711  11.843   1.043   8.553
 7602POPC   C2B34712  11.866   1.013   8.253
 7602POPC   C3B34713  11.862   1.068   7.953
 7602POPC   C4B34714  11.880   1.071   7.653
 7603POPC   NC334715   1.193   8.203   9.453
 7603POPC   PO434716   1.176   8.178   9.153
 7603POPC   GL134717   1.223   8.199   8.853
 7603POPC   GL234718   1.229   8.075   8.853
 7603POPC   C1A34719   1.175   8.245   8.553
 7603POPC   D2A34720   1.247   8.171   8.253
 7603POPC   C3A34721   1.198   8.231   7.953
 7603POPC   C4A34722   1.172   8.187   7.653
 7603POPC   C1B34723   1.329   8.019   8.553
 7603POPC   C2B34724   1.346   7.962   8.253
 7603POPC   C3B34725   1.365   8.006   7.953
 7603POPC   C4B34726   1.295   7.992   7.653
 7604POPC   NC334727  43.924  17.528   9.453
 7604POPC   PO434728  43.862  17.491   9.153
 7604POPC   GL134729  43.913  17.547   8.853
 7604POPC   GL234730  43.973  17.524   8.853
 7604POPC   C1A34731  43.897  17.468   8.553
 7604POPC   D2A34732  43.888  17.518   8.253
 7604POPC   C3A34733  43.865  17.457   7.953
 7604POPC   C4A34734  43.935  17.493   7.653
 7604POPC   C1B34735  44.146  17.550   8.553
 7604POPC   C2B34736  44.103  17.557   8.253
 7604POPC   C3B34737  44.154  17.487   7.953
 7604POPC   C4B34738  44.123  17.519   7.653
 7605POPC   NC334739  41.538  36.946   9.453
 7605POPC   PO434740  41.591  36.953   9.153
 7605POPC   GL134741  41.526  36.866   8.853
 7605POPC   GL234742  41.678  36.916   8.853
 7605POPC   C1A34743  41.535  36.940   8.553
 7605POPC   D2A34744  41.571  36.874   8.253
 7605POPC   C3A34745  41.557  36.939   7.953
 7605POPC   C4A34746  41.545  36.903   7.653
 7605POPC   C1B34747  41.814  36.901   8.553
 7605POPC   C2B34748  41.826  36.909   8.253
 7605POPC   C3B34749  41.777  36.815   7.953
 7605POPC   C4B34750  41.776  36.821   7.653
 7606POPC   NC334751  26.789   0.447   9.453
 7606POPC   PO434752  26.862   0.486   9.153
 7606POPC   GL134753  26.839   0.396   8.853
 7606POPC   GL234754  26.982   0.499   8.853
 7606POPC   C1A34755  26.794   0.422   8.553
 7606POPC   D2A34756  26.843   0.444   8.253
 7606POPC   C3A34757  26.789   0.466   7.953
 7606POPC   C4A34758  26.824   0.450   7.653
 7606POPC   C1B34759  27.108   0.497   8.553
 7606POPC   C2B34760  27.061   0.479   8.253
 7606POPC   C3B34761  27.086   0.502   7.953
 7606POPC   C4B34762  27.083   0.449   7.653
 7607POPC   NC334763  33.039  32.977   9.453
 7607POPC   PO434764  33.003  32.975   9.153
 7607POPC   GL134765  33.019  33.031   8.853
 7607POPC   GL234766  32.927  32.880   8.853
 7607POPC   C1A34767  33.048  33.045   8.553
 7607POPC   D2A34768  33.048  33.014   8.253
 7607POPC   C3A34769  33.020  32.977   7.953
 7607POPC   C4A34770  33.032  33.034   7.653
 7607POPC   C1B34771  32.920  32.776   8.553
 7607POPC   C2B34772  32.927  32.800   8.253
 7607POPC   C3B34773  32.887  32.816   7.953
 7607POPC   C4B34774  32.938  32.756   7.653
 7608POPC   NC334775   8.200  14.376   9.453
 7608POPC   PO434776   8.237  14.374   9.153
 7608POPC   GL134777   8.156  14.409   8.853
 7608POPC   GL234778   8.273  14.350   8.853
 7608POPC   C1A34779   8.187  14.453   8.553
 7608POPC   D2A34780   8.208  14.417   8.253
 7608POPC   C3A34781   8.226  14.373   7.953
 7608POPC   C4A34782   8.203  14.402   7.653
 7608POPC   C1B34783   8.396  14.374   8.553
 7608POPC   C2B34784   8.395  14.345   8.253
 7608POPC   C3B34785   8.485  14.363   7.953
 7608POPC   C4B34786   8.392  14.371   7.653
 7609POPC   NC334787  26.005  18.282   9.453
 7609POPC   PO434788  26.062  18.309   9.153
 7609POPC   GL134789  26.004  18.270   8.853
 7609POPC   GL234790  25.951  18.259   8.853
 7609POPC   C1A34791  26.026  18.245   8.553
 7609POPC   D2A34792  26.079  18.299   8.253
 7609POPC   C3A34793  26.060  18.248   7.953
 7609POPC   C4A34794  26.037  18.314   7.653
 7609POPC   C1B34795  25.789  18.259   8.553
 7609POPC   C2B34796  25.777  18.251   8.253
 7609POPC   C3B34797  25.816  18.241   7.953
 7609POPC   C4B34798  25.789  18.297   7.653
 7610POPC   NC334799   7.461  22.162   9.453
 7610POPC   PO434800   7.376  22.195   9.153
 7610POPC   GL134801   7.470  22.186   8.853
 7610POPC   GL234802   7.536  22.101   8.853
 7610POPC   C1A34803   7.435  22.136   8.553
 7610POPC   D2A34804   7.389  22.173   8.253
 7610POPC   C3A34805   7.443  22.157   7.953
 7610POPC   C4A34806   7.437  22.161   7.653
 7610POPC   C1B34807   7.610  22.013   8.553
 7610POPC   C2B34808   7.654  22.031   8.253
 7610POPC   C3B34809   7.647  21.996   7.953
 7610POPC   C4B34810   7.608  22.074   7.653
 7611POPC   NC334811  29.101  39.221   9.453
 7611POPC   PO434812  29.146  39.233   9.153
 7611POPC   GL134813  29.162  39.221   8.853
 7611POPC   GL234814  29.149  39.345   8.853
 7611POPC   C1A34815  29.161  39.247   8.553
 7611POPC   D2A34816  29.128  39.209   8.253
 7611POPC   C3A34817  29.102  39.273   7.953
 7611POPC   C4A34818  29.194  39.248   7.653
 7611POPC   C1B34819  29.106  39.463   8.553
 7611POPC   C2B34820  29.108  39.511   8.253
 7611POPC   C3B34821  29.079  39.465   7.953
 7611POPC   C4B34822  29.151  39.444   7.653
 7612POPC   NC334823  10.571  17.531   9.453
 7612POPC   PO434824  10.546  17.508   9.153
 7612POPC   GL134825  10.507  17.490   8.853
 7612POPC   GL234826  10.688  17.462   8.853
 7612POPC   C1A34827  10.527  17.554   8.553
 7612POPC   D2A34828  10.480  17.540   8.253
 7612POPC   C3A34829  10.531  17.515   7.953
 7612POPC   C4A34830  10.549  17.549   7.653
 7612POPC   C1B34831  10.754  17.471   8.553
 7612POPC   C2B34832  10.768  17.553   8.253
 7612POPC   C3B34833  10.767  17.546   7.953
 7612POPC   C4B34834  10.772  17.547   7.653
 7613POPC   NC334835  36.124  37.713   9.453
 7613POPC   PO434836  36.128  37.630   9.153
 7613POPC   GL134837  36.125  37.717   8.853
 7613POPC   GL234838  36.074  37.573   8.853
 7613POPC   C1A34839  36.165  37.727   8.553
 7613POPC   D2A34840  36.104  37.633   8.253
 7613POPC   C3A34841  36.097  37.710   7.953
 7613POPC   C4A34842  36.120  37.633   7.653
 7613POPC   C1B34843  35.912  37.480   8.553
 7613POPC   C2B34844  35.972  37.494   8.253
 7613POPC   C3B34845  35.952  37.560   7.953
 7613POPC   C4B34846  35.902  37.493   7.653
 7614POPC   NC334847  36.903  28.360   9.453
 7614POPC   PO434848  36.932  28.369   9.153
 7614POPC   GL134849  36.889  28.367   8.853
 7614POPC   GL234850  36.983  28.228   8.853
 7614POPC   C1A34851  36.913  28.395   8.553
 7614POPC   D2A34852  36.945  28.344   8.253
 7614POPC   C3A34853  36.897  28.345   7.953
 7614POPC   C4A34854  36.857  28.392   7.653
 7614POPC   C1B34855  36.958  28.084   8.553
 7614POPC   C2B34856  36.928  28.170   8.253
 7614POPC   C3B34857  36.957  28.081   7.953
 7614POPC   C4B34858  37.003  28.148   7.653
 7615POPC   NC334859  43.925  27.563   9.453
 7615POPC   PO434860  43.895  27.623   9.153
 7615POPC   GL134861  43.894  27.626   8.853
 7615POPC   GL234862  43.794  27.534   8.853
 7615POPC   C1A34863  43.926  27.554   8.553
 7615POPC   D2A34864  43.892  27.553   8.253
 7615POPC   C3A34865  43.903  27.639   7.953
 7615POPC   C4A34866  43.886  27.553   7.653
 7615POPC   C1B34867  43.626  27.448   8.553
 7615POPC   C2B34868  43.697  27.443   8.253
 7615POPC   C3B34869  43.629  27.452   7.953
 7615POPC   C4B34870  43.680  27.478   7.653
 7616POPC   NC334871  29.947  22.195   9.453
 7616POPC   PO434872  29.950  22.150   9.153
 7616POPC   GL134873  29.962  22.174   8.853
 7616POPC   GL234874  29.853  22.045   8.853
 7616POPC   C1A34875  29.961  22.152   8.553
 7616POPC   D2A34876  29.924  22.170   8.253
 7616POPC   C3A34877  29.874  22.172   7.953
 7616POPC   C4A34878  29.914  22.143   7.653
 7616POPC   C1B34879  29.774  22.004   8.553
 7616POPC   C2B34880  29.781  22.012   8.253
 7616POPC   C3B34881  29.744  22.004   7.953
 7616POPC   C4B34882  29.764  21.996   7.653
 7617POPC   NC334883  10.521  15.200   9.453
 7617POPC   PO434884  10.571  15.177   9.153
 7617POPC   GL134885  10.501  15.213   8.853
 7617POPC   GL234886  10.582  15.058   8.853
 7617POPC   C1A34887  10.536  15.133   8.553
 7617POPC   D2A34888  10.481  15.143   8.253
 7617POPC   C3A34889  10.486  15.188   7.953
 7617POPC   C4A34890  10.493  15.214   7.653
 7617POPC   C1B34891  10.683  14.936   8.553
 7617POPC   C2B34892  10.676  15.001   8.253
 7617POPC   C3B34893  10.657  14.972   7.953
 7617POPC   C4B34894  10.675  15.019   7.653
 7618POPC   NC334895  12.901  15.135   9.453
 7618POPC   PO434896  12.846  15.213   9.153
 7618POPC   GL134897  12.825  15.157   8.853
 7618POPC   GL234898  12.751  15.245   8.853
 7618POPC   C1A34899  12.834  15.229   8.553
 7618POPC   D2A34900  12.890  15.152   8.253
 7618POPC   C3A34901  12.860  15.148   7.953
 7618POPC   C4A34902  12.812  15.189   7.653
 7618POPC   C1B34903  12.641  15.310   8.553
 7618POPC   C2B34904  12.611  15.317   8.253
 7618POPC   C3B34905  12.641  15.355   7.953
 7618POPC   C4B34906  12.608  15.326   7.653
 7619POPC   NC334907  29.137  33.839   9.453
 7619POPC   PO434908  29.110  33.817   9.153
 7619POPC   GL134909  29.179  33.772   8.853
 7619POPC   GL234910  29.195  33.918   8.853
 7619POPC   C1A34911  29.151  33.767   8.553
 7619POPC   D2A34912  29.178  33.754   8.253
 7619POPC   C3A34913  29.166  33.807   7.953
 7619POPC   C4A34914  29.193  33.804   7.653
 7619POPC   C1B34915  29.241  34.013   8.553
 7619POPC   C2B34916  29.294  33.992   8.253
 7619POPC   C3B34917  29.238  34.028   7.953
 7619POPC   C4B34918  29.303  34.033   7.653
 7620POPC   NC334919  17.473  26.027   9.453
 7620POPC   PO434920  17.505  26.045   9.153
 7620POPC   GL134921  17.502  26.023   8.853
 7620POPC   GL234922  17.543  26.180   8.853
 7620POPC   C1A34923  17.471  26.002   8.553
 7620POPC   D2A34924  17.510  26.043   8.253
 7620POPC   C3A34925  17.473  26.030   7.953
 7620POPC   C4A34926  17.492  26.057   7.653
 7620POPC   C1B34927  17.510  26.291   8.553
 7620POPC   C2B34928  17.478  26.316   8.253
 7620POPC   C3B34929  17.463  26.282   7.953
 7620POPC   C4B34930  17.511  26.295   7.653
 7621POPC   NC334931  36.126  15.146   9.453
 7621POPC   PO434932  36.104  15.163   9.153
 7621POPC   GL134933  36.101  15.175   8.853
 7621POPC   GL234934  36.231  15.304   8.853
 7621POPC   C1A34935  36.138  15.204   8.553
 7621POPC   D2A34936  36.140  15.185   8.253
 7621POPC   C3A34937  36.103  15.197   7.953
 7621POPC   C4A34938  36.119  15.163   7.653
 7621POPC   C1B34939  36.210  15.430   8.553
 7621POPC   C2B34940  36.211  15.358   8.253
 7621POPC   C3B34941  36.286  15.417   7.953
 7621POPC   C4B34942  36.244  15.408   7.653
 7622POPC   NC334943  30.689  36.168   9.453
 7622POPC   PO434944  30.666  36.102   9.153
 7622POPC   GL134945  30.691  36.149   8.853
 7622POPC   GL234946  30.578  36.030   8.853
 7622POPC   C1A34947  30.723  36.107   8.553
 7622POPC   D2A34948  30.689  36.096   8.253
 7622POPC   C3A34949  30.676  36.174   7.953
 7622POPC   C4A34950  30.730  36.171   7.653
 7622POPC   C1B34951  30.464  35.985   8.553
 7622POPC   C2B34952  30.494  35.976   8.253
 7622POPC   C3B34953  30.521  36.031   7.953
 7622POPC   C4B34954  30.500  35.983   7.653
 7623POPC   NC334955  37.699  26.851   9.453
 7623POPC   PO434956  37.705  26.785   9.153
 7623POPC   GL134957  37.643  26.816   8.853
 7623POPC   GL234958  37.749  26.937   8.853
 7623POPC   C1A34959  37.700  26.811   8.553
 7623POPC   D2A34960  37.724  26.782   8.253
 7623POPC   C3A34961  37.653  26.816   7.953
 7623POPC   C4A34962  37.670  26.861   7.653
 7623POPC   C1B34963  37.864  26.936   8.553
 7623POPC   C2B34964  37.828  26.930   8.253
 7623POPC   C3B34965  37.825  26.964   7.953
 7623POPC   C4B34966  37.896  26.954   7.653
 7624POPC   NC334967  19.813  38.434   9.453
 7624POPC   PO434968  19.834  38.423   9.153
 7624POPC   GL134969  19.841  38.407   8.853
 7624POPC   GL234970  19.886  38.309   8.853
 7624POPC   C1A34971  19.863  38.483   8.553
 7624POPC   D2A34972  19.791  38.467   8.253
 7624POPC   C3A34973  19.830  38.443   7.953
 7624POPC   C4A34974  19.847  38.484   7.653
 7624POPC   C1B34975  19.923  38.206   8.553
 7624POPC   C2B34976  19.918  38.184   8.253
 7624POPC   C3B34977  19.918  38.173   7.953
 7624POPC   C4B34978  19.852  38.183   7.653
 7625POPC   NC334979  37.642  14.374   9.453
 7625POPC   PO434980  37.647  14.359   9.153
 7625POPC   GL134981  37.675  14.371   8.853
 7625POPC   GL234982  37.619  14.505   8.853
 7625POPC   C1A34983  37.669  14.453   8.553
 7625POPC   D2A34984  37.639  14.391   8.253
 7625POPC   C3A34985  37.723  14.371   7.953
 7625POPC   C4A34986  37.726  14.442   7.653
 7625POPC   C1B34987  37.632  14.642   8.553
 7625POPC   C2B34988  37.651  14.644   8.253
 7625POPC   C3B34989  37.625  14.624   7.953
 7625POPC   C4B34990  37.589  14.673   7.653
 7626POPC   NC334991  24.443  36.096   9.453
 7626POPC   PO434992  24.463  36.167   9.153
 7626POPC   GL134993  24.535  36.094   8.853
 7626POPC   GL234994  24.423  36.055   8.853
 7626POPC   C1A34995  24.493  36.085   8.553
 7626POPC   D2A34996  24.539  36.094   8.253
 7626POPC   C3A34997  24.443  36.085   7.953
 7626POPC   C4A34998  24.508  36.160   7.653
 7626POPC   C1B34999  24.381  35.871   8.553
 7626POPC   C2B35000  24.326  35.923   8.253
 7626POPC   C3B35001  24.335  35.905   7.953
 7626POPC   C4B35002  24.319  35.934   7.653
 7627POPC   NC335003  43.897   7.402   9.453
 7627POPC   PO435004  43.838   7.433   9.153
 7627POPC   GL135005  43.895   7.395   8.853
 7627POPC   GL235006  43.826   7.479   8.853
 7627POPC   C1A35007  43.936   7.380   8.553
 7627POPC   D2A35008  43.926   7.387   8.253
 7627POPC   C3A35009  43.932   7.419   7.953
 7627POPC   C4A35010  43.935   7.464   7.653
 7627POPC   C1B35011  43.651   7.608   8.553
 7627POPC   C2B35012  43.698   7.612   8.253
 7627POPC   C3B35013  43.737   7.597   7.953
 7627POPC   C4B35014  43.653   7.634   7.653
 7628POPC   NC335015  29.102  32.269   9.453
 7628POPC   PO435016  29.133  32.248   9.153
 7628POPC   GL135017  29.099  32.201   8.853
 7628POPC   GL235018  29.139  32.412   8.853
 7628POPC   C1A35019  29.136  32.257   8.553
 7628POPC   D2A35020  29.119  32.242   8.253
 7628POPC   C3A35021  29.168  32.245   7.953
 7628POPC   C4A35022  29.162  32.287   7.653
 7628POPC   C1B35023  29.103  32.464   8.553
 7628POPC   C2B35024  29.130  32.457   8.253
 7628POPC   C3B35025  29.144  32.537   7.953
 7628POPC   C4B35026  29.120  32.506   7.653
 7629POPC   NC335027  43.899   3.549   9.453
 7629POPC   PO435028  43.928   3.496   9.153
 7629POPC   GL135029  43.899   3.569   8.853
 7629POPC   GL235030  43.761   3.465   8.853
 7629POPC   C1A35031  43.878   3.563   8.553
 7629POPC   D2A35032  43.847   3.549   8.253
 7629POPC   C3A35033  43.879   3.558   7.953
 7629POPC   C4A35034  43.855   3.533   7.653
 7629POPC   C1B35035  43.637   3.397   8.553
 7629POPC   C2B35036  43.670   3.419   8.253
 7629POPC   C3B35037  43.702   3.415   7.953
 7629POPC   C4B35038  43.637   3.431   7.653
 7630POPC   NC335039  33.061  36.102   9.453
 7630POPC   PO435040  33.020  36.171   9.153
 7630POPC   GL135041  32.982  36.112   8.853
 7630POPC   GL235042  32.891  36.190   8.853
 7630POPC   C1A35043  32.998  36.141   8.553
 7630POPC   D2A35044  33.048  36.148   8.253
 7630POPC   C3A35045  33.052  36.086   7.953
 7630POPC   C4A35046  33.016  36.160   7.653
 7630POPC   C1B35047  32.863  36.302   8.553
 7630POPC   C2B35048  32.846  36.346   8.253
 7630POPC   C3B35049  32.839  36.268   7.953
 7630POPC   C4B35050  32.819  36.299   7.653
 7631POPC   NC335051  10.547  36.942   9.453
 7631POPC   PO435052  10.548  36.908   9.153
 7631POPC   GL135053  10.526  36.879   8.853
 7631POPC   GL235054  10.476  36.790   8.853
 7631POPC   C1A35055  10.564  36.947   8.553
 7631POPC   D2A35056  10.492  36.868   8.253
 7631POPC   C3A35057  10.567  36.953   7.953
 7631POPC   C4A35058  10.536  36.878   7.653
 7631POPC   C1B35059  10.511  36.654   8.553
 7631POPC   C2B35060  10.455  36.675   8.253
 7631POPC   C3B35061  10.511  36.617   7.953
 7631POPC   C4B35062  10.506  36.649   7.653
 7632POPC   NC335063   9.783   9.012   9.453
 7632POPC   PO435064   9.714   9.010   9.153
 7632POPC   GL135065   9.762   9.007   8.853
 7632POPC   GL235066   9.643   9.012   8.853
 7632POPC   C1A35067   9.713   8.924   8.553
 7632POPC   D2A35068   9.731   8.954   8.253
 7632POPC   C3A35069   9.770   8.940   7.953
 7632POPC   C4A35070   9.739   8.960   7.653
 7632POPC   C1B35071   9.557   9.106   8.553
 7632POPC   C2B35072   9.492   9.087   8.253
 7632POPC   C3B35073   9.530   9.040   7.953
 7632POPC   C4B35074   9.551   9.061   7.653
 7633POPC   NC335075  29.102  19.842   9.453
 7633POPC   PO435076  29.116  19.800   9.153
 7633POPC   GL135077  29.152  19.800   8.853
 7633POPC   GL235078  29.052  19.896   8.853
 7633POPC   C1A35079  29.136  19.814   8.553
 7633POPC   D2A35080  29.191  19.842   8.253
 7633POPC   C3A35081  29.191  19.796   7.953
 7633POPC   C4A35082  29.178  19.862   7.653
 7633POPC   C1B35083  28.992  20.019   8.553
 7633POPC   C2B35084  28.983  20.032   8.253
 7633POPC   C3B35085  29.014  19.984   7.953
 7633POPC   C4B35086  28.967  19.968   7.653
 7634POPC   NC335087  34.614  31.458   9.453
 7634POPC   PO435088  34.536  31.520   9.153
 7634POPC   GL135089  34.602  31.427   8.853
 7634POPC   GL235090  34.515  31.629   8.853
 7634POPC   C1A35091  34.621  31.502   8.553
 7634POPC   D2A35092  34.527  31.512   8.253
 7634POPC   C3A35093  34.606  31.503   7.953
 7634POPC   C4A35094  34.567  31.492   7.653
 7634POPC   C1B35095  34.525  31.675   8.553
 7634POPC   C2B35096  34.456  31.710   8.253
 7634POPC   C3B35097  34.468  31.700   7.953
 7634POPC   C4B35098  34.470  31.733   7.653
 7635POPC   NC335099  39.278  26.784   9.453
 7635POPC   PO435100  39.224  26.860   9.153
 7635POPC   GL135101  39.183  26.810   8.853
 7635POPC   GL235102  39.252  26.701   8.853
 7635POPC   C1A35103  39.207  26.849   8.553
 7635POPC   D2A35104  39.229  26.829   8.253
 7635POPC   C3A35105  39.274  26.800   7.953
 7635POPC   C4A35106  39.188  26.773   7.653
 7635POPC   C1B35107  39.376  26.569   8.553
 7635POPC   C2B35108  39.388  26.580   8.253
 7635POPC   C3B35109  39.341  26.642   7.953
 7635POPC   C4B35110  39.297  26.637   7.653
 7636POPC   NC335111  34.531   8.219   9.453
 7636POPC   PO435112  34.537   8.178   9.153
 7636POPC   GL135113  34.534   8.225   8.853
 7636POPC   GL235114  34.468   8.198   8.853
 7636POPC   C1A35115  34.562   8.190   8.553
 7636POPC   D2A35116  34.577   8.203   8.253
 7636POPC   C3A35117  34.584   8.193   7.953
 7636POPC   C4A35118  34.528   8.216   7.653
 7636POPC   C1B35119  34.371   8.215   8.553
 7636POPC   C2B35120  34.340   8.182   8.253
 7636POPC   C3B35121  34.316   8.152   7.953
 7636POPC   C4B35122  34.330   8.201   7.653
 7637POPC   NC335123  34.617  41.528   9.453
 7637POPC   PO435124  34.615  41.582   9.153
 7637POPC   GL135125  34.558  41.591   8.853
 7637POPC   GL235126  34.576  41.402   8.853
 7637POPC   C1A35127  34.537  41.557   8.553
 7637POPC   D2A35128  34.615  41.546   8.253
 7637POPC   C3A35129  34.582  41.531   7.953
 7637POPC   C4A35130  34.603  41.537   7.653
 7637POPC   C1B35131  34.665  41.279   8.553
 7637POPC   C2B35132  34.600  41.357   8.253
 7637POPC   C3B35133  34.608  41.333   7.953
 7637POPC   C4B35134  34.647  41.311   7.653
 7638POPC   NC335135  16.003  12.118   9.453
 7638POPC   PO435136  15.960  12.056   9.153
 7638POPC   GL135137  15.927  12.108   8.853
 7638POPC   GL235138  15.997  12.177   8.853
 7638POPC   C1A35139  15.907  12.066   8.553
 7638POPC   D2A35140  16.003  12.113   8.253
 7638POPC   C3A35141  15.968  12.051   7.953
 7638POPC   C4A35142  15.961  12.086   7.653
 7638POPC   C1B35143  16.041  12.318   8.553
 7638POPC   C2B35144  16.107  12.334   8.253
 7638POPC   C3B35145  16.048  12.326   7.953
 7638POPC   C4B35146  16.064  12.279   7.653
 7639POPC   NC335147  35.365  44.691   9.453
 7639POPC   PO435148  35.339  44.697   9.153
 7639POPC   GL135149  35.377  44.673   8.853
 7639POPC   GL235150  35.221  44.647   8.853
 7639POPC   C1A35151  35.333  44.631   8.553
 7639POPC   D2A35152  35.398  44.628   8.253
 7639POPC   C3A35153  35.391  44.681   7.953
 7639POPC   C4A35154  35.336  44.667   7.653
 7639POPC   C1B35155  35.084  44.560   8.553
 7639POPC   C2B35156  35.075  44.535   8.253
 7639POPC   C3B35157  35.144  44.530   7.953
 7639POPC   C4B35158  35.070  44.531   7.653
 7640POPC   NC335159  40.004  25.286   9.453
 7640POPC   PO435160  40.041  25.254   9.153
 7640POPC   GL135161  40.027  25.241   8.853
 7640POPC   GL235162  39.870  25.220   8.853
 7640POPC   C1A35163  40.046  25.283   8.553
 7640POPC   D2A35164  40.039  25.273   8.253
 7640POPC   C3A35165  40.030  25.293   7.953
 7640POPC   C4A35166  39.968  25.233   7.653
 7640POPC   C1B35167  39.740  25.207   8.553
 7640POPC   C2B35168  39.786  25.204   8.253
 7640POPC   C3B35169  39.764  25.279   7.953
 7640POPC   C4B35170  39.748  25.204   7.653
 7641POPC   NC335171  34.547  27.580   9.453
 7641POPC   PO435172  34.526  27.598   9.153
 7641POPC   GL135173  34.530  27.607   8.853
 7641POPC   GL235174  34.558  27.463   8.853
 7641POPC   C1A35175  34.597  27.590   8.553
 7641POPC   D2A35176  34.582  27.548   8.253
 7641POPC   C3A35177  34.609  27.609   7.953
 7641POPC   C4A35178  34.589  27.633   7.653
 7641POPC   C1B35179  34.514  27.301   8.553
 7641POPC   C2B35180  34.496  27.360   8.253
 7641POPC   C3B35181  34.489  27.364   7.953
 7641POPC   C4B35182  34.576  27.300   7.653
 7642POPC   NC335183  13.648  23.742   9.453
 7642POPC   PO435184  13.583  23.754   9.153
 7642POPC   GL135185  13.630  23.675   8.853
 7642POPC   GL235186  13.686  23.597   8.853
 7642POPC   C1A35187  13.638  23.681   8.553
 7642POPC   D2A35188  13.671  23.763   8.253
 7642POPC   C3A35189  13.640  23.694   7.953
 7642POPC   C4A35190  13.666  23.695   7.653
 7642POPC   C1B35191  13.821  23.551   8.553
 7642POPC   C2B35192  13.816  23.543   8.253
 7642POPC   C3B35193  13.746  23.461   7.953
 7642POPC   C4B35194  13.725  23.552   7.653
 7643POPC   NC335195  39.998  30.731   9.453
 7643POPC   PO435196  40.011  30.680   9.153
 7643POPC   GL135197  40.011  30.746   8.853
 7643POPC   GL235198  39.935  30.832   8.853
 7643POPC   C1A35199  39.991  30.679   8.553
 7643POPC   D2A35200  39.974  30.665   8.253
 7643POPC   C3A35201  40.036  30.650   7.953
 7643POPC   C4A35202  40.051  30.687   7.653
 7643POPC   C1B35203  39.952  30.919   8.553
 7643POPC   C2B35204  39.958  30.970   8.253
 7643POPC   C3B35205  39.913  30.888   7.953
 7643POPC   C4B35206  39.921  30.895   7.653
 7644POPC   NC335207  40.741  20.655   9.453
 7644POPC   PO435208  40.738  20.641   9.153
 7644POPC   GL135209  40.740  20.578   8.853
 7644POPC   GL235210  40.712  20.670   8.853
 7644POPC   C1A35211  40.736  20.635   8.553
 7644POPC   D2A35212  40.823  20.649   8.253
 7644POPC   C3A35213  40.795  20.570   7.953
 7644POPC   C4A35214  40.829  20.587   7.653
 7644POPC   C1B35215  40.530  20.761   8.553
 7644POPC   C2B35216  40.594  20.720   8.253
 7644POPC   C3B35217  40.545  20.728   7.953
 7644POPC   C4B35218  40.576  20.692   7.653
 7645POPC   NC335219  34.538  12.890   9.453
 7645POPC   PO435220  34.554  12.859   9.153
 7645POPC   GL135221  34.605  12.860   8.853
 7645POPC   GL235222  34.619  12.963   8.853
 7645POPC   C1A35223  34.618  12.821   8.553
 7645POPC   D2A35224  34.569  12.838   8.253
 7645POPC   C3A35225  34.586  12.868   7.953
 7645POPC   C4A35226  34.549  12.819   7.653
 7645POPC   C1B35227  34.676  13.064   8.553
 7645POPC   C2B35228  34.737  13.058   8.253
 7645POPC   C3B35229  34.741  13.003   7.953
 7645POPC   C4B35230  34.720  13.081   7.653
 7646POPC   NC335231  14.402  10.530   9.453
 7646POPC   PO435232  14.391  10.483   9.153
 7646POPC   GL135233  14.440  10.517   8.853
 7646POPC   GL235234  14.265  10.619   8.853
 7646POPC   C1A35235  14.449  10.550   8.553
 7646POPC   D2A35236  14.396  10.545   8.253
 7646POPC   C3A35237  14.414  10.510   7.953
 7646POPC   C4A35238  14.376  10.486   7.653
 7646POPC   C1B35239  14.152  10.643   8.553
 7646POPC   C2B35240  14.222  10.641   8.253
 7646POPC   C3B35241  14.151  10.704   7.953
 7646POPC   C4B35242  14.177  10.672   7.653
 7647POPC   NC335243  43.085  31.443   9.453
 7647POPC   PO435244  43.096  31.471   9.153
 7647POPC   GL135245  43.133  31.481   8.853
 7647POPC   GL235246  43.173  31.354   8.853
 7647POPC   C1A35247  43.116  31.463   8.553
 7647POPC   D2A35248  43.096  31.497   8.253
 7647POPC   C3A35249  43.077  31.423   7.953
 7647POPC   C4A35250  43.151  31.456   7.653
 7647POPC   C1B35251  43.321  31.333   8.553
 7647POPC   C2B35252  43.273  31.310   8.253
 7647POPC   C3B35253  43.263  31.285   7.953
 7647POPC   C4B35254  43.245  31.338   7.653
 7648POPC   NC335255  22.896  26.803   9.453
 7648POPC   PO435256  22.889  26.791   9.153
 7648POPC   GL135257  22.904  26.812   8.853
 7648POPC   GL235258  22.858  26.892   8.853
 7648POPC   C1A35259  22.940  26.816   8.553
 7648POPC   D2A35260  22.909  26.820   8.253
 7648POPC   C3A35261  22.933  26.836   7.953
 7648POPC   C4A35262  22.948  26.785   7.653
 7648POPC   C1B35263  22.873  27.050   8.553
 7648POPC   C2B35264  22.853  27.036   8.253
 7648POPC   C3B35265  22.867  27.045   7.953
 7648POPC   C4B35266  22.800  27.045   7.653
 7649POPC   NC335267  15.980  40.018   9.453
 7649POPC   PO435268  15.987  39.998   9.153
 7649POPC   GL135269  15.968  40.001   8.853
 7649POPC   GL235270  15.797  39.935   8.853
 7649POPC   C1A35271  15.911  39.974   8.553
 7649POPC   D2A35272  15.983  40.011   8.253
 7649POPC   C3A35273  15.964  40.015   7.953
 7649POPC   C4A35274  15.969  40.044   7.653
 7649POPC   C1B35275  15.757  39.870   8.553
 7649POPC   C2B35276  15.753  39.923   8.253
 7649POPC   C3B35277  15.746  39.855   7.953
 7649POPC   C4B35278  15.725  39.867   7.653
 7650POPC   NC335279  34.602  35.359   9.453
 7650POPC   PO435280  34.536  35.329   9.153
 7650POPC   GL135281  34.580  35.346   8.853
 7650POPC   GL235282  34.723  35.325   8.853
 7650POPC   C1A35283  34.590  35.358   8.553
 7650POPC   D2A35284  34.526  35.356   8.253
 7650POPC   C3A35285  34.620  35.329   7.953
 7650POPC   C4A35286  34.554  35.366   7.653
 7650POPC   C1B35287  34.823  35.212   8.553
 7650POPC   C2B35288  34.749  35.226   8.253
 7650POPC   C3B35289  34.796  35.231   7.953
 7650POPC   C4B35290  34.814  35.207   7.653
 7651POPC   NC335291  36.135  38.427   9.453
 7651POPC   PO435292  36.124  38.465   9.153
 7651POPC   GL135293  36.132  38.424   8.853
 7651POPC   GL235294  36.009  38.537   8.853
 7651POPC   C1A35295  36.123  38.502   8.553
 7651POPC   D2A35296  36.084  38.412   8.253
 7651POPC   C3A35297  36.112  38.435   7.953
 7651POPC   C4A35298  36.123  38.502   7.653
 7651POPC   C1B35299  35.954  38.626   8.553
 7651POPC   C2B35300  35.942  38.659   8.253
 7651POPC   C3B35301  36.000  38.627   7.953
 7651POPC   C4B35302  35.943  38.695   7.653
 7652POPC   NC335303  27.594  41.539   9.453
 7652POPC   PO435304  27.631  41.571   9.153
 7652POPC   GL135305  27.621  41.524   8.853
 7652POPC   GL235306  27.580  41.647   8.853
 7652POPC   C1A35307  27.575  41.537   8.553
 7652POPC   D2A35308  27.631  41.606   8.253
 7652POPC   C3A35309  27.634  41.605   7.953
 7652POPC   C4A35310  27.550  41.608   7.653
 7652POPC   C1B35311  27.506  41.827   8.553
 7652POPC   C2B35312  27.540  41.815   8.253
 7652POPC   C3B35313  27.547  41.842   7.953
 7652POPC   C4B35314  27.562  41.778   7.653
 7653POPC   NC335315  34.597  37.703   9.453
 7653POPC   PO435316  34.569  37.639   9.153
 7653POPC   GL135317  34.536  37.660   8.853
 7653POPC   GL235318  34.476  37.585   8.853
 7653POPC   C1A35319  34.532  37.728   8.553
 7653POPC   D2A35320  34.551  37.650   8.253
 7653POPC   C3A35321  34.552  37.636   7.953
 7653POPC   C4A35322  34.607  37.653   7.653
 7653POPC   C1B35323  34.383  37.590   8.553
 7653POPC   C2B35324  34.315  37.518   8.253
 7653POPC   C3B35325  34.377  37.570   7.953
 7653POPC   C4B35326  34.391  37.565   7.653
 7654POPC   NC335327  42.337   2.734   9.453
 7654POPC   PO435328  42.288   2.753   9.153
 7654POPC   GL135329  42.332   2.769   8.853
 7654POPC   GL235330  42.222   2.728   8.853
 7654POPC   C1A35331  42.338   2.751   8.553
 7654POPC   D2A35332  42.343   2.787   8.253
 7654POPC   C3A35333  42.370   2.809   7.953
 7654POPC   C4A35334  42.342   2.781   7.653
 7654POPC   C1B35335  42.173   2.579   8.553
 7654POPC   C2B35336  42.109   2.602   8.253
 7654POPC   C3B35337  42.095   2.576   7.953
 7654POPC   C4B35338  42.152   2.583   7.653
 7655POPC   NC335339  12.054   8.171   9.453
 7655POPC   PO435340  12.072   8.164   9.153
 7655POPC   GL135341  12.109   8.155   8.853
 7655POPC   GL235342  12.025   8.089   8.853
 7655POPC   C1A35343  12.092   8.215   8.553
 7655POPC   D2A35344  12.102   8.222   8.253
 7655POPC   C3A35345  12.109   8.237   7.953
 7655POPC   C4A35346  12.069   8.235   7.653
 7655POPC   C1B35347  11.983   7.989   8.553
 7655POPC   C2B35348  12.015   7.903   8.253
 7655POPC   C3B35349  12.044   7.908   7.953
 7655POPC   C4B35350  12.060   7.965   7.653
 7656POPC   NC335351  15.223  43.884   9.453
 7656POPC   PO435352  15.197  43.915   9.153
 7656POPC   GL135353  15.195  43.878   8.853
 7656POPC   GL235354  15.125  43.764   8.853
 7656POPC   C1A35355  15.193  43.847   8.553
 7656POPC   D2A35356  15.200  43.850   8.253
 7656POPC   C3A35357  15.198  43.911   7.953
 7656POPC   C4A35358  15.172  43.843   7.653
 7656POPC   C1B35359  15.104  43.673   8.553
 7656POPC   C2B35360  15.077  43.676   8.253
 7656POPC   C3B35361  15.163  43.604   7.953
 7656POPC   C4B35362  15.162  43.612   7.653
 7657POPC   NC335363  24.487  43.113   9.453
 7657POPC   PO435364  24.510  43.073   9.153
 7657POPC   GL135365  24.472  43.076   8.853
 7657POPC   GL235366  24.340  43.092   8.853
 7657POPC   C1A35367  24.488  43.062   8.553
 7657POPC   D2A35368  24.514  43.131   8.253
 7657POPC   C3A35369  24.516  43.102   7.953
 7657POPC   C4A35370  24.479  43.106   7.653
 7657POPC   C1B35371  24.238  43.035   8.553
 7657POPC   C2B35372  24.280  43.103   8.253
 7657POPC   C3B35373  24.206  43.072   7.953
 7657POPC   C4B35374  24.200  43.058   7.653
 7658POPC   NC335375  22.175  29.114   9.453
 7658POPC   PO435376  22.207  29.170   9.153
 7658POPC   GL135377  22.153  29.143   8.853
 7658POPC   GL235378  22.228  29.195   8.853
 7658POPC   C1A35379  22.210  29.132   8.553
 7658POPC   D2A35380  22.184  29.118   8.253
 7658POPC   C3A35381  22.196  29.147   7.953
 7658POPC   C4A35382  22.154  29.163   7.653
 7658POPC   C1B35383  22.367  29.242   8.553
 7658POPC   C2B35384  22.401  29.306   8.253
 7658POPC   C3B35385  22.398  29.311   7.953
 7658POPC   C4B35386  22.419  29.314   7.653
 7659POPC   NC335387  17.497  18.236   9.453
 7659POPC   PO435388  17.508  18.283   9.153
 7659POPC   GL135389  17.535  18.259   8.853
 7659POPC   GL235390  17.640  18.284   8.853
 7659POPC   C1A35391  17.515  18.331   8.553
 7659POPC   D2A35392  17.496  18.242   8.253
 7659POPC   C3A35393  17.486  18.286   7.953
 7659POPC   C4A35394  17.515  18.325   7.653
 7659POPC   C1B35395  17.793  18.303   8.553
 7659POPC   C2B35396  17.716  18.341   8.253
 7659POPC   C3B35397  17.755  18.321   7.953
 7659POPC   C4B35398  17.710  18.324   7.653
 7660POPC   NC335399  10.490  18.305   9.453
 7660POPC   PO435400  10.571  18.275   9.153
 7660POPC   GL135401  10.487  18.238   8.853
 7660POPC   GL235402  10.425  18.362   8.853
 7660POPC   C1A35403  10.504  18.275   8.553
 7660POPC   D2A35404  10.519  18.310   8.253
 7660POPC   C3A35405  10.475  18.245   7.953
 7660POPC   C4A35406  10.534  18.315   7.653
 7660POPC   C1B35407  10.299  18.424   8.553
 7660POPC   C2B35408  10.277  18.356   8.253
 7660POPC   C3B35409  10.342  18.368   7.953
 7660POPC   C4B35410  10.265  18.347   7.653
 7661POPC   NC335411  40.015  42.322   9.453
 7661POPC   PO435412  39.988  42.342   9.153
 7661POPC   GL135413  39.964  42.381   8.853
 7661POPC   GL235414  40.115  42.318   8.853
 7661POPC   C1A35415  39.985  42.338   8.553
 7661POPC   D2A35416  40.005  42.360   8.253
 7661POPC   C3A35417  39.983  42.322   7.953
 7661POPC   C4A35418  40.026  42.288   7.653
 7661POPC   C1B35419  40.262  42.267   8.553
 7661POPC   C2B35420  40.241  42.311   8.253
 7661POPC   C3B35421  40.242  42.250   7.953
 7661POPC   C4B35422  40.260  42.246   7.653
 7662POPC   NC335423   8.153   5.047   9.453
 7662POPC   PO435424   8.220   5.111   9.153
 7662POPC   GL135425   8.214   5.115   8.853
 7662POPC   GL235426   8.271   5.143   8.853
 7662POPC   C1A35427   8.162   5.089   8.553
 7662POPC   D2A35428   8.230   5.060   8.253
 7662POPC   C3A35429   8.223   5.129   7.953
 7662POPC   C4A35430   8.244   5.081   7.653
 7662POPC   C1B35431   8.332   5.311   8.553
 7662POPC   C2B35432   8.372   5.285   8.253
 7662POPC   C3B35433   8.324   5.245   7.953
 7662POPC   C4B35434   8.406   5.280   7.653
 7663POPC   NC335435   0.402  15.136   9.453
 7663POPC   PO435436   0.479  15.213   9.153
 7663POPC   GL135437   0.440  15.226   8.853
 7663POPC   GL235438   0.520  15.135   8.853
 7663POPC   C1A35439   0.447  15.179   8.553
 7663POPC   D2A35440   0.404  15.220   8.253
 7663POPC   C3A35441   0.442  15.166   7.953
 7663POPC   C4A35442   0.417  15.131   7.653
 7663POPC   C1B35443   0.656  15.074   8.553
 7663POPC   C2B35444   0.651  15.079   8.253
 7663POPC   C3B35445   0.668  15.170   7.953
 7663POPC   C4B35446   0.639  15.117   7.653
 7664POPC   NC335447  27.623  24.503   9.453
 7664POPC   PO435448  27.549  24.481   9.153
 7664POPC   GL135449  27.591  24.478   8.853
 7664POPC   GL235450  27.538  24.417   8.853
 7664POPC   C1A35451  27.544  24.514   8.553
 7664POPC   D2A35452  27.558  24.463   8.253
 7664POPC   C3A35453  27.616  24.441   7.953
 7664POPC   C4A35454  27.543  24.514   7.653
 7664POPC   C1B35455  27.440  24.252   8.553
 7664POPC   C2B35456  27.501  24.273   8.253
 7664POPC   C3B35457  27.521  24.257   7.953
 7664POPC   C4B35458  27.512  24.261   7.653
 7665POPC   NC335459  29.110  43.868   9.453
 7665POPC   PO435460  29.191  43.840   9.153
 7665POPC   GL135461  29.113  43.912   8.853
 7665POPC   GL235462  29.050  43.749   8.853
 7665POPC   C1A35463  29.172  43.910   8.553
 7665POPC   D2A35464  29.167  43.872   8.253
 7665POPC   C3A35465  29.182  43.851   7.953
 7665POPC   C4A35466  29.175  43.895   7.653
 7665POPC   C1B35467  29.035  43.651   8.553
 7665POPC   C2B35468  28.948  43.670   8.253
 7665POPC   C3B35469  28.978  43.723   7.953
 7665POPC   C4B35470  29.035  43.705   7.653
 7666POPC   NC335471   1.173  12.089   9.453
 7666POPC   PO435472   1.186  12.053   9.153
 7666POPC   GL135473   1.254  12.040   8.853
 7666POPC   GL235474   1.192  11.970   8.853
 7666POPC   C1A35475   1.178  12.109   8.553
 7666POPC   D2A35476   1.187  12.095   8.253
 7666POPC   C3A35477   1.259  12.048   7.953
 7666POPC   C4A35478   1.208  12.109   7.653
 7666POPC   C1B35479   1.210  11.848   8.553
 7666POPC   C2B35480   1.232  11.826   8.253
 7666POPC   C3B35481   1.256  11.842   7.953
 7666POPC   C4B35482   1.271  11.878   7.653
 7667POPC   NC335483   9.778  10.519   9.453
 7667POPC   PO435484   9.788  10.548   9.153
 7667POPC   GL135485   9.774  10.478   8.853
 7667POPC   GL235486   9.708  10.644   8.853
 7667POPC   C1A35487   9.715  10.490   8.553
 7667POPC   D2A35488   9.752  10.487   8.253
 7667POPC   C3A35489   9.767  10.569   7.953
 7667POPC   C4A35490   9.733  10.505   7.653
 7667POPC   C1B35491   9.637  10.745   8.553
 7667POPC   C2B35492   9.622  10.700   8.253
 7667POPC   C3B35493   9.655  10.743   7.953
 7667POPC   C4B35494   9.634  10.693   7.653
 7668POPC   NC335495  15.191  24.482   9.453
 7668POPC   PO435496  15.153  24.471   9.153
 7668POPC   GL135497  15.224  24.517   8.853
 7668POPC   GL235498  15.316  24.539   8.853
 7668POPC   C1A35499  15.135  24.457   8.553
 7668POPC   D2A35500  15.199  24.520   8.253
 7668POPC   C3A35501  15.153  24.472   7.953
 7668POPC   C4A35502  15.202  24.528   7.653
 7668POPC   C1B35503  15.417  24.630   8.553
 7668POPC   C2B35504  15.376  24.621   8.253
 7668POPC   C3B35505  15.369  24.590   7.953
 7668POPC   C4B35506  15.387  24.615   7.653
 7669POPC   NC335507  26.814  39.213   9.453
 7669POPC   PO435508  26.829  39.221   9.153
 7669POPC   GL135509  26.819  39.246   8.853
 7669POPC   GL235510  26.882  39.311   8.853
 7669POPC   C1A35511  26.809  39.200   8.553
 7669POPC   D2A35512  26.803  39.206   8.253
 7669POPC   C3A35513  26.823  39.227   7.953
 7669POPC   C4A35514  26.833  39.196   7.653
 7669POPC   C1B35515  26.879  39.455   8.553
 7669POPC   C2B35516  26.849  39.439   8.253
 7669POPC   C3B35517  26.835  39.498   7.953
 7669POPC   C4B35518  26.858  39.511   7.653
 7670POPC   NC335519   6.670  20.583   9.453
 7670POPC   PO435520   6.660  20.604   9.153
 7670POPC   GL135521   6.673  20.651   8.853
 7670POPC   GL235522   6.677  20.467   8.853
 7670POPC   C1A35523   6.686  20.648   8.553
 7670POPC   D2A35524   6.629  20.643   8.253
 7670POPC   C3A35525   6.647  20.579   7.953
 7670POPC   C4A35526   6.659  20.604   7.653
 7670POPC   C1B35527   6.831  20.408   8.553
 7670POPC   C2B35528   6.826  20.371   8.253
 7670POPC   C3B35529   6.828  20.454   7.953
 7670POPC   C4B35530   6.769  20.424   7.653
 7671POPC   NC335531  27.601   2.722   9.453
 7671POPC   PO435532  27.620   2.784   9.153
 7671POPC   GL135533  27.602   2.733   8.853
 7671POPC   GL235534  27.532   2.856   8.853
 7671POPC   C1A35535  27.544   2.747   8.553
 7671POPC   D2A35536  27.612   2.749   8.253
 7671POPC   C3A35537  27.594   2.735   7.953
 7671POPC   C4A35538  27.572   2.815   7.653
 7671POPC   C1B35539  27.469   2.968   8.553
 7671POPC   C2B35540  27.499   2.974   8.253
 7671POPC   C3B35541  27.448   2.991   7.953
 7671POPC   C4B35542  27.510   2.982   7.653
 7672POPC   NC335543  18.295  33.791   9.453
 7672POPC   PO435544  18.238  33.783   9.153
 7672POPC   GL135545  18.302  33.778   8.853
 7672POPC   GL235546  18.301  33.936   8.853
 7672POPC   C1A35547  18.241  33.775   8.553
 7672POPC   D2A35548  18.327  33.755   8.253
 7672POPC   C3A35549  18.275  33.781   7.953
 7672POPC   C4A35550  18.279  33.766   7.653
 7672POPC   C1B35551  18.325  34.052   8.553
 7672POPC   C2B35552  18.353  34.068   8.253
 7672POPC   C3B35553  18.371  34.053   7.953
 7672POPC   C4B35554  18.364  33.996   7.653
 7673POPC   NC335555  12.038  15.966   9.453
 7673POPC   PO435556  12.054  15.977   9.153
 7673POPC   GL135557  12.051  15.920   8.853
 7673POPC   GL235558  12.161  15.989   8.853
 7673POPC   C1A35559  12.060  15.954   8.553
 7673POPC   D2A35560  12.075  15.959   8.253
 7673POPC   C3A35561  12.058  15.993   7.953
 7673POPC   C4A35562  12.124  15.944   7.653
 7673POPC   C1B35563  12.285  16.048   8.553
 7673POPC   C2B35564  12.255  16.111   8.253
 7673POPC   C3B35565  12.307  16.100   7.953
 7673POPC   C4B35566  12.267  16.112   7.653
 7674POPC   NC335567  40.028  31.507   9.453
 7674POPC   PO435568  39.966  31.473   9.153
 7674POPC   GL135569  40.006  31.445   8.853
 7674POPC   GL235570  39.927  31.385   8.853
 7674POPC   C1A35571  40.000  31.427   8.553
 7674POPC   D2A35572  39.965  31.443   8.253
 7674POPC   C3A35573  40.025  31.428   7.953
 7674POPC   C4A35574  40.028  31.504   7.653
 7674POPC   C1B35575  39.906  31.283   8.553
 7674POPC   C2B35576  39.862  31.219   8.253
 7674POPC   C3B35577  39.890  31.221   7.953
 7674POPC   C4B35578  39.908  31.273   7.653
 7675POPC   NC335579   9.702  26.041   9.453
 7675POPC   PO435580   9.721  26.048   9.153
 7675POPC   GL135581   9.793  26.080   8.853
 7675POPC   GL235582   9.732  25.939   8.853
 7675POPC   C1A35583   9.703  26.000   8.553
 7675POPC   D2A35584   9.722  26.013   8.253
 7675POPC   C3A35585   9.755  26.049   7.953
 7675POPC   C4A35586   9.731  26.033   7.653
 7675POPC   C1B35587   9.716  25.752   8.553
 7675POPC   C2B35588   9.764  25.755   8.253
 7675POPC   C3B35589   9.774  25.822   7.953
 7675POPC   C4B35590   9.789  25.767   7.653
 7676POPC   NC335591  25.301  36.177   9.453
 7676POPC   PO435592  25.250  36.173   9.153
 7676POPC   GL135593  25.302  36.146   8.853
 7676POPC   GL235594  25.383  36.063   8.853
 7676POPC   C1A35595  25.257  36.150   8.553
 7676POPC   D2A35596  25.248  36.132   8.253
 7676POPC   C3A35597  25.282  36.079   7.953
 7676POPC   C4A35598  25.283  36.126   7.653
 7676POPC   C1B35599  25.423  35.953   8.553
 7676POPC   C2B35600  25.479  35.961   8.253
 7676POPC   C3B35601  25.513  36.022   7.953
 7676POPC   C4B35602  25.455  35.986   7.653
 7677POPC   NC335603  34.615  19.034   9.453
 7677POPC   PO435604  34.622  19.082   9.153
 7677POPC   GL135605  34.604  19.056   8.853
 7677POPC   GL235606  34.598  19.167   8.853
 7677POPC   C1A35607  34.598  19.095   8.553
 7677POPC   D2A35608  34.567  19.062   8.253
 7677POPC   C3A35609  34.535  19.072   7.953
 7677POPC   C4A35610  34.610  19.104   7.653
 7677POPC   C1B35611  34.503  19.293   8.553
 7677POPC   C2B35612  34.549  19.318   8.253
 7677POPC   C3B35613  34.546  19.265   7.953
 7677POPC   C4B35614  34.530  19.330   7.653
 7678POPC   NC335615  16.721  19.046   9.453
 7678POPC   PO435616  16.706  19.010   9.153
 7678POPC   GL135617  16.768  19.032   8.853
 7678POPC   GL235618  16.662  18.939   8.853
 7678POPC   C1A35619  16.748  19.058   8.553
 7678POPC   D2A35620  16.709  19.009   8.253
 7678POPC   C3A35621  16.696  19.078   7.953
 7678POPC   C4A35622  16.709  19.052   7.653
 7678POPC   C1B35623  16.640  18.863   8.553
 7678POPC   C2B35624  16.629  18.882   8.253
 7678POPC   C3B35625  16.642  18.808   7.953
 7678POPC   C4B35626  16.601  18.834   7.653
 7679POPC   NC335627  33.829  36.128   9.453
 7679POPC   PO435628  33.772  36.079   9.153
 7679POPC   GL135629  33.759  36.151   8.853
 7679POPC   GL235630  33.877  36.167   8.853
 7679POPC   C1A35631  33.780  36.159   8.553
 7679POPC   D2A35632  33.801  36.163   8.253
 7679POPC   C3A35633  33.784  36.105   7.953
 7679POPC   C4A35634  33.754  36.167   7.653
 7679POPC   C1B35635  34.055  36.110   8.553
 7679POPC   C2B35636  34.093  36.084   8.253
 7679POPC   C3B35637  34.074  36.096   7.953
 7679POPC   C4B35638  34.075  36.142   7.653
 7680POPC   NC335639   1.997  10.531   9.453
 7680POPC   PO435640   1.995  10.481   9.153
 7680POPC   GL135641   2.000  10.491   8.853
 7680POPC   GL235642   2.001  10.411   8.853
 7680POPC   C1A35643   2.018  10.492   8.553
 7680POPC   D2A35644   2.021  10.483   8.253
 7680POPC   C3A35645   2.012  10.475   7.953
 7680POPC   C4A35646   2.034  10.554   7.653
 7680POPC   C1B35647   2.123  10.334   8.553
 7680POPC   C2B35648   2.134  10.288   8.253
 7680POPC   C3B35649   2.079  10.262   7.953
 7680POPC   C4B35650   2.089  10.326   7.653
 7681POPC   NC335651  44.686   1.199   9.453
 7681POPC   PO435652  44.704   1.168   9.153
 7681POPC   GL135653  44.614   1.213   8.853
 7681POPC   GL235654  44.822   1.110   8.853
 7681POPC   C1A35655  44.695   1.204   8.553
 7681POPC   D2A35656  44.697   1.213   8.253
 7681POPC   C3A35657  44.649   1.199   7.953
 7681POPC   C4A35658  44.698   1.203   7.653
 7681POPC   C1B35659  44.877   1.091   8.553
 7681POPC   C2B35660  44.921   1.138   8.253
 7681POPC   C3B35661  44.888   1.147   7.953
 7681POPC   C4B35662  44.839   1.155   7.653
 7682POPC   NC335663  22.180  22.167   9.453
 7682POPC   PO435664  22.191  22.207   9.153
 7682POPC   GL135665  22.126  22.132   8.853
 7682POPC   GL235666  22.092  22.084   8.853
 7682POPC   C1A35667  22.174  22.156   8.553
 7682POPC   D2A35668  22.211  22.160   8.253
 7682POPC   C3A35669  22.212  22.190   7.953
 7682POPC   C4A35670  22.179  22.126   7.653
 7682POPC   C1B35671  22.068  21.962   8.553
 7682POPC   C2B35672  22.004  21.988   8.253
 7682POPC   C3B35673  21.992  21.974   7.953
 7682POPC   C4B35674  21.973  21.955   7.653
 7683POPC   NC335675  11.310  13.618   9.453
 7683POPC   PO435676  11.306  13.661   9.153
 7683POPC   GL135677  11.305  13.587   8.853
 7683POPC   GL235678  11.310  13.743   8.853
 7683POPC   C1A35679  11.274  13.669   8.553
 7683POPC   D2A35680  11.266  13.639   8.253
 7683POPC   C3A35681  11.349  13.635   7.953
 7683POPC   C4A35682  11.323  13.647   7.653
 7683POPC   C1B35683  11.338  13.858   8.553
 7683POPC   C2B35684  11.324  13.896   8.253
 7683POPC   C3B35685  11.275  13.913   7.953
 7683POPC   C4B35686  11.357  13.846   7.653
 7684POPC   NC335687  38.437  21.344   9.453
 7684POPC   PO435688  38.424  21.420   9.153
 7684POPC   GL135689  38.475  21.340   8.853
 7684POPC   GL235690  38.531  21.276   8.853
 7684POPC   C1A35691  38.457  21.401   8.553
 7684POPC   D2A35692  38.429  21.434   8.253
 7684POPC   C3A35693  38.412  21.368   7.953
 7684POPC   C4A35694  38.447  21.402   7.653
 7684POPC   C1B35695  38.683  21.222   8.553
 7684POPC   C2B35696  38.662  21.217   8.253
 7684POPC   C3B35697  38.705  21.206   7.953
 7684POPC   C4B35698  38.618  21.237   7.653
 7685POPC   NC335699   8.992  33.820   9.453
 7685POPC   PO435700   8.935  33.807   9.153
 7685POPC   GL135701   8.968  33.766   8.853
 7685POPC   GL235702   9.069  33.679   8.853
 7685POPC   C1A35703   8.945  33.829   8.553
 7685POPC   D2A35704   9.014  33.789   8.253
 7685POPC   C3A35705   8.951  33.811   7.953
 7685POPC   C4A35706   9.019  33.824   7.653
 7685POPC   C1B35707   9.105  33.631   8.553
 7685POPC   C2B35708   9.145  33.632   8.253
 7685POPC   C3B35709   9.162  33.636   7.953
 7685POPC   C4B35710   9.143  33.585   7.653
 7686POPC   NC335711  29.936  36.889   9.453
 7686POPC   PO435712  29.931  36.858   9.153
 7686POPC   GL135713  29.965  36.870   8.853
 7686POPC   GL235714  29.950  37.052   8.853
 7686POPC   C1A35715  29.969  36.927   8.553
 7686POPC   D2A35716  29.930  36.921   8.253
 7686POPC   C3A35717  29.963  36.902   7.953
 7686POPC   C4A35718  29.952  36.946   7.653
 7686POPC   C1B35719  30.057  37.123   8.553
 7686POPC   C2B35720  30.089  37.165   8.253
 7686POPC   C3B35721  30.059  37.155   7.953
 7686POPC   C4B35722  30.033  37.101   7.653
 7687POPC   NC335723  29.886  17.553   9.453
 7687POPC   PO435724  29.968  17.516   9.153
 7687POPC   GL135725  29.912  17.503   8.853
 7687POPC   GL235726  29.935  17.397   8.853
 7687POPC   C1A35727  29.895  17.510   8.553
 7687POPC   D2A35728  29.907  17.469   8.253
 7687POPC   C3A35729  29.963  17.522   7.953
 7687POPC   C4A35730  29.904  17.540   7.653
 7687POPC   C1B35731  29.917  17.234   8.553
 7687POPC   C2B35732  29.995  17.228   8.253
 7687POPC   C3B35733  29.936  17.273   7.953
 7687POPC   C4B35734  29.920  17.278   7.653
 7688POPC   NC335735   5.045  16.699   9.453
 7688POPC   PO435736   5.065  16.698   9.153
 7688POPC   GL135737   5.126  16.757   8.853
 7688POPC   GL235738   5.071  16.562   8.853
 7688POPC   C1A35739   5.058  16.735   8.553
 7688POPC   D2A35740   5.118  16.762   8.253
 7688POPC   C3A35741   5.087  16.759   7.953
 7688POPC   C4A35742   5.110  16.733   7.653
 7688POPC   C1B35743   4.988  16.538   8.553
 7688POPC   C2B35744   4.972  16.499   8.253
 7688POPC   C3B35745   4.999  16.450   7.953
 7688POPC   C4B35746   4.975  16.449   7.653
 7689POPC   NC335747   3.522  15.199   9.453
 7689POPC   PO435748   3.555  15.149   9.153
 7689POPC   GL135749   3.493  15.162   8.853
 7689POPC   GL235750   3.399  15.136   8.853
 7689POPC   C1A35751   3.538  15.184   8.553
 7689POPC   D2A35752   3.545  15.206   8.253
 7689POPC   C3A35753   3.509  15.202   7.953
 7689POPC   C4A35754   3.557  15.181   7.653
 7689POPC   C1B35755   3.392  15.060   8.553
 7689POPC   C2B35756   3.308  15.009   8.253
 7689POPC   C3B35757   3.332  15.014   7.953
 7689POPC   C4B35758   3.364  14.985   7.653
 7690POPC   NC335759  43.089  18.274   9.453
 7690POPC   PO435760  43.067  18.269   9.153
 7690POPC   GL135761  43.075  18.324   8.853
 7690POPC   GL235762  42.956  18.392   8.853
 7690POPC   C1A35763  43.095  18.241   8.553
 7690POPC   D2A35764  43.109  18.283   8.253
 7690POPC   C3A35765  43.061  18.286   7.953
 7690POPC   C4A35766  43.092  18.274   7.653
 7690POPC   C1B35767  42.922  18.362   8.553
 7690POPC   C2B35768  42.944  18.450   8.253
 7690POPC   C3B35769  42.933  18.381   7.953
 7690POPC   C4B35770  42.884  18.420   7.653
 7691POPC   NC335771  42.357  42.383   9.453
 7691POPC   PO435772  42.329  42.286   9.153
 7691POPC   GL135773  42.315  42.318   8.853
 7691POPC   GL235774  42.231  42.363   8.853
 7691POPC   C1A35775  42.315  42.343   8.553
 7691POPC   D2A35776  42.326  42.303   8.253
 7691POPC   C3A35777  42.372  42.362   7.953
 7691POPC   C4A35778  42.346  42.330   7.653
 7691POPC   C1B35779  42.074  42.502   8.553
 7691POPC   C2B35780  42.146  42.506   8.253
 7691POPC   C3B35781  42.122  42.434   7.953
 7691POPC   C4B35782  42.117  42.418   7.653
 7692POPC   NC335783  31.510  18.293   9.453
 7692POPC   PO435784  31.521  18.251   9.153
 7692POPC   GL135785  31.462  18.286   8.853
 7692POPC   GL235786  31.469  18.119   8.853
 7692POPC   C1A35787  31.441  18.243   8.553
 7692POPC   D2A35788  31.484  18.250   8.253
 7692POPC   C3A35789  31.459  18.294   7.953
 7692POPC   C4A35790  31.520  18.283   7.653
 7692POPC   C1B35791  31.452  17.995   8.553
 7692POPC   C2B35792  31.482  18.075   8.253
 7692POPC   C3B35793  31.515  18.053   7.953
 7692POPC   C4B35794  31.497  18.068   7.653
 7693POPC   NC335795  32.995  16.772   9.453
 7693POPC   PO435796  33.072  16.713   9.153
 7693POPC   GL135797  33.022  16.730   8.853
 7693POPC   GL235798  33.144  16.743   8.853
 7693POPC   C1A35799  33.067  16.730   8.553
 7693POPC   D2A35800  33.021  16.775   8.253
 7693POPC   C3A35801  32.988  16.774   7.953
 7693POPC   C4A35802  33.036  16.692   7.653
 7693POPC   C1B35803  33.246  16.653   8.553
 7693POPC   C2B35804  33.243  16.709   8.253
 7693POPC   C3B35805  33.296  16.656   7.953
 7693POPC   C4B35806  33.284  16.639   7.653
 7694POPC   NC335807  16.705  23.682   9.453
 7694POPC   PO435808  16.722  23.689   9.153
 7694POPC   GL135809  16.733  23.694   8.853
 7694POPC   GL235810  16.826  23.713   8.853
 7694POPC   C1A35811  16.699  23.722   8.553
 7694POPC   D2A35812  16.760  23.754   8.253
 7694POPC   C3A35813  16.735  23.726   7.953
 7694POPC   C4A35814  16.739  23.759   7.653
 7694POPC   C1B35815  16.980  23.724   8.553
 7694POPC   C2B35816  16.971  23.748   8.253
 7694POPC   C3B35817  16.946  23.817   7.953
 7694POPC   C4B35818  16.958  23.723   7.653
 7695POPC   NC335819  35.323  30.734   9.453
 7695POPC   PO435820  35.336  30.719   9.153
 7695POPC   GL135821  35.372  30.702   8.853
 7695POPC   GL235822  35.524  30.687   8.853
 7695POPC   C1A35823  35.377  30.676   8.553
 7695POPC   D2A35824  35.356  30.694   8.253
 7695POPC   C3A35825  35.401  30.687   7.953
 7695POPC   C4A35826  35.345  30.730   7.653
 7695POPC   C1B35827  35.641  30.629   8.553
 7695POPC   C2B35828  35.592  30.642   8.253
 7695POPC   C3B35829  35.595  30.619   7.953
 7695POPC   C4B35830  35.571  30.646   7.653
 7696POPC   NC335831  36.083  39.969   9.453
 7696POPC   PO435832  36.170  39.977   9.153
 7696POPC   GL135833  36.135  39.958   8.853
 7696POPC   GL235834  36.018  39.929   8.853
 7696POPC   C1A35835  36.142  40.034   8.553
 7696POPC   D2A35836  36.084  39.992   8.253
 7696POPC   C3A35837  36.176  39.991   7.953
 7696POPC   C4A35838  36.131  40.007   7.653
 7696POPC   C1B35839  35.929  39.829   8.553
 7696POPC   C2B35840  35.921  39.835   8.253
 7696POPC   C3B35841  35.907  39.867   7.953
 7696POPC   C4B35842  35.979  39.830   7.653
 7697POPC   NC335843  41.606   4.342   9.453
 7697POPC   PO435844  41.583   4.284   9.153
 7697POPC   GL135845  41.591   4.364   8.853
 7697POPC   GL235846  41.676   4.178   8.853
 7697POPC   C1A35847  41.603   4.287   8.553
 7697POPC   D2A35848  41.526   4.314   8.253
 7697POPC   C3A35849  41.567   4.286   7.953
 7697POPC   C4A35850  41.593   4.305   7.653
 7697POPC   C1B35851  41.779   4.165   8.553
 7697POPC   C2B35852  41.751   4.164   8.253
 7697POPC   C3B35853  41.697   4.093   7.953
 7697POPC   C4B35854  41.689   4.108   7.653
 7698POPC   NC335855  31.465  19.841   9.453
 7698POPC   PO435856  31.479  19.849   9.153
 7698POPC   GL135857  31.486  19.837   8.853
 7698POPC   GL235858  31.425  19.889   8.853
 7698POPC   C1A35859  31.447  19.869   8.553
 7698POPC   D2A35860  31.504  19.865   8.253
 7698POPC   C3A35861  31.456  19.848   7.953
 7698POPC   C4A35862  31.503  19.855   7.653
 7698POPC   C1B35863  31.301  20.076   8.553
 7698POPC   C2B35864  31.290  20.022   8.253
 7698POPC   C3B35865  31.332  20.021   7.953
 7698POPC   C4B35866  31.329  20.026   7.653
 7699POPC   NC335867   3.573  28.415   9.453
 7699POPC   PO435868   3.529  28.378   9.153
 7699POPC   GL135869   3.534  28.396   8.853
 7699POPC   GL235870   3.428  28.384   8.853
 7699POPC   C1A35871   3.514  28.379   8.553
 7699POPC   D2A35872   3.565  28.370   8.253
 7699POPC   C3A35873   3.502  28.337   7.953
 7699POPC   C4A35874   3.587  28.373   7.653
 7699POPC   C1B35875   3.311  28.493   8.553
 7699POPC   C2B35876   3.269  28.476   8.253
 7699POPC   C3B35877   3.277  28.411   7.953
 7699POPC   C4B35878   3.353  28.445   7.653
 7700POPC   NC335879   9.006  11.295   9.453
 7700POPC   PO435880   8.934  11.291   9.153
 7700POPC   GL135881   8.942  11.328   8.853
 7700POPC   GL235882   9.118  11.201   8.853
 7700POPC   C1A35883   8.968  11.287   8.553
 7700POPC   D2A35884   9.019  11.282   8.253
 7700POPC   C3A35885   8.928  11.331   7.953
 7700POPC   C4A35886   8.955  11.269   7.653
 7700POPC   C1B35887   9.154  11.203   8.553
 7700POPC   C2B35888   9.194  11.215   8.253
 7700POPC   C3B35889   9.151  11.239   7.953
 7700POPC   C4B35890   9.234  11.234   7.653
 7701POPC   NC335891  42.310  24.470   9.453
 7701POPC   PO435892  42.376  24.531   9.153
 7701POPC   GL135893  42.317  24.512   8.853
 7701POPC   GL235894  42.380  24.347   8.853
 7701POPC   C1A35895  42.345  24.485   8.553
 7701POPC   D2A35896  42.296  24.448   8.253
 7701POPC   C3A35897  42.309  24.520   7.953
 7701POPC   C4A35898  42.285  24.475   7.653
 7701POPC   C1B35899  42.411  24.256   8.553
 7701POPC   C2B35900  42.463  24.233   8.253
 7701POPC   C3B35901  42.445  24.265   7.953
 7701POPC   C4B35902  42.468  24.293   7.653
 7702POPC   NC335903  19.076  10.536   9.453
 7702POPC   PO435904  19.012  10.561   9.153
 7702POPC   GL135905  19.057  10.513   8.853
 7702POPC   GL235906  19.155  10.455   8.853
 7702POPC   C1A35907  19.075  10.549   8.553
 7702POPC   D2A35908  19.040  10.546   8.253
 7702POPC   C3A35909  19.078  10.537   7.953
 7702POPC   C4A35910  19.041  10.481   7.653
 7702POPC   C1B35911  19.211  10.352   8.553
 7702POPC   C2B35912  19.216  10.296   8.253
 7702POPC   C3B35913  19.180  10.276   7.953
 7702POPC   C4B35914  19.194  10.347   7.653
 7703POPC   NC335915  39.186   4.322   9.453
 7703POPC   PO435916  39.269   4.278   9.153
 7703POPC   GL135917  39.272   4.290   8.853
 7703POPC   GL235918  39.105   4.196   8.853
 7703POPC   C1A35919  39.196   4.297   8.553
 7703POPC   D2A35920  39.265   4.313   8.253
 7703POPC   C3A35921  39.251   4.302   7.953
 7703POPC   C4A35922  39.281   4.324   7.653
 7703POPC   C1B35923  39.026   4.136   8.553
 7703POPC   C2B35924  39.064   4.169   8.253
 7703POPC   C3B35925  39.111   4.096   7.953
 7703POPC   C4B35926  39.024   4.149   7.653
 7704POPC   NC335927  40.025   7.459   9.453
 7704POPC   PO435928  39.999   7.412   9.153
 7704POPC   GL135929  39.975   7.439   8.853
 7704POPC   GL235930  40.082   7.490   8.853
 7704POPC   C1A35931  39.995   7.451   8.553
 7704POPC   D2A35932  39.975   7.419   8.253
 7704POPC   C3A35933  40.015   7.391   7.953
 7704POPC   C4A35934  40.024   7.456   7.653
 7704POPC   C1B35935  40.132   7.647   8.553
 7704POPC   C2B35936  40.142   7.629   8.253
 7704POPC   C3B35937  40.106   7.627   7.953
 7704POPC   C4B35938  40.105   7.623   7.653
 7705POPC   NC335939  42.311   5.829   9.453
 7705POPC   PO435940  42.330   5.820   9.153
 7705POPC   GL135941  42.316   5.867   8.853
 7705POPC   GL235942  42.253   5.710   8.853
 7705POPC   C1A35943  42.361   5.825   8.553
 7705POPC   D2A35944  42.362   5.895   8.253
 7705POPC   C3A35945  42.330   5.874   7.953
 7705POPC   C4A35946  42.338   5.857   7.653
 7705POPC   C1B35947  42.227   5.667   8.553
 7705POPC   C2B35948  42.269   5.622   8.253
 7705POPC   C3B35949  42.236   5.627   7.953
 7705POPC   C4B35950  42.279   5.631   7.653
 7706POPC   NC335951  42.378   2.010   9.453
 7706POPC   PO435952  42.382   1.958   9.153
 7706POPC   GL135953  42.343   2.030   8.853
 7706POPC   GL235954  42.437   1.908   8.853
 7706POPC   C1A35955  42.350   2.037   8.553
 7706POPC   D2A35956  42.317   1.980   8.253
 7706POPC   C3A35957  42.324   1.970   7.953
 7706POPC   C4A35958  42.304   1.946   7.653
 7706POPC   C1B35959  42.545   1.844   8.553
 7706POPC   C2B35960  42.578   1.873   8.253
 7706POPC   C3B35961  42.598   1.881   7.953
 7706POPC   C4B35962  42.608   1.852   7.653
 7707POPC   NC335963  26.076  16.750   9.453
 7707POPC   PO435964  26.075  16.739   9.153
 7707POPC   GL135965  26.051  16.744   8.853
 7707POPC   GL235966  25.877  16.727   8.853
 7707POPC   C1A35967  26.059  16.750   8.553
 7707POPC   D2A35968  26.008  16.760   8.253
 7707POPC   C3A35969  26.087  16.728   7.953
 7707POPC   C4A35970  26.027  16.776   7.653
 7707POPC   C1B35971  25.823  16.745   8.553
 7707POPC   C2B35972  25.754  16.769   8.253
 7707POPC   C3B35973  25.821  16.756   7.953
 7707POPC   C4B35974  25.786  16.808   7.653
 7708POPC   NC335975  39.258   3.523   9.453
 7708POPC   PO435976  39.209   3.521   9.153
 7708POPC   GL135977  39.196   3.578   8.853
 7708POPC   GL235978  39.250   3.662   8.853
 7708POPC   C1A35979  39.226   3.493   8.553
 7708POPC   D2A35980  39.219   3.562   8.253
 7708POPC   C3A35981  39.252   3.515   7.953
 7708POPC   C4A35982  39.254   3.538   7.653
 7708POPC   C1B35983  39.212   3.826   8.553
 7708POPC   C2B35984  39.218   3.837   8.253
 7708POPC   C3B35985  39.203   3.754   7.953
 7708POPC   C4B35986  39.197   3.834   7.653
 7709POPC   NC335987  15.165  41.524   9.453
 7709POPC   PO435988  15.219  41.573   9.153
 7709POPC   GL135989  15.143  41.513   8.853
 7709POPC   GL235990  15.208  41.676   8.853
 7709POPC   C1A35991  15.168  41.581   8.553
 7709POPC   D2A35992  15.196  41.597   8.253
 7709POPC   C3A35993  15.198  41.519   7.953
 7709POPC   C4A35994  15.172  41.596   7.653
 7709POPC   C1B35995  15.154  41.759   8.553
 7709POPC   C2B35996  15.135  41.825   8.253
 7709POPC   C3B35997  15.225  41.791   7.953
 7709POPC   C4B35998  15.168  41.811   7.653
 7710POPC   NC335999  31.505  40.050   9.453
 7710POPC   PO436000  31.465  40.033   9.153
 7710POPC   GL136001  31.433  39.973   8.853
 7710POPC   GL236002  31.318  40.014   8.853
 7710POPC   C1A36003  31.474  40.031   8.553
 7710POPC   D2A36004  31.460  40.023   8.253
 7710POPC   C3A36005  31.468  39.975   7.953
 7710POPC   C4A36006  31.440  40.014   7.653
 7710POPC   C1B36007  31.280  40.125   8.553
 7710POPC   C2B36008  31.232  40.137   8.253
 7710POPC   C3B36009  31.231  40.110   7.953
 7710POPC   C4B36010  31.273  40.134   7.653
 7711POPC   NC336011  23.735  41.577   9.453
 7711POPC   PO436012  23.744  41.586   9.153
 7711POPC   GL136013  23.735  41.541   8.853
 7711POPC   GL236014  23.610  41.462   8.853
 7711POPC   C1A36015  23.713  41.563   8.553
 7711POPC   D2A36016  23.666  41.523   8.253
 7711POPC   C3A36017  23.754  41.587   7.953
 7711POPC   C4A36018  23.740  41.580   7.653
 7711POPC   C1B36019  23.522  41.456   8.553
 7711POPC   C2B36020  23.437  41.471   8.253
 7711POPC   C3B36021  23.501  41.469   7.953
 7711POPC   C4B36022  23.456  41.457   7.653
 7712POPC   NC336023  42.348  22.152   9.453
 7712POPC   PO436024  42.357  22.155   9.153
 7712POPC   GL136025  42.356  22.147   8.853
 7712POPC   GL236026  42.321  22.067   8.853
 7712POPC   C1A36027  42.362  22.168   8.553
 7712POPC   D2A36028  42.381  22.128   8.253
 7712POPC   C3A36029  42.337  22.142   7.953
 7712POPC   C4A36030  42.363  22.157   7.653
 7712POPC   C1B36031  42.243  21.976   8.553
 7712POPC   C2B36032  42.261  21.957   8.253
 7712POPC   C3B36033  42.205  21.960   7.953
 7712POPC   C4B36034  42.265  21.907   7.653
 7713POPC   NC336035  39.218  22.117   9.453
 7713POPC   PO436036  39.182  22.140   9.153
 7713POPC   GL136037  39.212  22.195   8.853
 7713POPC   GL236038  39.085  22.126   8.853
 7713POPC   C1A36039  39.182  22.206   8.553
 7713POPC   D2A36040  39.234  22.169   8.253
 7713POPC   C3A36041  39.255  22.169   7.953
 7713POPC   C4A36042  39.182  22.127   7.653
 7713POPC   C1B36043  38.947  22.178   8.553
 7713POPC   C2B36044  38.951  22.108   8.253
 7713POPC   C3B36045  38.998  22.151   7.953
 7713POPC   C4B36046  38.960  22.142   7.653
 7714POPC   NC336047  42.373  27.546   9.453
 7714POPC   PO436048  42.347  27.606   9.153
 7714POPC   GL136049  42.292  27.619   8.853
 7714POPC   GL236050  42.365  27.726   8.853
 7714POPC   C1A36051  42.333  27.622   8.553
 7714POPC   D2A36052  42.299  27.636   8.253
 7714POPC   C3A36053  42.344  27.553   7.953
 7714POPC   C4A36054  42.359  27.558   7.653
 7714POPC   C1B36055  42.339  27.857   8.553
 7714POPC   C2B36056  42.373  27.873   8.253
 7714POPC   C3B36057  42.323  27.832   7.953
 7714POPC   C4B36058  42.326  27.844   7.653
 7715POPC   NC336059   1.980  40.813   9.453
 7715POPC   PO436060   1.955  40.768   9.153
 7715POPC   GL136061   1.948  40.807   8.853
 7715POPC   GL236062   2.088  40.901   8.853
 7715POPC   C1A36063   2.012  40.746   8.553
 7715POPC   D2A36064   1.975  40.819   8.253
 7715POPC   C3A36065   1.978  40.770   7.953
 7715POPC   C4A36066   1.940  40.740   7.653
 7715POPC   C1B36067   2.188  40.960   8.553
 7715POPC   C2B36068   2.214  40.960   8.253
 7715POPC   C3B36069   2.160  40.993   7.953
 7715POPC   C4B36070   2.193  40.936   7.653
 7716POPC   NC336071  18.279   1.952   9.453
 7716POPC   PO436072  18.277   1.970   9.153
 7716POPC   GL136073  18.327   1.963   8.853
 7716POPC   GL236074  18.297   1.879   8.853
 7716POPC   C1A36075  18.272   1.994   8.553
 7716POPC   D2A36076  18.327   1.979   8.253
 7716POPC   C3A36077  18.312   1.947   7.953
 7716POPC   C4A36078  18.246   1.964   7.653
 7716POPC   C1B36079  18.202   1.728   8.553
 7716POPC   C2B36080  18.290   1.710   8.253
 7716POPC   C3B36081  18.265   1.768   7.953
 7716POPC   C4B36082  18.210   1.768   7.653
 7717POPC   NC336083  31.432  41.598   9.453
 7717POPC   PO436084  31.444  41.551   9.153
 7717POPC   GL136085  31.479  41.510   8.853
 7717POPC   GL236086  31.438  41.624   8.853
 7717POPC   C1A36087  31.450  41.592   8.553
 7717POPC   D2A36088  31.432  41.530   8.253
 7717POPC   C3A36089  31.473  41.584   7.953
 7717POPC   C4A36090  31.423  41.589   7.653
 7717POPC   C1B36091  31.320  41.802   8.553
 7717POPC   C2B36092  31.305  41.792   8.253
 7717POPC   C3B36093  31.376  41.726   7.953
 7717POPC   C4B36094  31.307  41.744   7.653
 7718POPC   NC336095   4.269  43.096   9.453
 7718POPC   PO436096   4.317  43.140   9.153
 7718POPC   GL136097   4.343  43.061   8.853
 7718POPC   GL236098   4.415  43.054   8.853
 7718POPC   C1A36099   4.314  43.114   8.553
 7718POPC   D2A36100   4.288  43.132   8.253
 7718POPC   C3A36101   4.296  43.143   7.953
 7718POPC   C4A36102   4.319  43.061   7.653
 7718POPC   C1B36103   4.463  42.965   8.553
 7718POPC   C2B36104   4.466  42.989   8.253
 7718POPC   C3B36105   4.484  42.954   7.953
 7718POPC   C4B36106   4.516  42.996   7.653
 7719POPC   NC336107   6.616  19.012   9.453
 7719POPC   PO436108   6.621  19.046   9.153
 7719POPC   GL136109   6.665  19.038   8.853
 7719POPC   GL236110   6.731  19.116   8.853
 7719POPC   C1A36111   6.600  19.039   8.553
 7719POPC   D2A36112   6.607  19.020   8.253
 7719POPC   C3A36113   6.619  19.022   7.953
 7719POPC   C4A36114   6.597  19.065   7.653
 7719POPC   C1B36115   6.872  19.147   8.553
 7719POPC   C2B36116   6.880  19.189   8.253
 7719POPC   C3B36117   6.847  19.129   7.953
 7719POPC   C4B36118   6.869  19.130   7.653
 7720POPC   NC336119  14.359  17.458   9.453
 7720POPC   PO436120  14.370  17.476   9.153
 7720POPC   GL136121  14.380  17.547   8.853
 7720POPC   GL236122  14.308  17.506   8.853
 7720POPC   C1A36123  14.411  17.470   8.553
 7720POPC   D2A36124  14.360  17.489   8.253
 7720POPC   C3A36125  14.388  17.467   7.953
 7720POPC   C4A36126  14.355  17.543   7.653
 7720POPC   C1B36127  14.148  17.530   8.553
 7720POPC   C2B36128  14.138  17.469   8.253
 7720POPC   C3B36129  14.126  17.518   7.953
 7720POPC   C4B36130  14.121  17.538   7.653
 7721POPC   NC336131  43.069  13.657   9.453
 7721POPC   PO436132  43.129  13.630   9.153
 7721POPC   GL136133  43.078  13.607   8.853
 7721POPC   GL236134  43.241  13.701   8.853
 7721POPC   C1A36135  43.137  13.625   8.553
 7721POPC   D2A36136  43.112  13.613   8.253
 7721POPC   C3A36137  43.112  13.644   7.953
 7721POPC   C4A36138  43.127  13.596   7.653
 7721POPC   C1B36139  43.281  13.802   8.553
 7721POPC   C2B36140  43.351  13.789   8.253
 7721POPC   C3B36141  43.266  13.810   7.953
 7721POPC   C4B36142  43.264  13.740   7.653
 7722POPC   NC336143  44.631  28.393   9.453
 7722POPC   PO436144  44.634  28.388   9.153
 7722POPC   GL136145  44.616  28.376   8.853
 7722POPC   GL236146  44.546  28.260   8.853
 7722POPC   C1A36147  44.687  28.395   8.553
 7722POPC   D2A36148  44.656  28.325   8.253
 7722POPC   C3A36149  44.678  28.351   7.953
 7722POPC   C4A36150  44.710  28.391   7.653
 7722POPC   C1B36151  44.469  28.148   8.553
 7722POPC   C2B36152  44.480  28.170   8.253
 7722POPC   C3B36153  44.507  28.158   7.953
 7722POPC   C4B36154  44.535  28.159   7.653
 7723POPC   NC336155  16.709  19.883   9.453
 7723POPC   PO436156  16.692  19.820   9.153
 7723POPC   GL136157  16.685  19.815   8.853
 7723POPC   GL236158  16.757  19.734   8.853
 7723POPC   C1A36159  16.696  19.805   8.553
 7723POPC   D2A36160  16.719  19.825   8.253
 7723POPC   C3A36161  16.739  19.791   7.953
 7723POPC   C4A36162  16.777  19.855   7.653
 7723POPC   C1B36163  16.821  19.645   8.553
 7723POPC   C2B36164  16.871  19.656   8.253
 7723POPC   C3B36165  16.869  19.623   7.953
 7723POPC   C4B36166  16.912  19.647   7.653
 7724POPC   NC336167  20.657  12.043   9.453
 7724POPC   PO436168  20.600  12.077   9.153
 7724POPC   GL136169  20.566  12.073   8.853
 7724POPC   GL236170  20.610  12.184   8.853
 7724POPC   C1A36171  20.650  12.068   8.553
 7724POPC   D2A36172  20.572  12.102   8.253
 7724POPC   C3A36173  20.585  12.097   7.953
 7724POPC   C4A36174  20.610  12.032   7.653
 7724POPC   C1B36175  20.664  12.306   8.553
 7724POPC   C2B36176  20.659  12.275   8.253
 7724POPC   C3B36177  20.713  12.343   7.953
 7724POPC   C4B36178  20.653  12.311   7.653
 7725POPC   NC336179  22.926  16.771   9.453
 7725POPC   PO436180  22.890  16.748   9.153
 7725POPC   GL136181  22.919  16.755   8.853
 7725POPC   GL236182  22.930  16.870   8.853
 7725POPC   C1A36183  22.979  16.780   8.553
 7725POPC   D2A36184  22.904  16.743   8.253
 7725POPC   C3A36185  22.926  16.772   7.953
 7725POPC   C4A36186  22.985  16.688   7.653
 7725POPC   C1B36187  22.786  16.920   8.553
 7725POPC   C2B36188  22.851  16.937   8.253
 7725POPC   C3B36189  22.827  16.919   7.953
 7725POPC   C4B36190  22.821  16.928   7.653
 7726POPC   NC336191  43.894  22.198   9.453
 7726POPC   PO436192  43.902  22.179   9.153
 7726POPC   GL136193  43.871  22.153   8.853
 7726POPC   GL236194  44.024  22.053   8.853
 7726POPC   C1A36195  43.885  22.144   8.553
 7726POPC   D2A36196  43.883  22.114   8.253
 7726POPC   C3A36197  43.863  22.164   7.953
 7726POPC   C4A36198  43.906  22.160   7.653
 7726POPC   C1B36199  44.090  21.968   8.553
 7726POPC   C2B36200  44.043  22.005   8.253
 7726POPC   C3B36201  44.113  22.016   7.953
 7726POPC   C4B36202  44.050  21.972   7.653
 7727POPC   NC336203   6.689  14.424   9.453
 7727POPC   PO436204   6.655  14.367   9.153
 7727POPC   GL136205   6.604  14.380   8.853
 7727POPC   GL236206   6.567  14.394   8.853
 7727POPC   C1A36207   6.689  14.371   8.553
 7727POPC   D2A36208   6.677  14.396   8.253
 7727POPC   C3A36209   6.604  14.395   7.953
 7727POPC   C4A36210   6.598  14.364   7.653
 7727POPC   C1B36211   6.433  14.479   8.553
 7727POPC   C2B36212   6.446  14.484   8.253
 7727POPC   C3B36213   6.379  14.494   7.953
 7727POPC   C4B36214   6.377  14.482   7.653
 7728POPC   NC336215   8.222  20.650   9.453
 7728POPC   PO436216   8.181  20.572   9.153
 7728POPC   GL136217   8.233  20.648   8.853
 7728POPC   GL236218   8.063  20.680   8.853
 7728POPC   C1A36219   8.211  20.580   8.553
 7728POPC   D2A36220   8.236  20.625   8.253
 7728POPC   C3A36221   8.170  20.646   7.953
 7728POPC   C4A36222   8.244  20.636   7.653
 7728POPC   C1B36223   7.992  20.741   8.553
 7728POPC   C2B36224   7.993  20.679   8.253
 7728POPC   C3B36225   7.951  20.707   7.953
 7728POPC   C4B36226   7.960  20.688   7.653
 7729POPC   NC336227   6.656   6.673   9.453
 7729POPC   PO436228   6.667   6.598   9.153
 7729POPC   GL136229   6.615   6.681   8.853
 7729POPC   GL236230   6.564   6.668   8.853
 7729POPC   C1A36231   6.631   6.607   8.553
 7729POPC   D2A36232   6.630   6.660   8.253
 7729POPC   C3A36233   6.663   6.613   7.953
 7729POPC   C4A36234   6.658   6.598   7.653
 7729POPC   C1B36235   6.414   6.618   8.553
 7729POPC   C2B36236   6.422   6.676   8.253
 7729POPC   C3B36237   6.371   6.682   7.953
 7729POPC   C4B36238   6.412   6.679   7.653
 7730POPC   NC336239  29.179   8.187   9.453
 7730POPC   PO436240  29.165   8.189   9.153
 7730POPC   GL136241  29.104   8.216   8.853
 7730POPC   GL236242  29.311   8.243   8.853
 7730POPC   C1A36243  29.118   8.215   8.553
 7730POPC   D2A36244  29.132   8.181   8.253
 7730POPC   C3A36245  29.153   8.172   7.953
 7730POPC   C4A36246  29.137   8.208   7.653
 7730POPC   C1B36247  29.341   8.228   8.553
 7730POPC   C2B36248  29.391   8.286   8.253
 7730POPC   C3B36249  29.380   8.300   7.953
 7730POPC   C4B36250  29.396   8.271   7.653
 7731POPC   NC336251  22.903  14.399   9.453
 7731POPC   PO436252  22.899  14.387   9.153
 7731POPC   GL136253  22.909  14.423   8.853
 7731POPC   GL236254  22.941  14.335   8.853
 7731POPC   C1A36255  22.916  14.384   8.553
 7731POPC   D2A36256  22.981  14.426   8.253
 7731POPC   C3A36257  22.962  14.435   7.953
 7731POPC   C4A36258  22.962  14.405   7.653
 7731POPC   C1B36259  23.000  14.174   8.553
 7731POPC   C2B36260  23.038  14.193   8.253
 7731POPC   C3B36261  23.048  14.194   7.953
 7731POPC   C4B36262  23.054  14.199   7.653
 7732POPC   NC336263  12.056  37.683   9.453
 7732POPC   PO436264  12.099  37.636   9.153
 7732POPC   GL136265  12.094  37.692   8.853
 7732POPC   GL236266  11.978  37.736   8.853
 7732POPC   C1A36267  12.126  37.729   8.553
 7732POPC   D2A36268  12.116  37.645   8.253
 7732POPC   C3A36269  12.105  37.699   7.953
 7732POPC   C4A36270  12.113  37.646   7.653
 7732POPC   C1B36271  11.926  37.834   8.553
 7732POPC   C2B36272  11.966  37.872   8.253
 7732POPC   C3B36273  11.898  37.879   7.953
 7732POPC   C4B36274  11.922  37.854   7.653
 7733POPC   NC336275   1.193  44.706   9.453
 7733POPC   PO436276   1.237  44.648   9.153
 7733POPC   GL136277   1.222  44.637   8.853
 7733POPC   GL236278   1.247  44.779   8.853
 7733POPC   C1A36279   1.229  44.639   8.553
 7733POPC   D2A36280   1.179  44.699   8.253
 7733POPC   C3A36281   1.261  44.653   7.953
 7733POPC   C4A36282   1.245  44.639   7.653
 7733POPC   C1B36283   1.314  44.823   8.553
 7733POPC   C2B36284   1.355  44.917   8.253
 7733POPC   C3B36285   1.340  44.855   7.953
 7733POPC   C4B36286   1.316  44.910   7.653
 7734POPC   NC336287  22.893  10.480   9.453
 7734POPC   PO436288  22.907  10.549   9.153
 7734POPC   GL136289  22.943  10.557   8.853
 7734POPC   GL236290  22.977  10.432   8.853
 7734POPC   C1A36291  22.908  10.476   8.553
 7734POPC   D2A36292  22.984  10.516   8.253
 7734POPC   C3A36293  22.926  10.494   7.953
 7734POPC   C4A36294  22.946  10.497   7.653
 7734POPC   C1B36295  23.074  10.310   8.553
 7734POPC   C2B36296  23.070  10.348   8.253
 7734POPC   C3B36297  23.065  10.329   7.953
 7734POPC   C4B36298  23.052  10.281   7.653
 7735POPC   NC336299  21.395  30.727   9.453
 7735POPC   PO436300  21.336  30.663   9.153
 7735POPC   GL136301  21.401  30.695   8.853
 7735POPC   GL236302  21.378  30.818   8.853
 7735POPC   C1A36303  21.338  30.669   8.553
 7735POPC   D2A36304  21.350  30.686   8.253
 7735POPC   C3A36305  21.401  30.714   7.953
 7735POPC   C4A36306  21.344  30.660   7.653
 7735POPC   C1B36307  21.348  30.888   8.553
 7735POPC   C2B36308  21.366  30.981   8.253
 7735POPC   C3B36309  21.361  30.985   7.953
 7735POPC   C4B36310  21.334  30.981   7.653
 7736POPC   NC336311  20.592  26.090   9.453
 7736POPC   PO436312  20.615  26.033   9.153
 7736POPC   GL136313  20.591  26.017   8.853
 7736POPC   GL236314  20.537  25.918   8.853
 7736POPC   C1A36315  20.653  26.026   8.553
 7736POPC   D2A36316  20.648  26.070   8.253
 7736POPC   C3A36317  20.642  26.027   7.953
 7736POPC   C4A36318  20.578  26.076   7.653
 7736POPC   C1B36319  20.565  25.757   8.553
 7736POPC   C2B36320  20.596  25.820   8.253
 7736POPC   C3B36321  20.590  25.787   7.953
 7736POPC   C4B36322  20.548  25.812   7.653
 7737POPC   NC336323  28.377  36.108   9.453
 7737POPC   PO436324  28.386  36.152   9.153
 7737POPC   GL136325  28.407  36.147   8.853
 7737POPC   GL236326  28.262  36.058   8.853
 7737POPC   C1A36327  28.320  36.169   8.553
 7737POPC   D2A36328  28.321  36.163   8.253
 7737POPC   C3A36329  28.363  36.088   7.953
 7737POPC   C4A36330  28.338  36.132   7.653
 7737POPC   C1B36331  28.198  35.929   8.553
 7737POPC   C2B36332  28.178  35.917   8.253
 7737POPC   C3B36333  28.232  35.983   7.953
 7737POPC   C4B36334  28.190  35.918   7.653
 7738POPC   NC336335  32.243  36.168   9.453
 7738POPC   PO436336  32.272  36.093   9.153
 7738POPC   GL136337  32.290  36.078   8.853
 7738POPC   GL236338  32.378  36.073   8.853
 7738POPC   C1A36339  32.250  36.093   8.553
 7738POPC   D2A36340  32.205  36.092   8.253
 7738POPC   C3A36341  32.244  36.096   7.953
 7738POPC   C4A36342  32.292  36.124   7.653
 7738POPC   C1B36343  32.469  35.929   8.553
 7738POPC   C2B36344  32.431  35.904   8.253
 7738POPC   C3B36345  32.374  35.910   7.953
 7738POPC   C4B36346  32.409  35.943   7.653
 7739POPC   NC336347  10.509  43.871   9.453
 7739POPC   PO436348  10.567  43.862   9.153
 7739POPC   GL136349  10.520  43.885   8.853
 7739POPC   GL236350  10.613  44.022   8.853
 7739POPC   C1A36351  10.537  43.882   8.553
 7739POPC   D2A36352  10.479  43.888   8.253
 7739POPC   C3A36353  10.554  43.920   7.953
 7739POPC   C4A36354  10.494  43.858   7.653
 7739POPC   C1B36355  10.729  44.029   8.553
 7739POPC   C2B36356  10.700  44.085   8.253
 7739POPC   C3B36357  10.652  44.109   7.953
 7739POPC   C4B36358  10.676  44.045   7.653
 7740POPC   NC336359   6.679  29.942   9.453
 7740POPC   PO436360   6.595  29.916   9.153
 7740POPC   GL136361   6.671  29.955   8.853
 7740POPC   GL236362   6.602  30.004   8.853
 7740POPC   C1A36363   6.692  29.894   8.553
 7740POPC   D2A36364   6.647  29.956   8.253
 7740POPC   C3A36365   6.608  29.925   7.953
 7740POPC   C4A36366   6.683  29.952   7.653
 7740POPC   C1B36367   6.619  30.130   8.553
 7740POPC   C2B36368   6.642  30.179   8.253
 7740POPC   C3B36369   6.684  30.215   7.953
 7740POPC   C4B36370   6.656  30.166   7.653
 7741POPC   NC336371  22.196  39.961   9.453
 7741POPC   PO436372  22.130  39.976   9.153
 7741POPC   GL136373  22.176  39.985   8.853
 7741POPC   GL236374  22.259  39.915   8.853
 7741POPC   C1A36375  22.167  40.034   8.553
 7741POPC   D2A36376  22.125  40.004   8.253
 7741POPC   C3A36377  22.149  40.045   7.953
 7741POPC   C4A36378  22.195  39.966   7.653
 7741POPC   C1B36379  22.293  39.826   8.553
 7741POPC   C2B36380  22.226  39.779   8.253
 7741POPC   C3B36381  22.242  39.797   7.953
 7741POPC   C4B36382  22.258  39.784   7.653
 7742POPC   NC336383  28.401   0.453   9.453
 7742POPC   PO436384  28.383   0.469   9.153
 7742POPC   GL136385  28.367   0.426   8.853
 7742POPC   GL236386  28.281   0.292   8.853
 7742POPC   C1A36387  28.347   0.437   8.553
 7742POPC   D2A36388  28.327   0.487   8.253
 7742POPC   C3A36389  28.344   0.452   7.953
 7742POPC   C4A36390  28.327   0.462   7.653
 7742POPC   C1B36391  28.171   0.256   8.553
 7742POPC   C2B36392  28.177   0.276   8.253
 7742POPC   C3B36393  28.230   0.250   7.953
 7742POPC   C4B36394  28.191   0.285   7.653
 7743POPC   NC336395  36.154  19.055   9.453
 7743POPC   PO436396  36.152  19.085   9.153
 7743POPC   GL136397  36.104  19.043   8.853
 7743POPC   GL236398  36.061  18.930   8.853
 7743POPC   C1A36399  36.145  19.063   8.553
 7743POPC   D2A36400  36.143  19.048   8.253
 7743POPC   C3A36401  36.175  19.056   7.953
 7743POPC   C4A36402  36.140  19.045   7.653
 7743POPC   C1B36403  36.041  18.868   8.553
 7743POPC   C2B36404  36.055  18.862   8.253
 7743POPC   C3B36405  36.021  18.840   7.953
 7743POPC   C4B36406  36.009  18.810   7.653
 7744POPC   NC336407  27.597  33.794   9.453
 7744POPC   PO436408  27.575  33.799   9.153
 7744POPC   GL136409  27.612  33.774   8.853
 7744POPC   GL236410  27.540  33.876   8.853
 7744POPC   C1A36411  27.580  33.765   8.553
 7744POPC   D2A36412  27.572  33.812   8.253
 7744POPC   C3A36413  27.561  33.819   7.953
 7744POPC   C4A36414  27.591  33.786   7.653
 7744POPC   C1B36415  27.443  33.983   8.553
 7744POPC   C2B36416  27.506  34.049   8.253
 7744POPC   C3B36417  27.424  34.054   7.953
 7744POPC   C4B36418  27.481  34.040   7.653
 7745POPC   NC336419   0.451  36.859   9.453
 7745POPC   PO436420   0.441  36.946   9.153
 7745POPC   GL136421   0.479  36.945   8.853
 7745POPC   GL236422   0.600  36.868   8.853
 7745POPC   C1A36423   0.413  36.870   8.553
 7745POPC   D2A36424   0.483  36.876   8.253
 7745POPC   C3A36425   0.436  36.950   7.953
 7745POPC   C4A36426   0.390  36.923   7.653
 7745POPC   C1B36427   0.643  36.822   8.553
 7745POPC   C2B36428   0.703  36.824   8.253
 7745POPC   C3B36429   0.694  36.793   7.953
 7745POPC   C4B36430   0.633  36.830   7.653
 7746POPC   NC336431  39.240  36.887   9.453
 7746POPC   PO436432  39.224  36.897   9.153
 7746POPC   GL136433  39.198  36.874   8.853
 7746POPC   GL236434  39.349  36.775   8.853
 7746POPC   C1A36435  39.195  36.949   8.553
 7746POPC   D2A36436  39.270  36.932   8.253
 7746POPC   C3A36437  39.256  36.944   7.953
 7746POPC   C4A36438  39.271  36.904   7.653
 7746POPC   C1B36439  39.370  36.739   8.553
 7746POPC   C2B36440  39.422  36.753   8.253
 7746POPC   C3B36441  39.387  36.759   7.953
 7746POPC   C4B36442  39.367  36.733   7.653
 7747POPC   NC336443  22.208   1.975   9.453
 7747POPC   PO436444  22.203   1.969   9.153
 7747POPC   GL136445  22.113   2.001   8.853
 7747POPC   GL236446  22.024   2.033   8.853
 7747POPC   C1A36447  22.173   1.988   8.553
 7747POPC   D2A36448  22.176   1.995   8.253
 7747POPC   C3A36449  22.144   2.024   7.953
 7747POPC   C4A36450  22.194   2.000   7.653
 7747POPC   C1B36451  21.913   2.072   8.553
 7747POPC   C2B36452  21.984   2.148   8.253
 7747POPC   C3B36453  21.938   2.161   7.953
 7747POPC   C4B36454  21.937   2.133   7.653
 7748POPC   NC336455  28.383  22.895   9.453
 7748POPC   PO436456  28.399  22.924   9.153
 7748POPC   GL136457  28.341  22.937   8.853
 7748POPC   GL236458  28.452  22.881   8.853
 7748POPC   C1A36459  28.320  22.968   8.553
 7748POPC   D2A36460  28.365  22.927   8.253
 7748POPC   C3A36461  28.416  22.925   7.953
 7748POPC   C4A36462  28.373  22.941   7.653
 7748POPC   C1B36463  28.525  22.741   8.553
 7748POPC   C2B36464  28.559  22.726   8.253
 7748POPC   C3B36465  28.542  22.698   7.953
 7748POPC   C4B36466  28.497  22.768   7.653
 7749POPC   NC336467  12.124  21.427   9.453
 7749POPC   PO436468  12.090  21.421   9.153
 7749POPC   GL136469  12.031  21.384   8.853
 7749POPC   GL236470  12.104  21.490   8.853
 7749POPC   C1A36471  12.051  21.384   8.553
 7749POPC   D2A36472  12.105  21.354   8.253
 7749POPC   C3A36473  12.052  21.424   7.953
 7749POPC   C4A36474  12.118  21.381   7.653
 7749POPC   C1B36475  12.165  21.597   8.553
 7749POPC   C2B36476  12.118  21.602   8.253
 7749POPC   C3B36477  12.126  21.669   7.953
 7749POPC   C4B36478  12.125  21.614   7.653
 7750POPC   NC336479  18.252  20.623   9.453
 7750POPC   PO436480  18.286  20.578   9.153
 7750POPC   GL136481  18.260  20.593   8.853
 7750POPC   GL236482  18.185  20.514   8.853
 7750POPC   C1A36483  18.254  20.653   8.553
 7750POPC   D2A36484  18.314  20.623   8.253
 7750POPC   C3A36485  18.295  20.640   7.953
 7750POPC   C4A36486  18.246  20.623   7.653
 7750POPC   C1B36487  18.033  20.446   8.553
 7750POPC   C2B36488  18.026  20.496   8.253
 7750POPC   C3B36489  18.114  20.461   7.953
 7750POPC   C4B36490  18.045  20.460   7.653
 7751POPC   NC336491  14.436  43.849   9.453
 7751POPC   PO436492  14.395  43.925   9.153
 7751POPC   GL136493  14.360  43.873   8.853
 7751POPC   GL236494  14.481  44.053   8.853
 7751POPC   C1A36495  14.363  43.923   8.553
 7751POPC   D2A36496  14.453  43.842   8.253
 7751POPC   C3A36497  14.402  43.848   7.953
 7751POPC   C4A36498  14.355  43.877   7.653
 7751POPC   C1B36499  14.441  44.172   8.553
 7751POPC   C2B36500  14.472  44.145   8.253
 7751POPC   C3B36501  14.475  44.107   7.953
 7751POPC   C4B36502  14.477  44.163   7.653
 7752POPC   NC336503  24.494   9.767   9.453
 7752POPC   PO436504  24.533   9.735   9.153
 7752POPC   GL136505  24.538   9.735   8.853
 7752POPC   GL236506  24.485   9.890   8.853
 7752POPC   C1A36507  24.454   9.798   8.553
 7752POPC   D2A36508  24.497   9.797   8.253
 7752POPC   C3A36509  24.522   9.735   7.953
 7752POPC   C4A36510  24.510   9.714   7.653
 7752POPC   C1B36511  24.559   9.974   8.553
 7752POPC   C2B36512  24.530   9.953   8.253
 7752POPC   C3B36513  24.548   9.951   7.953
 7752POPC   C4B36514  24.527  10.005   7.653
 7753POPC   NC336515  16.696  40.740   9.453
 7753POPC   PO436516  16.732  40.823   9.153
 7753POPC   GL136517  16.723  40.806   8.853
 7753POPC   GL236518  16.899  40.762   8.853
 7753POPC   C1A36519  16.691  40.761   8.553
 7753POPC   D2A36520  16.778  40.742   8.253
 7753POPC   C3A36521  16.712  40.763   7.953
 7753POPC   C4A36522  16.731  40.810   7.653
 7753POPC   C1B36523  17.022  40.813   8.553
 7753POPC   C2B36524  16.978  40.776   8.253
 7753POPC   C3B36525  17.008  40.788   7.953
 7753POPC   C4B36526  16.980  40.822   7.653
 7754POPC   NC336527   9.780   4.298   9.453
 7754POPC   PO436528   9.730   4.323   9.153
 7754POPC   GL136529   9.702   4.282   8.853
 7754POPC   GL236530   9.655   4.206   8.853
 7754POPC   C1A36531   9.724   4.302   8.553
 7754POPC   D2A36532   9.769   4.294   8.253
 7754POPC   C3A36533   9.796   4.356   7.953
 7754POPC   C4A36534   9.755   4.308   7.653
 7754POPC   C1B36535   9.520   4.153   8.553
 7754POPC   C2B36536   9.555   4.115   8.253
 7754POPC   C3B36537   9.600   4.104   7.953
 7754POPC   C4B36538   9.523   4.105   7.653
 7755POPC   NC336539  24.455  33.020   9.453
 7755POPC   PO436540  24.502  33.006   9.153
 7755POPC   GL136541  24.445  33.003   8.853
 7755POPC   GL236542  24.388  33.131   8.853
 7755POPC   C1A36543  24.456  33.042   8.553
 7755POPC   D2A36544  24.488  33.068   8.253
 7755POPC   C3A36545  24.465  33.050   7.953
 7755POPC   C4A36546  24.508  33.068   7.653
 7755POPC   C1B36547  24.357  33.197   8.553
 7755POPC   C2B36548  24.318  33.266   8.253
 7755POPC   C3B36549  24.291  33.180   7.953
 7755POPC   C4B36550  24.309  33.218   7.653
 7756POPC   NC336551  40.021  41.536   9.453
 7756POPC   PO436552  40.051  41.520   9.153
 7756POPC   GL136553  39.995  41.547   8.853
 7756POPC   GL236554  40.117  41.489   8.853
 7756POPC   C1A36555  40.038  41.547   8.553
 7756POPC   D2A36556  40.031  41.511   8.253
 7756POPC   C3A36557  39.963  41.552   7.953
 7756POPC   C4A36558  39.968  41.591   7.653
 7756POPC   C1B36559  40.141  41.369   8.553
 7756POPC   C2B36560  40.119  41.385   8.253
 7756POPC   C3B36561  40.177  41.341   7.953
 7756POPC   C4B36562  40.107  41.337   7.653
 7757POPC   NC336563  17.474  27.550   9.453
 7757POPC   PO436564  17.543  27.612   9.153
 7757POPC   GL136565  17.471  27.579   8.853
 7757POPC   GL236566  17.637  27.492   8.853
 7757POPC   C1A36567  17.550  27.586   8.553
 7757POPC   D2A36568  17.527  27.623   8.253
 7757POPC   C3A36569  17.491  27.565   7.953
 7757POPC   C4A36570  17.555  27.605   7.653
 7757POPC   C1B36571  17.665  27.354   8.553
 7757POPC   C2B36572  17.623  27.379   8.253
 7757POPC   C3B36573  17.698  27.391   7.953
 7757POPC   C4B36574  17.701  27.448   7.653
 7758POPC   NC336575  37.698   6.684   9.453
 7758POPC   PO436576  37.652   6.687   9.153
 7758POPC   GL136577  37.710   6.620   8.853
 7758POPC   GL236578  37.787   6.559   8.853
 7758POPC   C1A36579  37.649   6.658   8.553
 7758POPC   D2A36580  37.657   6.666   8.253
 7758POPC   C3A36581  37.678   6.615   7.953
 7758POPC   C4A36582  37.637   6.676   7.653
 7758POPC   C1B36583  37.845   6.424   8.553
 7758POPC   C2B36584  37.798   6.480   8.253
 7758POPC   C3B36585  37.780   6.394   7.953
 7758POPC   C4B36586  37.844   6.390   7.653
 7759POPC   NC336587  18.277  37.667   9.453
 7759POPC   PO436588  18.270  37.645   9.153
 7759POPC   GL136589  18.273  37.669   8.853
 7759POPC   GL236590  18.325  37.747   8.853
 7759POPC   C1A36591  18.238  37.646   8.553
 7759POPC   D2A36592  18.253  37.682   8.253
 7759POPC   C3A36593  18.251  37.711   7.953
 7759POPC   C4A36594  18.263  37.654   7.653
 7759POPC   C1B36595  18.416  37.851   8.553
 7759POPC   C2B36596  18.447  37.880   8.253
 7759POPC   C3B36597  18.441  37.876   7.953
 7759POPC   C4B36598  18.442  37.835   7.653
 7760POPC   NC336599  41.562   8.186   9.453
 7760POPC   PO436600  41.520   8.189   9.153
 7760POPC   GL136601  41.553   8.197   8.853
 7760POPC   GL236602  41.618   8.319   8.853
 7760POPC   C1A36603  41.588   8.211   8.553
 7760POPC   D2A36604  41.592   8.233   8.253
 7760POPC   C3A36605  41.513   8.154   7.953
 7760POPC   C4A36606  41.542   8.208   7.653
 7760POPC   C1B36607  41.702   8.338   8.553
 7760POPC   C2B36608  41.715   8.325   8.253
 7760POPC   C3B36609  41.773   8.386   7.953
 7760POPC   C4B36610  41.723   8.402   7.653
 7761POPC   NC336611  40.766   5.866   9.453
 7761POPC   PO436612  40.781   5.856   9.153
 7761POPC   GL136613  40.809   5.907   8.853
 7761POPC   GL236614  40.718   5.928   8.853
 7761POPC   C1A36615  40.746   5.895   8.553
 7761POPC   D2A36616  40.746   5.873   8.253
 7761POPC   C3A36617  40.737   5.862   7.953
 7761POPC   C4A36618  40.826   5.902   7.653
 7761POPC   C1B36619  40.624   6.090   8.553
 7761POPC   C2B36620  40.609   6.082   8.253
 7761POPC   C3B36621  40.662   6.047   7.953
 7761POPC   C4B36622  40.611   6.078   7.653
 7762POPC   NC336623  26.091  11.283   9.453
 7762POPC   PO436624  26.080  11.291   9.153
 7762POPC   GL136625  26.084  11.304   8.853
 7762POPC   GL236626  25.944  11.308   8.853
 7762POPC   C1A36627  26.046  11.254   8.553
 7762POPC   D2A36628  26.013  11.322   8.253
 7762POPC   C3A36629  26.026  11.328   7.953
 7762POPC   C4A36630  26.054  11.291   7.653
 7762POPC   C1B36631  25.828  11.404   8.553
 7762POPC   C2B36632  25.825  11.378   8.253
 7762POPC   C3B36633  25.841  11.400   7.953
 7762POPC   C4B36634  25.834  11.402   7.653
 7763POPC   NC336635  29.881  26.824   9.453
 7763POPC   PO436636  29.883  26.816   9.153
 7763POPC   GL136637  29.920  26.781   8.853
 7763POPC   GL236638  29.756  26.833   8.853
 7763POPC   C1A36639  29.917  26.813   8.553
 7763POPC   D2A36640  29.886  26.792   8.253
 7763POPC   C3A36641  29.953  26.778   7.953
 7763POPC   C4A36642  29.967  26.780   7.653
 7763POPC   C1B36643  29.664  26.885   8.553
 7763POPC   C2B36644  29.714  26.848   8.253
 7763POPC   C3B36645  29.718  26.902   7.953
 7763POPC   C4B36646  29.681  26.834   7.653
 7764POPC   NC336647  26.859  31.490   9.453
 7764POPC   PO436648  26.831  31.514   9.153
 7764POPC   GL136649  26.845  31.425   8.853
 7764POPC   GL236650  26.807  31.309   8.853
 7764POPC   C1A36651  26.812  31.450   8.553
 7764POPC   D2A36652  26.836  31.520   8.253
 7764POPC   C3A36653  26.855  31.445   7.953
 7764POPC   C4A36654  26.836  31.470   7.653
 7764POPC   C1B36655  26.700  31.211   8.553
 7764POPC   C2B36656  26.734  31.212   8.253
 7764POPC   C3B36657  26.694  31.284   7.953
 7764POPC   C4B36658  26.751  31.252   7.653
 7765POPC   NC336659  20.569  20.603   9.453
 7765POPC   PO436660  20.631  20.655   9.153
 7765POPC   GL136661  20.611  20.638   8.853
 7765POPC   GL236662  20.668  20.544   8.853
 7765POPC   C1A36663  20.622  20.629   8.553
 7765POPC   D2A36664  20.627  20.589   8.253
 7765POPC   C3A36665  20.657  20.619   7.953
 7765POPC   C4A36666  20.653  20.627   7.653
 7765POPC   C1B36667  20.749  20.456   8.553
 7765POPC   C2B36668  20.778  20.440   8.253
 7765POPC   C3B36669  20.752  20.396   7.953
 7765POPC   C4B36670  20.822  20.453   7.653
 7766POPC   NC336671  26.022  36.088   9.453
 7766POPC   PO436672  26.089  36.165   9.153
 7766POPC   GL136673  26.053  36.161   8.853
 7766POPC   GL236674  26.201  36.119   8.853
 7766POPC   C1A36675  26.048  36.165   8.553
 7766POPC   D2A36676  26.087  36.118   8.253
 7766POPC   C3A36677  26.069  36.125   7.953
 7766POPC   C4A36678  26.037  36.099   7.653
 7766POPC   C1B36679  26.273  36.214   8.553
 7766POPC   C2B36680  26.301  36.196   8.253
 7766POPC   C3B36681  26.256  36.187   7.953
 7766POPC   C4B36682  26.281  36.168   7.653
 7767POPC   NC336683  21.391  40.022   9.453
 7767POPC   PO436684  21.340  40.009   9.153
 7767POPC   GL136685  21.424  40.053   8.853
 7767POPC   GL236686  21.537  40.014   8.853
 7767POPC   C1A36687  21.381  40.047   8.553
 7767POPC   D2A36688  21.360  40.026   8.253
 7767POPC   C3A36689  21.392  40.047   7.953
 7767POPC   C4A36690  21.369  39.985   7.653
 7767POPC   C1B36691  21.661  39.974   8.553
 7767POPC   C2B36692  21.622  39.926   8.253
 7767POPC   C3B36693  21.677  39.976   7.953
 7767POPC   C4B36694  21.587  39.909   7.653
 7768POPC   NC336695   5.862  21.417   9.453
 7768POPC   PO436696   5.913  21.348   9.153
 7768POPC   GL136697   5.855  21.418   8.853
 7768POPC   GL236698   5.724  21.354   8.853
 7768POPC   C1A36699   5.866  21.418   8.553
 7768POPC   D2A36700   5.909  21.345   8.253
 7768POPC   C3A36701   5.831  21.400   7.953
 7768POPC   C4A36702   5.863  21.402   7.653
 7768POPC   C1B36703   5.615  21.290   8.553
 7768POPC   C2B36704   5.685  21.234   8.253
 7768POPC   C3B36705   5.605  21.276   7.953
 7768POPC   C4B36706   5.619  21.236   7.653
 7769POPC   NC336707   8.167  29.914   9.453
 7769POPC   PO436708   8.164  29.873   9.153
 7769POPC   GL136709   8.188  29.946   8.853
 7769POPC   GL236710   8.348  29.822   8.853
 7769POPC   C1A36711   8.147  29.954   8.553
 7769POPC   D2A36712   8.185  29.884   8.253
 7769POPC   C3A36713   8.166  29.946   7.953
 7769POPC   C4A36714   8.195  29.874   7.653
 7769POPC   C1B36715   8.415  29.784   8.553
 7769POPC   C2B36716   8.383  29.807   8.253
 7769POPC   C3B36717   8.408  29.826   7.953
 7769POPC   C4B36718   8.367  29.804   7.653
 7770POPC   NC336719  40.036  22.933   9.453
 7770POPC   PO436720  40.004  22.973   9.153
 7770POPC   GL136721  40.046  22.925   8.853
 7770POPC   GL236722  40.096  22.859   8.853
 7770POPC   C1A36723  39.983  22.905   8.553
 7770POPC   D2A36724  39.971  22.911   8.253
 7770POPC   C3A36725  39.998  22.916   7.953
 7770POPC   C4A36726  40.051  22.946   7.653
 7770POPC   C1B36727  40.073  22.714   8.553
 7770POPC   C2B36728  40.075  22.754   8.253
 7770POPC   C3B36729  40.058  22.684   7.953
 7770POPC   C4B36730  40.104  22.680   7.653
 7771POPC   NC336731  23.728  35.369   9.453
 7771POPC   PO436732  23.761  35.335   9.153
 7771POPC   GL136733  23.722  35.370   8.853
 7771POPC   GL236734  23.664  35.281   8.853
 7771POPC   C1A36735  23.693  35.376   8.553
 7771POPC   D2A36736  23.706  35.329   8.253
 7771POPC   C3A36737  23.682  35.309   7.953
 7771POPC   C4A36738  23.762  35.367   7.653
 7771POPC   C1B36739  23.649  35.164   8.553
 7771POPC   C2B36740  23.598  35.151   8.253
 7771POPC   C3B36741  23.681  35.140   7.953
 7771POPC   C4B36742  23.606  35.115   7.653
 7772POPC   NC336743  22.981  39.244   9.453
 7772POPC   PO436744  22.917  39.204   9.153
 7772POPC   GL136745  22.922  39.274   8.853
 7772POPC   GL236746  22.919  39.069   8.853
 7772POPC   C1A36747  22.944  39.257   8.553
 7772POPC   D2A36748  22.959  39.243   8.253
 7772POPC   C3A36749  22.948  39.244   7.953
 7772POPC   C4A36750  22.972  39.255   7.653
 7772POPC   C1B36751  22.847  39.033   8.553
 7772POPC   C2B36752  22.906  38.961   8.253
 7772POPC   C3B36753  22.857  39.016   7.953
 7772POPC   C4B36754  22.815  39.041   7.653
 7773POPC   NC336755  44.670  36.138   9.453
 7773POPC   PO436756  44.708  36.109   9.153
 7773POPC   GL136757  44.634  36.168   8.853
 7773POPC   GL236758  44.707  35.971   8.853
 7773POPC   C1A36759  44.616  36.161   8.553
 7773POPC   D2A36760  44.628  36.103   8.253
 7773POPC   C3A36761  44.668  36.117   7.953
 7773POPC   C4A36762  44.698  36.156   7.653
 7773POPC   C1B36763  44.779  35.918   8.553
 7773POPC   C2B36764  44.791  35.899   8.253
 7773POPC   C3B36765  44.750  35.924   7.953
 7773POPC   C4B36766  44.816  35.875   7.653
 7774POPC   NC336767   9.731  43.143   9.453
 7774POPC   PO436768   9.719  43.079   9.153
 7774POPC   GL136769   9.739  43.110   8.853
 7774POPC   GL236770   9.873  43.112   8.853
 7774POPC   C1A36771   9.713  43.063   8.553
 7774POPC   D2A36772   9.709  43.132   8.253
 7774POPC   C3A36773   9.721  43.091   7.953
 7774POPC   C4A36774   9.769  43.126   7.653
 7774POPC   C1B36775   9.977  43.149   8.553
 7774POPC   C2B36776   9.997  43.208   8.253
 7774POPC   C3B36777   9.973  43.163   7.953
 7774POPC   C4B36778  10.002  43.171   7.653
 7775POPC   NC336779  17.474  43.151   9.453
 7775POPC   PO436780  17.554  43.068   9.153
 7775POPC   GL136781  17.507  43.095   8.853
 7775POPC   GL236782  17.377  43.124   8.853
 7775POPC   C1A36783  17.462  43.142   8.553
 7775POPC   D2A36784  17.526  43.083   8.253
 7775POPC   C3A36785  17.469  43.078   7.953
 7775POPC   C4A36786  17.553  43.113   7.653
 7775POPC   C1B36787  17.294  43.137   8.553
 7775POPC   C2B36788  17.234  43.098   8.253
 7775POPC   C3B36789  17.304  43.160   7.953
 7775POPC   C4B36790  17.269  43.088   7.653
 7776POPC   NC336791  25.272  35.342   9.453
 7776POPC   PO436792  25.231  35.358   9.153
 7776POPC   GL136793  25.271  35.312   8.853
 7776POPC   GL236794  25.213  35.500   8.853
 7776POPC   C1A36795  25.308  35.368   8.553
 7776POPC   D2A36796  25.259  35.356   8.253
 7776POPC   C3A36797  25.246  35.304   7.953
 7776POPC   C4A36798  25.304  35.313   7.653
 7776POPC   C1B36799  25.151  35.613   8.553
 7776POPC   C2B36800  25.207  35.553   8.253
 7776POPC   C3B36801  25.216  35.549   7.953
 7776POPC   C4B36802  25.207  35.631   7.653
 7777POPC   NC336803  20.629  44.671   9.453
 7777POPC   PO436804  20.647  44.682   9.153
 7777POPC   GL136805  20.564  44.661   8.853
 7777POPC   GL236806  20.680  44.672   8.853
 7777POPC   C1A36807  20.645  44.708   8.553
 7777POPC   D2A36808  20.655  44.694   8.253
 7777POPC   C3A36809  20.565  44.647   7.953
 7777POPC   C4A36810  20.635  44.638   7.653
 7777POPC   C1B36811  20.830  44.773   8.553
 7777POPC   C2B36812  20.875  44.730   8.253
 7777POPC   C3B36813  20.863  44.763   7.953
 7777POPC   C4B36814  20.839  44.738   7.653
 7778POPC   NC336815  12.899  10.499   9.453
 7778POPC   PO436816  12.855  10.496   9.153
 7778POPC   GL136817  12.860  10.542   8.853
 7778POPC   GL236818  12.707  10.519   8.853
 7778POPC   C1A36819  12.809  10.499   8.553
 7778POPC   D2A36820  12.811  10.546   8.253
 7778POPC   C3A36821  12.873  10.544   7.953
 7778POPC   C4A36822  12.863  10.481   7.653
 7778POPC   C1B36823  12.595  10.530   8.553
 7778POPC   C2B36824  12.639  10.458   8.253
 7778POPC   C3B36825  12.602  10.495   7.953
 7778POPC   C4B36826  12.616  10.514   7.653
 7779POPC   NC336827  22.154  20.606   9.453
 7779POPC   PO436828  22.197  20.583   9.153
 7779POPC   GL136829  22.142  20.644   8.853
 7779POPC   GL236830  22.258  20.668   8.853
 7779POPC   C1A36831  22.197  20.623   8.553
 7779POPC   D2A36832  22.208  20.647   8.253
 7779POPC   C3A36833  22.189  20.619   7.953
 7779POPC   C4A36834  22.114  20.651   7.653
 7779POPC   C1B36835  22.371  20.716   8.553
 7779POPC   C2B36836  22.441  20.708   8.253
 7779POPC   C3B36837  22.414  20.728   7.953
 7779POPC   C4B36838  22.429  20.669   7.653
 7780POPC   NC336839  40.735  36.093   9.453
 7780POPC   PO436840  40.753  36.130   9.153
 7780POPC   GL136841  40.759  36.148   8.853
 7780POPC   GL236842  40.848  36.271   8.853
 7780POPC   C1A36843  40.822  36.123   8.553
 7780POPC   D2A36844  40.748  36.086   8.253
 7780POPC   C3A36845  40.801  36.137   7.953
 7780POPC   C4A36846  40.812  36.175   7.653
 7780POPC   C1B36847  40.782  36.340   8.553
 7780POPC   C2B36848  40.847  36.348   8.253
 7780POPC   C3B36849  40.798  36.390   7.953
 7780POPC   C4B36850  40.810  36.343   7.653
 7781POPC   NC336851  33.794  44.630   9.453
 7781POPC   PO436852  33.841  44.658   9.153
 7781POPC   GL136853  33.767  44.693   8.853
 7781POPC   GL236854  33.836  44.783   8.853
 7781POPC   C1A36855  33.845  44.697   8.553
 7781POPC   D2A36856  33.757  44.647   8.253
 7781POPC   C3A36857  33.769  44.656   7.953
 7781POPC   C4A36858  33.782  44.682   7.653
 7781POPC   C1B36859  33.824  44.879   8.553
 7781POPC   C2B36860  33.870  44.878   8.253
 7781POPC   C3B36861  33.878  44.926   7.953
 7781POPC   C4B36862  33.873  44.916   7.653
 7782POPC   NC336863  23.696  31.423   9.453
 7782POPC   PO436864  23.746  31.483   9.153
 7782POPC   GL136865  23.723  31.459   8.853
 7782POPC   GL236866  23.812  31.490   8.853
 7782POPC   C1A36867  23.744  31.489   8.553
 7782POPC   D2A36868  23.674  31.456   8.253
 7782POPC   C3A36869  23.681  31.496   7.953
 7782POPC   C4A36870  23.710  31.465   7.653
 7782POPC   C1B36871  23.975  31.542   8.553
 7782POPC   C2B36872  23.902  31.530   8.253
 7782POPC   C3B36873  23.979  31.567   7.953
 7782POPC   C4B36874  23.966  31.524   7.653
 7783POPC   NC336875  10.497  24.453   9.453
 7783POPC   PO436876  10.565  24.488   9.153
 7783POPC   GL136877  10.510  24.456   8.853
 7783POPC   GL236878  10.486  24.372   8.853
 7783POPC   C1A36879  10.548  24.530   8.553
 7783POPC   D2A36880  10.527  24.513   8.253
 7783POPC   C3A36881  10.487  24.470   7.953
 7783POPC   C4A36882  10.558  24.538   7.653
 7783POPC   C1B36883  10.468  24.277   8.553
 7783POPC   C2B36884  10.503  24.221   8.253
 7783POPC   C3B36885  10.542  24.288   7.953
 7783POPC   C4B36886  10.521  24.249   7.653
 7784POPC   NC336887   3.575  43.889   9.453
 7784POPC   PO436888   3.536  43.922   9.153
 7784POPC   GL136889   3.581  43.895   8.853
 7784POPC   GL236890   3.442  43.862   8.853
 7784POPC   C1A36891   3.570  43.856   8.553
 7784POPC   D2A36892   3.547  43.900   8.253
 7784POPC   C3A36893   3.527  43.914   7.953
 7784POPC   C4A36894   3.523  43.910   7.653
 7784POPC   C1B36895   3.339  43.942   8.553
 7784POPC   C2B36896   3.297  43.919   8.253
 7784POPC   C3B36897   3.297  43.857   7.953
 7784POPC   C4B36898   3.263  43.913   7.653
 7785POPC   NC336899   8.210   4.346   9.453
 7785POPC   PO436900   8.238   4.311   9.153
 7785POPC   GL136901   8.191   4.339   8.853
 7785POPC   GL236902   8.336   4.354   8.853
 7785POPC   C1A36903   8.169   4.362   8.553
 7785POPC   D2A36904   8.197   4.281   8.253
 7785POPC   C3A36905   8.213   4.362   7.953
 7785POPC   C4A36906   8.178   4.271   7.653
 7785POPC   C1B36907   8.448   4.385   8.553
 7785POPC   C2B36908   8.457   4.394   8.253
 7785POPC   C3B36909   8.391   4.409   7.953
 7785POPC   C4B36910   8.484   4.360   7.653
 7786POPC   NC336911  25.272  10.565   9.453
 7786POPC   PO436912  25.255  10.500   9.153
 7786POPC   GL136913  25.302  10.502   8.853
 7786POPC   GL236914  25.217  10.577   8.853
 7786POPC   C1A36915  25.296  10.573   8.553
 7786POPC   D2A36916  25.233  10.540   8.253
 7786POPC   C3A36917  25.268  10.514   7.953
 7786POPC   C4A36918  25.315  10.511   7.653
 7786POPC   C1B36919  25.057  10.698   8.553
 7786POPC   C2B36920  25.113  10.684   8.253
 7786POPC   C3B36921  25.096  10.721   7.953
 7786POPC   C4B36922  25.050  10.729   7.653
 7787POPC   NC336923  41.561  41.580   9.453
 7787POPC   PO436924  41.547  41.601   9.153
 7787POPC   GL136925  41.525  41.555   8.853
 7787POPC   GL236926  41.435  41.599   8.853
 7787POPC   C1A36927  41.603  41.603   8.553
 7787POPC   D2A36928  41.557  41.565   8.253
 7787POPC   C3A36929  41.582  41.579   7.953
 7787POPC   C4A36930  41.607  41.523   7.653
 7787POPC   C1B36931  41.287  41.629   8.553
 7787POPC   C2B36932  41.294  41.589   8.253
 7787POPC   C3B36933  41.287  41.594   7.953
 7787POPC   C4B36934  41.350  41.601   7.653
 7788POPC   NC336935  17.497   1.175   9.453
 7788POPC   PO436936  17.506   1.237   9.153
 7788POPC   GL136937  17.506   1.251   8.853
 7788POPC   GL236938  17.405   1.126   8.853
 7788POPC   C1A36939  17.463   1.195   8.553
 7788POPC   D2A36940  17.497   1.238   8.253
 7788POPC   C3A36941  17.480   1.233   7.953
 7788POPC   C4A36942  17.504   1.197   7.653
 7788POPC   C1B36943  17.385   1.043   8.553
 7788POPC   C2B36944  17.326   0.985   8.253
 7788POPC   C3B36945  17.395   1.012   7.953
 7788POPC   C4B36946  17.314   1.018   7.653
 7789POPC   NC336947  20.615  23.691   9.453
 7789POPC   PO436948  20.629  23.708   9.153
 7789POPC   GL136949  20.617  23.698   8.853
 7789POPC   GL236950  20.520  23.785   8.853
 7789POPC   C1A36951  20.576  23.709   8.553
 7789POPC   D2A36952  20.578  23.667   8.253
 7789POPC   C3A36953  20.609  23.668   7.953
 7789POPC   C4A36954  20.586  23.761   7.653
 7789POPC   C1B36955  20.416  23.734   8.553
 7789POPC   C2B36956  20.326  23.788   8.253
 7789POPC   C3B36957  20.359  23.819   7.953
 7789POPC   C4B36958  20.328  23.761   7.653
 7790POPC   NC336959  11.327   7.425   9.453
 7790POPC   PO436960  11.275   7.468   9.153
 7790POPC   GL136961  11.315   7.403   8.853
 7790POPC   GL236962  11.315   7.351   8.853
 7790POPC   C1A36963  11.300   7.433   8.553
 7790POPC   D2A36964  11.334   7.429   8.253
 7790POPC   C3A36965  11.306   7.396   7.953
 7790POPC   C4A36966  11.325   7.372   7.653
 7790POPC   C1B36967  11.433   7.169   8.553
 7790POPC   C2B36968  11.399   7.180   8.253
 7790POPC   C3B36969  11.446   7.178   7.953
 7790POPC   C4B36970  11.418   7.216   7.653
 7791POPC   NC336971  41.518  39.996   9.453
 7791POPC   PO436972  41.558  39.989   9.153
 7791POPC   GL136973  41.522  39.976   8.853
 7791POPC   GL236974  41.406  39.940   8.853
 7791POPC   C1A36975  41.515  40.042   8.553
 7791POPC   D2A36976  41.510  39.957   8.253
 7791POPC   C3A36977  41.569  40.030   7.953
 7791POPC   C4A36978  41.548  40.022   7.653
 7791POPC   C1B36979  41.364  39.928   8.553
 7791POPC   C2B36980  41.270  39.915   8.253
 7791POPC   C3B36981  41.335  39.951   7.953
 7791POPC   C4B36982  41.289  39.956   7.653
 7792POPC   NC336983  19.073  20.604   9.453
 7792POPC   PO436984  19.054  20.570   9.153
 7792POPC   GL136985  19.024  20.584   8.853
 7792POPC   GL236986  19.015  20.734   8.853
 7792POPC   C1A36987  19.026  20.629   8.553
 7792POPC   D2A36988  19.105  20.608   8.253
 7792POPC   C3A36989  19.074  20.619   7.953
 7792POPC   C4A36990  19.060  20.602   7.653
 7792POPC   C1B36991  18.873  20.838   8.553
 7792POPC   C2B36992  18.928  20.815   8.253
 7792POPC   C3B36993  18.882  20.787   7.953
 7792POPC   C4B36994  18.872  20.764   7.653
 7793POPC   NC336995   5.868  29.889   9.453
 7793POPC   PO436996   5.843  29.901   9.153
 7793POPC   GL136997   5.844  29.883   8.853
 7793POPC   GL236998   5.758  29.835   8.853
 7793POPC   C1A36999   5.837  29.946   8.553
 7793POPC   D2A37000   5.835  29.937   8.253
 7793POPC   C3A37001   5.888  29.883   7.953
 7793POPC   C4A37002   5.909  29.938   7.653
 7793POPC   C1B37003   5.776  29.681   8.553
 7793POPC   C2B37004   5.737  29.692   8.253
 7793POPC   C3B37005   5.695  29.708   7.953
 7793POPC   C4B37006   5.707  29.705   7.653
 7794POPC   NC337007  26.026  43.931   9.453
 7794POPC   PO437008  26.021  43.849   9.153
 7794POPC   GL137009  26.035  43.936   8.853
 7794POPC   GL237010  25.972  43.901   8.853
 7794POPC   C1A37011  26.044  43.872   8.553
 7794POPC   D2A37012  26.031  43.902   8.253
 7794POPC   C3A37013  26.044  43.853   7.953
 7794POPC   C4A37014  25.993  43.895   7.653
 7794POPC   C1B37015  25.775  43.955   8.553
 7794POPC   C2B37016  25.842  43.934   8.253
 7794POPC   C3B37017  25.815  44.011   7.953
 7794POPC   C4B37018  25.823  43.932   7.653
 7795POPC   NC337019  26.828  24.525   9.453
 7795POPC   PO437020  26.810  24.534   9.153
 7795POPC   GL137021  26.779  24.533   8.853
 7795POPC   GL237022  26.655  24.541   8.853
 7795POPC   C1A37023  26.787  24.448   8.553
 7795POPC   D2A37024  26.795  24.489   8.253
 7795POPC   C3A37025  26.833  24.500   7.953
 7795POPC   C4A37026  26.777  24.461   7.653
 7795POPC   C1B37027  26.612  24.634   8.553
 7795POPC   C2B37028  26.631  24.539   8.253
 7795POPC   C3B37029  26.596  24.616   7.953
 7795POPC   C4B37030  26.555  24.582   7.653
 7796POPC   NC337031  22.164  21.420   9.453
 7796POPC   PO437032  22.165  21.436   9.153
 7796POPC   GL137033  22.165  21.343   8.853
 7796POPC   GL237034  22.006  21.356   8.853
 7796POPC   C1A37035  22.163  21.337   8.553
 7796POPC   D2A37036  22.121  21.407   8.253
 7796POPC   C3A37037  22.124  21.421   7.953
 7796POPC   C4A37038  22.120  21.362   7.653
 7796POPC   C1B37039  21.916  21.251   8.553
 7796POPC   C2B37040  21.927  21.264   8.253
 7796POPC   C3B37041  21.906  21.247   7.953
 7796POPC   C4B37042  21.973  21.279   7.653
 7797POPC   NC337043  33.064  29.884   9.453
 7797POPC   PO437044  32.988  29.904   9.153
 7797POPC   GL137045  33.070  29.909   8.853
 7797POPC   GL237046  33.151  29.865   8.853
 7797POPC   C1A37047  33.052  29.935   8.553
 7797POPC   D2A37048  33.020  29.959   8.253
 7797POPC   C3A37049  33.064  29.894   7.953
 7797POPC   C4A37050  33.043  29.961   7.653
 7797POPC   C1B37051  33.300  29.899   8.553
 7797POPC   C2B37052  33.261  29.871   8.253
 7797POPC   C3B37053  33.288  29.865   7.953
 7797POPC   C4B37054  33.220  29.822   7.653
 7798POPC   NC337055  19.054   7.375   9.453
 7798POPC   PO437056  19.049   7.446   9.153
 7798POPC   GL137057  19.080   7.422   8.853
 7798POPC   GL237058  19.162   7.398   8.853
 7798POPC   C1A37059  19.057   7.411   8.553
 7798POPC   D2A37060  19.044   7.412   8.253
 7798POPC   C3A37061  19.100   7.393   7.953
 7798POPC   C4A37062  19.068   7.458   7.653
 7798POPC   C1B37063  19.253   7.275   8.553
 7798POPC   C2B37064  19.223   7.334   8.253
 7798POPC   C3B37065  19.295   7.332   7.953
 7798POPC   C4B37066  19.264   7.260   7.653
 7799POPC   NC337067  12.121  29.147   9.453
 7799POPC   PO437068  12.069  29.112   9.153
 7799POPC   GL137069  12.026  29.168   8.853
 7799POPC   GL237070  12.128  29.054   8.853
 7799POPC   C1A37071  12.098  29.179   8.553
 7799POPC   D2A37072  12.118  29.145   8.253
 7799POPC   C3A37073  12.053  29.115   7.953
 7799POPC   C4A37074  12.116  29.104   7.653
 7799POPC   C1B37075  12.174  28.903   8.553
 7799POPC   C2B37076  12.180  28.864   8.253
 7799POPC   C3B37077  12.172  28.858   7.953
 7799POPC   C4B37078  12.174  28.925   7.653
 7800POPC   NC337079  38.415  30.716   9.453
 7800POPC   PO437080  38.485  30.720   9.153
 7800POPC   GL137081  38.442  30.729   8.853
 7800POPC   GL237082  38.606  30.670   8.853
 7800POPC   C1A37083  38.409  30.722   8.553
 7800POPC   D2A37084  38.458  30.743   8.253
 7800POPC   C3A37085  38.416  30.695   7.953
 7800POPC   C4A37086  38.485  30.697   7.653
 7800POPC   C1B37087  38.695  30.633   8.553
 7800POPC   C2B37088  38.744  30.671   8.253
 7800POPC   C3B37089  38.698  30.685   7.953
 7800POPC   C4B37090  38.738  30.609   7.653
 7801POPC   NC337091  24.461  11.293   9.453
 7801POPC   PO437092  24.442  11.291   9.153
 7801POPC   GL137093  24.493  11.323   8.853
 7801POPC   GL237094  24.519  11.195   8.853
 7801POPC   C1A37095  24.518  11.299   8.553
 7801POPC   D2A37096  24.470  11.344   8.253
 7801POPC   C3A37097  24.525  11.279   7.953
 7801POPC   C4A37098  24.465  11.264   7.653
 7801POPC   C1B37099  24.446  11.016   8.553
 7801POPC   C2B37100  24.428  11.041   8.253
 7801POPC   C3B37101  24.432  11.092   7.953
 7801POPC   C4B37102  24.507  11.055   7.653
 7802POPC   NC337103  23.709  15.924   9.453
 7802POPC   PO437104  23.752  15.919   9.153
 7802POPC   GL137105  23.750  15.946   8.853
 7802POPC   GL237106  23.614  15.963   8.853
 7802POPC   C1A37107  23.745  15.936   8.553
 7802POPC   D2A37108  23.701  16.004   8.253
 7802POPC   C3A37109  23.729  15.916   7.953
 7802POPC   C4A37110  23.744  15.958   7.653
 7802POPC   C1B37111  23.422  15.957   8.553
 7802POPC   C2B37112  23.464  16.005   8.253
 7802POPC   C3B37113  23.503  15.993   7.953
 7802POPC   C4B37114  23.496  15.931   7.653
 7803POPC   NC337115  36.128  42.300   9.453
 7803POPC   PO437116  36.131  42.301   9.153
 7803POPC   GL137117  36.098  42.347   8.853
 7803POPC   GL237118  36.078  42.484   8.853
 7803POPC   C1A37119  36.123  42.341   8.553
 7803POPC   D2A37120  36.099  42.364   8.253
 7803POPC   C3A37121  36.153  42.328   7.953
 7803POPC   C4A37122  36.111  42.335   7.653
 7803POPC   C1B37123  36.064  42.569   8.553
 7803POPC   C2B37124  36.033  42.600   8.253
 7803POPC   C3B37125  36.093  42.589   7.953
 7803POPC   C4B37126  36.049  42.526   7.653
 7804POPC   NC337127  10.574   3.543   9.453
 7804POPC   PO437128  10.538   3.586   9.153
 7804POPC   GL137129  10.565   3.529   8.853
 7804POPC   GL237130  10.447   3.624   8.853
 7804POPC   C1A37131  10.515   3.508   8.553
 7804POPC   D2A37132  10.556   3.503   8.253
 7804POPC   C3A37133  10.541   3.494   7.953
 7804POPC   C4A37134  10.486   3.584   7.653
 7804POPC   C1B37135  10.377   3.781   8.553
 7804POPC   C2B37136  10.380   3.762   8.253
 7804POPC   C3B37137  10.459   3.754   7.953
 7804POPC   C4B37138  10.426   3.754   7.653
 7805POPC   NC337139  31.510   9.016   9.453
 7805POPC   PO437140  31.432   8.989   9.153
 7805POPC   GL137141  31.473   8.978   8.853
 7805POPC   GL237142  31.358   9.110   8.853
 7805POPC   C1A37143  31.428   8.945   8.553
 7805POPC   D2A37144  31.444   8.932   8.253
 7805POPC   C3A37145  31.467   8.985   7.953
 7805POPC   C4A37146  31.489   8.981   7.653
 7805POPC   C1B37147  31.376   9.162   8.553
 7805POPC   C2B37148  31.347   9.143   8.253
 7805POPC   C3B37149  31.376   9.128   7.953
 7805POPC   C4B37150  31.332   9.162   7.653
 7806POPC   NC337151  11.251   1.985   9.453
 7806POPC   PO437152  11.326   1.960   9.153
 7806POPC   GL137153  11.337   1.962   8.853
 7806POPC   GL237154  11.294   2.120   8.853
 7806POPC   C1A37155  11.342   1.986   8.553
 7806POPC   D2A37156  11.341   1.973   8.253
 7806POPC   C3A37157  11.319   1.943   7.953
 7806POPC   C4A37158  11.269   1.942   7.653
 7806POPC   C1B37159  11.361   2.240   8.553
 7806POPC   C2B37160  11.380   2.238   8.253
 7806POPC   C3B37161  11.337   2.255   7.953
 7806POPC   C4B37162  11.365   2.222   7.653
 7807POPC   NC337163  40.026  10.497   9.453
 7807POPC   PO437164  40.046  10.570   9.153
 7807POPC   GL137165  39.995  10.480   8.853
 7807POPC   GL237166  39.946  10.593   8.853
 7807POPC   C1A37167  39.958  10.562   8.553
 7807POPC   D2A37168  39.986  10.542   8.253
 7807POPC   C3A37169  39.972  10.534   7.953
 7807POPC   C4A37170  39.993  10.561   7.653
 7807POPC   C1B37171  39.910  10.744   8.553
 7807POPC   C2B37172  39.913  10.734   8.253
 7807POPC   C3B37173  39.865  10.730   7.953
 7807POPC   C4B37174  39.901  10.748   7.653
 7808POPC   NC337175  35.396  32.988   9.453
 7808POPC   PO437176  35.308  32.976   9.153
 7808POPC   GL137177  35.400  33.067   8.853
 7808POPC   GL237178  35.251  32.968   8.853
 7808POPC   C1A37179  35.313  33.031   8.553
 7808POPC   D2A37180  35.313  33.004   8.253
 7808POPC   C3A37181  35.315  32.988   7.953
 7808POPC   C4A37182  35.397  32.986   7.653
 7808POPC   C1B37183  35.257  32.779   8.553
 7808POPC   C2B37184  35.223  32.802   8.253
 7808POPC   C3B37185  35.179  32.793   7.953
 7808POPC   C4B37186  35.206  32.853   7.653
 7809POPC   NC337187  33.793  43.136   9.453
 7809POPC   PO437188  33.837  43.111   9.153
 7809POPC   GL137189  33.761  43.128   8.853
 7809POPC   GL237190  33.911  43.143   8.853
 7809POPC   C1A37191  33.828  43.118   8.553
 7809POPC   D2A37192  33.846  43.099   8.253
 7809POPC   C3A37193  33.752  43.131   7.953
 7809POPC   C4A37194  33.792  43.086   7.653
 7809POPC   C1B37195  33.965  43.254   8.553
 7809POPC   C2B37196  33.965  43.269   8.253
 7809POPC   C3B37197  33.974  43.251   7.953
 7809POPC   C4B37198  34.035  43.265   7.653
 7810POPC   NC337199  22.164  34.545   9.453
 7810POPC   PO437200  22.137  34.538   9.153
 7810POPC   GL137201  22.200  34.622   8.853
 7810POPC   GL237202  22.037  34.650   8.853
 7810POPC   C1A37203  22.172  34.540   8.553
 7810POPC   D2A37204  22.150  34.528   8.253
 7810POPC   C3A37205  22.176  34.548   7.953
 7810POPC   C4A37206  22.180  34.604   7.653
 7810POPC   C1B37207  21.949  34.742   8.553
 7810POPC   C2B37208  21.970  34.737   8.253
 7810POPC   C3B37209  21.924  34.761   7.953
 7810POPC   C4B37210  22.009  34.720   7.653
 7811POPC   NC337211  44.640   8.924   9.453
 7811POPC   PO437212  44.676   8.973   9.153
 7811POPC   GL137213  44.627   8.944   8.853
 7811POPC   GL237214  44.797   8.960   8.853
 7811POPC   C1A37215  44.708   8.987   8.553
 7811POPC   D2A37216  44.622   8.980   8.253
 7811POPC   C3A37217  44.699   8.942   7.953
 7811POPC   C4A37218  44.635   8.960   7.653
 7811POPC   C1B37219  44.950   9.072   8.553
 7811POPC   C2B37220  44.924   9.053   8.253
 7811POPC   C3B37221  44.941   9.038   7.953
 7811POPC   C4B37222  44.860   9.046   7.653
 7812POPC   NC337223   5.044  21.431   9.453
 7812POPC   PO437224   5.080  21.370   9.153
 7812POPC   GL137225   5.044  21.377   8.853
 7812POPC   GL237226   4.976  21.320   8.853
 7812POPC   C1A37227   5.078  21.419   8.553
 7812POPC   D2A37228   5.138  21.421   8.253
 7812POPC   C3A37229   5.061  21.426   7.953
 7812POPC   C4A37230   5.106  21.369   7.653
 7812POPC   C1B37231   4.891  21.285   8.553
 7812POPC   C2B37232   4.896  21.235   8.253
 7812POPC   C3B37233   4.849  21.226   7.953
 7812POPC   C4B37234   4.933  21.216   7.653
 7813POPC   NC337235  21.407  14.365   9.453
 7813POPC   PO437236  21.342  14.393   9.153
 7813POPC   GL137237  21.405  14.409   8.853
 7813POPC   GL237238  21.476  14.525   8.853
 7813POPC   C1A37239  21.341  14.411   8.553
 7813POPC   D2A37240  21.374  14.373   8.253
 7813POPC   C3A37241  21.426  14.438   7.953
 7813POPC   C4A37242  21.408  14.450   7.653
 7813POPC   C1B37243  21.492  14.593   8.553
 7813POPC   C2B37244  21.457  14.644   8.253
 7813POPC   C3B37245  21.462  14.618   7.953
 7813POPC   C4B37246  21.540  14.606   7.653
 7814POPC   NC337247  13.658  18.283   9.453
 7814POPC   PO437248  13.646  18.253   9.153
 7814POPC   GL137249  13.652  18.264   8.853
 7814POPC   GL237250  13.520  18.358   8.853
 7814POPC   C1A37251  13.643  18.309   8.553
 7814POPC   D2A37252  13.658  18.240   8.253
 7814POPC   C3A37253  13.603  18.239   7.953
 7814POPC   C4A37254  13.599  18.272   7.653
 7814POPC   C1B37255  13.403  18.317   8.553
 7814POPC   C2B37256  13.361  18.372   8.253
 7814POPC   C3B37257  13.405  18.358   7.953
 7814POPC   C4B37258  13.377  18.378   7.653
 7815POPC   NC337259   2.785  11.309   9.453
 7815POPC   PO437260   2.738  11.333   9.153
 7815POPC   GL137261   2.757  11.334   8.853
 7815POPC   GL237262   2.637  11.245   8.853
 7815POPC   C1A37263   2.802  11.320   8.553
 7815POPC   D2A37264   2.784  11.330   8.253
 7815POPC   C3A37265   2.770  11.293   7.953
 7815POPC   C4A37266   2.754  11.314   7.653
 7815POPC   C1B37267   2.515  11.260   8.553
 7815POPC   C2B37268   2.524  11.252   8.253
 7815POPC   C3B37269   2.536  11.246   7.953
 7815POPC   C4B37270   2.489  11.194   7.653
 7816POPC   NC337271   8.978  36.098   9.453
 7816POPC   PO437272   8.927  36.083   9.153
 7816POPC   GL137273   8.993  36.147   8.853
 7816POPC   GL237274   8.865  36.197   8.853
 7816POPC   C1A37275   8.980  36.132   8.553
 7816POPC   D2A37276   8.982  36.095   8.253
 7816POPC   C3A37277   8.956  36.151   7.953
 7816POPC   C4A37278   8.961  36.147   7.653
 7816POPC   C1B37279   8.714  36.225   8.553
 7816POPC   C2B37280   8.784  36.270   8.253
 7816POPC   C3B37281   8.744  36.206   7.953
 7816POPC   C4B37282   8.712  36.276   7.653
 7817POPC   NC337283  23.718  15.179   9.453
 7817POPC   PO437284  23.677  15.182   9.153
 7817POPC   GL137285  23.699  15.130   8.853
 7817POPC   GL237286  23.807  15.287   8.853
 7817POPC   C1A37287  23.735  15.158   8.553
 7817POPC   D2A37288  23.755  15.147   8.253
 7817POPC   C3A37289  23.691  15.141   7.953
 7817POPC   C4A37290  23.670  15.167   7.653
 7817POPC   C1B37291  23.915  15.308   8.553
 7817POPC   C2B37292  23.893  15.343   8.253
 7817POPC   C3B37293  23.936  15.370   7.953
 7817POPC   C4B37294  23.927  15.346   7.653
 7818POPC   NC337295  39.254  31.454   9.453
 7818POPC   PO437296  39.202  31.500   9.153
 7818POPC   GL137297  39.216  31.498   8.853
 7818POPC   GL237298  39.401  31.446   8.853
 7818POPC   C1A37299  39.276  31.505   8.553
 7818POPC   D2A37300  39.205  31.459   8.253
 7818POPC   C3A37301  39.231  31.466   7.953
 7818POPC   C4A37302  39.207  31.489   7.653
 7818POPC   C1B37303  39.481  31.425   8.553
 7818POPC   C2B37304  39.445  31.446   8.253
 7818POPC   C3B37305  39.434  31.446   7.953
 7818POPC   C4B37306  39.510  31.451   7.653
 7819POPC   NC337307  13.662  42.331   9.453
 7819POPC   PO437308  13.667  42.346   9.153
 7819POPC   GL137309  13.608  42.366   8.853
 7819POPC   GL237310  13.699  42.401   8.853
 7819POPC   C1A37311  13.629  42.354   8.553
 7819POPC   D2A37312  13.647  42.368   8.253
 7819POPC   C3A37313  13.647  42.308   7.953
 7819POPC   C4A37314  13.602  42.309   7.653
 7819POPC   C1B37315  13.692  42.603   8.553
 7819POPC   C2B37316  13.698  42.614   8.253
 7819POPC   C3B37317  13.762  42.521   7.953
 7819POPC   C4B37318  13.743  42.517   7.653
 7820POPC   NC337319  42.309  39.181   9.453
 7820POPC   PO437320  42.355  39.226   9.153
 7820POPC   GL137321  42.333  39.195   8.853
 7820POPC   GL237322  42.234  39.281   8.853
 7820POPC   C1A37323  42.301  39.218   8.553
 7820POPC   D2A37324  42.362  39.239   8.253
 7820POPC   C3A37325  42.380  39.225   7.953
 7820POPC   C4A37326  42.381  39.254   7.653
 7820POPC   C1B37327  42.125  39.233   8.553
 7820POPC   C2B37328  42.112  39.247   8.253
 7820POPC   C3B37329  42.063  39.270   7.953
 7820POPC   C4B37330  42.048  39.249   7.653
 7821POPC   NC337331  12.085  42.291   9.453
 7821POPC   PO437332  12.063  42.378   9.153
 7821POPC   GL137333  12.057  42.369   8.853
 7821POPC   GL237334  12.094  42.487   8.853
 7821POPC   C1A37335  12.089  42.291   8.553
 7821POPC   D2A37336  12.083  42.383   8.253
 7821POPC   C3A37337  12.034  42.350   7.953
 7821POPC   C4A37338  12.043  42.306   7.653
 7821POPC   C1B37339  12.123  42.532   8.553
 7821POPC   C2B37340  12.206  42.522   8.253
 7821POPC   C3B37341  12.187  42.518   7.953
 7821POPC   C4B37342  12.144  42.587   7.653
 7822POPC   NC337343  29.873  42.307   9.453
 7822POPC   PO437344  29.962  42.372   9.153
 7822POPC   GL137345  29.930  42.331   8.853
 7822POPC   GL237346  29.886  42.487   8.853
 7822POPC   C1A37347  29.913  42.332   8.553
 7822POPC   D2A37348  29.928  42.323   8.253
 7822POPC   C3A37349  29.920  42.332   7.953
 7822POPC   C4A37350  29.937  42.336   7.653
 7822POPC   C1B37351  29.877  42.562   8.553
 7822POPC   C2B37352  29.861  42.598   8.253
 7822POPC   C3B37353  29.843  42.540   7.953
 7822POPC   C4B37354  29.839  42.613   7.653
 7823POPC   NC337355  36.094  28.353   9.453
 7823POPC   PO437356  36.158  28.360   9.153
 7823POPC   GL137357  36.153  28.405   8.853
 7823POPC   GL237358  36.113  28.459   8.853
 7823POPC   C1A37359  36.108  28.379   8.553
 7823POPC   D2A37360  36.093  28.407   8.253
 7823POPC   C3A37361  36.119  28.390   7.953
 7823POPC   C4A37362  36.137  28.326   7.653
 7823POPC   C1B37363  36.023  28.573   8.553
 7823POPC   C2B37364  36.065  28.611   8.253
 7823POPC   C3B37365  36.056  28.546   7.953
 7823POPC   C4B37366  36.024  28.637   7.653
 7824POPC   NC337367  27.636   7.408   9.453
 7824POPC   PO437368  27.628   7.438   9.153
 7824POPC   GL137369  27.605   7.413   8.853
 7824POPC   GL237370  27.564   7.282   8.853
 7824POPC   C1A37371  27.629   7.434   8.553
 7824POPC   D2A37372  27.622   7.425   8.253
 7824POPC   C3A37373  27.562   7.417   7.953
 7824POPC   C4A37374  27.551   7.451   7.653
 7824POPC   C1B37375  27.446   7.222   8.553
 7824POPC   C2B37376  27.444   7.256   8.253
 7824POPC   C3B37377  27.489   7.201   7.953
 7824POPC   C4B37378  27.491   7.177   7.653
 7825POPC   NC337379  30.713   4.334   9.453
 7825POPC   PO437380  30.732   4.342   9.153
 7825POPC   GL137381  30.697   4.360   8.853
 7825POPC   GL237382  30.726   4.396   8.853
 7825POPC   C1A37383  30.684   4.357   8.553
 7825POPC   D2A37384  30.678   4.325   8.253
 7825POPC   C3A37385  30.745   4.325   7.953
 7825POPC   C4A37386  30.718   4.345   7.653
 7825POPC   C1B37387  30.772   4.529   8.553
 7825POPC   C2B37388  30.795   4.514   8.253
 7825POPC   C3B37389  30.845   4.497   7.953
 7825POPC   C4B37390  30.837   4.582   7.653
 7826POPC   NC337391  19.871  21.406   9.453
 7826POPC   PO437392  19.818  21.368   9.153
 7826POPC   GL137393  19.837  21.422   8.853
 7826POPC   GL237394  19.977  21.460   8.853
 7826POPC   C1A37395  19.859  21.369   8.553
 7826POPC   D2A37396  19.867  21.429   8.253
 7826POPC   C3A37397  19.789  21.362   7.953
 7826POPC   C4A37398  19.827  21.373   7.653
 7826POPC   C1B37399  20.027  21.468   8.553
 7826POPC   C2B37400  20.090  21.464   8.253
 7826POPC   C3B37401  20.107  21.467   7.953
 7826POPC   C4B37402  20.065  21.439   7.653
 7827POPC   NC337403   2.751  28.382   9.453
 7827POPC   PO437404   2.778  28.333   9.153
 7827POPC   GL137405   2.752  28.409   8.853
 7827POPC   GL237406   2.718  28.276   8.853
 7827POPC   C1A37407   2.735  28.379   8.553
 7827POPC   D2A37408   2.781  28.360   8.253
 7827POPC   C3A37409   2.748  28.328   7.953
 7827POPC   C4A37410   2.724  28.414   7.653
 7827POPC   C1B37411   2.590  28.208   8.553
 7827POPC   C2B37412   2.528  28.242   8.253
 7827POPC   C3B37413   2.581  28.211   7.953
 7827POPC   C4B37414   2.547  28.169   7.653
 7828POPC   NC337415  19.082  36.153   9.453
 7828POPC   PO437416  19.072  36.106   9.153
 7828POPC   GL137417  19.036  36.087   8.853
 7828POPC   GL237418  19.010  36.211   8.853
 7828POPC   C1A37419  19.065  36.135   8.553
 7828POPC   D2A37420  19.028  36.171   8.253
 7828POPC   C3A37421  19.078  36.106   7.953
 7828POPC   C4A37422  19.102  36.164   7.653
 7828POPC   C1B37423  18.996  36.349   8.553
 7828POPC   C2B37424  19.004  36.369   8.253
 7828POPC   C3B37425  19.023  36.405   7.953
 7828POPC   C4B37426  18.959  36.395   7.653
 7829POPC   NC337427  15.153  35.399   9.453
 7829POPC   PO437428  15.214  35.330   9.153
 7829POPC   GL137429  15.211  35.388   8.853
 7829POPC   GL237430  15.180  35.196   8.853
 7829POPC   C1A37431  15.207  35.328   8.553
 7829POPC   D2A37432  15.181  35.360   8.253
 7829POPC   C3A37433  15.146  35.378   7.953
 7829POPC   C4A37434  15.151  35.327   7.653
 7829POPC   C1B37435  15.096  35.109   8.553
 7829POPC   C2B37436  15.141  35.156   8.253
 7829POPC   C3B37437  15.134  35.088   7.953
 7829POPC   C4B37438  15.135  35.134   7.653
 7830POPC   NC337439  36.128  43.146   9.453
 7830POPC   PO437440  36.126  43.114   9.153
 7830POPC   GL137441  36.144  43.126   8.853
 7830POPC   GL237442  36.080  43.270   8.853
 7830POPC   C1A37443  36.172  43.135   8.553
 7830POPC   D2A37444  36.134  43.084   8.253
 7830POPC   C3A37445  36.099  43.131   7.953
 7830POPC   C4A37446  36.079  43.073   7.653
 7830POPC   C1B37447  36.084  43.391   8.553
 7830POPC   C2B37448  36.085  43.312   8.253
 7830POPC   C3B37449  36.169  43.366   7.953
 7830POPC   C4B37450  36.100  43.368   7.653
 7831POPC   NC337451  22.166  41.539   9.453
 7831POPC   PO437452  22.131  41.589   9.153
 7831POPC   GL137453  22.117  41.535   8.853
 7831POPC   GL237454  22.095  41.679   8.853
 7831POPC   C1A37455  22.138  41.551   8.553
 7831POPC   D2A37456  22.210  41.584   8.253
 7831POPC   C3A37457  22.129  41.520   7.953
 7831POPC   C4A37458  22.175  41.544   7.653
 7831POPC   C1B37459  22.036  41.835   8.553
 7831POPC   C2B37460  22.053  41.769   8.253
 7831POPC   C3B37461  22.089  41.834   7.953
 7831POPC   C4B37462  22.102  41.789   7.653
 7832POPC   NC337463  29.127  44.643   9.453
 7832POPC   PO437464  29.177  44.692   9.153
 7832POPC   GL137465  29.107  44.691   8.853
 7832POPC   GL237466  29.218  44.589   8.853
 7832POPC   C1A37467  29.136  44.655   8.553
 7832POPC   D2A37468  29.130  44.637   8.253
 7832POPC   C3A37469  29.172  44.662   7.953
 7832POPC   C4A37470  29.107  44.626   7.653
 7832POPC   C1B37471  29.196  44.450   8.553
 7832POPC   C2B37472  29.195  44.457   8.253
 7832POPC   C3B37473  29.173  44.447   7.953
 7832POPC   C4B37474  29.230  44.395   7.653
 7833POPC   NC337475  21.410  43.852   9.453
 7833POPC   PO437476  21.426  43.920   9.153
 7833POPC   GL137477  21.423  43.871   8.853
 7833POPC   GL237478  21.474  43.972   8.853
 7833POPC   C1A37479  21.403  43.913   8.553
 7833POPC   D2A37480  21.350  43.850   8.253
 7833POPC   C3A37481  21.364  43.858   7.953
 7833POPC   C4A37482  21.352  43.930   7.653
 7833POPC   C1B37483  21.449  44.090   8.553
 7833POPC   C2B37484  21.503  44.099   8.253
 7833POPC   C3B37485  21.476  44.066   7.953
 7833POPC   C4B37486  21.483  44.088   7.653
 7834POPC   NC337487  21.417  11.345   9.453
 7834POPC   PO437488  21.424  11.259   9.153
 7834POPC   GL137489  21.428  11.260   8.853
 7834POPC   GL237490  21.439  11.168   8.853
 7834POPC   C1A37491  21.398  11.300   8.553
 7834POPC   D2A37492  21.364  11.268   8.253
 7834POPC   C3A37493  21.387  11.303   7.953
 7834POPC   C4A37494  21.350  11.349   7.653
 7834POPC   C1B37495  21.461  11.053   8.553
 7834POPC   C2B37496  21.484  11.036   8.253
 7834POPC   C3B37497  21.503  11.062   7.953
 7834POPC   C4B37498  21.474  11.106   7.653
 7835POPC   NC337499  11.331  22.152   9.453
 7835POPC   PO437500  11.274  22.138   9.153
 7835POPC   GL137501  11.273  22.180   8.853
 7835POPC   GL237502  11.302  22.278   8.853
 7835POPC   C1A37503  11.276  22.173   8.553
 7835POPC   D2A37504  11.327  22.197   8.253
 7835POPC   C3A37505  11.283  22.188   7.953
 7835POPC   C4A37506  11.273  22.185   7.653
 7835POPC   C1B37507  11.357  22.434   8.553
 7835POPC   C2B37508  11.309  22.384   8.253
 7835POPC   C3B37509  11.324  22.422   7.953
 7835POPC   C4B37510  11.360  22.441   7.653
 7836POPC   NC337511  33.072   9.705   9.453
 7836POPC   PO437512  33.046   9.794   9.153
 7836POPC   GL137513  33.033   9.784   8.853
 7836POPC   GL237514  32.945   9.658   8.853
 7836POPC   C1A37515  33.051   9.755   8.553
 7836POPC   D2A37516  33.029   9.704   8.253
 7836POPC   C3A37517  33.051   9.762   7.953
 7836POPC   C4A37518  33.013   9.788   7.653
 7836POPC   C1B37519  32.917   9.545   8.553
 7836POPC   C2B37520  32.921   9.570   8.253
 7836POPC   C3B37521  32.911   9.569   7.953
 7836POPC   C4B37522  32.893   9.524   7.653
 7837POPC   NC337523  15.964   5.128   9.453
 7837POPC   PO437524  15.913   5.093   9.153
 7837POPC   GL137525  15.930   5.091   8.853
 7837POPC   GL237526  16.042   5.023   8.853
 7837POPC   C1A37527  15.954   5.131   8.553
 7837POPC   D2A37528  15.952   5.111   8.253
 7837POPC   C3A37529  15.917   5.095   7.953
 7837POPC   C4A37530  15.974   5.094   7.653
 7837POPC   C1B37531  16.135   4.949   8.553
 7837POPC   C2B37532  16.128   4.988   8.253
 7837POPC   C3B37533  16.163   4.977   7.953
 7837POPC   C4B37534  16.183   4.928   7.653
 7838POPC   NC337535  39.989  33.037   9.453
 7838POPC   PO437536  39.995  33.013   9.153
 7838POPC   GL137537  40.005  33.034   8.853
 7838POPC   GL237538  40.134  32.933   8.853
 7838POPC   C1A37539  39.967  32.981   8.553
 7838POPC   D2A37540  39.972  33.059   8.253
 7838POPC   C3A37541  40.006  32.977   7.953
 7838POPC   C4A37542  39.962  32.979   7.653
 7838POPC   C1B37543  40.157  32.877   8.553
 7838POPC   C2B37544  40.192  32.842   8.253
 7838POPC   C3B37545  40.125  32.861   7.953
 7838POPC   C4B37546  40.121  32.843   7.653
 7839POPC   NC337547  36.171   5.844   9.453
 7839POPC   PO437548  36.089   5.883   9.153
 7839POPC   GL137549  36.144   5.895   8.853
 7839POPC   GL237550  36.005   5.899   8.853
 7839POPC   C1A37551  36.164   5.891   8.553
 7839POPC   D2A37552  36.087   5.916   8.253
 7839POPC   C3A37553  36.155   5.827   7.953
 7839POPC   C4A37554  36.171   5.919   7.653
 7839POPC   C1B37555  35.940   5.965   8.553
 7839POPC   C2B37556  35.884   6.011   8.253
 7839POPC   C3B37557  35.930   5.993   7.953
 7839POPC   C4B37558  35.893   5.984   7.653
 7840POPC   NC337559  28.358   2.009   9.453
 7840POPC   PO437560  28.402   2.026   9.153
 7840POPC   GL137561  28.417   2.000   8.853
 7840POPC   GL237562  28.251   2.112   8.853
 7840POPC   C1A37563  28.358   2.014   8.553
 7840POPC   D2A37564  28.320   1.992   8.253
 7840POPC   C3A37565  28.386   1.992   7.953
 7840POPC   C4A37566  28.366   1.979   7.653
 7840POPC   C1B37567  28.197   2.140   8.553
 7840POPC   C2B37568  28.220   2.204   8.253
 7840POPC   C3B37569  28.215   2.185   7.953
 7840POPC   C4B37570  28.171   2.220   7.653
 7841POPC   NC337571  32.250  44.655   9.453
 7841POPC   PO437572  32.269  44.616   9.153
 7841POPC   GL137573  32.280  44.669   8.853
 7841POPC   GL237574  32.332  44.733   8.853
 7841POPC   C1A37575  32.232  44.653   8.553
 7841POPC   D2A37576  32.226  44.640   8.253
 7841POPC   C3A37577  32.250  44.655   7.953
 7841POPC   C4A37578  32.276  44.692   7.653
 7841POPC   C1B37579  32.396  44.852   8.553
 7841POPC   C2B37580  32.370  44.872   8.253
 7841POPC   C3B37581  32.401  44.878   7.953
 7841POPC   C4B37582  32.399  44.811   7.653
 7842POPC   NC337583  39.194  24.463   9.453
 7842POPC   PO437584  39.217  24.504   9.153
 7842POPC   GL137585  39.274  24.507   8.853
 7842POPC   GL237586  39.197  24.413   8.853
 7842POPC   C1A37587  39.252  24.508   8.553
 7842POPC   D2A37588  39.213  24.528   8.253
 7842POPC   C3A37589  39.277  24.443   7.953
 7842POPC   C4A37590  39.217  24.458   7.653
 7842POPC   C1B37591  39.152  24.220   8.553
 7842POPC   C2B37592  39.231  24.223   8.253
 7842POPC   C3B37593  39.234  24.276   7.953
 7842POPC   C4B37594  39.249  24.200   7.653
 7843POPC   NC337595   5.131  39.181   9.453
 7843POPC   PO437596   5.124  39.268   9.153
 7843POPC   GL137597   5.089  39.217   8.853
 7843POPC   GL237598   4.982  39.338   8.853
 7843POPC   C1A37599   5.099  39.230   8.553
 7843POPC   D2A37600   5.079  39.200   8.253
 7843POPC   C3A37601   5.086  39.242   7.953
 7843POPC   C4A37602   5.091  39.201   7.653
 7843POPC   C1B37603   4.916  39.388   8.553
 7843POPC   C2B37604   4.919  39.437   8.253
 7843POPC   C3B37605   4.955  39.435   7.953
 7843POPC   C4B37606   5.001  39.465   7.653
 7844POPC   NC337607  28.330   5.854   9.453
 7844POPC   PO437608  28.336   5.869   9.153
 7844POPC   GL137609  28.352   5.851   8.853
 7844POPC   GL237610  28.264   5.795   8.853
 7844POPC   C1A37611  28.417   5.912   8.553
 7844POPC   D2A37612  28.334   5.859   8.253
 7844POPC   C3A37613  28.323   5.838   7.953
 7844POPC   C4A37614  28.325   5.897   7.653
 7844POPC   C1B37615  28.136   5.831   8.553
 7844POPC   C2B37616  28.086   5.754   8.253
 7844POPC   C3B37617  28.145   5.805   7.953
 7844POPC   C4B37618  28.125   5.765   7.653
 7845POPC   NC337619  39.271  22.952   9.453
 7845POPC   PO437620  39.210  22.938   9.153
 7845POPC   GL137621  39.223  22.961   8.853
 7845POPC   GL237622  39.240  22.785   8.853
 7845POPC   C1A37623  39.276  22.900   8.553
 7845POPC   D2A37624  39.266  22.899   8.253
 7845POPC   C3A37625  39.223  22.955   7.953
 7845POPC   C4A37626  39.201  22.946   7.653
 7845POPC   C1B37627  39.307  22.718   8.553
 7845POPC   C2B37628  39.282  22.704   8.253
 7845POPC   C3B37629  39.252  22.653   7.953
 7845POPC   C4B37630  39.273  22.667   7.653
 7846POPC   NC337631  42.300   7.413   9.453
 7846POPC   PO437632  42.303   7.423   9.153
 7846POPC   GL137633  42.374   7.402   8.853
 7846POPC   GL237634  42.186   7.407   8.853
 7846POPC   C1A37635  42.294   7.403   8.553
 7846POPC   D2A37636  42.312   7.426   8.253
 7846POPC   C3A37637  42.321   7.421   7.953
 7846POPC   C4A37638  42.288   7.381   7.653
 7846POPC   C1B37639  42.065   7.403   8.553
 7846POPC   C2B37640  42.056   7.458   8.253
 7846POPC   C3B37641  42.112   7.488   7.953
 7846POPC   C4B37642  42.063   7.412   7.653
 7847POPC   NC337643  14.407  11.280   9.453
 7847POPC   PO437644  14.377  11.281   9.153
 7847POPC   GL137645  14.402  11.318   8.853
 7847POPC   GL237646  14.248  11.295   8.853
 7847POPC   C1A37647  14.420  11.299   8.553
 7847POPC   D2A37648  14.440  11.331   8.253
 7847POPC   C3A37649  14.375  11.350   7.953
 7847POPC   C4A37650  14.452  11.345   7.653
 7847POPC   C1B37651  14.169  11.330   8.553
 7847POPC   C2B37652  14.155  11.371   8.253
 7847POPC   C3B37653  14.177  11.305   7.953
 7847POPC   C4B37654  14.137  11.366   7.653
 7848POPC   NC337655  18.314  25.274   9.453
 7848POPC   PO437656  18.250  25.283   9.153
 7848POPC   GL137657  18.323  25.245   8.853
 7848POPC   GL237658  18.430  25.294   8.853
 7848POPC   C1A37659  18.247  25.295   8.553
 7848POPC   D2A37660  18.294  25.269   8.253
 7848POPC   C3A37661  18.233  25.281   7.953
 7848POPC   C4A37662  18.266  25.268   7.653
 7848POPC   C1B37663  18.522  25.263   8.553
 7848POPC   C2B37664  18.565  25.248   8.253
 7848POPC   C3B37665  18.503  25.294   7.953
 7848POPC   C4B37666  18.515  25.257   7.653
 7849POPC   NC337667  21.404   1.951   9.453
 7849POPC   PO437668  21.376   1.950   9.153
 7849POPC   GL137669  21.404   1.969   8.853
 7849POPC   GL237670  21.535   1.981   8.853
 7849POPC   C1A37671  21.414   1.978   8.553
 7849POPC   D2A37672  21.352   1.946   8.253
 7849POPC   C3A37673  21.341   2.016   7.953
 7849POPC   C4A37674  21.397   2.033   7.653
 7849POPC   C1B37675  21.586   1.919   8.553
 7849POPC   C2B37676  21.663   1.908   8.253
 7849POPC   C3B37677  21.676   1.954   7.953
 7849POPC   C4B37678  21.622   1.925   7.653
 7850POPC   NC337679  23.695  22.113   9.453
 7850POPC   PO437680  23.686  22.142   9.153
 7850POPC   GL137681  23.683  22.189   8.853
 7850POPC   GL237682  23.739  22.037   8.853
 7850POPC   C1A37683  23.757  22.207   8.553
 7850POPC   D2A37684  23.755  22.195   8.253
 7850POPC   C3A37685  23.683  22.187   7.953
 7850POPC   C4A37686  23.746  22.187   7.653
 7850POPC   C1B37687  23.885  21.940   8.553
 7850POPC   C2B37688  23.801  21.943   8.253
 7850POPC   C3B37689  23.817  21.987   7.953
 7850POPC   C4B37690  23.823  21.968   7.653
 7851POPC   NC337691  37.657   5.137   9.453
 7851POPC   PO437692  37.646   5.099   9.153
 7851POPC   GL137693  37.725   5.058   8.853
 7851POPC   GL237694  37.786   4.947   8.853
 7851POPC   C1A37695  37.642   5.089   8.553
 7851POPC   D2A37696  37.727   5.086   8.253
 7851POPC   C3A37697  37.673   5.046   7.953
 7851POPC   C4A37698  37.706   5.108   7.653
 7851POPC   C1B37699  37.835   4.846   8.553
 7851POPC   C2B37700  37.795   4.854   8.253
 7851POPC   C3B37701  37.838   4.886   7.953
 7851POPC   C4B37702  37.809   4.922   7.653
 7852POPC   NC337703  12.071  41.509   9.453
 7852POPC   PO437704  12.078  41.554   9.153
 7852POPC   GL137705  12.043  41.546   8.853
 7852POPC   GL237706  12.201  41.697   8.853
 7852POPC   C1A37707  12.069  41.558   8.553
 7852POPC   D2A37708  12.058  41.550   8.253
 7852POPC   C3A37709  12.036  41.513   7.953
 7852POPC   C4A37710  12.076  41.519   7.653
 7852POPC   C1B37711  12.242  41.731   8.553
 7852POPC   C2B37712  12.257  41.779   8.253
 7852POPC   C3B37713  12.255  41.733   7.953
 7852POPC   C4B37714  12.251  41.802   7.653
 7853POPC   NC337715  43.095   2.018   9.453
 7853POPC   PO437716  43.079   1.979   9.153
 7853POPC   GL137717  43.125   1.952   8.853
 7853POPC   GL237718  43.071   2.106   8.853
 7853POPC   C1A37719  43.115   2.010   8.553
 7853POPC   D2A37720  43.066   2.010   8.253
 7853POPC   C3A37721  43.061   1.953   7.953
 7853POPC   C4A37722  43.118   1.995   7.653
 7853POPC   C1B37723  43.037   2.221   8.553
 7853POPC   C2B37724  42.989   2.204   8.253
 7853POPC   C3B37725  43.050   2.256   7.953
 7853POPC   C4B37726  42.965   2.261   7.653
 7854POPC   NC337727  35.361  17.475   9.453
 7854POPC   PO437728  35.353  17.472   9.153
 7854POPC   GL137729  35.383  17.484   8.853
 7854POPC   GL237730  35.399  17.368   8.853
 7854POPC   C1A37731  35.318  17.495   8.553
 7854POPC   D2A37732  35.349  17.481   8.253
 7854POPC   C3A37733  35.399  17.493   7.953
 7854POPC   C4A37734  35.339  17.468   7.653
 7854POPC   C1B37735  35.401  17.280   8.553
 7854POPC   C2B37736  35.465  17.237   8.253
 7854POPC   C3B37737  35.463  17.312   7.953
 7854POPC   C4B37738  35.388  17.256   7.653
 7855POPC   NC337739   0.442   5.131   9.453
 7855POPC   PO437740   0.421   5.097   9.153
 7855POPC   GL137741   0.438   5.064   8.853
 7855POPC   GL237742   0.575   5.018   8.853
 7855POPC   C1A37743   0.471   5.115   8.553
 7855POPC   D2A37744   0.452   5.055   8.253
 7855POPC   C3A37745   0.485   5.050   7.953
 7855POPC   C4A37746   0.456   5.063   7.653
 7855POPC   C1B37747   0.659   4.923   8.553
 7855POPC   C2B37748   0.591   4.887   8.253
 7855POPC   C3B37749   0.591   4.885   7.953
 7855POPC   C4B37750   0.617   4.938   7.653
 7856POPC   NC337751  36.168  13.628   9.453
 7856POPC   PO437752  36.115  13.629   9.153
 7856POPC   GL137753  36.177  13.603   8.853
 7856POPC   GL237754  36.286  13.572   8.853
 7856POPC   C1A37755  36.153  13.622   8.553
 7856POPC   D2A37756  36.099  13.656   8.253
 7856POPC   C3A37757  36.155  13.671   7.953
 7856POPC   C4A37758  36.167  13.664   7.653
 7856POPC   C1B37759  36.362  13.545   8.553
 7856POPC   C2B37760  36.413  13.517   8.253
 7856POPC   C3B37761  36.393  13.585   7.953
 7856POPC   C4B37762  36.355  13.591   7.653
 7857POPC   NC337763  16.682  11.309   9.453
 7857POPC   PO437764  16.706  11.324   9.153
 7857POPC   GL137765  16.724  11.266   8.853
 7857POPC   GL237766  16.727  11.169   8.853
 7857POPC   C1A37767  16.730  11.305   8.553
 7857POPC   D2A37768  16.755  11.329   8.253
 7857POPC   C3A37769  16.741  11.301   7.953
 7857POPC   C4A37770  16.752  11.348   7.653
 7857POPC   C1B37771  16.578  11.051   8.553
 7857POPC   C2B37772  16.623  11.053   8.253
 7857POPC   C3B37773  16.611  11.086   7.953
 7857POPC   C4B37774  16.660  11.087   7.653
 7858POPC   NC337775   4.287  19.882   9.453
 7858POPC   PO437776   4.348  19.808   9.153
 7858POPC   GL137777   4.291  19.868   8.853
 7858POPC   GL237778   4.290  19.770   8.853
 7858POPC   C1A37779   4.291  19.848   8.553
 7858POPC   D2A37780   4.275  19.862   8.253
 7858POPC   C3A37781   4.358  19.879   7.953
 7858POPC   C4A37782   4.358  19.863   7.653
 7858POPC   C1B37783   4.212  19.636   8.553
 7858POPC   C2B37784   4.217  19.595   8.253
 7858POPC   C3B37785   4.216  19.581   7.953
 7858POPC   C4B37786   4.177  19.649   7.653
 7859POPC   NC337787  13.668  44.673   9.453
 7859POPC   PO437788  13.601  44.647   9.153
 7859POPC   GL137789  13.589  44.618   8.853
 7859POPC   GL237790  13.455  44.601   8.853
 7859POPC   C1A37791  13.673  44.701   8.553
 7859POPC   D2A37792  13.670  44.682   8.253
 7859POPC   C3A37793  13.658  44.697   7.953
 7859POPC   C4A37794  13.603  44.613   7.653
 7859POPC   C1B37795  13.405  44.667   8.553
 7859POPC   C2B37796  13.364  44.632   8.253
 7859POPC   C3B37797  13.336  44.630   7.953
 7859POPC   C4B37798  13.412  44.646   7.653
 7860POPC   NC337799   1.182  26.845   9.453
 7860POPC   PO437800   1.207  26.843   9.153
 7860POPC   GL137801   1.183  26.846   8.853
 7860POPC   GL237802   1.325  26.853   8.853
 7860POPC   C1A37803   1.210  26.820   8.553
 7860POPC   D2A37804   1.258  26.852   8.253
 7860POPC   C3A37805   1.224  26.857   7.953
 7860POPC   C4A37806   1.164  26.791   7.653
 7860POPC   C1B37807   1.422  26.921   8.553
 7860POPC   C2B37808   1.444  26.953   8.253
 7860POPC   C3B37809   1.377  26.964   7.953
 7860POPC   C4B37810   1.393  26.966   7.653
 7861POPC   NC337811  28.361  42.318   9.453
 7861POPC   PO437812  28.352  42.353   9.153
 7861POPC   GL137813  28.415  42.329   8.853
 7861POPC   GL237814  28.276  42.224   8.853
 7861POPC   C1A37815  28.362  42.294   8.553
 7861POPC   D2A37816  28.353  42.358   8.253
 7861POPC   C3A37817  28.357  42.308   7.953
 7861POPC   C4A37818  28.331  42.346   7.653
 7861POPC   C1B37819  28.231  42.103   8.553
 7861POPC   C2B37820  28.229  42.152   8.253
 7861POPC   C3B37821  28.252  42.076   7.953
 7861POPC   C4B37822  28.202  42.146   7.653
 7862POPC   NC337823  17.475  28.346   9.453
 7862POPC   PO437824  17.531  28.388   9.153
 7862POPC   GL137825  17.502  28.333   8.853
 7862POPC   GL237826  17.422  28.258   8.853
 7862POPC   C1A37827  17.536  28.390   8.553
 7862POPC   D2A37828  17.491  28.347   8.253
 7862POPC   C3A37829  17.534  28.355   7.953
 7862POPC   C4A37830  17.523  28.376   7.653
 7862POPC   C1B37831  17.372  28.152   8.553
 7862POPC   C2B37832  17.460  28.103   8.253
 7862POPC   C3B37833  17.426  28.107   7.953
 7862POPC   C4B37834  17.444  28.119   7.653
 7863POPC   NC337835  15.166  15.987   9.453
 7863POPC   PO437836  15.154  15.983   9.153
 7863POPC   GL137837  15.206  15.939   8.853
 7863POPC   GL237838  15.175  16.115   8.853
 7863POPC   C1A37839  15.181  15.966   8.553
 7863POPC   D2A37840  15.132  15.997   8.253
 7863POPC   C3A37841  15.150  15.957   7.953
 7863POPC   C4A37842  15.195  15.940   7.653
 7863POPC   C1B37843  15.052  16.180   8.553
 7863POPC   C2B37844  15.048  16.199   8.253
 7863POPC   C3B37845  15.102  16.149   7.953
 7863POPC   C4B37846  15.109  16.147   7.653
 7864POPC   NC337847   6.689  36.172   9.453
 7864POPC   PO437848   6.656  36.128   9.153
 7864POPC   GL137849   6.682  36.117   8.853
 7864POPC   GL237850   6.752  36.042   8.853
 7864POPC   C1A37851   6.687  36.106   8.553
 7864POPC   D2A37852   6.672  36.099   8.253
 7864POPC   C3A37853   6.622  36.096   7.953
 7864POPC   C4A37854   6.614  36.168   7.653
 7864POPC   C1B37855   6.817  35.872   8.553
 7864POPC   C2B37856   6.799  35.888   8.253
 7864POPC   C3B37857   6.809  35.922   7.953
 7864POPC   C4B37858   6.762  35.959   7.653
 7865POPC   NC337859  36.117  26.797   9.453
 7865POPC   PO437860  36.168  26.809   9.153
 7865POPC   GL137861  36.088  26.825   8.853
 7865POPC   GL237862  35.969  26.870   8.853
 7865POPC   C1A37863  36.094  26.837   8.553
 7865POPC   D2A37864  36.096  26.860   8.253
 7865POPC   C3A37865  36.130  26.844   7.953
 7865POPC   C4A37866  36.154  26.864   7.653
 7865POPC   C1B37867  35.923  26.890   8.553
 7865POPC   C2B37868  35.882  26.963   8.253
 7865POPC   C3B37869  35.876  26.935   7.953
 7865POPC   C4B37870  35.911  26.952   7.653
 7866POPC   NC337871   2.790  36.913   9.453
 7866POPC   PO437872   2.756  36.873   9.153
 7866POPC   GL137873   2.773  36.948   8.853
 7866POPC   GL237874   2.870  36.912   8.853
 7866POPC   C1A37875   2.741  36.873   8.553
 7866POPC   D2A37876   2.795  36.933   8.253
 7866POPC   C3A37877   2.745  36.947   7.953
 7866POPC   C4A37878   2.792  36.867   7.653
 7866POPC   C1B37879   3.051  36.857   8.553
 7866POPC   C2B37880   3.014  36.890   8.253
 7866POPC   C3B37881   3.021  36.852   7.953
 7866POPC   C4B37882   2.991  36.852   7.653
 7867POPC   NC337883  38.431  35.338   9.453
 7867POPC   PO437884  38.504  35.359   9.153
 7867POPC   GL137885  38.439  35.390   8.853
 7867POPC   GL237886  38.303  35.330   8.853
 7867POPC   C1A37887  38.425  35.330   8.553
 7867POPC   D2A37888  38.472  35.395   8.253
 7867POPC   C3A37889  38.454  35.380   7.953
 7867POPC   C4A37890  38.465  35.308   7.653
 7867POPC   C1B37891  38.225  35.383   8.553
 7867POPC   C2B37892  38.164  35.397   8.253
 7867POPC   C3B37893  38.164  35.429   7.953
 7867POPC   C4B37894  38.183  35.355   7.653
 7868POPC   NC337895  36.861  14.403   9.453
 7868POPC   PO437896  36.937  14.421   9.153
 7868POPC   GL137897  36.872  14.404   8.853
 7868POPC   GL237898  37.025  14.479   8.853
 7868POPC   C1A37899  36.937  14.379   8.553
 7868POPC   D2A37900  36.879  14.428   8.253
 7868POPC   C3A37901  36.880  14.384   7.953
 7868POPC   C4A37902  36.941  14.438   7.653
 7868POPC   C1B37903  37.130  14.576   8.553
 7868POPC   C2B37904  37.108  14.519   8.253
 7868POPC   C3B37905  37.112  14.550   7.953
 7868POPC   C4B37906  37.109  14.578   7.653
 7869POPC   NC337907  19.020   5.903   9.453
 7869POPC   PO437908  19.075   5.901   9.153
 7869POPC   GL137909  19.068   5.875   8.853
 7869POPC   GL237910  18.968   5.838   8.853
 7869POPC   C1A37911  19.092   5.831   8.553
 7869POPC   D2A37912  19.056   5.866   8.253
 7869POPC   C3A37913  19.029   5.831   7.953
 7869POPC   C4A37914  19.098   5.846   7.653
 7869POPC   C1B37915  18.815   5.877   8.553
 7869POPC   C2B37916  18.818   5.890   8.253
 7869POPC   C3B37917  18.775   5.916   7.953
 7869POPC   C4B37918  18.777   5.834   7.653
 7870POPC   NC337919  13.619  19.064   9.453
 7870POPC   PO437920  13.604  19.017   9.153
 7870POPC   GL137921  13.624  19.105   8.853
 7870POPC   GL237922  13.651  19.211   8.853
 7870POPC   C1A37923  13.643  19.016   8.553
 7870POPC   D2A37924  13.628  19.085   8.253
 7870POPC   C3A37925  13.578  19.012   7.953
 7870POPC   C4A37926  13.589  19.017   7.653
 7870POPC   C1B37927  13.701  19.300   8.553
 7870POPC   C2B37928  13.744  19.319   8.253
 7870POPC   C3B37929  13.776  19.307   7.953
 7870POPC   C4B37930  13.751  19.235   7.653
 7871POPC   NC337931  29.889  32.293   9.453
 7871POPC   PO437932  29.892  32.228   9.153
 7871POPC   GL137933  29.955  32.260   8.853
 7871POPC   GL237934  29.790  32.330   8.853
 7871POPC   C1A37935  29.942  32.267   8.553
 7871POPC   D2A37936  29.907  32.202   8.253
 7871POPC   C3A37937  29.918  32.242   7.953
 7871POPC   C4A37938  29.940  32.239   7.653
 7871POPC   C1B37939  29.735  32.455   8.553
 7871POPC   C2B37940  29.763  32.439   8.253
 7871POPC   C3B37941  29.705  32.448   7.953
 7871POPC   C4B37942  29.760  32.400   7.653
 7872POPC   NC337943  26.863  18.300   9.453
 7872POPC   PO437944  26.866  18.257   9.153
 7872POPC   GL137945  26.857  18.300   8.853
 7872POPC   GL237946  26.706  18.245   8.853
 7872POPC   C1A37947  26.867  18.257   8.553
 7872POPC   D2A37948  26.813  18.292   8.253
 7872POPC   C3A37949  26.819  18.317   7.953
 7872POPC   C4A37950  26.847  18.318   7.653
 7872POPC   C1B37951  26.529  18.288   8.553
 7872POPC   C2B37952  26.616  18.329   8.253
 7872POPC   C3B37953  26.574  18.298   7.953
 7872POPC   C4B37954  26.588  18.305   7.653
 7873POPC   NC337955  29.872  24.465   9.453
 7873POPC   PO437956  29.956  24.455   9.153
 7873POPC   GL137957  29.942  24.496   8.853
 7873POPC   GL237958  29.863  24.600   8.853
 7873POPC   C1A37959  29.917  24.530   8.553
 7873POPC   D2A37960  29.967  24.516   8.253
 7873POPC   C3A37961  29.945  24.485   7.953
 7873POPC   C4A37962  29.887  24.454   7.653
 7873POPC   C1B37963  29.802  24.760   8.553
 7873POPC   C2B37964  29.813  24.749   8.253
 7873POPC   C3B37965  29.856  24.728   7.953
 7873POPC   C4B37966  29.857  24.738   7.653
 7874POPC   NC337967  26.062  33.803   9.453
 7874POPC   PO437968  26.002  33.802   9.153
 7874POPC   GL137969  26.090  33.838   8.853
 7874POPC   GL237970  26.082  33.934   8.853
 7874POPC   C1A37971  26.054  33.837   8.553
 7874POPC   D2A37972  26.011  33.838   8.253
 7874POPC   C3A37973  26.041  33.823   7.953
 7874POPC   C4A37974  26.049  33.840   7.653
 7874POPC   C1B37975  26.162  33.987   8.553
 7874POPC   C2B37976  26.116  34.073   8.253
 7874POPC   C3B37977  26.172  34.039   7.953
 7874POPC   C4B37978  26.098  34.015   7.653
 7875POPC   NC337979   1.228  42.307   9.453
 7875POPC   PO437980   1.229  42.317   9.153
 7875POPC   GL137981   1.220  42.348   8.853
 7875POPC   GL237982   1.086  42.288   8.853
 7875POPC   C1A37983   1.227  42.340   8.553
 7875POPC   D2A37984   1.263  42.305   8.253
 7875POPC   C3A37985   1.185  42.301   7.953
 7875POPC   C4A37986   1.200  42.312   7.653
 7875POPC   C1B37987   0.985  42.289   8.553
 7875POPC   C2B37988   1.013  42.324   8.253
 7875POPC   C3B37989   1.005  42.339   7.953
 7875POPC   C4B37990   1.001  42.321   7.653
 7876POPC   NC337991  43.115   7.466   9.453
 7876POPC   PO437992  43.095   7.409   9.153
 7876POPC   GL137993  43.112   7.389   8.853
 7876POPC   GL237994  43.047   7.311   8.853
 7876POPC   C1A37995  43.155   7.437   8.553
 7876POPC   D2A37996  43.137   7.428   8.253
 7876POPC   C3A37997  43.094   7.428   7.953
 7876POPC   C4A37998  43.077   7.389   7.653
 7876POPC   C1B37999  42.998   7.203   8.553
 7876POPC   C2B38000  42.975   7.270   8.253
 7876POPC   C3B38001  42.926   7.227   7.953
 7876POPC   C4B38002  42.947   7.230   7.653
 7877POPC   NC338003   5.093   6.627   9.453
 7877POPC   PO438004   5.064   6.650   9.153
 7877POPC   GL138005   5.051   6.646   8.853
 7877POPC   GL238006   5.180   6.543   8.853
 7877POPC   C1A38007   5.080   6.650   8.553
 7877POPC   D2A38008   5.102   6.681   8.253
 7877POPC   C3A38009   5.081   6.597   7.953
 7877POPC   C4A38010   5.049   6.640   7.653
 7877POPC   C1B38011   5.263   6.467   8.553
 7877POPC   C2B38012   5.322   6.458   8.253
 7877POPC   C3B38013   5.309   6.505   7.953
 7877POPC   C4B38014   5.343   6.525   7.653
 7878POPC   NC338015  23.736  19.854   9.453
 7878POPC   PO438016  23.694  19.861   9.153
 7878POPC   GL138017  23.719  19.840   8.853
 7878POPC   GL238018  23.825  19.838   8.853
 7878POPC   C1A38019  23.746  19.884   8.553
 7878POPC   D2A38020  23.748  19.803   8.253
 7878POPC   C3A38021  23.756  19.812   7.953
 7878POPC   C4A38022  23.719  19.815   7.653
 7878POPC   C1B38023  23.952  19.800   8.553
 7878POPC   C2B38024  23.960  19.779   8.253
 7878POPC   C3B38025  23.940  19.720   7.953
 7878POPC   C4B38026  23.950  19.716   7.653
 7879POPC   NC338027  15.939   8.195   9.453
 7879POPC   PO438028  15.964   8.210   9.153
 7879POPC   GL138029  15.938   8.245   8.853
 7879POPC   GL238030  16.094   8.260   8.853
 7879POPC   C1A38031  15.981   8.227   8.553
 7879POPC   D2A38032  15.965   8.241   8.253
 7879POPC   C3A38033  15.940   8.212   7.953
 7879POPC   C4A38034  15.995   8.162   7.653
 7879POPC   C1B38035  16.224   8.331   8.553
 7879POPC   C2B38036  16.173   8.333   8.253
 7879POPC   C3B38037  16.218   8.286   7.953
 7879POPC   C4B38038  16.212   8.285   7.653
 7880POPC   NC338039  26.814   5.918   9.453
 7880POPC   PO438040  26.804   5.880   9.153
 7880POPC   GL138041  26.809   5.883   8.853
 7880POPC   GL238042  26.943   5.928   8.853
 7880POPC   C1A38043  26.831   5.904   8.553
 7880POPC   D2A38044  26.838   5.819   8.253
 7880POPC   C3A38045  26.865   5.893   7.953
 7880POPC   C4A38046  26.818   5.848   7.653
 7880POPC   C1B38047  27.091   5.909   8.553
 7880POPC   C2B38048  27.078   5.963   8.253
 7880POPC   C3B38049  27.057   5.956   7.953
 7880POPC   C4B38050  27.007   5.929   7.653
 7881POPC   NC338051   7.470  32.229   9.453
 7881POPC   PO438052   7.404  32.286   9.153
 7881POPC   GL138053   7.438  32.205   8.853
 7881POPC   GL238054   7.260  32.235   8.853
 7881POPC   C1A38055   7.372  32.282   8.553
 7881POPC   D2A38056   7.413  32.280   8.253
 7881POPC   C3A38057   7.447  32.229   7.953
 7881POPC   C4A38058   7.438  32.220   7.653
 7881POPC   C1B38059   7.170  32.320   8.553
 7881POPC   C2B38060   7.137  32.350   8.253
 7881POPC   C3B38061   7.219  32.274   7.953
 7881POPC   C4B38062   7.127  32.292   7.653
 7882POPC   NC338063  23.748   2.779   9.453
 7882POPC   PO438064  23.724   2.717   9.153
 7882POPC   GL138065  23.737   2.797   8.853
 7882POPC   GL238066  23.762   2.911   8.853
 7882POPC   C1A38067  23.724   2.735   8.553
 7882POPC   D2A38068  23.685   2.756   8.253
 7882POPC   C3A38069  23.732   2.797   7.953
 7882POPC   C4A38070  23.710   2.722   7.653
 7882POPC   C1B38071  23.824   3.040   8.553
 7882POPC   C2B38072  23.785   2.977   8.253
 7882POPC   C3B38073  23.756   3.011   7.953
 7882POPC   C4B38074  23.846   2.958   7.653
 7883POPC   NC338075  31.505   8.231   9.453
 7883POPC   PO438076  31.467   8.226   9.153
 7883POPC   GL138077  31.476   8.220   8.853
 7883POPC   GL238078  31.360   8.160   8.853
 7883POPC   C1A38079  31.510   8.196   8.553
 7883POPC   D2A38080  31.495   8.179   8.253
 7883POPC   C3A38081  31.446   8.206   7.953
 7883POPC   C4A38082  31.505   8.230   7.653
 7883POPC   C1B38083  31.247   7.991   8.553
 7883POPC   C2B38084  31.261   8.052   8.253
 7883POPC   C3B38085  31.237   8.043   7.953
 7883POPC   C4B38086  31.259   8.071   7.653
 7884POPC   NC338087  32.986  42.345   9.453
 7884POPC   PO438088  33.070  42.361   9.153
 7884POPC   GL138089  33.033  42.355   8.853
 7884POPC   GL238090  32.909  42.241   8.853
 7884POPC   C1A38091  33.049  42.365   8.553
 7884POPC   D2A38092  33.066  42.287   8.253
 7884POPC   C3A38093  33.035  42.325   7.953
 7884POPC   C4A38094  33.001  42.334   7.653
 7884POPC   C1B38095  32.818  42.199   8.553
 7884POPC   C2B38096  32.839  42.148   8.253
 7884POPC   C3B38097  32.863  42.149   7.953
 7884POPC   C4B38098  32.806  42.139   7.653
 7885POPC   NC338099  19.018  40.030   9.453
 7885POPC   PO438100  19.012  40.030   9.153
 7885POPC   GL138101  19.085  39.996   8.853
 7885POPC   GL238102  19.009  39.863   8.853
 7885POPC   C1A38103  19.014  40.023   8.553
 7885POPC   D2A38104  19.013  39.986   8.253
 7885POPC   C3A38105  19.029  40.022   7.953
 7885POPC   C4A38106  19.083  40.022   7.653
 7885POPC   C1B38107  18.984  39.731   8.553
 7885POPC   C2B38108  19.047  39.740   8.253
 7885POPC   C3B38109  19.018  39.721   7.953
 7885POPC   C4B38110  19.030  39.720   7.653
 7886POPC   NC338111  41.576  28.358   9.453
 7886POPC   PO438112  41.535  28.381   9.153
 7886POPC   GL138113  41.605  28.324   8.853
 7886POPC   GL238114  41.625  28.534   8.853
 7886POPC   C1A38115  41.565  28.361   8.553
 7886POPC   D2A38116  41.579  28.338   8.253
 7886POPC   C3A38117  41.603  28.396   7.953
 7886POPC   C4A38118  41.565  28.385   7.653
 7886POPC   C1B38119  41.636  28.613   8.553
 7886POPC   C2B38120  41.575  28.626   8.253
 7886POPC   C3B38121  41.646  28.643   7.953
 7886POPC   C4B38122  41.654  28.657   7.653
 7887POPC   NC338123  36.943  26.783   9.453
 7887POPC   PO438124  36.943  26.818   9.153
 7887POPC   GL138125  36.861  26.792   8.853
 7887POPC   GL238126  36.746  26.881   8.853
 7887POPC   C1A38127  36.905  26.840   8.553
 7887POPC   D2A38128  36.864  26.863   8.253
 7887POPC   C3A38129  36.885  26.783   7.953
 7887POPC   C4A38130  36.880  26.854   7.653
 7887POPC   C1B38131  36.622  26.849   8.553
 7887POPC   C2B38132  36.626  26.831   8.253
 7887POPC   C3B38133  36.633  26.847   7.953
 7887POPC   C4B38134  36.651  26.819   7.653
 7888POPC   NC338135  36.900  36.129   9.453
 7888POPC   PO438136  36.860  36.137   9.153
 7888POPC   GL138137  36.924  36.169   8.853
 7888POPC   GL238138  36.875  35.980   8.853
 7888POPC   C1A38139  36.908  36.142   8.553
 7888POPC   D2A38140  36.893  36.158   8.253
 7888POPC   C3A38141  36.912  36.104   7.953
 7888POPC   C4A38142  36.915  36.151   7.653
 7888POPC   C1B38143  36.717  35.950   8.553
 7888POPC   C2B38144  36.744  35.932   8.253
 7888POPC   C3B38145  36.718  35.957   7.953
 7888POPC   C4B38146  36.786  35.942   7.653
 7889POPC   NC338147  26.035  29.924   9.453
 7889POPC   PO438148  26.017  29.905   9.153
 7889POPC   GL138149  25.997  29.952   8.853
 7889POPC   GL238150  25.920  29.882   8.853
 7889POPC   C1A38151  26.066  29.891   8.553
 7889POPC   D2A38152  26.010  29.957   8.253
 7889POPC   C3A38153  26.006  29.906   7.953
 7889POPC   C4A38154  26.027  29.942   7.653
 7889POPC   C1B38155  25.860  29.749   8.553
 7889POPC   C2B38156  25.893  29.764   8.253
 7889POPC   C3B38157  25.825  29.766   7.953
 7889POPC   C4B38158  25.855  29.724   7.653
 7890POPC   NC338159   0.402  27.563   9.453
 7890POPC   PO438160   0.454  27.563   9.153
 7890POPC   GL138161   0.410  27.632   8.853
 7890POPC   GL238162   0.595  27.590   8.853
 7890POPC   C1A38163   0.452  27.575   8.553
 7890POPC   D2A38164   0.438  27.548   8.253
 7890POPC   C3A38165   0.466  27.616   7.953
 7890POPC   C4A38166   0.486  27.595   7.653
 7890POPC   C1B38167   0.643  27.679   8.553
 7890POPC   C2B38168   0.645  27.703   8.253
 7890POPC   C3B38169   0.720  27.626   7.953
 7890POPC   C4B38170   0.629  27.618   7.653
 7891POPC   NC338171  27.564  26.062   9.453
 7891POPC   PO438172  27.617  26.084   9.153
 7891POPC   GL138173  27.574  26.065   8.853
 7891POPC   GL238174  27.683  26.108   8.853
 7891POPC   C1A38175  27.619  26.006   8.553
 7891POPC   D2A38176  27.547  26.041   8.253
 7891POPC   C3A38177  27.558  26.031   7.953
 7891POPC   C4A38178  27.566  26.084   7.653
 7891POPC   C1B38179  27.715  26.252   8.553
 7891POPC   C2B38180  27.769  26.223   8.253
 7891POPC   C3B38181  27.757  26.226   7.953
 7891POPC   C4B38182  27.750  26.211   7.653
 7892POPC   NC338183  19.809  40.779   9.453
 7892POPC   PO438184  19.818  40.780   9.153
 7892POPC   GL138185  19.824  40.784   8.853
 7892POPC   GL238186  19.698  40.649   8.853
 7892POPC   C1A38187  19.827  40.757   8.553
 7892POPC   D2A38188  19.825  40.769   8.253
 7892POPC   C3A38189  19.872  40.767   7.953
 7892POPC   C4A38190  19.869  40.749   7.653
 7892POPC   C1B38191  19.689  40.616   8.553
 7892POPC   C2B38192  19.704  40.569   8.253
 7892POPC   C3B38193  19.641  40.568   7.953
 7892POPC   C4B38194  19.615  40.655   7.653
 7893POPC   NC338195  40.787   1.974   9.453
 7893POPC   PO438196  40.753   1.940   9.153
 7893POPC   GL138197  40.764   2.021   8.853
 7893POPC   GL238198  40.827   1.842   8.853
 7893POPC   C1A38199  40.741   1.983   8.553
 7893POPC   D2A38200  40.786   2.002   8.253
 7893POPC   C3A38201  40.752   2.005   7.953
 7893POPC   C4A38202  40.782   1.995   7.653
 7893POPC   C1B38203  40.939   1.778   8.553
 7893POPC   C2B38204  40.955   1.796   8.253
 7893POPC   C3B38205  40.881   1.790   7.953
 7893POPC   C4B38206  40.906   1.801   7.653
 7894POPC   NC338207  43.075  37.695   9.453
 7894POPC   PO438208  43.099  37.673   9.153
 7894POPC   GL138209  43.121  37.651   8.853
 7894POPC   GL238210  43.256  37.650   8.853
 7894POPC   C1A38211  43.074  37.650   8.553
 7894POPC   D2A38212  43.071  37.719   8.253
 7894POPC   C3A38213  43.099  37.729   7.953
 7894POPC   C4A38214  43.093  37.704   7.653
 7894POPC   C1B38215  43.322  37.670   8.553
 7894POPC   C2B38216  43.408  37.672   8.253
 7894POPC   C3B38217  43.403  37.688   7.953
 7894POPC   C4B38218  43.399  37.671   7.653
 7895POPC   NC338219  16.743  25.275   9.453
 7895POPC   PO438220  16.734  25.274   9.153
 7895POPC   GL138221  16.731  25.290   8.853
 7895POPC   GL238222  16.702  25.134   8.853
 7895POPC   C1A38223  16.742  25.310   8.553
 7895POPC   D2A38224  16.730  25.312   8.253
 7895POPC   C3A38225  16.744  25.232   7.953
 7895POPC   C4A38226  16.720  25.258   7.653
 7895POPC   C1B38227  16.622  25.027   8.553
 7895POPC   C2B38228  16.634  25.031   8.253
 7895POPC   C3B38229  16.623  25.017   7.953
 7895POPC   C4B38230  16.713  24.978   7.653
 7896POPC   NC338231  38.407   5.051   9.453
 7896POPC   PO438232  38.469   5.112   9.153
 7896POPC   GL138233  38.432   5.139   8.853
 7896POPC   GL238234  38.517   5.259   8.853
 7896POPC   C1A38235  38.474   5.045   8.553
 7896POPC   D2A38236  38.494   5.085   8.253
 7896POPC   C3A38237  38.491   5.141   7.953
 7896POPC   C4A38238  38.480   5.060   7.653
 7896POPC   C1B38239  38.531   5.330   8.553
 7896POPC   C2B38240  38.490   5.343   8.253
 7896POPC   C3B38241  38.501   5.348   7.953
 7896POPC   C4B38242  38.490   5.291   7.653
 7897POPC   NC338243  17.522   4.297   9.453
 7897POPC   PO438244  17.512   4.320   9.153
 7897POPC   GL138245  17.478   4.324   8.853
 7897POPC   GL238246  17.483   4.394   8.853
 7897POPC   C1A38247  17.532   4.357   8.553
 7897POPC   D2A38248  17.477   4.300   8.253
 7897POPC   C3A38249  17.522   4.336   7.953
 7897POPC   C4A38250  17.518   4.337   7.653
 7897POPC   C1B38251  17.557   4.536   8.553
 7897POPC   C2B38252  17.475   4.552   8.253
 7897POPC   C3B38253  17.522   4.599   7.953
 7897POPC   C4B38254  17.484   4.598   7.653
 7898POPC   NC338255  15.913  41.556   9.453
 7898POPC   PO438256  15.915  41.576   9.153
 7898POPC   GL138257  15.966  41.563   8.853
 7898POPC   GL238258  15.997  41.501   8.853
 7898POPC   C1A38259  15.961  41.586   8.553
 7898POPC   D2A38260  15.907  41.591   8.253
 7898POPC   C3A38261  15.914  41.586   7.953
 7898POPC   C4A38262  15.952  41.523   7.653
 7898POPC   C1B38263  16.081  41.419   8.553
 7898POPC   C2B38264  16.078  41.417   8.253
 7898POPC   C3B38265  16.151  41.352   7.953
 7898POPC   C4B38266  16.168  41.388   7.653
 7899POPC   NC338267  20.589   0.399   9.453
 7899POPC   PO438268  20.568   0.483   9.153
 7899POPC   GL138269  20.646   0.455   8.853
 7899POPC   GL238270  20.692   0.427   8.853
 7899POPC   C1A38271  20.607   0.462   8.553
 7899POPC   D2A38272  20.659   0.428   8.253
 7899POPC   C3A38273  20.654   0.481   7.953
 7899POPC   C4A38274  20.584   0.434   7.653
 7899POPC   C1B38275  20.881   0.431   8.553
 7899POPC   C2B38276  20.850   0.442   8.253
 7899POPC   C3B38277  20.825   0.477   7.953
 7899POPC   C4B38278  20.844   0.447   7.653
 7900POPC   NC338279  32.293   7.469   9.453
 7900POPC   PO438280  32.235   7.435   9.153
 7900POPC   GL138281  32.278   7.408   8.853
 7900POPC   GL238282  32.225   7.332   8.853
 7900POPC   C1A38283  32.283   7.449   8.553
 7900POPC   D2A38284  32.294   7.411   8.253
 7900POPC   C3A38285  32.271   7.463   7.953
 7900POPC   C4A38286  32.241   7.434   7.653
 7900POPC   C1B38287  32.161   7.215   8.553
 7900POPC   C2B38288  32.100   7.228   8.253
 7900POPC   C3B38289  32.141   7.195   7.953
 7900POPC   C4B38290  32.135   7.176   7.653
 7901POPC   NC338291   5.059  43.882   9.453
 7901POPC   PO438292   5.089  43.860   9.153
 7901POPC   GL138293   5.127  43.855   8.853
 7901POPC   GL238294   5.113  44.031   8.853
 7901POPC   C1A38295   5.079  43.882   8.553
 7901POPC   D2A38296   5.119  43.875   8.253
 7901POPC   C3A38297   5.071  43.927   7.953
 7901POPC   C4A38298   5.052  43.922   7.653
 7901POPC   C1B38299   5.203  44.121   8.553
 7901POPC   C2B38300   5.170  44.129   8.253
 7901POPC   C3B38301   5.200  44.099   7.953
 7901POPC   C4B38302   5.120  44.111   7.653
 7902POPC   NC338303  11.321  28.346   9.453
 7902POPC   PO438304  11.263  28.386   9.153
 7902POPC   GL138305  11.288  28.362   8.853
 7902POPC   GL238306  11.375  28.282   8.853
 7902POPC   C1A38307  11.347  28.368   8.553
 7902POPC   D2A38308  11.254  28.402   8.253
 7902POPC   C3A38309  11.285  28.404   7.953
 7902POPC   C4A38310  11.310  28.325   7.653
 7902POPC   C1B38311  11.422  28.195   8.553
 7902POPC   C2B38312  11.393  28.161   8.253
 7902POPC   C3B38313  11.401  28.141   7.953
 7902POPC   C4B38314  11.396  28.107   7.653
 7903POPC   NC338315  13.591  13.633   5.553
 7903POPC   PO438316  13.664  13.626   5.853
 7903POPC   GL138317  13.603  13.634   6.153
 7903POPC   GL238318  13.549  13.552   6.153
 7903POPC   C1A38319  13.597  13.614   6.453
 7903POPC   D2A38320  13.608  13.601   6.753
 7903POPC   C3A38321  13.596  13.670   7.053
 7903POPC   C4A38322  13.672  13.652   7.353
 7903POPC   C1B38323  13.448  13.499   6.453
 7903POPC   C2B38324  13.400  13.473   6.753
 7903POPC   C3B38325  13.456  13.506   7.053
 7903POPC   C4B38326  13.426  13.483   7.353
 7904POPC   NC338327  14.404   9.775   5.553
 7904POPC   PO438328  14.453   9.739   5.853
 7904POPC   GL138329  14.391   9.741   6.153
 7904POPC   GL238330  14.491   9.800   6.153
 7904POPC   C1A38331  14.429   9.795   6.453
 7904POPC   D2A38332  14.354   9.709   6.753
 7904POPC   C3A38333  14.395   9.725   7.053
 7904POPC   C4A38334  14.447   9.778   7.353
 7904POPC   C1B38335  14.602   9.877   6.453
 7904POPC   C2B38336  14.689   9.790   6.753
 7904POPC   C3B38337  14.591   9.834   7.053
 7904POPC   C4B38338  14.636   9.877   7.353
 7905POPC   NC338339   8.978  25.305   5.553
 7905POPC   PO438340   8.973  25.245   5.853
 7905POPC   GL138341   8.966  25.258   6.153
 7905POPC   GL238342   9.075  25.125   6.153
 7905POPC   C1A38343   9.015  25.230   6.453
 7905POPC   D2A38344   9.018  25.285   6.753
 7905POPC   C3A38345   9.013  25.229   7.053
 7905POPC   C4A38346   8.942  25.299   7.353
 7905POPC   C1B38347   9.044  25.005   6.453
 7905POPC   C2B38348   9.077  25.091   6.753
 7905POPC   C3B38349   9.098  25.014   7.053
 7905POPC   C4B38350   9.111  25.064   7.353
 7906POPC   NC338351  26.853   1.957   5.553
 7906POPC   PO438352  26.833   2.000   5.853
 7906POPC   GL138353  26.801   2.030   6.153
 7906POPC   GL238354  26.816   2.063   6.153
 7906POPC   C1A38355  26.799   2.034   6.453
 7906POPC   D2A38356  26.812   2.031   6.753
 7906POPC   C3A38357  26.839   2.002   7.053
 7906POPC   C4A38358  26.861   2.012   7.353
 7906POPC   C1B38359  26.874   2.239   6.453
 7906POPC   C2B38360  26.829   2.189   6.753
 7906POPC   C3B38361  26.835   2.272   7.053
 7906POPC   C4B38362  26.909   2.233   7.353
 7907POPC   NC338363   2.780   9.707   5.553
 7907POPC   PO438364   2.784   9.723   5.853
 7907POPC   GL138365   2.735   9.753   6.153
 7907POPC   GL238366   2.812   9.629   6.153
 7907POPC   C1A38367   2.808   9.789   6.453
 7907POPC   D2A38368   2.734   9.752   6.753
 7907POPC   C3A38369   2.719   9.713   7.053
 7907POPC   C4A38370   2.777   9.767   7.353
 7907POPC   C1B38371   2.882   9.492   6.453
 7907POPC   C2B38372   2.843   9.512   6.753
 7907POPC   C3B38373   2.886   9.538   7.053
 7907POPC   C4B38374   2.883   9.485   7.353
 7908POPC   NC338375  31.502  21.361   5.553
 7908POPC   PO438376  31.485  21.377   5.853
 7908POPC   GL138377  31.456  21.400   6.153
 7908POPC   GL238378  31.460  21.509   6.153
 7908POPC   C1A38379  31.519  21.375   6.453
 7908POPC   D2A38380  31.476  21.388   6.753
 7908POPC   C3A38381  31.486  21.408   7.053
 7908POPC   C4A38382  31.427  21.367   7.353
 7908POPC   C1B38383  31.507  21.604   6.453
 7908POPC   C2B38384  31.566  21.582   6.753
 7908POPC   C3B38385  31.515  21.632   7.053
 7908POPC   C4B38386  31.559  21.639   7.353
 7909POPC   NC338387  22.163  20.643   5.553
 7909POPC   PO438388  22.138  20.646   5.853
 7909POPC   GL138389  22.131  20.599   6.153
 7909POPC   GL238390  21.993  20.568   6.153
 7909POPC   C1A38391  22.184  20.582   6.453
 7909POPC   D2A38392  22.160  20.612   6.753
 7909POPC   C3A38393  22.133  20.591   7.053
 7909POPC   C4A38394  22.200  20.572   7.353
 7909POPC   C1B38395  21.876  20.537   6.453
 7909POPC   C2B38396  21.961  20.600   6.753
 7909POPC   C3B38397  21.937  20.596   7.053
 7909POPC   C4B38398  21.942  20.629   7.353
 7910POPC   NC338399  12.090   9.794   5.553
 7910POPC   PO438400  12.066   9.776   5.853
 7910POPC   GL138401  12.109   9.724   6.153
 7910POPC   GL238402  12.008   9.700   6.153
 7910POPC   C1A38403  12.118   9.729   6.453
 7910POPC   D2A38404  12.076   9.721   6.753
 7910POPC   C3A38405  12.095   9.764   7.053
 7910POPC   C4A38406  12.115   9.771   7.353
 7910POPC   C1B38407  11.815   9.695   6.453
 7910POPC   C2B38408  11.799   9.674   6.753
 7910POPC   C3B38409  11.868   9.632   7.053
 7910POPC   C4B38410  11.865   9.700   7.353
 7911POPC   NC338411  39.206   2.750   5.553
 7911POPC   PO438412  39.207   2.738   5.853
 7911POPC   GL138413  39.192   2.793   6.153
 7911POPC   GL238414  39.300   2.791   6.153
 7911POPC   C1A38415  39.190   2.793   6.453
 7911POPC   D2A38416  39.189   2.761   6.753
 7911POPC   C3A38417  39.210   2.768   7.053
 7911POPC   C4A38418  39.201   2.814   7.353
 7911POPC   C1B38419  39.439   2.862   6.453
 7911POPC   C2B38420  39.424   2.830   6.753
 7911POPC   C3B38421  39.418   2.867   7.053
 7911POPC   C4B38422  39.460   2.860   7.353
 7912POPC   NC338423  33.062  27.605   5.553
 7912POPC   PO438424  33.001  27.627   5.853
 7912POPC   GL138425  33.063  27.575   6.153
 7912POPC   GL238426  33.177  27.516   6.153
 7912POPC   C1A38427  32.977  27.607   6.453
 7912POPC   D2A38428  33.020  27.582   6.753
 7912POPC   C3A38429  32.981  27.602   7.053
 7912POPC   C4A38430  33.002  27.555   7.353
 7912POPC   C1B38431  33.217  27.502   6.453
 7912POPC   C2B38432  33.198  27.502   6.753
 7912POPC   C3B38433  33.204  27.512   7.053
 7912POPC   C4B38434  33.203  27.459   7.353
 7913POPC   NC338435  23.673  26.017   5.553
 7913POPC   PO438436  23.687  26.017   5.853
 7913POPC   GL138437  23.669  26.005   6.153
 7913POPC   GL238438  23.792  26.117   6.153
 7913POPC   C1A38439  23.746  26.080   6.453
 7913POPC   D2A38440  23.740  26.048   6.753
 7913POPC   C3A38441  23.735  26.031   7.053
 7913POPC   C4A38442  23.703  26.042   7.353
 7913POPC   C1B38443  23.906  26.221   6.453
 7913POPC   C2B38444  23.908  26.232   6.753
 7913POPC   C3B38445  23.894  26.191   7.053
 7913POPC   C4B38446  23.887  26.214   7.353
 7914POPC   NC338447  15.150  14.365   5.553
 7914POPC   PO438448  15.134  14.430   5.853
 7914POPC   GL138449  15.183  14.394   6.153
 7914POPC   GL238450  15.302  14.443   6.153
 7914POPC   C1A38451  15.215  14.364   6.453
 7914POPC   D2A38452  15.216  14.376   6.753
 7914POPC   C3A38453  15.139  14.423   7.053
 7914POPC   C4A38454  15.198  14.437   7.353
 7914POPC   C1B38455  15.423  14.432   6.453
 7914POPC   C2B38456  15.379  14.424   6.753
 7914POPC   C3B38457  15.417  14.346   7.053
 7914POPC   C4B38458  15.407  14.350   7.353
 7915POPC   NC338459   2.029  42.349   5.553
 7915POPC   PO438460   1.971  42.345   5.853
 7915POPC   GL138461   2.012  42.335   6.153
 7915POPC   GL238462   1.962  42.412   6.153
 7915POPC   C1A38463   2.010  42.323   6.453
 7915POPC   D2A38464   2.004  42.313   6.753
 7915POPC   C3A38465   1.990  42.341   7.053
 7915POPC   C4A38466   1.985  42.324   7.353
 7915POPC   C1B38467   1.979  42.538   6.453
 7915POPC   C2B38468   1.920  42.566   6.753
 7915POPC   C3B38469   1.911  42.626   7.053
 7915POPC   C4B38470   1.951  42.607   7.353
 7916POPC   NC338471   3.564  39.989   5.553
 7916POPC   PO438472   3.546  40.019   5.853
 7916POPC   GL138473   3.493  39.988   6.153
 7916POPC   GL238474   3.520  40.124   6.153
 7916POPC   C1A38475   3.569  39.998   6.453
 7916POPC   D2A38476   3.522  40.028   6.753
 7916POPC   C3A38477   3.495  40.034   7.053
 7916POPC   C4A38478   3.563  39.965   7.353
 7916POPC   C1B38479   3.590  40.256   6.453
 7916POPC   C2B38480   3.598  40.221   6.753
 7916POPC   C3B38481   3.534  40.249   7.053
 7916POPC   C4B38482   3.575  40.297   7.353
 7917POPC   NC338483  10.552   3.521   5.553
 7917POPC   PO438484  10.481   3.553   5.853
 7917POPC   GL138485  10.522   3.576   6.153
 7917POPC   GL238486  10.450   3.566   6.153
 7917POPC   C1A38487  10.538   3.561   6.453
 7917POPC   D2A38488  10.480   3.542   6.753
 7917POPC   C3A38489  10.503   3.591   7.053
 7917POPC   C4A38490  10.498   3.590   7.353
 7917POPC   C1B38491  10.278   3.629   6.453
 7917POPC   C2B38492  10.309   3.641   6.753
 7917POPC   C3B38493  10.292   3.618   7.053
 7917POPC   C4B38494  10.287   3.690   7.353
 7918POPC   NC338495   8.229   6.656   5.553
 7918POPC   PO438496   8.205   6.687   5.853
 7918POPC   GL138497   8.223   6.659   6.153
 7918POPC   GL238498   8.298   6.729   6.153
 7918POPC   C1A38499   8.240   6.638   6.453
 7918POPC   D2A38500   8.170   6.653   6.753
 7918POPC   C3A38501   8.225   6.624   7.053
 7918POPC   C4A38502   8.200   6.680   7.353
 7918POPC   C1B38503   8.437   6.708   6.453
 7918POPC   C2B38504   8.411   6.722   6.753
 7918POPC   C3B38505   8.452   6.687   7.053
 7918POPC   C4B38506   8.434   6.752   7.353
 7919POPC   NC338507  28.354  44.615   5.553
 7919POPC   PO438508  28.320  44.682   5.853
 7919POPC   GL138509  28.381  44.699   6.153
 7919POPC   GL238510  28.458  44.623   6.153
 7919POPC   C1A38511  28.396  44.640   6.453
 7919POPC   D2A38512  28.319  44.685   6.753
 7919POPC   C3A38513  28.377  44.690   7.053
 7919POPC   C4A38514  28.400  44.686   7.353
 7919POPC   C1B38515  28.600  44.587   6.453
 7919POPC   C2B38516  28.596  44.595   6.753
 7919POPC   C3B38517  28.588  44.559   7.053
 7919POPC   C4B38518  28.606  44.564   7.353
 7920POPC   NC338519   4.311  33.766   5.553
 7920POPC   PO438520   4.348  33.794   5.853
 7920POPC   GL138521   4.276  33.788   6.153
 7920POPC   GL238522   4.238  33.954   6.153
 7920POPC   C1A38523   4.345  33.798   6.453
 7920POPC   D2A38524   4.277  33.832   6.753
 7920POPC   C3A38525   4.325  33.755   7.053
 7920POPC   C4A38526   4.300  33.771   7.353
 7920POPC   C1B38527   4.200  34.033   6.453
 7920POPC   C2B38528   4.201  34.004   6.753
 7920POPC   C3B38529   4.217  34.013   7.053
 7920POPC   C4B38530   4.164  34.026   7.353
 7921POPC   NC338531  44.619  17.550   5.553
 7921POPC   PO438532  44.627  17.500   5.853
 7921POPC   GL138533  44.690  17.540   6.153
 7921POPC   GL238534  44.642  17.336   6.153
 7921POPC   C1A38535  44.630  17.529   6.453
 7921POPC   D2A38536  44.691  17.489   6.753
 7921POPC   C3A38537  44.672  17.519   7.053
 7921POPC   C4A38538  44.656  17.487   7.353
 7921POPC   C1B38539  44.620  17.276   6.453
 7921POPC   C2B38540  44.654  17.287   6.753
 7921POPC   C3B38541  44.619  17.275   7.053
 7921POPC   C4B38542  44.685  17.293   7.353
 7922POPC   NC338543  26.035  15.177   5.553
 7922POPC   PO438544  26.064  15.227   5.853
 7922POPC   GL138545  26.068  15.212   6.153
 7922POPC   GL238546  26.127  15.037   6.153
 7922POPC   C1A38547  26.029  15.224   6.453
 7922POPC   D2A38548  25.998  15.144   6.753
 7922POPC   C3A38549  26.064  15.184   7.053
 7922POPC   C4A38550  26.004  15.138   7.353
 7922POPC   C1B38551  26.172  14.948   6.453
 7922POPC   C2B38552  26.203  14.941   6.753
 7922POPC   C3B38553  26.133  14.942   7.053
 7922POPC   C4B38554  26.113  14.987   7.353
 7923POPC   NC338555  12.088   8.185   5.553
 7923POPC   PO438556  12.063   8.151   5.853
 7923POPC   GL138557  12.057   8.149   6.153
 7923POPC   GL238558  11.950   8.078   6.153
 7923POPC   C1A38559  12.037   8.204   6.453
 7923POPC   D2A38560  12.041   8.196   6.753
 7923POPC   C3A38561  12.105   8.165   7.053
 7923POPC   C4A38562  12.115   8.223   7.353
 7923POPC   C1B38563  11.896   7.996   6.453
 7923POPC   C2B38564  11.897   7.979   6.753
 7923POPC   C3B38565  11.889   7.994   7.053
 7923POPC   C4B38566  11.912   7.963   7.353
 7924POPC   NC338567  42.366  36.945   5.553
 7924POPC   PO438568  42.289  36.936   5.853
 7924POPC   GL138569  42.359  36.891   6.153
 7924POPC   GL238570  42.212  36.983   6.153
 7924POPC   C1A38571  42.332  36.872   6.453
 7924POPC   D2A38572  42.321  36.865   6.753
 7924POPC   C3A38573  42.333  36.893   7.053
 7924POPC   C4A38574  42.340  36.940   7.353
 7924POPC   C1B38575  42.131  37.031   6.453
 7924POPC   C2B38576  42.165  37.063   6.753
 7924POPC   C3B38577  42.096  37.047   7.053
 7924POPC   C4B38578  42.134  37.060   7.353
 7925POPC   NC338579  37.657  14.426   5.553
 7925POPC   PO438580  37.704  14.451   5.853
 7925POPC   GL138581  37.716  14.448   6.153
 7925POPC   GL238582  37.588  14.485   6.153
 7925POPC   C1A38583  37.681  14.386   6.453
 7925POPC   D2A38584  37.700  14.425   6.753
 7925POPC   C3A38585  37.658  14.438   7.053
 7925POPC   C4A38586  37.631  14.421   7.353
 7925POPC   C1B38587  37.474  14.498   6.453
 7925POPC   C2B38588  37.468  14.486   6.753
 7925POPC   C3B38589  37.474  14.469   7.053
 7925POPC   C4B38590  37.443  14.496   7.353
 7926POPC   NC338591   1.165  44.675   5.553
 7926POPC   PO438592   1.186  44.613   5.853
 7926POPC   GL138593   1.210  44.643   6.153
 7926POPC   GL238594   1.098  44.598   6.153
 7926POPC   C1A38595   1.170  44.636   6.453
 7926POPC   D2A38596   1.219  44.655   6.753
 7926POPC   C3A38597   1.173  44.617   7.053
 7926POPC   C4A38598   1.183  44.651   7.353
 7926POPC   C1B38599   1.051  44.456   6.453
 7926POPC   C2B38600   1.037  44.497   6.753
 7926POPC   C3B38601   1.084  44.467   7.053
 7926POPC   C4B38602   1.035  44.518   7.353
 7927POPC   NC338603  43.919  10.499   5.553
 7927POPC   PO438604  43.915  10.526   5.853
 7927POPC   GL138605  43.870  10.499   6.153
 7927POPC   GL238606  43.759  10.580   6.153
 7927POPC   C1A38607  43.895  10.518   6.453
 7927POPC   D2A38608  43.886  10.496   6.753
 7927POPC   C3A38609  43.867  10.507   7.053
 7927POPC   C4A38610  43.930  10.491   7.353
 7927POPC   C1B38611  43.595  10.544   6.453
 7927POPC   C2B38612  43.626  10.604   6.753
 7927POPC   C3B38613  43.592  10.581   7.053
 7927POPC   C4B38614  43.641  10.606   7.353
 7928POPC   NC338615  20.660  22.907   5.553
 7928POPC   PO438616  20.649  22.942   5.853
 7928POPC   GL138617  20.653  22.896   6.153
 7928POPC   GL238618  20.731  23.033   6.153
 7928POPC   C1A38619  20.645  22.968   6.453
 7928POPC   D2A38620  20.561  22.966   6.753
 7928POPC   C3A38621  20.617  22.898   7.053
 7928POPC   C4A38622  20.602  22.980   7.353
 7928POPC   C1B38623  20.789  23.141   6.453
 7928POPC   C2B38624  20.759  23.114   6.753
 7928POPC   C3B38625  20.807  23.061   7.053
 7928POPC   C4B38626  20.774  23.076   7.353
 7929POPC   NC338627  27.599   2.005   5.553
 7929POPC   PO438628  27.638   1.969   5.853
 7929POPC   GL138629  27.625   2.002   6.153
 7929POPC   GL238630  27.616   2.078   6.153
 7929POPC   C1A38631  27.640   1.996   6.453
 7929POPC   D2A38632  27.626   1.956   6.753
 7929POPC   C3A38633  27.625   1.941   7.053
 7929POPC   C4A38634  27.639   1.962   7.353
 7929POPC   C1B38635  27.579   2.204   6.453
 7929POPC   C2B38636  27.573   2.198   6.753
 7929POPC   C3B38637  27.560   2.212   7.053
 7929POPC   C4B38638  27.589   2.227   7.353
 7930POPC   NC338639  29.950  22.194   5.553
 7930POPC   PO438640  29.905  22.118   5.853
 7930POPC   GL138641  29.897  22.178   6.153
 7930POPC   GL238642  29.832  22.107   6.153
 7930POPC   C1A38643  29.872  22.212   6.453
 7930POPC   D2A38644  29.932  22.208   6.753
 7930POPC   C3A38645  29.905  22.189   7.053
 7930POPC   C4A38646  29.918  22.174   7.353
 7930POPC   C1B38647  29.712  22.119   6.453
 7930POPC   C2B38648  29.631  22.185   6.753
 7930POPC   C3B38649  29.638  22.169   7.053
 7930POPC   C4B38650  29.715  22.101   7.353
 7931POPC   NC338651  18.267  44.627   5.553
 7931POPC   PO438652  18.246  44.690   5.853
 7931POPC   GL138653  18.262  44.689   6.153
 7931POPC   GL238654  18.247  44.572   6.153
 7931POPC   C1A38655  18.255  44.640   6.453
 7931POPC   D2A38656  18.296  44.654   6.753
 7931POPC   C3A38657  18.258  44.633   7.053
 7931POPC   C4A38658  18.269  44.643   7.353
 7931POPC   C1B38659  18.233  44.428   6.453
 7931POPC   C2B38660  18.229  44.432   6.753
 7931POPC   C3B38661  18.220  44.422   7.053
 7931POPC   C4B38662  18.262  44.435   7.353
 7932POPC   NC338663  36.949   8.229   5.553
 7932POPC   PO438664  36.947   8.151   5.853
 7932POPC   GL138665  36.874   8.187   6.153
 7932POPC   GL238666  36.988   8.159   6.153
 7932POPC   C1A38667  36.869   8.153   6.453
 7932POPC   D2A38668  36.926   8.194   6.753
 7932POPC   C3A38669  36.871   8.181   7.053
 7932POPC   C4A38670  36.898   8.153   7.353
 7932POPC   C1B38671  37.171   8.161   6.453
 7932POPC   C2B38672  37.115   8.141   6.753
 7932POPC   C3B38673  37.155   8.165   7.053
 7932POPC   C4B38674  37.176   8.219   7.353
 7933POPC   NC338675  43.088  33.037   5.553
 7933POPC   PO438676  43.110  32.986   5.853
 7933POPC   GL138677  43.126  33.069   6.153
 7933POPC   GL238678  43.178  33.096   6.153
 7933POPC   C1A38679  43.077  32.985   6.453
 7933POPC   D2A38680  43.079  33.039   6.753
 7933POPC   C3A38681  43.110  33.002   7.053
 7933POPC   C4A38682  43.083  33.067   7.353
 7933POPC   C1B38683  43.314  33.151   6.453
 7933POPC   C2B38684  43.330  33.216   6.753
 7933POPC   C3B38685  43.346  33.138   7.053
 7933POPC   C4B38686  43.293  33.148   7.353
 7934POPC   NC338687   3.506  19.083   5.553
 7934POPC   PO438688   3.515  19.076   5.853
 7934POPC   GL138689   3.504  19.085   6.153
 7934POPC   GL238690   3.494  19.170   6.153
 7934POPC   C1A38691   3.570  19.076   6.453
 7934POPC   D2A38692   3.520  19.097   6.753
 7934POPC   C3A38693   3.534  19.069   7.053
 7934POPC   C4A38694   3.518  19.030   7.353
 7934POPC   C1B38695   3.505  19.305   6.453
 7934POPC   C2B38696   3.518  19.340   6.753
 7934POPC   C3B38697   3.508  19.259   7.053
 7934POPC   C4B38698   3.550  19.331   7.353
 7935POPC   NC338699  12.814  10.571   5.553
 7935POPC   PO438700  12.853  10.500   5.853
 7935POPC   GL138701  12.839  10.549   6.153
 7935POPC   GL238702  12.786  10.452   6.153
 7935POPC   C1A38703  12.826  10.557   6.453
 7935POPC   D2A38704  12.833  10.559   6.753
 7935POPC   C3A38705  12.838  10.561   7.053
 7935POPC   C4A38706  12.863  10.509   7.353
 7935POPC   C1B38707  12.751  10.243   6.453
 7935POPC   C2B38708  12.755  10.241   6.753
 7935POPC   C3B38709  12.773  10.277   7.053
 7935POPC   C4B38710  12.757  10.272   7.353
 7936POPC   NC338711  25.290  16.689   5.553
 7936POPC   PO438712  25.309  16.682   5.853
 7936POPC   GL138713  25.252  16.774   6.153
 7936POPC   GL238714  25.140  16.792   6.153
 7936POPC   C1A38715  25.304  16.770   6.453
 7936POPC   D2A38716  25.285  16.716   6.753
 7936POPC   C3A38717  25.255  16.780   7.053
 7936POPC   C4A38718  25.262  16.747   7.353
 7936POPC   C1B38719  25.073  16.941   6.453
 7936POPC   C2B38720  25.127  16.898   6.753
 7936POPC   C3B38721  25.042  16.852   7.053
 7936POPC   C4B38722  25.034  16.881   7.353
 7937POPC   NC338723   1.244  27.568   5.553
 7937POPC   PO438724   1.171  27.627   5.853
 7937POPC   GL138725   1.261  27.601   6.153
 7937POPC   GL238726   1.269  27.480   6.153
 7937POPC   C1A38727   1.241  27.600   6.453
 7937POPC   D2A38728   1.168  27.641   6.753
 7937POPC   C3A38729   1.179  27.636   7.053
 7937POPC   C4A38730   1.170  27.543   7.353
 7937POPC   C1B38731   1.314  27.423   6.453
 7937POPC   C2B38732   1.365  27.385   6.753
 7937POPC   C3B38733   1.402  27.443   7.053
 7937POPC   C4B38734   1.381  27.357   7.353
 7938POPC   NC338735  40.814  39.280   5.553
 7938POPC   PO438736  40.794  39.233   5.853
 7938POPC   GL138737  40.749  39.236   6.153
 7938POPC   GL238738  40.874  39.249   6.153
 7938POPC   C1A38739  40.746  39.233   6.453
 7938POPC   D2A38740  40.814  39.191   6.753
 7938POPC   C3A38741  40.791  39.222   7.053
 7938POPC   C4A38742  40.783  39.245   7.353
 7938POPC   C1B38743  40.976  39.291   6.453
 7938POPC   C2B38744  41.052  39.315   6.753
 7938POPC   C3B38745  41.042  39.290   7.053
 7938POPC   C4B38746  41.004  39.324   7.353
 7939POPC   NC338747   8.223  28.387   5.553
 7939POPC   PO438748   8.196  28.320   5.853
 7939POPC   GL138749   8.172  28.381   6.153
 7939POPC   GL238750   8.299  28.407   6.153
 7939POPC   C1A38751   8.241  28.345   6.453
 7939POPC   D2A38752   8.150  28.353   6.753
 7939POPC   C3A38753   8.226  28.332   7.053
 7939POPC   C4A38754   8.229  28.320   7.353
 7939POPC   C1B38755   8.418  28.327   6.453
 7939POPC   C2B38756   8.421  28.321   6.753
 7939POPC   C3B38757   8.411  28.321   7.053
 7939POPC   C4B38758   8.402  28.371   7.353
 7940POPC   NC338759  10.567   8.240   5.553
 7940POPC   PO438760  10.552   8.173   5.853
 7940POPC   GL138761  10.537   8.194   6.153
 7940POPC   GL238762  10.578   8.064   6.153
 7940POPC   C1A38763  10.518   8.245   6.453
 7940POPC   D2A38764  10.485   8.219   6.753
 7940POPC   C3A38765  10.476   8.187   7.053
 7940POPC   C4A38766  10.520   8.201   7.353
 7940POPC   C1B38767  10.692   8.021   6.453
 7940POPC   C2B38768  10.670   8.001   6.753
 7940POPC   C3B38769  10.649   8.000   7.053
 7940POPC   C4B38770  10.667   7.971   7.353
 7941POPC   NC338771  32.208   7.384   5.553
 7941POPC   PO438772  32.289   7.446   5.853
 7941POPC   GL138773  32.207   7.390   6.153
 7941POPC   GL238774  32.385   7.371   6.153
 7941POPC   C1A38775  32.259   7.433   6.453
 7941POPC   D2A38776  32.260   7.441   6.753
 7941POPC   C3A38777  32.211   7.419   7.053
 7941POPC   C4A38778  32.253   7.429   7.353
 7941POPC   C1B38779  32.484   7.382   6.453
 7941POPC   C2B38780  32.503   7.386   6.753
 7941POPC   C3B38781  32.479   7.319   7.053
 7941POPC   C4B38782  32.481   7.306   7.353
 7942POPC   NC338783  43.900  26.026   5.553
 7942POPC   PO438784  43.857  26.068   5.853
 7942POPC   GL138785  43.869  26.049   6.153
 7942POPC   GL238786  43.756  25.999   6.153
 7942POPC   C1A38787  43.921  26.041   6.453
 7942POPC   D2A38788  43.914  26.001   6.753
 7942POPC   C3A38789  43.851  26.075   7.053
 7942POPC   C4A38790  43.856  26.052   7.353
 7942POPC   C1B38791  43.741  25.828   6.453
 7942POPC   C2B38792  43.712  25.822   6.753
 7942POPC   C3B38793  43.751  25.838   7.053
 7942POPC   C4B38794  43.689  25.831   7.353
 7943POPC   NC338795  26.793  32.981   5.553
 7943POPC   PO438796  26.813  32.992   5.853
 7943POPC   GL138797  26.837  33.071   6.153
 7943POPC   GL238798  26.948  33.108   6.153
 7943POPC   C1A38799  26.835  32.986   6.453
 7943POPC   D2A38800  26.838  33.029   6.753
 7943POPC   C3A38801  26.836  33.001   7.053
 7943POPC   C4A38802  26.823  33.042   7.353
 7943POPC   C1B38803  26.982  33.160   6.453
 7943POPC   C2B38804  26.989  33.135   6.753
 7943POPC   C3B38805  27.031  33.161   7.053
 7943POPC   C4B38806  27.051  33.191   7.353
 7944POPC   NC338807  33.065  23.689   5.553
 7944POPC   PO438808  33.016  23.717   5.853
 7944POPC   GL138809  33.020  23.721   6.153
 7944POPC   GL238810  33.120  23.668   6.153
 7944POPC   C1A38811  33.030  23.725   6.453
 7944POPC   D2A38812  33.064  23.684   6.753
 7944POPC   C3A38813  33.010  23.734   7.053
 7944POPC   C4A38814  33.003  23.693   7.353
 7944POPC   C1B38815  33.198  23.507   6.453
 7944POPC   C2B38816  33.216  23.506   6.753
 7944POPC   C3B38817  33.236  23.559   7.053
 7944POPC   C4B38818  33.187  23.579   7.353
 7945POPC   NC338819  19.036  22.177   5.553
 7945POPC   PO438820  19.062  22.155   5.853
 7945POPC   GL138821  19.030  22.186   6.153
 7945POPC   GL238822  19.162  22.124   6.153
 7945POPC   C1A38823  19.085  22.145   6.453
 7945POPC   D2A38824  19.026  22.207   6.753
 7945POPC   C3A38825  19.020  22.155   7.053
 7945POPC   C4A38826  19.044  22.185   7.353
 7945POPC   C1B38827  19.333  22.125   6.453
 7945POPC   C2B38828  19.283  22.130   6.753
 7945POPC   C3B38829  19.253  22.090   7.053
 7945POPC   C4B38830  19.323  22.052   7.353
 7946POPC   NC338831  13.639   1.264   5.553
 7946POPC   PO438832  13.585   1.214   5.853
 7946POPC   GL138833  13.606   1.244   6.153
 7946POPC   GL238834  13.673   1.049   6.153
 7946POPC   C1A38835  13.668   1.183   6.453
 7946POPC   D2A38836  13.623   1.243   6.753
 7946POPC   C3A38837  13.666   1.175   7.053
 7946POPC   C4A38838  13.668   1.165   7.353
 7946POPC   C1B38839  13.680   0.994   6.453
 7946POPC   C2B38840  13.687   0.953   6.753
 7946POPC   C3B38841  13.683   0.961   7.053
 7946POPC   C4B38842  13.661   0.958   7.353
 7947POPC   NC338843  15.955  21.416   5.553
 7947POPC   PO438844  15.927  21.386   5.853
 7947POPC   GL138845  15.965  21.389   6.153
 7947POPC   GL238846  16.048  21.275   6.153
 7947POPC   C1A38847  15.987  21.346   6.453
 7947POPC   D2A38848  15.995  21.373   6.753
 7947POPC   C3A38849  15.999  21.413   7.053
 7947POPC   C4A38850  15.983  21.399   7.353
 7947POPC   C1B38851  16.026  21.152   6.453
 7947POPC   C2B38852  16.069  21.190   6.753
 7947POPC   C3B38853  16.048  21.159   7.053
 7947POPC   C4B38854  16.071  21.209   7.353
 7948POPC   NC338855  43.883   0.443   5.553
 7948POPC   PO438856  43.883   0.424   5.853
 7948POPC   GL138857  43.866   0.482   6.153
 7948POPC   GL238858  43.932   0.582   6.153
 7948POPC   C1A38859  43.887   0.437   6.453
 7948POPC   D2A38860  43.902   0.428   6.753
 7948POPC   C3A38861  43.869   0.449   7.053
 7948POPC   C4A38862  43.838   0.485   7.353
 7948POPC   C1B38863  43.955   0.666   6.453
 7948POPC   C2B38864  43.956   0.717   6.753
 7948POPC   C3B38865  43.890   0.714   7.053
 7948POPC   C4B38866  43.926   0.688   7.353
 7949POPC   NC338867   3.500   7.470   5.553
 7949POPC   PO438868   3.533   7.400   5.853
 7949POPC   GL138869   3.558   7.448   6.153
 7949POPC   GL238870   3.450   7.380   6.153
 7949POPC   C1A38871   3.530   7.384   6.453
 7949POPC   D2A38872   3.548   7.442   6.753
 7949POPC   C3A38873   3.492   7.424   7.053
 7949POPC   C4A38874   3.535   7.456   7.353
 7949POPC   C1B38875   3.350   7.316   6.453
 7949POPC   C2B38876   3.321   7.326   6.753
 7949POPC   C3B38877   3.338   7.345   7.053
 7949POPC   C4B38878   3.332   7.363   7.353
 7950POPC   NC338879  42.335   1.963   5.553
 7950POPC   PO438880  42.372   1.953   5.853
 7950POPC   GL138881  42.287   2.026   6.153
 7950POPC   GL238882  42.361   1.926   6.153
 7950POPC   C1A38883  42.314   2.037   6.453
 7950POPC   D2A38884  42.384   1.966   6.753
 7950POPC   C3A38885  42.315   2.020   7.053
 7950POPC   C4A38886  42.313   1.987   7.353
 7950POPC   C1B38887  42.478   1.728   6.453
 7950POPC   C2B38888  42.417   1.746   6.753
 7950POPC   C3B38889  42.480   1.746   7.053
 7950POPC   C4B38890  42.437   1.803   7.353
 7951POPC   NC338891  22.174  29.957   5.553
 7951POPC   PO438892  22.125  29.953   5.853
 7951POPC   GL138893  22.144  29.887   6.153
 7951POPC   GL238894  22.300  29.925   6.153
 7951POPC   C1A38895  22.195  29.936   6.453
 7951POPC   D2A38896  22.205  29.917   6.753
 7951POPC   C3A38897  22.181  29.892   7.053
 7951POPC   C4A38898  22.160  29.885   7.353
 7951POPC   C1B38899  22.380  29.899   6.453
 7951POPC   C2B38900  22.367  29.924   6.753
 7951POPC   C3B38901  22.393  29.959   7.053
 7951POPC   C4B38902  22.388  29.905   7.353
 7952POPC   NC338903  14.435  33.826   5.553
 7952POPC   PO438904  14.430  33.830   5.853
 7952POPC   GL138905  14.387  33.755   6.153
 7952POPC   GL238906  14.485  33.901   6.153
 7952POPC   C1A38907  14.449  33.791   6.453
 7952POPC   D2A38908  14.402  33.801   6.753
 7952POPC   C3A38909  14.390  33.830   7.053
 7952POPC   C4A38910  14.421  33.801   7.353
 7952POPC   C1B38911  14.562  33.932   6.453
 7952POPC   C2B38912  14.555  33.967   6.753
 7952POPC   C3B38913  14.552  33.932   7.053
 7952POPC   C4B38914  14.563  34.008   7.353
 7953POPC   NC338915  39.231  36.868   5.553
 7953POPC   PO438916  39.200  36.948   5.853
 7953POPC   GL138917  39.216  36.953   6.153
 7953POPC   GL238918  39.102  37.034   6.153
 7953POPC   C1A38919  39.253  36.864   6.453
 7953POPC   D2A38920  39.265  36.934   6.753
 7953POPC   C3A38921  39.256  36.930   7.053
 7953POPC   C4A38922  39.272  36.929   7.353
 7953POPC   C1B38923  39.005  37.042   6.453
 7953POPC   C2B38924  39.097  37.068   6.753
 7953POPC   C3B38925  39.086  37.087   7.053
 7953POPC   C4B38926  39.097  37.085   7.353
 7954POPC   NC338927  14.389   0.441   5.553
 7954POPC   PO438928  14.413   0.416   5.853
 7954POPC   GL138929  14.375   0.474   6.153
 7954POPC   GL238930  14.334   0.349   6.153
 7954POPC   C1A38931  14.432   0.442   6.453
 7954POPC   D2A38932  14.387   0.471   6.753
 7954POPC   C3A38933  14.397   0.390   7.053
 7954POPC   C4A38934  14.358   0.449   7.353
 7954POPC   C1B38935  14.319   0.231   6.453
 7954POPC   C2B38936  14.358   0.224   6.753
 7954POPC   C3B38937  14.334   0.214   7.053
 7954POPC   C4B38938  14.283   0.228   7.353
 7955POPC   NC338939  12.115  16.728   5.553
 7955POPC   PO438940  12.087  16.695   5.853
 7955POPC   GL138941  12.038  16.741   6.153
 7955POPC   GL238942  12.182  16.694   6.153
 7955POPC   C1A38943  12.056  16.760   6.453
 7955POPC   D2A38944  12.050  16.736   6.753
 7955POPC   C3A38945  12.026  16.718   7.053
 7955POPC   C4A38946  12.076  16.764   7.353
 7955POPC   C1B38947  12.284  16.656   6.453
 7955POPC   C2B38948  12.261  16.633   6.753
 7955POPC   C3B38949  12.277  16.656   7.053
 7955POPC   C4B38950  12.258  16.593   7.353
 7956POPC   NC338951   9.717  19.075   5.553
 7956POPC   PO438952   9.729  19.108   5.853
 7956POPC   GL138953   9.737  19.057   6.153
 7956POPC   GL238954   9.672  19.055   6.153
 7956POPC   C1A38955   9.702  19.045   6.453
 7956POPC   D2A38956   9.735  19.023   6.753
 7956POPC   C3A38957   9.716  19.105   7.053
 7956POPC   C4A38958   9.737  19.104   7.353
 7956POPC   C1B38959   9.464  19.093   6.453
 7956POPC   C2B38960   9.497  19.147   6.753
 7956POPC   C3B38961   9.536  19.103   7.053
 7956POPC   C4B38962   9.472  19.091   7.353
 7957POPC   NC338963  31.463  24.524   5.553
 7957POPC   PO438964  31.520  24.511   5.853
 7957POPC   GL138965  31.498  24.483   6.153
 7957POPC   GL238966  31.363  24.353   6.153
 7957POPC   C1A38967  31.504  24.531   6.453
 7957POPC   D2A38968  31.514  24.461   6.753
 7957POPC   C3A38969  31.430  24.538   7.053
 7957POPC   C4A38970  31.483  24.515   7.353
 7957POPC   C1B38971  31.346  24.314   6.453
 7957POPC   C2B38972  31.395  24.292   6.753
 7957POPC   C3B38973  31.344  24.230   7.053
 7957POPC   C4B38974  31.338  24.267   7.353
 7958POPC   NC338975  35.401  30.655   5.553
 7958POPC   PO438976  35.374  30.649   5.853
 7958POPC   GL138977  35.331  30.663   6.153
 7958POPC   GL238978  35.490  30.778   6.153
 7958POPC   C1A38979  35.305  30.660   6.453
 7958POPC   D2A38980  35.372  30.678   6.753
 7958POPC   C3A38981  35.351  30.675   7.053
 7958POPC   C4A38982  35.364  30.666   7.353
 7958POPC   C1B38983  35.565  30.739   6.453
 7958POPC   C2B38984  35.548  30.771   6.753
 7958POPC   C3B38985  35.624  30.760   7.053
 7958POPC   C4B38986  35.548  30.820   7.353
 7959POPC   NC338987  17.503   6.633   5.553
 7959POPC   PO438988  17.460   6.602   5.853
 7959POPC   GL138989  17.507   6.600   6.153
 7959POPC   GL238990  17.449   6.552   6.153
 7959POPC   C1A38991  17.512   6.643   6.453
 7959POPC   D2A38992  17.507   6.647   6.753
 7959POPC   C3A38993  17.524   6.603   7.053
 7959POPC   C4A38994  17.488   6.676   7.353
 7959POPC   C1B38995  17.345   6.453   6.453
 7959POPC   C2B38996  17.298   6.457   6.753
 7959POPC   C3B38997  17.382   6.462   7.053
 7959POPC   C4B38998  17.312   6.478   7.353
 7960POPC   NC338999  44.621  29.957   5.553
 7960POPC   PO439000  44.661  29.891   5.853
 7960POPC   GL139001  44.683  29.956   6.153
 7960POPC   GL239002  44.514  29.988   6.153
 7960POPC   C1A39003  44.645  29.964   6.453
 7960POPC   D2A39004  44.614  29.969   6.753
 7960POPC   C3A39005  44.677  29.883   7.053
 7960POPC   C4A39006  44.697  29.890   7.353
 7960POPC   C1B39007  44.465  30.019   6.453
 7960POPC   C2B39008  44.382  29.955   6.753
 7960POPC   C3B39009  44.433  29.981   7.053
 7960POPC   C4B39010  44.465  29.995   7.353
 7961POPC   NC339011  25.237   9.719   5.553
 7961POPC   PO439012  25.289   9.707   5.853
 7961POPC   GL139013  25.312   9.701   6.153
 7961POPC   GL239014  25.273   9.838   6.153
 7961POPC   C1A39015  25.315   9.789   6.453
 7961POPC   D2A39016  25.312   9.762   6.753
 7961POPC   C3A39017  25.303   9.774   7.053
 7961POPC   C4A39018  25.278   9.730   7.353
 7961POPC   C1B39019  25.301   9.994   6.453
 7961POPC   C2B39020  25.349   9.967   6.753
 7961POPC   C3B39021  25.287  10.041   7.053
 7961POPC   C4B39022  25.317  10.008   7.353
 7962POPC   NC339023   1.994   7.459   5.553
 7962POPC   PO439024   1.994   7.391   5.853
 7962POPC   GL139025   2.024   7.463   6.153
 7962POPC   GL239026   1.960   7.527   6.153
 7962POPC   C1A39027   1.977   7.450   6.453
 7962POPC   D2A39028   2.005   7.407   6.753
 7962POPC   C3A39029   1.975   7.458   7.053
 7962POPC   C4A39030   2.026   7.452   7.353
 7962POPC   C1B39031   2.046   7.649   6.453
 7962POPC   C2B39032   1.991   7.688   6.753
 7962POPC   C3B39033   1.984   7.693   7.053
 7962POPC   C4B39034   1.953   7.634   7.353
 7963POPC   NC339035  20.645   2.791   5.553
 7963POPC   PO439036  20.565   2.776   5.853
 7963POPC   GL139037  20.653   2.778   6.153
 7963POPC   GL239038  20.563   2.681   6.153
 7963POPC   C1A39039  20.658   2.753   6.453
 7963POPC   D2A39040  20.571   2.733   6.753
 7963POPC   C3A39041  20.628   2.730   7.053
 7963POPC   C4A39042  20.595   2.736   7.353
 7963POPC   C1B39043  20.523   2.490   6.453
 7963POPC   C2B39044  20.562   2.567   6.753
 7963POPC   C3B39045  20.524   2.550   7.053
 7963POPC   C4B39046  20.516   2.551   7.353
 7964POPC   NC339047   5.819  27.642   5.553
 7964POPC   PO439048   5.853  27.602   5.853
 7964POPC   GL139049   5.891  27.631   6.153
 7964POPC   GL239050   6.010  27.577   6.153
 7964POPC   C1A39051   5.831  27.575   6.453
 7964POPC   D2A39052   5.881  27.635   6.753
 7964POPC   C3A39053   5.893  27.558   7.053
 7964POPC   C4A39054   5.843  27.613   7.353
 7964POPC   C1B39055   6.123  27.561   6.453
 7964POPC   C2B39056   6.068  27.499   6.753
 7964POPC   C3B39057   6.126  27.504   7.053
 7964POPC   C4B39058   6.067  27.523   7.353
 7965POPC   NC339059   6.645  36.116   5.553
 7965POPC   PO439060   6.606  36.115   5.853
 7965POPC   GL139061   6.620  36.096   6.153
 7965POPC   GL239062   6.781  36.132   6.153
 7965POPC   C1A39063   6.675  36.099   6.453
 7965POPC   D2A39064   6.665  36.096   6.753
 7965POPC   C3A39065   6.631  36.115   7.053
 7965POPC   C4A39066   6.608  36.105   7.353
 7965POPC   C1B39067   6.900  36.121   6.453
 7965POPC   C2B39068   6.860  36.122   6.753
 7965POPC   C3B39069   6.882  36.161   7.053
 7965POPC   C4B39070   6.896  36.158   7.353
 7966POPC   NC339071  15.157  15.132   5.553
 7966POPC   PO439072  15.164  15.198   5.853
 7966POPC   GL139073  15.211  15.144   6.153
 7966POPC   GL239074  15.134  15.258   6.153
 7966POPC   C1A39075  15.187  15.226   6.453
 7966POPC   D2A39076  15.193  15.157   6.753
 7966POPC   C3A39077  15.212  15.137   7.053
 7966POPC   C4A39078  15.221  15.157   7.353
 7966POPC   C1B39079  15.048  15.430   6.453
 7966POPC   C2B39080  15.037  15.394   6.753
 7966POPC   C3B39081  15.107  15.435   7.053
 7966POPC   C4B39082  15.036  15.400   7.353
 7967POPC   NC339083  16.711  36.906   5.553
 7967POPC   PO439084  16.779  36.925   5.853
 7967POPC   GL139085  16.717  36.871   6.153
 7967POPC   GL239086  16.633  36.968   6.153
 7967POPC   C1A39087  16.717  36.907   6.453
 7967POPC   D2A39088  16.706  36.911   6.753
 7967POPC   C3A39089  16.724  36.944   7.053
 7967POPC   C4A39090  16.765  36.942   7.353
 7967POPC   C1B39091  16.531  37.055   6.453
 7967POPC   C2B39092  16.543  37.033   6.753
 7967POPC   C3B39093  16.481  37.051   7.053
 7967POPC   C4B39094  16.537  37.087   7.353
 7968POPC   NC339095  35.326   9.795   5.553
 7968POPC   PO439096  35.369   9.771   5.853
 7968POPC   GL139097  35.361   9.710   6.153
 7968POPC   GL239098  35.262   9.812   6.153
 7968POPC   C1A39099  35.387   9.767   6.453
 7968POPC   D2A39100  35.362   9.740   6.753
 7968POPC   C3A39101  35.365   9.728   7.053
 7968POPC   C4A39102  35.378   9.738   7.353
 7968POPC   C1B39103  35.114   9.857   6.453
 7968POPC   C2B39104  35.175   9.913   6.753
 7968POPC   C3B39105  35.130   9.865   7.053
 7968POPC   C4B39106  35.100   9.820   7.353
 7969POPC   NC339107   7.449  13.636   5.553
 7969POPC   PO439108   7.384  13.663   5.853
 7969POPC   GL139109   7.409  13.608   6.153
 7969POPC   GL239110   7.573  13.675   6.153
 7969POPC   C1A39111   7.410  13.655   6.453
 7969POPC   D2A39112   7.427  13.587   6.753
 7969POPC   C3A39113   7.436  13.589   7.053
 7969POPC   C4A39114   7.405  13.646   7.353
 7969POPC   C1B39115   7.695  13.640   6.453
 7969POPC   C2B39116   7.661  13.642   6.753
 7969POPC   C3B39117   7.619  13.695   7.053
 7969POPC   C4B39118   7.620  13.676   7.353
 7970POPC   NC339119  26.834  25.997   5.553
 7970POPC   PO439120  26.853  26.032   5.853
 7970POPC   GL139121  26.779  26.078   6.153
 7970POPC   GL239122  26.876  26.117   6.153
 7970POPC   C1A39123  26.812  26.026   6.453
 7970POPC   D2A39124  26.860  25.999   6.753
 7970POPC   C3A39125  26.828  26.026   7.053
 7970POPC   C4A39126  26.775  26.042   7.353
 7970POPC   C1B39127  26.945  26.210   6.453
 7970POPC   C2B39128  27.031  26.268   6.753
 7970POPC   C3B39129  27.005  26.252   7.053
 7970POPC   C4B39130  26.958  26.239   7.353
 7971POPC   NC339131   8.193   2.806   5.553
 7971POPC   PO439132   8.179   2.767   5.853
 7971POPC   GL139133   8.150   2.775   6.153
 7971POPC   GL239134   8.071   2.827   6.153
 7971POPC   C1A39135   8.226   2.808   6.453
 7971POPC   D2A39136   8.238   2.779   6.753
 7971POPC   C3A39137   8.147   2.802   7.053
 7971POPC   C4A39138   8.189   2.814   7.353
 7971POPC   C1B39139   8.011   2.916   6.453
 7971POPC   C2B39140   8.028   2.885   6.753
 7971POPC   C3B39141   7.978   2.879   7.053
 7971POPC   C4B39142   8.011   2.922   7.353
 7972POPC   NC339143  42.380  40.759   5.553
 7972POPC   PO439144  42.309  40.753   5.853
 7972POPC   GL139145  42.359  40.740   6.153
 7972POPC   GL239146  42.481  40.785   6.153
 7972POPC   C1A39147  42.363  40.805   6.453
 7972POPC   D2A39148  42.347  40.766   6.753
 7972POPC   C3A39149  42.317  40.745   7.053
 7972POPC   C4A39150  42.375  40.793   7.353
 7972POPC   C1B39151  42.592  40.832   6.453
 7972POPC   C2B39152  42.528  40.876   6.753
 7972POPC   C3B39153  42.609  40.853   7.053
 7972POPC   C4B39154  42.583  40.869   7.353
 7973POPC   NC339155  23.755  27.563   5.553
 7973POPC   PO439156  23.747  27.611   5.853
 7973POPC   GL139157  23.687  27.550   6.153
 7973POPC   GL239158  23.655  27.723   6.153
 7973POPC   C1A39159  23.667  27.642   6.453
 7973POPC   D2A39160  23.731  27.579   6.753
 7973POPC   C3A39161  23.685  27.629   7.053
 7973POPC   C4A39162  23.691  27.558   7.353
 7973POPC   C1B39163  23.609  27.761   6.453
 7973POPC   C2B39164  23.557  27.836   6.753
 7973POPC   C3B39165  23.552  27.843   7.053
 7973POPC   C4B39166  23.573  27.792   7.353
 7974POPC   NC339167  32.994  43.924   5.553
 7974POPC   PO439168  33.073  43.856   5.853
 7974POPC   GL139169  32.980  43.841   6.153
 7974POPC   GL239170  32.952  44.011   6.153
 7974POPC   C1A39171  33.030  43.848   6.453
 7974POPC   D2A39172  33.059  43.909   6.753
 7974POPC   C3A39173  33.072  43.891   7.053
 7974POPC   C4A39174  33.052  43.847   7.353
 7974POPC   C1B39175  32.922  44.122   6.453
 7974POPC   C2B39176  32.873  44.100   6.753
 7974POPC   C3B39177  32.941  44.086   7.053
 7974POPC   C4B39178  32.855  44.086   7.353
 7975POPC   NC339179  20.630   1.166   5.553
 7975POPC   PO439180  20.615   1.259   5.853
 7975POPC   GL139181  20.625   1.250   6.153
 7975POPC   GL239182  20.755   1.169   6.153
 7975POPC   C1A39183  20.592   1.192   6.453
 7975POPC   D2A39184  20.616   1.177   6.753
 7975POPC   C3A39185  20.596   1.212   7.053
 7975POPC   C4A39186  20.621   1.219   7.353
 7975POPC   C1B39187  20.809   1.131   6.453
 7975POPC   C2B39188  20.871   1.129   6.753
 7975POPC   C3B39189  20.797   1.061   7.053
 7975POPC   C4B39190  20.851   1.140   7.353
 7976POPC   NC339191   4.294  13.613   5.553
 7976POPC   PO439192   4.348  13.666   5.853
 7976POPC   GL139193   4.271  13.595   6.153
 7976POPC   GL239194   4.152  13.713   6.153
 7976POPC   C1A39195   4.297  13.599   6.453
 7976POPC   D2A39196   4.286  13.638   6.753
 7976POPC   C3A39197   4.328  13.607   7.053
 7976POPC   C4A39198   4.303  13.610   7.353
 7976POPC   C1B39199   4.099  13.745   6.453
 7976POPC   C2B39200   4.081  13.711   6.753
 7976POPC   C3B39201   4.045  13.686   7.053
 7976POPC   C4B39202   4.134  13.705   7.353
 7977POPC   NC339203  35.394  36.902   5.553
 7977POPC   PO439204  35.364  36.940   5.853
 7977POPC   GL139205  35.343  36.911   6.153
 7977POPC   GL239206  35.316  37.011   6.153
 7977POPC   C1A39207  35.319  36.895   6.453
 7977POPC   D2A39208  35.365  36.942   6.753
 7977POPC   C3A39209  35.385  36.920   7.053
 7977POPC   C4A39210  35.326  36.882   7.353
 7977POPC   C1B39211  35.247  37.191   6.453
 7977POPC   C2B39212  35.305  37.162   6.753
 7977POPC   C3B39213  35.322  37.175   7.053
 7977POPC   C4B39214  35.340  37.123   7.353
 7978POPC   NC339215   6.638   7.467   5.553
 7978POPC   PO439216   6.693   7.445   5.853
 7978POPC   GL139217   6.620   7.372   6.153
 7978POPC   GL239218   6.519   7.511   6.153
 7978POPC   C1A39219   6.615   7.374   6.453
 7978POPC   D2A39220   6.632   7.413   6.753
 7978POPC   C3A39221   6.658   7.398   7.053
 7978POPC   C4A39222   6.674   7.465   7.353
 7978POPC   C1B39223   6.459   7.518   6.453
 7978POPC   C2B39224   6.445   7.533   6.753
 7978POPC   C3B39225   6.439   7.554   7.053
 7978POPC   C4B39226   6.459   7.472   7.353
 7979POPC   NC339227  23.761  41.605   5.553
 7979POPC   PO439228  23.675  41.570   5.853
 7979POPC   GL139229  23.686  41.593   6.153
 7979POPC   GL239230  23.661  41.442   6.153
 7979POPC   C1A39231  23.701  41.531   6.453
 7979POPC   D2A39232  23.759  41.604   6.753
 7979POPC   C3A39233  23.725  41.554   7.053
 7979POPC   C4A39234  23.733  41.598   7.353
 7979POPC   C1B39235  23.463  41.403   6.453
 7979POPC   C2B39236  23.510  41.387   6.753
 7979POPC   C3B39237  23.500  41.402   7.053
 7979POPC   C4B39238  23.501  41.440   7.353
 7980POPC   NC339239  42.309  24.463   5.553
 7980POPC   PO439240  42.345  24.534   5.853
 7980POPC   GL139241  42.333  24.527   6.153
 7980POPC   GL239242  42.238  24.520   6.153
 7980POPC   C1A39243  42.336  24.509   6.453
 7980POPC   D2A39244  42.327  24.515   6.753
 7980POPC   C3A39245  42.359  24.504   7.053
 7980POPC   C4A39246  42.366  24.449   7.353
 7980POPC   C1B39247  42.087  24.626   6.453
 7980POPC   C2B39248  42.084  24.587   6.753
 7980POPC   C3B39249  42.148  24.551   7.053
 7980POPC   C4B39250  42.135  24.540   7.353
 7981POPC   NC339251  11.265  19.031   5.553
 7981POPC   PO439252  11.322  19.093   5.853
 7981POPC   GL139253  11.281  19.041   6.153
 7981POPC   GL239254  11.299  19.187   6.153
 7981POPC   C1A39255  11.265  19.057   6.453
 7981POPC   D2A39256  11.343  19.077   6.753
 7981POPC   C3A39257  11.336  19.031   7.053
 7981POPC   C4A39258  11.284  19.072   7.353
 7981POPC   C1B39259  11.309  19.340   6.453
 7981POPC   C2B39260  11.249  19.335   6.753
 7981POPC   C3B39261  11.308  19.294   7.053
 7981POPC   C4B39262  11.270  19.310   7.353
 7982POPC   NC339263  22.931  15.986   5.553
 7982POPC   PO439264  22.945  15.938   5.853
 7982POPC   GL139265  22.921  16.000   6.153
 7982POPC   GL239266  22.853  15.830   6.153
 7982POPC   C1A39267  22.959  15.955   6.453
 7982POPC   D2A39268  22.902  15.996   6.753
 7982POPC   C3A39269  22.953  15.950   7.053
 7982POPC   C4A39270  22.909  15.986   7.353
 7982POPC   C1B39271  22.867  15.727   6.453
 7982POPC   C2B39272  22.856  15.751   6.753
 7982POPC   C3B39273  22.843  15.732   7.053
 7982POPC   C4B39274  22.863  15.731   7.353
 7983POPC   NC339275  11.275  43.926   5.553
 7983POPC   PO439276  11.312  43.852   5.853
 7983POPC   GL139277  11.305  43.847   6.153
 7983POPC   GL239278  11.155  43.850   6.153
 7983POPC   C1A39279  11.315  43.934   6.453
 7983POPC   D2A39280  11.281  43.843   6.753
 7983POPC   C3A39281  11.314  43.886   7.053
 7983POPC   C4A39282  11.307  43.894   7.353
 7983POPC   C1B39283  11.120  43.740   6.453
 7983POPC   C2B39284  11.114  43.730   6.753
 7983POPC   C3B39285  11.103  43.739   7.053
 7983POPC   C4B39286  11.087  43.732   7.353
 7984POPC   NC339287  40.774  33.844   5.553
 7984POPC   PO439288  40.822  33.759   5.853
 7984POPC   GL139289  40.789  33.750   6.153
 7984POPC   GL239290  40.846  33.734   6.153
 7984POPC   C1A39291  40.805  33.838   6.453
 7984POPC   D2A39292  40.760  33.849   6.753
 7984POPC   C3A39293  40.791  33.806   7.053
 7984POPC   C4A39294  40.771  33.769   7.353
 7984POPC   C1B39295  40.950  33.663   6.453
 7984POPC   C2B39296  40.966  33.656   6.753
 7984POPC   C3B39297  41.037  33.693   7.053
 7984POPC   C4B39298  40.997  33.668   7.353
 7985POPC   NC339299  19.844  33.758   5.553
 7985POPC   PO439300  19.845  33.750   5.853
 7985POPC   GL139301  19.842  33.750   6.153
 7985POPC   GL239302  19.802  33.702   6.153
 7985POPC   C1A39303  19.826  33.836   6.453
 7985POPC   D2A39304  19.854  33.821   6.753
 7985POPC   C3A39305  19.880  33.829   7.053
 7985POPC   C4A39306  19.828  33.843   7.353
 7985POPC   C1B39307  19.723  33.601   6.453
 7985POPC   C2B39308  19.750  33.514   6.753
 7985POPC   C3B39309  19.791  33.525   7.053
 7985POPC   C4B39310  19.730  33.567   7.353
 7986POPC   NC339311  43.105  29.898   5.553
 7986POPC   PO439312  43.127  29.939   5.853
 7986POPC   GL139313  43.061  29.915   6.153
 7986POPC   GL239314  43.204  29.844   6.153
 7986POPC   C1A39315  43.111  29.875   6.453
 7986POPC   D2A39316  43.080  29.893   6.753
 7986POPC   C3A39317  43.073  29.880   7.053
 7986POPC   C4A39318  43.143  29.874   7.353
 7986POPC   C1B39319  43.327  29.873   6.453
 7986POPC   C2B39320  43.373  29.867   6.753
 7986POPC   C3B39321  43.382  29.877   7.053
 7986POPC   C4B39322  43.380  29.843   7.353
 7987POPC   NC339323  41.590  22.975   5.553
 7987POPC   PO439324  41.593  22.969   5.853
 7987POPC   GL139325  41.591  22.894   6.153
 7987POPC   GL239326  41.458  22.961   6.153
 7987POPC   C1A39327  41.532  22.979   6.453
 7987POPC   D2A39328  41.595  22.954   6.753
 7987POPC   C3A39329  41.538  22.974   7.053
 7987POPC   C4A39330  41.599  22.912   7.353
 7987POPC   C1B39331  41.328  22.962   6.453
 7987POPC   C2B39332  41.332  22.936   6.753
 7987POPC   C3B39333  41.264  23.018   7.053
 7987POPC   C4B39334  41.280  23.034   7.353
 7988POPC   NC339335  43.935  12.087   5.553
 7988POPC   PO439336  43.853  12.085   5.853
 7988POPC   GL139337  43.842  12.056   6.153
 7988POPC   GL239338  43.895  11.946   6.153
 7988POPC   C1A39339  43.867  12.119   6.453
 7988POPC   D2A39340  43.853  12.059   6.753
 7988POPC   C3A39341  43.896  12.067   7.053
 7988POPC   C4A39342  43.867  12.057   7.353
 7988POPC   C1B39343  43.813  11.866   6.453
 7988POPC   C2B39344  43.812  11.863   6.753
 7988POPC   C3B39345  43.840  11.835   7.053
 7988POPC   C4B39346  43.838  11.857   7.353
 7989POPC   NC339347  39.996  18.274   5.553
 7989POPC   PO439348  40.020  18.311   5.853
 7989POPC   GL139349  40.012  18.278   6.153
 7989POPC   GL239350  39.887  18.410   6.153
 7989POPC   C1A39351  39.988  18.314   6.453
 7989POPC   D2A39352  40.051  18.330   6.753
 7989POPC   C3A39353  40.046  18.238   7.053
 7989POPC   C4A39354  39.965  18.329   7.353
 7989POPC   C1B39355  39.872  18.456   6.453
 7989POPC   C2B39356  39.872  18.439   6.753
 7989POPC   C3B39357  39.879  18.501   7.053
 7989POPC   C4B39358  39.877  18.471   7.353
 7990POPC   NC339359  40.032   1.255   5.553
 7990POPC   PO439360  39.993   1.199   5.853
 7990POPC   GL139361  40.012   1.247   6.153
 7990POPC   GL239362  40.031   1.055   6.153
 7990POPC   C1A39363  39.996   1.169   6.453
 7990POPC   D2A39364  40.003   1.236   6.753
 7990POPC   C3A39365  39.993   1.165   7.053
 7990POPC   C4A39366  39.973   1.190   7.353
 7990POPC   C1B39367  39.996   0.999   6.453
 7990POPC   C2B39368  40.023   0.927   6.753
 7990POPC   C3B39369  39.995   0.978   7.053
 7990POPC   C4B39370  40.054   0.956   7.353
 7991POPC   NC339371  43.156  25.293   5.553
 7991POPC   PO439372  43.137  25.291   5.853
 7991POPC   GL139373  43.112  25.239   6.153
 7991POPC   GL239374  43.034  25.419   6.153
 7991POPC   C1A39375  43.136  25.282   6.453
 7991POPC   D2A39376  43.123  25.311   6.753
 7991POPC   C3A39377  43.072  25.278   7.053
 7991POPC   C4A39378  43.098  25.269   7.353
 7991POPC   C1B39379  43.041  25.489   6.453
 7991POPC   C2B39380  43.004  25.516   6.753
 7991POPC   C3B39381  43.020  25.442   7.053
 7991POPC   C4B39382  42.972  25.532   7.353
 7992POPC   NC339383   8.246  33.838   5.553
 7992POPC   PO439384   8.160  33.790   5.853
 7992POPC   GL139385   8.211  33.814   6.153
 7992POPC   GL239386   8.133  33.886   6.153
 7992POPC   C1A39387   8.229  33.772   6.453
 7992POPC   D2A39388   8.168  33.831   6.753
 7992POPC   C3A39389   8.149  33.814   7.053
 7992POPC   C4A39390   8.217  33.753   7.353
 7992POPC   C1B39391   8.004  33.975   6.453
 7992POPC   C2B39392   8.031  34.009   6.753
 7992POPC   C3B39393   8.039  34.043   7.053
 7992POPC   C4B39394   8.057  33.979   7.353
 7993POPC   NC339395  26.798   1.239   5.553
 7993POPC   PO439396  26.784   1.202   5.853
 7993POPC   GL139397  26.822   1.216   6.153
 7993POPC   GL239398  26.712   1.217   6.153
 7993POPC   C1A39399  26.835   1.248   6.453
 7993POPC   D2A39400  26.770   1.237   6.753
 7993POPC   C3A39401  26.856   1.228   7.053
 7993POPC   C4A39402  26.852   1.251   7.353
 7993POPC   C1B39403  26.627   1.291   6.453
 7993POPC   C2B39404  26.589   1.316   6.753
 7993POPC   C3B39405  26.544   1.249   7.053
 7993POPC   C4B39406  26.561   1.298   7.353
 7994POPC   NC339407   1.204  15.228   5.553
 7994POPC   PO439408   1.165  15.160   5.853
 7994POPC   GL139409   1.167  15.164   6.153
 7994POPC   GL239410   1.362  15.162   6.153
 7994POPC   C1A39411   1.181  15.185   6.453
 7994POPC   D2A39412   1.218  15.134   6.753
 7994POPC   C3A39413   1.182  15.146   7.053
 7994POPC   C4A39414   1.222  15.181   7.353
 7994POPC   C1B39415   1.450  15.169   6.453
 7994POPC   C2B39416   1.447  15.108   6.753
 7994POPC   C3B39417   1.489  15.114   7.053
 7994POPC   C4B39418   1.502  15.120   7.353
 7995POPC   NC339419   7.465  19.081   5.553
 7995POPC   PO439420   7.394  19.093   5.853
 7995POPC   GL139421   7.407  19.088   6.153
 7995POPC   GL239422   7.481  19.157   6.153
 7995POPC   C1A39423   7.407  19.046   6.453
 7995POPC   D2A39424   7.401  19.105   6.753
 7995POPC   C3A39425   7.380  19.058   7.053
 7995POPC   C4A39426   7.398  19.036   7.353
 7995POPC   C1B39427   7.584  19.222   6.453
 7995POPC   C2B39428   7.595  19.211   6.753
 7995POPC   C3B39429   7.663  19.225   7.053
 7995POPC   C4B39430   7.661  19.194   7.353
 7996POPC   NC339431  36.863  28.413   5.553
 7996POPC   PO439432  36.858  28.345   5.853
 7996POPC   GL139433  36.951  28.339   6.153
 7996POPC   GL239434  36.980  28.474   6.153
 7996POPC   C1A39435  36.930  28.322   6.453
 7996POPC   D2A39436  36.888  28.329   6.753
 7996POPC   C3A39437  36.886  28.381   7.053
 7996POPC   C4A39438  36.952  28.335   7.353
 7996POPC   C1B39439  37.030  28.515   6.453
 7996POPC   C2B39440  37.088  28.515   6.753
 7996POPC   C3B39441  37.072  28.529   7.053
 7996POPC   C4B39442  37.018  28.525   7.353
 7997POPC   NC339443  32.238  21.421   5.553
 7997POPC   PO439444  32.296  21.427   5.853
 7997POPC   GL139445  32.261  21.398   6.153
 7997POPC   GL239446  32.368  21.374   6.153
 7997POPC   C1A39447  32.281  21.343   6.453
 7997POPC   D2A39448  32.199  21.415   6.753
 7997POPC   C3A39449  32.245  21.341   7.053
 7997POPC   C4A39450  32.226  21.367   7.353
 7997POPC   C1B39451  32.530  21.429   6.453
 7997POPC   C2B39452  32.469  21.447   6.753
 7997POPC   C3B39453  32.518  21.422   7.053
 7997POPC   C4B39454  32.476  21.408   7.353
 7998POPC   NC339455  12.121  12.841   5.553
 7998POPC   PO439456  12.066  12.890   5.853
 7998POPC   GL139457  12.111  12.864   6.153
 7998POPC   GL239458  11.979  12.702   6.153
 7998POPC   C1A39459  12.089  12.893   6.453
 7998POPC   D2A39460  12.071  12.889   6.753
 7998POPC   C3A39461  12.062  12.863   7.053
 7998POPC   C4A39462  12.061  12.889   7.353
 7998POPC   C1B39463  11.923  12.669   6.453
 7998POPC   C2B39464  11.949  12.591   6.753
 7998POPC   C3B39465  11.974  12.648   7.053
 7998POPC   C4B39466  11.894  12.602   7.353
 7999POPC   NC339467   9.723  41.591   5.553
 7999POPC   PO439468   9.749  41.585   5.853
 7999POPC   GL139469   9.702  41.538   6.153
 7999POPC   GL239470   9.824  41.657   6.153
 7999POPC   C1A39471   9.778  41.524   6.453
 7999POPC   D2A39472   9.744  41.552   6.753
 7999POPC   C3A39473   9.781  41.536   7.053
 7999POPC   C4A39474   9.763  41.536   7.353
 7999POPC   C1B39475   9.968  41.735   6.453
 7999POPC   C2B39476   9.981  41.705   6.753
 7999POPC   C3B39477   9.924  41.669   7.053
 7999POPC   C4B39478   9.921  41.737   7.353
 8000POPC   NC339479   5.874  12.809   5.553
 8000POPC   PO439480   5.853  12.812   5.853
 8000POPC   GL139481   5.858  12.879   6.153
 8000POPC   GL239482   5.745  12.923   6.153
 8000POPC   C1A39483   5.906  12.865   6.453
 8000POPC   D2A39484   5.830  12.880   6.753
 8000POPC   C3A39485   5.854  12.833   7.053
 8000POPC   C4A39486   5.881  12.879   7.353
 8000POPC   C1B39487   5.750  13.061   6.453
 8000POPC   C2B39488   5.679  13.042   6.753
 8000POPC   C3B39489   5.699  12.988   7.053
 8000POPC   C4B39490   5.735  13.044   7.353
 8001POPC   NC339491   5.062  15.166   5.553
 8001POPC   PO439492   5.075  15.189   5.853
 8001POPC   GL139493   5.125  15.165   6.153
 8001POPC   GL239494   4.992  15.277   6.153
 8001POPC   C1A39495   5.115  15.172   6.453
 8001POPC   D2A39496   5.096  15.215   6.753
 8001POPC   C3A39497   5.101  15.139   7.053
 8001POPC   C4A39498   5.100  15.223   7.353
 8001POPC   C1B39499   4.939  15.341   6.453
 8001POPC   C2B39500   4.907  15.333   6.753
 8001POPC   C3B39501   4.870  15.352   7.053
 8001POPC   C4B39502   4.933  15.349   7.353
 8002POPC   NC339503  15.910  36.134   5.553
 8002POPC   PO439504  15.999  36.123   5.853
 8002POPC   GL139505  15.962  36.118   6.153
 8002POPC   GL239506  16.019  36.014   6.153
 8002POPC   C1A39507  15.954  36.171   6.453
 8002POPC   D2A39508  15.977  36.103   6.753
 8002POPC   C3A39509  15.959  36.159   7.053
 8002POPC   C4A39510  15.930  36.111   7.353
 8002POPC   C1B39511  16.143  35.941   6.453
 8002POPC   C2B39512  16.135  35.930   6.753
 8002POPC   C3B39513  16.123  35.970   7.053
 8002POPC   C4B39514  16.090  35.957   7.353
 8003POPC   NC339515  24.449  34.551   5.553
 8003POPC   PO439516  24.507  34.599   5.853
 8003POPC   GL139517  24.467  34.549   6.153
 8003POPC   GL239518  24.466  34.662   6.153
 8003POPC   C1A39519  24.464  34.553   6.453
 8003POPC   D2A39520  24.477  34.615   6.753
 8003POPC   C3A39521  24.483  34.606   7.053
 8003POPC   C4A39522  24.475  34.569   7.353
 8003POPC   C1B39523  24.406  34.810   6.453
 8003POPC   C2B39524  24.396  34.766   6.753
 8003POPC   C3B39525  24.379  34.774   7.053
 8003POPC   C4B39526  24.402  34.756   7.353
 8004POPC   NC339527  29.884  33.068   5.553
 8004POPC   PO439528  29.962  33.068   5.853
 8004POPC   GL139529  29.878  32.995   6.153
 8004POPC   GL239530  29.831  32.972   6.153
 8004POPC   C1A39531  29.901  33.039   6.453
 8004POPC   D2A39532  29.969  32.989   6.753
 8004POPC   C3A39533  29.886  33.062   7.053
 8004POPC   C4A39534  29.911  33.053   7.353
 8004POPC   C1B39535  29.768  32.834   6.453
 8004POPC   C2B39536  29.749  32.816   6.753
 8004POPC   C3B39537  29.777  32.873   7.053
 8004POPC   C4B39538  29.785  32.835   7.353
 8005POPC   NC339539  26.866  33.775   5.553
 8005POPC   PO439540  26.778  33.783   5.853
 8005POPC   GL139541  26.776  33.807   6.153
 8005POPC   GL239542  26.954  33.803   6.153
 8005POPC   C1A39543  26.812  33.772   6.453
 8005POPC   D2A39544  26.811  33.776   6.753
 8005POPC   C3A39545  26.799  33.792   7.053
 8005POPC   C4A39546  26.835  33.844   7.353
 8005POPC   C1B39547  27.031  33.788   6.453
 8005POPC   C2B39548  27.062  33.825   6.753
 8005POPC   C3B39549  27.047  33.812   7.053
 8005POPC   C4B39550  27.019  33.792   7.353
 8006POPC   NC339551  11.282  32.243   5.553
 8006POPC   PO439552  11.297  32.210   5.853
 8006POPC   GL139553  11.304  32.284   6.153
 8006POPC   GL239554  11.186  32.314   6.153
 8006POPC   C1A39555  11.302  32.277   6.453
 8006POPC   D2A39556  11.333  32.268   6.753
 8006POPC   C3A39557  11.348  32.221   7.053
 8006POPC   C4A39558  11.252  32.245   7.353
 8006POPC   C1B39559  11.100  32.412   6.453
 8006POPC   C2B39560  11.122  32.451   6.753
 8006POPC   C3B39561  11.132  32.481   7.053
 8006POPC   C4B39562  11.165  32.411   7.353
 8007POPC   NC339563  22.179  36.854   5.553
 8007POPC   PO439564  22.115  36.886   5.853
 8007POPC   GL139565  22.210  36.871   6.153
 8007POPC   GL239566  22.169  36.776   6.153
 8007POPC   C1A39567  22.184  36.931   6.453
 8007POPC   D2A39568  22.160  36.926   6.753
 8007POPC   C3A39569  22.118  36.871   7.053
 8007POPC   C4A39570  22.183  36.881   7.353
 8007POPC   C1B39571  22.216  36.690   6.453
 8007POPC   C2B39572  22.234  36.615   6.753
 8007POPC   C3B39573  22.168  36.673   7.053
 8007POPC   C4B39574  22.246  36.638   7.353
 8008POPC   NC339575  32.205  36.935   5.553
 8008POPC   PO439576  32.224  36.929   5.853
 8008POPC   GL139577  32.244  36.920   6.153
 8008POPC   GL239578  32.203  37.043   6.153
 8008POPC   C1A39579  32.232  36.939   6.453
 8008POPC   D2A39580  32.271  36.938   6.753
 8008POPC   C3A39581  32.285  36.893   7.053
 8008POPC   C4A39582  32.295  36.914   7.353
 8008POPC   C1B39583  32.202  37.164   6.453
 8008POPC   C2B39584  32.163  37.166   6.753
 8008POPC   C3B39585  32.248  37.179   7.053
 8008POPC   C4B39586  32.181  37.124   7.353
 8009POPC   NC339587  22.138  26.064   5.553
 8009POPC   PO439588  22.196  26.025   5.853
 8009POPC   GL139589  22.128  26.051   6.153
 8009POPC   GL239590  22.336  26.029   6.153
 8009POPC   C1A39591  22.167  26.035   6.453
 8009POPC   D2A39592  22.198  25.995   6.753
 8009POPC   C3A39593  22.128  26.070   7.053
 8009POPC   C4A39594  22.201  26.088   7.353
 8009POPC   C1B39595  22.456  26.088   6.453
 8009POPC   C2B39596  22.434  26.064   6.753
 8009POPC   C3B39597  22.415  26.016   7.053
 8009POPC   C4B39598  22.366  26.041   7.353
 8010POPC   NC339599  36.877  37.635   5.553
 8010POPC   PO439600  36.929  37.689   5.853
 8010POPC   GL139601  36.862  37.698   6.153
 8010POPC   GL239602  36.992  37.790   6.153
 8010POPC   C1A39603  36.906  37.669   6.453
 8010POPC   D2A39604  36.936  37.699   6.753
 8010POPC   C3A39605  36.867  37.647   7.053
 8010POPC   C4A39606  36.902  37.682   7.353
 8010POPC   C1B39607  37.043  37.929   6.453
 8010POPC   C2B39608  37.012  37.848   6.753
 8010POPC   C3B39609  37.061  37.841   7.053
 8010POPC   C4B39610  37.053  37.926   7.353
 8011POPC   NC339611  18.285  39.194   5.553
 8011POPC   PO439612  18.303  39.216   5.853
 8011POPC   GL139613  18.259  39.195   6.153
 8011POPC   GL239614  18.267  39.081   6.153
 8011POPC   C1A39615  18.261  39.242   6.453
 8011POPC   D2A39616  18.295  39.250   6.753
 8011POPC   C3A39617  18.254  39.203   7.053
 8011POPC   C4A39618  18.278  39.215   7.353
 8011POPC   C1B39619  18.331  38.981   6.453
 8011POPC   C2B39620  18.285  39.012   6.753
 8011POPC   C3B39621  18.263  38.949   7.053
 8011POPC   C4B39622  18.302  38.995   7.353
 8012POPC   NC339623  20.575  33.807   5.553
 8012POPC   PO439624  20.658  33.763   5.853
 8012POPC   GL139625  20.636  33.820   6.153
 8012POPC   GL239626  20.709  33.707   6.153
 8012POPC   C1A39627  20.568  33.774   6.453
 8012POPC   D2A39628  20.605  33.793   6.753
 8012POPC   C3A39629  20.659  33.755   7.053
 8012POPC   C4A39630  20.569  33.819   7.353
 8012POPC   C1B39631  20.890  33.691   6.453
 8012POPC   C2B39632  20.879  33.726   6.753
 8012POPC   C3B39633  20.871  33.716   7.053
 8012POPC   C4B39634  20.826  33.663   7.353
 8013POPC   NC339635   9.723  30.722   5.553
 8013POPC   PO439636   9.724  30.688   5.853
 8013POPC   GL139637   9.721  30.728   6.153
 8013POPC   GL239638   9.829  30.782   6.153
 8013POPC   C1A39639   9.744  30.687   6.453
 8013POPC   D2A39640   9.787  30.736   6.753
 8013POPC   C3A39641   9.709  30.659   7.053
 8013POPC   C4A39642   9.780  30.735   7.353
 8013POPC   C1B39643   9.900  30.891   6.453
 8013POPC   C2B39644   9.918  30.866   6.753
 8013POPC   C3B39645   9.879  30.856   7.053
 8013POPC   C4B39646   9.877  30.887   7.353
 8014POPC   NC339647  35.332  37.641   5.553
 8014POPC   PO439648  35.326  37.660   5.853
 8014POPC   GL139649  35.345  37.702   6.153
 8014POPC   GL239650  35.436  37.681   6.153
 8014POPC   C1A39651  35.303  37.643   6.453
 8014POPC   D2A39652  35.345  37.673   6.753
 8014POPC   C3A39653  35.333  37.633   7.053
 8014POPC   C4A39654  35.338  37.657   7.353
 8014POPC   C1B39655  35.568  37.643   6.453
 8014POPC   C2B39656  35.639  37.707   6.753
 8014POPC   C3B39657  35.629  37.700   7.053
 8014POPC   C4B39658  35.566  37.724   7.353
 8015POPC   NC339659  29.960  37.685   5.553
 8015POPC   PO439660  29.885  37.696   5.853
 8015POPC   GL139661  29.966  37.675   6.153
 8015POPC   GL239662  29.833  37.679   6.153
 8015POPC   C1A39663  29.920  37.664   6.453
 8015POPC   D2A39664  29.940  37.675   6.753
 8015POPC   C3A39665  29.917  37.680   7.053
 8015POPC   C4A39666  29.871  37.666   7.353
 8015POPC   C1B39667  29.658  37.760   6.453
 8015POPC   C2B39668  29.668  37.682   6.753
 8015POPC   C3B39669  29.637  37.700   7.053
 8015POPC   C4B39670  29.677  37.761   7.353
 8016POPC   NC339671  29.126  28.405   5.553
 8016POPC   PO439672  29.097  28.322   5.853
 8016POPC   GL139673  29.185  28.354   6.153
 8016POPC   GL239674  29.212  28.481   6.153
 8016POPC   C1A39675  29.162  28.385   6.453
 8016POPC   D2A39676  29.105  28.364   6.753
 8016POPC   C3A39677  29.110  28.330   7.053
 8016POPC   C4A39678  29.123  28.353   7.353
 8016POPC   C1B39679  29.146  28.637   6.453
 8016POPC   C2B39680  29.157  28.621   6.753
 8016POPC   C3B39681  29.205  28.636   7.053
 8016POPC   C4B39682  29.171  28.625   7.353
 8017POPC   NC339683  22.902  41.579   5.553
 8017POPC   PO439684  22.954  41.537   5.853
 8017POPC   GL139685  22.984  41.529   6.153
 8017POPC   GL239686  22.873  41.672   6.153
 8017POPC   C1A39687  22.892  41.583   6.453
 8017POPC   D2A39688  22.906  41.574   6.753
 8017POPC   C3A39689  22.936  41.586   7.053
 8017POPC   C4A39690  22.967  41.555   7.353
 8017POPC   C1B39691  22.853  41.813   6.453
 8017POPC   C2B39692  22.847  41.804   6.753
 8017POPC   C3B39693  22.881  41.805   7.053
 8017POPC   C4B39694  22.895  41.803   7.353
 8018POPC   NC339695   1.975  36.160   5.553
 8018POPC   PO439696   2.036  36.101   5.853
 8018POPC   GL139697   2.001  36.130   6.153
 8018POPC   GL239698   2.069  36.066   6.153
 8018POPC   C1A39699   1.974  36.129   6.453
 8018POPC   D2A39700   1.949  36.173   6.753
 8018POPC   C3A39701   1.986  36.087   7.053
 8018POPC   C4A39702   2.037  36.134   7.353
 8018POPC   C1B39703   2.077  35.929   6.453
 8018POPC   C2B39704   2.098  35.928   6.753
 8018POPC   C3B39705   2.087  35.878   7.053
 8018POPC   C4B39706   2.081  35.877   7.353
 8019POPC   NC339707  24.498  13.590   5.553
 8019POPC   PO439708  24.503  13.677   5.853
 8019POPC   GL139709  24.518  13.610   6.153
 8019POPC   GL239710  24.485  13.536   6.153
 8019POPC   C1A39711  24.505  13.671   6.453
 8019POPC   D2A39712  24.496  13.647   6.753
 8019POPC   C3A39713  24.462  13.592   7.053
 8019POPC   C4A39714  24.456  13.644   7.353
 8019POPC   C1B39715  24.442  13.365   6.453
 8019POPC   C2B39716  24.483  13.387   6.753
 8019POPC   C3B39717  24.447  13.375   7.053
 8019POPC   C4B39718  24.452  13.419   7.353
 8020POPC   NC339719   7.372  29.096   5.553
 8020POPC   PO439720   7.445  29.152   5.853
 8020POPC   GL139721   7.454  29.162   6.153
 8020POPC   GL239722   7.525  29.172   6.153
 8020POPC   C1A39723   7.402  29.182   6.453
 8020POPC   D2A39724   7.425  29.128   6.753
 8020POPC   C3A39725   7.373  29.154   7.053
 8020POPC   C4A39726   7.400  29.167   7.353
 8020POPC   C1B39727   7.655  29.303   6.453
 8020POPC   C2B39728   7.611  29.254   6.753
 8020POPC   C3B39729   7.613  29.256   7.053
 8020POPC   C4B39730   7.645  29.336   7.353
 8021POPC   NC339731  39.964  40.051   5.553
 8021POPC   PO439732  39.995  39.960   5.853
 8021POPC   GL139733  39.958  39.981   6.153
 8021POPC   GL239734  40.110  39.961   6.153
 8021POPC   C1A39735  40.048  40.050   6.453
 8021POPC   D2A39736  40.012  39.994   6.753
 8021POPC   C3A39737  40.053  39.959   7.053
 8021POPC   C4A39738  40.005  40.005   7.353
 8021POPC   C1B39739  40.190  39.891   6.453
 8021POPC   C2B39740  40.274  39.878   6.753
 8021POPC   C3B39741  40.248  39.933   7.053
 8021POPC   C4B39742  40.211  39.878   7.353
 8022POPC   NC339743  38.484  32.207   5.553
 8022POPC   PO439744  38.485  32.200   5.853
 8022POPC   GL139745  38.424  32.254   6.153
 8022POPC   GL239746  38.305  32.281   6.153
 8022POPC   C1A39747  38.409  32.286   6.453
 8022POPC   D2A39748  38.456  32.199   6.753
 8022POPC   C3A39749  38.498  32.223   7.053
 8022POPC   C4A39750  38.435  32.265   7.353
 8022POPC   C1B39751  38.218  32.282   6.453
 8022POPC   C2B39752  38.267  32.363   6.753
 8022POPC   C3B39753  38.267  32.330   7.053
 8022POPC   C4B39754  38.257  32.280   7.353
 8023POPC   NC339755  27.578   2.813   5.553
 8023POPC   PO439756  27.619   2.741   5.853
 8023POPC   GL139757  27.560   2.811   6.153
 8023POPC   GL239758  27.519   2.705   6.153
 8023POPC   C1A39759  27.600   2.788   6.453
 8023POPC   D2A39760  27.629   2.727   6.753
 8023POPC   C3A39761  27.601   2.806   7.053
 8023POPC   C4A39762  27.624   2.809   7.353
 8023POPC   C1B39763  27.438   2.539   6.453
 8023POPC   C2B39764  27.412   2.540   6.753
 8023POPC   C3B39765  27.440   2.531   7.053
 8023POPC   C4B39766  27.451   2.583   7.353
 8024POPC   NC339767  30.678  22.186   5.553
 8024POPC   PO439768  30.680  22.174   5.853
 8024POPC   GL139769  30.650  22.200   6.153
 8024POPC   GL239770  30.802  22.259   6.153
 8024POPC   C1A39771  30.664  22.196   6.453
 8024POPC   D2A39772  30.702  22.133   6.753
 8024POPC   C3A39773  30.684  22.114   7.053
 8024POPC   C4A39774  30.692  22.198   7.353
 8024POPC   C1B39775  30.904  22.320   6.453
 8024POPC   C2B39776  30.924  22.349   6.753
 8024POPC   C3B39777  30.863  22.375   7.053
 8024POPC   C4B39778  30.851  22.348   7.353
 8025POPC   NC339779  16.754  22.891   5.553
 8025POPC   PO439780  16.720  22.983   5.853
 8025POPC   GL139781  16.718  22.894   6.153
 8025POPC   GL239782  16.885  22.868   6.153
 8025POPC   C1A39783  16.720  22.960   6.453
 8025POPC   D2A39784  16.729  22.923   6.753
 8025POPC   C3A39785  16.756  22.906   7.053
 8025POPC   C4A39786  16.737  22.932   7.353
 8025POPC   C1B39787  16.960  22.890   6.453
 8025POPC   C2B39788  17.015  22.841   6.753
 8025POPC   C3B39789  16.985  22.903   7.053
 8025POPC   C4B39790  16.947  22.893   7.353
 8026POPC   NC339791  22.174  33.034   5.553
 8026POPC   PO439792  22.141  33.002   5.853
 8026POPC   GL139793  22.129  33.055   6.153
 8026POPC   GL239794  22.021  33.065   6.153
 8026POPC   C1A39795  22.160  33.074   6.453
 8026POPC   D2A39796  22.124  33.033   6.753
 8026POPC   C3A39797  22.123  33.013   7.053
 8026POPC   C4A39798  22.166  32.992   7.353
 8026POPC   C1B39799  21.946  33.147   6.453
 8026POPC   C2B39800  21.960  33.151   6.753
 8026POPC   C3B39801  21.899  33.112   7.053
 8026POPC   C4B39802  21.885  33.066   7.353
 8027POPC   NC339803  17.529  19.857   5.553
 8027POPC   PO439804  17.523  19.823   5.853
 8027POPC   GL139805  17.487  19.843   6.153
 8027POPC   GL239806  17.385  19.785   6.153
 8027POPC   C1A39807  17.466  19.800   6.453
 8027POPC   D2A39808  17.473  19.840   6.753
 8027POPC   C3A39809  17.506  19.872   7.053
 8027POPC   C4A39810  17.488  19.801   7.353
 8027POPC   C1B39811  17.216  19.761   6.453
 8027POPC   C2B39812  17.274  19.836   6.753
 8027POPC   C3B39813  17.225  19.844   7.053
 8027POPC   C4B39814  17.274  19.804   7.353
 8028POPC   NC339815  30.681  19.078   5.553
 8028POPC   PO439816  30.663  19.057   5.853
 8028POPC   GL139817  30.735  19.065   6.153
 8028POPC   GL239818  30.612  19.055   6.153
 8028POPC   C1A39819  30.668  19.014   6.453
 8028POPC   D2A39820  30.690  19.041   6.753
 8028POPC   C3A39821  30.692  19.047   7.053
 8028POPC   C4A39822  30.700  19.091   7.353
 8028POPC   C1B39823  30.436  19.082   6.453
 8028POPC   C2B39824  30.493  19.149   6.753
 8028POPC   C3B39825  30.484  19.132   7.053
 8028POPC   C4B39826  30.484  19.121   7.353
 8029POPC   NC339827  16.699  11.325   5.553
 8029POPC   PO439828  16.691  11.343   5.853
 8029POPC   GL139829  16.707  11.276   6.153
 8029POPC   GL239830  16.882  11.338   6.153
 8029POPC   C1A39831  16.752  11.298   6.453
 8029POPC   D2A39832  16.699  11.341   6.753
 8029POPC   C3A39833  16.702  11.253   7.053
 8029POPC   C4A39834  16.765  11.254   7.353
 8029POPC   C1B39835  16.972  11.424   6.453
 8029POPC   C2B39836  16.901  11.440   6.753
 8029POPC   C3B39837  16.966  11.376   7.053
 8029POPC   C4B39838  16.956  11.471   7.353
 8030POPC   NC339839  36.854  26.073   5.553
 8030POPC   PO439840  36.922  26.020   5.853
 8030POPC   GL139841  36.926  26.080   6.153
 8030POPC   GL239842  36.948  26.123   6.153
 8030POPC   C1A39843  36.876  25.998   6.453
 8030POPC   D2A39844  36.889  26.036   6.753
 8030POPC   C3A39845  36.898  26.026   7.053
 8030POPC   C4A39846  36.871  26.086   7.353
 8030POPC   C1B39847  36.931  26.278   6.453
 8030POPC   C2B39848  36.855  26.301   6.753
 8030POPC   C3B39849  36.936  26.311   7.053
 8030POPC   C4B39850  36.929  26.245   7.353
 8031POPC   NC339851  22.146  38.449   5.553
 8031POPC   PO439852  22.112  38.455   5.853
 8031POPC   GL139853  22.164  38.494   6.153
 8031POPC   GL239854  22.026  38.440   6.153
 8031POPC   C1A39855  22.155  38.419   6.453
 8031POPC   D2A39856  22.183  38.406   6.753
 8031POPC   C3A39857  22.212  38.487   7.053
 8031POPC   C4A39858  22.148  38.485   7.353
 8031POPC   C1B39859  21.883  38.366   6.453
 8031POPC   C2B39860  21.954  38.373   6.753
 8031POPC   C3B39861  21.896  38.376   7.053
 8031POPC   C4B39862  21.885  38.384   7.353
 8032POPC   NC339863  22.942  14.420   5.553
 8032POPC   PO439864  22.987  14.373   5.853
 8032POPC   GL139865  22.912  14.429   6.153
 8032POPC   GL239866  22.855  14.299   6.153
 8032POPC   C1A39867  22.931  14.405   6.453
 8032POPC   D2A39868  22.962  14.395   6.753
 8032POPC   C3A39869  22.925  14.448   7.053
 8032POPC   C4A39870  22.906  14.436   7.353
 8032POPC   C1B39871  22.782  14.171   6.453
 8032POPC   C2B39872  22.798  14.177   6.753
 8032POPC   C3B39873  22.846  14.149   7.053
 8032POPC   C4B39874  22.784  14.198   7.353
 8033POPC   NC339875  32.206  20.601   5.553
 8033POPC   PO439876  32.245  20.620   5.853
 8033POPC   GL139877  32.199  20.624   6.153
 8033POPC   GL239878  32.233  20.452   6.153
 8033POPC   C1A39879  32.297  20.652   6.453
 8033POPC   D2A39880  32.202  20.628   6.753
 8033POPC   C3A39881  32.283  20.607   7.053
 8033POPC   C4A39882  32.237  20.639   7.353
 8033POPC   C1B39883  32.211  20.362   6.453
 8033POPC   C2B39884  32.205  20.393   6.753
 8033POPC   C3B39885  32.219  20.338   7.053
 8033POPC   C4B39886  32.268  20.325   7.353
 8034POPC   NC339887  29.882   8.991   5.553
 8034POPC   PO439888  29.897   8.963   5.853
 8034POPC   GL139889  29.958   8.947   6.153
 8034POPC   GL239890  29.995   9.032   6.153
 8034POPC   C1A39891  29.879   8.976   6.453
 8034POPC   D2A39892  29.968   8.999   6.753
 8034POPC   C3A39893  29.915   8.987   7.053
 8034POPC   C4A39894  29.895   8.976   7.353
 8034POPC   C1B39895  30.084   9.138   6.453
 8034POPC   C2B39896  30.104   9.126   6.753
 8034POPC   C3B39897  30.090   9.109   7.053
 8034POPC   C4B39898  30.139   9.084   7.353
 8035POPC   NC339899  36.907  39.262   5.553
 8035POPC   PO439900  36.927  39.234   5.853
 8035POPC   GL139901  36.937  39.242   6.153
 8035POPC   GL239902  37.007  39.099   6.153
 8035POPC   C1A39903  36.903  39.244   6.453
 8035POPC   D2A39904  36.891  39.225   6.753
 8035POPC   C3A39905  36.875  39.243   7.053
 8035POPC   C4A39906  36.938  39.236   7.353
 8035POPC   C1B39907  37.032  39.063   6.453
 8035POPC   C2B39908  37.020  39.006   6.753
 8035POPC   C3B39909  37.066  38.996   7.053
 8035POPC   C4B39910  37.021  38.996   7.353
 8036POPC   NC339911  28.341   6.627   5.553
 8036POPC   PO439912  28.347   6.600   5.853
 8036POPC   GL139913  28.413   6.682   6.153
 8036POPC   GL239914  28.255   6.582   6.153
 8036POPC   C1A39915  28.365   6.624   6.453
 8036POPC   D2A39916  28.380   6.656   6.753
 8036POPC   C3A39917  28.358   6.647   7.053
 8036POPC   C4A39918  28.397   6.691   7.353
 8036POPC   C1B39919  28.157   6.567   6.453
 8036POPC   C2B39920  28.096   6.592   6.753
 8036POPC   C3B39921  28.122   6.640   7.053
 8036POPC   C4B39922  28.109   6.652   7.353
 8037POPC   NC339923  12.885  13.631   5.553
 8037POPC   PO439924  12.806  13.646   5.853
 8037POPC   GL139925  12.900  13.640   6.153
 8037POPC   GL239926  12.993  13.600   6.153
 8037POPC   C1A39927  12.872  13.582   6.453
 8037POPC   D2A39928  12.843  13.598   6.753
 8037POPC   C3A39929  12.821  13.637   7.053
 8037POPC   C4A39930  12.815  13.667   7.353
 8037POPC   C1B39931  13.075  13.539   6.453
 8037POPC   C2B39932  13.099  13.631   6.753
 8037POPC   C3B39933  13.071  13.628   7.053
 8037POPC   C4B39934  13.050  13.541   7.353
 8038POPC   NC339935  26.022   1.223   5.553
 8038POPC   PO439936  26.018   1.241   5.853
 8038POPC   GL139937  26.065   1.168   6.153
 8038POPC   GL239938  26.181   1.311   6.153
 8038POPC   C1A39939  26.068   1.172   6.453
 8038POPC   D2A39940  25.996   1.252   6.753
 8038POPC   C3A39941  26.049   1.255   7.053
 8038POPC   C4A39942  26.047   1.199   7.353
 8038POPC   C1B39943  26.221   1.385   6.453
 8038POPC   C2B39944  26.298   1.321   6.753
 8038POPC   C3B39945  26.231   1.337   7.053
 8038POPC   C4B39946  26.278   1.315   7.353
 8039POPC   NC339947  16.780  12.074   5.553
 8039POPC   PO439948  16.774  12.033   5.853
 8039POPC   GL139949  16.707  12.122   6.153
 8039POPC   GL239950  16.864  12.143   6.153
 8039POPC   C1A39951  16.710  12.088   6.453
 8039POPC   D2A39952  16.774  12.059   6.753
 8039POPC   C3A39953  16.718  12.047   7.053
 8039POPC   C4A39954  16.743  12.123   7.353
 8039POPC   C1B39955  16.913  12.203   6.453
 8039POPC   C2B39956  16.884  12.224   6.753
 8039POPC   C3B39957  16.962  12.231   7.053
 8039POPC   C4B39958  16.878  12.203   7.353
 8040POPC   NC339959  33.788  38.450   5.553
 8040POPC   PO439960  33.822  38.422   5.853
 8040POPC   GL139961  33.763  38.445   6.153
 8040POPC   GL239962  33.893  38.543   6.153
 8040POPC   C1A39963  33.757  38.471   6.453
 8040POPC   D2A39964  33.801  38.505   6.753
 8040POPC   C3A39965  33.845  38.433   7.053
 8040POPC   C4A39966  33.777  38.497   7.353
 8040POPC   C1B39967  34.052  38.589   6.453
 8040POPC   C2B39968  34.039  38.574   6.753
 8040POPC   C3B39969  33.962  38.637   7.053
 8040POPC   C4B39970  34.029  38.552   7.353
 8041POPC   NC339971  24.517  19.082   5.553
 8041POPC   PO439972  24.518  19.042   5.853
 8041POPC   GL139973  24.446  19.033   6.153
 8041POPC   GL239974  24.455  19.177   6.153
 8041POPC   C1A39975  24.475  19.058   6.453
 8041POPC   D2A39976  24.481  19.048   6.753
 8041POPC   C3A39977  24.455  19.049   7.053
 8041POPC   C4A39978  24.489  19.010   7.353
 8041POPC   C1B39979  24.344  19.297   6.453
 8041POPC   C2B39980  24.409  19.338   6.753
 8041POPC   C3B39981  24.426  19.290   7.053
 8041POPC   C4B39982  24.354  19.287   7.353
 8042POPC   NC339983  26.817   8.959   5.553
 8042POPC   PO439984  26.865   9.008   5.853
 8042POPC   GL139985  26.860   9.008   6.153
 8042POPC   GL239986  26.858   9.128   6.153
 8042POPC   C1A39987  26.825   8.923   6.453
 8042POPC   D2A39988  26.809   8.963   6.753
 8042POPC   C3A39989  26.860   8.946   7.053
 8042POPC   C4A39990  26.826   8.927   7.353
 8042POPC   C1B39991  26.929   9.177   6.453
 8042POPC   C2B39992  26.857   9.173   6.753
 8042POPC   C3B39993  26.906   9.203   7.053
 8042POPC   C4B39994  26.932   9.192   7.353
 8043POPC   NC339995  33.821   6.600   5.553
 8043POPC   PO439996  33.775   6.598   5.853
 8043POPC   GL139997  33.842   6.603   6.153
 8043POPC   GL239998  33.764   6.729   6.153
 8043POPC   C1A39999  33.845   6.642   6.453
 8043POPC   D2A40000  33.760   6.691   6.753
 8043POPC   C3A40001  33.849   6.661   7.053
 8043POPC   C4A40002  33.834   6.659   7.353
 8043POPC   C1B40003  33.744   6.913   6.453
 8043POPC   C2B40004  33.688   6.856   6.753
 8043POPC   C3B40005  33.686   6.863   7.053
 8043POPC   C4B40006  33.701   6.921   7.353
 8044POPC   NC340007   5.820   9.729   5.553
 8044POPC   PO440008   5.831   9.727   5.853
 8044POPC   GL140009   5.841   9.741   6.153
 8044POPC   GL240010   5.812   9.688   6.153
 8044POPC   C1A40011   5.846   9.725   6.453
 8044POPC   D2A40012   5.903   9.765   6.753
 8044POPC   C3A40013   5.891   9.773   7.053
 8044POPC   C4A40014   5.907   9.795   7.353
 8044POPC   C1B40015   5.694   9.575   6.453
 8044POPC   C2B40016   5.661   9.536   6.753
 8044POPC   C3B40017   5.664   9.601   7.053
 8044POPC   C4B40018   5.684   9.610   7.353
 8045POPC   NC340019  43.866  32.287   5.553
 8045POPC   PO440020  43.857  32.288   5.853
 8045POPC   GL140021  43.895  32.230   6.153
 8045POPC   GL240022  43.759  32.251   6.153
 8045POPC   C1A40023  43.897  32.281   6.453
 8045POPC   D2A40024  43.899  32.264   6.753
 8045POPC   C3A40025  43.933  32.223   7.053
 8045POPC   C4A40026  43.838  32.230   7.353
 8045POPC   C1B40027  43.646  32.298   6.453
 8045POPC   C2B40028  43.639  32.293   6.753
 8045POPC   C3B40029  43.677  32.221   7.053
 8045POPC   C4B40030  43.679  32.300   7.353
 8046POPC   NC340031  29.895  40.000   5.553
 8046POPC   PO440032  29.918  40.040   5.853
 8046POPC   GL140033  29.938  40.015   6.153
 8046POPC   GL240034  29.861  39.898   6.153
 8046POPC   C1A40035  29.905  40.043   6.453
 8046POPC   D2A40036  29.970  40.034   6.753
 8046POPC   C3A40037  29.923  40.028   7.053
 8046POPC   C4A40038  29.946  40.005   7.353
 8046POPC   C1B40039  29.707  39.869   6.453
 8046POPC   C2B40040  29.754  39.824   6.753
 8046POPC   C3B40041  29.705  39.825   7.053
 8046POPC   C4B40042  29.770  39.813   7.353
 8047POPC   NC340043  26.012   0.441   5.553
 8047POPC   PO440044  26.002   0.430   5.853
 8047POPC   GL140045  26.013   0.463   6.153
 8047POPC   GL240046  26.119   0.396   6.153
 8047POPC   C1A40047  26.037   0.481   6.453
 8047POPC   D2A40048  26.008   0.416   6.753
 8047POPC   C3A40049  26.047   0.423   7.053
 8047POPC   C4A40050  26.001   0.465   7.353
 8047POPC   C1B40051  26.298   0.327   6.453
 8047POPC   C2B40052  26.287   0.363   6.753
 8047POPC   C3B40053  26.269   0.362   7.053
 8047POPC   C4B40054  26.311   0.352   7.353
 8048POPC   NC340055  37.661   1.235   5.553
 8048POPC   PO440056  37.682   1.173   5.853
 8048POPC   GL140057  37.649   1.202   6.153
 8048POPC   GL240058  37.781   1.256   6.153
 8048POPC   C1A40059  37.630   1.169   6.453
 8048POPC   D2A40060  37.636   1.260   6.753
 8048POPC   C3A40061  37.636   1.194   7.053
 8048POPC   C4A40062  37.633   1.252   7.353
 8048POPC   C1B40063  37.936   1.292   6.453
 8048POPC   C2B40064  37.921   1.278   6.753
 8048POPC   C3B40065  37.964   1.275   7.053
 8048POPC   C4B40066  37.951   1.265   7.353
 8049POPC   NC340067  25.232  26.017   5.553
 8049POPC   PO440068  25.250  25.997   5.853
 8049POPC   GL140069  25.255  26.007   6.153
 8049POPC   GL240070  25.328  26.158   6.153
 8049POPC   C1A40071  25.229  26.013   6.453
 8049POPC   D2A40072  25.218  26.035   6.753
 8049POPC   C3A40073  25.312  25.999   7.053
 8049POPC   C4A40074  25.248  26.088   7.353
 8049POPC   C1B40075  25.310  26.306   6.453
 8049POPC   C2B40076  25.333  26.242   6.753
 8049POPC   C3B40077  25.320  26.312   7.053
 8049POPC   C4B40078  25.296  26.271   7.353
 8050POPC   NC340079  20.594  31.503   5.553
 8050POPC   PO440080  20.567  31.494   5.853
 8050POPC   GL140081  20.630  31.506   6.153
 8050POPC   GL240082  20.590  31.352   6.153
 8050POPC   C1A40083  20.567  31.506   6.453
 8050POPC   D2A40084  20.567  31.512   6.753
 8050POPC   C3A40085  20.651  31.432   7.053
 8050POPC   C4A40086  20.637  31.505   7.353
 8050POPC   C1B40087  20.677  31.182   6.453
 8050POPC   C2B40088  20.686  31.239   6.753
 8050POPC   C3B40089  20.670  31.227   7.053
 8050POPC   C4B40090  20.611  31.179   7.353
 8051POPC   NC340091  10.492  22.211   5.553
 8051POPC   PO440092  10.490  22.120   5.853
 8051POPC   GL140093  10.538  22.115   6.153
 8051POPC   GL240094  10.687  22.103   6.153
 8051POPC   C1A40095  10.519  22.200   6.453
 8051POPC   D2A40096  10.559  22.117   6.753
 8051POPC   C3A40097  10.517  22.119   7.053
 8051POPC   C4A40098  10.555  22.136   7.353
 8051POPC   C1B40099  10.785  22.034   6.453
 8051POPC   C2B40100  10.714  22.028   6.753
 8051POPC   C3B40101  10.714  22.031   7.053
 8051POPC   C4B40102  10.731  22.058   7.353
 8052POPC   NC340103   3.517  36.900   5.553
 8052POPC   PO440104   3.502  36.923   5.853
 8052POPC   GL140105   3.564  36.892   6.153
 8052POPC   GL240106   3.534  36.976   6.153
 8052POPC   C1A40107   3.530  36.868   6.453
 8052POPC   D2A40108   3.533  36.900   6.753
 8052POPC   C3A40109   3.521  36.946   7.053
 8052POPC   C4A40110   3.590  36.893   7.353
 8052POPC   C1B40111   3.410  37.171   6.453
 8052POPC   C2B40112   3.418  37.157   6.753
 8052POPC   C3B40113   3.472  37.151   7.053
 8052POPC   C4B40114   3.488  37.135   7.353
 8053POPC   NC340115  44.669   5.077   5.553
 8053POPC   PO440116  44.662   5.070   5.853
 8053POPC   GL140117  44.631   5.133   6.153
 8053POPC   GL240118  44.703   5.164   6.153
 8053POPC   C1A40119  44.630   5.050   6.453
 8053POPC   D2A40120  44.697   5.063   6.753
 8053POPC   C3A40121  44.706   5.096   7.053
 8053POPC   C4A40122  44.645   5.141   7.353
 8053POPC   C1B40123  44.793   5.307   6.453
 8053POPC   C2B40124  44.830   5.289   6.753
 8053POPC   C3B40125  44.863   5.260   7.053
 8053POPC   C4B40126  44.815   5.263   7.353
 8054POPC   NC340127  29.140  41.535   5.553
 8054POPC   PO440128  29.116  41.532   5.853
 8054POPC   GL140129  29.131  41.606   6.153
 8054POPC   GL240130  29.117  41.415   6.153
 8054POPC   C1A40131  29.177  41.517   6.453
 8054POPC   D2A40132  29.179  41.512   6.753
 8054POPC   C3A40133  29.146  41.532   7.053
 8054POPC   C4A40134  29.141  41.524   7.353
 8054POPC   C1B40135  29.056  41.334   6.453
 8054POPC   C2B40136  29.054  41.305   6.753
 8054POPC   C3B40137  29.020  41.327   7.053
 8054POPC   C4B40138  29.038  41.290   7.353
 8055POPC   NC340139  30.746  34.612   5.553
 8055POPC   PO440140  30.662  34.566   5.853
 8055POPC   GL140141  30.689  34.565   6.153
 8055POPC   GL240142  30.549  34.604   6.153
 8055POPC   C1A40143  30.672  34.555   6.453
 8055POPC   D2A40144  30.743  34.535   6.753
 8055POPC   C3A40145  30.707  34.547   7.053
 8055POPC   C4A40146  30.683  34.578   7.353
 8055POPC   C1B40147  30.501  34.739   6.453
 8055POPC   C2B40148  30.521  34.723   6.753
 8055POPC   C3B40149  30.456  34.669   7.053
 8055POPC   C4B40150  30.426  34.682   7.353
 8056POPC   NC340151  26.793   7.432   5.553
 8056POPC   PO440152  26.808   7.433   5.853
 8056POPC   GL140153  26.824   7.399   6.153
 8056POPC   GL240154  26.895   7.315   6.153
 8056POPC   C1A40155  26.843   7.458   6.453
 8056POPC   D2A40156  26.795   7.446   6.753
 8056POPC   C3A40157  26.836   7.421   7.053
 8056POPC   C4A40158  26.817   7.399   7.353
 8056POPC   C1B40159  27.015   7.206   6.453
 8056POPC   C2B40160  27.032   7.199   6.753
 8056POPC   C3B40161  26.938   7.193   7.053
 8056POPC   C4B40162  26.998   7.207   7.353
 8057POPC   NC340163  15.156  26.002   5.553
 8057POPC   PO440164  15.164  26.029   5.853
 8057POPC   GL140165  15.203  26.083   6.153
 8057POPC   GL240166  15.299  25.960   6.153
 8057POPC   C1A40167  15.163  26.049   6.453
 8057POPC   D2A40168  15.165  26.069   6.753
 8057POPC   C3A40169  15.202  26.076   7.053
 8057POPC   C4A40170  15.178  26.072   7.353
 8057POPC   C1B40171  15.382  25.871   6.453
 8057POPC   C2B40172  15.374  25.897   6.753
 8057POPC   C3B40173  15.407  25.913   7.053
 8057POPC   C4B40174  15.426  25.897   7.353
 8058POPC   NC340175  14.356  26.835   5.553
 8058POPC   PO440176  14.407  26.784   5.853
 8058POPC   GL140177  14.412  26.863   6.153
 8058POPC   GL240178  14.455  26.970   6.153
 8058POPC   C1A40179  14.427  26.823   6.453
 8058POPC   D2A40180  14.423  26.773   6.753
 8058POPC   C3A40181  14.452  26.857   7.053
 8058POPC   C4A40182  14.354  26.853   7.353
 8058POPC   C1B40183  14.449  27.020   6.453
 8058POPC   C2B40184  14.471  27.021   6.753
 8058POPC   C3B40185  14.475  27.100   7.053
 8058POPC   C4B40186  14.433  27.057   7.353
 8059POPC   NC340187   8.174  11.291   5.553
 8059POPC   PO440188   8.152  11.313   5.853
 8059POPC   GL140189   8.206  11.304   6.153
 8059POPC   GL240190   8.140  11.201   6.153
 8059POPC   C1A40191   8.195  11.349   6.453
 8059POPC   D2A40192   8.176  11.331   6.753
 8059POPC   C3A40193   8.167  11.344   7.053
 8059POPC   C4A40194   8.202  11.322   7.353
 8059POPC   C1B40195   8.029  11.082   6.453
 8059POPC   C2B40196   8.082  11.069   6.753
 8059POPC   C3B40197   8.031  11.134   7.053
 8059POPC   C4B40198   8.033  11.127   7.353
 8060POPC   NC340199  25.254  29.924   5.553
 8060POPC   PO440200  25.315  29.944   5.853
 8060POPC   GL140201  25.311  29.952   6.153
 8060POPC   GL240202  25.259  30.021   6.153
 8060POPC   C1A40203  25.229  29.952   6.453
 8060POPC   D2A40204  25.276  29.940   6.753
 8060POPC   C3A40205  25.241  29.904   7.053
 8060POPC   C4A40206  25.299  29.934   7.353
 8060POPC   C1B40207  25.207  30.109   6.453
 8060POPC   C2B40208  25.142  30.130   6.753
 8060POPC   C3B40209  25.208  30.123   7.053
 8060POPC   C4B40210  25.142  30.168   7.353
 8061POPC   NC340211  29.934  36.167   5.553
 8061POPC   PO440212  29.958  36.176   5.853
 8061POPC   GL140213  29.905  36.092   6.153
 8061POPC   GL240214  30.044  36.153   6.153
 8061POPC   C1A40215  29.883  36.167   6.453
 8061POPC   D2A40216  29.875  36.158   6.753
 8061POPC   C3A40217  29.945  36.169   7.053
 8061POPC   C4A40218  29.909  36.173   7.353
 8061POPC   C1B40219  30.118  36.099   6.453
 8061POPC   C2B40220  30.182  36.139   6.753
 8061POPC   C3B40221  30.125  36.074   7.053
 8061POPC   C4B40222  30.150  36.050   7.353
 8062POPC   NC340223  26.040   9.792   5.553
 8062POPC   PO440224  26.039   9.717   5.853
 8062POPC   GL140225  26.088   9.797   6.153
 8062POPC   GL240226  26.000   9.834   6.153
 8062POPC   C1A40227  26.073   9.788   6.453
 8062POPC   D2A40228  26.037   9.724   6.753
 8062POPC   C3A40229  26.080   9.783   7.053
 8062POPC   C4A40230  26.024   9.771   7.353
 8062POPC   C1B40231  25.976   9.980   6.453
 8062POPC   C2B40232  25.958   9.967   6.753
 8062POPC   C3B40233  25.969   9.981   7.053
 8062POPC   C4B40234  25.943   9.957   7.353
 8063POPC   NC340235  26.075  23.749   5.553
 8063POPC   PO440236  26.036  23.715   5.853
 8063POPC   GL140237  26.076  23.719   6.153
 8063POPC   GL240238  26.136  23.703   6.153
 8063POPC   C1A40239  26.067  23.717   6.453
 8063POPC   D2A40240  26.058  23.709   6.753
 8063POPC   C3A40241  26.053  23.723   7.053
 8063POPC   C4A40242  26.021  23.679   7.353
 8063POPC   C1B40243  26.308  23.603   6.453
 8063POPC   C2B40244  26.293  23.573   6.753
 8063POPC   C3B40245  26.251  23.641   7.053
 8063POPC   C4B40246  26.243  23.576   7.353
 8064POPC   NC340247  36.101  32.279   5.553
 8064POPC   PO440248  36.079  32.279   5.853
 8064POPC   GL140249  36.100  32.231   6.153
 8064POPC   GL240250  36.047  32.126   6.153
 8064POPC   C1A40251  36.158  32.238   6.453
 8064POPC   D2A40252  36.080  32.277   6.753
 8064POPC   C3A40253  36.160  32.296   7.053
 8064POPC   C4A40254  36.126  32.276   7.353
 8064POPC   C1B40255  35.931  32.090   6.453
 8064POPC   C2B40256  35.962  32.078   6.753
 8064POPC   C3B40257  35.969  32.065   7.053
 8064POPC   C4B40258  35.901  32.042   7.353
 8065POPC   NC340259  12.853   1.962   5.553
 8065POPC   PO440260  12.824   1.971   5.853
 8065POPC   GL140261  12.829   1.999   6.153
 8065POPC   GL240262  12.850   1.861   6.153
 8065POPC   C1A40263  12.817   1.987   6.453
 8065POPC   D2A40264  12.823   1.991   6.753
 8065POPC   C3A40265  12.877   1.996   7.053
 8065POPC   C4A40266  12.804   1.986   7.353
 8065POPC   C1B40267  12.927   1.724   6.453
 8065POPC   C2B40268  12.874   1.715   6.753
 8065POPC   C3B40269  12.885   1.746   7.053
 8065POPC   C4B40270  12.908   1.725   7.353
 8066POPC   NC340271  35.352  39.963   5.553
 8066POPC   PO440272  35.394  39.982   5.853
 8066POPC   GL140273  35.361  39.974   6.153
 8066POPC   GL240274  35.475  39.925   6.153
 8066POPC   C1A40275  35.306  39.979   6.453
 8066POPC   D2A40276  35.349  40.002   6.753
 8066POPC   C3A40277  35.320  40.051   7.053
 8066POPC   C4A40278  35.371  40.046   7.353
 8066POPC   C1B40279  35.508  39.843   6.453
 8066POPC   C2B40280  35.523  39.799   6.753
 8066POPC   C3B40281  35.574  39.814   7.053
 8066POPC   C4B40282  35.569  39.858   7.353
 8067POPC   NC340283  22.133   8.193   5.553
 8067POPC   PO440284  22.158   8.217   5.853
 8067POPC   GL140285  22.171   8.220   6.153
 8067POPC   GL240286  22.125   8.311   6.153
 8067POPC   C1A40287  22.120   8.165   6.453
 8067POPC   D2A40288  22.171   8.211   6.753
 8067POPC   C3A40289  22.164   8.228   7.053
 8067POPC   C4A40290  22.137   8.216   7.353
 8067POPC   C1B40291  22.108   8.455   6.453
 8067POPC   C2B40292  22.038   8.431   6.753
 8067POPC   C3B40293  22.054   8.387   7.053
 8067POPC   C4B40294  22.092   8.383   7.353
 8068POPC   NC340295  12.099   3.508   5.553
 8068POPC   PO440296  12.099   3.525   5.853
 8068POPC   GL140297  12.126   3.536   6.153
 8068POPC   GL240298  11.918   3.566   6.153
 8068POPC   C1A40299  12.034   3.501   6.453
 8068POPC   D2A40300  12.077   3.530   6.753
 8068POPC   C3A40301  12.065   3.535   7.053
 8068POPC   C4A40302  12.090   3.589   7.353
 8068POPC   C1B40303  11.850   3.506   6.453
 8068POPC   C2B40304  11.802   3.531   6.753
 8068POPC   C3B40305  11.792   3.593   7.053
 8068POPC   C4B40306  11.784   3.595   7.353
 8069POPC   NC340307  38.428  33.044   5.553
 8069POPC   PO440308  38.485  33.027   5.853
 8069POPC   GL140309  38.478  33.046   6.153
 8069POPC   GL240310  38.365  33.144   6.153
 8069POPC   C1A40311  38.449  33.021   6.453
 8069POPC   D2A40312  38.416  33.022   6.753
 8069POPC   C3A40313  38.446  33.028   7.053
 8069POPC   C4A40314  38.444  33.068   7.353
 8069POPC   C1B40315  38.295  33.196   6.453
 8069POPC   C2B40316  38.339  33.243   6.753
 8069POPC   C3B40317  38.262  33.198   7.053
 8069POPC   C4B40318  38.302  33.218   7.353
 8070POPC   NC340319  32.202  26.854   5.553
 8070POPC   PO440320  32.221  26.840   5.853
 8070POPC   GL140321  32.217  26.817   6.153
 8070POPC   GL240322  32.306  26.710   6.153
 8070POPC   C1A40323  32.242  26.779   6.453
 8070POPC   D2A40324  32.297  26.800   6.753
 8070POPC   C3A40325  32.238  26.823   7.053
 8070POPC   C4A40326  32.239  26.855   7.353
 8070POPC   C1B40327  32.353  26.560   6.453
 8070POPC   C2B40328  32.397  26.624   6.753
 8070POPC   C3B40329  32.376  26.556   7.053
 8070POPC   C4B40330  32.408  26.640   7.353
 8071POPC   NC340331  43.909  19.046   5.553
 8071POPC   PO440332  43.898  19.106   5.853
 8071POPC   GL140333  43.860  19.061   6.153
 8071POPC   GL240334  44.018  19.018   6.153
 8071POPC   C1A40335  43.871  19.096   6.453
 8071POPC   D2A40336  43.869  19.018   6.753
 8071POPC   C3A40337  43.894  19.100   7.053
 8071POPC   C4A40338  43.844  19.017   7.353
 8071POPC   C1B40339  44.116  19.021   6.453
 8071POPC   C2B40340  44.171  19.091   6.753
 8071POPC   C3B40341  44.129  19.098   7.053
 8071POPC   C4B40342  44.186  19.022   7.353
 8072POPC   NC340343   5.105  43.888   5.553
 8072POPC   PO440344   5.046  43.843   5.853
 8072POPC   GL140345   5.091  43.926   6.153
 8072POPC   GL240346   5.203  43.902   6.153
 8072POPC   C1A40347   5.052  43.915   6.453
 8072POPC   D2A40348   5.071  43.889   6.753
 8072POPC   C3A40349   5.071  43.840   7.053
 8072POPC   C4A40350   5.085  43.881   7.353
 8072POPC   C1B40351   5.385  43.864   6.453
 8072POPC   C2B40352   5.311  43.855   6.753
 8072POPC   C3B40353   5.391  43.921   7.053
 8072POPC   C4B40354   5.347  43.854   7.353
 8073POPC   NC340355  44.651  26.823   5.553
 8073POPC   PO440356  44.653  26.839   5.853
 8073POPC   GL140357  44.619  26.810   6.153
 8073POPC   GL240358  44.769  26.711   6.153
 8073POPC   C1A40359  44.642  26.782   6.453
 8073POPC   D2A40360  44.650  26.772   6.753
 8073POPC   C3A40361  44.619  26.774   7.053
 8073POPC   C4A40362  44.627  26.783   7.353
 8073POPC   C1B40363  44.909  26.723   6.453
 8073POPC   C2B40364  44.838  26.729   6.753
 8073POPC   C3B40365  44.887  26.713   7.053
 8073POPC   C4B40366  44.894  26.711   7.353
 8074POPC   NC340367  12.819  12.886   5.553
 8074POPC   PO440368  12.826  12.817   5.853
 8074POPC   GL140369  12.835  12.876   6.153
 8074POPC   GL240370  12.859  12.981   6.153
 8074POPC   C1A40371  12.894  12.833   6.453
 8074POPC   D2A40372  12.805  12.866   6.753
 8074POPC   C3A40373  12.887  12.822   7.053
 8074POPC   C4A40374  12.867  12.855   7.353
 8074POPC   C1B40375  12.890  13.067   6.453
 8074POPC   C2B40376  12.821  13.063   6.753
 8074POPC   C3B40377  12.876  13.120   7.053
 8074POPC   C4B40378  12.833  13.067   7.353
 8075POPC   NC340379  33.063  25.283   5.553
 8075POPC   PO440380  33.056  25.285   5.853
 8075POPC   GL140381  32.980  25.295   6.153
 8075POPC   GL240382  32.876  25.234   6.153
 8075POPC   C1A40383  32.996  25.304   6.453
 8075POPC   D2A40384  33.029  25.254   6.753
 8075POPC   C3A40385  32.987  25.263   7.053
 8075POPC   C4A40386  33.056  25.229   7.353
 8075POPC   C1B40387  32.729  25.234   6.453
 8075POPC   C2B40388  32.725  25.262   6.753
 8075POPC   C3B40389  32.745  25.295   7.053
 8075POPC   C4B40390  32.767  25.306   7.353
 8076POPC   NC340391   9.761  17.551   5.553
 8076POPC   PO440392   9.721  17.503   5.853
 8076POPC   GL140393   9.786  17.550   6.153
 8076POPC   GL240394   9.694  17.396   6.153
 8076POPC   C1A40395   9.701  17.487   6.453
 8076POPC   D2A40396   9.784  17.517   6.753
 8076POPC   C3A40397   9.764  17.474   7.053
 8076POPC   C4A40398   9.796  17.518   7.353
 8076POPC   C1B40399   9.533  17.355   6.453
 8076POPC   C2B40400   9.614  17.342   6.753
 8076POPC   C3B40401   9.535  17.348   7.053
 8076POPC   C4B40402   9.554  17.344   7.353
 8077POPC   NC340403  28.409  19.097   5.553
 8077POPC   PO440404  28.362  19.070   5.853
 8077POPC   GL140405  28.367  19.019   6.153
 8077POPC   GL240406  28.405  19.191   6.153
 8077POPC   C1A40407  28.348  19.099   6.453
 8077POPC   D2A40408  28.394  19.069   6.753
 8077POPC   C3A40409  28.339  19.081   7.053
 8077POPC   C4A40410  28.346  19.034   7.353
 8077POPC   C1B40411  28.454  19.274   6.453
 8077POPC   C2B40412  28.465  19.265   6.753
 8077POPC   C3B40413  28.478  19.257   7.053
 8077POPC   C4B40414  28.518  19.293   7.353
 8078POPC   NC340415  13.643  20.646   5.553
 8078POPC   PO440416  13.668  20.636   5.853
 8078POPC   GL140417  13.651  20.623   6.153
 8078POPC   GL240418  13.550  20.738   6.153
 8078POPC   C1A40419  13.596  20.630   6.453
 8078POPC   D2A40420  13.619  20.577   6.753
 8078POPC   C3A40421  13.621  20.593   7.053
 8078POPC   C4A40422  13.641  20.586   7.353
 8078POPC   C1B40423  13.541  20.821   6.453
 8078POPC   C2B40424  13.556  20.812   6.753
 8078POPC   C3B40425  13.570  20.836   7.053
 8078POPC   C4B40426  13.536  20.849   7.353
 8079POPC   NC340427   8.169   8.171   5.553
 8079POPC   PO440428   8.209   8.205   5.853
 8079POPC   GL140429   8.197   8.167   6.153
 8079POPC   GL240430   8.092   8.110   6.153
 8079POPC   C1A40431   8.217   8.218   6.453
 8079POPC   D2A40432   8.233   8.224   6.753
 8079POPC   C3A40433   8.163   8.234   7.053
 8079POPC   C4A40434   8.212   8.228   7.353
 8079POPC   C1B40435   8.082   7.941   6.453
 8079POPC   C2B40436   8.062   7.969   6.753
 8079POPC   C3B40437   8.061   7.978   7.053
 8079POPC   C4B40438   8.041   8.027   7.353
 8080POPC   NC340439  26.768  36.917   5.553
 8080POPC   PO440440  26.865  36.943   5.853
 8080POPC   GL140441  26.845  36.870   6.153
 8080POPC   GL240442  26.814  36.758   6.153
 8080POPC   C1A40443  26.835  36.953   6.453
 8080POPC   D2A40444  26.769  36.883   6.753
 8080POPC   C3A40445  26.857  36.865   7.053
 8080POPC   C4A40446  26.860  36.893   7.353
 8080POPC   C1B40447  26.854  36.662   6.453
 8080POPC   C2B40448  26.826  36.647   6.753
 8080POPC   C3B40449  26.839  36.686   7.053
 8080POPC   C4B40450  26.794  36.651   7.353
 8081POPC   NC340451  36.938  35.374   5.553
 8081POPC   PO440452  36.856  35.358   5.853
 8081POPC   GL140453  36.897  35.366   6.153
 8081POPC   GL240454  36.980  35.502   6.153
 8081POPC   C1A40455  36.889  35.388   6.453
 8081POPC   D2A40456  36.922  35.390   6.753
 8081POPC   C3A40457  36.888  35.340   7.053
 8081POPC   C4A40458  36.914  35.324   7.353
 8081POPC   C1B40459  37.058  35.599   6.453
 8081POPC   C2B40460  37.003  35.595   6.753
 8081POPC   C3B40461  37.046  35.587   7.053
 8081POPC   C4B40462  36.984  35.604   7.353
 8082POPC   NC340463  19.104   3.556   5.553
 8082POPC   PO440464  19.108   3.549   5.853
 8082POPC   GL140465  19.073   3.584   6.153
 8082POPC   GL240466  19.105   3.392   6.153
 8082POPC   C1A40467  19.073   3.504   6.453
 8082POPC   D2A40468  19.012   3.560   6.753
 8082POPC   C3A40469  19.035   3.526   7.053
 8082POPC   C4A40470  19.057   3.573   7.353
 8082POPC   C1B40471  19.165   3.303   6.453
 8082POPC   C2B40472  19.205   3.356   6.753
 8082POPC   C3B40473  19.212   3.343   7.053
 8082POPC   C4B40474  19.202   3.310   7.353
 8083POPC   NC340475   8.212  10.500   5.553
 8083POPC   PO440476   8.166  10.478   5.853
 8083POPC   GL140477   8.173  10.564   6.153
 8083POPC   GL240478   8.321  10.530   6.153
 8083POPC   C1A40479   8.183  10.563   6.453
 8083POPC   D2A40480   8.166  10.553   6.753
 8083POPC   C3A40481   8.221  10.509   7.053
 8083POPC   C4A40482   8.150  10.550   7.353
 8083POPC   C1B40483   8.490  10.555   6.453
 8083POPC   C2B40484   8.457  10.583   6.753
 8083POPC   C3B40485   8.420  10.577   7.053
 8083POPC   C4B40486   8.444  10.515   7.353
 8084POPC   NC340487   5.081  39.184   5.553
 8084POPC   PO440488   5.132  39.193   5.853
 8084POPC   GL140489   5.108  39.220   6.153
 8084POPC   GL240490   5.079  39.343   6.153
 8084POPC   C1A40491   5.050  39.201   6.453
 8084POPC   D2A40492   5.061  39.273   6.753
 8084POPC   C3A40493   5.126  39.237   7.053
 8084POPC   C4A40494   5.069  39.266   7.353
 8084POPC   C1B40495   5.068  39.448   6.453
 8084POPC   C2B40496   5.044  39.476   6.753
 8084POPC   C3B40497   5.079  39.440   7.053
 8084POPC   C4B40498   5.084  39.458   7.353
 8085POPC   NC340499  24.456  42.293   5.553
 8085POPC   PO440500  24.477  42.315   5.853
 8085POPC   GL140501  24.459  42.383   6.153
 8085POPC   GL240502  24.369  42.344   6.153
 8085POPC   C1A40503  24.468  42.287   6.453
 8085POPC   D2A40504  24.506  42.344   6.753
 8085POPC   C3A40505  24.502  42.365   7.053
 8085POPC   C4A40506  24.459  42.362   7.353
 8085POPC   C1B40507  24.208  42.342   6.453
 8085POPC   C2B40508  24.280  42.371   6.753
 8085POPC   C3B40509  24.262  42.304   7.053
 8085POPC   C4B40510  24.242  42.293   7.353
 8086POPC   NC340511  26.797   9.709   5.553
 8086POPC   PO440512  26.839   9.706   5.853
 8086POPC   GL140513  26.836   9.791   6.153
 8086POPC   GL240514  26.782   9.652   6.153
 8086POPC   C1A40515  26.812   9.754   6.453
 8086POPC   D2A40516  26.768   9.781   6.753
 8086POPC   C3A40517  26.831   9.788   7.053
 8086POPC   C4A40518  26.854   9.728   7.353
 8086POPC   C1B40519  26.702   9.526   6.453
 8086POPC   C2B40520  26.713   9.537   6.753
 8086POPC   C3B40521  26.682   9.512   7.053
 8086POPC   C4B40522  26.731   9.560   7.353
 8087POPC   NC340523  23.745   9.763   5.553
 8087POPC   PO440524  23.679   9.723   5.853
 8087POPC   GL140525  23.668   9.741   6.153
 8087POPC   GL240526  23.749   9.872   6.153
 8087POPC   C1A40527  23.669   9.729   6.453
 8087POPC   D2A40528  23.732   9.726   6.753
 8087POPC   C3A40529  23.697   9.746   7.053
 8087POPC   C4A40530  23.761   9.732   7.353
 8087POPC   C1B40531  23.773   9.959   6.453
 8087POPC   C2B40532  23.830  10.001   6.753
 8087POPC   C3B40533  23.803  10.007   7.053
 8087POPC   C4B40534  23.807   9.975   7.353
 8088POPC   NC340535  12.853  19.081   5.553
 8088POPC   PO440536  12.833  19.097   5.853
 8088POPC   GL140537  12.847  19.079   6.153
 8088POPC   GL240538  12.890  19.157   6.153
 8088POPC   C1A40539  12.889  19.107   6.453
 8088POPC   D2A40540  12.841  19.073   6.753
 8088POPC   C3A40541  12.899  19.035   7.053
 8088POPC   C4A40542  12.845  19.101   7.353
 8088POPC   C1B40543  12.957  19.337   6.453
 8088POPC   C2B40544  12.904  19.331   6.753
 8088POPC   C3B40545  12.888  19.263   7.053
 8088POPC   C4B40546  12.911  19.279   7.353
 8089POPC   NC340547  18.296   9.706   5.553
 8089POPC   PO440548  18.328   9.706   5.853
 8089POPC   GL140549  18.256   9.706   6.153
 8089POPC   GL240550  18.303   9.592   6.153
 8089POPC   C1A40551  18.326   9.732   6.453
 8089POPC   D2A40552  18.239   9.706   6.753
 8089POPC   C3A40553  18.256   9.777   7.053
 8089POPC   C4A40554  18.312   9.789   7.353
 8089POPC   C1B40555  18.280   9.457   6.453
 8089POPC   C2B40556  18.249   9.540   6.753
 8089POPC   C3B40557  18.238   9.506   7.053
 8089POPC   C4B40558  18.303   9.502   7.353
 8090POPC   NC340559  37.655   6.694   5.553
 8090POPC   PO440560  37.728   6.677   5.853
 8090POPC   GL140561  37.664   6.693   6.153
 8090POPC   GL240562  37.635   6.787   6.153
 8090POPC   C1A40563  37.671   6.688   6.453
 8090POPC   D2A40564  37.700   6.692   6.753
 8090POPC   C3A40565  37.636   6.627   7.053
 8090POPC   C4A40566  37.693   6.623   7.353
 8090POPC   C1B40567  37.483   6.817   6.453
 8090POPC   C2B40568  37.519   6.817   6.753
 8090POPC   C3B40569  37.555   6.823   7.053
 8090POPC   C4B40570  37.551   6.885   7.353
 8091POPC   NC340571   8.172  23.669   5.553
 8091POPC   PO440572   8.238  23.681   5.853
 8091POPC   GL140573   8.235  23.721   6.153
 8091POPC   GL240574   8.112  23.770   6.153
 8091POPC   C1A40575   8.220  23.681   6.453
 8091POPC   D2A40576   8.148  23.666   6.753
 8091POPC   C3A40577   8.195  23.737   7.053
 8091POPC   C4A40578   8.214  23.746   7.353
 8091POPC   C1B40579   7.919  23.788   6.453
 8091POPC   C2B40580   7.927  23.795   6.753
 8091POPC   C3B40581   7.988  23.819   7.053
 8091POPC   C4B40582   7.975  23.785   7.353
 8092POPC   NC340583  31.461   8.179   5.553
 8092POPC   PO440584  31.443   8.244   5.853
 8092POPC   GL140585  31.473   8.168   6.153
 8092POPC   GL240586  31.513   8.321   6.153
 8092POPC   C1A40587  31.474   8.206   6.453
 8092POPC   D2A40588  31.436   8.229   6.753
 8092POPC   C3A40589  31.484   8.165   7.053
 8092POPC   C4A40590  31.475   8.243   7.353
 8092POPC   C1B40591  31.647   8.442   6.453
 8092POPC   C2B40592  31.624   8.359   6.753
 8092POPC   C3B40593  31.628   8.426   7.053
 8092POPC   C4B40594  31.586   8.413   7.353
 8093POPC   NC340595  30.707  42.367   5.553
 8093POPC   PO440596  30.711  42.346   5.853
 8093POPC   GL140597  30.708  42.350   6.153
 8093POPC   GL240598  30.664  42.502   6.153
 8093POPC   C1A40599  30.714  42.325   6.453
 8093POPC   D2A40600  30.668  42.371   6.753
 8093POPC   C3A40601  30.704  42.340   7.053
 8093POPC   C4A40602  30.663  42.356   7.353
 8093POPC   C1B40603  30.661  42.606   6.453
 8093POPC   C2B40604  30.693  42.606   6.753
 8093POPC   C3B40605  30.710  42.610   7.053
 8093POPC   C4B40606  30.652  42.572   7.353
 8094POPC   NC340607  22.948  36.911   5.553
 8094POPC   PO440608  22.955  36.863   5.853
 8094POPC   GL140609  22.964  36.882   6.153
 8094POPC   GL240610  22.810  36.945   6.153
 8094POPC   C1A40611  22.905  36.909   6.453
 8094POPC   D2A40612  22.975  36.913   6.753
 8094POPC   C3A40613  22.902  36.895   7.053
 8094POPC   C4A40614  22.902  36.860   7.353
 8094POPC   C1B40615  22.702  37.087   6.453
 8094POPC   C2B40616  22.767  37.016   6.753
 8094POPC   C3B40617  22.776  37.070   7.053
 8094POPC   C4B40618  22.744  37.054   7.353
 8095POPC   NC340619  32.258   8.225   5.553
 8095POPC   PO440620  32.272   8.183   5.853
 8095POPC   GL140621  32.224   8.159   6.153
 8095POPC   GL240622  32.186   8.163   6.153
 8095POPC   C1A40623  32.269   8.217   6.453
 8095POPC   D2A40624  32.206   8.224   6.753
 8095POPC   C3A40625  32.267   8.210   7.053
 8095POPC   C4A40626  32.237   8.246   7.353
 8095POPC   C1B40627  32.030   8.057   6.453
 8095POPC   C2B40628  32.108   8.033   6.753
 8095POPC   C3B40629  32.087   7.994   7.053
 8095POPC   C4B40630  32.070   8.056   7.353
 8096POPC   NC340631  19.074  24.515   5.553
 8096POPC   PO440632  19.071  24.535   5.853
 8096POPC   GL140633  19.021  24.483   6.153
 8096POPC   GL240634  18.915  24.428   6.153
 8096POPC   C1A40635  19.103  24.520   6.453
 8096POPC   D2A40636  19.074  24.507   6.753
 8096POPC   C3A40637  19.079  24.505   7.053
 8096POPC   C4A40638  19.099  24.535   7.353
 8096POPC   C1B40639  18.814  24.351   6.453
 8096POPC   C2B40640  18.826  24.371   6.753
 8096POPC   C3B40641  18.840  24.395   7.053
 8096POPC   C4B40642  18.833  24.439   7.353
 8097POPC   NC340643  17.487   9.796   5.553
 8097POPC   PO440644  17.522   9.722   5.853
 8097POPC   GL140645  17.510   9.774   6.153
 8097POPC   GL240646  17.590   9.737   6.153
 8097POPC   C1A40647  17.479   9.704   6.453
 8097POPC   D2A40648  17.520   9.726   6.753
 8097POPC   C3A40649  17.541   9.741   7.053
 8097POPC   C4A40650  17.549   9.720   7.353
 8097POPC   C1B40651  17.781   9.803   6.453
 8097POPC   C2B40652  17.775   9.776   6.753
 8097POPC   C3B40653  17.774   9.715   7.053
 8097POPC   C4B40654  17.804   9.780   7.353
 8098POPC   NC340655   0.444  40.801   5.553
 8098POPC   PO440656   0.436  40.764   5.853
 8098POPC   GL140657   0.408  40.817   6.153
 8098POPC   GL240658   0.348  40.812   6.153
 8098POPC   C1A40659   0.477  40.809   6.453
 8098POPC   D2A40660   0.419  40.747   6.753
 8098POPC   C3A40661   0.428  40.830   7.053
 8098POPC   C4A40662   0.449  40.746   7.353
 8098POPC   C1B40663   0.169  40.758   6.453
 8098POPC   C2B40664   0.164  40.832   6.753
 8098POPC   C3B40665   0.149  40.764   7.053
 8098POPC   C4B40666   0.164  40.758   7.353
 8099POPC   NC340667  22.979  23.666   5.553
 8099POPC   PO440668  22.954  23.723   5.853
 8099POPC   GL140669  22.962  23.721   6.153
 8099POPC   GL240670  22.814  23.708   6.153
 8099POPC   C1A40671  22.918  23.742   6.453
 8099POPC   D2A40672  22.931  23.679   6.753
 8099POPC   C3A40673  22.968  23.680   7.053
 8099POPC   C4A40674  22.917  23.717   7.353
 8099POPC   C1B40675  22.680  23.595   6.453
 8099POPC   C2B40676  22.705  23.633   6.753
 8099POPC   C3B40677  22.735  23.641   7.053
 8099POPC   C4B40678  22.710  23.654   7.353
 8100POPC   NC340679   8.214  19.021   5.553
 8100POPC   PO440680   8.190  19.039   5.853
 8100POPC   GL140681   8.232  19.019   6.153
 8100POPC   GL240682   8.278  19.031   6.153
 8100POPC   C1A40683   8.154  19.017   6.453
 8100POPC   D2A40684   8.172  19.085   6.753
 8100POPC   C3A40685   8.224  19.065   7.053
 8100POPC   C4A40686   8.182  19.106   7.353
 8100POPC   C1B40687   8.415  18.955   6.453
 8100POPC   C2B40688   8.460  18.934   6.753
 8100POPC   C3B40689   8.442  18.926   7.053
 8100POPC   C4B40690   8.434  18.960   7.353
 8101POPC   NC340691  30.738  36.119   5.553
 8101POPC   PO440692  30.660  36.138   5.853
 8101POPC   GL140693  30.694  36.119   6.153
 8101POPC   GL240694  30.825  36.094   6.153
 8101POPC   C1A40695  30.707  36.116   6.453
 8101POPC   D2A40696  30.677  36.094   6.753
 8101POPC   C3A40697  30.734  36.170   7.053
 8101POPC   C4A40698  30.702  36.091   7.353
 8101POPC   C1B40699  30.961  36.064   6.453
 8101POPC   C2B40700  30.989  36.051   6.753
 8101POPC   C3B40701  30.989  36.085   7.053
 8101POPC   C4B40702  30.912  36.113   7.353
 8102POPC   NC340703  15.227  36.090   5.553
 8102POPC   PO440704  15.198  36.099   5.853
 8102POPC   GL140705  15.135  36.107   6.153
 8102POPC   GL240706  15.342  36.169   6.153
 8102POPC   C1A40707  15.149  36.130   6.453
 8102POPC   D2A40708  15.146  36.173   6.753
 8102POPC   C3A40709  15.184  36.149   7.053
 8102POPC   C4A40710  15.220  36.139   7.353
 8102POPC   C1B40711  15.440  36.154   6.453
 8102POPC   C2B40712  15.391  36.149   6.753
 8102POPC   C3B40713  15.427  36.133   7.053
 8102POPC   C4B40714  15.415  36.150   7.353
 8103POPC   NC340715  22.202  28.381   5.553
 8103POPC   PO440716  22.131  28.367   5.853
 8103POPC   GL140717  22.161  28.372   6.153
 8103POPC   GL240718  22.207  28.420   6.153
 8103POPC   C1A40719  22.131  28.403   6.453
 8103POPC   D2A40720  22.185  28.397   6.753
 8103POPC   C3A40721  22.171  28.398   7.053
 8103POPC   C4A40722  22.154  28.393   7.353
 8103POPC   C1B40723  22.398  28.571   6.453
 8103POPC   C2B40724  22.349  28.510   6.753
 8103POPC   C3B40725  22.359  28.494   7.053
 8103POPC   C4B40726  22.332  28.566   7.353
 8104POPC   NC340727   4.346  14.385   5.553
 8104POPC   PO440728   4.336  14.371   5.853
 8104POPC   GL140729   4.348  14.393   6.153
 8104POPC   GL240730   4.368  14.524   6.153
 8104POPC   C1A40731   4.318  14.381   6.453
 8104POPC   D2A40732   4.348  14.430   6.753
 8104POPC   C3A40733   4.307  14.392   7.053
 8104POPC   C4A40734   4.356  14.404   7.353
 8104POPC   C1B40735   4.429  14.650   6.453
 8104POPC   C2B40736   4.410  14.582   6.753
 8104POPC   C3B40737   4.486  14.611   7.053
 8104POPC   C4B40738   4.456  14.614   7.353
 8105POPC   NC340739  28.343  17.552   5.553
 8105POPC   PO440740  28.383  17.498   5.853
 8105POPC   GL140741  28.411  17.493   6.153
 8105POPC   GL240742  28.264  17.527   6.153
 8105POPC   C1A40743  28.330  17.496   6.453
 8105POPC   D2A40744  28.419  17.504   6.753
 8105POPC   C3A40745  28.385  17.493   7.053
 8105POPC   C4A40746  28.377  17.487   7.353
 8105POPC   C1B40747  28.124  17.434   6.453
 8105POPC   C2B40748  28.123  17.438   6.753
 8105POPC   C3B40749  28.119  17.496   7.053
 8105POPC   C4B40750  28.156  17.503   7.353
 8106POPC   NC340751   8.974  10.506   5.553
 8106POPC   PO440752   8.945  10.495   5.853
 8106POPC   GL140753   8.926  10.538   6.153
 8106POPC   GL240754   9.063  10.364   6.153
 8106POPC   C1A40755   8.955  10.523   6.453
 8106POPC   D2A40756   8.941  10.529   6.753
 8106POPC   C3A40757   8.947  10.528   7.053
 8106POPC   C4A40758   8.930  10.509   7.353
 8106POPC   C1B40759   9.122  10.268   6.453
 8106POPC   C2B40760   9.041  10.337   6.753
 8106POPC   C3B40761   9.058  10.273   7.053
 8106POPC   C4B40762   9.094  10.275   7.353
 8107POPC   NC340763  33.067   6.609   5.553
 8107POPC   PO440764  33.033   6.683   5.853
 8107POPC   GL140765  32.988   6.615   6.153
 8107POPC   GL240766  32.970   6.495   6.153
 8107POPC   C1A40767  33.014   6.649   6.453
 8107POPC   D2A40768  33.048   6.688   6.753
 8107POPC   C3A40769  32.980   6.662   7.053
 8107POPC   C4A40770  32.984   6.673   7.353
 8107POPC   C1B40771  33.020   6.351   6.453
 8107POPC   C2B40772  33.034   6.354   6.753
 8107POPC   C3B40773  33.026   6.348   7.053
 8107POPC   C4B40774  33.052   6.432   7.353
 8108POPC   NC340775  37.701  11.308   5.553
 8108POPC   PO440776  37.722  11.306   5.853
 8108POPC   GL140777  37.634  11.344   6.153
 8108POPC   GL240778  37.558  11.159   6.153
 8108POPC   C1A40779  37.661  11.306   6.453
 8108POPC   D2A40780  37.680  11.328   6.753
 8108POPC   C3A40781  37.727  11.283   7.053
 8108POPC   C4A40782  37.656  11.338   7.353
 8108POPC   C1B40783  37.561  11.062   6.453
 8108POPC   C2B40784  37.471  11.068   6.753
 8108POPC   C3B40785  37.471  11.121   7.053
 8108POPC   C4B40786  37.486  11.152   7.353
 8109POPC   NC340787   5.848  32.224   5.553
 8109POPC   PO440788   5.826  32.294   5.853
 8109POPC   GL140789   5.829  32.199   6.153
 8109POPC   GL240790   5.858  32.325   6.153
 8109POPC   C1A40791   5.866  32.222   6.453
 8109POPC   D2A40792   5.856  32.208   6.753
 8109POPC   C3A40793   5.858  32.215   7.053
 8109POPC   C4A40794   5.827  32.221   7.353
 8109POPC   C1B40795   5.980  32.494   6.453
 8109POPC   C2B40796   5.912  32.507   6.753
 8109POPC   C3B40797   5.918  32.449   7.053
 8109POPC   C4B40798   5.916  32.529   7.353
 8110POPC   NC340799  13.590  26.837   5.553
 8110POPC   PO440800  13.674  26.859   5.853
 8110POPC   GL140801  13.662  26.858   6.153
 8110POPC   GL240802  13.637  26.887   6.153
 8110POPC   C1A40803  13.667  26.826   6.453
 8110POPC   D2A40804  13.631  26.816   6.753
 8110POPC   C3A40805  13.649  26.839   7.053
 8110POPC   C4A40806  13.643  26.792   7.353
 8110POPC   C1B40807  13.712  27.096   6.453
 8110POPC   C2B40808  13.744  27.016   6.753
 8110POPC   C3B40809  13.698  27.033   7.053
 8110POPC   C4B40810  13.734  27.028   7.353
 8111POPC   NC340811  29.180  17.495   5.553
 8111POPC   PO440812  29.141  17.484   5.853
 8111POPC   GL140813  29.117  17.521   6.153
 8111POPC   GL240814  29.270  17.624   6.153
 8111POPC   C1A40815  29.180  17.527   6.453
 8111POPC   D2A40816  29.179  17.516   6.753
 8111POPC   C3A40817  29.190  17.508   7.053
 8111POPC   C4A40818  29.120  17.463   7.353
 8111POPC   C1B40819  29.343  17.634   6.453
 8111POPC   C2B40820  29.336  17.658   6.753
 8111POPC   C3B40821  29.359  17.646   7.053
 8111POPC   C4B40822  29.355  17.629   7.353
 8112POPC   NC340823   2.757  13.593   5.553
 8112POPC   PO440824   2.723  13.655   5.853
 8112POPC   GL140825   2.785  13.647   6.153
 8112POPC   GL240826   2.725  13.777   6.153
 8112POPC   C1A40827   2.751  13.669   6.453
 8112POPC   D2A40828   2.801  13.671   6.753
 8112POPC   C3A40829   2.729  13.663   7.053
 8112POPC   C4A40830   2.736  13.650   7.353
 8112POPC   C1B40831   2.713  13.820   6.453
 8112POPC   C2B40832   2.714  13.868   6.753
 8112POPC   C3B40833   2.650  13.848   7.053
 8112POPC   C4B40834   2.704  13.875   7.353
 8113POPC   NC340835  43.866  13.581   5.553
 8113POPC   PO440836  43.924  13.583   5.853
 8113POPC   GL140837  43.919  13.606   6.153
 8113POPC   GL240838  43.753  13.667   6.153
 8113POPC   C1A40839  43.906  13.671   6.453
 8113POPC   D2A40840  43.861  13.621   6.753
 8113POPC   C3A40841  43.919  13.597   7.053
 8113POPC   C4A40842  43.863  13.664   7.353
 8113POPC   C1B40843  43.642  13.759   6.453
 8113POPC   C2B40844  43.692  13.800   6.753
 8113POPC   C3B40845  43.687  13.810   7.053
 8113POPC   C4B40846  43.721  13.758   7.353
 8114POPC   NC340847  15.999  37.677   5.553
 8114POPC   PO440848  15.923  37.725   5.853
 8114POPC   GL140849  15.951  37.679   6.153
 8114POPC   GL240850  15.900  37.575   6.153
 8114POPC   C1A40851  15.969  37.708   6.453
 8114POPC   D2A40852  15.906  37.672   6.753
 8114POPC   C3A40853  15.941  37.706   7.053
 8114POPC   C4A40854  15.963  37.728   7.353
 8114POPC   C1B40855  15.786  37.514   6.453
 8114POPC   C2B40856  15.748  37.523   6.753
 8114POPC   C3B40857  15.784  37.497   7.053
 8114POPC   C4B40858  15.769  37.538   7.353
 8115POPC   NC340859  23.760  32.291   5.553
 8115POPC   PO440860  23.760  32.285   5.853
 8115POPC   GL140861  23.684  32.296   6.153
 8115POPC   GL240862  23.564  32.186   6.153
 8115POPC   C1A40863  23.729  32.297   6.453
 8115POPC   D2A40864  23.702  32.208   6.753
 8115POPC   C3A40865  23.715  32.224   7.053
 8115POPC   C4A40866  23.676  32.236   7.353
 8115POPC   C1B40867  23.493  32.143   6.453
 8115POPC   C2B40868  23.488  32.133   6.753
 8115POPC   C3B40869  23.521  32.118   7.053
 8115POPC   C4B40870  23.514  32.149   7.353
 8116POPC   NC340871   0.445  42.328   5.553
 8116POPC   PO440872   0.438  42.340   5.853
 8116POPC   GL140873   0.402  42.293   6.153
 8116POPC   GL240874   0.402  42.425   6.153
 8116POPC   C1A40875   0.389  42.296   6.453
 8116POPC   D2A40876   0.458  42.337   6.753
 8116POPC   C3A40877   0.395  42.316   7.053
 8116POPC   C4A40878   0.441  42.360   7.353
 8116POPC   C1B40879   0.332  42.567   6.453
 8116POPC   C2B40880   0.285  42.571   6.753
 8116POPC   C3B40881   0.278  42.522   7.053
 8116POPC   C4B40882   0.322  42.542   7.353
 8117POPC   NC340883  40.752  20.629   5.553
 8117POPC   PO440884  40.822  20.606   5.853
 8117POPC   GL140885  40.782  20.639   6.153
 8117POPC   GL240886  40.839  20.747   6.153
 8117POPC   C1A40887  40.825  20.594   6.453
 8117POPC   D2A40888  40.751  20.584   6.753
 8117POPC   C3A40889  40.813  20.633   7.053
 8117POPC   C4A40890  40.826  20.571   7.353
 8117POPC   C1B40891  40.864  20.850   6.453
 8117POPC   C2B40892  40.825  20.872   6.753
 8117POPC   C3B40893  40.828  20.839   7.053
 8117POPC   C4B40894  40.879  20.877   7.353
 8118POPC   NC340895   4.285  17.462   5.553
 8118POPC   PO440896   4.361  17.491   5.853
 8118POPC   GL140897   4.271  17.464   6.153
 8118POPC   GL240898   4.360  17.428   6.153
 8118POPC   C1A40899   4.355  17.518   6.453
 8118POPC   D2A40900   4.272  17.506   6.753
 8118POPC   C3A40901   4.326  17.531   7.053
 8118POPC   C4A40902   4.359  17.477   7.353
 8118POPC   C1B40903   4.418  17.229   6.453
 8118POPC   C2B40904   4.389  17.227   6.753
 8118POPC   C3B40905   4.338  17.218   7.053
 8118POPC   C4B40906   4.393  17.277   7.353
 8119POPC   NC340907   6.662  10.543   5.553
 8119POPC   PO440908   6.666  10.535   5.853
 8119POPC   GL140909   6.626  10.564   6.153
 8119POPC   GL240910   6.725  10.380   6.153
 8119POPC   C1A40911   6.633  10.516   6.453
 8119POPC   D2A40912   6.665  10.559   6.753
 8119POPC   C3A40913   6.620  10.501   7.053
 8119POPC   C4A40914   6.620  10.534   7.353
 8119POPC   C1B40915   6.789  10.351   6.453
 8119POPC   C2B40916   6.719  10.351   6.753
 8119POPC   C3B40917   6.761  10.260   7.053
 8119POPC   C4B40918   6.812  10.328   7.353
 8120POPC   NC340919  16.696   0.459   5.553
 8120POPC   PO440920  16.689   0.401   5.853
 8120POPC   GL140921  16.683   0.419   6.153
 8120POPC   GL240922  16.768   0.316   6.153
 8120POPC   C1A40923  16.778   0.418   6.453
 8120POPC   D2A40924  16.770   0.461   6.753
 8120POPC   C3A40925  16.747   0.419   7.053
 8120POPC   C4A40926  16.711   0.440   7.353
 8120POPC   C1B40927  16.807   0.195   6.453
 8120POPC   C2B40928  16.894   0.238   6.753
 8120POPC   C3B40929  16.891   0.236   7.053
 8120POPC   C4B40930  16.881   0.238   7.353
 8121POPC   NC340931  39.243  27.580   5.553
 8121POPC   PO440932  39.205  27.570   5.853
 8121POPC   GL140933  39.186  27.614   6.153
 8121POPC   GL240934  39.320  27.640   6.153
 8121POPC   C1A40935  39.222  27.569   6.453
 8121POPC   D2A40936  39.259  27.593   6.753
 8121POPC   C3A40937  39.268  27.552   7.053
 8121POPC   C4A40938  39.222  27.597   7.353
 8121POPC   C1B40939  39.505  27.637   6.453
 8121POPC   C2B40940  39.486  27.681   6.753
 8121POPC   C3B40941  39.435  27.665   7.053
 8121POPC   C4B40942  39.501  27.617   7.353
 8122POPC   NC340943  43.845   3.504   5.553
 8122POPC   PO440944  43.908   3.542   5.853
 8122POPC   GL140945  43.844   3.497   6.153
 8122POPC   GL240946  44.043   3.507   6.153
 8122POPC   C1A40947  43.909   3.494   6.453
 8122POPC   D2A40948  43.917   3.532   6.753
 8122POPC   C3A40949  43.899   3.497   7.053
 8122POPC   C4A40950  43.935   3.495   7.353
 8122POPC   C1B40951  44.135   3.453   6.453
 8122POPC   C2B40952  44.102   3.475   6.753
 8122POPC   C3B40953  44.163   3.402   7.053
 8122POPC   C4B40954  44.126   3.440   7.353
 8123POPC   NC340955  26.802   4.315   5.553
 8123POPC   PO440956  26.825   4.343   5.853
 8123POPC   GL140957  26.838   4.270   6.153
 8123POPC   GL240958  26.668   4.295   6.153
 8123POPC   C1A40959  26.823   4.342   6.453
 8123POPC   D2A40960  26.788   4.275   6.753
 8123POPC   C3A40961  26.774   4.332   7.053
 8123POPC   C4A40962  26.794   4.299   7.353
 8123POPC   C1B40963  26.546   4.231   6.453
 8123POPC   C2B40964  26.626   4.278   6.753
 8123POPC   C3B40965  26.602   4.230   7.053
 8123POPC   C4B40966  26.583   4.188   7.353
 8124POPC   NC340967  32.198  18.248   5.553
 8124POPC   PO440968  32.289  18.287   5.853
 8124POPC   GL140969  32.267  18.325   6.153
 8124POPC   GL240970  32.151  18.269   6.153
 8124POPC   C1A40971  32.223  18.318   6.453
 8124POPC   D2A40972  32.246  18.267   6.753
 8124POPC   C3A40973  32.232  18.294   7.053
 8124POPC   C4A40974  32.258  18.239   7.353
 8124POPC   C1B40975  31.976  18.311   6.453
 8124POPC   C2B40976  31.980  18.298   6.753
 8124POPC   C3B40977  32.040  18.286   7.053
 8124POPC   C4B40978  31.966  18.258   7.353
 8125POPC   NC340979   2.761   6.661   5.553
 8125POPC   PO440980   2.749   6.692   5.853
 8125POPC   GL140981   2.788   6.683   6.153
 8125POPC   GL240982   2.838   6.751   6.153
 8125POPC   C1A40983   2.785   6.687   6.453
 8125POPC   D2A40984   2.753   6.624   6.753
 8125POPC   C3A40985   2.772   6.613   7.053
 8125POPC   C4A40986   2.808   6.678   7.353
 8125POPC   C1B40987   2.953   6.787   6.453
 8125POPC   C2B40988   2.939   6.809   6.753
 8125POPC   C3B40989   2.913   6.802   7.053
 8125POPC   C4B40990   2.919   6.796   7.353
 8126POPC   NC340991   8.206   1.993   5.553
 8126POPC   PO440992   8.188   2.005   5.853
 8126POPC   GL140993   8.224   2.028   6.153
 8126POPC   GL240994   8.026   1.955   6.153
 8126POPC   C1A40995   8.186   2.016   6.453
 8126POPC   D2A40996   8.197   1.974   6.753
 8126POPC   C3A40997   8.214   1.949   7.053
 8126POPC   C4A40998   8.149   1.942   7.353
 8126POPC   C1B40999   7.931   1.913   6.453
 8126POPC   C2B41000   7.929   1.960   6.753
 8126POPC   C3B41001   7.936   1.962   7.053
 8126POPC   C4B41002   7.982   1.933   7.353
 8127POPC   NC341003  16.003  40.055   5.553
 8127POPC   PO441004  16.001  40.007   5.853
 8127POPC   GL141005  15.966  40.019   6.153
 8127POPC   GL241006  16.110  39.997   6.153
 8127POPC   C1A41007  15.935  39.983   6.453
 8127POPC   D2A41008  15.906  39.992   6.753
 8127POPC   C3A41009  15.993  40.041   7.053
 8127POPC   C4A41010  15.991  40.049   7.353
 8127POPC   C1B41011  16.190  40.059   6.453
 8127POPC   C2B41012  16.239  40.090   6.753
 8127POPC   C3B41013  16.185  40.024   7.053
 8127POPC   C4B41014  16.208  40.017   7.353
 8128POPC   NC341015  32.293  30.693   5.553
 8128POPC   PO441016  32.248  30.683   5.853
 8128POPC   GL141017  32.230  30.735   6.153
 8128POPC   GL241018  32.219  30.783   6.153
 8128POPC   C1A41019  32.217  30.653   6.453
 8128POPC   D2A41020  32.203  30.719   6.753
 8128POPC   C3A41021  32.212  30.696   7.053
 8128POPC   C4A41022  32.228  30.717   7.353
 8128POPC   C1B41023  32.195  30.883   6.453
 8128POPC   C2B41024  32.138  30.964   6.753
 8128POPC   C3B41025  32.151  30.944   7.053
 8128POPC   C4B41026  32.206  30.903   7.353
 8129POPC   NC341027  37.645  33.810   5.553
 8129POPC   PO441028  37.630  33.769   5.853
 8129POPC   GL141029  37.703  33.773   6.153
 8129POPC   GL241030  37.800  33.778   6.153
 8129POPC   C1A41031  37.655  33.809   6.453
 8129POPC   D2A41032  37.691  33.834   6.753
 8129POPC   C3A41033  37.718  33.776   7.053
 8129POPC   C4A41034  37.643  33.760   7.353
 8129POPC   C1B41035  37.963  33.845   6.453
 8129POPC   C2B41036  37.955  33.801   6.753
 8129POPC   C3B41037  37.951  33.877   7.053
 8129POPC   C4B41038  37.891  33.819   7.353
 8130POPC   NC341039  27.556  12.831   5.553
 8130POPC   PO441040  27.559  12.852   5.853
 8130POPC   GL141041  27.543  12.863   6.153
 8130POPC   GL241042  27.478  12.793   6.153
 8130POPC   C1A41043  27.620  12.875   6.453
 8130POPC   D2A41044  27.548  12.873   6.753
 8130POPC   C3A41045  27.567  12.832   7.053
 8130POPC   C4A41046  27.591  12.849   7.353
 8130POPC   C1B41047  27.341  12.752   6.453
 8130POPC   C2B41048  27.379  12.756   6.753
 8130POPC   C3B41049  27.370  12.796   7.053
 8130POPC   C4B41050  27.327  12.772   7.353
 8131POPC   NC341051  21.379   9.723   5.553
 8131POPC   PO441052  21.378   9.784   5.853
 8131POPC   GL141053  21.390   9.710   6.153
 8131POPC   GL241054  21.450   9.666   6.153
 8131POPC   C1A41055  21.399   9.765   6.453
 8131POPC   D2A41056  21.431   9.719   6.753
 8131POPC   C3A41057  21.348   9.729   7.053
 8131POPC   C4A41058  21.405   9.719   7.353
 8131POPC   C1B41059  21.480   9.478   6.453
 8131POPC   C2B41060  21.461   9.552   6.753
 8131POPC   C3B41061  21.496   9.510   7.053
 8131POPC   C4B41062  21.445   9.476   7.353
 8132POPC   NC341063   2.029  19.838   5.553
 8132POPC   PO441064   2.008  19.841   5.853
 8132POPC   GL141065   1.946  19.826   6.153
 8132POPC   GL241066   1.941  19.918   6.153
 8132POPC   C1A41067   2.033  19.818   6.453
 8132POPC   D2A41068   2.017  19.837   6.753
 8132POPC   C3A41069   1.980  19.830   7.053
 8132POPC   C4A41070   2.038  19.854   7.353
 8132POPC   C1B41071   1.892  20.048   6.453
 8132POPC   C2B41072   1.939  20.066   6.753
 8132POPC   C3B41073   1.955  20.091   7.053
 8132POPC   C4B41074   1.918  20.087   7.353
 8133POPC   NC341075  14.419  21.379   5.553
 8133POPC   PO441076  14.397  21.409   5.853
 8133POPC   GL141077  14.442  21.352   6.153
 8133POPC   GL241078  14.342  21.546   6.153
 8133POPC   C1A41079  14.381  21.397   6.453
 8133POPC   D2A41080  14.434  21.432   6.753
 8133POPC   C3A41081  14.429  21.387   7.053
 8133POPC   C4A41082  14.359  21.368   7.353
 8133POPC   C1B41083  14.289  21.664   6.453
 8133POPC   C2B41084  14.275  21.657   6.753
 8133POPC   C3B41085  14.266  21.621   7.053
 8133POPC   C4B41086  14.342  21.645   7.353
 8134POPC   NC341087  37.705  22.210   5.553
 8134POPC   PO441088  37.673  22.164   5.853
 8134POPC   GL141089  37.638  22.114   6.153
 8134POPC   GL241090  37.850  22.189   6.153
 8134POPC   C1A41091  37.684  22.198   6.453
 8134POPC   D2A41092  37.712  22.174   6.753
 8134POPC   C3A41093  37.700  22.206   7.053
 8134POPC   C4A41094  37.636  22.122   7.353
 8134POPC   C1B41095  37.969  22.135   6.453
 8134POPC   C2B41096  37.920  22.150   6.753
 8134POPC   C3B41097  37.968  22.158   7.053
 8134POPC   C4B41098  37.879  22.160   7.353
 8135POPC   NC341099   7.431   8.210   5.553
 8135POPC   PO441100   7.430   8.177   5.853
 8135POPC   GL141101   7.399   8.219   6.153
 8135POPC   GL241102   7.395   8.348   6.153
 8135POPC   C1A41103   7.416   8.199   6.453
 8135POPC   D2A41104   7.414   8.154   6.753
 8135POPC   C3A41105   7.428   8.168   7.053
 8135POPC   C4A41106   7.419   8.180   7.353
 8135POPC   C1B41107   7.415   8.427   6.453
 8135POPC   C2B41108   7.340   8.458   6.753
 8135POPC   C3B41109   7.424   8.489   7.053
 8135POPC   C4B41110   7.422   8.477   7.353
 8136POPC   NC341111   5.846  20.591   5.553
 8136POPC   PO441112   5.866  20.634   5.853
 8136POPC   GL141113   5.871  20.621   6.153
 8136POPC   GL241114   5.820  20.474   6.153
 8136POPC   C1A41115   5.859  20.595   6.453
 8136POPC   D2A41116   5.893  20.569   6.753
 8136POPC   C3A41117   5.893  20.618   7.053
 8136POPC   C4A41118   5.841  20.611   7.353
 8136POPC   C1B41119   5.745  20.387   6.453
 8136POPC   C2B41120   5.730  20.416   6.753
 8136POPC   C3B41121   5.668  20.397   7.053
 8136POPC   C4B41122   5.688  20.409   7.353
 8137POPC   NC341123  32.233  26.011   5.553
 8137POPC   PO441124  32.213  26.044   5.853
 8137POPC   GL141125  32.224  26.059   6.153
 8137POPC   GL241126  32.411  26.083   6.153
 8137POPC   C1A41127  32.278  26.022   6.453
 8137POPC   D2A41128  32.256  26.034   6.753
 8137POPC   C3A41129  32.247  26.010   7.053
 8137POPC   C4A41130  32.298  26.034   7.353
 8137POPC   C1B41131  32.496  26.049   6.453
 8137POPC   C2B41132  32.447  26.083   6.753
 8137POPC   C3B41133  32.510  26.084   7.053
 8137POPC   C4B41134  32.454  26.113   7.353
 8138POPC   NC341135  43.842  11.300   5.553
 8138POPC   PO441136  43.838  11.279   5.853
 8138POPC   GL141137  43.839  11.253   6.153
 8138POPC   GL241138  43.796  11.329   6.153
 8138POPC   C1A41139  43.883  11.274   6.453
 8138POPC   D2A41140  43.933  11.313   6.753
 8138POPC   C3A41141  43.850  11.297   7.053
 8138POPC   C4A41142  43.863  11.340   7.353
 8138POPC   C1B41143  43.630  11.405   6.453
 8138POPC   C2B41144  43.649  11.384   6.753
 8138POPC   C3B41145  43.681  11.366   7.053
 8138POPC   C4B41146  43.643  11.425   7.353
 8139POPC   NC341147  34.566  19.832   5.553
 8139POPC   PO441148  34.609  19.837   5.853
 8139POPC   GL141149  34.549  19.812   6.153
 8139POPC   GL241150  34.621  19.755   6.153
 8139POPC   C1A41151  34.564  19.838   6.453
 8139POPC   D2A41152  34.607  19.855   6.753
 8139POPC   C3A41153  34.560  19.813   7.053
 8139POPC   C4A41154  34.594  19.876   7.353
 8139POPC   C1B41155  34.587  19.629   6.453
 8139POPC   C2B41156  34.573  19.620   6.753
 8139POPC   C3B41157  34.630  19.566   7.053
 8139POPC   C4B41158  34.554  19.634   7.353
 8140POPC   NC341159  12.044  13.587   5.553
 8140POPC   PO441160  12.119  13.588   5.853
 8140POPC   GL141161  12.121  13.623   6.153
 8140POPC   GL241162  12.053  13.706   6.153
 8140POPC   C1A41163  12.056  13.611   6.453
 8140POPC   D2A41164  12.113  13.592   6.753
 8140POPC   C3A41165  12.107  13.658   7.053
 8140POPC   C4A41166  12.114  13.596   7.353
 8140POPC   C1B41167  11.948  13.797   6.453
 8140POPC   C2B41168  11.981  13.826   6.753
 8140POPC   C3B41169  11.900  13.834   7.053
 8140POPC   C4B41170  11.889  13.873   7.353
 8141POPC   NC341171   9.791  16.739   5.553
 8141POPC   PO441172   9.760  16.704   5.853
 8141POPC   GL141173   9.733  16.772   6.153
 8141POPC   GL241174   9.884  16.664   6.153
 8141POPC   C1A41175   9.790  16.706   6.453
 8141POPC   D2A41176   9.737  16.710   6.753
 8141POPC   C3A41177   9.733  16.736   7.053
 8141POPC   C4A41178   9.788  16.731   7.353
 8141POPC   C1B41179   9.990  16.711   6.453
 8141POPC   C2B41180  10.020  16.654   6.753
 8141POPC   C3B41181  10.007  16.716   7.053
 8141POPC   C4B41182  10.032  16.681   7.353
 8142POPC   NC341183  11.344  34.531   5.553
 8142POPC   PO441184  11.305  34.530   5.853
 8142POPC   GL141185  11.257  34.575   6.153
 8142POPC   GL241186  11.296  34.723   6.153
 8142POPC   C1A41187  11.264  34.555   6.453
 8142POPC   D2A41188  11.306  34.552   6.753
 8142POPC   C3A41189  11.347  34.565   7.053
 8142POPC   C4A41190  11.282  34.570   7.353
 8142POPC   C1B41191  11.325  34.822   6.453
 8142POPC   C2B41192  11.414  34.783   6.753
 8142POPC   C3B41193  11.401  34.795   7.053
 8142POPC   C4B41194  11.399  34.790   7.353
 8143POPC   NC341195  42.356   7.410   5.553
 8143POPC   PO441196  42.358   7.404   5.853
 8143POPC   GL141197  42.370   7.422   6.153
 8143POPC   GL241198  42.389   7.316   6.153
 8143POPC   C1A41199  42.294   7.454   6.453
 8143POPC   D2A41200  42.334   7.379   6.753
 8143POPC   C3A41201  42.379   7.417   7.053
 8143POPC   C4A41202  42.312   7.423   7.353
 8143POPC   C1B41203  42.391   7.179   6.453
 8143POPC   C2B41204  42.306   7.144   6.753
 8143POPC   C3B41205  42.392   7.167   7.053
 8143POPC   C4B41206  42.319   7.150   7.353
 8144POPC   NC341207  39.207  30.657   5.553
 8144POPC   PO441208  39.269  30.718   5.853
 8144POPC   GL141209  39.192  30.737   6.153
 8144POPC   GL241210  39.346  30.584   6.153
 8144POPC   C1A41211  39.211  30.711   6.453
 8144POPC   D2A41212  39.242  30.685   6.753
 8144POPC   C3A41213  39.262  30.679   7.053
 8144POPC   C4A41214  39.258  30.668   7.353
 8144POPC   C1B41215  39.388  30.526   6.453
 8144POPC   C2B41216  39.414  30.460   6.753
 8144POPC   C3B41217  39.323  30.462   7.053
 8144POPC   C4B41218  39.381  30.521   7.353
 8145POPC   NC341219   5.905   8.970   5.553
 8145POPC   PO441220   5.863   8.926   5.853
 8145POPC   GL141221   5.871   8.949   6.153
 8145POPC   GL241222   5.719   8.955   6.153
 8145POPC   C1A41223   5.901   8.990   6.453
 8145POPC   D2A41224   5.886   8.966   6.753
 8145POPC   C3A41225   5.883   8.991   7.053
 8145POPC   C4A41226   5.826   8.970   7.353
 8145POPC   C1B41227   5.659   8.880   6.453
 8145POPC   C2B41228   5.696   8.834   6.753
 8145POPC   C3B41229   5.636   8.807   7.053
 8145POPC   C4B41230   5.623   8.902   7.353
 8146POPC   NC341231  10.495  11.279   5.553
 8146POPC   PO441232  10.513  11.283   5.853
 8146POPC   GL141233  10.485  11.324   6.153
 8146POPC   GL241234  10.442  11.221   6.153
 8146POPC   C1A41235  10.563  11.259   6.453
 8146POPC   D2A41236  10.478  11.344   6.753
 8146POPC   C3A41237  10.520  11.299   7.053
 8146POPC   C4A41238  10.559  11.309   7.353
 8146POPC   C1B41239  10.477  11.070   6.453
 8146POPC   C2B41240  10.457  11.052   6.753
 8146POPC   C3B41241  10.418  11.055   7.053
 8146POPC   C4B41242  10.420  11.042   7.353
 8147POPC   NC341243  23.677  15.149   5.553
 8147POPC   PO441244  23.733  15.228   5.853
 8147POPC   GL141245  23.719  15.165   6.153
 8147POPC   GL241246  23.871  15.203   6.153
 8147POPC   C1A41247  23.700  15.211   6.453
 8147POPC   D2A41248  23.673  15.136   6.753
 8147POPC   C3A41249  23.669  15.216   7.053
 8147POPC   C4A41250  23.692  15.183   7.353
 8147POPC   C1B41251  23.963  15.305   6.453
 8147POPC   C2B41252  23.945  15.293   6.753
 8147POPC   C3B41253  23.994  15.243   7.053
 8147POPC   C4B41254  23.935  15.227   7.353
 8148POPC   NC341255  36.899   5.065   5.553
 8148POPC   PO441256  36.869   5.107   5.853
 8148POPC   GL141257  36.934   5.124   6.153
 8148POPC   GL241258  37.040   5.128   6.153
 8148POPC   C1A41259  36.922   5.087   6.453
 8148POPC   D2A41260  36.943   5.123   6.753
 8148POPC   C3A41261  36.900   5.075   7.053
 8148POPC   C4A41262  36.906   5.084   7.353
 8148POPC   C1B41263  37.084   5.285   6.453
 8148POPC   C2B41264  37.081   5.250   6.753
 8148POPC   C3B41265  37.108   5.285   7.053
 8148POPC   C4B41266  37.095   5.228   7.353
 8149POPC   NC341267  35.333  13.659   5.553
 8149POPC   PO441268  35.325  13.594   5.853
 8149POPC   GL141269  35.381  13.640   6.153
 8149POPC   GL241270  35.340  13.722   6.153
 8149POPC   C1A41271  35.313  13.613   6.453
 8149POPC   D2A41272  35.394  13.630   6.753
 8149POPC   C3A41273  35.312  13.595   7.053
 8149POPC   C4A41274  35.375  13.587   7.353
 8149POPC   C1B41275  35.250  13.897   6.453
 8149POPC   C2B41276  35.322  13.900   6.753
 8149POPC   C3B41277  35.300  13.837   7.053
 8149POPC   C4B41278  35.261  13.899   7.353
 8150POPC   NC341279  33.754   5.122   5.553
 8150POPC   PO441280  33.772   5.044   5.853
 8150POPC   GL141281  33.793   5.078   6.153
 8150POPC   GL241282  33.945   5.098   6.153
 8150POPC   C1A41283  33.848   5.083   6.453
 8150POPC   D2A41284  33.823   5.141   6.753
 8150POPC   C3A41285  33.850   5.136   7.053
 8150POPC   C4A41286  33.838   5.090   7.353
 8150POPC   C1B41287  34.085   5.144   6.453
 8150POPC   C2B41288  34.067   5.191   6.753
 8150POPC   C3B41289  34.072   5.133   7.053
 8150POPC   C4B41290  34.063   5.124   7.353
 8151POPC   NC341291  30.726  19.880   5.553
 8151POPC   PO441292  30.670  19.829   5.853
 8151POPC   GL141293  30.745  19.829   6.153
 8151POPC   GL241294  30.567  19.865   6.153
 8151POPC   C1A41295  30.654  19.868   6.453
 8151POPC   D2A41296  30.721  19.828   6.753
 8151POPC   C3A41297  30.724  19.841   7.053
 8151POPC   C4A41298  30.652  19.806   7.353
 8151POPC   C1B41299  30.521  19.934   6.453
 8151POPC   C2B41300  30.484  20.021   6.753
 8151POPC   C3B41301  30.457  20.021   7.053
 8151POPC   C4B41302  30.524  20.026   7.353
 8152POPC   NC341303   8.214  19.868   5.553
 8152POPC   PO441304   8.155  19.835   5.853
 8152POPC   GL141305   8.190  19.808   6.153
 8152POPC   GL241306   8.244  19.991   6.153
 8152POPC   C1A41307   8.203  19.825   6.453
 8152POPC   D2A41308   8.229  19.840   6.753
 8152POPC   C3A41309   8.212  19.834   7.053
 8152POPC   C4A41310   8.235  19.829   7.353
 8152POPC   C1B41311   8.190  20.043   6.453
 8152POPC   C2B41312   8.213  20.112   6.753
 8152POPC   C3B41313   8.225  20.078   7.053
 8152POPC   C4B41314   8.242  20.124   7.353
 8153POPC   NC341315  21.349  32.211   5.553
 8153POPC   PO441316  21.393  32.297   5.853
 8153POPC   GL141317  21.353  32.257   6.153
 8153POPC   GL241318  21.485  32.187   6.153
 8153POPC   C1A41319  21.366  32.253   6.453
 8153POPC   D2A41320  21.419  32.217   6.753
 8153POPC   C3A41321  21.361  32.278   7.053
 8153POPC   C4A41322  21.417  32.206   7.353
 8153POPC   C1B41323  21.635  32.180   6.453
 8153POPC   C2B41324  21.591  32.155   6.753
 8153POPC   C3B41325  21.650  32.198   7.053
 8153POPC   C4B41326  21.623  32.121   7.353
 8154POPC   NC341327  24.456  11.341   5.553
 8154POPC   PO441328  24.500  11.295   5.853
 8154POPC   GL141329  24.522  11.327   6.153
 8154POPC   GL241330  24.420  11.358   6.153
 8154POPC   C1A41331  24.508  11.343   6.453
 8154POPC   D2A41332  24.474  11.327   6.753
 8154POPC   C3A41333  24.475  11.300   7.053
 8154POPC   C4A41334  24.478  11.265   7.353
 8154POPC   C1B41335  24.299  11.533   6.453
 8154POPC   C2B41336  24.366  11.494   6.753
 8154POPC   C3B41337  24.287  11.456   7.053
 8154POPC   C4B41338  24.295  11.536   7.353
 8155POPC   NC341339  19.095  28.331   5.553
 8155POPC   PO441340  19.077  28.395   5.853
 8155POPC   GL141341  19.082  28.386   6.153
 8155POPC   GL241342  19.184  28.348   6.153
 8155POPC   C1A41343  19.064  28.384   6.453
 8155POPC   D2A41344  19.068  28.322   6.753
 8155POPC   C3A41345  19.036  28.383   7.053
 8155POPC   C4A41346  19.076  28.340   7.353
 8155POPC   C1B41347  19.331  28.271   6.453
 8155POPC   C2B41348  19.324  28.245   6.753
 8155POPC   C3B41349  19.324  28.230   7.053
 8155POPC   C4B41350  19.285  28.277   7.353
 8156POPC   NC341351   2.732  19.074   5.553
 8156POPC   PO441352   2.813  19.085   5.853
 8156POPC   GL141353   2.809  19.029   6.153
 8156POPC   GL241354   2.825  19.209   6.153
 8156POPC   C1A41355   2.752  19.033   6.453
 8156POPC   D2A41356   2.775  19.083   6.753
 8156POPC   C3A41357   2.787  19.082   7.053
 8156POPC   C4A41358   2.810  19.024   7.353
 8156POPC   C1B41359   2.782  19.279   6.453
 8156POPC   C2B41360   2.801  19.300   6.753
 8156POPC   C3B41361   2.789  19.326   7.053
 8156POPC   C4B41362   2.815  19.335   7.353
 8157POPC   NC341363  19.032  20.615   5.553
 8157POPC   PO441364  19.031  20.648   5.853
 8157POPC   GL141365  19.083  20.578   6.153
 8157POPC   GL241366  18.977  20.720   6.153
 8157POPC   C1A41367  19.015  20.620   6.453
 8157POPC   D2A41368  19.104  20.640   6.753
 8157POPC   C3A41369  19.030  20.645   7.053
 8157POPC   C4A41370  19.078  20.568   7.353
 8157POPC   C1B41371  18.876  20.850   6.453
 8157POPC   C2B41372  18.875  20.768   6.753
 8157POPC   C3B41373  18.893  20.765   7.053
 8157POPC   C4B41374  18.884  20.852   7.353
 8158POPC   NC341375  33.829  30.656   5.553
 8158POPC   PO441376  33.799  30.712   5.853
 8158POPC   GL141377  33.833  30.709   6.153
 8158POPC   GL241378  33.719  30.742   6.153
 8158POPC   C1A41379  33.832  30.734   6.453
 8158POPC   D2A41380  33.835  30.741   6.753
 8158POPC   C3A41381  33.759  30.685   7.053
 8158POPC   C4A41382  33.778  30.743   7.353
 8158POPC   C1B41383  33.572  30.750   6.453
 8158POPC   C2B41384  33.545  30.770   6.753
 8158POPC   C3B41385  33.600  30.799   7.053
 8158POPC   C4B41386  33.580  30.836   7.353
 8159POPC   NC341387  38.497   1.254   5.553
 8159POPC   PO441388  38.417   1.197   5.853
 8159POPC   GL141389  38.445   1.239   6.153
 8159POPC   GL241390  38.374   1.102   6.153
 8159POPC   C1A41391  38.458   1.222   6.453
 8159POPC   D2A41392  38.415   1.253   6.753
 8159POPC   C3A41393  38.504   1.222   7.053
 8159POPC   C4A41394  38.406   1.186   7.353
 8159POPC   C1B41395  38.419   0.994   6.453
 8159POPC   C2B41396  38.384   0.948   6.753
 8159POPC   C3B41397  38.331   0.991   7.053
 8159POPC   C4B41398  38.414   0.998   7.353
 8160POPC   NC341399  26.048  11.271   5.553
 8160POPC   PO441400  26.000  11.339   5.853
 8160POPC   GL141401  26.077  11.296   6.153
 8160POPC   GL241402  26.191  11.247   6.153
 8160POPC   C1A41403  26.033  11.290   6.453
 8160POPC   D2A41404  26.026  11.301   6.753
 8160POPC   C3A41405  26.073  11.253   7.053
 8160POPC   C4A41406  26.011  11.300   7.353
 8160POPC   C1B41407  26.263  11.213   6.453
 8160POPC   C2B41408  26.258  11.121   6.753
 8160POPC   C3B41409  26.225  11.215   7.053
 8160POPC   C4B41410  26.267  11.116   7.353
 8161POPC   NC341411   9.716  43.933   5.553
 8161POPC   PO441412   9.775  43.907   5.853
 8161POPC   GL141413   9.703  43.865   6.153
 8161POPC   GL241414   9.839  43.970   6.153
 8161POPC   C1A41415   9.749  43.893   6.453
 8161POPC   D2A41416   9.705  43.935   6.753
 8161POPC   C3A41417   9.731  43.900   7.053
 8161POPC   C4A41418   9.706  43.893   7.353
 8161POPC   C1B41419   9.802  44.108   6.453
 8161POPC   C2B41420   9.895  44.100   6.753
 8161POPC   C3B41421   9.826  44.156   7.053
 8161POPC   C4B41422   9.884  44.157   7.353
 8162POPC   NC341423  39.959  24.531   5.553
 8162POPC   PO441424  40.002  24.443   5.853
 8162POPC   GL141425  40.015  24.536   6.153
 8162POPC   GL241426  40.017  24.622   6.153
 8162POPC   C1A41427  40.037  24.468   6.453
 8162POPC   D2A41428  40.031  24.537   6.753
 8162POPC   C3A41429  39.985  24.514   7.053
 8162POPC   C4A41430  40.041  24.494   7.353
 8162POPC   C1B41431  39.957  24.719   6.453
 8162POPC   C2B41432  39.966  24.758   6.753
 8162POPC   C3B41433  39.925  24.732   7.053
 8162POPC   C4B41434  39.925  24.706   7.353
 8163POPC   NC341435  26.019  21.382   5.553
 8163POPC   PO441436  26.046  21.383   5.853
 8163POPC   GL141437  26.004  21.402   6.153
 8163POPC   GL241438  26.079  21.284   6.153
 8163POPC   C1A41439  25.992  21.398   6.453
 8163POPC   D2A41440  26.070  21.401   6.753
 8163POPC   C3A41441  26.063  21.397   7.053
 8163POPC   C4A41442  26.066  21.409   7.353
 8163POPC   C1B41443  26.068  21.112   6.453
 8163POPC   C2B41444  26.020  21.161   6.753
 8163POPC   C3B41445  26.047  21.123   7.053
 8163POPC   C4B41446  26.026  21.150   7.353
 8164POPC   NC341447  28.405  21.408   5.553
 8164POPC   PO441448  28.399  21.394   5.853
 8164POPC   GL141449  28.406  21.400   6.153
 8164POPC   GL241450  28.393  21.496   6.153
 8164POPC   C1A41451  28.325  21.399   6.453
 8164POPC   D2A41452  28.375  21.415   6.753
 8164POPC   C3A41453  28.369  21.413   7.053
 8164POPC   C4A41454  28.355  21.343   7.353
 8164POPC   C1B41455  28.463  21.629   6.453
 8164POPC   C2B41456  28.501  21.594   6.753
 8164POPC   C3B41457  28.438  21.635   7.053
 8164POPC   C4B41458  28.457  21.615   7.353
 8165POPC   NC341459  25.287  29.150   5.553
 8165POPC   PO441460  25.268  29.179   5.853
 8165POPC   GL141461  25.217  29.102   6.153
 8165POPC   GL241462  25.163  29.043   6.153
 8165POPC   C1A41463  25.223  29.170   6.453
 8165POPC   D2A41464  25.245  29.157   6.753
 8165POPC   C3A41465  25.315  29.128   7.053
 8165POPC   C4A41466  25.247  29.100   7.353
 8165POPC   C1B41467  25.049  29.017   6.453
 8165POPC   C2B41468  25.062  29.040   6.753
 8165POPC   C3B41469  25.035  29.035   7.053
 8165POPC   C4B41470  25.035  29.076   7.353
 8166POPC   NC341471  22.968  39.210   5.553
 8166POPC   PO441472  22.922  39.261   5.853
 8166POPC   GL141473  22.946  39.247   6.153
 8166POPC   GL241474  22.986  39.314   6.153
 8166POPC   C1A41475  22.942  39.257   6.453
 8166POPC   D2A41476  22.923  39.255   6.753
 8166POPC   C3A41477  22.907  39.253   7.053
 8166POPC   C4A41478  22.931  39.197   7.353
 8166POPC   C1B41479  23.095  39.413   6.453
 8166POPC   C2B41480  23.137  39.371   6.753
 8166POPC   C3B41481  23.146  39.383   7.053
 8166POPC   C4B41482  23.128  39.395   7.353
 8167POPC   NC341483  22.889  22.125   5.553
 8167POPC   PO441484  22.955  22.195   5.853
 8167POPC   GL141485  22.893  22.142   6.153
 8167POPC   GL241486  22.854  22.132   6.153
 8167POPC   C1A41487  22.983  22.116   6.453
 8167POPC   D2A41488  22.955  22.144   6.753
 8167POPC   C3A41489  22.917  22.146   7.053
 8167POPC   C4A41490  22.932  22.183   7.353
 8167POPC   C1B41491  22.703  22.150   6.453
 8167POPC   C2B41492  22.670  22.189   6.753
 8167POPC   C3B41493  22.679  22.228   7.053
 8167POPC   C4B41494  22.728  22.159   7.353
 8168POPC   NC341495  12.867  36.870   5.553
 8168POPC   PO441496  12.896  36.877   5.853
 8168POPC   GL141497  12.856  36.856   6.153
 8168POPC   GL241498  12.977  36.839   6.153
 8168POPC   C1A41499  12.876  36.857   6.453
 8168POPC   D2A41500  12.819  36.886   6.753
 8168POPC   C3A41501  12.889  36.872   7.053
 8168POPC   C4A41502  12.877  36.864   7.353
 8168POPC   C1B41503  13.062  36.745   6.453
 8168POPC   C2B41504  12.999  36.782   6.753
 8168POPC   C3B41505  13.007  36.710   7.053
 8168POPC   C4B41506  13.044  36.719   7.353
 8169POPC   NC341507   1.258  22.197   5.553
 8169POPC   PO441508   1.208  22.199   5.853
 8169POPC   GL141509   1.263  22.177   6.153
 8169POPC   GL241510   1.237  22.312   6.153
 8169POPC   C1A41511   1.192  22.139   6.453
 8169POPC   D2A41512   1.171  22.198   6.753
 8169POPC   C3A41513   1.199  22.195   7.053
 8169POPC   C4A41514   1.224  22.120   7.353
 8169POPC   C1B41515   1.360  22.396   6.453
 8169POPC   C2B41516   1.365  22.361   6.753
 8169POPC   C3B41517   1.353  22.396   7.053
 8169POPC   C4B41518   1.360  22.380   7.353
 8170POPC   NC341519  37.729   5.125   5.553
 8170POPC   PO441520  37.696   5.060   5.853
 8170POPC   GL141521  37.650   5.125   6.153
 8170POPC   GL241522  37.601   5.063   6.153
 8170POPC   C1A41523  37.694   5.131   6.453
 8170POPC   D2A41524  37.658   5.092   6.753
 8170POPC   C3A41525  37.650   5.044   7.053
 8170POPC   C4A41526  37.664   5.077   7.353
 8170POPC   C1B41527  37.395   5.048   6.453
 8170POPC   C2B41528  37.416   5.007   6.753
 8170POPC   C3B41529  37.472   5.052   7.053
 8170POPC   C4B41530  37.399   4.992   7.353
 8171POPC   NC341531   5.057  14.415   5.553
 8171POPC   PO441532   5.067  14.424   5.853
 8171POPC   GL141533   5.113  14.379   6.153
 8171POPC   GL241534   5.217  14.475   6.153
 8171POPC   C1A41535   5.107  14.371   6.453
 8171POPC   D2A41536   5.109  14.379   6.753
 8171POPC   C3A41537   5.044  14.426   7.053
 8171POPC   C4A41538   5.115  14.402   7.353
 8171POPC   C1B41539   5.300  14.561   6.453
 8171POPC   C2B41540   5.284  14.562   6.753
 8171POPC   C3B41541   5.324  14.536   7.053
 8171POPC   C4B41542   5.312  14.525   7.353
 8172POPC   NC341543  26.824   5.139   5.553
 8172POPC   PO441544  26.812   5.119   5.853
 8172POPC   GL141545  26.834   5.093   6.153
 8172POPC   GL241546  26.707   4.965   6.153
 8172POPC   C1A41547  26.865   5.118   6.453
 8172POPC   D2A41548  26.806   5.142   6.753
 8172POPC   C3A41549  26.825   5.100   7.053
 8172POPC   C4A41550  26.837   5.059   7.353
 8172POPC   C1B41551  26.678   4.847   6.453
 8172POPC   C2B41552  26.653   4.860   6.753
 8172POPC   C3B41553  26.666   4.917   7.053
 8172POPC   C4B41554  26.622   4.933   7.353
 8173POPC   NC341555  22.906  37.673   5.553
 8173POPC   PO441556  22.951  37.631   5.853
 8173POPC   GL141557  22.945  37.644   6.153
 8173POPC   GL241558  22.975  37.541   6.153
 8173POPC   C1A41559  22.951  37.673   6.453
 8173POPC   D2A41560  22.971  37.664   6.753
 8173POPC   C3A41561  22.929  37.674   7.053
 8173POPC   C4A41562  22.975  37.657   7.353
 8173POPC   C1B41563  23.046  37.446   6.453
 8173POPC   C2B41564  23.072  37.426   6.753
 8173POPC   C3B41565  23.038  37.431   7.053
 8173POPC   C4B41566  23.088  37.502   7.353
 8174POPC   NC341567  13.604  24.476   5.553
 8174POPC   PO441568  13.586  24.462   5.853
 8174POPC   GL141569  13.634  24.474   6.153
 8174POPC   GL241570  13.633  24.328   6.153
 8174POPC   C1A41571  13.596  24.538   6.453
 8174POPC   D2A41572  13.632  24.446   6.753
 8174POPC   C3A41573  13.596  24.522   7.053
 8174POPC   C4A41574  13.677  24.447   7.353
 8174POPC   C1B41575  13.553  24.218   6.453
 8174POPC   C2B41576  13.562  24.286   6.753
 8174POPC   C3B41577  13.572  24.226   7.053
 8174POPC   C4B41578  13.556  24.269   7.353
 8175POPC   NC341579  38.432  31.513   5.553
 8175POPC   PO441580  38.452  31.469   5.853
 8175POPC   GL141581  38.417  31.511   6.153
 8175POPC   GL241582  38.599  31.514   6.153
 8175POPC   C1A41583  38.425  31.464   6.453
 8175POPC   D2A41584  38.485  31.431   6.753
 8175POPC   C3A41585  38.462  31.500   7.053
 8175POPC   C4A41586  38.406  31.520   7.353
 8175POPC   C1B41587  38.649  31.665   6.453
 8175POPC   C2B41588  38.609  31.607   6.753
 8175POPC   C3B41589  38.623  31.671   7.053
 8175POPC   C4B41590  38.647  31.604   7.353
 8176POPC   NC341591  26.820  29.104   5.553
 8176POPC   PO441592  26.772  29.185   5.853
 8176POPC   GL141593  26.842  29.195   6.153
 8176POPC   GL241594  26.793  29.269   6.153
 8176POPC   C1A41595  26.827  29.112   6.453
 8176POPC   D2A41596  26.770  29.111   6.753
 8176POPC   C3A41597  26.819  29.152   7.053
 8176POPC   C4A41598  26.831  29.097   7.353
 8176POPC   C1B41599  26.792  29.356   6.453
 8176POPC   C2B41600  26.752  29.366   6.753
 8176POPC   C3B41601  26.736  29.421   7.053
 8176POPC   C4B41602  26.740  29.407   7.353
 8177POPC   NC341603  19.858  25.994   5.553
 8177POPC   PO441604  19.835  26.009   5.853
 8177POPC   GL141605  19.851  26.008   6.153
 8177POPC   GL241606  19.804  26.172   6.153
 8177POPC   C1A41607  19.822  26.002   6.453
 8177POPC   D2A41608  19.856  26.074   6.753
 8177POPC   C3A41609  19.805  26.071   7.053
 8177POPC   C4A41610  19.841  26.014   7.353
 8177POPC   C1B41611  19.685  26.219   6.453
 8177POPC   C2B41612  19.665  26.199   6.753
 8177POPC   C3B41613  19.722  26.266   7.053
 8177POPC   C4B41614  19.727  26.200   7.353
 8178POPC   NC341615   9.712   8.235   5.553
 8178POPC   PO441616   9.786   8.208   5.853
 8178POPC   GL141617   9.763   8.147   6.153
 8178POPC   GL241618   9.919   8.192   6.153
 8178POPC   C1A41619   9.744   8.170   6.453
 8178POPC   D2A41620   9.760   8.200   6.753
 8178POPC   C3A41621   9.708   8.239   7.053
 8178POPC   C4A41622   9.749   8.236   7.353
 8178POPC   C1B41623   9.989   8.269   6.453
 8178POPC   C2B41624   9.961   8.202   6.753
 8178POPC   C3B41625   9.957   8.210   7.053
 8178POPC   C4B41626   9.953   8.242   7.353
 8179POPC   NC341627  32.280  23.760   5.553
 8179POPC   PO441628  32.282  23.757   5.853
 8179POPC   GL141629  32.260  23.665   6.153
 8179POPC   GL241630  32.132  23.752   6.153
 8179POPC   C1A41631  32.258  23.750   6.453
 8179POPC   D2A41632  32.238  23.748   6.753
 8179POPC   C3A41633  32.294  23.721   7.053
 8179POPC   C4A41634  32.275  23.743   7.353
 8179POPC   C1B41635  32.071  23.808   6.453
 8179POPC   C2B41636  31.979  23.871   6.753
 8179POPC   C3B41637  31.997  23.801   7.053
 8179POPC   C4B41638  32.046  23.787   7.353
 8180POPC   NC341639  27.622  11.296   5.553
 8180POPC   PO441640  27.606  11.323   5.853
 8180POPC   GL141641  27.603  11.319   6.153
 8180POPC   GL241642  27.530  11.402   6.153
 8180POPC   C1A41643  27.575  11.289   6.453
 8180POPC   D2A41644  27.618  11.254   6.753
 8180POPC   C3A41645  27.572  11.343   7.053
 8180POPC   C4A41646  27.629  11.350   7.353
 8180POPC   C1B41647  27.421  11.525   6.453
 8180POPC   C2B41648  27.380  11.521   6.753
 8180POPC   C3B41649  27.402  11.484   7.053
 8180POPC   C4B41650  27.469  11.496   7.353
 8181POPC   NC341651  24.484  22.927   5.553
 8181POPC   PO441652  24.539  22.905   5.853
 8181POPC   GL141653  24.490  22.962   6.153
 8181POPC   GL241654  24.605  22.949   6.153
 8181POPC   C1A41655  24.506  22.933   6.453
 8181POPC   D2A41656  24.461  22.968   6.753
 8181POPC   C3A41657  24.525  22.974   7.053
 8181POPC   C4A41658  24.448  22.945   7.353
 8181POPC   C1B41659  24.694  22.934   6.453
 8181POPC   C2B41660  24.765  23.020   6.753
 8181POPC   C3B41661  24.703  22.975   7.053
 8181POPC   C4B41662  24.689  22.946   7.353
 8182POPC   NC341663   3.559   8.179   5.553
 8182POPC   PO441664   3.563   8.208   5.853
 8182POPC   GL141665   3.506   8.149   6.153
 8182POPC   GL241666   3.655   8.304   6.153
 8182POPC   C1A41667   3.501   8.209   6.453
 8182POPC   D2A41668   3.507   8.158   6.753
 8182POPC   C3A41669   3.540   8.187   7.053
 8182POPC   C4A41670   3.522   8.189   7.353
 8182POPC   C1B41671   3.769   8.322   6.453
 8182POPC   C2B41672   3.785   8.281   6.753
 8182POPC   C3B41673   3.799   8.312   7.053
 8182POPC   C4B41674   3.783   8.340   7.353
 8183POPC   NC341675  29.176   2.807   5.553
 8183POPC   PO441676  29.146   2.785   5.853
 8183POPC   GL141677  29.150   2.750   6.153
 8183POPC   GL241678  29.311   2.763   6.153
 8183POPC   C1A41679  29.128   2.812   6.453
 8183POPC   D2A41680  29.102   2.802   6.753
 8183POPC   C3A41681  29.193   2.751   7.053
 8183POPC   C4A41682  29.102   2.750   7.353
 8183POPC   C1B41683  29.366   2.847   6.453
 8183POPC   C2B41684  29.358   2.771   6.753
 8183POPC   C3B41685  29.437   2.824   7.053
 8183POPC   C4B41686  29.361   2.808   7.353
 8184POPC   NC341687  39.225   4.292   5.553
 8184POPC   PO441688  39.231   4.287   5.853
 8184POPC   GL141689  39.208   4.269   6.153
 8184POPC   GL241690  39.163   4.368   6.153
 8184POPC   C1A41691  39.234   4.353   6.453
 8184POPC   D2A41692  39.254   4.282   6.753
 8184POPC   C3A41693  39.221   4.347   7.053
 8184POPC   C4A41694  39.227   4.273   7.353
 8184POPC   C1B41695  39.031   4.492   6.453
 8184POPC   C2B41696  38.997   4.477   6.753
 8184POPC   C3B41697  38.992   4.463   7.053
 8184POPC   C4B41698  39.058   4.464   7.353
 8185POPC   NC341699  26.031  17.529   5.553
 8185POPC   PO441700  26.084  17.521   5.853
 8185POPC   GL141701  26.046  17.459   6.153
 8185POPC   GL241702  26.007  17.415   6.153
 8185POPC   C1A41703  26.051  17.466   6.453
 8185POPC   D2A41704  26.071  17.542   6.753
 8185POPC   C3A41705  26.056  17.553   7.053
 8185POPC   C4A41706  26.033  17.545   7.353
 8185POPC   C1B41707  25.933  17.325   6.453
 8185POPC   C2B41708  25.918  17.295   6.753
 8185POPC   C3B41709  25.885  17.295   7.053
 8185POPC   C4B41710  25.959  17.243   7.353
 8186POPC   NC341711  35.383  19.791   5.553
 8186POPC   PO441712  35.335  19.872   5.853
 8186POPC   GL141713  35.363  19.845   6.153
 8186POPC   GL241714  35.250  19.965   6.153
 8186POPC   C1A41715  35.385  19.839   6.453
 8186POPC   D2A41716  35.312  19.856   6.753
 8186POPC   C3A41717  35.380  19.830   7.053
 8186POPC   C4A41718  35.339  19.818   7.353
 8186POPC   C1B41719  35.255  20.027   6.453
 8186POPC   C2B41720  35.271  20.049   6.753
 8186POPC   C3B41721  35.286  20.088   7.053
 8186POPC   C4B41722  35.204  20.027   7.353
 8187POPC   NC341723   9.737  28.412   5.553
 8187POPC   PO441724   9.777  28.419   5.853
 8187POPC   GL141725   9.766  28.412   6.153
 8187POPC   GL241726   9.725  28.281   6.153
 8187POPC   C1A41727   9.774  28.417   6.453
 8187POPC   D2A41728   9.743  28.380   6.753
 8187POPC   C3A41729   9.715  28.357   7.053
 8187POPC   C4A41730   9.783  28.325   7.353
 8187POPC   C1B41731   9.593  28.117   6.453
 8187POPC   C2B41732   9.624  28.165   6.753
 8187POPC   C3B41733   9.617  28.174   7.053
 8187POPC   C4B41734   9.578  28.177   7.353
 8188POPC   NC341735  26.082  38.504   5.553
 8188POPC   PO441736  26.053  38.430   5.853
 8188POPC   GL141737  26.005  38.406   6.153
 8188POPC   GL241738  26.130  38.352   6.153
 8188POPC   C1A41739  26.039  38.474   6.453
 8188POPC   D2A41740  26.082  38.451   6.753
 8188POPC   C3A41741  26.064  38.457   7.053
 8188POPC   C4A41742  26.044  38.478   7.353
 8188POPC   C1B41743  26.187  38.241   6.453
 8188POPC   C2B41744  26.232  38.299   6.753
 8188POPC   C3B41745  26.181  38.254   7.053
 8188POPC   C4B41746  26.225  38.295   7.353
 8189POPC   NC341747  12.098  39.999   5.553
 8189POPC   PO441748  12.072  39.988   5.853
 8189POPC   GL141749  12.071  40.033   6.153
 8189POPC   GL241750  11.982  39.941   6.153
 8189POPC   C1A41751  12.091  40.013   6.453
 8189POPC   D2A41752  12.117  39.991   6.753
 8189POPC   C3A41753  12.075  39.997   7.053
 8189POPC   C4A41754  12.112  40.040   7.353
 8189POPC   C1B41755  11.843  39.974   6.453
 8189POPC   C2B41756  11.850  39.965   6.753
 8189POPC   C3B41757  11.839  39.998   7.053
 8189POPC   C4B41758  11.843  39.933   7.353
 8190POPC   NC341759  13.599  39.237   5.553
 8190POPC   PO441760  13.662  39.212   5.853
 8190POPC   GL141761  13.594  39.227   6.153
 8190POPC   GL241762  13.674  39.323   6.153
 8190POPC   C1A41763  13.639  39.255   6.453
 8190POPC   D2A41764  13.603  39.240   6.753
 8190POPC   C3A41765  13.676  39.239   7.053
 8190POPC   C4A41766  13.646  39.184   7.353
 8190POPC   C1B41767  13.572  39.474   6.453
 8190POPC   C2B41768  13.574  39.475   6.753
 8190POPC   C3B41769  13.601  39.466   7.053
 8190POPC   C4B41770  13.588  39.440   7.353
 8191POPC   NC341771  42.303  39.972   5.553
 8191POPC   PO441772  42.310  40.028   5.853
 8191POPC   GL141773  42.384  39.969   6.153
 8191POPC   GL241774  42.300  39.888   6.153
 8191POPC   C1A41775  42.301  40.045   6.453
 8191POPC   D2A41776  42.383  40.024   6.753
 8191POPC   C3A41777  42.346  39.963   7.053
 8191POPC   C4A41778  42.312  40.011   7.353
 8191POPC   C1B41779  42.257  39.825   6.453
 8191POPC   C2B41780  42.283  39.817   6.753
 8191POPC   C3B41781  42.208  39.745   7.053
 8191POPC   C4B41782  42.279  39.760   7.353
 8192POPC   NC341783  23.754  28.414   5.553
 8192POPC   PO441784  23.701  28.412   5.853
 8192POPC   GL141785  23.721  28.395   6.153
 8192POPC   GL241786  23.649  28.402   6.153
 8192POPC   C1A41787  23.758  28.375   6.453
 8192POPC   D2A41788  23.731  28.413   6.753
 8192POPC   C3A41789  23.734  28.349   7.053
 8192POPC   C4A41790  23.739  28.326   7.353
 8192POPC   C1B41791  23.490  28.462   6.453
 8192POPC   C2B41792  23.492  28.495   6.753
 8192POPC   C3B41793  23.541  28.498   7.053
 8192POPC   C4B41794  23.541  28.548   7.353
 8193POPC   NC341795   8.153   5.864   5.553
 8193POPC   PO441796   8.152   5.862   5.853
 8193POPC   GL141797   8.200   5.918   6.153
 8193POPC   GL241798   8.103   6.002   6.153
 8193POPC   C1A41799   8.176   5.864   6.453
 8193POPC   D2A41800   8.241   5.846   6.753
 8193POPC   C3A41801   8.160   5.880   7.053
 8193POPC   C4A41802   8.179   5.838   7.353
 8193POPC   C1B41803   8.016   6.072   6.453
 8193POPC   C2B41804   8.027   6.025   6.753
 8193POPC   C3B41805   7.990   6.019   7.053
 8193POPC   C4B41806   7.995   5.993   7.353
 8194POPC   NC341807  11.251  33.784   5.553
 8194POPC   PO441808  11.308  33.764   5.853
 8194POPC   GL141809  11.336  33.830   6.153
 8194POPC   GL241810  11.339  33.883   6.153
 8194POPC   C1A41811  11.321  33.848   6.453
 8194POPC   D2A41812  11.295  33.755   6.753
 8194POPC   C3A41813  11.301  33.839   7.053
 8194POPC   C4A41814  11.260  33.788   7.353
 8194POPC   C1B41815  11.269  34.084   6.453
 8194POPC   C2B41816  11.273  34.024   6.753
 8194POPC   C3B41817  11.234  34.006   7.053
 8194POPC   C4B41818  11.321  34.096   7.353
 8195POPC   NC341819  33.760   9.790   5.553
 8195POPC   PO441820  33.794   9.726   5.853
 8195POPC   GL141821  33.769   9.756   6.153
 8195POPC   GL241822  33.876   9.652   6.153
 8195POPC   C1A41823  33.806   9.769   6.453
 8195POPC   D2A41824  33.846   9.719   6.753
 8195POPC   C3A41825  33.838   9.780   7.053
 8195POPC   C4A41826  33.810   9.781   7.353
 8195POPC   C1B41827  33.919   9.527   6.453
 8195POPC   C2B41828  33.892   9.582   6.753
 8195POPC   C3B41829  33.951   9.528   7.053
 8195POPC   C4B41830  33.896   9.568   7.353
 8196POPC   NC341831  28.400  43.112   5.553
 8196POPC   PO441832  28.370  43.073   5.853
 8196POPC   GL141833  28.415  43.081   6.153
 8196POPC   GL241834  28.277  43.042   6.153
 8196POPC   C1A41835  28.371  43.124   6.453
 8196POPC   D2A41836  28.333  43.114   6.753
 8196POPC   C3A41837  28.368  43.154   7.053
 8196POPC   C4A41838  28.328  43.096   7.353
 8196POPC   C1B41839  28.196  43.027   6.453
 8196POPC   C2B41840  28.197  42.953   6.753
 8196POPC   C3B41841  28.140  42.964   7.053
 8196POPC   C4B41842  28.131  43.005   7.353
 8197POPC   NC341843  21.432  36.915   5.553
 8197POPC   PO441844  21.424  36.865   5.853
 8197POPC   GL141845  21.421  36.937   6.153
 8197POPC   GL241846  21.499  36.851   6.153
 8197POPC   C1A41847  21.376  36.949   6.453
 8197POPC   D2A41848  21.341  36.874   6.753
 8197POPC   C3A41849  21.337  36.881   7.053
 8197POPC   C4A41850  21.396  36.885   7.353
 8197POPC   C1B41851  21.675  36.908   6.453
 8197POPC   C2B41852  21.629  36.863   6.753
 8197POPC   C3B41853  21.676  36.850   7.053
 8197POPC   C4B41854  21.626  36.816   7.353
 8198POPC   NC341855  42.345   4.313   5.553
 8198POPC   PO441856  42.361   4.327   5.853
 8198POPC   GL141857  42.351   4.330   6.153
 8198POPC   GL241858  42.190   4.425   6.153
 8198POPC   C1A41859  42.348   4.300   6.453
 8198POPC   D2A41860  42.382   4.330   6.753
 8198POPC   C3A41861  42.316   4.341   7.053
 8198POPC   C4A41862  42.321   4.298   7.353
 8198POPC   C1B41863  42.157   4.438   6.453
 8198POPC   C2B41864  42.181   4.462   6.753
 8198POPC   C3B41865  42.129   4.485   7.053
 8198POPC   C4B41866  42.145   4.425   7.353
 8199POPC   NC341867  10.562  34.614   5.553
 8199POPC   PO441868  10.475  34.551   5.853
 8199POPC   GL141869  10.563  34.595   6.153
 8199POPC   GL241870  10.418  34.514   6.153
 8199POPC   C1A41871  10.556  34.557   6.453
 8199POPC   D2A41872  10.526  34.547   6.753
 8199POPC   C3A41873  10.482  34.614   7.053
 8199POPC   C4A41874  10.574  34.599   7.353
 8199POPC   C1B41875  10.350  34.373   6.453
 8199POPC   C2B41876  10.376  34.410   6.753
 8199POPC   C3B41877  10.336  34.375   7.053
 8199POPC   C4B41878  10.321  34.398   7.353
 8200POPC   NC341879  24.458  39.278   5.553
 8200POPC   PO441880  24.536  39.276   5.853
 8200POPC   GL141881  24.525  39.203   6.153
 8200POPC   GL241882  24.338  39.261   6.153
 8200POPC   C1A41883  24.506  39.249   6.453
 8200POPC   D2A41884  24.480  39.210   6.753
 8200POPC   C3A41885  24.482  39.183   7.053
 8200POPC   C4A41886  24.522  39.267   7.353
 8200POPC   C1B41887  24.231  39.313   6.453
 8200POPC   C2B41888  24.278  39.398   6.753
 8200POPC   C3B41889  24.300  39.361   7.053
 8200POPC   C4B41890  24.262  39.334   7.353
 8201POPC   NC341891  15.981  41.572   5.553
 8201POPC   PO441892  15.997  41.596   5.853
 8201POPC   GL141893  15.980  41.532   6.153
 8201POPC   GL241894  16.057  41.475   6.153
 8201POPC   C1A41895  15.926  41.564   6.453
 8201POPC   D2A41896  15.999  41.563   6.753
 8201POPC   C3A41897  15.936  41.515   7.053
 8201POPC   C4A41898  15.927  41.565   7.353
 8201POPC   C1B41899  16.100  41.304   6.453
 8201POPC   C2B41900  16.051  41.332   6.753
 8201POPC   C3B41901  16.055  41.320   7.053
 8201POPC   C4B41902  16.085  41.329   7.353
 8202POPC   NC341903  36.928  23.753   5.553
 8202POPC   PO441904  36.886  23.685   5.853
 8202POPC   GL141905  36.920  23.690   6.153
 8202POPC   GL241906  36.839  23.633   6.153
 8202POPC   C1A41907  36.904  23.728   6.453
 8202POPC   D2A41908  36.939  23.716   6.753
 8202POPC   C3A41909  36.860  23.673   7.053
 8202POPC   C4A41910  36.916  23.666   7.353
 8202POPC   C1B41911  36.686  23.622   6.453
 8202POPC   C2B41912  36.699  23.610   6.753
 8202POPC   C3B41913  36.633  23.577   7.053
 8202POPC   C4B41914  36.688  23.624   7.353
 8203POPC   NC341915  22.166  19.087   5.553
 8203POPC   PO441916  22.126  19.041   5.853
 8203POPC   GL141917  22.150  19.095   6.153
 8203POPC   GL241918  22.314  19.009   6.153
 8203POPC   C1A41919  22.211  19.075   6.453
 8203POPC   D2A41920  22.174  19.058   6.753
 8203POPC   C3A41921  22.173  19.080   7.053
 8203POPC   C4A41922  22.173  19.087   7.353
 8203POPC   C1B41923  22.450  18.997   6.453
 8203POPC   C2B41924  22.436  19.038   6.753
 8203POPC   C3B41925  22.366  19.056   7.053
 8203POPC   C4B41926  22.394  18.983   7.353
 8204POPC   NC341927   4.298  12.061   5.553
 8204POPC   PO441928   4.360  12.048   5.853
 8204POPC   GL141929   4.337  12.097   6.153
 8204POPC   GL241930   4.430  12.175   6.153
 8204POPC   C1A41931   4.316  12.100   6.453
 8204POPC   D2A41932   4.290  12.107   6.753
 8204POPC   C3A41933   4.311  12.087   7.053
 8204POPC   C4A41934   4.280  12.078   7.353
 8204POPC   C1B41935   4.503  12.192   6.453
 8204POPC   C2B41936   4.500  12.224   6.753
 8204POPC   C3B41937   4.487  12.201   7.053
 8204POPC   C4B41938   4.466  12.262   7.353
 8205POPC   NC341939  26.837  22.894   5.553
 8205POPC   PO441940  26.850  22.897   5.853
 8205POPC   GL141941  26.838  22.974   6.153
 8205POPC   GL241942  26.654  22.912   6.153
 8205POPC   C1A41943  26.776  22.963   6.453
 8205POPC   D2A41944  26.807  22.915   6.753
 8205POPC   C3A41945  26.854  22.944   7.053
 8205POPC   C4A41946  26.812  22.942   7.353
 8205POPC   C1B41947  26.565  22.896   6.453
 8205POPC   C2B41948  26.556  22.891   6.753
 8205POPC   C3B41949  26.567  22.880   7.053
 8205POPC   C4B41950  26.579  22.876   7.353
 8206POPC   NC341951  12.882   6.687   5.553
 8206POPC   PO441952  12.836   6.611   5.853
 8206POPC   GL141953  12.878   6.647   6.153
 8206POPC   GL241954  12.943   6.640   6.153
 8206POPC   C1A41955  12.898   6.652   6.453
 8206POPC   D2A41956  12.865   6.613   6.753
 8206POPC   C3A41957  12.899   6.659   7.053
 8206POPC   C4A41958  12.806   6.627   7.353
 8206POPC   C1B41959  13.078   6.746   6.453
 8206POPC   C2B41960  13.109   6.715   6.753
 8206POPC   C3B41961  13.054   6.722   7.053
 8206POPC   C4B41962  13.058   6.725   7.353
 8207POPC   NC341963   9.716  34.612   5.553
 8207POPC   PO441964   9.737  34.585   5.853
 8207POPC   GL141965   9.723  34.545   6.153
 8207POPC   GL241966   9.768  34.421   6.153
 8207POPC   C1A41967   9.751  34.540   6.453
 8207POPC   D2A41968   9.777  34.587   6.753
 8207POPC   C3A41969   9.796  34.569   7.053
 8207POPC   C4A41970   9.746  34.587   7.353
 8207POPC   C1B41971   9.659  34.292   6.453
 8207POPC   C2B41972   9.680  34.298   6.753
 8207POPC   C3B41973   9.659  34.289   7.053
 8207POPC   C4B41974   9.736  34.352   7.353
 8208POPC   NC341975  12.029  29.135   5.553
 8208POPC   PO441976  12.103  29.129   5.853
 8208POPC   GL141977  12.092  29.175   6.153
 8208POPC   GL241978  12.019  29.062   6.153
 8208POPC   C1A41979  12.092  29.158   6.453
 8208POPC   D2A41980  12.074  29.122   6.753
 8208POPC   C3A41981  12.110  29.105   7.053
 8208POPC   C4A41982  12.057  29.147   7.353
 8208POPC   C1B41983  12.013  28.924   6.453
 8208POPC   C2B41984  12.006  28.952   6.753
 8208POPC   C3B41985  11.927  28.961   7.053
 8208POPC   C4B41986  12.005  28.956   7.353
 8209POPC   NC341987   0.401   2.723   5.553
 8209POPC   PO441988   0.483   2.784   5.853
 8209POPC   GL141989   0.444   2.734   6.153
 8209POPC   GL241990   0.532   2.823   6.153
 8209POPC   C1A41991   0.457   2.745   6.453
 8209POPC   D2A41992   0.464   2.746   6.753
 8209POPC   C3A41993   0.475   2.732   7.053
 8209POPC   C4A41994   0.453   2.724   7.353
 8209POPC   C1B41995   0.568   2.989   6.453
 8209POPC   C2B41996   0.627   2.923   6.753
 8209POPC   C3B41997   0.582   2.933   7.053
 8209POPC   C4B41998   0.599   2.975   7.353
 8210POPC   NC341999  15.183  38.476   5.553
 8210POPC   PO442000  15.196  38.429   5.853
 8210POPC   GL142001  15.204  38.444   6.153
 8210POPC   GL242002  15.154  38.597   6.153
 8210POPC   C1A42003  15.176  38.493   6.453
 8210POPC   D2A42004  15.141  38.441   6.753
 8210POPC   C3A42005  15.141  38.426   7.053
 8210POPC   C4A42006  15.145  38.482   7.353
 8210POPC   C1B42007  15.114  38.732   6.453
 8210POPC   C2B42008  15.151  38.687   6.753
 8210POPC   C3B42009  15.174  38.673   7.053
 8210POPC   C4B42010  15.100  38.699   7.353
 8211POPC   NC342011  17.475  26.806   5.553
 8211POPC   PO442012  17.478  26.829   5.853
 8211POPC   GL142013  17.485  26.811   6.153
 8211POPC   GL242014  17.358  26.833   6.153
 8211POPC   C1A42015  17.462  26.792   6.453
 8211POPC   D2A42016  17.474  26.780   6.753
 8211POPC   C3A42017  17.544  26.866   7.053
 8211POPC   C4A42018  17.497  26.839   7.353
 8211POPC   C1B42019  17.216  26.739   6.453
 8211POPC   C2B42020  17.231  26.744   6.753
 8211POPC   C3B42021  17.239  26.777   7.053
 8211POPC   C4B42022  17.253  26.798   7.353
 8212POPC   NC342023  23.670  40.782   5.553
 8212POPC   PO442024  23.693  40.776   5.853
 8212POPC   GL142025  23.675  40.826   6.153
 8212POPC   GL242026  23.634  40.824   6.153
 8212POPC   C1A42027  23.727  40.735   6.453
 8212POPC   D2A42028  23.688  40.780   6.753
 8212POPC   C3A42029  23.736  40.787   7.053
 8212POPC   C4A42030  23.739  40.756   7.353
 8212POPC   C1B42031  23.489  40.763   6.453
 8212POPC   C2B42032  23.469  40.754   6.753
 8212POPC   C3B42033  23.464  40.808   7.053
 8212POPC   C4B42034  23.439  40.814   7.353
 8213POPC   NC342035  44.664  10.476   5.553
 8213POPC   PO442036  44.673  10.540   5.853
 8213POPC   GL142037  44.701  10.527   6.153
 8213POPC   GL242038  44.662  10.361   6.153
 8213POPC   C1A42039  44.642  10.507   6.453
 8213POPC   D2A42040  44.709  10.526   6.753
 8213POPC   C3A42041  44.624  10.513   7.053
 8213POPC   C4A42042  44.621  10.521   7.353
 8213POPC   C1B42043  44.690  10.289   6.453
 8213POPC   C2B42044  44.680  10.227   6.753
 8213POPC   C3B42045  44.712  10.272   7.053
 8213POPC   C4B42046  44.665  10.308   7.353
 8214POPC   NC342047  41.539  37.642   5.553
 8214POPC   PO442048  41.521  37.721   5.853
 8214POPC   GL142049  41.569  37.660   6.153
 8214POPC   GL242050  41.684  37.733   6.153
 8214POPC   C1A42051  41.534  37.650   6.453
 8214POPC   D2A42052  41.580  37.661   6.753
 8214POPC   C3A42053  41.538  37.724   7.053
 8214POPC   C4A42054  41.604  37.688   7.353
 8214POPC   C1B42055  41.744  37.819   6.453
 8214POPC   C2B42056  41.760  37.801   6.753
 8214POPC   C3B42057  41.743  37.795   7.053
 8214POPC   C4B42058  41.804  37.779   7.353
 8215POPC   NC342059  12.892  31.460   5.553
 8215POPC   PO442060  12.830  31.480   5.853
 8215POPC   GL142061  12.821  31.499   6.153
 8215POPC   GL242062  12.758  31.491   6.153
 8215POPC   C1A42063  12.873  31.459   6.453
 8215POPC   D2A42064  12.817  31.475   6.753
 8215POPC   C3A42065  12.806  31.434   7.053
 8215POPC   C4A42066  12.840  31.442   7.353
 8215POPC   C1B42067  12.598  31.528   6.453
 8215POPC   C2B42068  12.655  31.579   6.753
 8215POPC   C3B42069  12.646  31.550   7.053
 8215POPC   C4B42070  12.587  31.586   7.353
 8216POPC   NC342071  44.625  24.477   5.553
 8216POPC   PO442072  44.710  24.494   5.853
 8216POPC   GL142073  44.622  24.524   6.153
 8216POPC   GL242074  44.775  24.402   6.153
 8216POPC   C1A42075  44.663  24.457   6.453
 8216POPC   D2A42076  44.640  24.506   6.753
 8216POPC   C3A42077  44.666  24.527   7.053
 8216POPC   C4A42078  44.612  24.530   7.353
 8216POPC   C1B42079  44.796  24.311   6.453
 8216POPC   C2B42080  44.874  24.312   6.753
 8216POPC   C3B42081  44.875  24.355   7.053
 8216POPC   C4B42082  44.805  24.301   7.353
 8217POPC   NC342083  32.274   9.763   5.553
 8217POPC   PO442084  32.291   9.718   5.853
 8217POPC   GL142085  32.279   9.708   6.153
 8217POPC   GL242086  32.208   9.850   6.153
 8217POPC   C1A42087  32.230   9.767   6.453
 8217POPC   D2A42088  32.273   9.775   6.753
 8217POPC   C3A42089  32.225   9.776   7.053
 8217POPC   C4A42090  32.221   9.738   7.353
 8217POPC   C1B42091  32.240  10.037   6.453
 8217POPC   C2B42092  32.255   9.966   6.753
 8217POPC   C3B42093  32.256  10.003   7.053
 8217POPC   C4B42094  32.190   9.950   7.353
 8218POPC   NC342095  29.153  38.476   5.553
 8218POPC   PO442096  29.122  38.491   5.853
 8218POPC   GL142097  29.192  38.409   6.153
 8218POPC   GL242098  29.253  38.504   6.153
 8218POPC   C1A42099  29.155  38.447   6.453
 8218POPC   D2A42100  29.186  38.502   6.753
 8218POPC   C3A42101  29.155  38.441   7.053
 8218POPC   C4A42102  29.172  38.421   7.353
 8218POPC   C1B42103  29.425  38.582   6.453
 8218POPC   C2B42104  29.414  38.574   6.753
 8218POPC   C3B42105  29.424  38.524   7.053
 8218POPC   C4B42106  29.387  38.544   7.353
 8219POPC   NC342107   5.840  11.338   5.553
 8219POPC   PO442108   5.886  11.285   5.853
 8219POPC   GL142109   5.843  11.345   6.153
 8219POPC   GL242110   5.771  11.211   6.153
 8219POPC   C1A42111   5.855  11.291   6.453
 8219POPC   D2A42112   5.901  11.329   6.753
 8219POPC   C3A42113   5.863  11.297   7.053
 8219POPC   C4A42114   5.906  11.318   7.353
 8219POPC   C1B42115   5.743  11.148   6.453
 8219POPC   C2B42116   5.718  11.154   6.753
 8219POPC   C3B42117   5.661  11.136   7.053
 8219POPC   C4B42118   5.660  11.126   7.353
 8220POPC   NC342119  29.890  29.153   5.553
 8220POPC   PO442120  29.909  29.108   5.853
 8220POPC   GL142121  29.871  29.158   6.153
 8220POPC   GL242122  29.977  29.067   6.153
 8220POPC   C1A42123  29.934  29.136   6.453
 8220POPC   D2A42124  29.950  29.183   6.753
 8220POPC   C3A42125  29.962  29.122   7.053
 8220POPC   C4A42126  29.910  29.117   7.353
 8220POPC   C1B42127  29.933  28.853   6.453
 8220POPC   C2B42128  29.962  28.895   6.753
 8220POPC   C3B42129  30.010  28.877   7.053
 8220POPC   C4B42130  29.997  28.920   7.353
 8221POPC   NC342131  15.162  41.549   5.553
 8221POPC   PO442132  15.203  41.608   5.853
 8221POPC   GL142133  15.159  41.551   6.153
 8221POPC   GL242134  15.103  41.431   6.153
 8221POPC   C1A42135  15.184  41.511   6.453
 8221POPC   D2A42136  15.167  41.597   6.753
 8221POPC   C3A42137  15.185  41.594   7.053
 8221POPC   C4A42138  15.169  41.597   7.353
 8221POPC   C1B42139  15.096  41.330   6.453
 8221POPC   C2B42140  15.101  41.325   6.753
 8221POPC   C3B42141  15.100  41.297   7.053
 8221POPC   C4B42142  15.156  41.358   7.353
 8222POPC   NC342143  28.365  28.375   5.553
 8222POPC   PO442144  28.393  28.367   5.853
 8222POPC   GL142145  28.342  28.338   6.153
 8222POPC   GL242146  28.419  28.284   6.153
 8222POPC   C1A42147  28.408  28.380   6.453
 8222POPC   D2A42148  28.416  28.344   6.753
 8222POPC   C3A42149  28.347  28.411   7.053
 8222POPC   C4A42150  28.369  28.336   7.353
 8222POPC   C1B42151  28.532  28.197   6.453
 8222POPC   C2B42152  28.544  28.214   6.753
 8222POPC   C3B42153  28.559  28.142   7.053
 8222POPC   C4B42154  28.520  28.166   7.353
 8223POPC   NC342155  15.169   5.100   5.553
 8223POPC   PO442156  15.186   5.060   5.853
 8223POPC   GL142157  15.157   5.128   6.153
 8223POPC   GL242158  15.150   5.008   6.153
 8223POPC   C1A42159  15.155   5.048   6.453
 8223POPC   D2A42160  15.164   5.138   6.753
 8223POPC   C3A42161  15.179   5.074   7.053
 8223POPC   C4A42162  15.129   5.141   7.353
 8223POPC   C1B42163  15.139   4.867   6.453
 8223POPC   C2B42164  15.088   4.868   6.753
 8223POPC   C3B42165  15.089   4.855   7.053
 8223POPC   C4B42166  15.139   4.824   7.353
 8224POPC   NC342167  33.832  29.101   5.553
 8224POPC   PO442168  33.781  29.191   5.853
 8224POPC   GL142169  33.834  29.132   6.153
 8224POPC   GL242170  33.644  29.202   6.153
 8224POPC   C1A42171  33.826  29.144   6.453
 8224POPC   D2A42172  33.832  29.147   6.753
 8224POPC   C3A42173  33.804  29.139   7.053
 8224POPC   C4A42174  33.835  29.163   7.353
 8224POPC   C1B42175  33.573  29.192   6.453
 8224POPC   C2B42176  33.583  29.164   6.753
 8224POPC   C3B42177  33.588  29.179   7.053
 8224POPC   C4B42178  33.601  29.174   7.353
 8225POPC   NC342179  44.683  28.368   5.553
 8225POPC   PO442180  44.695  28.349   5.853
 8225POPC   GL142181  44.696  28.404   6.153
 8225POPC   GL242182  44.523  28.406   6.153
 8225POPC   C1A42183  44.665  28.364   6.453
 8225POPC   D2A42184  44.678  28.352   6.753
 8225POPC   C3A42185  44.628  28.409   7.053
 8225POPC   C4A42186  44.686  28.380   7.353
 8225POPC   C1B42187  44.394  28.406   6.453
 8225POPC   C2B42188  44.412  28.420   6.753
 8225POPC   C3B42189  44.445  28.479   7.053
 8225POPC   C4B42190  44.420  28.450   7.353
 8226POPC   NC342191  15.917  26.850   5.553
 8226POPC   PO442192  15.925  26.791   5.853
 8226POPC   GL142193  15.915  26.778   6.153
 8226POPC   GL242194  15.815  26.791   6.153
 8226POPC   C1A42195  15.916  26.841   6.453
 8226POPC   D2A42196  15.956  26.827   6.753
 8226POPC   C3A42197  15.970  26.855   7.053
 8226POPC   C4A42198  15.929  26.811   7.353
 8226POPC   C1B42199  15.716  26.806   6.453
 8226POPC   C2B42200  15.692  26.806   6.753
 8226POPC   C3B42201  15.751  26.832   7.053
 8226POPC   C4B42202  15.667  26.827   7.353
 8227POPC   NC342203  40.807   5.875   5.553
 8227POPC   PO442204  40.821   5.899   5.853
 8227POPC   GL142205  40.749   5.901   6.153
 8227POPC   GL242206  40.752   5.806   6.153
 8227POPC   C1A42207  40.816   5.823   6.453
 8227POPC   D2A42208  40.740   5.883   6.753
 8227POPC   C3A42209  40.766   5.907   7.053
 8227POPC   C4A42210  40.775   5.867   7.353
 8227POPC   C1B42211  40.623   5.656   6.453
 8227POPC   C2B42212  40.660   5.615   6.753
 8227POPC   C3B42213  40.685   5.604   7.053
 8227POPC   C4B42214  40.695   5.658   7.353
 8228POPC   NC342215  38.413   2.774   5.553
 8228POPC   PO442216  38.423   2.762   5.853
 8228POPC   GL142217  38.413   2.721   6.153
 8228POPC   GL242218  38.457   2.927   6.153
 8228POPC   C1A42219  38.476   2.778   6.453
 8228POPC   D2A42220  38.493   2.729   6.753
 8228POPC   C3A42221  38.499   2.797   7.053
 8228POPC   C4A42222  38.463   2.764   7.353
 8228POPC   C1B42223  38.603   2.972   6.453
 8228POPC   C2B42224  38.526   3.019   6.753
 8228POPC   C3B42225  38.536   2.992   7.053
 8228POPC   C4B42226  38.537   2.978   7.353
 8229POPC   NC342227  12.041  35.308   5.553
 8229POPC   PO442228  12.071  35.394   5.853
 8229POPC   GL142229  12.043  35.379   6.153
 8229POPC   GL242230  12.020  35.476   6.153
 8229POPC   C1A42231  12.119  35.382   6.453
 8229POPC   D2A42232  12.084  35.346   6.753
 8229POPC   C3A42233  12.113  35.345   7.053
 8229POPC   C4A42234  12.042  35.302   7.353
 8229POPC   C1B42235  12.074  35.624   6.453
 8229POPC   C2B42236  12.067  35.593   6.753
 8229POPC   C3B42237  12.039  35.588   7.053
 8229POPC   C4B42238  12.057  35.594   7.353
 8230POPC   NC342239  42.321  29.927   5.553
 8230POPC   PO442240  42.323  29.931   5.853
 8230POPC   GL142241  42.326  29.958   6.153
 8230POPC   GL242242  42.382  29.841   6.153
 8230POPC   C1A42243  42.370  29.909   6.453
 8230POPC   D2A42244  42.309  29.922   6.753
 8230POPC   C3A42245  42.366  29.923   7.053
 8230POPC   C4A42246  42.297  29.969   7.353
 8230POPC   C1B42247  42.332  29.710   6.453
 8230POPC   C2B42248  42.360  29.719   6.753
 8230POPC   C3B42249  42.359  29.670   7.053
 8230POPC   C4B42250  42.330  29.715   7.353
 8231POPC   NC342251  40.795  38.502   5.553
 8231POPC   PO442252  40.769  38.457   5.853
 8231POPC   GL142253  40.781  38.448   6.153
 8231POPC   GL242254  40.681  38.494   6.153
 8231POPC   C1A42255  40.761  38.452   6.453
 8231POPC   D2A42256  40.768  38.467   6.753
 8231POPC   C3A42257  40.752  38.429   7.053
 8231POPC   C4A42258  40.783  38.412   7.353
 8231POPC   C1B42259  40.604  38.661   6.453
 8231POPC   C2B42260  40.586  38.644   6.753
 8231POPC   C3B42261  40.591  38.625   7.053
 8231POPC   C4B42262  40.610  38.578   7.353
 8232POPC   NC342263  22.930  18.252   5.553
 8232POPC   PO442264  22.917  18.239   5.853
 8232POPC   GL142265  22.957  18.263   6.153
 8232POPC   GL242266  22.975  18.393   6.153
 8232POPC   C1A42267  22.968  18.244   6.453
 8232POPC   D2A42268  22.896  18.305   6.753
 8232POPC   C3A42269  22.912  18.309   7.053
 8232POPC   C4A42270  22.948  18.332   7.353
 8232POPC   C1B42271  23.003  18.569   6.453
 8232POPC   C2B42272  22.936  18.493   6.753
 8232POPC   C3B42273  22.982  18.536   7.053
 8232POPC   C4B42274  22.974  18.576   7.353
 8233POPC   NC342275  31.468  26.065   5.553
 8233POPC   PO442276  31.434  26.046   5.853
 8233POPC   GL142277  31.496  26.036   6.153
 8233POPC   GL242278  31.538  25.981   6.153
 8233POPC   C1A42279  31.497  26.050   6.453
 8233POPC   D2A42280  31.513  26.002   6.753
 8233POPC   C3A42281  31.466  25.995   7.053
 8233POPC   C4A42282  31.471  26.054   7.353
 8233POPC   C1B42283  31.702  25.866   6.453
 8233POPC   C2B42284  31.661  25.827   6.753
 8233POPC   C3B42285  31.649  25.913   7.053
 8233POPC   C4B42286  31.640  25.875   7.353
 8234POPC   NC342287  30.652   5.879   5.553
 8234POPC   PO442288  30.672   5.904   5.853
 8234POPC   GL142289  30.720   5.864   6.153
 8234POPC   GL242290  30.751   5.950   6.153
 8234POPC   C1A42291  30.665   5.871   6.453
 8234POPC   D2A42292  30.656   5.884   6.753
 8234POPC   C3A42293  30.655   5.840   7.053
 8234POPC   C4A42294  30.702   5.832   7.353
 8234POPC   C1B42295  30.886   6.022   6.453
 8234POPC   C2B42296  30.863   6.021   6.753
 8234POPC   C3B42297  30.843   6.053   7.053
 8234POPC   C4B42298  30.886   6.046   7.353
 8235POPC   NC342299  24.507  15.159   5.553
 8235POPC   PO442300  24.455  15.191   5.853
 8235POPC   GL142301  24.501  15.149   6.153
 8235POPC   GL242302  24.558  15.091   6.153
 8235POPC   C1A42303  24.513  15.144   6.453
 8235POPC   D2A42304  24.476  15.157   6.753
 8235POPC   C3A42305  24.525  15.167   7.053
 8235POPC   C4A42306  24.462  15.187   7.353
 8235POPC   C1B42307  24.682  14.978   6.453
 8235POPC   C2B42308  24.706  15.022   6.753
 8235POPC   C3B42309  24.648  15.010   7.053
 8235POPC   C4B42310  24.708  15.039   7.353
 8236POPC   NC342311  12.028  22.957   5.553
 8236POPC   PO442312  12.042  22.924   5.853
 8236POPC   GL142313  12.086  22.960   6.153
 8236POPC   GL242314  12.079  22.855   6.153
 8236POPC   C1A42315  12.095  22.983   6.453
 8236POPC   D2A42316  12.076  22.974   6.753
 8236POPC   C3A42317  12.075  22.965   7.053
 8236POPC   C4A42318  12.051  22.899   7.353
 8236POPC   C1B42319  12.070  22.684   6.453
 8236POPC   C2B42320  12.049  22.730   6.753
 8236POPC   C3B42321  11.999  22.667   7.053
 8236POPC   C4B42322  11.994  22.713   7.353
 8237POPC   NC342323  14.412  15.981   5.553
 8237POPC   PO442324  14.406  15.939   5.853
 8237POPC   GL142325  14.445  15.967   6.153
 8237POPC   GL242326  14.384  15.834   6.153
 8237POPC   C1A42327  14.389  15.915   6.453
 8237POPC   D2A42328  14.410  15.908   6.753
 8237POPC   C3A42329  14.366  16.000   7.053
 8237POPC   C4A42330  14.360  15.957   7.353
 8237POPC   C1B42331  14.430  15.746   6.453
 8237POPC   C2B42332  14.345  15.738   6.753
 8237POPC   C3B42333  14.379  15.698   7.053
 8237POPC   C4B42334  14.391  15.736   7.353
 8238POPC   NC342335  40.043  36.923   5.553
 8238POPC   PO442336  40.030  36.951   5.853
 8238POPC   GL142337  40.056  36.900   6.153
 8238POPC   GL242338  39.996  37.074   6.153
 8238POPC   C1A42339  40.044  36.953   6.453
 8238POPC   D2A42340  40.030  36.919   6.753
 8238POPC   C3A42341  40.054  36.947   7.053
 8238POPC   C4A42342  40.040  36.934   7.353
 8238POPC   C1B42343  40.082  37.175   6.453
 8238POPC   C2B42344  40.052  37.191   6.753
 8238POPC   C3B42345  40.097  37.178   7.053
 8238POPC   C4B42346  40.085  37.145   7.353
 8239POPC   NC342347  10.486  18.268   5.553
 8239POPC   PO442348  10.525  18.321   5.853
 8239POPC   GL142349  10.520  18.283   6.153
 8239POPC   GL242350  10.625  18.273   6.153
 8239POPC   C1A42351  10.556  18.254   6.453
 8239POPC   D2A42352  10.554  18.268   6.753
 8239POPC   C3A42353  10.504  18.321   7.053
 8239POPC   C4A42354  10.492  18.239   7.353
 8239POPC   C1B42355  10.773  18.249   6.453
 8239POPC   C2B42356  10.756  18.198   6.753
 8239POPC   C3B42357  10.794  18.210   7.053
 8239POPC   C4B42358  10.790  18.202   7.353
 8240POPC   NC342359   2.800  28.351   5.553
 8240POPC   PO442360   2.813  28.400   5.853
 8240POPC   GL142361   2.762  28.364   6.153
 8240POPC   GL242362   2.683  28.241   6.153
 8240POPC   C1A42363   2.769  28.341   6.453
 8240POPC   D2A42364   2.720  28.375   6.753
 8240POPC   C3A42365   2.759  28.384   7.053
 8240POPC   C4A42366   2.794  28.408   7.353
 8240POPC   C1B42367   2.596  28.162   6.453
 8240POPC   C2B42368   2.606  28.160   6.753
 8240POPC   C3B42369   2.619  28.146   7.053
 8240POPC   C4B42370   2.612  28.186   7.353
 8241POPC   NC342371   0.449  13.596   5.553
 8241POPC   PO442372   0.466  13.670   5.853
 8241POPC   GL142373   0.463  13.646   6.153
 8241POPC   GL242374   0.516  13.721   6.153
 8241POPC   C1A42375   0.444  13.600   6.453
 8241POPC   D2A42376   0.465  13.578   6.753
 8241POPC   C3A42377   0.461  13.622   7.053
 8241POPC   C4A42378   0.422  13.587   7.353
 8241POPC   C1B42379   0.617  13.738   6.453
 8241POPC   C2B42380   0.632  13.785   6.753
 8241POPC   C3B42381   0.657  13.785   7.053
 8241POPC   C4B42382   0.643  13.781   7.353
 8242POPC   NC342383  19.071  33.772   5.553
 8242POPC   PO442384  19.081  33.761   5.853
 8242POPC   GL142385  19.095  33.773   6.153
 8242POPC   GL242386  19.205  33.783   6.153
 8242POPC   C1A42387  19.058  33.809   6.453
 8242POPC   D2A42388  19.084  33.797   6.753
 8242POPC   C3A42389  19.088  33.826   7.053
 8242POPC   C4A42390  19.031  33.838   7.353
 8242POPC   C1B42391  19.261  33.702   6.453
 8242POPC   C2B42392  19.269  33.666   6.753
 8242POPC   C3B42393  19.308  33.671   7.053
 8242POPC   C4B42394  19.293  33.660   7.353
 8243POPC   NC342395  36.886  18.300   5.553
 8243POPC   PO442396  36.945  18.332   5.853
 8243POPC   GL142397  36.932  18.265   6.153
 8243POPC   GL242398  36.909  18.158   6.153
 8243POPC   C1A42399  36.866  18.237   6.453
 8243POPC   D2A42400  36.865  18.300   6.753
 8243POPC   C3A42401  36.855  18.286   7.053
 8243POPC   C4A42402  36.918  18.297   7.353
 8243POPC   C1B42403  36.893  18.011   6.453
 8243POPC   C2B42404  36.964  17.985   6.753
 8243POPC   C3B42405  36.973  18.068   7.053
 8243POPC   C4B42406  36.963  18.014   7.353
 8244POPC   NC342407  36.147  29.919   5.553
 8244POPC   PO442408  36.172  29.959   5.853
 8244POPC   GL142409  36.160  29.954   6.153
 8244POPC   GL242410  36.188  29.785   6.153
 8244POPC   C1A42411  36.165  29.881   6.453
 8244POPC   D2A42412  36.083  29.939   6.753
 8244POPC   C3A42413  36.141  29.901   7.053
 8244POPC   C4A42414  36.086  29.937   7.353
 8244POPC   C1B42415  36.126  29.648   6.453
 8244POPC   C2B42416  36.206  29.642   6.753
 8244POPC   C3B42417  36.142  29.702   7.053
 8244POPC   C4B42418  36.158  29.643   7.353
 8245POPC   NC342419   4.282  38.407   5.553
 8245POPC   PO442420   4.361  38.481   5.853
 8245POPC   GL142421   4.282  38.429   6.153
 8245POPC   GL242422   4.230  38.548   6.153
 8245POPC   C1A42423   4.279  38.491   6.453
 8245POPC   D2A42424   4.315  38.472   6.753
 8245POPC   C3A42425   4.276  38.414   7.053
 8245POPC   C4A42426   4.304  38.476   7.353
 8245POPC   C1B42427   4.122  38.663   6.453
 8245POPC   C2B42428   4.100  38.634   6.753
 8245POPC   C3B42429   4.155  38.601   7.053
 8245POPC   C4B42430   4.137  38.582   7.353
 8246POPC   NC342431  27.570   1.234   5.553
 8246POPC   PO442432  27.586   1.202   5.853
 8246POPC   GL142433  27.615   1.215   6.153
 8246POPC   GL242434  27.592   1.055   6.153
 8246POPC   C1A42435  27.575   1.214   6.453
 8246POPC   D2A42436  27.556   1.211   6.753
 8246POPC   C3A42437  27.600   1.226   7.053
 8246POPC   C4A42438  27.623   1.183   7.353
 8246POPC   C1B42439  27.567   1.003   6.453
 8246POPC   C2B42440  27.509   0.968   6.753
 8246POPC   C3B42441  27.581   0.933   7.053
 8246POPC   C4B42442  27.557   0.995   7.353
 8247POPC   NC342443  36.864  43.115   5.553
 8247POPC   PO442444  36.930  43.131   5.853
 8247POPC   GL142445  36.864  43.081   6.153
 8247POPC   GL242446  37.062  43.061   6.153
 8247POPC   C1A42447  36.936  43.141   6.453
 8247POPC   D2A42448  36.952  43.123   6.753
 8247POPC   C3A42449  36.867  43.094   7.053
 8247POPC   C4A42450  36.887  43.132   7.353
 8247POPC   C1B42451  37.107  43.053   6.453
 8247POPC   C2B42452  37.104  43.025   6.753
 8247POPC   C3B42453  37.131  43.026   7.053
 8247POPC   C4B42454  37.154  43.035   7.353
 8248POPC   NC342455  29.873  27.614   5.553
 8248POPC   PO442456  29.924  27.556   5.853
 8248POPC   GL142457  29.943  27.561   6.153
 8248POPC   GL242458  30.095  27.587   6.153
 8248POPC   C1A42459  29.914  27.609   6.453
 8248POPC   D2A42460  29.892  27.573   6.753
 8248POPC   C3A42461  29.916  27.619   7.053
 8248POPC   C4A42462  29.953  27.632   7.353
 8248POPC   C1B42463  30.220  27.528   6.453
 8248POPC   C2B42464  30.122  27.622   6.753
 8248POPC   C3B42465  30.216  27.554   7.053
 8248POPC   C4B42466  30.161  27.533   7.353
 8249POPC   NC342467  39.208  33.795   5.553
 8249POPC   PO442468  39.238  33.764   5.853
 8249POPC   GL142469  39.268  33.827   6.153
 8249POPC   GL242470  39.381  33.832   6.153
 8249POPC   C1A42471  39.211  33.830   6.453
 8249POPC   D2A42472  39.216  33.797   6.753
 8249POPC   C3A42473  39.262  33.775   7.053
 8249POPC   C4A42474  39.237  33.809   7.353
 8249POPC   C1B42475  39.516  33.848   6.453
 8249POPC   C2B42476  39.439  33.809   6.753
 8249POPC   C3B42477  39.463  33.857   7.053
 8249POPC   C4B42478  39.501  33.806   7.353
 8250POPC   NC342479  18.266  22.911   5.553
 8250POPC   PO442480  18.249  22.924   5.853
 8250POPC   GL142481  18.325  22.895   6.153
 8250POPC   GL242482  18.273  23.088   6.153
 8250POPC   C1A42483  18.307  22.892   6.453
 8250POPC   D2A42484  18.254  22.907   6.753
 8250POPC   C3A42485  18.269  22.952   7.053
 8250POPC   C4A42486  18.254  22.946   7.353
 8250POPC   C1B42487  18.244  23.162   6.453
 8250POPC   C2B42488  18.281  23.147   6.753
 8250POPC   C3B42489  18.327  23.171   7.053
 8250POPC   C4B42490  18.263  23.164   7.353
 8251POPC   NC342491  35.378  16.753   5.553
 8251POPC   PO442492  35.368  16.686   5.853
 8251POPC   GL142493  35.378  16.708   6.153
 8251POPC   GL242494  35.446  16.745   6.153
 8251POPC   C1A42495  35.324  16.764   6.453
 8251POPC   D2A42496  35.317  16.733   6.753
 8251POPC   C3A42497  35.401  16.732   7.053
 8251POPC   C4A42498  35.315  16.756   7.353
 8251POPC   C1B42499  35.559  16.708   6.453
 8251POPC   C2B42500  35.620  16.710   6.753
 8251POPC   C3B42501  35.619  16.686   7.053
 8251POPC   C4B42502  35.647  16.710   7.353
 8252POPC   NC342503  42.357  27.585   5.553
 8252POPC   PO442504  42.349  27.545   5.853
 8252POPC   GL142505  42.307  27.638   6.153
 8252POPC   GL242506  42.217  27.584   6.153
 8252POPC   C1A42507  42.306  27.568   6.453
 8252POPC   D2A42508  42.344  27.593   6.753
 8252POPC   C3A42509  42.321  27.618   7.053
 8252POPC   C4A42510  42.304  27.584   7.353
 8252POPC   C1B42511  42.056  27.692   6.453
 8252POPC   C2B42512  42.120  27.671   6.753
 8252POPC   C3B42513  42.119  27.635   7.053
 8252POPC   C4B42514  42.073  27.677   7.353
 8253POPC   NC342515  11.299  28.321   5.553
 8253POPC   PO442516  11.291  28.367   5.853
 8253POPC   GL142517  11.339  28.352   6.153
 8253POPC   GL242518  11.139  28.400   6.153
 8253POPC   C1A42519  11.291  28.329   6.453
 8253POPC   D2A42520  11.270  28.367   6.753
 8253POPC   C3A42521  11.309  28.379   7.053
 8253POPC   C4A42522  11.347  28.325   7.353
 8253POPC   C1B42523  11.050  28.363   6.453
 8253POPC   C2B42524  11.047  28.365   6.753
 8253POPC   C3B42525  11.095  28.378   7.053
 8253POPC   C4B42526  11.097  28.338   7.353
 8254POPC   NC342527  29.945  18.258   5.553
 8254POPC   PO442528  29.957  18.331   5.853
 8254POPC   GL142529  29.956  18.315   6.153
 8254POPC   GL242530  29.988  18.169   6.153
 8254POPC   C1A42531  29.945  18.265   6.453
 8254POPC   D2A42532  29.879  18.322   6.753
 8254POPC   C3A42533  29.936  18.234   7.053
 8254POPC   C4A42534  29.911  18.305   7.353
 8254POPC   C1B42535  30.033  18.045   6.453
 8254POPC   C2B42536  29.972  18.074   6.753
 8254POPC   C3B42537  30.052  18.073   7.053
 8254POPC   C4B42538  29.976  18.029   7.353
 8255POPC   NC342539  22.959  30.702   5.553
 8255POPC   PO442540  22.921  30.673   5.853
 8255POPC   GL142541  22.932  30.704   6.153
 8255POPC   GL242542  22.837  30.588   6.153
 8255POPC   C1A42543  22.957  30.695   6.453
 8255POPC   D2A42544  22.935  30.696   6.753
 8255POPC   C3A42545  22.984  30.715   7.053
 8255POPC   C4A42546  22.980  30.698   7.353
 8255POPC   C1B42547  22.730  30.511   6.453
 8255POPC   C2B42548  22.746  30.564   6.753
 8255POPC   C3B42549  22.816  30.470   7.053
 8255POPC   C4B42550  22.760  30.536   7.353
 8256POPC   NC342551  39.247  36.156   5.553
 8256POPC   PO442552  39.191  36.084   5.853
 8256POPC   GL142553  39.193  36.168   6.153
 8256POPC   GL242554  39.372  36.128   6.153
 8256POPC   C1A42555  39.199  36.103   6.453
 8256POPC   D2A42556  39.187  36.107   6.753
 8256POPC   C3A42557  39.221  36.097   7.053
 8256POPC   C4A42558  39.278  36.095   7.353
 8256POPC   C1B42559  39.463  36.143   6.453
 8256POPC   C2B42560  39.453  36.159   6.753
 8256POPC   C3B42561  39.487  36.142   7.053
 8256POPC   C4B42562  39.437  36.218   7.353
 8257POPC   NC342563  20.613  40.768   5.553
 8257POPC   PO442564  20.564  40.753   5.853
 8257POPC   GL142565  20.648  40.746   6.153
 8257POPC   GL242566  20.543  40.704   6.153
 8257POPC   C1A42567  20.658  40.792   6.453
 8257POPC   D2A42568  20.635  40.757   6.753
 8257POPC   C3A42569  20.620  40.796   7.053
 8257POPC   C4A42570  20.623  40.796   7.353
 8257POPC   C1B42571  20.531  40.562   6.453
 8257POPC   C2B42572  20.566  40.561   6.753
 8257POPC   C3B42573  20.538  40.518   7.053
 8257POPC   C4B42574  20.531  40.572   7.353
 8258POPC   NC342575  43.090  41.584   5.553
 8258POPC   PO442576  43.114  41.525   5.853
 8258POPC   GL142577  43.143  41.547   6.153
 8258POPC   GL242578  43.095  41.426   6.153
 8258POPC   C1A42579  43.077  41.594   6.453
 8258POPC   D2A42580  43.115  41.555   6.753
 8258POPC   C3A42581  43.133  41.537   7.053
 8258POPC   C4A42582  43.156  41.559   7.353
 8258POPC   C1B42583  42.962  41.324   6.453
 8258POPC   C2B42584  42.986  41.385   6.753
 8258POPC   C3B42585  42.986  41.375   7.053
 8258POPC   C4B42586  42.960  41.365   7.353
 8259POPC   NC342587  30.672  17.458   5.553
 8259POPC   PO442588  30.673  17.466   5.853
 8259POPC   GL142589  30.732  17.537   6.153
 8259POPC   GL242590  30.662  17.440   6.153
 8259POPC   C1A42591  30.655  17.489   6.453
 8259POPC   D2A42592  30.694  17.538   6.753
 8259POPC   C3A42593  30.718  17.468   7.053
 8259POPC   C4A42594  30.701  17.507   7.353
 8259POPC   C1B42595  30.593  17.266   6.453
 8259POPC   C2B42596  30.511  17.350   6.753
 8259POPC   C3B42597  30.497  17.347   7.053
 8259POPC   C4B42598  30.526  17.302   7.353
 8260POPC   NC342599   8.183  43.081   5.553
 8260POPC   PO442600   8.162  43.108   5.853
 8260POPC   GL142601   8.179  43.082   6.153
 8260POPC   GL242602   8.296  43.228   6.153
 8260POPC   C1A42603   8.234  43.130   6.453
 8260POPC   D2A42604   8.192  43.096   6.753
 8260POPC   C3A42605   8.217  43.085   7.053
 8260POPC   C4A42606   8.191  43.130   7.353
 8260POPC   C1B42607   8.364  43.357   6.453
 8260POPC   C2B42608   8.287  43.364   6.753
 8260POPC   C3B42609   8.322  43.289   7.053
 8260POPC   C4B42610   8.320  43.341   7.353
 8261POPC   NC342611   8.183  44.693   5.553
 8261POPC   PO442612   8.169  44.626   5.853
 8261POPC   GL142613   8.229  44.696   6.153
 8261POPC   GL242614   8.295  44.599   6.153
 8261POPC   C1A42615   8.166  44.660   6.453
 8261POPC   D2A42616   8.223  44.705   6.753
 8261POPC   C3A42617   8.233  44.628   7.053
 8261POPC   C4A42618   8.232  44.665   7.353
 8261POPC   C1B42619   8.382  44.552   6.453
 8261POPC   C2B42620   8.396  44.481   6.753
 8261POPC   C3B42621   8.383  44.469   7.053
 8261POPC   C4B42622   8.350  44.549   7.353
 8262POPC   NC342623  22.113  12.827   5.553
 8262POPC   PO442624  22.117  12.872   5.853
 8262POPC   GL142625  22.152  12.809   6.153
 8262POPC   GL242626  22.278  12.784   6.153
 8262POPC   C1A42627  22.149  12.892   6.453
 8262POPC   D2A42628  22.145  12.815   6.753
 8262POPC   C3A42629  22.136  12.858   7.053
 8262POPC   C4A42630  22.175  12.873   7.353
 8262POPC   C1B42631  22.430  12.747   6.453
 8262POPC   C2B42632  22.420  12.725   6.753
 8262POPC   C3B42633  22.347  12.772   7.053
 8262POPC   C4B42634  22.402  12.778   7.353
 8263POPC   NC342635  37.659  32.261   5.553
 8263POPC   PO442636  37.684  32.207   5.853
 8263POPC   GL142637  37.713  32.279   6.153
 8263POPC   GL242638  37.618  32.313   6.153
 8263POPC   C1A42639  37.633  32.225   6.453
 8263POPC   D2A42640  37.723  32.263   6.753
 8263POPC   C3A42641  37.728  32.295   7.053
 8263POPC   C4A42642  37.674  32.207   7.353
 8263POPC   C1B42643  37.541  32.508   6.453
 8263POPC   C2B42644  37.575  32.446   6.753
 8263POPC   C3B42645  37.607  32.427   7.053
 8263POPC   C4B42646  37.594  32.443   7.353
 8264POPC   NC342647  28.360   1.206   5.553
 8264POPC   PO442648  28.347   1.245   5.853
 8264POPC   GL142649  28.416   1.174   6.153
 8264POPC   GL242650  28.476   1.241   6.153
 8264POPC   C1A42651  28.320   1.258   6.453
 8264POPC   D2A42652  28.412   1.192   6.753
 8264POPC   C3A42653  28.356   1.206   7.053
 8264POPC   C4A42654  28.419   1.188   7.353
 8264POPC   C1B42655  28.569   1.243   6.453
 8264POPC   C2B42656  28.596   1.257   6.753
 8264POPC   C3B42657  28.594   1.182   7.053
 8264POPC   C4B42658  28.652   1.181   7.353
 8265POPC   NC342659  11.280  11.330   5.553
 8265POPC   PO442660  11.279  11.282   5.853
 8265POPC   GL142661  11.270  11.262   6.153
 8265POPC   GL242662  11.174  11.200   6.153
 8265POPC   C1A42663  11.261  11.263   6.453
 8265POPC   D2A42664  11.286  11.326   6.753
 8265POPC   C3A42665  11.278  11.276   7.053
 8265POPC   C4A42666  11.286  11.347   7.353
 8265POPC   C1B42667  11.150  11.110   6.453
 8265POPC   C2B42668  11.146  11.090   6.753
 8265POPC   C3B42669  11.124  11.167   7.053
 8265POPC   C4B42670  11.150  11.147   7.353
 8266POPC   NC342671  25.251  30.654   5.553
 8266POPC   PO442672  25.223  30.663   5.853
 8266POPC   GL142673  25.267  30.725   6.153
 8266POPC   GL242674  25.417  30.666   6.153
 8266POPC   C1A42675  25.233  30.732   6.453
 8266POPC   D2A42676  25.234  30.665   6.753
 8266POPC   C3A42677  25.249  30.676   7.053
 8266POPC   C4A42678  25.251  30.703   7.353
 8266POPC   C1B42679  25.458  30.636   6.453
 8266POPC   C2B42680  25.485  30.603   6.753
 8266POPC   C3B42681  25.515  30.559   7.053
 8266POPC   C4B42682  25.525  30.590   7.353
 8267POPC   NC342683  33.836  42.293   5.553
 8267POPC   PO442684  33.838  42.317   5.853
 8267POPC   GL142685  33.838  42.285   6.153
 8267POPC   GL242686  33.706  42.384   6.153
 8267POPC   C1A42687  33.791  42.355   6.453
 8267POPC   D2A42688  33.761  42.348   6.753
 8267POPC   C3A42689  33.837  42.321   7.053
 8267POPC   C4A42690  33.780  42.345   7.353
 8267POPC   C1B42691  33.594  42.378   6.453
 8267POPC   C2B42692  33.502  42.387   6.753
 8267POPC   C3B42693  33.574  42.318   7.053
 8267POPC   C4B42694  33.519  42.340   7.353
 8268POPC   NC342695  36.164  20.601   5.553
 8268POPC   PO442696  36.117  20.649   5.853
 8268POPC   GL142697  36.155  20.588   6.153
 8268POPC   GL242698  36.102  20.496   6.153
 8268POPC   C1A42699  36.115  20.615   6.453
 8268POPC   D2A42700  36.095  20.585   6.753
 8268POPC   C3A42701  36.167  20.630   7.053
 8268POPC   C4A42702  36.144  20.655   7.353
 8268POPC   C1B42703  36.014  20.355   6.453
 8268POPC   C2B42704  36.042  20.387   6.753
 8268POPC   C3B42705  36.088  20.376   7.053
 8268POPC   C4B42706  36.058  20.337   7.353
 8269POPC   NC342707   5.123  15.981   5.553
 8269POPC   PO442708   5.049  16.003   5.853
 8269POPC   GL142709   5.136  16.004   6.153
 8269POPC   GL242710   4.943  16.006   6.153
 8269POPC   C1A42711   5.134  15.994   6.453
 8269POPC   D2A42712   5.056  15.975   6.753
 8269POPC   C3A42713   5.043  15.958   7.053
 8269POPC   C4A42714   5.131  16.004   7.353
 8269POPC   C1B42715   4.850  16.059   6.453
 8269POPC   C2B42716   4.814  16.031   6.753
 8269POPC   C3B42717   4.843  16.037   7.053
 8269POPC   C4B42718   4.879  16.083   7.353
 8270POPC   NC342719  15.948  19.813   5.553
 8270POPC   PO442720  15.958  19.827   5.853
 8270POPC   GL142721  15.977  19.857   6.153
 8270POPC   GL242722  15.988  19.945   6.153
 8270POPC   C1A42723  15.978  19.807   6.453
 8270POPC   D2A42724  15.962  19.884   6.753
 8270POPC   C3A42725  15.994  19.834   7.053
 8270POPC   C4A42726  15.918  19.821   7.353
 8270POPC   C1B42727  15.970  20.106   6.453
 8270POPC   C2B42728  16.016  20.053   6.753
 8270POPC   C3B42729  15.991  20.055   7.053
 8270POPC   C4B42730  16.007  20.070   7.353
 8271POPC   NC342731  29.194  44.698   5.553
 8271POPC   PO442732  29.183  44.658   5.853
 8271POPC   GL142733  29.144  44.642   6.153
 8271POPC   GL242734  29.156  44.813   6.153
 8271POPC   C1A42735  29.123  44.645   6.453
 8271POPC   D2A42736  29.174  44.698   6.753
 8271POPC   C3A42737  29.178  44.703   7.053
 8271POPC   C4A42738  29.131  44.679   7.353
 8271POPC   C1B42739  29.033  44.854   6.453
 8271POPC   C2B42740  29.066  44.874   6.753
 8271POPC   C3B42741  29.081  44.920   7.053
 8271POPC   C4B42742  29.067  44.940   7.353
 8272POPC   NC342743  23.695  15.967   5.553
 8272POPC   PO442744  23.704  15.909   5.853
 8272POPC   GL142745  23.723  16.004   6.153
 8272POPC   GL242746  23.686  16.113   6.153
 8272POPC   C1A42747  23.684  15.925   6.453
 8272POPC   D2A42748  23.671  15.945   6.753
 8272POPC   C3A42749  23.696  15.923   7.053
 8272POPC   C4A42750  23.727  15.951   7.353
 8272POPC   C1B42751  23.714  16.181   6.453
 8272POPC   C2B42752  23.754  16.248   6.753
 8272POPC   C3B42753  23.702  16.162   7.053
 8272POPC   C4B42754  23.785  16.170   7.353
 8273POPC   NC342755  17.466  36.871   5.553
 8273POPC   PO442756  17.543  36.924   5.853
 8273POPC   GL142757  17.512  36.869   6.153
 8273POPC   GL242758  17.610  36.791   6.153
 8273POPC   C1A42759  17.496  36.884   6.453
 8273POPC   D2A42760  17.497  36.911   6.753
 8273POPC   C3A42761  17.479  36.927   7.053
 8273POPC   C4A42762  17.503  36.877   7.353
 8273POPC   C1B42763  17.616  36.697   6.453
 8273POPC   C2B42764  17.608  36.716   6.753
 8273POPC   C3B42765  17.600  36.714   7.053
 8273POPC   C4B42766  17.586  36.720   7.353
 8274POPC   NC342767  40.000  20.570   5.553
 8274POPC   PO442768  40.014  20.598   5.853
 8274POPC   GL142769  39.998  20.607   6.153
 8274POPC   GL242770  39.900  20.591   6.153
 8274POPC   C1A42771  39.968  20.570   6.453
 8274POPC   D2A42772  39.972  20.623   6.753
 8274POPC   C3A42773  40.007  20.584   7.053
 8274POPC   C4A42774  39.997  20.606   7.353
 8274POPC   C1B42775  39.794  20.578   6.453
 8274POPC   C2B42776  39.799  20.566   6.753
 8274POPC   C3B42777  39.736  20.574   7.053
 8274POPC   C4B42778  39.762  20.579   7.353
 8275POPC   NC342779  11.279  37.634   5.553
 8275POPC   PO442780  11.272  37.715   5.853
 8275POPC   GL142781  11.271  37.686   6.153
 8275POPC   GL242782  11.212  37.736   6.153
 8275POPC   C1A42783  11.316  37.645   6.453
 8275POPC   D2A42784  11.330  37.652   6.753
 8275POPC   C3A42785  11.342  37.637   7.053
 8275POPC   C4A42786  11.260  37.691   7.353
 8275POPC   C1B42787  11.105  37.813   6.453
 8275POPC   C2B42788  11.037  37.771   6.753
 8275POPC   C3B42789  11.051  37.770   7.053
 8275POPC   C4B42790  11.076  37.762   7.353
 8276POPC   NC342791  32.994  43.135   5.553
 8276POPC   PO442792  33.074  43.097   5.853
 8276POPC   GL142793  33.065  43.124   6.153
 8276POPC   GL242794  32.997  43.196   6.153
 8276POPC   C1A42795  33.001  43.129   6.453
 8276POPC   D2A42796  33.037  43.077   6.753
 8276POPC   C3A42797  32.984  43.107   7.053
 8276POPC   C4A42798  32.990  43.127   7.353
 8276POPC   C1B42799  32.880  43.333   6.453
 8276POPC   C2B42800  32.918  43.295   6.753
 8276POPC   C3B42801  32.881  43.336   7.053
 8276POPC   C4B42802  32.934  43.347   7.353
 8277POPC   NC342803  12.057  20.617   5.553
 8277POPC   PO442804  12.076  20.610   5.853
 8277POPC   GL142805  12.032  20.592   6.153
 8277POPC   GL242806  11.963  20.551   6.153
 8277POPC   C1A42807  12.092  20.635   6.453
 8277POPC   D2A42808  12.074  20.615   6.753
 8277POPC   C3A42809  12.053  20.634   7.053
 8277POPC   C4A42810  12.055  20.568   7.353
 8277POPC   C1B42811  11.917  20.371   6.453
 8277POPC   C2B42812  11.999  20.386   6.753
 8277POPC   C3B42813  11.911  20.388   7.053
 8277POPC   C4B42814  11.918  20.360   7.353
 8278POPC   NC342815  10.493   6.615   5.553
 8278POPC   PO442816  10.549   6.616   5.853
 8278POPC   GL142817  10.506   6.641   6.153
 8278POPC   GL242818  10.566   6.743   6.153
 8278POPC   C1A42819  10.497   6.647   6.453
 8278POPC   D2A42820  10.477   6.649   6.753
 8278POPC   C3A42821  10.518   6.618   7.053
 8278POPC   C4A42822  10.518   6.622   7.353
 8278POPC   C1B42823  10.571   6.928   6.453
 8278POPC   C2B42824  10.520   6.907   6.753
 8278POPC   C3B42825  10.555   6.908   7.053
 8278POPC   C4B42826  10.529   6.927   7.353
 8279POPC   NC342827  39.229  16.698   5.553
 8279POPC   PO442828  39.186  16.778   5.853
 8279POPC   GL142829  39.248  16.726   6.153
 8279POPC   GL242830  39.203  16.816   6.153
 8279POPC   C1A42831  39.206  16.695   6.453
 8279POPC   D2A42832  39.207  16.720   6.753
 8279POPC   C3A42833  39.231  16.769   7.053
 8279POPC   C4A42834  39.257  16.756   7.353
 8279POPC   C1B42835  39.232  17.004   6.453
 8279POPC   C2B42836  39.189  16.995   6.753
 8279POPC   C3B42837  39.212  16.935   7.053
 8279POPC   C4B42838  39.239  17.020   7.353
 8280POPC   NC342839  28.409  20.580   5.553
 8280POPC   PO442840  28.373  20.614   5.853
 8280POPC   GL142841  28.349  20.604   6.153
 8280POPC   GL242842  28.302  20.731   6.153
 8280POPC   C1A42843  28.332  20.648   6.453
 8280POPC   D2A42844  28.403  20.576   6.753
 8280POPC   C3A42845  28.326  20.647   7.053
 8280POPC   C4A42846  28.417  20.638   7.353
 8280POPC   C1B42847  28.267  20.828   6.453
 8280POPC   C2B42848  28.233  20.803   6.753
 8280POPC   C3B42849  28.278  20.805   7.053
 8280POPC   C4B42850  28.251  20.844   7.353
 8281POPC   NC342851  33.002  17.534   5.553
 8281POPC   PO442852  33.010  17.508   5.853
 8281POPC   GL142853  33.055  17.535   6.153
 8281POPC   GL242854  32.925  17.473   6.153
 8281POPC   C1A42855  33.072  17.505   6.453
 8281POPC   D2A42856  32.980  17.506   6.753
 8281POPC   C3A42857  33.068  17.505   7.053
 8281POPC   C4A42858  32.994  17.525   7.353
 8281POPC   C1B42859  32.790  17.493   6.453
 8281POPC   C2B42860  32.753  17.503   6.753
 8281POPC   C3B42861  32.786  17.573   7.053
 8281POPC   C4B42862  32.772  17.569   7.353
 8282POPC   NC342863  36.138  14.391   5.553
 8282POPC   PO442864  36.159  14.372   5.853
 8282POPC   GL142865  36.085  14.380   6.153
 8282POPC   GL242866  36.060  14.472   6.153
 8282POPC   C1A42867  36.100  14.371   6.453
 8282POPC   D2A42868  36.085  14.422   6.753
 8282POPC   C3A42869  36.104  14.440   7.053
 8282POPC   C4A42870  36.078  14.439   7.353
 8282POPC   C1B42871  36.011  14.561   6.453
 8282POPC   C2B42872  35.987  14.623   6.753
 8282POPC   C3B42873  35.985  14.574   7.053
 8282POPC   C4B42874  35.989  14.560   7.353
 8283POPC   NC342875  33.034  29.888   5.553
 8283POPC   PO442876  33.028  29.893   5.853
 8283POPC   GL142877  33.034  29.907   6.153
 8283POPC   GL242878  33.133  29.842   6.153
 8283POPC   C1A42879  33.007  29.938   6.453
 8283POPC   D2A42880  33.015  29.919   6.753
 8283POPC   C3A42881  33.009  29.886   7.053
 8283POPC   C4A42882  33.072  29.924   7.353
 8283POPC   C1B42883  33.226  29.790   6.453
 8283POPC   C2B42884  33.266  29.740   6.753
 8283POPC   C3B42885  33.217  29.739   7.053
 8283POPC   C4B42886  33.229  29.789   7.353
 8284POPC   NC342887  22.978   1.231   5.553
 8284POPC   PO442888  22.930   1.212   5.853
 8284POPC   GL142889  22.946   1.174   6.153
 8284POPC   GL242890  22.991   1.296   6.153
 8284POPC   C1A42891  22.946   1.165   6.453
 8284POPC   D2A42892  22.930   1.190   6.753
 8284POPC   C3A42893  22.924   1.216   7.053
 8284POPC   C4A42894  22.988   1.215   7.353
 8284POPC   C1B42895  23.107   1.419   6.453
 8284POPC   C2B42896  23.031   1.422   6.753
 8284POPC   C3B42897  23.047   1.383   7.053
 8284POPC   C4B42898  23.037   1.415   7.353
 8285POPC   NC342899   8.962   8.203   5.553
 8285POPC   PO442900   8.951   8.199   5.853
 8285POPC   GL142901   8.935   8.207   6.153
 8285POPC   GL242902   8.895   8.230   6.153
 8285POPC   C1A42903   8.962   8.206   6.453
 8285POPC   D2A42904   8.982   8.207   6.753
 8285POPC   C3A42905   8.928   8.233   7.053
 8285POPC   C4A42906   8.984   8.216   7.353
 8285POPC   C1B42907   8.767   8.302   6.453
 8285POPC   C2B42908   8.793   8.312   6.753
 8285POPC   C3B42909   8.765   8.260   7.053
 8285POPC   C4B42910   8.760   8.332   7.353
 8286POPC   NC342911  23.759  12.053   5.553
 8286POPC   PO442912  23.681  12.064   5.853
 8286POPC   GL142913  23.676  12.116   6.153
 8286POPC   GL242914  23.603  12.184   6.153
 8286POPC   C1A42915  23.678  12.101   6.453
 8286POPC   D2A42916  23.705  12.071   6.753
 8286POPC   C3A42917  23.743  12.106   7.053
 8286POPC   C4A42918  23.704  12.103   7.353
 8286POPC   C1B42919  23.565  12.217   6.453
 8286POPC   C2B42920  23.486  12.212   6.753
 8286POPC   C3B42921  23.489  12.205   7.053
 8286POPC   C4B42922  23.529  12.211   7.353
 8287POPC   NC342923   2.745  41.545   5.553
 8287POPC   PO442924   2.735  41.598   5.853
 8287POPC   GL142925   2.764  41.585   6.153
 8287POPC   GL242926   2.742  41.471   6.153
 8287POPC   C1A42927   2.731  41.528   6.453
 8287POPC   D2A42928   2.806  41.538   6.753
 8287POPC   C3A42929   2.775  41.559   7.053
 8287POPC   C4A42930   2.784  41.526   7.353
 8287POPC   C1B42931   2.633  41.378   6.453
 8287POPC   C2B42932   2.613  41.287   6.753
 8287POPC   C3B42933   2.688  41.335   7.053
 8287POPC   C4B42934   2.661  41.323   7.353
 8288POPC   NC342935  41.515  28.362   5.553
 8288POPC   PO442936  41.528  28.323   5.853
 8288POPC   GL142937  41.585  28.400   6.153
 8288POPC   GL242938  41.449  28.357   6.153
 8288POPC   C1A42939  41.605  28.405   6.453
 8288POPC   D2A42940  41.523  28.368   6.753
 8288POPC   C3A42941  41.596  28.403   7.053
 8288POPC   C4A42942  41.601  28.386   7.353
 8288POPC   C1B42943  41.366  28.473   6.453
 8288POPC   C2B42944  41.317  28.392   6.753
 8288POPC   C3B42945  41.364  28.456   7.053
 8288POPC   C4B42946  41.356  28.427   7.353
 8289POPC   NC342947   5.874  12.119   5.553
 8289POPC   PO442948   5.877  12.067   5.853
 8289POPC   GL142949   5.822  12.110   6.153
 8289POPC   GL242950   6.002  12.118   6.153
 8289POPC   C1A42951   5.886  12.091   6.453
 8289POPC   D2A42952   5.864  12.049   6.753
 8289POPC   C3A42953   5.896  12.050   7.053
 8289POPC   C4A42954   5.825  12.050   7.353
 8289POPC   C1B42955   6.072  12.158   6.453
 8289POPC   C2B42956   6.061  12.146   6.753
 8289POPC   C3B42957   6.102  12.164   7.053
 8289POPC   C4B42958   6.115  12.212   7.353
 8290POPC   NC342959  44.615  41.579   5.553
 8290POPC   PO442960  44.639  41.602   5.853
 8290POPC   GL142961  44.670  41.591   6.153
 8290POPC   GL242962  44.718  41.678   6.153
 8290POPC   C1A42963  44.644  41.510   6.453
 8290POPC   D2A42964  44.687  41.524   6.753
 8290POPC   C3A42965  44.626  41.581   7.053
 8290POPC   C4A42966  44.680  41.603   7.353
 8290POPC   C1B42967  44.844  41.735   6.453
 8290POPC   C2B42968  44.833  41.743   6.753
 8290POPC   C3B42969  44.816  41.779   7.053
 8290POPC   C4B42970  44.833  41.719   7.353
 8291POPC   NC342971   9.003  29.964   5.553
 8291POPC   PO442972   9.002  29.952   5.853
 8291POPC   GL142973   8.995  29.895   6.153
 8291POPC   GL242974   8.971  30.063   6.153
 8291POPC   C1A42975   8.970  29.943   6.453
 8291POPC   D2A42976   8.930  29.896   6.753
 8291POPC   C3A42977   8.965  29.892   7.053
 8291POPC   C4A42978   9.018  29.940   7.353
 8291POPC   C1B42979   9.094  30.139   6.453
 8291POPC   C2B42980   9.062  30.131   6.753
 8291POPC   C3B42981   9.060  30.174   7.053
 8291POPC   C4B42982   9.104  30.197   7.353
 8292POPC   NC342983  39.975   2.793   5.553
 8292POPC   PO442984  40.010   2.757   5.853
 8292POPC   GL142985  40.012   2.814   6.153
 8292POPC   GL242986  39.973   2.641   6.153
 8292POPC   C1A42987  40.039   2.747   6.453
 8292POPC   D2A42988  39.991   2.749   6.753
 8292POPC   C3A42989  40.050   2.772   7.053
 8292POPC   C4A42990  40.006   2.785   7.353
 8292POPC   C1B42991  39.970   2.490   6.453
 8292POPC   C2B42992  39.923   2.519   6.753
 8292POPC   C3B42993  39.938   2.523   7.053
 8292POPC   C4B42994  39.925   2.507   7.353
 8293POPC   NC342995  22.929  29.875   5.553
 8293POPC   PO442996  22.913  29.875   5.853
 8293POPC   GL142997  22.930  29.886   6.153
 8293POPC   GL242998  22.976  29.840   6.153
 8293POPC   C1A42999  22.905  29.955   6.453
 8293POPC   D2A43000  22.932  29.944   6.753
 8293POPC   C3A43001  22.943  29.955   7.053
 8293POPC   C4A43002  22.962  29.926   7.353
 8293POPC   C1B43003  22.896  29.681   6.453
 8293POPC   C2B43004  22.965  29.655   6.753
 8293POPC   C3B43005  22.920  29.671   7.053
 8293POPC   C4B43006  22.958  29.667   7.353
 8294POPC   NC343007  26.080  12.029   5.553
 8294POPC   PO443008  26.080  12.031   5.853
 8294POPC   GL143009  26.054  12.081   6.153
 8294POPC   GL243010  25.964  11.962   6.153
 8294POPC   C1A43011  26.060  12.116   6.453
 8294POPC   D2A43012  26.071  12.093   6.753
 8294POPC   C3A43013  26.039  12.092   7.053
 8294POPC   C4A43014  26.055  12.107   7.353
 8294POPC   C1B43015  25.890  11.918   6.453
 8294POPC   C2B43016  25.925  11.897   6.753
 8294POPC   C3B43017  25.869  11.833   7.053
 8294POPC   C4B43018  25.864  11.867   7.353
 8295POPC   NC343019  11.264   1.256   5.553
 8295POPC   PO443020  11.322   1.212   5.853
 8295POPC   GL143021  11.317   1.176   6.153
 8295POPC   GL243022  11.348   1.128   6.153
 8295POPC   C1A43023  11.250   1.190   6.453
 8295POPC   D2A43024  11.342   1.229   6.753
 8295POPC   C3A43025  11.290   1.232   7.053
 8295POPC   C4A43026  11.321   1.254   7.353
 8295POPC   C1B43027  11.414   0.943   6.453
 8295POPC   C2B43028  11.362   0.973   6.753
 8295POPC   C3B43029  11.377   1.027   7.053
 8295POPC   C4B43030  11.451   1.022   7.353
 8296POPC   NC343031  42.296  29.130   5.553
 8296POPC   PO443032  42.341  29.130   5.853
 8296POPC   GL143033  42.304  29.110   6.153
 8296POPC   GL243034  42.294  29.070   6.153
 8296POPC   C1A43035  42.377  29.133   6.453
 8296POPC   D2A43036  42.324  29.167   6.753
 8296POPC   C3A43037  42.375  29.100   7.053
 8296POPC   C4A43038  42.303  29.148   7.353
 8296POPC   C1B43039  42.192  28.898   6.453
 8296POPC   C2B43040  42.192  28.908   6.753
 8296POPC   C3B43041  42.222  28.910   7.053
 8296POPC   C4B43042  42.257  28.924   7.353
 8297POPC   NC343043  12.865   9.790   5.553
 8297POPC   PO443044  12.815   9.745   5.853
 8297POPC   GL143045  12.894   9.700   6.153
 8297POPC   GL243046  12.879   9.830   6.153
 8297POPC   C1A43047  12.821   9.729   6.453
 8297POPC   D2A43048  12.901   9.798   6.753
 8297POPC   C3A43049  12.863   9.727   7.053
 8297POPC   C4A43050  12.840   9.740   7.353
 8297POPC   C1B43051  12.855   9.986   6.453
 8297POPC   C2B43052  12.788   9.999   6.753
 8297POPC   C3B43053  12.783   9.967   7.053
 8297POPC   C4B43054  12.864   9.948   7.353
 8298POPC   NC343055  31.502  35.342   5.553
 8298POPC   PO443056  31.518  35.382   5.853
 8298POPC   GL143057  31.473  35.338   6.153
 8298POPC   GL243058  31.441  35.466   6.153
 8298POPC   C1A43059  31.453  35.364   6.453
 8298POPC   D2A43060  31.435  35.391   6.753
 8298POPC   C3A43061  31.496  35.385   7.053
 8298POPC   C4A43062  31.450  35.309   7.353
 8298POPC   C1B43063  31.352  35.623   6.453
 8298POPC   C2B43064  31.355  35.610   6.753
 8298POPC   C3B43065  31.439  35.564   7.053
 8298POPC   C4B43066  31.438  35.610   7.353
 8299POPC   NC343067  29.194  37.700   5.553
 8299POPC   PO443068  29.095  37.718   5.853
 8299POPC   GL143069  29.188  37.645   6.153
 8299POPC   GL243070  29.308  37.631   6.153
 8299POPC   C1A43071  29.110  37.648   6.453
 8299POPC   D2A43072  29.167  37.634   6.753
 8299POPC   C3A43073  29.185  37.662   7.053
 8299POPC   C4A43074  29.187  37.704   7.353
 8299POPC   C1B43075  29.356  37.581   6.453
 8299POPC   C2B43076  29.363  37.596   6.753
 8299POPC   C3B43077  29.412  37.626   7.053
 8299POPC   C4B43078  29.381  37.616   7.353
 8300POPC   NC343079  36.160  25.233   5.553
 8300POPC   PO443080  36.081  25.288   5.853
 8300POPC   GL143081  36.132  25.309   6.153
 8300POPC   GL243082  36.202  25.165   6.153
 8300POPC   C1A43083  36.090  25.226   6.453
 8300POPC   D2A43084  36.084  25.219   6.753
 8300POPC   C3A43085  36.109  25.266   7.053
 8300POPC   C4A43086  36.123  25.248   7.353
 8300POPC   C1B43087  36.248  25.017   6.453
 8300POPC   C2B43088  36.236  25.048   6.753
 8300POPC   C3B43089  36.209  25.067   7.053
 8300POPC   C4B43090  36.247  24.995   7.353
 8301POPC   NC343091  15.156  39.961   5.553
 8301POPC   PO443092  15.203  40.034   5.853
 8301POPC   GL143093  15.181  39.985   6.153
 8301POPC   GL243094  15.094  39.962   6.153
 8301POPC   C1A43095  15.167  39.994   6.453
 8301POPC   D2A43096  15.218  40.023   6.753
 8301POPC   C3A43097  15.185  40.056   7.053
 8301POPC   C4A43098  15.202  39.971   7.353
 8301POPC   C1B43099  14.977  39.939   6.453
 8301POPC   C2B43100  14.947  39.938   6.753
 8301POPC   C3B43101  14.926  39.907   7.053
 8301POPC   C4B43102  14.970  39.902   7.353
 8302POPC   NC343103  25.286  43.114   5.553
 8302POPC   PO443104  25.301  43.119   5.853
 8302POPC   GL143105  25.224  43.145   6.153
 8302POPC   GL243106  25.122  43.132   6.153
 8302POPC   C1A43107  25.235  43.070   6.453
 8302POPC   D2A43108  25.264  43.079   6.753
 8302POPC   C3A43109  25.292  43.080   7.053
 8302POPC   C4A43110  25.242  43.075   7.353
 8302POPC   C1B43111  25.041  43.136   6.453
 8302POPC   C2B43112  25.052  43.117   6.753
 8302POPC   C3B43113  25.029  43.071   7.053
 8302POPC   C4B43114  25.040  43.091   7.353
 8303POPC   NC343115  16.741   5.046   5.553
 8303POPC   PO443116  16.689   5.103   5.853
 8303POPC   GL143117  16.765   5.061   6.153
 8303POPC   GL243118  16.736   5.232   6.153
 8303POPC   C1A43119  16.725   5.092   6.453
 8303POPC   D2A43120  16.756   5.065   6.753
 8303POPC   C3A43121  16.712   5.072   7.053
 8303POPC   C4A43122  16.707   5.061   7.353
 8303POPC   C1B43123  16.763   5.314   6.453
 8303POPC   C2B43124  16.704   5.362   6.753
 8303POPC   C3B43125  16.791   5.359   7.053
 8303POPC   C4B43126  16.709   5.364   7.353
 8304POPC   NC343127  38.418  40.023   5.553
 8304POPC   PO443128  38.459  39.961   5.853
 8304POPC   GL143129  38.425  40.020   6.153
 8304POPC   GL243130  38.347  40.066   6.153
 8304POPC   C1A43131  38.490  40.024   6.453
 8304POPC   D2A43132  38.464  40.016   6.753
 8304POPC   C3A43133  38.496  40.050   7.053
 8304POPC   C4A43134  38.447  40.026   7.353
 8304POPC   C1B43135  38.234  40.139   6.453
 8304POPC   C2B43136  38.311  40.217   6.753
 8304POPC   C3B43137  38.266  40.184   7.053
 8304POPC   C4B43138  38.256  40.172   7.353
 8305POPC   NC343139  19.797  19.824   5.553
 8305POPC   PO443140  19.884  19.835   5.853
 8305POPC   GL143141  19.846  19.799   6.153
 8305POPC   GL243142  19.872  19.967   6.153
 8305POPC   C1A43143  19.845  19.877   6.453
 8305POPC   D2A43144  19.867  19.786   6.753
 8305POPC   C3A43145  19.877  19.837   7.053
 8305POPC   C4A43146  19.857  19.802   7.353
 8305POPC   C1B43147  19.858  20.082   6.453
 8305POPC   C2B43148  19.870  20.111   6.753
 8305POPC   C3B43149  19.835  20.064   7.053
 8305POPC   C4B43150  19.836  20.086   7.353
 8306POPC   NC343151  22.163  18.268   5.553
 8306POPC   PO443152  22.174  18.297   5.853
 8306POPC   GL143153  22.166  18.269   6.153
 8306POPC   GL243154  22.272  18.391   6.153
 8306POPC   C1A43155  22.211  18.276   6.453
 8306POPC   D2A43156  22.140  18.303   6.753
 8306POPC   C3A43157  22.128  18.299   7.053
 8306POPC   C4A43158  22.188  18.256   7.353
 8306POPC   C1B43159  22.397  18.440   6.453
 8306POPC   C2B43160  22.385  18.439   6.753
 8306POPC   C3B43161  22.341  18.478   7.053
 8306POPC   C4B43162  22.338  18.461   7.353
 8307POPC   NC343163   2.796  38.424   5.553
 8307POPC   PO443164   2.814  38.498   5.853
 8307POPC   GL143165   2.720  38.420   6.153
 8307POPC   GL243166   2.878  38.536   6.153
 8307POPC   C1A43167   2.764  38.416   6.453
 8307POPC   D2A43168   2.805  38.496   6.753
 8307POPC   C3A43169   2.792  38.485   7.053
 8307POPC   C4A43170   2.754  38.447   7.353
 8307POPC   C1B43171   3.027  38.527   6.453
 8307POPC   C2B43172   3.002  38.615   6.753
 8307POPC   C3B43173   2.957  38.562   7.053
 8307POPC   C4B43174   3.030  38.570   7.353
 8308POPC   NC343175  43.921  15.942   5.553
 8308POPC   PO443176  43.915  15.935   5.853
 8308POPC   GL143177  43.888  15.969   6.153
 8308POPC   GL243178  43.873  16.056   6.153
 8308POPC   C1A43179  43.934  15.955   6.453
 8308POPC   D2A43180  43.872  15.969   6.753
 8308POPC   C3A43181  43.896  15.975   7.053
 8308POPC   C4A43182  43.917  15.975   7.353
 8308POPC   C1B43183  43.906  16.180   6.453
 8308POPC   C2B43184  43.862  16.218   6.753
 8308POPC   C3B43185  43.896  16.225   7.053
 8308POPC   C4B43186  43.913  16.203   7.353
 8309POPC   NC343187  34.599  28.415   5.553
 8309POPC   PO443188  34.605  28.351   5.853
 8309POPC   GL143189  34.602  28.388   6.153
 8309POPC   GL243190  34.601  28.483   6.153
 8309POPC   C1A43191  34.586  28.391   6.453
 8309POPC   D2A43192  34.615  28.331   6.753
 8309POPC   C3A43193  34.597  28.390   7.053
 8309POPC   C4A43194  34.538  28.372   7.353
 8309POPC   C1B43195  34.662  28.588   6.453
 8309POPC   C2B43196  34.692  28.568   6.753
 8309POPC   C3B43197  34.656  28.593   7.053
 8309POPC   C4B43198  34.640  28.599   7.353
 8310POPC   NC343199  31.492  20.612   5.553
 8310POPC   PO443200  31.436  20.633   5.853
 8310POPC   GL143201  31.522  20.615   6.153
 8310POPC   GL243202  31.399  20.568   6.153
 8310POPC   C1A43203  31.459  20.621   6.453
 8310POPC   D2A43204  31.514  20.628   6.753
 8310POPC   C3A43205  31.472  20.646   7.053
 8310POPC   C4A43206  31.474  20.579   7.353
 8310POPC   C1B43207  31.233  20.528   6.453
 8310POPC   C2B43208  31.208  20.510   6.753
 8310POPC   C3B43209  31.234  20.482   7.053
 8310POPC   C4B43210  31.283  20.527   7.353
 8311POPC   NC343211  36.123  39.959   5.553
 8311POPC   PO443212  36.134  39.965   5.853
 8311POPC   GL143213  36.091  40.050   6.153
 8311POPC   GL243214  36.004  40.052   6.153
 8311POPC   C1A43215  36.171  39.959   6.453
 8311POPC   D2A43216  36.160  40.001   6.753
 8311POPC   C3A43217  36.101  40.021   7.053
 8311POPC   C4A43218  36.087  39.996   7.353
 8311POPC   C1B43219  35.901  40.008   6.453
 8311POPC   C2B43220  35.839  40.071   6.753
 8311POPC   C3B43221  35.910  40.046   7.053
 8311POPC   C4B43222  35.917  40.075   7.353
 8312POPC   NC343223  39.253  37.633   5.553
 8312POPC   PO443224  39.197  37.684   5.853
 8312POPC   GL143225  39.254  37.729   6.153
 8312POPC   GL243226  39.261  37.835   6.153
 8312POPC   C1A43227  39.238  37.632   6.453
 8312POPC   D2A43228  39.228  37.729   6.753
 8312POPC   C3A43229  39.227  37.716   7.053
 8312POPC   C4A43230  39.210  37.669   7.353
 8312POPC   C1B43231  39.294  37.952   6.453
 8312POPC   C2B43232  39.245  37.886   6.753
 8312POPC   C3B43233  39.206  37.909   7.053
 8312POPC   C4B43234  39.279  37.957   7.353
 8313POPC   NC343235  12.104  38.412   5.553
 8313POPC   PO443236  12.063  38.492   5.853
 8313POPC   GL143237  12.044  38.440   6.153
 8313POPC   GL243238  11.994  38.386   6.153
 8313POPC   C1A43239  12.096  38.459   6.453
 8313POPC   D2A43240  12.124  38.475   6.753
 8313POPC   C3A43241  12.070  38.460   7.053
 8313POPC   C4A43242  12.089  38.438   7.353
 8313POPC   C1B43243  12.018  38.263   6.453
 8313POPC   C2B43244  12.033  38.216   6.753
 8313POPC   C3B43245  11.992  38.179   7.053
 8313POPC   C4B43246  11.976  38.191   7.353
 8314POPC   NC343247  30.715  20.588   5.553
 8314POPC   PO443248  30.668  20.639   5.853
 8314POPC   GL143249  30.657  20.574   6.153
 8314POPC   GL243250  30.604  20.714   6.153
 8314POPC   C1A43251  30.683  20.597   6.453
 8314POPC   D2A43252  30.693  20.646   6.753
 8314POPC   C3A43253  30.716  20.590   7.053
 8314POPC   C4A43254  30.726  20.567   7.353
 8314POPC   C1B43255  30.647  20.871   6.453
 8314POPC   C2B43256  30.636  20.874   6.753
 8314POPC   C3B43257  30.561  20.876   7.053
 8314POPC   C4B43258  30.636  20.848   7.353
 8315POPC   NC343259  17.515   0.479   5.553
 8315POPC   PO443260  17.516   0.450   5.853
 8315POPC   GL143261  17.473   0.425   6.153
 8315POPC   GL243262  17.433   0.440   6.153
 8315POPC   C1A43263  17.553   0.455   6.453
 8315POPC   D2A43264  17.554   0.439   6.753
 8315POPC   C3A43265  17.552   0.479   7.053
 8315POPC   C4A43266  17.557   0.427   7.353
 8315POPC   C1B43267  17.248   0.482   6.453
 8315POPC   C2B43268  17.214   0.515   6.753
 8315POPC   C3B43269  17.268   0.498   7.053
 8315POPC   C4B43270  17.285   0.468   7.353
 8316POPC   NC343271  22.923  32.979   5.553
 8316POPC   PO443272  22.964  33.008   5.853
 8316POPC   GL143273  22.900  33.046   6.153
 8316POPC   GL243274  22.969  32.885   6.153
 8316POPC   C1A43275  22.934  33.045   6.453
 8316POPC   D2A43276  22.948  32.982   6.753
 8316POPC   C3A43277  22.959  32.983   7.053
 8316POPC   C4A43278  22.969  32.995   7.353
 8316POPC   C1B43279  23.104  32.834   6.453
 8316POPC   C2B43280  23.074  32.828   6.753
 8316POPC   C3B43281  23.092  32.785   7.053
 8316POPC   C4B43282  23.064  32.797   7.353
 8317POPC   NC343283  26.819  35.329   5.553
 8317POPC   PO443284  26.840  35.376   5.853
 8317POPC   GL143285  26.802  35.316   6.153
 8317POPC   GL243286  26.804  35.502   6.153
 8317POPC   C1A43287  26.846  35.386   6.453
 8317POPC   D2A43288  26.827  35.352   6.753
 8317POPC   C3A43289  26.792  35.355   7.053
 8317POPC   C4A43290  26.829  35.309   7.353
 8317POPC   C1B43291  26.700  35.611   6.453
 8317POPC   C2B43292  26.671  35.620   6.753
 8317POPC   C3B43293  26.669  35.539   7.053
 8317POPC   C4B43294  26.709  35.601   7.353
 8318POPC   NC343295  29.889   1.980   5.553
 8318POPC   PO443296  29.885   1.974   5.853
 8318POPC   GL143297  29.964   2.022   6.153
 8318POPC   GL243298  29.823   2.007   6.153
 8318POPC   C1A43299  29.896   1.960   6.453
 8318POPC   D2A43300  29.876   1.944   6.753
 8318POPC   C3A43301  29.940   2.034   7.053
 8318POPC   C4A43302  29.875   1.968   7.353
 8318POPC   C1B43303  29.679   2.071   6.453
 8318POPC   C2B43304  29.692   1.991   6.753
 8318POPC   C3B43305  29.644   2.026   7.053
 8318POPC   C4B43306  29.717   1.997   7.353
 8319POPC   NC343307  35.334  43.849   5.553
 8319POPC   PO443308  35.356  43.919   5.853
 8319POPC   GL143309  35.317  43.897   6.153
 8319POPC   GL243310  35.238  44.002   6.153
 8319POPC   C1A43311  35.349  43.860   6.453
 8319POPC   D2A43312  35.319  43.866   6.753
 8319POPC   C3A43313  35.325  43.928   7.053
 8319POPC   C4A43314  35.392  43.909   7.353
 8319POPC   C1B43315  35.152  44.118   6.453
 8319POPC   C2B43316  35.165  44.032   6.753
 8319POPC   C3B43317  35.151  44.026   7.053
 8319POPC   C4B43318  35.209  44.075   7.353
 8320POPC   NC343319   3.579  18.316   5.553
 8320POPC   PO443320   3.572  18.268   5.853
 8320POPC   GL143321   3.558  18.305   6.153
 8320POPC   GL243322   3.640  18.223   6.153
 8320POPC   C1A43323   3.590  18.244   6.453
 8320POPC   D2A43324   3.506  18.264   6.753
 8320POPC   C3A43325   3.578  18.262   7.053
 8320POPC   C4A43326   3.567  18.279   7.353
 8320POPC   C1B43327   3.701  18.096   6.453
 8320POPC   C2B43328   3.733  18.062   6.753
 8320POPC   C3B43329   3.714  18.112   7.053
 8320POPC   C4B43330   3.711  18.055   7.353
 8321POPC   NC343331  25.294  38.469   5.553
 8321POPC   PO443332  25.233  38.439   5.853
 8321POPC   GL143333  25.250  38.469   6.153
 8321POPC   GL243334  25.182  38.409   6.153
 8321POPC   C1A43335  25.238  38.440   6.453
 8321POPC   D2A43336  25.246  38.482   6.753
 8321POPC   C3A43337  25.265  38.445   7.053
 8321POPC   C4A43338  25.268  38.505   7.353
 8321POPC   C1B43339  25.026  38.461   6.453
 8321POPC   C2B43340  24.979  38.409   6.753
 8321POPC   C3B43341  25.033  38.453   7.053
 8321POPC   C4B43342  24.992  38.428   7.353
 8322POPC   NC343343  41.605   4.352   5.553
 8322POPC   PO443344  41.568   4.303   5.853
 8322POPC   GL143345  41.541   4.339   6.153
 8322POPC   GL243346  41.397   4.373   6.153
 8322POPC   C1A43347  41.512   4.327   6.453
 8322POPC   D2A43348  41.552   4.306   6.753
 8322POPC   C3A43349  41.569   4.274   7.053
 8322POPC   C4A43350  41.535   4.365   7.353
 8322POPC   C1B43351  41.312   4.400   6.453
 8322POPC   C2B43352  41.296   4.403   6.753
 8322POPC   C3B43353  41.337   4.365   7.053
 8322POPC   C4B43354  41.321   4.403   7.353
 8323POPC   NC343355  27.629   7.422   5.553
 8323POPC   PO443356  27.604   7.424   5.853
 8323POPC   GL143357  27.582   7.384   6.153
 8323POPC   GL243358  27.478   7.402   6.153
 8323POPC   C1A43359  27.625   7.383   6.453
 8323POPC   D2A43360  27.600   7.437   6.753
 8323POPC   C3A43361  27.624   7.458   7.053
 8323POPC   C4A43362  27.569   7.466   7.353
 8323POPC   C1B43363  27.349   7.370   6.453
 8323POPC   C2B43364  27.340   7.357   6.753
 8323POPC   C3B43365  27.372   7.435   7.053
 8323POPC   C4B43366  27.352   7.372   7.353
 8324POPC   NC343367  43.912  43.891   5.553
 8324POPC   PO443368  43.852  43.846   5.853
 8324POPC   GL143369  43.928  43.867   6.153
 8324POPC   GL243370  43.839  43.791   6.153
 8324POPC   C1A43371  43.864  43.850   6.453
 8324POPC   D2A43372  43.875  43.927   6.753
 8324POPC   C3A43373  43.856  43.898   7.053
 8324POPC   C4A43374  43.855  43.878   7.353
 8324POPC   C1B43375  43.711  43.750   6.453
 8324POPC   C2B43376  43.714  43.776   6.753
 8324POPC   C3B43377  43.726  43.764   7.053
 8324POPC   C4B43378  43.709  43.753   7.353
 8325POPC   NC343379  43.904  20.637   5.553
 8325POPC   PO443380  43.890  20.632   5.853
 8325POPC   GL143381  43.836  20.579   6.153
 8325POPC   GL243382  43.882  20.457   6.153
 8325POPC   C1A43383  43.837  20.617   6.453
 8325POPC   D2A43384  43.838  20.642   6.753
 8325POPC   C3A43385  43.891  20.658   7.053
 8325POPC   C4A43386  43.847  20.573   7.353
 8325POPC   C1B43387  43.800  20.328   6.453
 8325POPC   C2B43388  43.849  20.412   6.753
 8325POPC   C3B43389  43.777  20.348   7.053
 8325POPC   C4B43390  43.825  20.397   7.353
 8326POPC   NC343391  18.240  24.450   5.553
 8326POPC   PO443392  18.251  24.506   5.853
 8326POPC   GL143393  18.276  24.460   6.153
 8326POPC   GL243394  18.210  24.368   6.153
 8326POPC   C1A43395  18.248  24.491   6.453
 8326POPC   D2A43396  18.299  24.521   6.753
 8326POPC   C3A43397  18.273  24.447   7.053
 8326POPC   C4A43398  18.289  24.530   7.353
 8326POPC   C1B43399  18.120  24.309   6.453
 8326POPC   C2B43400  18.057  24.322   6.753
 8326POPC   C3B43401  18.092  24.302   7.053
 8326POPC   C4B43402  18.088  24.274   7.353
 8327POPC   NC343403  18.309   1.220   5.553
 8327POPC   PO443404  18.330   1.237   5.853
 8327POPC   GL143405  18.242   1.183   6.153
 8327POPC   GL243406  18.333   1.149   6.153
 8327POPC   C1A43407  18.324   1.178   6.453
 8327POPC   D2A43408  18.257   1.223   6.753
 8327POPC   C3A43409  18.300   1.225   7.053
 8327POPC   C4A43410  18.283   1.175   7.353
 8327POPC   C1B43411  18.441   1.049   6.453
 8327POPC   C2B43412  18.425   0.981   6.753
 8327POPC   C3B43413  18.433   1.052   7.053
 8327POPC   C4B43414  18.427   0.980   7.353
 8328POPC   NC343415  39.200  43.874   5.553
 8328POPC   PO443416  39.227  43.878   5.853
 8328POPC   GL143417  39.236  43.867   6.153
 8328POPC   GL243418  39.214  43.996   6.153
 8328POPC   C1A43419  39.188  43.882   6.453
 8328POPC   D2A43420  39.206  43.870   6.753
 8328POPC   C3A43421  39.262  43.923   7.053
 8328POPC   C4A43422  39.235  43.923   7.353
 8328POPC   C1B43423  39.216  44.109   6.453
 8328POPC   C2B43424  39.206  44.181   6.753
 8328POPC   C3B43425  39.206  44.131   7.053
 8328POPC   C4B43426  39.247  44.119   7.353
 8329POPC   NC343427  42.368   5.045   5.553
 8329POPC   PO443428  42.379   5.065   5.853
 8329POPC   GL143429  42.315   5.103   6.153
 8329POPC   GL243430  42.478   5.150   6.153
 8329POPC   C1A43431  42.341   5.061   6.453
 8329POPC   D2A43432  42.359   5.138   6.753
 8329POPC   C3A43433  42.342   5.131   7.053
 8329POPC   C4A43434  42.350   5.109   7.353
 8329POPC   C1B43435  42.541   5.206   6.453
 8329POPC   C2B43436  42.564   5.178   6.753
 8329POPC   C3B43437  42.526   5.221   7.053
 8329POPC   C4B43438  42.543   5.200   7.353
 8330POPC   NC343439   4.322  36.881   5.553
 8330POPC   PO443440   4.279  36.923   5.853
 8330POPC   GL143441   4.350  36.918   6.153
 8330POPC   GL243442   4.241  36.947   6.153
 8330POPC   C1A43443   4.345  36.911   6.453
 8330POPC   D2A43444   4.274  36.892   6.753
 8330POPC   C3A43445   4.270  36.864   7.053
 8330POPC   C4A43446   4.348  36.868   7.353
 8330POPC   C1B43447   4.031  37.018   6.453
 8330POPC   C2B43448   4.110  37.024   6.753
 8330POPC   C3B43449   4.052  36.968   7.053
 8330POPC   C4B43450   4.129  37.020   7.353
 8331POPC   NC343451  32.200  34.560   5.553
 8331POPC   PO443452  32.275  34.562   5.853
 8331POPC   GL143453  32.212  34.566   6.153
 8331POPC   GL243454  32.308  34.459   6.153
 8331POPC   C1A43455  32.250  34.550   6.453
 8331POPC   D2A43456  32.228  34.551   6.753
 8331POPC   C3A43457  32.261  34.535   7.053
 8331POPC   C4A43458  32.198  34.614   7.353
 8331POPC   C1B43459  32.493  34.386   6.453
 8331POPC   C2B43460  32.416  34.398   6.753
 8331POPC   C3B43461  32.426  34.377   7.053
 8331POPC   C4B43462  32.436  34.425   7.353
 8332POPC   NC343463  25.999  43.925   5.553
 8332POPC   PO443464  26.083  43.874   5.853
 8332POPC   GL143465  26.070  43.907   6.153
 8332POPC   GL243466  26.084  43.777   6.153
 8332POPC   C1A43467  25.993  43.894   6.453
 8332POPC   D2A43468  26.001  43.927   6.753
 8332POPC   C3A43469  26.055  43.881   7.053
 8332POPC   C4A43470  26.077  43.839   7.353
 8332POPC   C1B43471  26.116  43.645   6.453
 8332POPC   C2B43472  26.107  43.680   6.753
 8332POPC   C3B43473  26.133  43.649   7.053
 8332POPC   C4B43474  26.105  43.617   7.353
 8333POPC   NC343475  12.085   8.933   5.553
 8333POPC   PO443476  12.047   8.924   5.853
 8333POPC   GL143477  12.032   8.941   6.153
 8333POPC   GL243478  12.185   9.025   6.153
 8333POPC   C1A43479  12.100   8.937   6.453
 8333POPC   D2A43480  12.048   8.932   6.753
 8333POPC   C3A43481  12.079   9.013   7.053
 8333POPC   C4A43482  12.068   8.997   7.353
 8333POPC   C1B43483  12.312   9.117   6.453
 8333POPC   C2B43484  12.261   9.086   6.753
 8333POPC   C3B43485  12.295   9.131   7.053
 8333POPC   C4B43486  12.273   9.088   7.353
 8334POPC   NC343487  15.132  36.914   5.553
 8334POPC   PO443488  15.155  36.911   5.853
 8334POPC   GL143489  15.221  36.890   6.153
 8334POPC   GL243490  15.202  37.066   6.153
 8334POPC   C1A43491  15.135  36.946   6.453
 8334POPC   D2A43492  15.202  36.898   6.753
 8334POPC   C3A43493  15.198  36.946   7.053
 8334POPC   C4A43494  15.149  36.941   7.353
 8334POPC   C1B43495  15.175  37.196   6.453
 8334POPC   C2B43496  15.177  37.124   6.753
 8334POPC   C3B43497  15.208  37.151   7.053
 8334POPC   C4B43498  15.180  37.176   7.353
 8335POPC   NC343499  29.895  20.576   5.553
 8335POPC   PO443500  29.951  20.577   5.853
 8335POPC   GL143501  29.925  20.642   6.153
 8335POPC   GL243502  29.922  20.473   6.153
 8335POPC   C1A43503  29.872  20.609   6.453
 8335POPC   D2A43504  29.956  20.565   6.753
 8335POPC   C3A43505  29.940  20.565   7.053
 8335POPC   C4A43506  29.937  20.567   7.353
 8335POPC   C1B43507  29.926  20.345   6.453
 8335POPC   C2B43508  29.877  20.366   6.753
 8335POPC   C3B43509  29.928  20.367   7.053
 8335POPC   C4B43510  29.882  20.354   7.353
 8336POPC   NC343511   1.193   2.766   5.553
 8336POPC   PO443512   1.200   2.730   5.853
 8336POPC   GL143513   1.208   2.716   6.153
 8336POPC   GL243514   1.334   2.722   6.153
 8336POPC   C1A43515   1.227   2.770   6.453
 8336POPC   D2A43516   1.201   2.734   6.753
 8336POPC   C3A43517   1.236   2.729   7.053
 8336POPC   C4A43518   1.241   2.793   7.353
 8336POPC   C1B43519   1.450   2.705   6.453
 8336POPC   C2B43520   1.483   2.708   6.753
 8336POPC   C3B43521   1.492   2.692   7.053
 8336POPC   C4B43522   1.479   2.702   7.353
 8337POPC   NC343523  26.783  26.804   5.553
 8337POPC   PO443524  26.837  26.769   5.853
 8337POPC   GL143525  26.801  26.787   6.153
 8337POPC   GL243526  26.652  26.759   6.153
 8337POPC   C1A43527  26.768  26.834   6.453
 8337POPC   D2A43528  26.835  26.818   6.753
 8337POPC   C3A43529  26.783  26.799   7.053
 8337POPC   C4A43530  26.775  26.786   7.353
 8337POPC   C1B43531  26.607  26.775   6.453
 8337POPC   C2B43532  26.617  26.711   6.753
 8337POPC   C3B43533  26.592  26.717   7.053
 8337POPC   C4B43534  26.546  26.741   7.353
 8338POPC   NC343535  44.681  36.165   5.553
 8338POPC   PO443536  44.628  36.131   5.853
 8338POPC   GL143537  44.622  36.089   6.153
 8338POPC   GL243538  44.783  36.034   6.153
 8338POPC   C1A43539  44.710  36.142   6.453
 8338POPC   D2A43540  44.666  36.137   6.753
 8338POPC   C3A43541  44.635  36.110   7.053
 8338POPC   C4A43542  44.697  36.111   7.353
 8338POPC   C1B43543  44.824  35.923   6.453
 8338POPC   C2B43544  44.811  35.923   6.753
 8338POPC   C3B43545  44.773  35.888   7.053
 8338POPC   C4B43546  44.855  35.876   7.353
 8339POPC   NC343547  18.308  41.580   5.553
 8339POPC   PO443548  18.258  41.603   5.853
 8339POPC   GL143549  18.277  41.523   6.153
 8339POPC   GL243550  18.172  41.464   6.153
 8339POPC   C1A43551  18.234  41.542   6.453
 8339POPC   D2A43552  18.272  41.557   6.753
 8339POPC   C3A43553  18.289  41.509   7.053
 8339POPC   C4A43554  18.290  41.554   7.353
 8339POPC   C1B43555  18.115  41.393   6.453
 8339POPC   C2B43556  18.019  41.442   6.753
 8339POPC   C3B43557  18.089  41.444   7.053
 8339POPC   C4B43558  18.081  41.388   7.353
 8340POPC   NC343559  16.733  28.343   5.553
 8340POPC   PO443560  16.735  28.323   5.853
 8340POPC   GL143561  16.731  28.343   6.153
 8340POPC   GL243562  16.761  28.533   6.153
 8340POPC   C1A43563  16.690  28.415   6.453
 8340POPC   D2A43564  16.715  28.394   6.753
 8340POPC   C3A43565  16.696  28.344   7.053
 8340POPC   C4A43566  16.684  28.400   7.353
 8340POPC   C1B43567  16.789  28.615   6.453
 8340POPC   C2B43568  16.821  28.570   6.753
 8340POPC   C3B43569  16.778  28.632   7.053
 8340POPC   C4B43570  16.824  28.576   7.353
 8341POPC   NC343571  35.355  10.525   5.553
 8341POPC   PO443572  35.321  10.529   5.853
 8341POPC   GL143573  35.359  10.503   6.153
 8341POPC   GL243574  35.413  10.396   6.153
 8341POPC   C1A43575  35.398  10.481   6.453
 8341POPC   D2A43576  35.383  10.565   6.753
 8341POPC   C3A43577  35.311  10.520   7.053
 8341POPC   C4A43578  35.388  10.572   7.353
 8341POPC   C1B43579  35.556  10.391   6.453
 8341POPC   C2B43580  35.562  10.405   6.753
 8341POPC   C3B43581  35.539  10.369   7.053
 8341POPC   C4B43582  35.572  10.351   7.353
 8342POPC   NC343583   0.470  38.435   5.553
 8342POPC   PO443584   0.396  38.444   5.853
 8342POPC   GL143585   0.472  38.471   6.153
 8342POPC   GL243586   0.513  38.341   6.153
 8342POPC   C1A43587   0.446  38.489   6.453
 8342POPC   D2A43588   0.414  38.459   6.753
 8342POPC   C3A43589   0.452  38.451   7.053
 8342POPC   C4A43590   0.485  38.412   7.353
 8342POPC   C1B43591   0.530  38.187   6.453
 8342POPC   C2B43592   0.510  38.273   6.753
 8342POPC   C3B43593   0.513  38.182   7.053
 8342POPC   C4B43594   0.559  38.238   7.353
 8343POPC   NC343595  25.298  10.558   5.553
 8343POPC   PO443596  25.287  10.571   5.853
 8343POPC   GL143597  25.231  10.511   6.153
 8343POPC   GL243598  25.239  10.406   6.153
 8343POPC   C1A43599  25.315  10.514   6.453
 8343POPC   D2A43600  25.304  10.481   6.753
 8343POPC   C3A43601  25.273  10.550   7.053
 8343POPC   C4A43602  25.275  10.559   7.353
 8343POPC   C1B43603  25.171  10.323   6.453
 8343POPC   C2B43604  25.174  10.289   6.753
 8343POPC   C3B43605  25.230  10.323   7.053
 8343POPC   C4B43606  25.206  10.236   7.353
 8344POPC   NC343607  12.859  44.636   5.553
 8344POPC   PO443608  12.846  44.694   5.853
 8344POPC   GL143609  12.878  44.701   6.153
 8344POPC   GL243610  12.913  44.511   6.153
 8344POPC   C1A43611  12.897  44.673   6.453
 8344POPC   D2A43612  12.815  44.687   6.753
 8344POPC   C3A43613  12.881  44.710   7.053
 8344POPC   C4A43614  12.846  44.669   7.353
 8344POPC   C1B43615  12.977  44.457   6.453
 8344POPC   C2B43616  12.991  44.445   6.753
 8344POPC   C3B43617  12.960  44.476   7.053
 8344POPC   C4B43618  12.994  44.492   7.353
 8345POPC   NC343619  19.860   8.245   5.553
 8345POPC   PO443620  19.831   8.211   5.853
 8345POPC   GL143621  19.785   8.158   6.153
 8345POPC   GL243622  19.782   8.313   6.153
 8345POPC   C1A43623  19.806   8.235   6.453
 8345POPC   D2A43624  19.814   8.200   6.753
 8345POPC   C3A43625  19.802   8.217   7.053
 8345POPC   C4A43626  19.878   8.196   7.353
 8345POPC   C1B43627  19.667   8.375   6.453
 8345POPC   C2B43628  19.619   8.346   6.753
 8345POPC   C3B43629  19.667   8.361   7.053
 8345POPC   C4B43630  19.687   8.325   7.353
 8346POPC   NC343631  41.540  26.833   5.553
 8346POPC   PO443632  41.550  26.799   5.853
 8346POPC   GL143633  41.518  26.783   6.153
 8346POPC   GL243634  41.664  26.883   6.153
 8346POPC   C1A43635  41.581  26.831   6.453
 8346POPC   D2A43636  41.536  26.808   6.753
 8346POPC   C3A43637  41.577  26.826   7.053
 8346POPC   C4A43638  41.573  26.840   7.353
 8346POPC   C1B43639  41.806  26.949   6.453
 8346POPC   C2B43640  41.785  26.931   6.753
 8346POPC   C3B43641  41.812  26.893   7.053
 8346POPC   C4B43642  41.744  26.862   7.353
 8347POPC   NC343643  29.914  15.978   5.553
 8347POPC   PO443644  29.911  15.956   5.853
 8347POPC   GL143645  29.962  15.987   6.153
 8347POPC   GL243646  29.933  15.801   6.153
 8347POPC   C1A43647  29.904  15.966   6.453
 8347POPC   D2A43648  29.949  15.910   6.753
 8347POPC   C3A43649  29.920  15.926   7.053
 8347POPC   C4A43650  29.907  15.953   7.353
 8347POPC   C1B43651  30.018  15.692   6.453
 8347POPC   C2B43652  29.997  15.761   6.753
 8347POPC   C3B43653  29.989  15.707   7.053
 8347POPC   C4B43654  30.019  15.739   7.353
 8348POPC   NC343655  23.691  18.321   5.553
 8348POPC   PO443656  23.739  18.259   5.853
 8348POPC   GL143657  23.761  18.240   6.153
 8348POPC   GL243658  23.645  18.202   6.153
 8348POPC   C1A43659  23.691  18.329   6.453
 8348POPC   D2A43660  23.688  18.319   6.753
 8348POPC   C3A43661  23.724  18.300   7.053
 8348POPC   C4A43662  23.737  18.241   7.353
 8348POPC   C1B43663  23.661  18.067   6.453
 8348POPC   C2B43664  23.653  18.003   6.753
 8348POPC   C3B43665  23.670  18.076   7.053
 8348POPC   C4B43666  23.658  18.051   7.353
 8349POPC   NC343667  31.461  17.474   5.553
 8349POPC   PO443668  31.448  17.473   5.853
 8349POPC   GL143669  31.487  17.555   6.153
 8349POPC   GL243670  31.390  17.630   6.153
 8349POPC   C1A43671  31.450  17.508   6.453
 8349POPC   D2A43672  31.463  17.480   6.753
 8349POPC   C3A43673  31.429  17.522   7.053
 8349POPC   C4A43674  31.484  17.491   7.353
 8349POPC   C1B43675  31.339  17.781   6.453
 8349POPC   C2B43676  31.347  17.706   6.753
 8349POPC   C3B43677  31.422  17.738   7.053
 8349POPC   C4B43678  31.351  17.722   7.353
 8350POPC   NC343679  40.758  44.692   5.553
 8350POPC   PO443680  40.833  44.634   5.853
 8350POPC   GL143681  40.740  44.685   6.153
 8350POPC   GL243682  40.737  44.533   6.153
 8350POPC   C1A43683  40.817  44.613   6.453
 8350POPC   D2A43684  40.808  44.698   6.753
 8350POPC   C3A43685  40.759  44.698   7.053
 8350POPC   C4A43686  40.773  44.688   7.353
 8350POPC   C1B43687  40.587  44.482   6.453
 8350POPC   C2B43688  40.612  44.447   6.753
 8350POPC   C3B43689  40.570  44.530   7.053
 8350POPC   C4B43690  40.599  44.461   7.353
 8351POPC   NC343691  28.401  36.879   5.553
 8351POPC   PO443692  28.362  36.913   5.853
 8351POPC   GL143693  28.382  36.870   6.153
 8351POPC   GL243694  28.437  36.996   6.153
 8351POPC   C1A43695  28.328  36.863   6.453
 8351POPC   D2A43696  28.357  36.939   6.753
 8351POPC   C3A43697  28.372  36.905   7.053
 8351POPC   C4A43698  28.327  36.890   7.353
 8351POPC   C1B43699  28.517  37.142   6.453
 8351POPC   C2B43700  28.572  37.111   6.753
 8351POPC   C3B43701  28.492  37.067   7.053
 8351POPC   C4B43702  28.577  37.049   7.353
 8352POPC   NC343703  19.048  43.874   5.553
 8352POPC   PO443704  19.054  43.915   5.853
 8352POPC   GL143705  19.038  43.846   6.153
 8352POPC   GL243706  19.178  43.930   6.153
 8352POPC   C1A43707  19.047  43.902   6.453
 8352POPC   D2A43708  19.070  43.928   6.753
 8352POPC   C3A43709  19.022  43.892   7.053
 8352POPC   C4A43710  19.042  43.870   7.353
 8352POPC   C1B43711  19.309  43.893   6.453
 8352POPC   C2B43712  19.320  43.928   6.753
 8352POPC   C3B43713  19.350  43.895   7.053
 8352POPC   C4B43714  19.289  43.875   7.353
 8353POPC   NC343715  39.219  38.484   5.553
 8353POPC   PO443716  39.256  38.458   5.853
 8353POPC   GL143717  39.225  38.455   6.153
 8353POPC   GL243718  39.347  38.342   6.153
 8353POPC   C1A43719  39.206  38.426   6.453
 8353POPC   D2A43720  39.221  38.419   6.753
 8353POPC   C3A43721  39.220  38.503   7.053
 8353POPC   C4A43722  39.210  38.465   7.353
 8353POPC   C1B43723  39.383  38.277   6.453
 8353POPC   C2B43724  39.369  38.319   6.753
 8353POPC   C3B43725  39.405  38.276   7.053
 8353POPC   C4B43726  39.422  38.290   7.353
 8354POPC   NC343727  10.552  20.644   5.553
 8354POPC   PO443728  10.556  20.621   5.853
 8354POPC   GL143729  10.515  20.631   6.153
 8354POPC   GL243730  10.441  20.726   6.153
 8354POPC   C1A43731  10.543  20.607   6.453
 8354POPC   D2A43732  10.560  20.622   6.753
 8354POPC   C3A43733  10.501  20.611   7.053
 8354POPC   C4A43734  10.530  20.641   7.353
 8354POPC   C1B43735  10.432  20.832   6.453
 8354POPC   C2B43736  10.380  20.850   6.753
 8354POPC   C3B43737  10.422  20.829   7.053
 8354POPC   C4B43738  10.455  20.808   7.353
 8355POPC   NC343739   2.731  15.940   5.553
 8355POPC   PO443740   2.803  15.929   5.853
 8355POPC   GL143741   2.718  15.987   6.153
 8355POPC   GL243742   2.756  16.040   6.153
 8355POPC   C1A43743   2.808  15.978   6.453
 8355POPC   D2A43744   2.768  15.924   6.753
 8355POPC   C3A43745   2.793  15.936   7.053
 8355POPC   C4A43746   2.719  15.917   7.353
 8355POPC   C1B43747   2.844  16.161   6.453
 8355POPC   C2B43748   2.865  16.240   6.753
 8355POPC   C3B43749   2.784  16.192   7.053
 8355POPC   C4B43750   2.863  16.169   7.353
 8356POPC   NC343751   5.898  28.399   5.553
 8356POPC   PO443752   5.876  28.319   5.853
 8356POPC   GL143753   5.843  28.356   6.153
 8356POPC   GL243754   5.758  28.246   6.153
 8356POPC   C1A43755   5.831  28.340   6.453
 8356POPC   D2A43756   5.893  28.392   6.753
 8356POPC   C3A43757   5.868  28.403   7.053
 8356POPC   C4A43758   5.855  28.386   7.353
 8356POPC   C1B43759   5.707  28.231   6.453
 8356POPC   C2B43760   5.733  28.191   6.753
 8356POPC   C3B43761   5.702  28.178   7.053
 8356POPC   C4B43762   5.720  28.204   7.353
 8357POPC   NC343763  16.751   1.244   5.553
 8357POPC   PO443764  16.702   1.169   5.853
 8357POPC   GL143765  16.756   1.254   6.153
 8357POPC   GL243766  16.596   1.258   6.153
 8357POPC   C1A43767  16.739   1.226   6.453
 8357POPC   D2A43768  16.709   1.233   6.753
 8357POPC   C3A43769  16.776   1.177   7.053
 8357POPC   C4A43770  16.742   1.259   7.353
 8357POPC   C1B43771  16.512   1.416   6.453
 8357POPC   C2B43772  16.576   1.377   6.753
 8357POPC   C3B43773  16.580   1.351   7.053
 8357POPC   C4B43774  16.602   1.425   7.353
 8358POPC   NC343775  12.858  26.061   5.553
 8358POPC   PO443776  12.847  26.015   5.853
 8358POPC   GL143777  12.887  26.089   6.153
 8358POPC   GL243778  12.928  25.919   6.153
 8358POPC   C1A43779  12.882  26.021   6.453
 8358POPC   D2A43780  12.826  26.001   6.753
 8358POPC   C3A43781  12.870  26.067   7.053
 8358POPC   C4A43782  12.876  26.014   7.353
 8358POPC   C1B43783  13.014  25.792   6.453
 8358POPC   C2B43784  13.018  25.864   6.753
 8358POPC   C3B43785  12.963  25.829   7.053
 8358POPC   C4B43786  13.031  25.847   7.353
 8359POPC   NC343787   8.228  27.635   5.553
 8359POPC   PO443788   8.170  27.585   5.853
 8359POPC   GL143789   8.222  27.589   6.153
 8359POPC   GL243790   8.271  27.508   6.153
 8359POPC   C1A43791   8.212  27.609   6.453
 8359POPC   D2A43792   8.177  27.553   6.753
 8359POPC   C3A43793   8.170  27.555   7.053
 8359POPC   C4A43794   8.173  27.642   7.353
 8359POPC   C1B43795   8.261  27.344   6.453
 8359POPC   C2B43796   8.281  27.387   6.753
 8359POPC   C3B43797   8.318  27.353   7.053
 8359POPC   C4B43798   8.255  27.356   7.353
 8360POPC   NC343799  32.273  35.311   5.553
 8360POPC   PO443800  32.257  35.303   5.853
 8360POPC   GL143801  32.219  35.350   6.153
 8360POPC   GL243802  32.384  35.331   6.153
 8360POPC   C1A43803  32.252  35.378   6.453
 8360POPC   D2A43804  32.278  35.326   6.753
 8360POPC   C3A43805  32.215  35.340   7.053
 8360POPC   C4A43806  32.227  35.376   7.353
 8360POPC   C1B43807  32.473  35.258   6.453
 8360POPC   C2B43808  32.439  35.268   6.753
 8360POPC   C3B43809  32.529  35.252   7.053
 8360POPC   C4B43810  32.460  35.309   7.353
 8361POPC   NC343811  21.360  21.415   5.553
 8361POPC   PO443812  21.375  21.362   5.853
 8361POPC   GL143813  21.379  21.383   6.153
 8361POPC   GL243814  21.451  21.301   6.153
 8361POPC   C1A43815  21.377  21.428   6.453
 8361POPC   D2A43816  21.367  21.342   6.753
 8361POPC   C3A43817  21.365  21.401   7.053
 8361POPC   C4A43818  21.419  21.372   7.353
 8361POPC   C1B43819  21.463  21.090   6.453
 8361POPC   C2B43820  21.409  21.140   6.753
 8361POPC   C3B43821  21.454  21.144   7.053
 8361POPC   C4B43822  21.394  21.140   7.353
 8362POPC   NC343823  42.374  32.247   5.553
 8362POPC   PO443824  42.375  32.243   5.853
 8362POPC   GL143825  42.383  32.252   6.153
 8362POPC   GL243826  42.405  32.197   6.153
 8362POPC   C1A43827  42.308  32.248   6.453
 8362POPC   D2A43828  42.335  32.221   6.753
 8362POPC   C3A43829  42.320  32.286   7.053
 8362POPC   C4A43830  42.335  32.241   7.353
 8362POPC   C1B43831  42.499  32.161   6.453
 8362POPC   C2B43832  42.566  32.135   6.753
 8362POPC   C3B43833  42.564  32.127   7.053
 8362POPC   C4B43834  42.538  32.106   7.353
 8363POPC   NC343835  12.810  38.491   5.553
 8363POPC   PO443836  12.874  38.451   5.853
 8363POPC   GL143837  12.863  38.461   6.153
 8363POPC   GL243838  12.778  38.462   6.153
 8363POPC   C1A43839  12.835  38.470   6.453
 8363POPC   D2A43840  12.867  38.475   6.753
 8363POPC   C3A43841  12.867  38.475   7.053
 8363POPC   C4A43842  12.851  38.489   7.353
 8363POPC   C1B43843  12.576  38.424   6.453
 8363POPC   C2B43844  12.619  38.351   6.753
 8363POPC   C3B43845  12.568  38.410   7.053
 8363POPC   C4B43846  12.656  38.427   7.353
 8364POPC   NC343847  14.398  40.760   5.553
 8364POPC   PO443848  14.431  40.773   5.853
 8364POPC   GL143849  14.453  40.781   6.153
 8364POPC   GL243850  14.505  40.767   6.153
 8364POPC   C1A43851  14.391  40.752   6.453
 8364POPC   D2A43852  14.415  40.800   6.753
 8364POPC   C3A43853  14.418  40.748   7.053
 8364POPC   C4A43854  14.431  40.805   7.353
 8364POPC   C1B43855  14.697  40.699   6.453
 8364POPC   C2B43856  14.682  40.701   6.753
 8364POPC   C3B43857  14.678  40.744   7.053
 8364POPC   C4B43858  14.616  40.768   7.353
 8365POPC   NC343859  26.836   0.391   5.553
 8365POPC   PO443860  26.860   0.420   5.853
 8365POPC   GL143861  26.809   0.414   6.153
 8365POPC   GL243862  26.698   0.540   6.153
 8365POPC   C1A43863  26.818   0.482   6.453
 8365POPC   D2A43864  26.866   0.411   6.753
 8365POPC   C3A43865  26.768   0.478   7.053
 8365POPC   C4A43866  26.831   0.412   7.353
 8365POPC   C1B43867  26.579   0.555   6.453
 8365POPC   C2B43868  26.588   0.576   6.753
 8365POPC   C3B43869  26.618   0.531   7.053
 8365POPC   C4B43870  26.564   0.542   7.353
 8366POPC   NC343871  24.469  12.100   5.553
 8366POPC   PO443872  24.522  12.079   5.853
 8366POPC   GL143873  24.441  12.047   6.153
 8366POPC   GL243874  24.519  12.159   6.153
 8366POPC   C1A43875  24.526  12.075   6.453
 8366POPC   D2A43876  24.531  12.063   6.753
 8366POPC   C3A43877  24.506  12.094   7.053
 8366POPC   C4A43878  24.539  12.104   7.353
 8366POPC   C1B43879  24.582  12.264   6.453
 8366POPC   C2B43880  24.583  12.305   6.753
 8366POPC   C3B43881  24.589  12.328   7.053
 8366POPC   C4B43882  24.666  12.284   7.353
 8367POPC   NC343883  40.803  31.436   5.553
 8367POPC   PO443884  40.813  31.502   5.853
 8367POPC   GL143885  40.746  31.427   6.153
 8367POPC   GL243886  40.821  31.353   6.153
 8367POPC   C1A43887  40.825  31.473   6.453
 8367POPC   D2A43888  40.828  31.492   6.753
 8367POPC   C3A43889  40.795  31.499   7.053
 8367POPC   C4A43890  40.788  31.460   7.353
 8367POPC   C1B43891  40.842  31.239   6.453
 8367POPC   C2B43892  40.826  31.209   6.753
 8367POPC   C3B43893  40.850  31.207   7.053
 8367POPC   C4B43894  40.830  31.255   7.353
 8368POPC   NC343895  12.834   8.192   5.553
 8368POPC   PO443896  12.891   8.147   5.853
 8368POPC   GL143897  12.848   8.157   6.153
 8368POPC   GL243898  12.733   8.143   6.153
 8368POPC   C1A43899  12.803   8.234   6.453
 8368POPC   D2A43900  12.847   8.208   6.753
 8368POPC   C3A43901  12.833   8.220   7.053
 8368POPC   C4A43902  12.814   8.151   7.353
 8368POPC   C1B43903  12.641   8.049   6.453
 8368POPC   C2B43904  12.608   8.107   6.753
 8368POPC   C3B43905  12.669   8.118   7.053
 8368POPC   C4B43906  12.686   8.044   7.353
 8369POPC   NC343907  38.445  42.355   5.553
 8369POPC   PO443908  38.465  42.296   5.853
 8369POPC   GL143909  38.498  42.360   6.153
 8369POPC   GL243910  38.393  42.435   6.153
 8369POPC   C1A43911  38.443  42.350   6.453
 8369POPC   D2A43912  38.441  42.286   6.753
 8369POPC   C3A43913  38.426  42.317   7.053
 8369POPC   C4A43914  38.462  42.333   7.353
 8369POPC   C1B43915  38.226  42.539   6.453
 8369POPC   C2B43916  38.280  42.481   6.753
 8369POPC   C3B43917  38.316  42.499   7.053
 8369POPC   C4B43918  38.295  42.514   7.353
 8370POPC   NC343919   7.454  33.040   5.553
 8370POPC   PO443920   7.379  33.062   5.853
 8370POPC   GL143921   7.391  32.979   6.153
 8370POPC   GL243922   7.468  32.954   6.153
 8370POPC   C1A43923   7.435  33.002   6.453
 8370POPC   D2A43924   7.393  33.048   6.753
 8370POPC   C3A43925   7.409  33.049   7.053
 8370POPC   C4A43926   7.392  32.978   7.353
 8370POPC   C1B43927   7.535  32.805   6.453
 8370POPC   C2B43928   7.510  32.848   6.753
 8370POPC   C3B43929   7.539  32.817   7.053
 8370POPC   C4B43930   7.533  32.767   7.353
 8371POPC   NC343931   1.176  17.503   5.553
 8371POPC   PO443932   1.225  17.473   5.853
 8371POPC   GL143933   1.220  17.498   6.153
 8371POPC   GL243934   1.271  17.590   6.153
 8371POPC   C1A43935   1.180  17.553   6.453
 8371POPC   D2A43936   1.201  17.472   6.753
 8371POPC   C3A43937   1.255  17.476   7.053
 8371POPC   C4A43938   1.198  17.468   7.353
 8371POPC   C1B43939   1.431  17.659   6.453
 8371POPC   C2B43940   1.396  17.681   6.753
 8371POPC   C3B43941   1.372  17.679   7.053
 8371POPC   C4B43942   1.386  17.641   7.353
 8372POPC   NC343943  11.281  22.169   5.553
 8372POPC   PO443944  11.282  22.181   5.853
 8372POPC   GL143945  11.345  22.151   6.153
 8372POPC   GL243946  11.164  22.092   6.153
 8372POPC   C1A43947  11.284  22.168   6.453
 8372POPC   D2A43948  11.350  22.159   6.753
 8372POPC   C3A43949  11.341  22.166   7.053
 8372POPC   C4A43950  11.319  22.162   7.353
 8372POPC   C1B43951  11.104  22.000   6.453
 8372POPC   C2B43952  11.118  22.022   6.753
 8372POPC   C3B43953  11.088  22.044   7.053
 8372POPC   C4B43954  11.105  22.020   7.353
 8373POPC   NC343955  23.734   2.027   5.553
 8373POPC   PO443956  23.705   1.949   5.853
 8373POPC   GL143957  23.697   1.949   6.153
 8373POPC   GL243958  23.694   2.104   6.153
 8373POPC   C1A43959  23.708   1.971   6.453
 8373POPC   D2A43960  23.721   1.975   6.753
 8373POPC   C3A43961  23.702   1.975   7.053
 8373POPC   C4A43962  23.743   1.964   7.353
 8373POPC   C1B43963  23.727   2.209   6.453
 8373POPC   C2B43964  23.780   2.259   6.753
 8373POPC   C3B43965  23.766   2.252   7.053
 8373POPC   C4B43966  23.724   2.227   7.353
 8374POPC   NC343967  12.099  40.761   5.553
 8374POPC   PO443968  12.031  40.755   5.853
 8374POPC   GL143969  12.108  40.811   6.153
 8374POPC   GL243970  12.190  40.768   6.153
 8374POPC   C1A43971  12.076  40.765   6.453
 8374POPC   D2A43972  12.034  40.768   6.753
 8374POPC   C3A43973  12.093  40.750   7.053
 8374POPC   C4A43974  12.039  40.820   7.353
 8374POPC   C1B43975  12.281  40.746   6.453
 8374POPC   C2B43976  12.359  40.744   6.753
 8374POPC   C3B43977  12.309  40.765   7.053
 8374POPC   C4B43978  12.325  40.800   7.353
 8375POPC   NC343979  33.844  19.879   5.553
 8375POPC   PO443980  33.776  19.842   5.853
 8375POPC   GL143981  33.794  19.830   6.153
 8375POPC   GL243982  33.886  19.799   6.153
 8375POPC   C1A43983  33.767  19.883   6.453
 8375POPC   D2A43984  33.756  19.792   6.753
 8375POPC   C3A43985  33.766  19.832   7.053
 8375POPC   C4A43986  33.756  19.859   7.353
 8375POPC   C1B43987  34.056  19.787   6.453
 8375POPC   C2B43988  34.002  19.762   6.753
 8375POPC   C3B43989  34.012  19.764   7.053
 8375POPC   C4B43990  34.097  19.773   7.353
 8376POPC   NC343991   9.017  15.222   5.553
 8376POPC   PO443992   8.978  15.171   5.853
 8376POPC   GL143993   8.945  15.167   6.153
 8376POPC   GL243994   9.057  15.291   6.153
 8376POPC   C1A43995   8.929  15.228   6.453
 8376POPC   D2A43996   8.929  15.159   6.753
 8376POPC   C3A43997   8.984  15.167   7.053
 8376POPC   C4A43998   9.018  15.197   7.353
 8376POPC   C1B43999   9.193  15.311   6.453
 8376POPC   C2B44000   9.162  15.362   6.753
 8376POPC   C3B44001   9.141  15.312   7.053
 8376POPC   C4B44002   9.204  15.350   7.353
 8377POPC   NC344003  19.055  19.808   5.553
 8377POPC   PO444004  19.046  19.870   5.853
 8377POPC   GL144005  19.098  19.854   6.153
 8377POPC   GL244006  18.955  19.776   6.153
 8377POPC   C1A44007  19.076  19.868   6.453
 8377POPC   D2A44008  19.082  19.796   6.753
 8377POPC   C3A44009  19.014  19.789   7.053
 8377POPC   C4A44010  19.028  19.829   7.353
 8377POPC   C1B44011  18.790  19.739   6.453
 8377POPC   C2B44012  18.811  19.713   6.753
 8377POPC   C3B44013  18.816  19.707   7.053
 8377POPC   C4B44014  18.815  19.763   7.353
 8378POPC   NC344015  19.807   7.373   5.553
 8378POPC   PO444016  19.793   7.395   5.853
 8378POPC   GL144017  19.813   7.372   6.153
 8378POPC   GL244018  19.889   7.568   6.153
 8378POPC   C1A44019  19.862   7.437   6.453
 8378POPC   D2A44020  19.871   7.393   6.753
 8378POPC   C3A44021  19.800   7.439   7.053
 8378POPC   C4A44022  19.866   7.467   7.353
 8378POPC   C1B44023  19.903   7.645   6.453
 8378POPC   C2B44024  19.910   7.674   6.753
 8378POPC   C3B44025  19.932   7.650   7.053
 8378POPC   C4B44026  19.904   7.622   7.353
 8379POPC   NC344027  43.908  44.628   5.553
 8379POPC   PO444028  43.861  44.662   5.853
 8379POPC   GL144029  43.911  44.654   6.153
 8379POPC   GL244030  43.789  44.588   6.153
 8379POPC   C1A44031  43.891  44.635   6.453
 8379POPC   D2A44032  43.908  44.648   6.753
 8379POPC   C3A44033  43.884  44.702   7.053
 8379POPC   C4A44034  43.838  44.614   7.353
 8379POPC   C1B44035  43.716  44.485   6.453
 8379POPC   C2B44036  43.687  44.474   6.753
 8379POPC   C3B44037  43.668  44.488   7.053
 8379POPC   C4B44038  43.710  44.564   7.353
 8380POPC   NC344039  12.046  41.531   5.553
 8380POPC   PO444040  12.040  41.560   5.853
 8380POPC   GL144041  12.078  41.572   6.153
 8380POPC   GL244042  12.157  41.559   6.153
 8380POPC   C1A44043  12.048  41.516   6.453
 8380POPC   D2A44044  12.076  41.597   6.753
 8380POPC   C3A44045  12.104  41.578   7.053
 8380POPC   C4A44046  12.093  41.607   7.353
 8380POPC   C1B44047  12.313  41.567   6.453
 8380POPC   C2B44048  12.311  41.576   6.753
 8380POPC   C3B44049  12.286  41.598   7.053
 8380POPC   C4B44050  12.292  41.587   7.353
 8381POPC   NC344051  22.905  11.302   5.553
 8381POPC   PO444052  22.951  11.337   5.853
 8381POPC   GL144053  22.897  11.311   6.153
 8381POPC   GL244054  22.868  11.190   6.153
 8381POPC   C1A44055  22.985  11.289   6.453
 8381POPC   D2A44056  22.932  11.272   6.753
 8381POPC   C3A44057  22.953  11.335   7.053
 8381POPC   C4A44058  22.974  11.308   7.353
 8381POPC   C1B44059  22.772  11.082   6.453
 8381POPC   C2B44060  22.793  11.127   6.753
 8381POPC   C3B44061  22.745  11.113   7.053
 8381POPC   C4B44062  22.752  11.086   7.353
 8382POPC   NC344063  17.555  40.760   5.553
 8382POPC   PO444064  17.508  40.748   5.853
 8382POPC   GL144065  17.533  40.819   6.153
 8382POPC   GL244066  17.611  40.718   6.153
 8382POPC   C1A44067  17.532  40.781   6.453
 8382POPC   D2A44068  17.469  40.762   6.753
 8382POPC   C3A44069  17.511  40.780   7.053
 8382POPC   C4A44070  17.556  40.818   7.353
 8382POPC   C1B44071  17.789  40.662   6.453
 8382POPC   C2B44072  17.721  40.743   6.753
 8382POPC   C3B44073  17.730  40.697   7.053
 8382POPC   C4B44074  17.778  40.709   7.353
 8383POPC   NC344075  15.997   5.052   5.553
 8383POPC   PO444076  15.920   5.083   5.853
 8383POPC   GL144077  15.976   5.099   6.153
 8383POPC   GL244078  15.845   5.089   6.153
 8383POPC   C1A44079  15.907   5.124   6.453
 8383POPC   D2A44080  15.905   5.123   6.753
 8383POPC   C3A44081  15.923   5.066   7.053
 8383POPC   C4A44082  15.989   5.073   7.353
 8383POPC   C1B44083  15.720   4.977   6.453
 8383POPC   C2B44084  15.686   4.970   6.753
 8383POPC   C3B44085  15.703   5.057   7.053
 8383POPC   C4B44086  15.743   5.042   7.353
 8384POPC   NC344087  13.623  43.861   5.553
 8384POPC   PO444088  13.655  43.885   5.853
 8384POPC   GL144089  13.621  43.935   6.153
 8384POPC   GL244090  13.634  43.766   6.153
 8384POPC   C1A44091  13.658  43.863   6.453
 8384POPC   D2A44092  13.614  43.882   6.753
 8384POPC   C3A44093  13.649  43.859   7.053
 8384POPC   C4A44094  13.636  43.925   7.353
 8384POPC   C1B44095  13.584  43.617   6.453
 8384POPC   C2B44096  13.603  43.650   6.753
 8384POPC   C3B44097  13.588  43.628   7.053
 8384POPC   C4B44098  13.637  43.598   7.353
 8385POPC   NC344099  32.246  36.148   5.553
 8385POPC   PO444100  32.264  36.143   5.853
 8385POPC   GL144101  32.219  36.138   6.153
 8385POPC   GL244102  32.271  36.264   6.153
 8385POPC   C1A44103  32.235  36.175   6.453
 8385POPC   D2A44104  32.263  36.113   6.753
 8385POPC   C3A44105  32.223  36.116   7.053
 8385POPC   C4A44106  32.277  36.164   7.353
 8385POPC   C1B44107  32.216  36.392   6.453
 8385POPC   C2B44108  32.196  36.344   6.753
 8385POPC   C3B44109  32.211  36.368   7.053
 8385POPC   C4B44110  32.205  36.371   7.353
 8386POPC   NC344111  36.102  43.080   5.553
 8386POPC   PO444112  36.112  43.091   5.853
 8386POPC   GL144113  36.080  43.082   6.153
 8386POPC   GL244114  36.279  43.145   6.153
 8386POPC   C1A44115  36.101  43.119   6.453
 8386POPC   D2A44116  36.082  43.154   6.753
 8386POPC   C3A44117  36.090  43.119   7.053
 8386POPC   C4A44118  36.161  43.138   7.353
 8386POPC   C1B44119  36.405  43.097   6.453
 8386POPC   C2B44120  36.329  43.087   6.753
 8386POPC   C3B44121  36.400  43.077   7.053
 8386POPC   C4B44122  36.399  43.083   7.353
 8387POPC   NC344123  41.602  31.513   5.553
 8387POPC   PO444124  41.602  31.497   5.853
 8387POPC   GL144125  41.511  31.449   6.153
 8387POPC   GL244126  41.700  31.573   6.153
 8387POPC   C1A44127  41.545  31.433   6.453
 8387POPC   D2A44128  41.573  31.427   6.753
 8387POPC   C3A44129  41.510  31.456   7.053
 8387POPC   C4A44130  41.591  31.520   7.353
 8387POPC   C1B44131  41.811  31.616   6.453
 8387POPC   C2B44132  41.737  31.647   6.753
 8387POPC   C3B44133  41.786  31.596   7.053
 8387POPC   C4B44134  41.788  31.561   7.353
 8388POPC   NC344135  28.337  15.953   5.553
 8388POPC   PO444136  28.352  15.919   5.853
 8388POPC   GL144137  28.348  15.980   6.153
 8388POPC   GL244138  28.314  15.905   6.153
 8388POPC   C1A44139  28.355  16.004   6.453
 8388POPC   D2A44140  28.329  15.979   6.753
 8388POPC   C3A44141  28.403  15.957   7.053
 8388POPC   C4A44142  28.405  15.999   7.353
 8388POPC   C1B44143  28.178  15.842   6.453
 8388POPC   C2B44144  28.193  15.846   6.753
 8388POPC   C3B44145  28.201  15.840   7.053
 8388POPC   C4B44146  28.212  15.803   7.353
 8389POPC   NC344147   7.431   1.986   5.553
 8389POPC   PO444148   7.414   1.971   5.853
 8389POPC   GL144149   7.452   2.031   6.153
 8389POPC   GL244150   7.425   1.831   6.153
 8389POPC   C1A44151   7.395   1.972   6.453
 8389POPC   D2A44152   7.465   1.997   6.753
 8389POPC   C3A44153   7.374   2.036   7.053
 8389POPC   C4A44154   7.389   1.955   7.353
 8389POPC   C1B44155   7.414   1.713   6.453
 8389POPC   C2B44156   7.325   1.793   6.753
 8389POPC   C3B44157   7.394   1.789   7.053
 8389POPC   C4B44158   7.392   1.722   7.353
 8390POPC   NC344159  27.624  35.351   5.553
 8390POPC   PO444160  27.564  35.326   5.853
 8390POPC   GL144161  27.583  35.367   6.153
 8390POPC   GL244162  27.503  35.436   6.153
 8390POPC   C1A44163  27.638  35.394   6.453
 8390POPC   D2A44164  27.637  35.347   6.753
 8390POPC   C3A44165  27.547  35.342   7.053
 8390POPC   C4A44166  27.594  35.370   7.353
 8390POPC   C1B44167  27.457  35.515   6.453
 8390POPC   C2B44168  27.480  35.597   6.753
 8390POPC   C3B44169  27.460  35.541   7.053
 8390POPC   C4B44170  27.454  35.576   7.353
 8391POPC   NC344171  27.632  27.618   5.553
 8391POPC   PO444172  27.588  27.622   5.853
 8391POPC   GL144173  27.543  27.639   6.153
 8391POPC   GL244174  27.573  27.457   6.153
 8391POPC   C1A44175  27.553  27.612   6.453
 8391POPC   D2A44176  27.608  27.547   6.753
 8391POPC   C3A44177  27.555  27.575   7.053
 8391POPC   C4A44178  27.570  27.545   7.353
 8391POPC   C1B44179  27.556  27.349   6.453
 8391POPC   C2B44180  27.576  27.309   6.753
 8391POPC   C3B44181  27.570  27.340   7.053
 8391POPC   C4B44182  27.495  27.307   7.353
 8392POPC   NC344183  33.779  37.645   5.553
 8392POPC   PO444184  33.848  37.644   5.853
 8392POPC   GL144185  33.830  37.725   6.153
 8392POPC   GL244186  33.848  37.539   6.153
 8392POPC   C1A44187  33.768  37.664   6.453
 8392POPC   D2A44188  33.774  37.682   6.753
 8392POPC   C3A44189  33.841  37.647   7.053
 8392POPC   C4A44190  33.786  37.724   7.353
 8392POPC   C1B44191  33.982  37.449   6.453
 8392POPC   C2B44192  33.911  37.501   6.753
 8392POPC   C3B44193  33.945  37.441   7.053
 8392POPC   C4B44194  33.924  37.450   7.353
 8393POPC   NC344195  19.796  34.530   5.553
 8393POPC   PO444196  19.881  34.526   5.853
 8393POPC   GL144197  19.815  34.614   6.153
 8393POPC   GL244198  19.707  34.522   6.153
 8393POPC   C1A44199  19.792  34.616   6.453
 8393POPC   D2A44200  19.848  34.546   6.753
 8393POPC   C3A44201  19.859  34.553   7.053
 8393POPC   C4A44202  19.831  34.531   7.353
 8393POPC   C1B44203  19.609  34.571   6.453
 8393POPC   C2B44204  19.620  34.524   6.753
 8393POPC   C3B44205  19.542  34.533   7.053
 8393POPC   C4B44206  19.593  34.582   7.353
 8394POPC   NC344207  26.065  37.657   5.553
 8394POPC   PO444208  26.014  37.694   5.853
 8394POPC   GL144209  26.045  37.645   6.153
 8394POPC   GL244210  25.982  37.783   6.153
 8394POPC   C1A44211  26.022  37.694   6.453
 8394POPC   D2A44212  26.005  37.664   6.753
 8394POPC   C3A44213  26.069  37.727   7.053
 8394POPC   C4A44214  26.069  37.648   7.353
 8394POPC   C1B44215  25.902  37.895   6.453
 8394POPC   C2B44216  25.871  37.898   6.753
 8394POPC   C3B44217  25.904  37.850   7.053
 8394POPC   C4B44218  25.895  37.911   7.353
 8395POPC   NC344219  25.233   0.390   5.553
 8395POPC   PO444220  25.303   0.403   5.853
 8395POPC   GL144221  25.297   0.450   6.153
 8395POPC   GL244222  25.125   0.392   6.153
 8395POPC   C1A44223  25.223   0.476   6.453
 8395POPC   D2A44224  25.239   0.433   6.753
 8395POPC   C3A44225  25.229   0.450   7.053
 8395POPC   C4A44226  25.257   0.423   7.353
 8395POPC   C1B44227  25.021   0.472   6.453
 8395POPC   C2B44228  25.027   0.467   6.753
 8395POPC   C3B44229  24.993   0.472   7.053
 8395POPC   C4B44230  25.000   0.475   7.353
 8396POPC   NC344231  22.944   9.709   5.553
 8396POPC   PO444232  22.926   9.708   5.853
 8396POPC   GL144233  22.950   9.772   6.153
 8396POPC   GL244234  22.923   9.843   6.153
 8396POPC   C1A44235  22.970   9.716   6.453
 8396POPC   D2A44236  22.917   9.773   6.753
 8396POPC   C3A44237  22.937   9.762   7.053
 8396POPC   C4A44238  22.913   9.760   7.353
 8396POPC   C1B44239  22.976  10.035   6.453
 8396POPC   C2B44240  22.953  10.012   6.753
 8396POPC   C3B44241  22.978  10.022   7.053
 8396POPC   C4B44242  22.940   9.974   7.353
 8397POPC   NC344243  14.379  17.553   5.553
 8397POPC   PO444244  14.392  17.509   5.853
 8397POPC   GL144245  14.381  17.552   6.153
 8397POPC   GL244246  14.306  17.467   6.153
 8397POPC   C1A44247  14.371  17.519   6.453
 8397POPC   D2A44248  14.367  17.532   6.753
 8397POPC   C3A44249  14.446  17.517   7.053
 8397POPC   C4A44250  14.405  17.548   7.353
 8397POPC   C1B44251  14.206  17.428   6.453
 8397POPC   C2B44252  14.117  17.445   6.753
 8397POPC   C3B44253  14.155  17.456   7.053
 8397POPC   C4B44254  14.117  17.438   7.353
 8398POPC   NC344255  31.505  40.791   5.553
 8398POPC   PO444256  31.432  40.745   5.853
 8398POPC   GL144257  31.506  40.825   6.153
 8398POPC   GL244258  31.597  40.781   6.153
 8398POPC   C1A44259  31.443  40.817   6.453
 8398POPC   D2A44260  31.508  40.744   6.753
 8398POPC   C3A44261  31.437  40.743   7.053
 8398POPC   C4A44262  31.451  40.747   7.353
 8398POPC   C1B44263  31.706  40.702   6.453
 8398POPC   C2B44264  31.696  40.664   6.753
 8398POPC   C3B44265  31.681  40.689   7.053
 8398POPC   C4B44266  31.689  40.657   7.353
 8399POPC   NC344267  22.971  35.369   5.553
 8399POPC   PO444268  22.984  35.336   5.853
 8399POPC   GL144269  22.916  35.386   6.153
 8399POPC   GL244270  22.869  35.202   6.153
 8399POPC   C1A44271  22.933  35.345   6.453
 8399POPC   D2A44272  22.953  35.346   6.753
 8399POPC   C3A44273  22.934  35.336   7.053
 8399POPC   C4A44274  22.932  35.385   7.353
 8399POPC   C1B44275  22.912  35.092   6.453
 8399POPC   C2B44276  22.864  35.100   6.753
 8399POPC   C3B44277  22.871  35.090   7.053
 8399POPC   C4B44278  22.873  35.115   7.353
 8400POPC   NC344279   2.756  12.887   5.553
 8400POPC   PO444280   2.811  12.861   5.853
 8400POPC   GL144281   2.716  12.855   6.153
 8400POPC   GL244282   2.726  12.757   6.153
 8400POPC   C1A44283   2.807  12.893   6.453
 8400POPC   D2A44284   2.743  12.860   6.753
 8400POPC   C3A44285   2.723  12.892   7.053
 8400POPC   C4A44286   2.759  12.825   7.353
 8400POPC   C1B44287   2.713  12.606   6.453
 8400POPC   C2B44288   2.720  12.622   6.753
 8400POPC   C3B44289   2.715  12.627   7.053
 8400POPC   C4B44290   2.713  12.647   7.353
 8401POPC   NC344291  26.020  27.582   5.553
 8401POPC   PO444292  26.075  27.593   5.853
 8401POPC   GL144293  26.064  27.564   6.153
 8401POPC   GL244294  26.029  27.699   6.153
 8401POPC   C1A44295  26.029  27.583   6.453
 8401POPC   D2A44296  26.017  27.641   6.753
 8401POPC   C3A44297  26.038  27.619   7.053
 8401POPC   C4A44298  26.030  27.546   7.353
 8401POPC   C1B44299  25.953  27.848   6.453
 8401POPC   C2B44300  25.976  27.828   6.753
 8401POPC   C3B44301  25.954  27.867   7.053
 8401POPC   C4B44302  25.993  27.826   7.353
 8402POPC   NC344303  14.409  24.481   5.553
 8402POPC   PO444304  14.428  24.530   5.853
 8402POPC   GL144305  14.354  24.514   6.153
 8402POPC   GL244306  14.410  24.383   6.153
 8402POPC   C1A44307  14.389  24.518   6.453
 8402POPC   D2A44308  14.383  24.504   6.753
 8402POPC   C3A44309  14.417  24.529   7.053
 8402POPC   C4A44310  14.429  24.517   7.353
 8402POPC   C1B44311  14.404  24.287   6.453
 8402POPC   C2B44312  14.325  24.195   6.753
 8402POPC   C3B44313  14.401  24.261   7.053
 8402POPC   C4B44314  14.366  24.212   7.353
 8403POPC   NC344315  10.515   4.319   5.553
 8403POPC   PO444316  10.481   4.335   5.853
 8403POPC   GL144317  10.567   4.348   6.153
 8403POPC   GL244318  10.456   4.442   6.153
 8403POPC   C1A44319  10.571   4.335   6.453
 8403POPC   D2A44320  10.569   4.357   6.753
 8403POPC   C3A44321  10.564   4.269   7.053
 8403POPC   C4A44322  10.533   4.363   7.353
 8403POPC   C1B44323  10.335   4.510   6.453
 8403POPC   C2B44324  10.344   4.492   6.753
 8403POPC   C3B44325  10.318   4.500   7.053
 8403POPC   C4B44326  10.319   4.522   7.353
 8404POPC   NC344327  24.481  28.381   5.553
 8404POPC   PO444328  24.529  28.353   5.853
 8404POPC   GL144329  24.496  28.335   6.153
 8404POPC   GL244330  24.320  28.414   6.153
 8404POPC   C1A44331  24.509  28.409   6.453
 8404POPC   D2A44332  24.459  28.321   6.753
 8404POPC   C3A44333  24.502  28.321   7.053
 8404POPC   C4A44334  24.479  28.325   7.353
 8404POPC   C1B44335  24.290  28.361   6.453
 8404POPC   C2B44336  24.265  28.377   6.753
 8404POPC   C3B44337  24.252  28.389   7.053
 8404POPC   C4B44338  24.195  28.341   7.353
 8405POPC   NC344339  13.581  27.616   5.553
 8405POPC   PO444340  13.584  27.613   5.853
 8405POPC   GL144341  13.628  27.567   6.153
 8405POPC   GL244342  13.613  27.427   6.153
 8405POPC   C1A44343  13.659  27.554   6.453
 8405POPC   D2A44344  13.618  27.566   6.753
 8405POPC   C3A44345  13.634  27.570   7.053
 8405POPC   C4A44346  13.630  27.640   7.353
 8405POPC   C1B44347  13.522  27.399   6.453
 8405POPC   C2B44348  13.602  27.311   6.753
 8405POPC   C3B44349  13.524  27.387   7.053
 8405POPC   C4B44350  13.560  27.314   7.353
 8406POPC   NC344351  20.570  44.661   5.553
 8406POPC   PO444352  20.574  44.642   5.853
 8406POPC   GL144353  20.636  44.628   6.153
 8406POPC   GL244354  20.684  44.630   6.153
 8406POPC   C1A44355  20.650  44.674   6.453
 8406POPC   D2A44356  20.656  44.664   6.753
 8406POPC   C3A44357  20.598  44.652   7.053
 8406POPC   C4A44358  20.597  44.686   7.353
 8406POPC   C1B44359  20.786  44.569   6.453
 8406POPC   C2B44360  20.853  44.510   6.753
 8406POPC   C3B44361  20.842  44.549   7.053
 8406POPC   C4B44362  20.840  44.490   7.353
 8407POPC   NC344363  12.851  39.992   5.553
 8407POPC   PO444364  12.830  40.012   5.853
 8407POPC   GL144365  12.893  40.046   6.153
 8407POPC   GL244366  12.825  40.095   6.153
 8407POPC   C1A44367  12.879  40.038   6.453
 8407POPC   D2A44368  12.802  40.048   6.753
 8407POPC   C3A44369  12.882  40.022   7.053
 8407POPC   C4A44370  12.874  40.040   7.353
 8407POPC   C1B44371  12.816  40.213   6.453
 8407POPC   C2B44372  12.791  40.258   6.753
 8407POPC   C3B44373  12.792  40.230   7.053
 8407POPC   C4B44374  12.794  40.241   7.353
 8408POPC   NC344375   9.016   2.025   5.553
 8408POPC   PO444376   8.935   2.009   5.853
 8408POPC   GL144377   8.990   1.983   6.153
 8408POPC   GL244378   8.813   1.938   6.153
 8408POPC   C1A44379   8.979   1.985   6.453
 8408POPC   D2A44380   8.931   1.972   6.753
 8408POPC   C3A44381   8.978   2.012   7.053
 8408POPC   C4A44382   8.956   1.956   7.353
 8408POPC   C1B44383   8.730   2.009   6.453
 8408POPC   C2B44384   8.739   2.004   6.753
 8408POPC   C3B44385   8.711   1.933   7.053
 8408POPC   C4B44386   8.700   1.929   7.353
 8409POPC   NC344387  12.091  14.376   5.553
 8409POPC   PO444388  12.123  14.449   5.853
 8409POPC   GL144389  12.050  14.437   6.153
 8409POPC   GL244390  12.211  14.402   6.153
 8409POPC   C1A44391  12.063  14.413   6.453
 8409POPC   D2A44392  12.090  14.374   6.753
 8409POPC   C3A44393  12.092  14.449   7.053
 8409POPC   C4A44394  12.124  14.432   7.353
 8409POPC   C1B44395  12.354  14.429   6.453
 8409POPC   C2B44396  12.337  14.421   6.753
 8409POPC   C3B44397  12.362  14.412   7.053
 8409POPC   C4B44398  12.312  14.380   7.353
 8410POPC   NC344399  32.243  24.493   5.553
 8410POPC   PO444400  32.269  24.460   5.853
 8410POPC   GL144401  32.207  24.524   6.153
 8410POPC   GL244402  32.173  24.468   6.153
 8410POPC   C1A44403  32.278  24.488   6.453
 8410POPC   D2A44404  32.232  24.486   6.753
 8410POPC   C3A44405  32.207  24.442   7.053
 8410POPC   C4A44406  32.239  24.479   7.353
 8410POPC   C1B44407  32.021  24.418   6.453
 8410POPC   C2B44408  32.053  24.376   6.753
 8410POPC   C3B44409  32.022  24.428   7.053
 8410POPC   C4B44410  32.045  24.358   7.353
 8411POPC   NC344411  37.638  29.107   5.553
 8411POPC   PO444412  37.701  29.123   5.853
 8411POPC   GL144413  37.664  29.135   6.153
 8411POPC   GL244414  37.610  29.091   6.153
 8411POPC   C1A44415  37.695  29.168   6.453
 8411POPC   D2A44416  37.640  29.166   6.753
 8411POPC   C3A44417  37.673  29.126   7.053
 8411POPC   C4A44418  37.719  29.190   7.353
 8411POPC   C1B44419  37.504  28.972   6.453
 8411POPC   C2B44420  37.513  29.019   6.753
 8411POPC   C3B44421  37.464  28.967   7.053
 8411POPC   C4B44422  37.474  29.000   7.353
 8412POPC   NC344423  15.999   4.345   5.553
 8412POPC   PO444424  15.990   4.314   5.853
 8412POPC   GL144425  15.991   4.329   6.153
 8412POPC   GL244426  15.788   4.363   6.153
 8412POPC   C1A44427  15.919   4.292   6.453
 8412POPC   D2A44428  15.960   4.360   6.753
 8412POPC   C3A44429  15.981   4.313   7.053
 8412POPC   C4A44430  16.004   4.281   7.353
 8412POPC   C1B44431  15.731   4.343   6.453
 8412POPC   C2B44432  15.670   4.348   6.753
 8412POPC   C3B44433  15.702   4.273   7.053
 8412POPC   C4B44434  15.704   4.296   7.353
 8413POPC   NC344435  43.908  17.475   5.553
 8413POPC   PO444436  43.923  17.498   5.853
 8413POPC   GL144437  43.843  17.488   6.153
 8413POPC   GL244438  43.781  17.502   6.153
 8413POPC   C1A44439  43.863  17.528   6.453
 8413POPC   D2A44440  43.842  17.470   6.753
 8413POPC   C3A44441  43.868  17.470   7.053
 8413POPC   C4A44442  43.850  17.457   7.353
 8413POPC   C1B44443  43.655  17.483   6.453
 8413POPC   C2B44444  43.618  17.550   6.753
 8413POPC   C3B44445  43.677  17.509   7.053
 8413POPC   C4B44446  43.595  17.537   7.353
 8414POPC   NC344447  26.086   5.864   5.553
 8414POPC   PO444448  26.083   5.919   5.853
 8414POPC   GL144449  26.036   5.891   6.153
 8414POPC   GL244450  26.196   5.872   6.153
 8414POPC   C1A44451  26.025   5.881   6.453
 8414POPC   D2A44452  25.997   5.914   6.753
 8414POPC   C3A44453  25.999   5.898   7.053
 8414POPC   C4A44454  25.993   5.906   7.353
 8414POPC   C1B44455  26.312   5.950   6.453
 8414POPC   C2B44456  26.287   5.942   6.753
 8414POPC   C3B44457  26.263   5.913   7.053
 8414POPC   C4B44458  26.251   5.938   7.353
 8415POPC   NC344459  19.058   4.286   5.553
 8415POPC   PO444460  19.027   4.350   5.853
 8415POPC   GL144461  19.033   4.335   6.153
 8415POPC   GL244462  19.092   4.441   6.153
 8415POPC   C1A44463  19.108   4.346   6.453
 8415POPC   D2A44464  19.011   4.358   6.753
 8415POPC   C3A44465  19.058   4.322   7.053
 8415POPC   C4A44466  19.067   4.272   7.353
 8415POPC   C1B44467  19.035   4.613   6.453
 8415POPC   C2B44468  19.116   4.596   6.753
 8415POPC   C3B44469  19.041   4.569   7.053
 8415POPC   C4B44470  19.095   4.565   7.353
 8416POPC   NC344471  18.269  10.517   5.553
 8416POPC   PO444472  18.321  10.506   5.853
 8416POPC   GL144473  18.304  10.500   6.153
 8416POPC   GL244474  18.197  10.586   6.153
 8416POPC   C1A44475  18.252  10.486   6.453
 8416POPC   D2A44476  18.246  10.479   6.753
 8416POPC   C3A44477  18.309  10.495   7.053
 8416POPC   C4A44478  18.285  10.563   7.353
 8416POPC   C1B44479  18.024  10.608   6.453
 8416POPC   C2B44480  18.054  10.662   6.753
 8416POPC   C3B44481  18.088  10.610   7.053
 8416POPC   C4B44482  18.024  10.643   7.353
 8417POPC   NC344483   2.777  19.848   5.553
 8417POPC   PO444484   2.761  19.868   5.853
 8417POPC   GL144485   2.803  19.858   6.153
 8417POPC   GL244486   2.909  19.770   6.153
 8417POPC   C1A44487   2.787  19.799   6.453
 8417POPC   D2A44488   2.781  19.791   6.753
 8417POPC   C3A44489   2.762  19.871   7.053
 8417POPC   C4A44490   2.742  19.874   7.353
 8417POPC   C1B44491   3.056  19.773   6.453
 8417POPC   C2B44492   3.022  19.767   6.753
 8417POPC   C3B44493   2.998  19.746   7.053
 8417POPC   C4B44494   3.024  19.790   7.353
 8418POPC   NC344495  13.605  14.367   5.553
 8418POPC   PO444496  13.621  14.387   5.853
 8418POPC   GL144497  13.617  14.368   6.153
 8418POPC   GL244498  13.493  14.462   6.153
 8418POPC   C1A44499  13.614  14.422   6.453
 8418POPC   D2A44500  13.617  14.393   6.753
 8418POPC   C3A44501  13.637  14.423   7.053
 8418POPC   C4A44502  13.599  14.448   7.353
 8418POPC   C1B44503  13.356  14.406   6.453
 8418POPC   C2B44504  13.398  14.382   6.753
 8418POPC   C3B44505  13.409  14.447   7.053
 8418POPC   C4B44506  13.425  14.443   7.353
 8419POPC   NC344507  29.139  43.157   5.553
 8419POPC   PO444508  29.143  43.150   5.853
 8419POPC   GL144509  29.126  43.068   6.153
 8419POPC   GL244510  29.101  42.954   6.153
 8419POPC   C1A44511  29.108  43.117   6.453
 8419POPC   D2A44512  29.148  43.113   6.753
 8419POPC   C3A44513  29.187  43.087   7.053
 8419POPC   C4A44514  29.139  43.159   7.353
 8419POPC   C1B44515  29.086  42.870   6.453
 8419POPC   C2B44516  29.090  42.871   6.753
 8419POPC   C3B44517  29.045  42.842   7.053
 8419POPC   C4B44518  29.088  42.910   7.353
 8420POPC   NC344519  14.392   9.011   5.553
 8420POPC   PO444520  14.426   8.985   5.853
 8420POPC   GL144521  14.424   9.017   6.153
 8420POPC   GL244522  14.456   9.131   6.153
 8420POPC   C1A44523  14.390   8.971   6.453
 8420POPC   D2A44524  14.452   9.016   6.753
 8420POPC   C3A44525  14.368   8.976   7.053
 8420POPC   C4A44526  14.365   8.987   7.353
 8420POPC   C1B44527  14.510   9.249   6.453
 8420POPC   C2B44528  14.529   9.175   6.753
 8420POPC   C3B44529  14.555   9.193   7.053
 8420POPC   C4B44530  14.547   9.223   7.353
 8421POPC   NC344531  42.357  23.688   5.553
 8421POPC   PO444532  42.295  23.683   5.853
 8421POPC   GL144533  42.379  23.751   6.153
 8421POPC   GL244534  42.235  23.611   6.153
 8421POPC   C1A44535  42.349  23.674   6.453
 8421POPC   D2A44536  42.329  23.668   6.753
 8421POPC   C3A44537  42.288  23.750   7.053
 8421POPC   C4A44538  42.371  23.704   7.353
 8421POPC   C1B44539  42.234  23.529   6.453
 8421POPC   C2B44540  42.155  23.536   6.753
 8421POPC   C3B44541  42.165  23.528   7.053
 8421POPC   C4B44542  42.150  23.560   7.353
 8422POPC   NC344543  36.889  20.658   5.553
 8422POPC   PO444544  36.890  20.619   5.853
 8422POPC   GL144545  36.916  20.588   6.153
 8422POPC   GL244546  36.937  20.499   6.153
 8422POPC   C1A44547  36.866  20.620   6.453
 8422POPC   D2A44548  36.938  20.638   6.753
 8422POPC   C3A44549  36.854  20.577   7.053
 8422POPC   C4A44550  36.952  20.585   7.353
 8422POPC   C1B44551  36.861  20.328   6.453
 8422POPC   C2B44552  36.920  20.365   6.753
 8422POPC   C3B44553  36.908  20.336   7.053
 8422POPC   C4B44554  36.899  20.364   7.353
 8423POPC   NC344555  15.197  19.822   5.553
 8423POPC   PO444556  15.167  19.842   5.853
 8423POPC   GL144557  15.172  19.852   6.153
 8423POPC   GL244558  15.197  19.752   6.153
 8423POPC   C1A44559  15.188  19.873   6.453
 8423POPC   D2A44560  15.168  19.819   6.753
 8423POPC   C3A44561  15.140  19.828   7.053
 8423POPC   C4A44562  15.183  19.799   7.353
 8423POPC   C1B44563  15.180  19.567   6.453
 8423POPC   C2B44564  15.193  19.629   6.753
 8423POPC   C3B44565  15.173  19.585   7.053
 8423POPC   C4B44566  15.239  19.619   7.353
 8424POPC   NC344567  16.737  41.608   5.553
 8424POPC   PO444568  16.722  41.600   5.853
 8424POPC   GL144569  16.745  41.524   6.153
 8424POPC   GL244570  16.719  41.471   6.153
 8424POPC   C1A44571  16.777  41.541   6.453
 8424POPC   D2A44572  16.696  41.551   6.753
 8424POPC   C3A44573  16.768  41.587   7.053
 8424POPC   C4A44574  16.726  41.583   7.353
 8424POPC   C1B44575  16.721  41.340   6.453
 8424POPC   C2B44576  16.772  41.291   6.753
 8424POPC   C3B44577  16.765  41.269   7.053
 8424POPC   C4B44578  16.796  41.356   7.353
 8425POPC   NC344579   3.566  35.362   5.553
 8425POPC   PO444580   3.498  35.304   5.853
 8425POPC   GL144581   3.534  35.307   6.153
 8425POPC   GL244582   3.586  35.208   6.153
 8425POPC   C1A44583   3.512  35.351   6.453
 8425POPC   D2A44584   3.581  35.329   6.753
 8425POPC   C3A44585   3.500  35.366   7.053
 8425POPC   C4A44586   3.519  35.318   7.353
 8425POPC   C1B44587   3.680  35.191   6.453
 8425POPC   C2B44588   3.725  35.150   6.753
 8425POPC   C3B44589   3.700  35.140   7.053
 8425POPC   C4B44590   3.709  35.189   7.353
 8426POPC   NC344591  36.111   6.633   5.553
 8426POPC   PO444592  36.173   6.639   5.853
 8426POPC   GL144593  36.158   6.633   6.153
 8426POPC   GL244594  36.043   6.721   6.153
 8426POPC   C1A44595  36.142   6.665   6.453
 8426POPC   D2A44596  36.155   6.660   6.753
 8426POPC   C3A44597  36.155   6.606   7.053
 8426POPC   C4A44598  36.110   6.624   7.353
 8426POPC   C1B44599  35.963   6.771   6.453
 8426POPC   C2B44600  35.902   6.784   6.753
 8426POPC   C3B44601  35.927   6.771   7.053
 8426POPC   C4B44602  35.908   6.753   7.353
 8427POPC   NC344603  26.087   1.989   5.553
 8427POPC   PO444604  26.041   1.958   5.853
 8427POPC   GL144605  26.086   2.028   6.153
 8427POPC   GL244606  25.972   1.933   6.153
 8427POPC   C1A44607  26.050   1.969   6.453
 8427POPC   D2A44608  26.080   2.014   6.753
 8427POPC   C3A44609  26.088   2.025   7.053
 8427POPC   C4A44610  26.085   1.964   7.353
 8427POPC   C1B44611  25.874   1.770   6.453
 8427POPC   C2B44612  25.839   1.762   6.753
 8427POPC   C3B44613  25.838   1.818   7.053
 8427POPC   C4B44614  25.896   1.798   7.353
 8428POPC   NC344615   3.576  34.619   5.553
 8428POPC   PO444616   3.515  34.551   5.853
 8428POPC   GL144617   3.553  34.544   6.153
 8428POPC   GL244618   3.431  34.468   6.153
 8428POPC   C1A44619   3.547  34.533   6.453
 8428POPC   D2A44620   3.586  34.581   6.753
 8428POPC   C3A44621   3.550  34.592   7.053
 8428POPC   C4A44622   3.509  34.542   7.353
 8428POPC   C1B44623   3.408  34.411   6.453
 8428POPC   C2B44624   3.420  34.414   6.753
 8428POPC   C3B44625   3.345  34.382   7.053
 8428POPC   C4B44626   3.434  34.342   7.353
 8429POPC   NC344627  24.479  30.736   5.553
 8429POPC   PO444628  24.464  30.663   5.853
 8429POPC   GL144629  24.461  30.741   6.153
 8429POPC   GL244630  24.560  30.795   6.153
 8429POPC   C1A44631  24.481  30.695   6.453
 8429POPC   D2A44632  24.443  30.655   6.753
 8429POPC   C3A44633  24.477  30.688   7.053
 8429POPC   C4A44634  24.502  30.719   7.353
 8429POPC   C1B44635  24.563  30.918   6.453
 8429POPC   C2B44636  24.583  30.931   6.753
 8429POPC   C3B44637  24.556  30.979   7.053
 8429POPC   C4B44638  24.529  30.891   7.353
 8430POPC   NC344639  25.997  31.518   5.553
 8430POPC   PO444640  26.045  31.478   5.853
 8430POPC   GL144641  26.064  31.497   6.153
 8430POPC   GL244642  26.072  31.552   6.153
 8430POPC   C1A44643  26.049  31.474   6.453
 8430POPC   D2A44644  26.057  31.426   6.753
 8430POPC   C3A44645  26.002  31.487   7.053
 8430POPC   C4A44646  26.028  31.476   7.353
 8430POPC   C1B44647  25.998  31.711   6.453
 8430POPC   C2B44648  26.081  31.703   6.753
 8430POPC   C3B44649  26.044  31.756   7.053
 8430POPC   C4B44650  26.081  31.713   7.353
 8431POPC   NC344651  39.273  26.012   5.553
 8431POPC   PO444652  39.187  26.045   5.853
 8431POPC   GL144653  39.228  26.020   6.153
 8431POPC   GL244654  39.207  26.137   6.153
 8431POPC   C1A44655  39.195  26.042   6.453
 8431POPC   D2A44656  39.261  26.085   6.753
 8431POPC   C3A44657  39.234  26.000   7.053
 8431POPC   C4A44658  39.188  26.013   7.353
 8431POPC   C1B44659  39.288  26.323   6.453
 8431POPC   C2B44660  39.203  26.325   6.753
 8431POPC   C3B44661  39.283  26.247   7.053
 8431POPC   C4B44662  39.228  26.287   7.353
 8432POPC   NC344663   8.223  17.537   5.553
 8432POPC   PO444664   8.157  17.530   5.853
 8432POPC   GL144665   8.246  17.541   6.153
 8432POPC   GL244666   8.158  17.556   6.153
 8432POPC   C1A44667   8.151  17.522   6.453
 8432POPC   D2A44668   8.154  17.483   6.753
 8432POPC   C3A44669   8.179  17.550   7.053
 8432POPC   C4A44670   8.238  17.470   7.353
 8432POPC   C1B44671   8.037  17.659   6.453
 8432POPC   C2B44672   8.085  17.673   6.753
 8432POPC   C3B44673   8.006  17.685   7.053
 8432POPC   C4B44674   8.028  17.671   7.353
 8433POPC   NC344675  40.030  26.036   5.553
 8433POPC   PO444676  40.011  26.023   5.853
 8433POPC   GL144677  40.040  26.044   6.153
 8433POPC   GL244678  40.144  26.017   6.153
 8433POPC   C1A44679  40.002  26.086   6.453
 8433POPC   D2A44680  39.999  26.071   6.753
 8433POPC   C3A44681  40.012  26.022   7.053
 8433POPC   C4A44682  40.005  26.012   7.353
 8433POPC   C1B44683  40.212  26.096   6.453
 8433POPC   C2B44684  40.228  26.079   6.753
 8433POPC   C3B44685  40.257  26.100   7.053
 8433POPC   C4B44686  40.226  26.114   7.353
 8434POPC   NC344687  27.549  29.966   5.553
 8434POPC   PO444688  27.585  29.932   5.853
 8434POPC   GL144689  27.605  29.876   6.153
 8434POPC   GL244690  27.655  30.076   6.153
 8434POPC   C1A44691  27.602  29.930   6.453
 8434POPC   D2A44692  27.609  29.955   6.753
 8434POPC   C3A44693  27.636  29.957   7.053
 8434POPC   C4A44694  27.608  29.929   7.353
 8434POPC   C1B44695  27.592  30.189   6.453
 8434POPC   C2B44696  27.637  30.130   6.753
 8434POPC   C3B44697  27.606  30.214   7.053
 8434POPC   C4B44698  27.612  30.170   7.353
 8435POPC   NC344699   8.233  22.912   5.553
 8435POPC   PO444700   8.160  22.903   5.853
 8435POPC   GL144701   8.176  22.970   6.153
 8435POPC   GL244702   8.235  23.035   6.153
 8435POPC   C1A44703   8.238  22.932   6.453
 8435POPC   D2A44704   8.239  22.961   6.753
 8435POPC   C3A44705   8.231  22.923   7.053
 8435POPC   C4A44706   8.164  22.913   7.353
 8435POPC   C1B44707   8.370  23.159   6.453
 8435POPC   C2B44708   8.376  23.121   6.753
 8435POPC   C3B44709   8.319  23.161   7.053
 8435POPC   C4B44710   8.311  23.141   7.353
 8436POPC   NC344711  13.648  28.354   5.553
 8436POPC   PO444712  13.590  28.320   5.853
 8436POPC   GL144713  13.667  28.406   6.153
 8436POPC   GL244714  13.547  28.276   6.153
 8436POPC   C1A44715  13.628  28.360   6.453
 8436POPC   D2A44716  13.673  28.339   6.753
 8436POPC   C3A44717  13.590  28.376   7.053
 8436POPC   C4A44718  13.590  28.350   7.353
 8436POPC   C1B44719  13.434  28.333   6.453
 8436POPC   C2B44720  13.394  28.239   6.753
 8436POPC   C3B44721  13.420  28.330   7.053
 8436POPC   C4B44722  13.436  28.328   7.353
 8437POPC   NC344723  11.278  15.907   5.553
 8437POPC   PO444724  11.308  16.000   5.853
 8437POPC   GL144725  11.270  15.991   6.153
 8437POPC   GL244726  11.398  15.935   6.153
 8437POPC   C1A44727  11.343  15.947   6.453
 8437POPC   D2A44728  11.297  15.974   6.753
 8437POPC   C3A44729  11.281  15.946   7.053
 8437POPC   C4A44730  11.340  15.997   7.353
 8437POPC   C1B44731  11.496  15.821   6.453
 8437POPC   C2B44732  11.513  15.880   6.753
 8437POPC   C3B44733  11.537  15.835   7.053
 8437POPC   C4B44734  11.550  15.797   7.353
 8438POPC   NC344735  40.049  27.555   5.553
 8438POPC   PO444736  39.969  27.614   5.853
 8438POPC   GL144737  40.048  27.635   6.153
 8438POPC   GL244738  39.952  27.634   6.153
 8438POPC   C1A44739  39.993  27.608   6.453
 8438POPC   D2A44740  40.024  27.625   6.753
 8438POPC   C3A44741  39.983  27.613   7.053
 8438POPC   C4A44742  39.966  27.593   7.353
 8438POPC   C1B44743  39.833  27.725   6.453
 8438POPC   C2B44744  39.797  27.770   6.753
 8438POPC   C3B44745  39.860  27.703   7.053
 8438POPC   C4B44746  39.845  27.796   7.353
 8439POPC   NC344747  19.021  43.095   5.553
 8439POPC   PO444748  19.020  43.066   5.853
 8439POPC   GL144749  19.041  43.080   6.153
 8439POPC   GL244750  19.033  42.996   6.153
 8439POPC   C1A44751  19.103  43.076   6.453
 8439POPC   D2A44752  19.071  43.145   6.753
 8439POPC   C3A44753  19.013  43.072   7.053
 8439POPC   C4A44754  19.071  43.151   7.353
 8439POPC   C1B44755  19.055  42.836   6.453
 8439POPC   C2B44756  19.100  42.882   6.753
 8439POPC   C3B44757  19.087  42.821   7.053
 8439POPC   C4B44758  19.143  42.910   7.353
 8440POPC   NC344759  39.254   9.778   5.553
 8440POPC   PO444760  39.253   9.706   5.853
 8440POPC   GL144761  39.182   9.790   6.153
 8440POPC   GL244762  39.100   9.690   6.153
 8440POPC   C1A44763  39.271   9.766   6.453
 8440POPC   D2A44764  39.272   9.739   6.753
 8440POPC   C3A44765  39.184   9.761   7.053
 8440POPC   C4A44766  39.244   9.723   7.353
 8440POPC   C1B44767  39.032   9.679   6.453
 8440POPC   C2B44768  38.967   9.652   6.753
 8440POPC   C3B44769  38.963   9.696   7.053
 8440POPC   C4B44770  38.955   9.664   7.353
 8441POPC   NC344771  24.452  26.825   5.553
 8441POPC   PO444772  24.522  26.857   5.853
 8441POPC   GL144773  24.487  26.782   6.153
 8441POPC   GL244774  24.522  26.918   6.153
 8441POPC   C1A44775  24.471  26.847   6.453
 8441POPC   D2A44776  24.449  26.771   6.753
 8441POPC   C3A44777  24.512  26.809   7.053
 8441POPC   C4A44778  24.471  26.810   7.353
 8441POPC   C1B44779  24.618  27.085   6.453
 8441POPC   C2B44780  24.583  27.021   6.753
 8441POPC   C3B44781  24.638  27.027   7.053
 8441POPC   C4B44782  24.564  27.070   7.353
 8442POPC   NC344783  39.232  28.399   5.553
 8442POPC   PO444784  39.259  28.412   5.853
 8442POPC   GL144785  39.273  28.321   6.153
 8442POPC   GL244786  39.169  28.501   6.153
 8442POPC   C1A44787  39.276  28.325   6.453
 8442POPC   D2A44788  39.234  28.356   6.753
 8442POPC   C3A44789  39.273  28.390   7.053
 8442POPC   C4A44790  39.182  28.363   7.353
 8442POPC   C1B44791  39.188  28.635   6.453
 8442POPC   C2B44792  39.235  28.585   6.753
 8442POPC   C3B44793  39.184  28.647   7.053
 8442POPC   C4B44794  39.242  28.645   7.353
 8443POPC   NC344795   8.957  24.509   5.553
 8443POPC   PO444796   9.001  24.517   5.853
 8443POPC   GL144797   8.993  24.514   6.153
 8443POPC   GL244798   9.002  24.336   6.153
 8443POPC   C1A44799   9.011  24.477   6.453
 8443POPC   D2A44800   8.992  24.452   6.753
 8443POPC   C3A44801   8.928  24.455   7.053
 8443POPC   C4A44802   9.009  24.485   7.353
 8443POPC   C1B44803   9.055  24.297   6.453
 8443POPC   C2B44804   9.097  24.243   6.753
 8443POPC   C3B44805   9.064  24.299   7.053
 8443POPC   C4B44806   9.090  24.258   7.353
 8444POPC   NC344807  16.697  43.148   5.553
 8444POPC   PO444808  16.722  43.088   5.853
 8444POPC   GL144809  16.770  43.069   6.153
 8444POPC   GL244810  16.697  42.943   6.153
 8444POPC   C1A44811  16.754  43.084   6.453
 8444POPC   D2A44812  16.736  43.095   6.753
 8444POPC   C3A44813  16.707  43.106   7.053
 8444POPC   C4A44814  16.766  43.093   7.353
 8444POPC   C1B44815  16.709  42.820   6.453
 8444POPC   C2B44816  16.690  42.880   6.753
 8444POPC   C3B44817  16.703  42.860   7.053
 8444POPC   C4B44818  16.698  42.836   7.353
 8445POPC   NC344819  37.665   0.396   5.553
 8445POPC   PO444820  37.700   0.416   5.853
 8445POPC   GL144821  37.681   0.407   6.153
 8445POPC   GL244822  37.589   0.563   6.153
 8445POPC   C1A44823  37.670   0.446   6.453
 8445POPC   D2A44824  37.650   0.420   6.753
 8445POPC   C3A44825  37.695   0.435   7.053
 8445POPC   C4A44826  37.644   0.434   7.353
 8445POPC   C1B44827  37.560   0.626   6.453
 8445POPC   C2B44828  37.625   0.629   6.753
 8445POPC   C3B44829  37.633   0.634   7.053
 8445POPC   C4B44830  37.612   0.633   7.353
 8446POPC   NC344831  37.635  43.065   5.553
 8446POPC   PO444832  37.697  43.104   5.853
 8446POPC   GL144833  37.663  43.124   6.153
 8446POPC   GL244834  37.589  43.023   6.153
 8446POPC   C1A44835  37.692  43.124   6.453
 8446POPC   D2A44836  37.657  43.070   6.753
 8446POPC   C3A44837  37.641  43.147   7.053
 8446POPC   C4A44838  37.710  43.116   7.353
 8446POPC   C1B44839  37.617  42.844   6.453
 8446POPC   C2B44840  37.633  42.880   6.753
 8446POPC   C3B44841  37.615  42.854   7.053
 8446POPC   C4B44842  37.639  42.911   7.353
 8447POPC   NC344843  33.809  15.993   5.553
 8447POPC   PO444844  33.802  15.962   5.853
 8447POPC   GL144845  33.796  15.964   6.153
 8447POPC   GL244846  33.733  15.884   6.153
 8447POPC   C1A44847  33.850  15.916   6.453
 8447POPC   D2A44848  33.837  15.999   6.753
 8447POPC   C3A44849  33.803  15.980   7.053
 8447POPC   C4A44850  33.836  15.981   7.353
 8447POPC   C1B44851  33.672  15.753   6.453
 8447POPC   C2B44852  33.705  15.729   6.753
 8447POPC   C3B44853  33.730  15.672   7.053
 8447POPC   C4B44854  33.702  15.703   7.353
 8448POPC   NC344855   7.454  10.489   5.553
 8448POPC   PO444856   7.440  10.567   5.853
 8448POPC   GL144857   7.379  10.538   6.153
 8448POPC   GL244858   7.292  10.588   6.153
 8448POPC   C1A44859   7.398  10.549   6.453
 8448POPC   D2A44860   7.407  10.493   6.753
 8448POPC   C3A44861   7.410  10.495   7.053
 8448POPC   C4A44862   7.462  10.481   7.353
 8448POPC   C1B44863   7.264  10.641   6.453
 8448POPC   C2B44864   7.249  10.674   6.753
 8448POPC   C3B44865   7.230  10.671   7.053
 8448POPC   C4B44866   7.259  10.731   7.353
 8449POPC   NC344867  12.111  15.147   5.553
 8449POPC   PO444868  12.033  15.203   5.853
 8449POPC   GL144869  12.106  15.212   6.153
 8449POPC   GL244870  12.157  15.144   6.153
 8449POPC   C1A44871  12.095  15.162   6.453
 8449POPC   D2A44872  12.111  15.140   6.753
 8449POPC   C3A44873  12.121  15.179   7.053
 8449POPC   C4A44874  12.118  15.182   7.353
 8449POPC   C1B44875  12.340  15.056   6.453
 8449POPC   C2B44876  12.338  15.052   6.753
 8449POPC   C3B44877  12.319  15.036   7.053
 8449POPC   C4B44878  12.274  15.064   7.353
 8450POPC   NC344879  19.088  25.219   5.553
 8450POPC   PO444880  19.011  25.257   5.853
 8450POPC   GL144881  19.105  25.229   6.153
 8450POPC   GL244882  19.100  25.417   6.153
 8450POPC   C1A44883  19.019  25.243   6.453
 8450POPC   D2A44884  19.037  25.315   6.753
 8450POPC   C3A44885  19.094  25.290   7.053
 8450POPC   C4A44886  19.045  25.251   7.353
 8450POPC   C1B44887  19.080  25.560   6.453
 8450POPC   C2B44888  19.112  25.562   6.753
 8450POPC   C3B44889  19.076  25.531   7.053
 8450POPC   C4B44890  19.026  25.528   7.353
 8451POPC   NC344891  32.210  28.377   5.553
 8451POPC   PO444892  32.200  28.416   5.853
 8451POPC   GL144893  32.237  28.341   6.153
 8451POPC   GL244894  32.263  28.220   6.153
 8451POPC   C1A44895  32.293  28.366   6.453
 8451POPC   D2A44896  32.216  28.328   6.753
 8451POPC   C3A44897  32.287  28.334   7.053
 8451POPC   C4A44898  32.258  28.357   7.353
 8451POPC   C1B44899  32.370  28.164   6.453
 8451POPC   C2B44900  32.296  28.146   6.753
 8451POPC   C3B44901  32.380  28.151   7.053
 8451POPC   C4B44902  32.341  28.101   7.353
 8452POPC   NC344903   5.124   5.074   5.553
 8452POPC   PO444904   5.050   5.075   5.853
 8452POPC   GL144905   5.119   5.091   6.153
 8452POPC   GL244906   5.229   5.082   6.153
 8452POPC   C1A44907   5.135   5.109   6.453
 8452POPC   D2A44908   5.088   5.064   6.753
 8452POPC   C3A44909   5.087   5.109   7.053
 8452POPC   C4A44910   5.062   5.134   7.353
 8452POPC   C1B44911   5.319   5.042   6.453
 8452POPC   C2B44912   5.334   5.015   6.753
 8452POPC   C3B44913   5.346   5.102   7.053
 8452POPC   C4B44914   5.296   5.032   7.353
 8453POPC   NC344915  43.153  36.881   5.553
 8453POPC   PO444916  43.133  36.896   5.853
 8453POPC   GL144917  43.136  36.875   6.153
 8453POPC   GL244918  43.238  36.955   6.153
 8453POPC   C1A44919  43.082  36.934   6.453
 8453POPC   D2A44920  43.145  36.943   6.753
 8453POPC   C3A44921  43.116  36.858   7.053
 8453POPC   C4A44922  43.136  36.876   7.353
 8453POPC   C1B44923  43.361  36.956   6.453
 8453POPC   C2B44924  43.342  36.899   6.753
 8453POPC   C3B44925  43.383  36.939   7.053
 8453POPC   C4B44926  43.407  36.972   7.353
 8454POPC   NC344927   5.828  22.118   5.553
 8454POPC   PO444928   5.884  22.203   5.853
 8454POPC   GL144929   5.909  22.193   6.153
 8454POPC   GL244930   5.953  22.121   6.153
 8454POPC   C1A44931   5.867  22.127   6.453
 8454POPC   D2A44932   5.839  22.140   6.753
 8454POPC   C3A44933   5.840  22.145   7.053
 8454POPC   C4A44934   5.901  22.204   7.353
 8454POPC   C1B44935   6.047  22.063   6.453
 8454POPC   C2B44936   6.096  22.095   6.753
 8454POPC   C3B44937   6.065  22.076   7.053
 8454POPC   C4B44938   6.124  22.083   7.353
 8455POPC   NC344939  37.682  31.445   5.553
 8455POPC   PO444940  37.699  31.471   5.853
 8455POPC   GL144941  37.728  31.482   6.153
 8455POPC   GL244942  37.686  31.342   6.153
 8455POPC   C1A44943  37.635  31.499   6.453
 8455POPC   D2A44944  37.719  31.483   6.753
 8455POPC   C3A44945  37.699  31.434   7.053
 8455POPC   C4A44946  37.679  31.435   7.353
 8455POPC   C1B44947  37.719  31.222   6.453
 8455POPC   C2B44948  37.666  31.208   6.753
 8455POPC   C3B44949  37.760  31.221   7.053
 8455POPC   C4B44950  37.758  31.228   7.353
 8456POPC   NC344951  33.844  27.620   5.553
 8456POPC   PO444952  33.845  27.577   5.853
 8456POPC   GL144953  33.845  27.619   6.153
 8456POPC   GL244954  33.699  27.698   6.153
 8456POPC   C1A44955  33.796  27.552   6.453
 8456POPC   D2A44956  33.766  27.558   6.753
 8456POPC   C3A44957  33.767  27.632   7.053
 8456POPC   C4A44958  33.783  27.608   7.353
 8456POPC   C1B44959  33.592  27.762   6.453
 8456POPC   C2B44960  33.560  27.722   6.753
 8456POPC   C3B44961  33.607  27.735   7.053
 8456POPC   C4B44962  33.585  27.742   7.353
 8457POPC   NC344963  19.794  29.918   5.553
 8457POPC   PO444964  19.872  29.906   5.853
 8457POPC   GL144965  19.876  29.921   6.153
 8457POPC   GL244966  19.734  30.084   6.153
 8457POPC   C1A44967  19.881  29.881   6.453
 8457POPC   D2A44968  19.792  29.966   6.753
 8457POPC   C3A44969  19.842  29.916   7.053
 8457POPC   C4A44970  19.856  29.884   7.353
 8457POPC   C1B44971  19.714  30.188   6.453
 8457POPC   C2B44972  19.697  30.145   6.753
 8457POPC   C3B44973  19.722  30.134   7.053
 8457POPC   C4B44974  19.683  30.135   7.353
 8458POPC   NC344975  23.752  38.419   5.553
 8458POPC   PO444976  23.711  38.410   5.853
 8458POPC   GL144977  23.742  38.477   6.153
 8458POPC   GL244978  23.803  38.388   6.153
 8458POPC   C1A44979  23.672  38.467   6.453
 8458POPC   D2A44980  23.714  38.495   6.753
 8458POPC   C3A44981  23.714  38.443   7.053
 8458POPC   C4A44982  23.713  38.406   7.353
 8458POPC   C1B44983  23.897  38.312   6.453
 8458POPC   C2B44984  23.956  38.307   6.753
 8458POPC   C3B44985  23.955  38.303   7.053
 8458POPC   C4B44986  23.918  38.344   7.353
 8459POPC   NC344987   2.018   6.635   5.553
 8459POPC   PO444988   2.038   6.638   5.853
 8459POPC   GL144989   2.033   6.619   6.153
 8459POPC   GL244990   2.069   6.598   6.153
 8459POPC   C1A44991   1.960   6.596   6.453
 8459POPC   D2A44992   1.974   6.603   6.753
 8459POPC   C3A44993   1.984   6.647   7.053
 8459POPC   C4A44994   1.991   6.638   7.353
 8459POPC   C1B44995   2.268   6.599   6.453
 8459POPC   C2B44996   2.185   6.563   6.753
 8459POPC   C3B44997   2.212   6.539   7.053
 8459POPC   C4B44998   2.208   6.573   7.353
 8460POPC   NC344999   0.442   4.319   5.553
 8460POPC   PO445000   0.391   4.355   5.853
 8460POPC   GL145001   0.392   4.280   6.153
 8460POPC   GL245002   0.356   4.227   6.153
 8460POPC   C1A45003   0.396   4.354   6.453
 8460POPC   D2A45004   0.415   4.273   6.753
 8460POPC   C3A45005   0.468   4.273   7.053
 8460POPC   C4A45006   0.476   4.320   7.353
 8460POPC   C1B45007   0.394   4.080   6.453
 8460POPC   C2B45008   0.351   4.055   6.753
 8460POPC   C3B45009   0.391   4.104   7.053
 8460POPC   C4B45010   0.390   4.064   7.353
 8461POPC   NC345011   2.012  36.914   5.553
 8461POPC   PO445012   1.965  36.945   5.853
 8461POPC   GL145013   1.978  36.950   6.153
 8461POPC   GL245014   1.981  36.754   6.153
 8461POPC   C1A45015   1.972  36.923   6.453
 8461POPC   D2A45016   2.006  36.879   6.753
 8461POPC   C3A45017   1.991  36.879   7.053
 8461POPC   C4A45018   1.991  36.910   7.353
 8461POPC   C1B45019   2.050  36.635   6.453
 8461POPC   C2B45020   2.016  36.614   6.753
 8461POPC   C3B45021   2.062  36.647   7.053
 8461POPC   C4B45022   2.027  36.613   7.353
 8462POPC   NC345023  19.842  35.374   5.553
 8462POPC   PO445024  19.857  35.327   5.853
 8462POPC   GL145025  19.797  35.323   6.153
 8462POPC   GL245026  19.720  35.361   6.153
 8462POPC   C1A45027  19.816  35.352   6.453
 8462POPC   D2A45028  19.830  35.397   6.753
 8462POPC   C3A45029  19.856  35.387   7.053
 8462POPC   C4A45030  19.881  35.367   7.353
 8462POPC   C1B45031  19.588  35.309   6.453
 8462POPC   C2B45032  19.561  35.286   6.753
 8462POPC   C3B45033  19.561  35.365   7.053
 8462POPC   C4B45034  19.536  35.324   7.353
 8463POPC   NC345035  26.081  15.918   5.553
 8463POPC   PO445036  25.995  15.971   5.853
 8463POPC   GL145037  26.078  15.944   6.153
 8463POPC   GL245038  26.006  15.854   6.153
 8463POPC   C1A45039  26.012  15.942   6.453
 8463POPC   D2A45040  26.059  15.938   6.753
 8463POPC   C3A45041  26.033  15.909   7.053
 8463POPC   C4A45042  26.044  15.952   7.353
 8463POPC   C1B45043  25.981  15.712   6.453
 8463POPC   C2B45044  26.012  15.700   6.753
 8463POPC   C3B45045  26.009  15.732   7.053
 8463POPC   C4B45046  25.979  15.710   7.353
 8464POPC   NC345047   3.565  15.934   5.553
 8464POPC   PO445048   3.505  15.937   5.853
 8464POPC   GL145049   3.542  15.960   6.153
 8464POPC   GL245050   3.533  16.048   6.153
 8464POPC   C1A45051   3.532  15.907   6.453
 8464POPC   D2A45052   3.554  15.950   6.753
 8464POPC   C3A45053   3.554  15.942   7.053
 8464POPC   C4A45054   3.526  16.000   7.353
 8464POPC   C1B45055   3.431  16.154   6.453
 8464POPC   C2B45056   3.423  16.210   6.753
 8464POPC   C3B45057   3.438  16.150   7.053
 8464POPC   C4B45058   3.403  16.210   7.353
 8465POPC   NC345059  27.551  38.495   5.553
 8465POPC   PO445060  27.563  38.440   5.853
 8465POPC   GL145061  27.590  38.424   6.153
 8465POPC   GL245062  27.500  38.342   6.153
 8465POPC   C1A45063  27.570  38.436   6.453
 8465POPC   D2A45064  27.548  38.505   6.753
 8465POPC   C3A45065  27.587  38.471   7.053
 8465POPC   C4A45066  27.625  38.411   7.353
 8465POPC   C1B45067  27.470  38.189   6.453
 8465POPC   C2B45068  27.530  38.208   6.753
 8465POPC   C3B45069  27.544  38.188   7.053
 8465POPC   C4B45070  27.552  38.245   7.353
 8466POPC   NC345071  31.488  10.498   5.553
 8466POPC   PO445072  31.472  10.533   5.853
 8466POPC   GL145073  31.433  10.484   6.153
 8466POPC   GL245074  31.429  10.415   6.153
 8466POPC   C1A45075  31.452  10.492   6.453
 8466POPC   D2A45076  31.502  10.507   6.753
 8466POPC   C3A45077  31.510  10.557   7.053
 8466POPC   C4A45078  31.439  10.561   7.353
 8466POPC   C1B45079  31.368  10.295   6.453
 8466POPC   C2B45080  31.377  10.260   6.753
 8466POPC   C3B45081  31.320  10.339   7.053
 8466POPC   C4B45082  31.413  10.327   7.353
 8467POPC   NC345083  10.485   9.000   5.553
 8467POPC   PO445084  10.522   8.956   5.853
 8467POPC   GL145085  10.482   8.997   6.153
 8467POPC   GL245086  10.385   8.958   6.153
 8467POPC   C1A45087  10.509   8.953   6.453
 8467POPC   D2A45088  10.520   8.983   6.753
 8467POPC   C3A45089  10.528   8.949   7.053
 8467POPC   C4A45090  10.540   8.952   7.353
 8467POPC   C1B45091  10.246   9.008   6.453
 8467POPC   C2B45092  10.270   9.047   6.753
 8467POPC   C3B45093  10.330   8.991   7.053
 8467POPC   C4B45094  10.231   9.034   7.353
 8468POPC   NC345095  43.935  27.594   5.553
 8468POPC   PO445096  43.933  27.571   5.853
 8468POPC   GL145097  43.855  27.549   6.153
 8468POPC   GL245098  43.873  27.437   6.153
 8468POPC   C1A45099  43.876  27.549   6.453
 8468POPC   D2A45100  43.840  27.545   6.753
 8468POPC   C3A45101  43.894  27.590   7.053
 8468POPC   C4A45102  43.930  27.623   7.353
 8468POPC   C1B45103  43.864  27.325   6.453
 8468POPC   C2B45104  43.912  27.390   6.753
 8468POPC   C3B45105  43.872  27.384   7.053
 8468POPC   C4B45106  43.879  27.364   7.353
 8469POPC   NC345107  39.216  22.976   5.553
 8469POPC   PO445108  39.240  22.936   5.853
 8469POPC   GL145109  39.183  22.949   6.153
 8469POPC   GL245110  39.139  22.904   6.153
 8469POPC   C1A45111  39.183  22.935   6.453
 8469POPC   D2A45112  39.246  22.964   6.753
 8469POPC   C3A45113  39.235  22.891   7.053
 8469POPC   C4A45114  39.272  22.978   7.353
 8469POPC   C1B45115  38.932  22.946   6.453
 8469POPC   C2B45116  38.960  22.909   6.753
 8469POPC   C3B45117  38.964  22.937   7.053
 8469POPC   C4B45118  38.951  22.963   7.353
 8470POPC   NC345119  20.650  43.145   5.553
 8470POPC   PO445120  20.580  43.079   5.853
 8470POPC   GL145121  20.619  43.119   6.153
 8470POPC   GL245122  20.694  43.165   6.153
 8470POPC   C1A45123  20.636  43.130   6.453
 8470POPC   D2A45124  20.601  43.116   6.753
 8470POPC   C3A45125  20.623  43.114   7.053
 8470POPC   C4A45126  20.599  43.152   7.353
 8470POPC   C1B45127  20.829  43.276   6.453
 8470POPC   C2B45128  20.818  43.226   6.753
 8470POPC   C3B45129  20.803  43.227   7.053
 8470POPC   C4B45130  20.766  43.289   7.353
 8471POPC   NC345131   2.767  11.302   5.553
 8471POPC   PO445132   2.742  11.290   5.853
 8471POPC   GL145133   2.724  11.305   6.153
 8471POPC   GL245134   2.699  11.377   6.153
 8471POPC   C1A45135   2.743  11.296   6.453
 8471POPC   D2A45136   2.753  11.342   6.753
 8471POPC   C3A45137   2.791  11.329   7.053
 8471POPC   C4A45138   2.753  11.341   7.353
 8471POPC   C1B45139   2.574  11.414   6.453
 8471POPC   C2B45140   2.600  11.465   6.753
 8471POPC   C3B45141   2.559  11.424   7.053
 8471POPC   C4B45142   2.562  11.493   7.353
 8472POPC   NC345143  44.630  18.310   5.553
 8472POPC   PO445144  44.697  18.276   5.853
 8472POPC   GL145145  44.617  18.239   6.153
 8472POPC   GL245146  44.632  18.164   6.153
 8472POPC   C1A45147  44.702  18.312   6.453
 8472POPC   D2A45148  44.680  18.270   6.753
 8472POPC   C3A45149  44.626  18.256   7.053
 8472POPC   C4A45150  44.665  18.240   7.353
 8472POPC   C1B45151  44.626  18.012   6.453
 8472POPC   C2B45152  44.697  18.079   6.753
 8472POPC   C3B45153  44.649  18.002   7.053
 8472POPC   C4B45154  44.663  18.028   7.353
 8473POPC   NC345155  26.006  26.079   5.553
 8473POPC   PO445156  26.064  25.997   5.853
 8473POPC   GL145157  26.037  26.013   6.153
 8473POPC   GL245158  26.129  25.950   6.153
 8473POPC   C1A45159  26.006  26.025   6.453
 8473POPC   D2A45160  26.011  26.068   6.753
 8473POPC   C3A45161  26.058  26.006   7.053
 8473POPC   C4A45162  26.023  26.066   7.353
 8473POPC   C1B45163  26.280  25.972   6.453
 8473POPC   C2B45164  26.269  25.997   6.753
 8473POPC   C3B45165  26.232  25.998   7.053
 8473POPC   C4B45166  26.295  25.986   7.353
 8474POPC   NC345167   8.147  12.849   5.553
 8474POPC   PO445168   8.193  12.863   5.853
 8474POPC   GL145169   8.236  12.811   6.153
 8474POPC   GL245170   8.137  12.707   6.153
 8474POPC   C1A45171   8.236  12.804   6.453
 8474POPC   D2A45172   8.224  12.880   6.753
 8474POPC   C3A45173   8.163  12.890   7.053
 8474POPC   C4A45174   8.190  12.877   7.353
 8474POPC   C1B45175   8.097  12.621   6.453
 8474POPC   C2B45176   8.076  12.649   6.753
 8474POPC   C3B45177   8.137  12.592   7.053
 8474POPC   C4B45178   8.072  12.663   7.353
 8475POPC   NC345179   9.787  15.972   5.553
 8475POPC   PO445180   9.742  15.953   5.853
 8475POPC   GL145181   9.735  15.927   6.153
 8475POPC   GL245182   9.715  16.093   6.153
 8475POPC   C1A45183   9.774  15.975   6.453
 8475POPC   D2A45184   9.757  15.936   6.753
 8475POPC   C3A45185   9.768  15.989   7.053
 8475POPC   C4A45186   9.751  16.003   7.353
 8475POPC   C1B45187   9.694  16.179   6.453
 8475POPC   C2B45188   9.635  16.193   6.753
 8475POPC   C3B45189   9.662  16.168   7.053
 8475POPC   C4B45190   9.657  16.233   7.353
 8476POPC   NC345191  43.856  24.453   5.553
 8476POPC   PO445192  43.904  24.516   5.853
 8476POPC   GL145193  43.840  24.457   6.153
 8476POPC   GL245194  43.846  24.358   6.153
 8476POPC   C1A45195  43.902  24.514   6.453
 8476POPC   D2A45196  43.897  24.461   6.753
 8476POPC   C3A45197  43.858  24.487   7.053
 8476POPC   C4A45198  43.877  24.523   7.353
 8476POPC   C1B45199  43.889  24.214   6.453
 8476POPC   C2B45200  43.903  24.227   6.753
 8476POPC   C3B45201  43.916  24.194   7.053
 8476POPC   C4B45202  43.930  24.228   7.353
 8477POPC   NC345203  41.587   6.681   5.553
 8477POPC   PO445204  41.606   6.603   5.853
 8477POPC   GL145205  41.561   6.617   6.153
 8477POPC   GL245206  41.523   6.787   6.153
 8477POPC   C1A45207  41.528   6.639   6.453
 8477POPC   D2A45208  41.579   6.678   6.753
 8477POPC   C3A45209  41.588   6.613   7.053
 8477POPC   C4A45210  41.530   6.631   7.353
 8477POPC   C1B45211  41.512   6.861   6.453
 8477POPC   C2B45212  41.537   6.938   6.753
 8477POPC   C3B45213  41.479   6.854   7.053
 8477POPC   C4B45214  41.502   6.903   7.353
 8478POPC   NC345215   5.088  44.635   5.553
 8478POPC   PO445216   5.138  44.671   5.853
 8478POPC   GL145217   5.143  44.617   6.153
 8478POPC   GL245218   5.209  44.626   6.153
 8478POPC   C1A45219   5.072  44.701   6.453
 8478POPC   D2A45220   5.058  44.702   6.753
 8478POPC   C3A45221   5.121  44.704   7.053
 8478POPC   C4A45222   5.108  44.708   7.353
 8478POPC   C1B45223   5.322  44.597   6.453
 8478POPC   C2B45224   5.364  44.565   6.753
 8478POPC   C3B45225   5.338  44.554   7.053
 8478POPC   C4B45226   5.364  44.618   7.353
 8479POPC   NC345227  32.235  29.920   5.553
 8479POPC   PO445228  32.276  29.877   5.853
 8479POPC   GL145229  32.229  29.927   6.153
 8479POPC   GL245230  32.345  30.026   6.153
 8479POPC   C1A45231  32.232  29.932   6.453
 8479POPC   D2A45232  32.279  29.957   6.753
 8479POPC   C3A45233  32.214  29.914   7.053
 8479POPC   C4A45234  32.201  29.967   7.353
 8479POPC   C1B45235  32.333  30.157   6.453
 8479POPC   C2B45236  32.322  30.109   6.753
 8479POPC   C3B45237  32.314  30.156   7.053
 8479POPC   C4B45238  32.406  30.163   7.353
 8480POPC   NC345239  13.616  44.618   5.553
 8480POPC   PO445240  13.653  44.707   5.853
 8480POPC   GL145241  13.623  44.670   6.153
 8480POPC   GL245242  13.615  44.754   6.153
 8480POPC   C1A45243  13.642  44.642   6.453
 8480POPC   D2A45244  13.619  44.634   6.753
 8480POPC   C3A45245  13.597  44.707   7.053
 8480POPC   C4A45246  13.638  44.652   7.353
 8480POPC   C1B45247  13.562  44.933   6.453
 8480POPC   C2B45248  13.527  44.931   6.753
 8480POPC   C3B45249  13.514  44.889   7.053
 8480POPC   C4B45250  13.483  44.909   7.353
 8481POPC   NC345251  31.459  37.724   5.553
 8481POPC   PO445252  31.481  37.698   5.853
 8481POPC   GL145253  31.466  37.656   6.153
 8481POPC   GL245254  31.565  37.815   6.153
 8481POPC   C1A45255  31.437  37.674   6.453
 8481POPC   D2A45256  31.511  37.641   6.753
 8481POPC   C3A45257  31.516  37.692   7.053
 8481POPC   C4A45258  31.482  37.701   7.353
 8481POPC   C1B45259  31.575  37.923   6.453
 8481POPC   C2B45260  31.606  37.913   6.753
 8481POPC   C3B45261  31.576  37.884   7.053
 8481POPC   C4B45262  31.656  37.858   7.353
 8482POPC   NC345263  33.025  28.323   5.553
 8482POPC   PO445264  32.982  28.364   5.853
 8482POPC   GL145265  33.071  28.359   6.153
 8482POPC   GL245266  33.132  28.343   6.153
 8482POPC   C1A45267  33.018  28.358   6.453
 8482POPC   D2A45268  32.979  28.339   6.753
 8482POPC   C3A45269  33.013  28.383   7.053
 8482POPC   C4A45270  32.982  28.355   7.353
 8482POPC   C1B45271  33.257  28.378   6.453
 8482POPC   C2B45272  33.296  28.385   6.753
 8482POPC   C3B45273  33.252  28.392   7.053
 8482POPC   C4B45274  33.247  28.415   7.353
 8483POPC   NC345275  25.221  23.752   5.553
 8483POPC   PO445276  25.239  23.741   5.853
 8483POPC   GL145277  25.296  23.714   6.153
 8483POPC   GL245278  25.219  23.838   6.153
 8483POPC   C1A45279  25.260  23.695   6.453
 8483POPC   D2A45280  25.286  23.734   6.753
 8483POPC   C3A45281  25.287  23.702   7.053
 8483POPC   C4A45282  25.218  23.669   7.353
 8483POPC   C1B45283  25.190  23.883   6.453
 8483POPC   C2B45284  25.153  23.942   6.753
 8483POPC   C3B45285  25.189  23.960   7.053
 8483POPC   C4B45286  25.096  23.955   7.353
 8484POPC   NC345287  33.796  29.908   5.553
 8484POPC   PO445288  33.844  29.932   5.853
 8484POPC   GL145289  33.778  29.921   6.153
 8484POPC   GL245290  33.888  30.059   6.153
 8484POPC   C1A45291  33.799  29.896   6.453
 8484POPC   D2A45292  33.788  29.918   6.753
 8484POPC   C3A45293  33.810  29.934   7.053
 8484POPC   C4A45294  33.808  29.966   7.353
 8484POPC   C1B45295  33.904  30.179   6.453
 8484POPC   C2B45296  33.843  30.121   6.753
 8484POPC   C3B45297  33.895  30.185   7.053
 8484POPC   C4B45298  33.858  30.152   7.353
 8485POPC   NC345299  15.908   0.405   5.553
 8485POPC   PO445300  15.965   0.438   5.853
 8485POPC   GL145301  15.985   0.417   6.153
 8485POPC   GL245302  15.994   0.575   6.153
 8485POPC   C1A45303  15.931   0.485   6.453
 8485POPC   D2A45304  15.997   0.473   6.753
 8485POPC   C3A45305  15.985   0.458   7.053
 8485POPC   C4A45306  15.941   0.478   7.353
 8485POPC   C1B45307  16.020   0.634   6.453
 8485POPC   C2B45308  16.093   0.623   6.753
 8485POPC   C3B45309  16.093   0.646   7.053
 8485POPC   C4B45310  16.104   0.714   7.353
 8486POPC   NC345311  29.193  32.250   5.553
 8486POPC   PO445312  29.167  32.212   5.853
 8486POPC   GL145313  29.185  32.289   6.153
 8486POPC   GL245314  29.131  32.147   6.153
 8486POPC   C1A45315  29.101  32.265   6.453
 8486POPC   D2A45316  29.131  32.260   6.753
 8486POPC   C3A45317  29.143  32.276   7.053
 8486POPC   C4A45318  29.166  32.231   7.353
 8486POPC   C1B45319  29.203  32.022   6.453
 8486POPC   C2B45320  29.236  32.030   6.753
 8486POPC   C3B45321  29.176  32.049   7.053
 8486POPC   C4B45322  29.181  31.990   7.353
 8487POPC   NC345323  25.314  36.124   5.553
 8487POPC   PO445324  25.221  36.128   5.853
 8487POPC   GL145325  25.248  36.105   6.153
 8487POPC   GL245326  25.345  36.069   6.153
 8487POPC   C1A45327  25.230  36.125   6.453
 8487POPC   D2A45328  25.253  36.132   6.753
 8487POPC   C3A45329  25.307  36.167   7.053
 8487POPC   C4A45330  25.239  36.140   7.353
 8487POPC   C1B45331  25.452  35.985   6.453
 8487POPC   C2B45332  25.431  35.966   6.753
 8487POPC   C3B45333  25.395  35.978   7.053
 8487POPC   C4B45334  25.396  35.975   7.353
 8488POPC   NC345335  33.834  25.245   5.553
 8488POPC   PO445336  33.752  25.237   5.853
 8488POPC   GL145337  33.788  25.270   6.153
 8488POPC   GL245338  33.729  25.228   6.153
 8488POPC   C1A45339  33.825  25.256   6.453
 8488POPC   D2A45340  33.826  25.311   6.753
 8488POPC   C3A45341  33.771  25.300   7.053
 8488POPC   C4A45342  33.751  25.270   7.353
 8488POPC   C1B45343  33.610  25.155   6.453
 8488POPC   C2B45344  33.587  25.130   6.753
 8488POPC   C3B45345  33.554  25.114   7.053
 8488POPC   C4B45346  33.632  25.100   7.353
 8489POPC   NC345347  40.814  19.023   5.553
 8489POPC   PO445348  40.804  19.106   5.853
 8489POPC   GL145349  40.809  19.107   6.153
 8489POPC   GL245350  40.850  19.120   6.153
 8489POPC   C1A45351  40.814  19.061   6.453
 8489POPC   D2A45352  40.807  19.058   6.753
 8489POPC   C3A45353  40.764  19.055   7.053
 8489POPC   C4A45354  40.782  19.059   7.353
 8489POPC   C1B45355  40.939  19.256   6.453
 8489POPC   C2B45356  40.914  19.245   6.753
 8489POPC   C3B45357  40.928  19.225   7.053
 8489POPC   C4B45358  40.905  19.225   7.353
 8490POPC   NC345359   2.039  35.333   5.553
 8490POPC   PO445360   1.977  35.374   5.853
 8490POPC   GL145361   1.948  35.326   6.153
 8490POPC   GL245362   2.014  35.195   6.153
 8490POPC   C1A45363   2.028  35.371   6.453
 8490POPC   D2A45364   1.961  35.327   6.753
 8490POPC   C3A45365   2.006  35.378   7.053
 8490POPC   C4A45366   1.977  35.371   7.353
 8490POPC   C1B45367   2.074  35.109   6.453
 8490POPC   C2B45368   2.025  35.150   6.753
 8490POPC   C3B45369   1.988  35.134   7.053
 8490POPC   C4B45370   2.050  35.100   7.353
 8491POPC   NC345371  22.201  24.490   5.553
 8491POPC   PO445372  22.176  24.470   5.853
 8491POPC   GL145373  22.148  24.451   6.153
 8491POPC   GL245374  22.203  24.574   6.153
 8491POPC   C1A45375  22.130  24.531   6.453
 8491POPC   D2A45376  22.177  24.465   6.753
 8491POPC   C3A45377  22.204  24.502   7.053
 8491POPC   C4A45378  22.147  24.471   7.353
 8491POPC   C1B45379  22.264  24.752   6.453
 8491POPC   C2B45380  22.313  24.661   6.753
 8491POPC   C3B45381  22.292  24.704   7.053
 8491POPC   C4B45382  22.332  24.669   7.353
 8492POPC   NC345383  40.034   4.314   5.553
 8492POPC   PO445384  40.013   4.313   5.853
 8492POPC   GL145385  39.985   4.281   6.153
 8492POPC   GL245386  39.947   4.231   6.153
 8492POPC   C1A45387  40.018   4.278   6.453
 8492POPC   D2A45388  39.980   4.344   6.753
 8492POPC   C3A45389  40.053   4.304   7.053
 8492POPC   C4A45390  39.983   4.338   7.353
 8492POPC   C1B45391  39.816   4.088   6.453
 8492POPC   C2B45392  39.845   4.102   6.753
 8492POPC   C3B45393  39.875   4.076   7.053
 8492POPC   C4B45394  39.889   4.139   7.353
 8493POPC   NC345395  31.436   4.292   5.553
 8493POPC   PO445396  31.487   4.320   5.853
 8493POPC   GL145397  31.517   4.268   6.153
 8493POPC   GL245398  31.407   4.252   6.153
 8493POPC   C1A45399  31.446   4.304   6.453
 8493POPC   D2A45400  31.488   4.287   6.753
 8493POPC   C3A45401  31.492   4.322   7.053
 8493POPC   C4A45402  31.423   4.275   7.353
 8493POPC   C1B45403  31.286   4.157   6.453
 8493POPC   C2B45404  31.267   4.162   6.753
 8493POPC   C3B45405  31.254   4.153   7.053
 8493POPC   C4B45406  31.277   4.178   7.353
 8494POPC   NC345407  41.564  20.612   5.553
 8494POPC   PO445408  41.608  20.627   5.853
 8494POPC   GL145409  41.561  20.614   6.153
 8494POPC   GL245410  41.677  20.582   6.153
 8494POPC   C1A45411  41.564  20.631   6.453
 8494POPC   D2A45412  41.541  20.575   6.753
 8494POPC   C3A45413  41.536  20.619   7.053
 8494POPC   C4A45414  41.553  20.566   7.353
 8494POPC   C1B45415  41.770  20.498   6.453
 8494POPC   C2B45416  41.819  20.492   6.753
 8494POPC   C3B45417  41.791  20.462   7.053
 8494POPC   C4B45418  41.724  20.489   7.353
 8495POPC   NC345419  44.639  16.768   5.553
 8495POPC   PO445420  44.702  16.752   5.853
 8495POPC   GL145421  44.645  16.776   6.153
 8495POPC   GL245422  44.764  16.858   6.153
 8495POPC   C1A45423  44.677  16.695   6.453
 8495POPC   D2A45424  44.680  16.702   6.753
 8495POPC   C3A45425  44.662  16.738   7.053
 8495POPC   C4A45426  44.712  16.772   7.353
 8495POPC   C1B45427  44.827  16.935   6.453
 8495POPC   C2B45428  44.834  16.938   6.753
 8495POPC   C3B45429  44.789  16.960   7.053
 8495POPC   C4B45430  44.774  16.956   7.353
 8496POPC   NC345431  28.393  30.726   5.553
 8496POPC   PO445432  28.322  30.655   5.853
 8496POPC   GL145433  28.414  30.648   6.153
 8496POPC   GL245434  28.256  30.600   6.153
 8496POPC   C1A45435  28.414  30.661   6.453
 8496POPC   D2A45436  28.372  30.745   6.753
 8496POPC   C3A45437  28.390  30.708   7.053
 8496POPC   C4A45438  28.320  30.733   7.353
 8496POPC   C1B45439  28.171  30.502   6.453
 8496POPC   C2B45440  28.218  30.581   6.753
 8496POPC   C3B45441  28.168  30.577   7.053
 8496POPC   C4B45442  28.164  30.567   7.353
 8497POPC   NC345443  16.749   1.978   5.553
 8497POPC   PO445444  16.767   1.947   5.853
 8497POPC   GL145445  16.713   2.008   6.153
 8497POPC   GL245446  16.639   2.103   6.153
 8497POPC   C1A45447  16.739   1.970   6.453
 8497POPC   D2A45448  16.720   2.004   6.753
 8497POPC   C3A45449  16.721   1.954   7.053
 8497POPC   C4A45450  16.682   1.962   7.353
 8497POPC   C1B45451  16.519   2.202   6.453
 8497POPC   C2B45452  16.556   2.230   6.753
 8497POPC   C3B45453  16.521   2.160   7.053
 8497POPC   C4B45454  16.531   2.138   7.353
 8498POPC   NC345455  26.796  41.578   5.553
 8498POPC   PO445456  26.773  41.553   5.853
 8498POPC   GL145457  26.813  41.558   6.153
 8498POPC   GL245458  26.699  41.521   6.153
 8498POPC   C1A45459  26.810  41.591   6.453
 8498POPC   D2A45460  26.819  41.517   6.753
 8498POPC   C3A45461  26.834  41.524   7.053
 8498POPC   C4A45462  26.805  41.547   7.353
 8498POPC   C1B45463  26.588  41.393   6.453
 8498POPC   C2B45464  26.626  41.422   6.753
 8498POPC   C3B45465  26.560  41.418   7.053
 8498POPC   C4B45466  26.645  41.443   7.353
 8499POPC   NC345467  29.915   3.561   5.553
 8499POPC   PO445468  29.965   3.572   5.853
 8499POPC   GL145469  29.957   3.524   6.153
 8499POPC   GL245470  29.778   3.590   6.153
 8499POPC   C1A45471  29.911   3.539   6.453
 8499POPC   D2A45472  29.966   3.532   6.753
 8499POPC   C3A45473  29.925   3.560   7.053
 8499POPC   C4A45474  29.966   3.589   7.353
 8499POPC   C1B45475  29.738   3.672   6.453
 8499POPC   C2B45476  29.676   3.665   6.753
 8499POPC   C3B45477  29.713   3.619   7.053
 8499POPC   C4B45478  29.695   3.620   7.353
 8500POPC   NC345479   0.451  40.015   5.553
 8500POPC   PO445480   0.425  40.003   5.853
 8500POPC   GL145481   0.443  40.026   6.153
 8500POPC   GL245482   0.491  40.110   6.153
 8500POPC   C1A45483   0.419  39.987   6.453
 8500POPC   D2A45484   0.401  40.038   6.753
 8500POPC   C3A45485   0.417  39.970   7.053
 8500POPC   C4A45486   0.487  40.054   7.353
 8500POPC   C1B45487   0.585  40.145   6.453
 8500POPC   C2B45488   0.576  40.195   6.753
 8500POPC   C3B45489   0.642  40.178   7.053
 8500POPC   C4B45490   0.576  40.184   7.353
 8501POPC   NC345491  24.494  17.542   5.553
 8501POPC   PO445492  24.491  17.475   5.853
 8501POPC   GL145493  24.514  17.484   6.153
 8501POPC   GL245494  24.503  17.622   6.153
 8501POPC   C1A45495  24.532  17.546   6.453
 8501POPC   D2A45496  24.443  17.543   6.753
 8501POPC   C3A45497  24.500  17.508   7.053
 8501POPC   C4A45498  24.537  17.512   7.353
 8501POPC   C1B45499  24.422  17.712   6.453
 8501POPC   C2B45500  24.445  17.736   6.753
 8501POPC   C3B45501  24.475  17.788   7.053
 8501POPC   C4B45502  24.450  17.723   7.353
 8502POPC   NC345503  35.352  27.582   5.553
 8502POPC   PO445504  35.383  27.606   5.853
 8502POPC   GL145505  35.363  27.639   6.153
 8502POPC   GL245506  35.322  27.475   6.153
 8502POPC   C1A45507  35.398  27.546   6.453
 8502POPC   D2A45508  35.387  27.582   6.753
 8502POPC   C3A45509  35.396  27.545   7.053
 8502POPC   C4A45510  35.389  27.577   7.353
 8502POPC   C1B45511  35.188  27.355   6.453
 8502POPC   C2B45512  35.223  27.387   6.753
 8502POPC   C3B45513  35.230  27.415   7.053
 8502POPC   C4B45514  35.228  27.367   7.353
 8503POPC   NC345515  38.458   5.053   5.553
 8503POPC   PO445516  38.425   5.056   5.853
 8503POPC   GL145517  38.420   5.111   6.153
 8503POPC   GL245518  38.463   5.231   6.153
 8503POPC   C1A45519  38.449   5.134   6.453
 8503POPC   D2A45520  38.487   5.094   6.753
 8503POPC   C3A45521  38.433   5.126   7.053
 8503POPC   C4A45522  38.477   5.110   7.353
 8503POPC   C1B45523  38.445   5.311   6.453
 8503POPC   C2B45524  38.384   5.309   6.753
 8503POPC   C3B45525  38.404   5.314   7.053
 8503POPC   C4B45526  38.435   5.378   7.353
 8504POPC   NC345527  31.522  31.458   5.553
 8504POPC   PO445528  31.521  31.489   5.853
 8504POPC   GL145529  31.490  31.425   6.153
 8504POPC   GL245530  31.618  31.437   6.153
 8504POPC   C1A45531  31.520  31.459   6.453
 8504POPC   D2A45532  31.510  31.488   6.753
 8504POPC   C3A45533  31.446  31.503   7.053
 8504POPC   C4A45534  31.424  31.427   7.353
 8504POPC   C1B45535  31.669  31.368   6.453
 8504POPC   C2B45536  31.715  31.315   6.753
 8504POPC   C3B45537  31.737  31.350   7.053
 8504POPC   C4B45538  31.731  31.410   7.353
 8505POPC   NC345539  19.797  38.453   5.553
 8505POPC   PO445540  19.829  38.412   5.853
 8505POPC   GL145541  19.801  38.498   6.153
 8505POPC   GL245542  19.949  38.462   6.153
 8505POPC   C1A45543  19.805  38.504   6.453
 8505POPC   D2A45544  19.803  38.415   6.753
 8505POPC   C3A45545  19.834  38.479   7.053
 8505POPC   C4A45546  19.838  38.442   7.353
 8505POPC   C1B45547  20.039  38.519   6.453
 8505POPC   C2B45548  20.110  38.570   6.753
 8505POPC   C3B45549  20.048  38.537   7.053
 8505POPC   C4B45550  20.042  38.565   7.353
 8506POPC   NC345551  39.191  20.595   5.553
 8506POPC   PO445552  39.253  20.645   5.853
 8506POPC   GL145553  39.230  20.573   6.153
 8506POPC   GL245554  39.369  20.546   6.153
 8506POPC   C1A45555  39.253  20.566   6.453
 8506POPC   D2A45556  39.208  20.598   6.753
 8506POPC   C3A45557  39.212  20.594   7.053
 8506POPC   C4A45558  39.256  20.586   7.353
 8506POPC   C1B45559  39.452  20.426   6.453
 8506POPC   C2B45560  39.449  20.442   6.753
 8506POPC   C3B45561  39.417  20.420   7.053
 8506POPC   C4B45562  39.382  20.494   7.353
 8507POPC   NC345563  26.848  17.502   5.553
 8507POPC   PO445564  26.779  17.518   5.853
 8507POPC   GL145565  26.782  17.500   6.153
 8507POPC   GL245566  26.927  17.553   6.153
 8507POPC   C1A45567  26.785  17.539   6.453
 8507POPC   D2A45568  26.850  17.513   6.753
 8507POPC   C3A45569  26.865  17.514   7.053
 8507POPC   C4A45570  26.803  17.474   7.353
 8507POPC   C1B45571  27.062  17.613   6.453
 8507POPC   C2B45572  27.039  17.619   6.753
 8507POPC   C3B45573  27.075  17.622   7.053
 8507POPC   C4B45574  26.983  17.629   7.353
 8508POPC   NC345575  37.721  34.621   5.553
 8508POPC   PO445576  37.706  34.538   5.853
 8508POPC   GL145577  37.668  34.566   6.153
 8508POPC   GL245578  37.695  34.671   6.153
 8508POPC   C1A45579  37.652  34.583   6.453
 8508POPC   D2A45580  37.675  34.544   6.753
 8508POPC   C3A45581  37.632  34.551   7.053
 8508POPC   C4A45582  37.656  34.590   7.353
 8508POPC   C1B45583  37.619  34.799   6.453
 8508POPC   C2B45584  37.588  34.831   6.753
 8508POPC   C3B45585  37.578  34.812   7.053
 8508POPC   C4B45586  37.611  34.783   7.353
 8509POPC   NC345587  27.583  15.186   5.553
 8509POPC   PO445588  27.607  15.146   5.853
 8509POPC   GL145589  27.548  15.203   6.153
 8509POPC   GL245590  27.437  15.155   6.153
 8509POPC   C1A45591  27.580  15.174   6.453
 8509POPC   D2A45592  27.548  15.209   6.753
 8509POPC   C3A45593  27.567  15.152   7.053
 8509POPC   C4A45594  27.639  15.171   7.353
 8509POPC   C1B45595  27.381  15.126   6.453
 8509POPC   C2B45596  27.337  15.152   6.753
 8509POPC   C3B45597  27.379  15.141   7.053
 8509POPC   C4B45598  27.383  15.161   7.353
 8510POPC   NC345599  39.218  39.974   5.553
 8510POPC   PO445600  39.221  40.002   5.853
 8510POPC   GL145601  39.191  39.994   6.153
 8510POPC   GL245602  39.144  40.083   6.153
 8510POPC   C1A45603  39.239  40.053   6.453
 8510POPC   D2A45604  39.184  40.047   6.753
 8510POPC   C3A45605  39.259  40.019   7.053
 8510POPC   C4A45606  39.210  40.027   7.353
 8510POPC   C1B45607  39.178  40.221   6.453
 8510POPC   C2B45608  39.110  40.249   6.753
 8510POPC   C3B45609  39.118  40.243   7.053
 8510POPC   C4B45610  39.131  40.262   7.353
 8511POPC   NC345611  43.085  21.413   5.553
 8511POPC   PO445612  43.070  21.420   5.853
 8511POPC   GL145613  43.083  21.377   6.153
 8511POPC   GL245614  43.246  21.295   6.153
 8511POPC   C1A45615  43.112  21.393   6.453
 8511POPC   D2A45616  43.088  21.370   6.753
 8511POPC   C3A45617  43.111  21.364   7.053
 8511POPC   C4A45618  43.073  21.429   7.353
 8511POPC   C1B45619  43.332  21.289   6.453
 8511POPC   C2B45620  43.383  21.322   6.753
 8511POPC   C3B45621  43.325  21.332   7.053
 8511POPC   C4B45622  43.363  21.251   7.353
 8512POPC   NC345623  35.364   8.217   5.553
 8512POPC   PO445624  35.341   8.163   5.853
 8512POPC   GL145625  35.364   8.220   6.153
 8512POPC   GL245626  35.447   8.219   6.153
 8512POPC   C1A45627  35.365   8.204   6.453
 8512POPC   D2A45628  35.359   8.200   6.753
 8512POPC   C3A45629  35.398   8.245   7.053
 8512POPC   C4A45630  35.382   8.199   7.353
 8512POPC   C1B45631  35.619   8.119   6.453
 8512POPC   C2B45632  35.612   8.185   6.753
 8512POPC   C3B45633  35.581   8.152   7.053
 8512POPC   C4B45634  35.583   8.122   7.353
 8513POPC   NC345635   1.256  11.335   5.553
 8513POPC   PO445636   1.243  11.313   5.853
 8513POPC   GL145637   1.173  11.269   6.153
 8513POPC   GL245638   1.159  11.425   6.153
 8513POPC   C1A45639   1.251  11.330   6.453
 8513POPC   D2A45640   1.193  11.314   6.753
 8513POPC   C3A45641   1.221  11.274   7.053
 8513POPC   C4A45642   1.222  11.261   7.353
 8513POPC   C1B45643   1.150  11.500   6.453
 8513POPC   C2B45644   1.089  11.547   6.753
 8513POPC   C3B45645   1.112  11.573   7.053
 8513POPC   C4B45646   1.107  11.551   7.353
 8514POPC   NC345647  40.039  43.906   5.553
 8514POPC   PO445648  40.008  43.852   5.853
 8514POPC   GL145649  40.044  43.851   6.153
 8514POPC   GL245650  40.091  43.810   6.153
 8514POPC   C1A45651  39.964  43.907   6.453
 8514POPC   D2A45652  40.056  43.927   6.753
 8514POPC   C3A45653  40.016  43.859   7.053
 8514POPC   C4A45654  40.013  43.845   7.353
 8514POPC   C1B45655  40.082  43.708   6.453
 8514POPC   C2B45656  40.074  43.656   6.753
 8514POPC   C3B45657  40.159  43.667   7.053
 8514POPC   C4B45658  40.161  43.622   7.353
 8515POPC   NC345659   2.736  40.790   5.553
 8515POPC   PO445660   2.723  40.814   5.853
 8515POPC   GL145661   2.716  40.779   6.153
 8515POPC   GL245662   2.768  40.906   6.153
 8515POPC   C1A45663   2.789  40.779   6.453
 8515POPC   D2A45664   2.746  40.775   6.753
 8515POPC   C3A45665   2.772  40.765   7.053
 8515POPC   C4A45666   2.718  40.823   7.353
 8515POPC   C1B45667   2.669  40.983   6.453
 8515POPC   C2B45668   2.726  40.976   6.753
 8515POPC   C3B45669   2.669  41.024   7.053
 8515POPC   C4B45670   2.705  41.050   7.353
 8516POPC   NC345671   9.736  25.246   5.553
 8516POPC   PO445672   9.731  25.287   5.853
 8516POPC   GL145673   9.776  25.306   6.153
 8516POPC   GL245674   9.763  25.387   6.153
 8516POPC   C1A45675   9.767  25.265   6.453
 8516POPC   D2A45676   9.794  25.305   6.753
 8516POPC   C3A45677   9.703  25.248   7.053
 8516POPC   C4A45678   9.732  25.302   7.353
 8516POPC   C1B45679   9.754  25.473   6.453
 8516POPC   C2B45680   9.808  25.496   6.753
 8516POPC   C3B45681   9.774  25.538   7.053
 8516POPC   C4B45682   9.788  25.543   7.353
 8517POPC   NC345683  41.586  19.849   5.553
 8517POPC   PO445684  41.606  19.816   5.853
 8517POPC   GL145685  41.552  19.866   6.153
 8517POPC   GL245686  41.455  19.736   6.153
 8517POPC   C1A45687  41.537  19.855   6.453
 8517POPC   D2A45688  41.588  19.864   6.753
 8517POPC   C3A45689  41.520  19.861   7.053
 8517POPC   C4A45690  41.550  19.800   7.353
 8517POPC   C1B45691  41.420  19.591   6.453
 8517POPC   C2B45692  41.448  19.662   6.753
 8517POPC   C3B45693  41.370  19.621   7.053
 8517POPC   C4B45694  41.448  19.633   7.353
 8518POPC   NC345695   9.742   5.861   5.553
 8518POPC   PO445696   9.760   5.907   5.853
 8518POPC   GL145697   9.775   5.877   6.153
 8518POPC   GL245698   9.689   6.001   6.153
 8518POPC   C1A45699   9.720   5.843   6.453
 8518POPC   D2A45700   9.744   5.822   6.753
 8518POPC   C3A45701   9.699   5.839   7.053
 8518POPC   C4A45702   9.761   5.899   7.353
 8518POPC   C1B45703   9.579   6.045   6.453
 8518POPC   C2B45704   9.651   6.133   6.753
 8518POPC   C3B45705   9.578   6.117   7.053
 8518POPC   C4B45706   9.610   6.097   7.353
 8519POPC   NC345707  37.712  22.893   5.553
 8519POPC   PO445708  37.721  22.978   5.853
 8519POPC   GL145709  37.662  22.973   6.153
 8519POPC   GL245710  37.511  22.917   6.153
 8519POPC   C1A45711  37.724  22.902   6.453
 8519POPC   D2A45712  37.652  22.938   6.753
 8519POPC   C3A45713  37.681  22.946   7.053
 8519POPC   C4A45714  37.696  22.978   7.353
 8519POPC   C1B45715  37.430  22.869   6.453
 8519POPC   C2B45716  37.478  22.889   6.753
 8519POPC   C3B45717  37.400  22.955   7.053
 8519POPC   C4B45718  37.406  22.895   7.353
 8520POPC   NC345719  40.021  10.487   5.553
 8520POPC   PO445720  39.963  10.476   5.853
 8520POPC   GL145721  39.997  10.505   6.153
 8520POPC   GL245722  40.163  10.489   6.153
 8520POPC   C1A45723  40.025  10.549   6.453
 8520POPC   D2A45724  39.981  10.532   6.753
 8520POPC   C3A45725  40.045  10.533   7.053
 8520POPC   C4A45726  40.032  10.565   7.353
 8520POPC   C1B45727  40.282  10.501   6.453
 8520POPC   C2B45728  40.281  10.585   6.753
 8520POPC   C3B45729  40.216  10.554   7.053
 8520POPC   C4B45730  40.220  10.526   7.353
 8521POPC   NC345731  25.245   1.979   5.553
 8521POPC   PO445732  25.241   1.978   5.853
 8521POPC   GL145733  25.281   2.026   6.153
 8521POPC   GL245734  25.351   1.983   6.153
 8521POPC   C1A45735  25.257   2.012   6.453
 8521POPC   D2A45736  25.296   1.985   6.753
 8521POPC   C3A45737  25.310   2.036   7.053
 8521POPC   C4A45738  25.291   1.998   7.353
 8521POPC   C1B45739  25.525   1.867   6.453
 8521POPC   C2B45740  25.452   1.830   6.753
 8521POPC   C3B45741  25.461   1.922   7.053
 8521POPC   C4B45742  25.512   1.859   7.353
 8522POPC   NC345743  30.728   2.759   5.553
 8522POPC   PO445744  30.700   2.787   5.853
 8522POPC   GL145745  30.722   2.788   6.153
 8522POPC   GL245746  30.755   2.863   6.153
 8522POPC   C1A45747  30.727   2.748   6.453
 8522POPC   D2A45748  30.656   2.783   6.753
 8522POPC   C3A45749  30.670   2.763   7.053
 8522POPC   C4A45750  30.685   2.793   7.353
 8522POPC   C1B45751  30.885   2.864   6.453
 8522POPC   C2B45752  30.899   2.904   6.753
 8522POPC   C3B45753  30.926   2.864   7.053
 8522POPC   C4B45754  30.906   2.910   7.353
 8523POPC   NC345755   5.071  19.867   5.553
 8523POPC   PO445756   5.048  19.806   5.853
 8523POPC   GL145757   5.109  19.875   6.153
 8523POPC   GL245758   5.104  19.904   6.153
 8523POPC   C1A45759   5.097  19.871   6.453
 8523POPC   D2A45760   5.108  19.798   6.753
 8523POPC   C3A45761   5.066  19.829   7.053
 8523POPC   C4A45762   5.063  19.829   7.353
 8523POPC   C1B45763   5.223  20.088   6.453
 8523POPC   C2B45764   5.201  20.057   6.753
 8523POPC   C3B45765   5.207  20.064   7.053
 8523POPC   C4B45766   5.170  20.030   7.353
 8524POPC   NC345767  21.418  39.227   5.553
 8524POPC   PO445768  21.347  39.186   5.853
 8524POPC   GL145769  21.391  39.260   6.153
 8524POPC   GL245770  21.459  39.149   6.153
 8524POPC   C1A45771  21.376  39.233   6.453
 8524POPC   D2A45772  21.367  39.273   6.753
 8524POPC   C3A45773  21.424  39.270   7.053
 8524POPC   C4A45774  21.402  39.204   7.353
 8524POPC   C1B45775  21.423  39.038   6.453
 8524POPC   C2B45776  21.427  38.982   6.753
 8524POPC   C3B45777  21.437  39.015   7.053
 8524POPC   C4B45778  21.433  39.022   7.353
 8525POPC   NC345779   5.823  15.155   5.553
 8525POPC   PO445780   5.843  15.170   5.853
 8525POPC   GL145781   5.854  15.150   6.153
 8525POPC   GL245782   5.941  15.259   6.153
 8525POPC   C1A45783   5.849  15.209   6.453
 8525POPC   D2A45784   5.847  15.130   6.753
 8525POPC   C3A45785   5.831  15.225   7.053
 8525POPC   C4A45786   5.837  15.186   7.353
 8525POPC   C1B45787   5.967  15.395   6.453
 8525POPC   C2B45788   5.994  15.432   6.753
 8525POPC   C3B45789   5.990  15.350   7.053
 8525POPC   C4B45790   6.001  15.396   7.353
 8526POPC   NC345791  12.812   0.440   5.553
 8526POPC   PO445792  12.824   0.477   5.853
 8526POPC   GL145793  12.842   0.436   6.153
 8526POPC   GL245794  12.795   0.475   6.153
 8526POPC   C1A45795  12.895   0.427   6.453
 8526POPC   D2A45796  12.851   0.465   6.753
 8526POPC   C3A45797  12.901   0.480   7.053
 8526POPC   C4A45798  12.833   0.412   7.353
 8526POPC   C1B45799  12.602   0.633   6.453
 8526POPC   C2B45800  12.623   0.588   6.753
 8526POPC   C3B45801  12.605   0.573   7.053
 8526POPC   C4B45802  12.601   0.550   7.353
 8527POPC   NC345803  20.603  36.114   5.553
 8527POPC   PO445804  20.637  36.105   5.853
 8527POPC   GL145805  20.580  36.081   6.153
 8527POPC   GL245806  20.707  36.089   6.153
 8527POPC   C1A45807  20.658  36.090   6.453
 8527POPC   D2A45808  20.602  36.162   6.753
 8527POPC   C3A45809  20.629  36.127   7.053
 8527POPC   C4A45810  20.587  36.134   7.353
 8527POPC   C1B45811  20.821  36.051   6.453
 8527POPC   C2B45812  20.850  35.995   6.753
 8527POPC   C3B45813  20.824  36.072   7.053
 8527POPC   C4B45814  20.849  36.028   7.353
 8528POPC   NC345815  26.848  22.138   5.553
 8528POPC   PO445816  26.830  22.148   5.853
 8528POPC   GL145817  26.772  22.144   6.153
 8528POPC   GL245818  26.789  22.231   6.153
 8528POPC   C1A45819  26.840  22.183   6.453
 8528POPC   D2A45820  26.838  22.196   6.753
 8528POPC   C3A45821  26.853  22.138   7.053
 8528POPC   C4A45822  26.773  22.166   7.353
 8528POPC   C1B45823  26.642  22.395   6.453
 8528POPC   C2B45824  26.657  22.411   6.753
 8528POPC   C3B45825  26.738  22.392   7.053
 8528POPC   C4B45826  26.667  22.393   7.353
 8529POPC   NC345827   8.972  19.845   5.553
 8529POPC   PO445828   8.942  19.848   5.853
 8529POPC   GL145829   8.970  19.796   6.153
 8529POPC   GL245830   8.973  19.942   6.153
 8529POPC   C1A45831   9.015  19.867   6.453
 8529POPC   D2A45832   8.941  19.785   6.753
 8529POPC   C3A45833   9.002  19.793   7.053
 8529POPC   C4A45834   9.018  19.862   7.353
 8529POPC   C1B45835   9.031  20.068   6.453
 8529POPC   C2B45836   8.967  20.127   6.753
 8529POPC   C3B45837   9.037  20.058   7.053
 8529POPC   C4B45838   9.002  20.070   7.353
 8530POPC   NC345839  24.491  31.431   5.553
 8530POPC   PO445840  24.461  31.443   5.853
 8530POPC   GL145841  24.516  31.479   6.153
 8530POPC   GL245842  24.565  31.442   6.153
 8530POPC   C1A45843  24.474  31.447   6.453
 8530POPC   D2A45844  24.471  31.477   6.753
 8530POPC   C3A45845  24.451  31.499   7.053
 8530POPC   C4A45846  24.486  31.450   7.353
 8530POPC   C1B45847  24.709  31.277   6.453
 8530POPC   C2B45848  24.662  31.310   6.753
 8530POPC   C3B45849  24.720  31.325   7.053
 8530POPC   C4B45850  24.643  31.317   7.353
 8531POPC   NC345851  36.111  33.834   5.553
 8531POPC   PO445852  36.121  33.764   5.853
 8531POPC   GL145853  36.089  33.813   6.153
 8531POPC   GL245854  36.229  33.733   6.153
 8531POPC   C1A45855  36.154  33.840   6.453
 8531POPC   D2A45856  36.124  33.800   6.753
 8531POPC   C3A45857  36.153  33.834   7.053
 8531POPC   C4A45858  36.097  33.796   7.353
 8531POPC   C1B45859  36.381  33.711   6.453
 8531POPC   C2B45860  36.372  33.652   6.753
 8531POPC   C3B45861  36.371  33.698   7.053
 8531POPC   C4B45862  36.365  33.700   7.353
 8532POPC   NC345863   5.135   9.798   5.553
 8532POPC   PO445864   5.112   9.788   5.853
 8532POPC   GL145865   5.133   9.752   6.153
 8532POPC   GL245866   4.949   9.722   6.153
 8532POPC   C1A45867   5.109   9.741   6.453
 8532POPC   D2A45868   5.050   9.784   6.753
 8532POPC   C3A45869   5.068   9.724   7.053
 8532POPC   C4A45870   5.046   9.764   7.353
 8532POPC   C1B45871   4.860   9.752   6.453
 8532POPC   C2B45872   4.837   9.796   6.753
 8532POPC   C3B45873   4.872   9.829   7.053
 8532POPC   C4B45874   4.853   9.753   7.353
 8533POPC   NC345875  15.963  42.319   5.553
 8533POPC   PO445876  15.944  42.366   5.853
 8533POPC   GL145877  15.926  42.337   6.153
 8533POPC   GL245878  16.032  42.293   6.153
 8533POPC   C1A45879  15.908  42.374   6.453
 8533POPC   D2A45880  15.981  42.354   6.753
 8533POPC   C3A45881  15.958  42.300   7.053
 8533POPC   C4A45882  15.962  42.350   7.353
 8533POPC   C1B45883  16.112  42.182   6.453
 8533POPC   C2B45884  16.157  42.172   6.753
 8533POPC   C3B45885  16.132  42.156   7.053
 8533POPC   C4B45886  16.129  42.173   7.353
 8534POPC   NC345887  43.066  35.365   5.553
 8534POPC   PO445888  43.153  35.310   5.853
 8534POPC   GL145889  43.102  35.380   6.153
 8534POPC   GL245890  43.146  35.214   6.153
 8534POPC   C1A45891  43.089  35.311   6.453
 8534POPC   D2A45892  43.069  35.355   6.753
 8534POPC   C3A45893  43.094  35.334   7.053
 8534POPC   C4A45894  43.117  35.372   7.353
 8534POPC   C1B45895  43.180  35.148   6.453
 8534POPC   C2B45896  43.172  35.075   6.753
 8534POPC   C3B45897  43.156  35.131   7.053
 8534POPC   C4B45898  43.172  35.058   7.353
 8535POPC   NC345899  29.966  29.946   5.553
 8535POPC   PO445900  29.936  29.938   5.853
 8535POPC   GL145901  29.880  29.897   6.153
 8535POPC   GL245902  30.024  29.981   6.153
 8535POPC   C1A45903  29.923  29.948   6.453
 8535POPC   D2A45904  29.914  29.903   6.753
 8535POPC   C3A45905  29.881  29.908   7.053
 8535POPC   C4A45906  29.942  29.938   7.353
 8535POPC   C1B45907  30.163  29.950   6.453
 8535POPC   C2B45908  30.136  29.932   6.753
 8535POPC   C3B45909  30.216  29.924   7.053
 8535POPC   C4B45910  30.194  29.936   7.353
 8536POPC   NC345911  34.598   9.779   5.553
 8536POPC   PO445912  34.622   9.780   5.853
 8536POPC   GL145913  34.572   9.719   6.153
 8536POPC   GL245914  34.412   9.765   6.153
 8536POPC   C1A45915  34.567   9.721   6.453
 8536POPC   D2A45916  34.565   9.756   6.753
 8536POPC   C3A45917  34.558   9.763   7.053
 8536POPC   C4A45918  34.578   9.773   7.353
 8536POPC   C1B45919  34.292   9.743   6.453
 8536POPC   C2B45920  34.331   9.748   6.753
 8536POPC   C3B45921  34.350   9.729   7.053
 8536POPC   C4B45922  34.331   9.740   7.353
 8537POPC   NC345923   9.765  43.070   5.553
 8537POPC   PO445924   9.767  43.107   5.853
 8537POPC   GL145925   9.701  43.072   6.153
 8537POPC   GL245926   9.631  43.144   6.153
 8537POPC   C1A45927   9.762  43.063   6.453
 8537POPC   D2A45928   9.759  43.104   6.753
 8537POPC   C3A45929   9.789  43.120   7.053
 8537POPC   C4A45930   9.765  43.136   7.353
 8537POPC   C1B45931   9.566  43.246   6.453
 8537POPC   C2B45932   9.563  43.232   6.753
 8537POPC   C3B45933   9.549  43.223   7.053
 8537POPC   C4B45934   9.520  43.189   7.353
 8538POPC   NC345935  23.739  40.024   5.553
 8538POPC   PO445936  23.758  39.997   5.853
 8538POPC   GL145937  23.692  40.016   6.153
 8538POPC   GL245938  23.578  39.905   6.153
 8538POPC   C1A45939  23.754  40.042   6.453
 8538POPC   D2A45940  23.690  39.985   6.753
 8538POPC   C3A45941  23.691  39.958   7.053
 8538POPC   C4A45942  23.728  39.990   7.353
 8538POPC   C1B45943  23.487  39.811   6.453
 8538POPC   C2B45944  23.550  39.838   6.753
 8538POPC   C3B45945  23.559  39.819   7.053
 8538POPC   C4B45946  23.484  39.875   7.353
 8539POPC   NC345947   3.517   6.625   5.553
 8539POPC   PO445948   3.516   6.632   5.853
 8539POPC   GL145949   3.586   6.638   6.153
 8539POPC   GL245950   3.533   6.491   6.153
 8539POPC   C1A45951   3.569   6.630   6.453
 8539POPC   D2A45952   3.565   6.694   6.753
 8539POPC   C3A45953   3.513   6.679   7.053
 8539POPC   C4A45954   3.544   6.625   7.353
 8539POPC   C1B45955   3.535   6.399   6.453
 8539POPC   C2B45956   3.496   6.444   6.753
 8539POPC   C3B45957   3.541   6.446   7.053
 8539POPC   C4B45958   3.528   6.443   7.353
 8540POPC   NC345959  15.980  23.761   5.553
 8540POPC   PO445960  15.934  23.710   5.853
 8540POPC   GL145961  15.965  23.687   6.153
 8540POPC   GL245962  16.007  23.630   6.153
 8540POPC   C1A45963  15.959  23.709   6.453
 8540POPC   D2A45964  15.907  23.671   6.753
 8540POPC   C3A45965  15.925  23.673   7.053
 8540POPC   C4A45966  15.956  23.715   7.353
 8540POPC   C1B45967  16.079  23.504   6.453
 8540POPC   C2B45968  16.049  23.457   6.753
 8540POPC   C3B45969  16.068  23.456   7.053
 8540POPC   C4B45970  16.070  23.448   7.353
 8541POPC   NC345971  11.275   8.176   5.553
 8541POPC   PO445972  11.341   8.242   5.853
 8541POPC   GL145973  11.254   8.173   6.153
 8541POPC   GL245974  11.314   8.053   6.153
 8541POPC   C1A45975  11.273   8.244   6.453
 8541POPC   D2A45976  11.320   8.168   6.753
 8541POPC   C3A45977  11.295   8.241   7.053
 8541POPC   C4A45978  11.346   8.194   7.353
 8541POPC   C1B45979  11.232   7.946   6.453
 8541POPC   C2B45980  11.266   7.929   6.753
 8541POPC   C3B45981  11.268   7.981   7.053
 8541POPC   C4B45982  11.261   7.922   7.353
 8542POPC   NC345983   1.167  18.302   5.553
 8542POPC   PO445984   1.181  18.306   5.853
 8542POPC   GL145985   1.225  18.242   6.153
 8542POPC   GL245986   1.282  18.146   6.153
 8542POPC   C1A45987   1.260  18.314   6.453
 8542POPC   D2A45988   1.263  18.286   6.753
 8542POPC   C3A45989   1.167  18.313   7.053
 8542POPC   C4A45990   1.169  18.273   7.353
 8542POPC   C1B45991   1.406  18.087   6.453
 8542POPC   C2B45992   1.357  18.052   6.753
 8542POPC   C3B45993   1.353  18.127   7.053
 8542POPC   C4B45994   1.375  18.108   7.353
 8543POPC   NC345995  17.460   5.059   5.553
 8543POPC   PO445996  17.516   5.052   5.853
 8543POPC   GL145997  17.475   5.055   6.153
 8543POPC   GL245998  17.428   5.005   6.153
 8543POPC   C1A45999  17.532   5.123   6.453
 8543POPC   D2A46000  17.555   5.067   6.753
 8543POPC   C3A46001  17.539   5.127   7.053
 8543POPC   C4A46002  17.541   5.107   7.353
 8543POPC   C1B46003  17.289   5.001   6.453
 8543POPC   C2B46004  17.309   4.994   6.753
 8543POPC   C3B46005  17.307   5.039   7.053
 8543POPC   C4B46006  17.321   4.951   7.353
 8544POPC   NC346007  29.168   6.658   5.553
 8544POPC   PO446008  29.127   6.647   5.853
 8544POPC   GL146009  29.129   6.643   6.153
 8544POPC   GL246010  29.022   6.742   6.153
 8544POPC   C1A46011  29.133   6.689   6.453
 8544POPC   D2A46012  29.131   6.667   6.753
 8544POPC   C3A46013  29.143   6.616   7.053
 8544POPC   C4A46014  29.171   6.622   7.353
 8544POPC   C1B46015  28.993   6.800   6.453
 8544POPC   C2B46016  28.970   6.785   6.753
 8544POPC   C3B46017  28.947   6.841   7.053
 8544POPC   C4B46018  28.927   6.847   7.353
 8545POPC   NC346019   3.536  19.828   5.553
 8545POPC   PO446020   3.584  19.853   5.853
 8545POPC   GL146021   3.546  19.829   6.153
 8545POPC   GL246022   3.690  19.906   6.153
 8545POPC   C1A46023   3.510  19.866   6.453
 8545POPC   D2A46024   3.583  19.803   6.753
 8545POPC   C3A46025   3.563  19.843   7.053
 8545POPC   C4A46026   3.515  19.871   7.353
 8545POPC   C1B46027   3.802  19.905   6.453
 8545POPC   C2B46028   3.750  19.929   6.753
 8545POPC   C3B46029   3.733  19.945   7.053
 8545POPC   C4B46030   3.805  19.943   7.353
 8546POPC   NC346031  27.579  19.081   5.553
 8546POPC   PO446032  27.573  19.049   5.853
 8546POPC   GL146033  27.563  19.035   6.153
 8546POPC   GL246034  27.540  18.902   6.153
 8546POPC   C1A46035  27.597  19.022   6.453
 8546POPC   D2A46036  27.628  19.024   6.753
 8546POPC   C3A46037  27.573  19.073   7.053
 8546POPC   C4A46038  27.608  19.104   7.353
 8546POPC   C1B46039  27.512  18.836   6.453
 8546POPC   C2B46040  27.528  18.860   6.753
 8546POPC   C3B46041  27.470  18.820   7.053
 8546POPC   C4B46042  27.476  18.816   7.353
 8547POPC   NC346043  22.149  11.314   5.553
 8547POPC   PO446044  22.168  11.319   5.853
 8547POPC   GL146045  22.157  11.310   6.153
 8547POPC   GL246046  22.271  11.347   6.153
 8547POPC   C1A46047  22.170  11.317   6.453
 8547POPC   D2A46048  22.161  11.329   6.753
 8547POPC   C3A46049  22.179  11.270   7.053
 8547POPC   C4A46050  22.132  11.314   7.353
 8547POPC   C1B46051  22.439  11.378   6.453
 8547POPC   C2B46052  22.383  11.328   6.753
 8547POPC   C3B46053  22.418  11.320   7.053
 8547POPC   C4B46054  22.371  11.359   7.353
 8548POPC   NC346055  19.854  43.104   5.553
 8548POPC   PO446056  19.842  43.076   5.853
 8548POPC   GL146057  19.859  43.128   6.153
 8548POPC   GL246058  19.957  43.215   6.153
 8548POPC   C1A46059  19.798  43.124   6.453
 8548POPC   D2A46060  19.801  43.100   6.753
 8548POPC   C3A46061  19.861  43.085   7.053
 8548POPC   C4A46062  19.867  43.131   7.353
 8548POPC   C1B46063  20.018  43.313   6.453
 8548POPC   C2B46064  19.971  43.239   6.753
 8548POPC   C3B46065  20.038  43.276   7.053
 8548POPC   C4B46066  20.061  43.242   7.353
 8549POPC   NC346067  19.099  23.704   5.553
 8549POPC   PO446068  19.107  23.746   5.853
 8549POPC   GL146069  19.021  23.710   6.153
 8549POPC   GL246070  19.049  23.815   6.153
 8549POPC   C1A46071  19.058  23.675   6.453
 8549POPC   D2A46072  19.019  23.762   6.753
 8549POPC   C3A46073  19.101  23.704   7.053
 8549POPC   C4A46074  19.085  23.716   7.353
 8549POPC   C1B46075  19.087  23.930   6.453
 8549POPC   C2B46076  19.114  23.961   6.753
 8549POPC   C3B46077  19.133  23.951   7.053
 8549POPC   C4B46078  19.152  23.936   7.353
 8550POPC   NC346079  13.601  18.313   5.553
 8550POPC   PO446080  13.654  18.264   5.853
 8550POPC   GL146081  13.649  18.235   6.153
 8550POPC   GL246082  13.690  18.310   6.153
 8550POPC   C1A46083  13.606  18.323   6.453
 8550POPC   D2A46084  13.625  18.275   6.753
 8550POPC   C3A46085  13.607  18.256   7.053
 8550POPC   C4A46086  13.591  18.234   7.353
 8550POPC   C1B46087  13.880  18.374   6.453
 8550POPC   C2B46088  13.827  18.439   6.753
 8550POPC   C3B46089  13.828  18.363   7.053
 8550POPC   C4B46090  13.845  18.429   7.353
 8551POPC   NC346091  28.364  15.148   5.553
 8551POPC   PO446092  28.389  15.130   5.853
 8551POPC   GL146093  28.403  15.197   6.153
 8551POPC   GL246094  28.252  15.067   6.153
 8551POPC   C1A46095  28.378  15.227   6.453
 8551POPC   D2A46096  28.352  15.208   6.753
 8551POPC   C3A46097  28.394  15.203   7.053
 8551POPC   C4A46098  28.368  15.137   7.353
 8551POPC   C1B46099  28.209  15.030   6.453
 8551POPC   C2B46100  28.233  14.940   6.753
 8551POPC   C3B46101  28.203  14.952   7.053
 8551POPC   C4B46102  28.210  14.991   7.353
 8552POPC   NC346103  26.835  34.610   5.553
 8552POPC   PO446104  26.773  34.624   5.853
 8552POPC   GL146105  26.833  34.603   6.153
 8552POPC   GL246106  26.706  34.639   6.153
 8552POPC   C1A46107  26.818  34.535   6.453
 8552POPC   D2A46108  26.817  34.596   6.753
 8552POPC   C3A46109  26.778  34.608   7.053
 8552POPC   C4A46110  26.842  34.625   7.353
 8552POPC   C1B46111  26.552  34.597   6.453
 8552POPC   C2B46112  26.530  34.587   6.753
 8552POPC   C3B46113  26.608  34.620   7.053
 8552POPC   C4B46114  26.539  34.617   7.353
 8553POPC   NC346115  10.513  33.015   5.553
 8553POPC   PO446116  10.482  32.975   5.853
 8553POPC   GL146117  10.542  32.978   6.153
 8553POPC   GL246118  10.554  33.175   6.153
 8553POPC   C1A46119  10.537  33.020   6.453
 8553POPC   D2A46120  10.494  33.010   6.753
 8553POPC   C3A46121  10.536  33.047   7.053
 8553POPC   C4A46122  10.534  33.023   7.353
 8553POPC   C1B46123  10.673  33.246   6.453
 8553POPC   C2B46124  10.634  33.266   6.753
 8553POPC   C3B46125  10.634  33.191   7.053
 8553POPC   C4B46126  10.693  33.202   7.353
 8554POPC   NC346127   2.745  18.251   5.553
 8554POPC   PO446128   2.798  18.332   5.853
 8554POPC   GL146129   2.789  18.320   6.153
 8554POPC   GL246130   2.835  18.377   6.153
 8554POPC   C1A46131   2.734  18.248   6.453
 8554POPC   D2A46132   2.805  18.296   6.753
 8554POPC   C3A46133   2.765  18.314   7.053
 8554POPC   C4A46134   2.806  18.293   7.353
 8554POPC   C1B46135   2.956  18.487   6.453
 8554POPC   C2B46136   2.973  18.495   6.753
 8554POPC   C3B46137   2.978  18.447   7.053
 8554POPC   C4B46138   2.985  18.484   7.353
 8555POPC   NC346139  13.668  12.863   5.553
 8555POPC   PO446140  13.636  12.829   5.853
 8555POPC   GL146141  13.611  12.849   6.153
 8555POPC   GL246142  13.758  12.853   6.153
 8555POPC   C1A46143  13.626  12.856   6.453
 8555POPC   D2A46144  13.637  12.863   6.753
 8555POPC   C3A46145  13.595  12.846   7.053
 8555POPC   C4A46146  13.585  12.896   7.353
 8555POPC   C1B46147  13.832  12.905   6.453
 8555POPC   C2B46148  13.880  12.905   6.753
 8555POPC   C3B46149  13.862  12.909   7.053
 8555POPC   C4B46150  13.836  12.932   7.353
 8556POPC   NC346151  19.845   1.230   5.553
 8556POPC   PO446152  19.832   1.238   5.853
 8556POPC   GL146153  19.809   1.188   6.153
 8556POPC   GL246154  19.954   1.122   6.153
 8556POPC   C1A46155  19.815   1.201   6.453
 8556POPC   D2A46156  19.831   1.178   6.753
 8556POPC   C3A46157  19.832   1.173   7.053
 8556POPC   C4A46158  19.845   1.229   7.353
 8556POPC   C1B46159  20.011   1.046   6.453
 8556POPC   C2B46160  20.046   1.109   6.753
 8556POPC   C3B46161  20.097   1.063   7.053
 8556POPC   C4B46162  20.094   1.089   7.353
 8557POPC   NC346163  37.703  42.363   5.553
 8557POPC   PO446164  37.715  42.319   5.853
 8557POPC   GL146165  37.667  42.383   6.153
 8557POPC   GL246166  37.758  42.328   6.153
 8557POPC   C1A46167  37.717  42.333   6.453
 8557POPC   D2A46168  37.662  42.341   6.753
 8557POPC   C3A46169  37.723  42.319   7.053
 8557POPC   C4A46170  37.635  42.327   7.353
 8557POPC   C1B46171  37.938  42.293   6.453
 8557POPC   C2B46172  37.910  42.231   6.753
 8557POPC   C3B46173  37.938  42.233   7.053
 8557POPC   C4B46174  37.938  42.255   7.353
 8558POPC   NC346175  22.931  29.171   5.553
 8558POPC   PO446176  22.980  29.189   5.853
 8558POPC   GL146177  22.951  29.160   6.153
 8558POPC   GL246178  22.816  29.082   6.153
 8558POPC   C1A46179  22.977  29.106   6.453
 8558POPC   D2A46180  22.981  29.148   6.753
 8558POPC   C3A46181  22.985  29.181   7.053
 8558POPC   C4A46182  22.933  29.195   7.353
 8558POPC   C1B46183  22.735  29.018   6.453
 8558POPC   C2B46184  22.732  29.010   6.753
 8558POPC   C3B46185  22.708  29.034   7.053
 8558POPC   C4B46186  22.760  29.053   7.353
 8559POPC   NC346187  23.694  19.105   5.553
 8559POPC   PO446188  23.734  19.011   5.853
 8559POPC   GL146189  23.678  19.078   6.153
 8559POPC   GL246190  23.599  19.057   6.153
 8559POPC   C1A46191  23.751  19.071   6.453
 8559POPC   D2A46192  23.754  19.046   6.753
 8559POPC   C3A46193  23.732  19.058   7.053
 8559POPC   C4A46194  23.751  19.016   7.353
 8559POPC   C1B46195  23.514  18.944   6.453
 8559POPC   C2B46196  23.531  19.011   6.753
 8559POPC   C3B46197  23.486  18.941   7.053
 8559POPC   C4B46198  23.522  18.936   7.353
 8560POPC   NC346199  28.413  18.318   5.553
 8560POPC   PO446200  28.357  18.297   5.853
 8560POPC   GL146201  28.358  18.278   6.153
 8560POPC   GL246202  28.398  18.127   6.153
 8560POPC   C1A46203  28.333  18.252   6.453
 8560POPC   D2A46204  28.388  18.281   6.753
 8560POPC   C3A46205  28.386  18.322   7.053
 8560POPC   C4A46206  28.337  18.271   7.353
 8560POPC   C1B46207  28.332  18.050   6.453
 8560POPC   C2B46208  28.358  18.067   6.753
 8560POPC   C3B46209  28.372  18.057   7.053
 8560POPC   C4B46210  28.374  18.037   7.353
 8561POPC   NC346211  32.995  19.079   5.553
 8561POPC   PO446212  33.052  19.060   5.853
 8561POPC   GL146213  32.999  19.085   6.153
 8561POPC   GL246214  33.110  18.937   6.153
 8561POPC   C1A46215  33.017  19.062   6.453
 8561POPC   D2A46216  33.043  19.101   6.753
 8561POPC   C3A46217  32.991  19.072   7.053
 8561POPC   C4A46218  33.015  19.074   7.353
 8561POPC   C1B46219  33.213  18.896   6.453
 8561POPC   C2B46220  33.160  18.837   6.753
 8561POPC   C3B46221  33.127  18.888   7.053
 8561POPC   C4B46222  33.218  18.901   7.353
 8562POPC   NC346223  37.664   7.411   5.553
 8562POPC   PO446224  37.662   7.396   5.853
 8562POPC   GL146225  37.651   7.440   6.153
 8562POPC   GL246226  37.606   7.408   6.153
 8562POPC   C1A46227  37.687   7.391   6.453
 8562POPC   D2A46228  37.708   7.445   6.753
 8562POPC   C3A46229  37.688   7.434   7.053
 8562POPC   C4A46230  37.727   7.444   7.353
 8562POPC   C1B46231  37.429   7.491   6.453
 8562POPC   C2B46232  37.459   7.483   6.753
 8562POPC   C3B46233  37.393   7.509   7.053
 8562POPC   C4B46234  37.436   7.437   7.353
 8563POPC   NC346235  19.089  27.609   5.553
 8563POPC   PO446236  19.065  27.582   5.853
 8563POPC   GL146237  19.093  27.550   6.153
 8563POPC   GL246238  19.032  27.669   6.153
 8563POPC   C1A46239  19.036  27.581   6.453
 8563POPC   D2A46240  19.077  27.614   6.753
 8563POPC   C3A46241  19.074  27.559   7.053
 8563POPC   C4A46242  19.085  27.561   7.353
 8563POPC   C1B46243  19.039  27.798   6.453
 8563POPC   C2B46244  19.055  27.843   6.753
 8563POPC   C3B46245  19.127  27.811   7.053
 8563POPC   C4B46246  19.094  27.866   7.353
 8564POPC   NC346247   7.470   6.601   5.553
 8564POPC   PO446248   7.448   6.689   5.853
 8564POPC   GL146249   7.416   6.623   6.153
 8564POPC   GL246250   7.335   6.653   6.153
 8564POPC   C1A46251   7.462   6.660   6.453
 8564POPC   D2A46252   7.464   6.607   6.753
 8564POPC   C3A46253   7.381   6.633   7.053
 8564POPC   C4A46254   7.467   6.685   7.353
 8564POPC   C1B46255   7.198   6.573   6.453
 8564POPC   C2B46256   7.157   6.627   6.753
 8564POPC   C3B46257   7.221   6.601   7.053
 8564POPC   C4B46258   7.228   6.569   7.353
 8565POPC   NC346259  39.243   6.611   5.553
 8565POPC   PO446260  39.233   6.618   5.853
 8565POPC   GL146261  39.254   6.662   6.153
 8565POPC   GL246262  39.268   6.547   6.153
 8565POPC   C1A46263  39.189   6.661   6.453
 8565POPC   D2A46264  39.193   6.645   6.753
 8565POPC   C3A46265  39.196   6.665   7.053
 8565POPC   C4A46266  39.217   6.620   7.353
 8565POPC   C1B46267  39.207   6.431   6.453
 8565POPC   C2B46268  39.176   6.376   6.753
 8565POPC   C3B46269  39.171   6.437   7.053
 8565POPC   C4B46270  39.212   6.389   7.353
 8566POPC   NC346271  30.683   8.979   5.553
 8566POPC   PO446272  30.705   8.984   5.853
 8566POPC   GL146273  30.703   9.019   6.153
 8566POPC   GL246274  30.599   9.113   6.153
 8566POPC   C1A46275  30.746   8.927   6.453
 8566POPC   D2A46276  30.680   8.930   6.753
 8566POPC   C3A46277  30.684   8.953   7.053
 8566POPC   C4A46278  30.691   8.968   7.353
 8566POPC   C1B46279  30.548   9.172   6.453
 8566POPC   C2B46280  30.550   9.231   6.753
 8566POPC   C3B46281  30.644   9.184   7.053
 8566POPC   C4B46282  30.567   9.249   7.353
 8567POPC   NC346283   7.375  12.043   5.553
 8567POPC   PO446284   7.423  12.080   5.853
 8567POPC   GL146285   7.436  12.063   6.153
 8567POPC   GL246286   7.567  12.036   6.153
 8567POPC   C1A46287   7.459  12.040   6.453
 8567POPC   D2A46288   7.404  12.060   6.753
 8567POPC   C3A46289   7.416  12.058   7.053
 8567POPC   C4A46290   7.379  12.094   7.353
 8567POPC   C1B46291   7.706  12.034   6.453
 8567POPC   C2B46292   7.658  12.107   6.753
 8567POPC   C3B46293   7.662  12.035   7.053
 8567POPC   C4B46294   7.674  12.068   7.353
 8568POPC   NC346295  12.842  20.638   5.553
 8568POPC   PO446296  12.868  20.606   5.853
 8568POPC   GL146297  12.827  20.594   6.153
 8568POPC   GL246298  12.873  20.719   6.153
 8568POPC   C1A46299  12.866  20.573   6.453
 8568POPC   D2A46300  12.845  20.657   6.753
 8568POPC   C3A46301  12.825  20.581   7.053
 8568POPC   C4A46302  12.834  20.636   7.353
 8568POPC   C1B46303  12.843  20.855   6.453
 8568POPC   C2B46304  12.773  20.845   6.753
 8568POPC   C3B46305  12.761  20.890   7.053
 8568POPC   C4B46306  12.823  20.835   7.353
 8569POPC   NC346307  31.464   7.388   5.553
 8569POPC   PO446308  31.465   7.391   5.853
 8569POPC   GL146309  31.469   7.451   6.153
 8569POPC   GL246310  31.608   7.354   6.153
 8569POPC   C1A46311  31.496   7.423   6.453
 8569POPC   D2A46312  31.428   7.429   6.753
 8569POPC   C3A46313  31.435   7.415   7.053
 8569POPC   C4A46314  31.521   7.468   7.353
 8569POPC   C1B46315  31.644   7.231   6.453
 8569POPC   C2B46316  31.698   7.272   6.753
 8569POPC   C3B46317  31.684   7.291   7.053
 8569POPC   C4B46318  31.617   7.254   7.353
 8570POPC   NC346319  43.087  37.640   5.553
 8570POPC   PO446320  43.069  37.702   5.853
 8570POPC   GL146321  43.067  37.668   6.153
 8570POPC   GL246322  43.126  37.795   6.153
 8570POPC   C1A46323  43.160  37.633   6.453
 8570POPC   D2A46324  43.137  37.674   6.753
 8570POPC   C3A46325  43.157  37.686   7.053
 8570POPC   C4A46326  43.093  37.721   7.353
 8570POPC   C1B46327  43.094  37.965   6.453
 8570POPC   C2B46328  43.064  37.929   6.753
 8570POPC   C3B46329  43.062  37.894   7.053
 8570POPC   C4B46330  43.034  37.919   7.353
 8571POPC   NC346331  26.804  14.432   5.553
 8571POPC   PO446332  26.850  14.369   5.853
 8571POPC   GL146333  26.858  14.380   6.153
 8571POPC   GL246334  26.712  14.300   6.153
 8571POPC   C1A46335  26.803  14.408   6.453
 8571POPC   D2A46336  26.788  14.372   6.753
 8571POPC   C3A46337  26.818  14.369   7.053
 8571POPC   C4A46338  26.792  14.390   7.353
 8571POPC   C1B46339  26.564  14.283   6.453
 8571POPC   C2B46340  26.589  14.223   6.753
 8571POPC   C3B46341  26.620  14.225   7.053
 8571POPC   C4B46342  26.589  14.271   7.353
 8572POPC   NC346343  15.149   8.197   5.553
 8572POPC   PO446344  15.160   8.212   5.853
 8572POPC   GL146345  15.188   8.182   6.153
 8572POPC   GL246346  15.259   8.116   6.153
 8572POPC   C1A46347  15.226   8.204   6.453
 8572POPC   D2A46348  15.133   8.180   6.753
 8572POPC   C3A46349  15.216   8.237   7.053
 8572POPC   C4A46350  15.213   8.217   7.353
 8572POPC   C1B46351  15.299   8.015   6.453
 8572POPC   C2B46352  15.294   7.958   6.753
 8572POPC   C3B46353  15.331   7.980   7.053
 8572POPC   C4B46354  15.258   7.935   7.353
 8573POPC   NC346355   9.715  19.789   5.553
 8573POPC   PO446356   9.728  19.819   5.853
 8573POPC   GL146357   9.724  19.835   6.153
 8573POPC   GL246358   9.776  19.985   6.153
 8573POPC   C1A46359   9.777  19.868   6.453
 8573POPC   D2A46360   9.796  19.791   6.753
 8573POPC   C3A46361   9.796  19.862   7.053
 8573POPC   C4A46362   9.773  19.865   7.353
 8573POPC   C1B46363   9.729  20.035   6.453
 8573POPC   C2B46364   9.754  20.102   6.753
 8573POPC   C3B46365   9.733  20.117   7.053
 8573POPC   C4B46366   9.713  20.039   7.353
 8574POPC   NC346367  19.865   5.891   5.553
 8574POPC   PO446368  19.873   5.844   5.853
 8574POPC   GL146369  19.830   5.840   6.153
 8574POPC   GL246370  19.816   5.695   6.153
 8574POPC   C1A46371  19.790   5.854   6.453
 8574POPC   D2A46372  19.864   5.874   6.753
 8574POPC   C3A46373  19.822   5.905   7.053
 8574POPC   C4A46374  19.863   5.850   7.353
 8574POPC   C1B46375  19.848   5.656   6.453
 8574POPC   C2B46376  19.774   5.636   6.753
 8574POPC   C3B46377  19.839   5.664   7.053
 8574POPC   C4B46378  19.801   5.586   7.353
 8575POPC   NC346379   1.199  22.946   5.553
 8575POPC   PO446380   1.190  22.915   5.853
 8575POPC   GL146381   1.204  22.929   6.153
 8575POPC   GL246382   1.232  22.769   6.153
 8575POPC   C1A46383   1.189  22.941   6.453
 8575POPC   D2A46384   1.211  22.894   6.753
 8575POPC   C3A46385   1.185  22.978   7.053
 8575POPC   C4A46386   1.256  22.977   7.353
 8575POPC   C1B46387   1.294  22.704   6.453
 8575POPC   C2B46388   1.240  22.690   6.753
 8575POPC   C3B46389   1.255  22.697   7.053
 8575POPC   C4B46390   1.318  22.663   7.353
 8576POPC   NC346391  42.369  12.082   5.553
 8576POPC   PO446392  42.337  12.072   5.853
 8576POPC   GL146393  42.347  12.118   6.153
 8576POPC   GL246394  42.202  12.147   6.153
 8576POPC   C1A46395  42.286  12.118   6.453
 8576POPC   D2A46396  42.360  12.069   6.753
 8576POPC   C3A46397  42.314  12.089   7.053
 8576POPC   C4A46398  42.368  12.105   7.353
 8576POPC   C1B46399  42.054  12.182   6.453
 8576POPC   C2B46400  42.147  12.184   6.753
 8576POPC   C3B46401  42.124  12.133   7.053
 8576POPC   C4B46402  42.129  12.142   7.353
 8577POPC   NC346403  14.373  19.849   5.553
 8577POPC   PO446404  14.443  19.837   5.853
 8577POPC   GL146405  14.374  19.805   6.153
 8577POPC   GL246406  14.497  19.899   6.153
 8577POPC   C1A46407  14.414  19.840   6.453
 8577POPC   D2A46408  14.370  19.865   6.753
 8577POPC   C3A46409  14.416  19.785   7.053
 8577POPC   C4A46410  14.406  19.787   7.353
 8577POPC   C1B46411  14.600  20.012   6.453
 8577POPC   C2B46412  14.573  19.992   6.753
 8577POPC   C3B46413  14.581  20.068   7.053
 8577POPC   C4B46414  14.569  20.033   7.353
 8578POPC   NC346415  43.889  29.970   5.553
 8578POPC   PO446416  43.900  29.928   5.853
 8578POPC   GL146417  43.885  29.891   6.153
 8578POPC   GL246418  43.794  29.852   6.153
 8578POPC   C1A46419  43.884  29.932   6.453
 8578POPC   D2A46420  43.856  29.930   6.753
 8578POPC   C3A46421  43.926  29.878   7.053
 8578POPC   C4A46422  43.841  29.940   7.353
 8578POPC   C1B46423  43.734  29.658   6.453
 8578POPC   C2B46424  43.772  29.679   6.753
 8578POPC   C3B46425  43.733  29.648   7.053
 8578POPC   C4B46426  43.763  29.698   7.353
 8579POPC   NC346427  43.092   9.728   5.553
 8579POPC   PO446428  43.153   9.757   5.853
 8579POPC   GL146429  43.072   9.759   6.153
 8579POPC   GL246430  43.087   9.885   6.153
 8579POPC   C1A46431  43.071   9.725   6.453
 8579POPC   D2A46432  43.110   9.747   6.753
 8579POPC   C3A46433  43.077   9.766   7.053
 8579POPC   C4A46434  43.072   9.720   7.353
 8579POPC   C1B46435  43.193  10.032   6.453
 8579POPC   C2B46436  43.167   9.963   6.753
 8579POPC   C3B46437  43.178  10.034   7.053
 8579POPC   C4B46438  43.135   9.996   7.353
 8580POPC   NC346439   0.455  21.418   5.553
 8580POPC   PO446440   0.467  21.392   5.853
 8580POPC   GL146441   0.420  21.367   6.153
 8580POPC   GL246442   0.502  21.514   6.153
 8580POPC   C1A46443   0.469  21.397   6.453
 8580POPC   D2A46444   0.468  21.386   6.753
 8580POPC   C3A46445   0.409  21.388   7.053
 8580POPC   C4A46446   0.391  21.432   7.353
 8580POPC   C1B46447   0.457  21.595   6.453
 8580POPC   C2B46448   0.518  21.679   6.753
 8580POPC   C3B46449   0.492  21.601   7.053
 8580POPC   C4B46450   0.457  21.667   7.353
 8581POPC   NC346451  33.833  24.470   5.553
 8581POPC   PO446452  33.804  24.504   5.853
 8581POPC   GL146453  33.850  24.490   6.153
 8581POPC   GL246454  33.880  24.524   6.153
 8581POPC   C1A46455  33.817  24.445   6.453
 8581POPC   D2A46456  33.848  24.528   6.753
 8581POPC   C3A46457  33.778  24.529   7.053
 8581POPC   C4A46458  33.795  24.450   7.353
 8581POPC   C1B46459  34.012  24.428   6.453
 8581POPC   C2B46460  34.033  24.496   6.753
 8581POPC   C3B46461  34.057  24.473   7.053
 8581POPC   C4B46462  34.044  24.443   7.353
 8582POPC   NC346463   8.204   9.716   5.553
 8582POPC   PO446464   8.235   9.701   5.853
 8582POPC   GL146465   8.154   9.760   6.153
 8582POPC   GL246466   8.038   9.778   6.153
 8582POPC   C1A46467   8.208   9.775   6.453
 8582POPC   D2A46468   8.228   9.777   6.753
 8582POPC   C3A46469   8.166   9.732   7.053
 8582POPC   C4A46470   8.163   9.727   7.353
 8582POPC   C1B46471   7.999   9.803   6.453
 8582POPC   C2B46472   8.009   9.815   6.753
 8582POPC   C3B46473   7.990   9.819   7.053
 8582POPC   C4B46474   8.011   9.881   7.353
 8583POPC   NC346475  15.174  22.953   5.553
 8583POPC   PO446476  15.200  22.980   5.853
 8583POPC   GL146477  15.205  22.948   6.153
 8583POPC   GL246478  15.023  23.016   6.153
 8583POPC   C1A46479  15.210  22.902   6.453
 8583POPC   D2A46480  15.216  22.982   6.753
 8583POPC   C3A46481  15.193  22.898   7.053
 8583POPC   C4A46482  15.143  22.948   7.353
 8583POPC   C1B46483  14.951  23.010   6.453
 8583POPC   C2B46484  14.921  23.042   6.753
 8583POPC   C3B46485  14.983  23.025   7.053
 8583POPC   C4B46486  14.898  23.045   7.353
 8584POPC   NC346487  44.682   4.355   5.553
 8584POPC   PO446488  44.668   4.364   5.853
 8584POPC   GL146489  44.646   4.363   6.153
 8584POPC   GL246490  44.767   4.202   6.153
 8584POPC   C1A46491  44.637   4.305   6.453
 8584POPC   D2A46492  44.614   4.279   6.753
 8584POPC   C3A46493  44.636   4.287   7.053
 8584POPC   C4A46494  44.706   4.314   7.353
 8584POPC   C1B46495  44.875   4.156   6.453
 8584POPC   C2B46496  44.813   4.115   6.753
 8584POPC   C3B46497  44.864   4.108   7.053
 8584POPC   C4B46498  44.874   4.113   7.353
 8585POPC   NC346499   5.090  29.913   5.553
 8585POPC   PO446500   5.055  29.952   5.853
 8585POPC   GL146501   5.048  29.942   6.153
 8585POPC   GL246502   5.008  29.818   6.153
 8585POPC   C1A46503   5.103  29.892   6.453
 8585POPC   D2A46504   5.087  29.879   6.753
 8585POPC   C3A46505   5.062  29.896   7.053
 8585POPC   C4A46506   5.083  29.903   7.353
 8585POPC   C1B46507   5.044  29.666   6.453
 8585POPC   C2B46508   4.980  29.649   6.753
 8585POPC   C3B46509   5.051  29.654   7.053
 8585POPC   C4B46510   4.968  29.735   7.353
 8586POPC   NC346511  37.652  27.625   5.553
 8586POPC   PO446512  37.713  27.620   5.853
 8586POPC   GL146513  37.654  27.610   6.153
 8586POPC   GL246514  37.614  27.523   6.153
 8586POPC   C1A46515  37.635  27.618   6.453
 8586POPC   D2A46516  37.678  27.596   6.753
 8586POPC   C3A46517  37.648  27.553   7.053
 8586POPC   C4A46518  37.720  27.624   7.353
 8586POPC   C1B46519  37.475  27.387   6.453
 8586POPC   C2B46520  37.456  27.410   6.753
 8586POPC   C3B46521  37.522  27.420   7.053
 8586POPC   C4B46522  37.464  27.468   7.353
 8587POPC   NC346523  16.705   7.389   5.553
 8587POPC   PO446524  16.696   7.443   5.853
 8587POPC   GL146525  16.768   7.383   6.153
 8587POPC   GL246526  16.778   7.305   6.153
 8587POPC   C1A46527  16.761   7.389   6.453
 8587POPC   D2A46528  16.691   7.452   6.753
 8587POPC   C3A46529  16.739   7.448   7.053
 8587POPC   C4A46530  16.693   7.400   7.353
 8587POPC   C1B46531  16.953   7.291   6.453
 8587POPC   C2B46532  16.875   7.204   6.753
 8587POPC   C3B46533  16.932   7.290   7.053
 8587POPC   C4B46534  16.890   7.227   7.353
 8588POPC   NC346535  22.170  14.413   5.553
 8588POPC   PO446536  22.177  14.433   5.853
 8588POPC   GL146537  22.141  14.423   6.153
 8588POPC   GL246538  22.158  14.568   6.153
 8588POPC   C1A46539  22.174  14.432   6.453
 8588POPC   D2A46540  22.190  14.355   6.753
 8588POPC   C3A46541  22.152  14.436   7.053
 8588POPC   C4A46542  22.132  14.421   7.353
 8588POPC   C1B46543  22.135  14.661   6.453
 8588POPC   C2B46544  22.130  14.641   6.753
 8588POPC   C3B46545  22.168  14.603   7.053
 8588POPC   C4B46546  22.134  14.604   7.353
 8589POPC   NC346547   6.689  21.419   5.553
 8589POPC   PO446548   6.676  21.381   5.853
 8589POPC   GL146549   6.663  21.361   6.153
 8589POPC   GL246550   6.727  21.389   6.153
 8589POPC   C1A46551   6.645  21.398   6.453
 8589POPC   D2A46552   6.659  21.396   6.753
 8589POPC   C3A46553   6.617  21.338   7.053
 8589POPC   C4A46554   6.603  21.420   7.353
 8589POPC   C1B46555   6.926  21.378   6.453
 8589POPC   C2B46556   6.940  21.421   6.753
 8589POPC   C3B46557   6.926  21.345   7.053
 8589POPC   C4B46558   6.849  21.408   7.353
 8590POPC   NC346559  32.981  21.354   5.553
 8590POPC   PO446560  33.022  21.406   5.853
 8590POPC   GL146561  32.983  21.425   6.153
 8590POPC   GL246562  32.889  21.369   6.153
 8590POPC   C1A46563  33.033  21.435   6.453
 8590POPC   D2A46564  33.069  21.412   6.753
 8590POPC   C3A46565  33.004  21.435   7.053
 8590POPC   C4A46566  33.023  21.426   7.353
 8590POPC   C1B46567  32.755  21.398   6.453
 8590POPC   C2B46568  32.794  21.362   6.753
 8590POPC   C3B46569  32.790  21.442   7.053
 8590POPC   C4B46570  32.820  21.357   7.353
 8591POPC   NC346571  34.552  24.486   5.553
 8591POPC   PO446572  34.607  24.494   5.853
 8591POPC   GL146573  34.528  24.450   6.153
 8591POPC   GL246574  34.722  24.452   6.153
 8591POPC   C1A46575  34.580  24.481   6.453
 8591POPC   D2A46576  34.565  24.492   6.753
 8591POPC   C3A46577  34.581  24.467   7.053
 8591POPC   C4A46578  34.552  24.448   7.353
 8591POPC   C1B46579  34.827  24.436   6.453
 8591POPC   C2B46580  34.787  24.485   6.753
 8591POPC   C3B46581  34.774  24.437   7.053
 8591POPC   C4B46582  34.781  24.484   7.353
 8592POPC   NC346583   3.561  11.257   5.553
 8592POPC   PO446584   3.512  11.258   5.853
 8592POPC   GL146585   3.531  11.349   6.153
 8592POPC   GL246586   3.704  11.323   6.153
 8592POPC   C1A46587   3.530  11.272   6.453
 8592POPC   D2A46588   3.577  11.265   6.753
 8592POPC   C3A46589   3.573  11.332   7.053
 8592POPC   C4A46590   3.496  11.308   7.353
 8592POPC   C1B46591   3.796  11.312   6.453
 8592POPC   C2B46592   3.772  11.318   6.753
 8592POPC   C3B46593   3.801  11.294   7.053
 8592POPC   C4B46594   3.802  11.326   7.353
 8593POPC   NC346595  43.070   2.036   5.553
 8593POPC   PO446596  43.065   2.004   5.853
 8593POPC   GL146597  43.153   1.971   6.153
 8593POPC   GL246598  43.082   2.124   6.153
 8593POPC   C1A46599  43.099   1.949   6.453
 8593POPC   D2A46600  43.109   2.007   6.753
 8593POPC   C3A46601  43.136   1.980   7.053
 8593POPC   C4A46602  43.068   2.018   7.353
 8593POPC   C1B46603  43.019   2.247   6.453
 8593POPC   C2B46604  43.085   2.184   6.753
 8593POPC   C3B46605  43.100   2.255   7.053
 8593POPC   C4B46606  43.047   2.240   7.353
 8594POPC   NC346607  13.646  11.300   5.553
 8594POPC   PO446608  13.638  11.295   5.853
 8594POPC   GL146609  13.590  11.328   6.153
 8594POPC   GL246610  13.537  11.252   6.153
 8594POPC   C1A46611  13.624  11.297   6.453
 8594POPC   D2A46612  13.585  11.310   6.753
 8594POPC   C3A46613  13.641  11.315   7.053
 8594POPC   C4A46614  13.647  11.258   7.353
 8594POPC   C1B46615  13.420  11.128   6.453
 8594POPC   C2B46616  13.406  11.201   6.753
 8594POPC   C3B46617  13.465  11.112   7.053
 8594POPC   C4B46618  13.382  11.133   7.353
 8595POPC   NC346619  22.139  39.195   5.553
 8595POPC   PO446620  22.207  39.266   5.853
 8595POPC   GL146621  22.128  39.206   6.153
 8595POPC   GL246622  22.252  39.129   6.153
 8595POPC   C1A46623  22.211  39.234   6.453
 8595POPC   D2A46624  22.140  39.281   6.753
 8595POPC   C3A46625  22.147  39.272   7.053
 8595POPC   C4A46626  22.131  39.238   7.353
 8595POPC   C1B46627  22.304  39.011   6.453
 8595POPC   C2B46628  22.340  39.078   6.753
 8595POPC   C3B46629  22.352  39.020   7.053
 8595POPC   C4B46630  22.311  39.004   7.353
 8596POPC   NC346631  40.760  41.542   5.553
 8596POPC   PO446632  40.818  41.581   5.853
 8596POPC   GL146633  40.776  41.579   6.153
 8596POPC   GL246634  40.649  41.579   6.153
 8596POPC   C1A46635  40.739  41.545   6.453
 8596POPC   D2A46636  40.768  41.534   6.753
 8596POPC   C3A46637  40.768  41.543   7.053
 8596POPC   C4A46638  40.751  41.531   7.353
 8596POPC   C1B46639  40.563  41.630   6.453
 8596POPC   C2B46640  40.524  41.672   6.753
 8596POPC   C3B46641  40.519  41.598   7.053
 8596POPC   C4B46642  40.596  41.607   7.353
 8597POPC   NC346643  25.249  19.061   5.553
 8597POPC   PO446644  25.299  19.037   5.853
 8597POPC   GL146645  25.241  19.102   6.153
 8597POPC   GL246646  25.210  19.198   6.153
 8597POPC   C1A46647  25.248  19.021   6.453
 8597POPC   D2A46648  25.281  19.047   6.753
 8597POPC   C3A46649  25.292  19.022   7.053
 8597POPC   C4A46650  25.257  19.085   7.353
 8597POPC   C1B46651  25.244  19.307   6.453
 8597POPC   C2B46652  25.258  19.338   6.753
 8597POPC   C3B46653  25.183  19.333   7.053
 8597POPC   C4B46654  25.247  19.258   7.353
 8598POPC   NC346655  44.619  23.760   5.553
 8598POPC   PO446656  44.614  23.727   5.853
 8598POPC   GL146657  44.668  23.669   6.153
 8598POPC   GL246658  44.725  23.590   6.153
 8598POPC   C1A46659  44.627  23.736   6.453
 8598POPC   D2A46660  44.643  23.723   6.753
 8598POPC   C3A46661  44.681  23.675   7.053
 8598POPC   C4A46662  44.694  23.727   7.353
 8598POPC   C1B46663  44.778  23.461   6.453
 8598POPC   C2B46664  44.749  23.447   6.753
 8598POPC   C3B46665  44.817  23.478   7.053
 8598POPC   C4B46666  44.730  23.488   7.353
 8599POPC   NC346667   3.558  38.412   5.553
 8599POPC   PO446668   3.495  38.493   5.853
 8599POPC   GL146669   3.536  38.481   6.153
 8599POPC   GL246670   3.493  38.602   6.153
 8599POPC   C1A46671   3.548  38.496   6.453
 8599POPC   D2A46672   3.534  38.436   6.753
 8599POPC   C3A46673   3.522  38.475   7.053
 8599POPC   C4A46674   3.570  38.499   7.353
 8599POPC   C1B46675   3.538  38.664   6.453
 8599POPC   C2B46676   3.492  38.727   6.753
 8599POPC   C3B46677   3.506  38.732   7.053
 8599POPC   C4B46678   3.492  38.675   7.353
 8600POPC   NC346679  22.133  12.044   5.553
 8600POPC   PO446680  22.161  12.078   5.853
 8600POPC   GL146681  22.147  12.050   6.153
 8600POPC   GL246682  22.225  11.918   6.153
 8600POPC   C1A46683  22.151  12.034   6.453
 8600POPC   D2A46684  22.150  12.124   6.753
 8600POPC   C3A46685  22.181  12.095   7.053
 8600POPC   C4A46686  22.164  12.081   7.353
 8600POPC   C1B46687  22.176  11.871   6.453
 8600POPC   C2B46688  22.205  11.792   6.753
 8600POPC   C3B46689  22.176  11.792   7.053
 8600POPC   C4B46690  22.174  11.795   7.353
 8601POPC   NC346691   3.541  40.809   5.553
 8601POPC   PO446692   3.576  40.758   5.853
 8601POPC   GL146693   3.585  40.780   6.153
 8601POPC   GL246694   3.480  40.672   6.153
 8601POPC   C1A46695   3.578  40.832   6.453
 8601POPC   D2A46696   3.563  40.752   6.753
 8601POPC   C3A46697   3.588  40.743   7.053
 8601POPC   C4A46698   3.561  40.820   7.353
 8601POPC   C1B46699   3.452  40.503   6.453
 8601POPC   C2B46700   3.414  40.531   6.753
 8601POPC   C3B46701   3.407  40.523   7.053
 8601POPC   C4B46702   3.502  40.596   7.353
 8602POPC   NC346703   9.713   5.120   5.553
 8602POPC   PO446704   9.757   5.073   5.853
 8602POPC   GL146705   9.748   5.105   6.153
 8602POPC   GL246706   9.729   4.939   6.153
 8602POPC   C1A46707   9.761   5.062   6.453
 8602POPC   D2A46708   9.734   5.088   6.753
 8602POPC   C3A46709   9.720   5.080   7.053
 8602POPC   C4A46710   9.708   5.107   7.353
 8602POPC   C1B46711   9.742   4.833   6.453
 8602POPC   C2B46712   9.756   4.824   6.753
 8602POPC   C3B46713   9.704   4.835   7.053
 8602POPC   C4B46714   9.715   4.798   7.353
 8603POPC   NC346715  22.140  23.732   5.553
 8603POPC   PO446716  22.145  23.678   5.853
 8603POPC   GL146717  22.185  23.707   6.153
 8603POPC   GL246718  22.075  23.816   6.153
 8603POPC   C1A46719  22.133  23.754   6.453
 8603POPC   D2A46720  22.130  23.722   6.753
 8603POPC   C3A46721  22.155  23.718   7.053
 8603POPC   C4A46722  22.149  23.733   7.353
 8603POPC   C1B46723  22.097  23.968   6.453
 8603POPC   C2B46724  22.041  23.933   6.753
 8603POPC   C3B46725  22.074  23.942   7.053
 8603POPC   C4B46726  22.122  23.903   7.353
 8604POPC   NC346727   8.173  14.399   5.553
 8604POPC   PO446728   8.214  14.382   5.853
 8604POPC   GL146729   8.185  14.383   6.153
 8604POPC   GL246730   8.281  14.442   6.153
 8604POPC   C1A46731   8.225  14.434   6.453
 8604POPC   D2A46732   8.149  14.370   6.753
 8604POPC   C3A46733   8.207  14.440   7.053
 8604POPC   C4A46734   8.201  14.382   7.353
 8604POPC   C1B46735   8.481  14.453   6.453
 8604POPC   C2B46736   8.423  14.472   6.753
 8604POPC   C3B46737   8.462  14.459   7.053
 8604POPC   C4B46738   8.418  14.504   7.353
 8605POPC   NC346739  29.876  31.474   5.553
 8605POPC   PO446740  29.882  31.436   5.853
 8605POPC   GL146741  29.873  31.464   6.153
 8605POPC   GL246742  29.825  31.531   6.153
 8605POPC   C1A46743  29.906  31.473   6.453
 8605POPC   D2A46744  29.911  31.429   6.753
 8605POPC   C3A46745  29.882  31.473   7.053
 8605POPC   C4A46746  29.905  31.508   7.353
 8605POPC   C1B46747  29.727  31.656   6.453
 8605POPC   C2B46748  29.781  31.639   6.753
 8605POPC   C3B46749  29.715  31.648   7.053
 8605POPC   C4B46750  29.763  31.604   7.353
 8606POPC   NC346751  12.087   2.732   5.553
 8606POPC   PO446752  12.091   2.729   5.853
 8606POPC   GL146753  12.037   2.809   6.153
 8606POPC   GL246754  12.151   2.820   6.153
 8606POPC   C1A46755  12.084   2.790   6.453
 8606POPC   D2A46756  12.104   2.757   6.753
 8606POPC   C3A46757  12.083   2.754   7.053
 8606POPC   C4A46758  12.078   2.801   7.353
 8606POPC   C1B46759  12.249   2.924   6.453
 8606POPC   C2B46760  12.229   2.967   6.753
 8606POPC   C3B46761  12.212   2.898   7.053
 8606POPC   C4B46762  12.291   2.965   7.353
 8607POPC   NC346763  28.371   4.302   5.553
 8607POPC   PO446764  28.321   4.279   5.853
 8607POPC   GL146765  28.325   4.315   6.153
 8607POPC   GL246766  28.487   4.431   6.153
 8607POPC   C1A46767  28.363   4.325   6.453
 8607POPC   D2A46768  28.345   4.366   6.753
 8607POPC   C3A46769  28.399   4.314   7.053
 8607POPC   C4A46770  28.405   4.349   7.353
 8607POPC   C1B46771  28.534   4.480   6.453
 8607POPC   C2B46772  28.526   4.511   6.753
 8607POPC   C3B46773  28.593   4.469   7.053
 8607POPC   C4B46774  28.496   4.450   7.353
 8608POPC   NC346775  13.602  35.365   5.553
 8608POPC   PO446776  13.660  35.330   5.853
 8608POPC   GL146777  13.641  35.354   6.153
 8608POPC   GL246778  13.547  35.223   6.153
 8608POPC   C1A46779  13.619  35.337   6.453
 8608POPC   D2A46780  13.649  35.399   6.753
 8608POPC   C3A46781  13.595  35.358   7.053
 8608POPC   C4A46782  13.612  35.401   7.353
 8608POPC   C1B46783  13.445  35.148   6.453
 8608POPC   C2B46784  13.453  35.213   6.753
 8608POPC   C3B46785  13.427  35.138   7.053
 8608POPC   C4B46786  13.460  35.149   7.353
 8609POPC   NC346787  14.383  41.519   5.553
 8609POPC   PO446788  14.399  41.550   5.853
 8609POPC   GL146789  14.386  41.530   6.153
 8609POPC   GL246790  14.287  41.520   6.153
 8609POPC   C1A46791  14.387  41.522   6.453
 8609POPC   D2A46792  14.399  41.511   6.753
 8609POPC   C3A46793  14.450  41.563   7.053
 8609POPC   C4A46794  14.402  41.514   7.353
 8609POPC   C1B46795  14.188  41.482   6.453
 8609POPC   C2B46796  14.222  41.405   6.753
 8609POPC   C3B46797  14.210  41.478   7.053
 8609POPC   C4B46798  14.177  41.462   7.353
 8610POPC   NC346799  39.212  24.474   5.553
 8610POPC   PO446800  39.263  24.447   5.853
 8610POPC   GL146801  39.242  24.482   6.153
 8610POPC   GL246802  39.274  24.367   6.153
 8610POPC   C1A46803  39.249  24.455   6.453
 8610POPC   D2A46804  39.202  24.457   6.753
 8610POPC   C3A46805  39.190  24.452   7.053
 8610POPC   C4A46806  39.256  24.492   7.353
 8610POPC   C1B46807  39.280  24.207   6.453
 8610POPC   C2B46808  39.273  24.283   6.753
 8610POPC   C3B46809  39.245  24.229   7.053
 8610POPC   C4B46810  39.287  24.263   7.353
 8611POPC   NC346811   2.813  21.398   5.553
 8611POPC   PO446812   2.745  21.338   5.853
 8611POPC   GL146813   2.800  21.435   6.153
 8611POPC   GL246814   2.626  21.406   6.153
 8611POPC   C1A46815   2.731  21.372   6.453
 8611POPC   D2A46816   2.728  21.363   6.753
 8611POPC   C3A46817   2.786  21.383   7.053
 8611POPC   C4A46818   2.758  21.406   7.353
 8611POPC   C1B46819   2.506  21.563   6.453
 8611POPC   C2B46820   2.581  21.549   6.753
 8611POPC   C3B46821   2.555  21.524   7.053
 8611POPC   C4B46822   2.554  21.506   7.353
 8612POPC   NC346823  26.838   5.909   5.553
 8612POPC   PO446824  26.839   5.911   5.853
 8612POPC   GL146825  26.841   5.825   6.153
 8612POPC   GL246826  26.859   5.710   6.153
 8612POPC   C1A46827  26.802   5.822   6.453
 8612POPC   D2A46828  26.799   5.852   6.753
 8612POPC   C3A46829  26.839   5.865   7.053
 8612POPC   C4A46830  26.788   5.872   7.353
 8612POPC   C1B46831  26.838   5.657   6.453
 8612POPC   C2B46832  26.817   5.640   6.753
 8612POPC   C3B46833  26.809   5.633   7.053
 8612POPC   C4B46834  26.811   5.624   7.353
 8613POPC   NC346835  43.088  27.602   5.553
 8613POPC   PO446836  43.101  27.613   5.853
 8613POPC   GL146837  43.092  27.567   6.153
 8613POPC   GL246838  42.942  27.540   6.153
 8613POPC   C1A46839  43.108  27.636   6.453
 8613POPC   D2A46840  43.115  27.561   6.753
 8613POPC   C3A46841  43.135  27.624   7.053
 8613POPC   C4A46842  43.093  27.611   7.353
 8613POPC   C1B46843  42.858  27.576   6.453
 8613POPC   C2B46844  42.826  27.567   6.753
 8613POPC   C3B46845  42.864  27.480   7.053
 8613POPC   C4B46846  42.873  27.549   7.353
 8614POPC   NC346847  10.486  15.995   5.553
 8614POPC   PO446848  10.493  15.990   5.853
 8614POPC   GL146849  10.520  15.918   6.153
 8614POPC   GL246850  10.672  16.051   6.153
 8614POPC   C1A46851  10.571  15.974   6.453
 8614POPC   D2A46852  10.477  15.940   6.753
 8614POPC   C3A46853  10.501  15.981   7.053
 8614POPC   C4A46854  10.566  15.998   7.353
 8614POPC   C1B46855  10.756  16.060   6.453
 8614POPC   C2B46856  10.749  16.068   6.753
 8614POPC   C3B46857  10.742  16.033   7.053
 8614POPC   C4B46858  10.793  16.035   7.353
 8615POPC   NC346859  19.071  39.242   5.553
 8615POPC   PO446860  19.045  39.275   5.853
 8615POPC   GL146861  19.081  39.280   6.153
 8615POPC   GL246862  19.186  39.256   6.153
 8615POPC   C1A46863  19.084  39.190   6.453
 8615POPC   D2A46864  19.047  39.196   6.753
 8615POPC   C3A46865  19.036  39.234   7.053
 8615POPC   C4A46866  19.090  39.273   7.353
 8615POPC   C1B46867  19.308  39.182   6.453
 8615POPC   C2B46868  19.339  39.177   6.753
 8615POPC   C3B46869  19.267  39.199   7.053
 8615POPC   C4B46870  19.263  39.149   7.353
 8616POPC   NC346871  27.579  32.978   5.553
 8616POPC   PO446872  27.639  33.005   5.853
 8616POPC   GL146873  27.584  33.058   6.153
 8616POPC   GL246874  27.611  33.175   6.153
 8616POPC   C1A46875  27.604  33.051   6.453
 8616POPC   D2A46876  27.555  33.011   6.753
 8616POPC   C3A46877  27.581  32.980   7.053
 8616POPC   C4A46878  27.573  33.018   7.353
 8616POPC   C1B46879  27.551  33.289   6.453
 8616POPC   C2B46880  27.546  33.261   6.753
 8616POPC   C3B46881  27.587  33.298   7.053
 8616POPC   C4B46882  27.559  33.283   7.353
 8617POPC   NC346883  26.817  19.830   5.553
 8617POPC   PO446884  26.805  19.852   5.853
 8617POPC   GL146885  26.836  19.829   6.153
 8617POPC   GL246886  26.906  19.797   6.153
 8617POPC   C1A46887  26.850  19.825   6.453
 8617POPC   D2A46888  26.789  19.822   6.753
 8617POPC   C3A46889  26.776  19.818   7.053
 8617POPC   C4A46890  26.789  19.849   7.353
 8617POPC   C1B46891  27.062  19.818   6.453
 8617POPC   C2B46892  27.031  19.834   6.753
 8617POPC   C3B46893  27.077  19.809   7.053
 8617POPC   C4B46894  27.104  19.835   7.353
 8618POPC   NC346895  44.685  25.216   5.553
 8618POPC   PO446896  44.614  25.303   5.853
 8618POPC   GL146897  44.672  25.293   6.153
 8618POPC   GL246898  44.775  25.267   6.153
 8618POPC   C1A46899  44.625  25.268   6.453
 8618POPC   D2A46900  44.615  25.224   6.753
 8618POPC   C3A46901  44.644  25.268   7.053
 8618POPC   C4A46902  44.665  25.288   7.353
 8618POPC   C1B46903  44.932  25.270   6.453
 8618POPC   C2B46904  44.893  25.218   6.753
 8618POPC   C3B46905  44.861  25.191   7.053
 8618POPC   C4B46906  44.943  25.250   7.353
 8619POPC   NC346907  17.535  22.938   5.553
 8619POPC   PO446908  17.475  22.943   5.853
 8619POPC   GL146909  17.483  22.918   6.153
 8619POPC   GL246910  17.612  22.831   6.153
 8619POPC   C1A46911  17.485  22.983   6.453
 8619POPC   D2A46912  17.519  22.969   6.753
 8619POPC   C3A46913  17.480  22.948   7.053
 8619POPC   C4A46914  17.498  22.950   7.353
 8619POPC   C1B46915  17.649  22.782   6.453
 8619POPC   C2B46916  17.717  22.764   6.753
 8619POPC   C3B46917  17.745  22.819   7.053
 8619POPC   C4B46918  17.691  22.741   7.353
 8620POPC   NC346919  40.770  19.843   5.553
 8620POPC   PO446920  40.809  19.882   5.853
 8620POPC   GL146921  40.750  19.844   6.153
 8620POPC   GL246922  40.866  19.944   6.153
 8620POPC   C1A46923  40.769  19.817   6.453
 8620POPC   D2A46924  40.762  19.797   6.753
 8620POPC   C3A46925  40.819  19.795   7.053
 8620POPC   C4A46926  40.790  19.789   7.353
 8620POPC   C1B46927  40.980  20.031   6.453
 8620POPC   C2B46928  40.925  20.025   6.753
 8620POPC   C3B46929  40.988  20.049   7.053
 8620POPC   C4B46930  40.924  20.021   7.353
 8621POPC   NC346931   8.996  22.202   5.553
 8621POPC   PO446932   8.930  22.197   5.853
 8621POPC   GL146933   8.922  22.203   6.153
 8621POPC   GL246934   9.058  22.068   6.153
 8621POPC   C1A46935   8.950  22.205   6.453
 8621POPC   D2A46936   8.953  22.185   6.753
 8621POPC   C3A46937   8.926  22.212   7.053
 8621POPC   C4A46938   8.941  22.155   7.353
 8621POPC   C1B46939   9.145  22.007   6.453
 8621POPC   C2B46940   9.117  21.966   6.753
 8621POPC   C3B46941   9.163  22.014   7.053
 8621POPC   C4B46942   9.093  21.949   7.353
 8622POPC   NC346943  16.710  25.999   5.553
 8622POPC   PO446944  16.748  26.053   5.853
 8622POPC   GL146945  16.722  26.065   6.153
 8622POPC   GL246946  16.747  26.153   6.153
 8622POPC   C1A46947  16.711  26.009   6.453
 8622POPC   D2A46948  16.736  26.009   6.753
 8622POPC   C3A46949  16.772  25.998   7.053
 8622POPC   C4A46950  16.762  26.046   7.353
 8622POPC   C1B46951  16.866  26.253   6.453
 8622POPC   C2B46952  16.837  26.266   6.753
 8622POPC   C3B46953  16.852  26.274   7.053
 8622POPC   C4B46954  16.786  26.257   7.353
 8623POPC   NC346955  27.619   6.602   5.553
 8623POPC   PO446956  27.555   6.599   5.853
 8623POPC   GL146957  27.621   6.693   6.153
 8623POPC   GL246958  27.693   6.667   6.153
 8623POPC   C1A46959  27.598   6.672   6.453
 8623POPC   D2A46960  27.601   6.649   6.753
 8623POPC   C3A46961  27.577   6.637   7.053
 8623POPC   C4A46962  27.610   6.688   7.353
 8623POPC   C1B46963  27.804   6.614   6.453
 8623POPC   C2B46964  27.799   6.602   6.753
 8623POPC   C3B46965  27.816   6.660   7.053
 8623POPC   C4B46966  27.841   6.635   7.353
 8624POPC   NC346967  44.688   8.983   5.553
 8624POPC   PO446968  44.687   8.956   5.853
 8624POPC   GL146969  44.640   8.925   6.153
 8624POPC   GL246970  44.755   9.039   6.153
 8624POPC   C1A46971  44.634   8.931   6.453
 8624POPC   D2A46972  44.652   8.951   6.753
 8624POPC   C3A46973  44.685   8.950   7.053
 8624POPC   C4A46974  44.632   8.978   7.353
 8624POPC   C1B46975  44.874   9.092   6.453
 8624POPC   C2B46976  44.908   9.116   6.753
 8624POPC   C3B46977  44.897   9.068   7.053
 8624POPC   C4B46978  44.877   9.128   7.353
 8625POPC   NC346979  11.270   7.388   5.553
 8625POPC   PO446980  11.296   7.404   5.853
 8625POPC   GL146981  11.309   7.403   6.153
 8625POPC   GL246982  11.399   7.419   6.153
 8625POPC   C1A46983  11.298   7.442   6.453
 8625POPC   D2A46984  11.302   7.377   6.753
 8625POPC   C3A46985  11.275   7.461   7.053
 8625POPC   C4A46986  11.281   7.420   7.353
 8625POPC   C1B46987  11.585   7.517   6.453
 8625POPC   C2B46988  11.498   7.424   6.753
 8625POPC   C3B46989  11.581   7.429   7.053
 8625POPC   C4B46990  11.538   7.442   7.353
 8626POPC   NC346991  29.896  26.864   5.553
 8626POPC   PO446992  29.916  26.818   5.853
 8626POPC   GL146993  29.952  26.781   6.153
 8626POPC   GL246994  29.928  26.970   6.153
 8626POPC   C1A46995  29.903  26.818   6.453
 8626POPC   D2A46996  29.879  26.842   6.753
 8626POPC   C3A46997  29.936  26.845   7.053
 8626POPC   C4A46998  29.967  26.807   7.353
 8626POPC   C1B46999  30.061  27.026   6.453
 8626POPC   C2B47000  30.030  27.015   6.753
 8626POPC   C3B47001  29.986  27.090   7.053
 8626POPC   C4B47002  30.062  27.047   7.353
 8627POPC   NC347003  34.599  37.719   5.553
 8627POPC   PO447004  34.533  37.721   5.853
 8627POPC   GL147005  34.610  37.631   6.153
 8627POPC   GL247006  34.567  37.777   6.153
 8627POPC   C1A47007  34.573  37.702   6.453
 8627POPC   D2A47008  34.592  37.698   6.753
 8627POPC   C3A47009  34.593  37.710   7.053
 8627POPC   C4A47010  34.582  37.709   7.353
 8627POPC   C1B47011  34.513  37.955   6.453
 8627POPC   C2B47012  34.561  37.952   6.753
 8627POPC   C3B47013  34.523  37.895   7.053
 8627POPC   C4B47014  34.542  37.962   7.353
 8628POPC   NC347015   5.893  30.696   5.553
 8628POPC   PO447016   5.900  30.708   5.853
 8628POPC   GL147017   5.859  30.704   6.153
 8628POPC   GL247018   5.799  30.535   6.153
 8628POPC   C1A47019   5.844  30.728   6.453
 8628POPC   D2A47020   5.832  30.727   6.753
 8628POPC   C3A47021   5.851  30.713   7.053
 8628POPC   C4A47022   5.820  30.727   7.353
 8628POPC   C1B47023   5.823  30.487   6.453
 8628POPC   C2B47024   5.772  30.410   6.753
 8628POPC   C3B47025   5.841  30.444   7.053
 8628POPC   C4B47026   5.841  30.434   7.353
 8629POPC   NC347027   9.738   3.559   5.553
 8629POPC   PO447028   9.757   3.545   5.853
 8629POPC   GL147029   9.732   3.494   6.153
 8629POPC   GL247030   9.821   3.465   6.153
 8629POPC   C1A47031   9.738   3.546   6.453
 8629POPC   D2A47032   9.784   3.583   6.753
 8629POPC   C3A47033   9.723   3.495   7.053
 8629POPC   C4A47034   9.756   3.535   7.353
 8629POPC   C1B47035   9.928   3.360   6.453
 8629POPC   C2B47036   9.922   3.353   6.753
 8629POPC   C3B47037   9.872   3.379   7.053
 8629POPC   C4B47038   9.942   3.387   7.353
 8630POPC   NC347039   6.617   2.031   5.553
 8630POPC   PO447040   6.677   1.978   5.853
 8630POPC   GL147041   6.607   1.995   6.153
 8630POPC   GL247042   6.719   1.976   6.153
 8630POPC   C1A47043   6.614   1.977   6.453
 8630POPC   D2A47044   6.623   1.947   6.753
 8630POPC   C3A47045   6.637   1.979   7.053
 8630POPC   C4A47046   6.669   1.960   7.353
 8630POPC   C1B47047   6.926   2.087   6.453
 8630POPC   C2B47048   6.855   2.080   6.753
 8630POPC   C3B47049   6.911   2.073   7.053
 8630POPC   C4B47050   6.929   2.047   7.353
 8631POPC   NC347051  27.611  37.700   5.553
 8631POPC   PO447052  27.572  37.662   5.853
 8631POPC   GL147053  27.559  37.651   6.153
 8631POPC   GL247054  27.729  37.641   6.153
 8631POPC   C1A47055  27.602  37.704   6.453
 8631POPC   D2A47056  27.559  37.672   6.753
 8631POPC   C3A47057  27.583  37.712   7.053
 8631POPC   C4A47058  27.577  37.632   7.353
 8631POPC   C1B47059  27.758  37.560   6.453
 8631POPC   C2B47060  27.780  37.537   6.753
 8631POPC   C3B47061  27.784  37.465   7.053
 8631POPC   C4B47062  27.755  37.496   7.353
 8632POPC   NC347063  13.621   5.822   5.553
 8632POPC   PO447064  13.648   5.868   5.853
 8632POPC   GL147065  13.620   5.852   6.153
 8632POPC   GL247066  13.734   5.818   6.153
 8632POPC   C1A47067  13.623   5.841   6.453
 8632POPC   D2A47068  13.651   5.893   6.753
 8632POPC   C3A47069  13.635   5.832   7.053
 8632POPC   C4A47070  13.622   5.853   7.353
 8632POPC   C1B47071  13.810   5.695   6.453
 8632POPC   C2B47072  13.780   5.689   6.753
 8632POPC   C3B47073  13.810   5.636   7.053
 8632POPC   C4B47074  13.803   5.642   7.353
 8633POPC   NC347075  27.642  16.754   5.553
 8633POPC   PO447076  27.545  16.712   5.853
 8633POPC   GL147077  27.616  16.737   6.153
 8633POPC   GL247078  27.732  16.847   6.153
 8633POPC   C1A47079  27.596  16.748   6.453
 8633POPC   D2A47080  27.610  16.712   6.753
 8633POPC   C3A47081  27.589  16.690   7.053
 8633POPC   C4A47082  27.580  16.732   7.353
 8633POPC   C1B47083  27.791  16.877   6.453
 8633POPC   C2B47084  27.824  16.929   6.753
 8633POPC   C3B47085  27.818  16.938   7.053
 8633POPC   C4B47086  27.802  16.885   7.353
 8634POPC   NC347087  39.984  32.199   5.553
 8634POPC   PO447088  40.047  32.210   5.853
 8634POPC   GL147089  40.044  32.288   6.153
 8634POPC   GL247090  39.984  32.415   6.153
 8634POPC   C1A47091  40.026  32.261   6.453
 8634POPC   D2A47092  40.049  32.260   6.753
 8634POPC   C3A47093  39.968  32.200   7.053
 8634POPC   C4A47094  40.014  32.225   7.353
 8634POPC   C1B47095  39.977  32.450   6.453
 8634POPC   C2B47096  39.914  32.477   6.753
 8634POPC   C3B47097  39.918  32.493   7.053
 8634POPC   C4B47098  39.894  32.523   7.353
 8635POPC   NC347099  28.373  38.443   5.553
 8635POPC   PO447100  28.390  38.469   5.853
 8635POPC   GL147101  28.369  38.485   6.153
 8635POPC   GL247102  28.503  38.406   6.153
 8635POPC   C1A47103  28.327  38.431   6.453
 8635POPC   D2A47104  28.386  38.434   6.753
 8635POPC   C3A47105  28.331  38.458   7.053
 8635POPC   C4A47106  28.364  38.461   7.353
 8635POPC   C1B47107  28.568  38.380   6.453
 8635POPC   C2B47108  28.597  38.345   6.753
 8635POPC   C3B47109  28.557  38.333   7.053
 8635POPC   C4B47110  28.628  38.372   7.353
 8636POPC   NC347111   2.029  16.708   5.553
 8636POPC   PO447112   2.017  16.779   5.853
 8636POPC   GL147113   1.981  16.736   6.153
 8636POPC   GL247114   2.039  16.614   6.153
 8636POPC   C1A47115   2.038  16.703   6.453
 8636POPC   D2A47116   2.040  16.731   6.753
 8636POPC   C3A47117   2.017  16.751   7.053
 8636POPC   C4A47118   1.963  16.773   7.353
 8636POPC   C1B47119   2.083  16.566   6.453
 8636POPC   C2B47120   2.161  16.534   6.753
 8636POPC   C3B47121   2.141  16.524   7.053
 8636POPC   C4B47122   2.089  16.505   7.353
 8637POPC   NC347123  43.146  26.771   5.553
 8637POPC   PO447124  43.135  26.775   5.853
 8637POPC   GL147125  43.122  26.863   6.153
 8637POPC   GL247126  43.139  26.944   6.153
 8637POPC   C1A47127  43.154  26.840   6.453
 8637POPC   D2A47128  43.155  26.840   6.753
 8637POPC   C3A47129  43.083  26.817   7.053
 8637POPC   C4A47130  43.121  26.777   7.353
 8637POPC   C1B47131  43.142  27.039   6.453
 8637POPC   C2B47132  43.211  27.090   6.753
 8637POPC   C3B47133  43.173  27.045   7.053
 8637POPC   C4B47134  43.181  27.083   7.353
 8638POPC   NC347135  39.209  31.511   5.553
 8638POPC   PO447136  39.259  31.426   5.853
 8638POPC   GL147137  39.257  31.504   6.153
 8638POPC   GL247138  39.253  31.569   6.153
 8638POPC   C1A47139  39.272  31.436   6.453
 8638POPC   D2A47140  39.197  31.490   6.753
 8638POPC   C3A47141  39.194  31.464   7.053
 8638POPC   C4A47142  39.226  31.427   7.353
 8638POPC   C1B47143  39.281  31.754   6.453
 8638POPC   C2B47144  39.257  31.771   6.753
 8638POPC   C3B47145  39.252  31.707   7.053
 8638POPC   C4B47146  39.207  31.746   7.353
 8639POPC   NC347147  20.608  42.333   5.553
 8639POPC   PO447148  20.615  42.347   5.853
 8639POPC   GL147149  20.658  42.336   6.153
 8639POPC   GL247150  20.465  42.436   6.153
 8639POPC   C1A47151  20.626  42.322   6.453
 8639POPC   D2A47152  20.630  42.297   6.753
 8639POPC   C3A47153  20.606  42.296   7.053
 8639POPC   C4A47154  20.596  42.371   7.353
 8639POPC   C1B47155  20.439  42.447   6.453
 8639POPC   C2B47156  20.437  42.492   6.753
 8639POPC   C3B47157  20.388  42.450   7.053
 8639POPC   C4B47158  20.427  42.469   7.353
 8640POPC   NC347159  43.107  20.566   5.553
 8640POPC   PO447160  43.104  20.653   5.853
 8640POPC   GL147161  43.093  20.592   6.153
 8640POPC   GL247162  43.071  20.497   6.153
 8640POPC   C1A47163  43.107  20.622   6.453
 8640POPC   D2A47164  43.094  20.651   6.753
 8640POPC   C3A47165  43.068  20.618   7.053
 8640POPC   C4A47166  43.100  20.615   7.353
 8640POPC   C1B47167  42.931  20.366   6.453
 8640POPC   C2B47168  43.009  20.411   6.753
 8640POPC   C3B47169  42.963  20.365   7.053
 8640POPC   C4B47170  42.953  20.442   7.353
 8641POPC   NC347171  16.775  15.229   5.553
 8641POPC   PO447172  16.684  15.142   5.853
 8641POPC   GL147173  16.732  15.191   6.153
 8641POPC   GL247174  16.576  15.152   6.153
 8641POPC   C1A47175  16.749  15.157   6.453
 8641POPC   D2A47176  16.710  15.140   6.753
 8641POPC   C3A47177  16.752  15.152   7.053
 8641POPC   C4A47178  16.780  15.143   7.353
 8641POPC   C1B47179  16.450  15.135   6.453
 8641POPC   C2B47180  16.488  15.128   6.753
 8641POPC   C3B47181  16.518  15.181   7.053
 8641POPC   C4B47182  16.484  15.190   7.353
 8642POPC   NC347183  29.126  25.224   5.553
 8642POPC   PO447184  29.163  25.272   5.853
 8642POPC   GL147185  29.103  25.278   6.153
 8642POPC   GL247186  29.109  25.355   6.153
 8642POPC   C1A47187  29.127  25.228   6.453
 8642POPC   D2A47188  29.178  25.216   6.753
 8642POPC   C3A47189  29.099  25.299   7.053
 8642POPC   C4A47190  29.171  25.293   7.353
 8642POPC   C1B47191  29.024  25.440   6.453
 8642POPC   C2B47192  28.977  25.506   6.753
 8642POPC   C3B47193  29.054  25.441   7.053
 8642POPC   C4B47194  28.993  25.505   7.353
 8643POPC   NC347195  26.023  19.854   5.553
 8643POPC   PO447196  26.054  19.859   5.853
 8643POPC   GL147197  26.012  19.872   6.153
 8643POPC   GL247198  26.060  19.918   6.153
 8643POPC   C1A47199  26.071  19.850   6.453
 8643POPC   D2A47200  26.041  19.822   6.753
 8643POPC   C3A47201  26.041  19.877   7.053
 8643POPC   C4A47202  26.040  19.847   7.353
 8643POPC   C1B47203  26.175  20.075   6.453
 8643POPC   C2B47204  26.135  20.078   6.753
 8643POPC   C3B47205  26.115  20.039   7.053
 8643POPC   C4B47206  26.089  20.067   7.353
 8644POPC   NC347207  12.049  43.158   5.553
 8644POPC   PO447208  12.050  43.087   5.853
 8644POPC   GL147209  12.115  43.069   6.153
 8644POPC   GL247210  12.206  43.097   6.153
 8644POPC   C1A47211  12.056  43.157   6.453
 8644POPC   D2A47212  12.102  43.087   6.753
 8644POPC   C3A47213  12.034  43.103   7.053
 8644POPC   C4A47214  12.053  43.125   7.353
 8644POPC   C1B47215  12.338  42.953   6.453
 8644POPC   C2B47216  12.328  43.037   6.753
 8644POPC   C3B47217  12.290  42.966   7.053
 8644POPC   C4B47218  12.261  42.964   7.353
 8645POPC   NC347219  33.074  33.028   5.553
 8645POPC   PO447220  32.982  33.005   5.853
 8645POPC   GL147221  33.060  32.984   6.153
 8645POPC   GL247222  32.911  32.952   6.153
 8645POPC   C1A47223  33.016  32.993   6.453
 8645POPC   D2A47224  33.057  33.032   6.753
 8645POPC   C3A47225  33.004  33.033   7.053
 8645POPC   C4A47226  32.981  33.002   7.353
 8645POPC   C1B47227  32.834  32.863   6.453
 8645POPC   C2B47228  32.831  32.828   6.753
 8645POPC   C3B47229  32.841  32.873   7.053
 8645POPC   C4B47230  32.795  32.908   7.353
 8646POPC   NC347231  27.619  30.725   5.553
 8646POPC   PO447232  27.615  30.717   5.853
 8646POPC   GL147233  27.639  30.684   6.153
 8646POPC   GL247234  27.503  30.586   6.153
 8646POPC   C1A47235  27.599  30.651   6.453
 8646POPC   D2A47236  27.603  30.652   6.753
 8646POPC   C3A47237  27.600  30.695   7.053
 8646POPC   C4A47238  27.559  30.721   7.353
 8646POPC   C1B47239  27.515  30.501   6.453
 8646POPC   C2B47240  27.473  30.468   6.753
 8646POPC   C3B47241  27.496  30.447   7.053
 8646POPC   C4B47242  27.530  30.470   7.353
 8647POPC   NC347243  34.606  43.842   5.553
 8647POPC   PO447244  34.533  43.913   5.853
 8647POPC   GL147245  34.536  43.895   6.153
 8647POPC   GL247246  34.701  43.811   6.153
 8647POPC   C1A47247  34.541  43.837   6.453
 8647POPC   D2A47248  34.592  43.890   6.753
 8647POPC   C3A47249  34.541  43.904   7.053
 8647POPC   C4A47250  34.580  43.855   7.353
 8647POPC   C1B47251  34.784  43.791   6.453
 8647POPC   C2B47252  34.839  43.818   6.753
 8647POPC   C3B47253  34.817  43.790   7.053
 8647POPC   C4B47254  34.804  43.843   7.353
 8648POPC   NC347255  33.047  42.290   5.553
 8648POPC   PO447256  33.026  42.295   5.853
 8648POPC   GL147257  33.047  42.305   6.153
 8648POPC   GL247258  33.140  42.200   6.153
 8648POPC   C1A47259  32.998  42.318   6.453
 8648POPC   D2A47260  33.028  42.292   6.753
 8648POPC   C3A47261  33.013  42.344   7.053
 8648POPC   C4A47262  33.041  42.353   7.353
 8648POPC   C1B47263  33.169  42.203   6.453
 8648POPC   C2B47264  33.228  42.112   6.753
 8648POPC   C3B47265  33.174  42.187   7.053
 8648POPC   C4B47266  33.210  42.192   7.353
 8649POPC   NC347267  15.202  43.907   5.553
 8649POPC   PO447268  15.228  43.857   5.853
 8649POPC   GL147269  15.201  43.864   6.153
 8649POPC   GL247270  15.027  43.876   6.153
 8649POPC   C1A47271  15.158  43.880   6.453
 8649POPC   D2A47272  15.178  43.869   6.753
 8649POPC   C3A47273  15.204  43.869   7.053
 8649POPC   C4A47274  15.153  43.924   7.353
 8649POPC   C1B47275  14.920  43.959   6.453
 8649POPC   C2B47276  14.960  43.938   6.753
 8649POPC   C3B47277  14.889  43.952   7.053
 8649POPC   C4B47278  14.956  43.873   7.353
 8650POPC   NC347279  40.819  26.781   5.553
 8650POPC   PO447280  40.794  26.796   5.853
 8650POPC   GL147281  40.787  26.795   6.153
 8650POPC   GL247282  40.619  26.786   6.153
 8650POPC   C1A47283  40.829  26.803   6.453
 8650POPC   D2A47284  40.739  26.859   6.753
 8650POPC   C3A47285  40.763  26.854   7.053
 8650POPC   C4A47286  40.791  26.781   7.353
 8650POPC   C1B47287  40.583  26.726   6.453
 8650POPC   C2B47288  40.526  26.729   6.753
 8650POPC   C3B47289  40.544  26.761   7.053
 8650POPC   C4B47290  40.508  26.755   7.353
 8651POPC   NC347291  15.148  15.989   5.553
 8651POPC   PO447292  15.199  15.927   5.853
 8651POPC   GL147293  15.167  15.992   6.153
 8651POPC   GL247294  15.044  15.952   6.153
 8651POPC   C1A47295  15.142  15.944   6.453
 8651POPC   D2A47296  15.221  15.936   6.753
 8651POPC   C3A47297  15.219  15.995   7.053
 8651POPC   C4A47298  15.195  15.923   7.353
 8651POPC   C1B47299  14.916  16.022   6.453
 8651POPC   C2B47300  14.908  15.956   6.753
 8651POPC   C3B47301  14.975  15.999   7.053
 8651POPC   C4B47302  14.947  16.030   7.353
 8652POPC   NC347303  16.693  36.168   5.553
 8652POPC   PO447304  16.687  36.082   5.853
 8652POPC   GL147305  16.761  36.105   6.153
 8652POPC   GL247306  16.796  35.980   6.153
 8652POPC   C1A47307  16.705  36.082   6.453
 8652POPC   D2A47308  16.684  36.115   6.753
 8652POPC   C3A47309  16.737  36.159   7.053
 8652POPC   C4A47310  16.779  36.155   7.353
 8652POPC   C1B47311  16.794  35.835   6.453
 8652POPC   C2B47312  16.740  35.862   6.753
 8652POPC   C3B47313  16.783  35.854   7.053
 8652POPC   C4B47314  16.770  35.926   7.353
 8653POPC   NC347315  22.968  33.825   5.553
 8653POPC   PO447316  22.982  33.827   5.853
 8653POPC   GL147317  22.976  33.843   6.153
 8653POPC   GL247318  22.806  33.809   6.153
 8653POPC   C1A47319  22.919  33.783   6.453
 8653POPC   D2A47320  22.890  33.763   6.753
 8653POPC   C3A47321  22.935  33.781   7.053
 8653POPC   C4A47322  22.900  33.779   7.353
 8653POPC   C1B47323  22.749  33.968   6.453
 8653POPC   C2B47324  22.707  33.877   6.753
 8653POPC   C3B47325  22.680  33.921   7.053
 8653POPC   C4B47326  22.673  33.917   7.353
 8654POPC   NC347327  28.411   9.012   5.553
 8654POPC   PO447328  28.393   8.985   5.853
 8654POPC   GL147329  28.418   8.967   6.153
 8654POPC   GL247330  28.533   8.921   6.153
 8654POPC   C1A47331  28.367   8.931   6.453
 8654POPC   D2A47332  28.393   8.988   6.753
 8654POPC   C3A47333  28.403   8.969   7.053
 8654POPC   C4A47334  28.330   8.927   7.353
 8654POPC   C1B47335  28.599   8.882   6.453
 8654POPC   C2B47336  28.566   8.882   6.753
 8654POPC   C3B47337  28.619   8.932   7.053
 8654POPC   C4B47338  28.600   8.854   7.353
 8655POPC   NC347339  17.546  38.498   5.553
 8655POPC   PO447340  17.496  38.464   5.853
 8655POPC   GL147341  17.557  38.451   6.153
 8655POPC   GL247342  17.556  38.293   6.153
 8655POPC   C1A47343  17.517  38.470   6.453
 8655POPC   D2A47344  17.517  38.442   6.753
 8655POPC   C3A47345  17.503  38.411   7.053
 8655POPC   C4A47346  17.528  38.463   7.353
 8655POPC   C1B47347  17.520  38.237   6.453
 8655POPC   C2B47348  17.551  38.227   6.753
 8655POPC   C3B47349  17.488  38.206   7.053
 8655POPC   C4B47350  17.563  38.251   7.353
 8656POPC   NC347351  41.528   9.785   5.553
 8656POPC   PO447352  41.572   9.704   5.853
 8656POPC   GL147353  41.546   9.772   6.153
 8656POPC   GL247354  41.638   9.813   6.153
 8656POPC   C1A47355  41.556   9.784   6.453
 8656POPC   D2A47356  41.582   9.699   6.753
 8656POPC   C3A47357  41.600   9.731   7.053
 8656POPC   C4A47358  41.521   9.781   7.353
 8656POPC   C1B47359  41.764   9.919   6.453
 8656POPC   C2B47360  41.818   9.889   6.753
 8656POPC   C3B47361  41.729   9.858   7.053
 8656POPC   C4B47362  41.811   9.890   7.353
 8657POPC   NC347363   9.789   1.205   5.553
 8657POPC   PO447364   9.755   1.204   5.853
 8657POPC   GL147365   9.713   1.214   6.153
 8657POPC   GL247366   9.699   1.113   6.153
 8657POPC   C1A47367   9.720   1.240   6.453
 8657POPC   D2A47368   9.747   1.179   6.753
 8657POPC   C3A47369   9.722   1.188   7.053
 8657POPC   C4A47370   9.737   1.225   7.353
 8657POPC   C1B47371   9.635   0.973   6.453
 8657POPC   C2B47372   9.651   1.021   6.753
 8657POPC   C3B47373   9.588   0.984   7.053
 8657POPC   C4B47374   9.635   1.035   7.353
 8658POPC   NC347375  29.139  35.393   5.553
 8658POPC   PO447376  29.120  35.377   5.853
 8658POPC   GL147377  29.145  35.394   6.153
 8658POPC   GL247378  29.225  35.306   6.153
 8658POPC   C1A47379  29.159  35.307   6.453
 8658POPC   D2A47380  29.157  35.313   6.753
 8658POPC   C3A47381  29.173  35.397   7.053
 8658POPC   C4A47382  29.126  35.324   7.353
 8658POPC   C1B47383  29.342  35.234   6.453
 8658POPC   C2B47384  29.366  35.273   6.753
 8658POPC   C3B47385  29.390  35.252   7.053
 8658POPC   C4B47386  29.405  35.305   7.353
 8659POPC   NC347387   2.015  11.315   5.553
 8659POPC   PO447388   1.972  11.282   5.853
 8659POPC   GL147389   1.955  11.323   6.153
 8659POPC   GL247390   1.951  11.225   6.153
 8659POPC   C1A47391   2.022  11.254   6.453
 8659POPC   D2A47392   2.004  11.296   6.753
 8659POPC   C3A47393   1.944  11.291   7.053
 8659POPC   C4A47394   1.957  11.282   7.353
 8659POPC   C1B47395   1.854  11.098   6.453
 8659POPC   C2B47396   1.846  11.086   6.753
 8659POPC   C3B47397   1.860  11.138   7.053
 8659POPC   C4B47398   1.843  11.146   7.353
 8660POPC   NC347399  25.251  39.248   5.553
 8660POPC   PO447400  25.271  39.255   5.853
 8660POPC   GL147401  25.232  39.253   6.153
 8660POPC   GL247402  25.426  39.160   6.153
 8660POPC   C1A47403  25.264  39.232   6.453
 8660POPC   D2A47404  25.294  39.207   6.753
 8660POPC   C3A47405  25.267  39.195   7.053
 8660POPC   C4A47406  25.296  39.247   7.353
 8660POPC   C1B47407  25.521  39.155   6.453
 8660POPC   C2B47408  25.474  39.131   6.753
 8660POPC   C3B47409  25.521  39.163   7.053
 8660POPC   C4B47410  25.530  39.091   7.353
 8661POPC   NC347411  18.247   5.114   5.553
 8661POPC   PO447412  18.247   5.109   5.853
 8661POPC   GL147413  18.321   5.064   6.153
 8661POPC   GL247414  18.358   5.161   6.153
 8661POPC   C1A47415  18.309   5.100   6.453
 8661POPC   D2A47416  18.293   5.091   6.753
 8661POPC   C3A47417  18.310   5.045   7.053
 8661POPC   C4A47418  18.257   5.115   7.353
 8661POPC   C1B47419  18.472   5.251   6.453
 8661POPC   C2B47420  18.476   5.318   6.753
 8661POPC   C3B47421  18.445   5.270   7.053
 8661POPC   C4B47422  18.489   5.257   7.353
 8662POPC   NC347423  10.490  28.352   5.553
 8662POPC   PO447424  10.518  28.326   5.853
 8662POPC   GL147425  10.499  28.368   6.153
 8662POPC   GL247426  10.416  28.332   6.153
 8662POPC   C1A47427  10.573  28.395   6.453
 8662POPC   D2A47428  10.483  28.406   6.753
 8662POPC   C3A47429  10.495  28.374   7.053
 8662POPC   C4A47430  10.477  28.373   7.353
 8662POPC   C1B47431  10.241  28.330   6.453
 8662POPC   C2B47432  10.235  28.386   6.753
 8662POPC   C3B47433  10.307  28.373   7.053
 8662POPC   C4B47434  10.317  28.337   7.353
 8663POPC   NC347435  24.448   9.709   5.553
 8663POPC   PO447436  24.466   9.749   5.853
 8663POPC   GL147437  24.477   9.741   6.153
 8663POPC   GL247438  24.577   9.776   6.153
 8663POPC   C1A47439  24.463   9.762   6.453
 8663POPC   D2A47440  24.513   9.710   6.753
 8663POPC   C3A47441  24.459   9.720   7.053
 8663POPC   C4A47442  24.487   9.699   7.353
 8663POPC   C1B47443  24.727   9.849   6.453
 8663POPC   C2B47444  24.771   9.827   6.753
 8663POPC   C3B47445  24.727   9.848   7.053
 8663POPC   C4B47446  24.729   9.790   7.353
 8664POPC   NC347447  24.515  32.199   5.553
 8664POPC   PO447448  24.521  32.273   5.853
 8664POPC   GL147449  24.467  32.275   6.153
 8664POPC   GL247450  24.549  32.183   6.153
 8664POPC   C1A47451  24.496  32.271   6.453
 8664POPC   D2A47452  24.535  32.297   6.753
 8664POPC   C3A47453  24.520  32.240   7.053
 8664POPC   C4A47454  24.500  32.221   7.353
 8664POPC   C1B47455  24.576  32.036   6.453
 8664POPC   C2B47456  24.568  32.001   6.753
 8664POPC   C3B47457  24.644  32.049   7.053
 8664POPC   C4B47458  24.595  32.033   7.353
 8665POPC   NC347459  29.191   4.330   5.553
 8665POPC   PO447460  29.132   4.350   5.853
 8665POPC   GL147461  29.123   4.326   6.153
 8665POPC   GL247462  29.191   4.179   6.153
 8665POPC   C1A47463  29.169   4.303   6.453
 8665POPC   D2A47464  29.175   4.318   6.753
 8665POPC   C3A47465  29.122   4.320   7.053
 8665POPC   C4A47466  29.159   4.342   7.353
 8665POPC   C1B47467  29.286   4.131   6.453
 8665POPC   C2B47468  29.287   4.100   6.753
 8665POPC   C3B47469  29.302   4.078   7.053
 8665POPC   C4B47470  29.276   4.121   7.353
 8666POPC   NC347471  41.536  33.061   5.553
 8666POPC   PO447472  41.517  33.041   5.853
 8666POPC   GL147473  41.575  33.030   6.153
 8666POPC   GL247474  41.464  32.969   6.153
 8666POPC   C1A47475  41.603  33.001   6.453
 8666POPC   D2A47476  41.560  33.018   6.753
 8666POPC   C3A47477  41.576  33.068   7.053
 8666POPC   C4A47478  41.547  33.003   7.353
 8666POPC   C1B47479  41.292  32.888   6.453
 8666POPC   C2B47480  41.301  32.921   6.753
 8666POPC   C3B47481  41.287  32.959   7.053
 8666POPC   C4B47482  41.289  32.878   7.353
 8667POPC   NC347483  27.546  22.892   5.553
 8667POPC   PO447484  27.638  22.908   5.853
 8667POPC   GL147485  27.596  22.918   6.153
 8667POPC   GL247486  27.696  22.891   6.153
 8667POPC   C1A47487  27.620  22.935   6.453
 8667POPC   D2A47488  27.635  22.944   6.753
 8667POPC   C3A47489  27.557  22.953   7.053
 8667POPC   C4A47490  27.596  22.948   7.353
 8667POPC   C1B47491  27.721  22.737   6.453
 8667POPC   C2B47492  27.730  22.741   6.753
 8667POPC   C3B47493  27.751  22.772   7.053
 8667POPC   C4B47494  27.749  22.759   7.353
 8668POPC   NC347495  28.356   0.415   5.553
 8668POPC   PO447496  28.402   0.475   5.853
 8668POPC   GL147497  28.382   0.433   6.153
 8668POPC   GL247498  28.446   0.512   6.153
 8668POPC   C1A47499  28.404   0.485   6.453
 8668POPC   D2A47500  28.389   0.484   6.753
 8668POPC   C3A47501  28.361   0.441   7.053
 8668POPC   C4A47502  28.377   0.443   7.353
 8668POPC   C1B47503  28.510   0.565   6.453
 8668POPC   C2B47504  28.589   0.635   6.753
 8668POPC   C3B47505  28.524   0.599   7.053
 8668POPC   C4B47506  28.591   0.634   7.353
 8669POPC   NC347507  14.374  23.741   5.553
 8669POPC   PO447508  14.452  23.690   5.853
 8669POPC   GL147509  14.423  23.736   6.153
 8669POPC   GL247510  14.249  23.647   6.153
 8669POPC   C1A47511  14.446  23.754   6.453
 8669POPC   D2A47512  14.435  23.704   6.753
 8669POPC   C3A47513  14.428  23.754   7.053
 8669POPC   C4A47514  14.378  23.740   7.353
 8669POPC   C1B47515  14.183  23.544   6.453
 8669POPC   C2B47516  14.234  23.632   6.753
 8669POPC   C3B47517  14.149  23.630   7.053
 8669POPC   C4B47518  14.171  23.596   7.353
 8670POPC   NC347519  16.710  27.585   5.553
 8670POPC   PO447520  16.688  27.549   5.853
 8670POPC   GL147521  16.748  27.563   6.153
 8670POPC   GL247522  16.617  27.585   6.153
 8670POPC   C1A47523  16.761  27.614   6.453
 8670POPC   D2A47524  16.738  27.636   6.753
 8670POPC   C3A47525  16.735  27.558   7.053
 8670POPC   C4A47526  16.710  27.547   7.353
 8670POPC   C1B47527  16.473  27.629   6.453
 8670POPC   C2B47528  16.541  27.690   6.753
 8670POPC   C3B47529  16.475  27.666   7.053
 8670POPC   C4B47530  16.471  27.654   7.353
 8671POPC   NC347531  35.325  42.322   5.553
 8671POPC   PO447532  35.329  42.374   5.853
 8671POPC   GL147533  35.356  42.328   6.153
 8671POPC   GL247534  35.351  42.240   6.153
 8671POPC   C1A47535  35.378  42.327   6.453
 8671POPC   D2A47536  35.311  42.321   6.753
 8671POPC   C3A47537  35.308  42.344   7.053
 8671POPC   C4A47538  35.394  42.321   7.353
 8671POPC   C1B47539  35.468  42.115   6.453
 8671POPC   C2B47540  35.399  42.068   6.753
 8671POPC   C3B47541  35.426  42.147   7.053
 8671POPC   C4B47542  35.449  42.141   7.353
 8672POPC   NC347543  23.687  42.317   5.553
 8672POPC   PO447544  23.700  42.321   5.853
 8672POPC   GL147545  23.680  42.323   6.153
 8672POPC   GL247546  23.835  42.389   6.153
 8672POPC   C1A47547  23.740  42.332   6.453
 8672POPC   D2A47548  23.680  42.348   6.753
 8672POPC   C3A47549  23.706  42.299   7.053
 8672POPC   C4A47550  23.709  42.356   7.353
 8672POPC   C1B47551  23.951  42.447   6.453
 8672POPC   C2B47552  23.932  42.426   6.753
 8672POPC   C3B47553  23.963  42.435   7.053
 8672POPC   C4B47554  23.934  42.465   7.353
 8673POPC   NC347555  33.048  35.311   5.553
 8673POPC   PO447556  33.050  35.387   5.853
 8673POPC   GL147557  32.987  35.326   6.153
 8673POPC   GL247558  32.883  35.417   6.153
 8673POPC   C1A47559  33.068  35.374   6.453
 8673POPC   D2A47560  33.032  35.378   6.753
 8673POPC   C3A47561  32.980  35.376   7.053
 8673POPC   C4A47562  32.998  35.355   7.353
 8673POPC   C1B47563  32.819  35.514   6.453
 8673POPC   C2B47564  32.842  35.516   6.753
 8673POPC   C3B47565  32.854  35.466   7.053
 8673POPC   C4B47566  32.857  35.445   7.353
 8674POPC   NC347567  28.406   2.027   5.553
 8674POPC   PO447568  28.332   2.008   5.853
 8674POPC   GL147569  28.366   2.015   6.153
 8674POPC   GL247570  28.233   1.999   6.153
 8674POPC   C1A47571  28.405   1.963   6.453
 8674POPC   D2A47572  28.409   1.966   6.753
 8674POPC   C3A47573  28.323   1.963   7.053
 8674POPC   C4A47574  28.387   2.019   7.353
 8674POPC   C1B47575  28.151   2.033   6.453
 8674POPC   C2B47576  28.101   2.030   6.753
 8674POPC   C3B47577  28.120   2.057   7.053
 8674POPC   C4B47578  28.150   2.108   7.353
 8675POPC   NC347579  34.591  31.461   5.553
 8675POPC   PO447580  34.619  31.486   5.853
 8675POPC   GL147581  34.593  31.477   6.153
 8675POPC   GL247582  34.707  31.343   6.153
 8675POPC   C1A47583  34.594  31.482   6.453
 8675POPC   D2A47584  34.583  31.465   6.753
 8675POPC   C3A47585  34.611  31.485   7.053
 8675POPC   C4A47586  34.574  31.482   7.353
 8675POPC   C1B47587  34.770  31.318   6.453
 8675POPC   C2B47588  34.772  31.249   6.753
 8675POPC   C3B47589  34.769  31.246   7.053
 8675POPC   C4B47590  34.739  31.333   7.353
 8676POPC   NC347591  40.006  23.731   5.553
 8676POPC   PO447592  39.957  23.696   5.853
 8676POPC   GL147593  40.007  23.720   6.153
 8676POPC   GL247594  40.100  23.699   6.153
 8676POPC   C1A47595  39.995  23.738   6.453
 8676POPC   D2A47596  39.998  23.724   6.753
 8676POPC   C3A47597  39.996  23.690   7.053
 8676POPC   C4A47598  39.979  23.753   7.353
 8676POPC   C1B47599  40.255  23.632   6.453
 8676POPC   C2B47600  40.260  23.669   6.753
 8676POPC   C3B47601  40.224  23.659   7.053
 8676POPC   C4B47602  40.230  23.654   7.353
 8677POPC   NC347603  10.496   5.114   5.553
 8677POPC   PO447604  10.547   5.085   5.853
 8677POPC   GL147605  10.540   5.143   6.153
 8677POPC   GL247606  10.559   5.166   6.153
 8677POPC   C1A47607  10.512   5.061   6.453
 8677POPC   D2A47608  10.506   5.137   6.753
 8677POPC   C3A47609  10.512   5.121   7.053
 8677POPC   C4A47610  10.475   5.096   7.353
 8677POPC   C1B47611  10.725   5.308   6.453
 8677POPC   C2B47612  10.725   5.281   6.753
 8677POPC   C3B47613  10.706   5.249   7.053
 8677POPC   C4B47614  10.729   5.333   7.353
 8678POPC   NC347615   3.561  27.548   5.553
 8678POPC   PO447616   3.554  27.606   5.853
 8678POPC   GL147617   3.546  27.617   6.153
 8678POPC   GL247618   3.623  27.516   6.153
 8678POPC   C1A47619   3.540  27.555   6.453
 8678POPC   D2A47620   3.565  27.564   6.753
 8678POPC   C3A47621   3.586  27.589   7.053
 8678POPC   C4A47622   3.579  27.610   7.353
 8678POPC   C1B47623   3.706  27.382   6.453
 8678POPC   C2B47624   3.637  27.416   6.753
 8678POPC   C3B47625   3.642  27.374   7.053
 8678POPC   C4B47626   3.700  27.415   7.353
 8679POPC   NC347627  27.544  43.097   5.553
 8679POPC   PO447628  27.614  43.100   5.853
 8679POPC   GL147629  27.616  43.080   6.153
 8679POPC   GL247630  27.472  43.082   6.153
 8679POPC   C1A47631  27.601  43.141   6.453
 8679POPC   D2A47632  27.638  43.069   6.753
 8679POPC   C3A47633  27.604  43.143   7.053
 8679POPC   C4A47634  27.620  43.101   7.353
 8679POPC   C1B47635  27.380  43.007   6.453
 8679POPC   C2B47636  27.335  43.003   6.753
 8679POPC   C3B47637  27.370  43.078   7.053
 8679POPC   C4B47638  27.341  43.021   7.353
 8680POPC   NC347639  15.184  12.803   5.553
 8680POPC   PO447640  15.222  12.839   5.853
 8680POPC   GL147641  15.212  12.808   6.153
 8680POPC   GL247642  15.139  12.777   6.153
 8680POPC   C1A47643  15.179  12.819   6.453
 8680POPC   D2A47644  15.220  12.805   6.753
 8680POPC   C3A47645  15.167  12.898   7.053
 8680POPC   C4A47646  15.170  12.807   7.353
 8680POPC   C1B47647  15.050  12.667   6.453
 8680POPC   C2B47648  15.036  12.610   6.753
 8680POPC   C3B47649  14.997  12.610   7.053
 8680POPC   C4B47650  15.018  12.638   7.353
 8681POPC   NC347651  28.392   5.059   5.553
 8681POPC   PO447652  28.348   5.109   5.853
 8681POPC   GL147653  28.407   5.129   6.153
 8681POPC   GL247654  28.205   5.103   6.153
 8681POPC   C1A47655  28.374   5.062   6.453
 8681POPC   D2A47656  28.365   5.097   6.753
 8681POPC   C3A47657  28.417   5.141   7.053
 8681POPC   C4A47658  28.376   5.094   7.353
 8681POPC   C1B47659  28.151   5.053   6.453
 8681POPC   C2B47660  28.097   4.985   6.753
 8681POPC   C3B47661  28.165   5.018   7.053
 8681POPC   C4B47662  28.166   4.989   7.353
 8682POPC   NC347663  12.090  15.982   5.553
 8682POPC   PO447664  12.096  15.926   5.853
 8682POPC   GL147665  12.115  15.922   6.153
 8682POPC   GL247666  12.173  16.034   6.153
 8682POPC   C1A47667  12.083  15.967   6.453
 8682POPC   D2A47668  12.122  15.999   6.753
 8682POPC   C3A47669  12.061  15.906   7.053
 8682POPC   C4A47670  12.035  15.939   7.353
 8682POPC   C1B47671  12.314  16.020   6.453
 8682POPC   C2B47672  12.275  16.080   6.753
 8682POPC   C3B47673  12.315  16.055   7.053
 8682POPC   C4B47674  12.304  16.042   7.353
 8683POPC   NC347675   1.979  37.643   5.553
 8683POPC   PO447676   2.006  37.662   5.853
 8683POPC   GL147677   1.949  37.707   6.153
 8683POPC   GL247678   2.036  37.611   6.153
 8683POPC   C1A47679   1.987  37.640   6.453
 8683POPC   D2A47680   1.985  37.719   6.753
 8683POPC   C3A47681   1.941  37.635   7.053
 8683POPC   C4A47682   1.989  37.658   7.353
 8683POPC   C1B47683   2.189  37.474   6.453
 8683POPC   C2B47684   2.209  37.476   6.753
 8683POPC   C3B47685   2.121  37.459   7.053
 8683POPC   C4B47686   2.125  37.476   7.353
 8684POPC   NC347687  33.809   7.455   5.553
 8684POPC   PO447688  33.778   7.432   5.853
 8684POPC   GL147689  33.834   7.410   6.153
 8684POPC   GL247690  33.678   7.407   6.153
 8684POPC   C1A47691  33.812   7.398   6.453
 8684POPC   D2A47692  33.827   7.418   6.753
 8684POPC   C3A47693  33.849   7.452   7.053
 8684POPC   C4A47694  33.843   7.446   7.353
 8684POPC   C1B47695  33.586   7.348   6.453
 8684POPC   C2B47696  33.519   7.377   6.753
 8684POPC   C3B47697  33.594   7.417   7.053
 8684POPC   C4B47698  33.587   7.346   7.353
 8685POPC   NC347699  19.880  20.604   5.553
 8685POPC   PO447700  19.792  20.608   5.853
 8685POPC   GL147701  19.823  20.619   6.153
 8685POPC   GL247702  19.849  20.760   6.153
 8685POPC   C1A47703  19.876  20.578   6.453
 8685POPC   D2A47704  19.798  20.597   6.753
 8685POPC   C3A47705  19.828  20.578   7.053
 8685POPC   C4A47706  19.882  20.561   7.353
 8685POPC   C1B47707  19.841  20.896   6.453
 8685POPC   C2B47708  19.880  20.875   6.753
 8685POPC   C3B47709  19.898  20.870   7.053
 8685POPC   C4B47710  19.849  20.882   7.353
 8686POPC   NC347711  38.457  44.622   5.553
 8686POPC   PO447712  38.426  44.712   5.853
 8686POPC   GL147713  38.453  44.621   6.153
 8686POPC   GL247714  38.497  44.739   6.153
 8686POPC   C1A47715  38.443  44.644   6.453
 8686POPC   D2A47716  38.424  44.699   6.753
 8686POPC   C3A47717  38.413  44.620   7.053
 8686POPC   C4A47718  38.494  44.639   7.353
 8686POPC   C1B47719  38.526  44.904   6.453
 8686POPC   C2B47720  38.525  44.948   6.753
 8686POPC   C3B47721  38.474  44.863   7.053
 8686POPC   C4B47722  38.504  44.864   7.353
 8687POPC   NC347723  23.714  22.917   5.553
 8687POPC   PO447724  23.707  22.964   5.853
 8687POPC   GL147725  23.729  22.925   6.153
 8687POPC   GL247726  23.600  22.937   6.153
 8687POPC   C1A47727  23.714  22.950   6.453
 8687POPC   D2A47728  23.707  22.977   6.753
 8687POPC   C3A47729  23.722  22.974   7.053
 8687POPC   C4A47730  23.725  22.898   7.353
 8687POPC   C1B47731  23.464  23.009   6.453
 8687POPC   C2B47732  23.446  23.023   6.753
 8687POPC   C3B47733  23.498  22.997   7.053
 8687POPC   C4B47734  23.525  23.020   7.353
 8688POPC   NC347735  37.649  44.627   5.553
 8688POPC   PO447736  37.729  44.630   5.853
 8688POPC   GL147737  37.657  44.675   6.153
 8688POPC   GL247738  37.795  44.748   6.153
 8688POPC   C1A47739  37.676  44.662   6.453
 8688POPC   D2A47740  37.701  44.712   6.753
 8688POPC   C3A47741  37.727  44.684   7.053
 8688POPC   C4A47742  37.680  44.684   7.353
 8688POPC   C1B47743  37.838  44.829   6.453
 8688POPC   C2B47744  37.901  44.812   6.753
 8688POPC   C3B47745  37.902  44.845   7.053
 8688POPC   C4B47746  37.866  44.867   7.353
 8689POPC   NC347747  34.553  38.453   5.553
 8689POPC   PO447748  34.560  38.504   5.853
 8689POPC   GL147749  34.626  38.501   6.153
 8689POPC   GL247750  34.444  38.418   6.153
 8689POPC   C1A47751  34.547  38.455   6.453
 8689POPC   D2A47752  34.538  38.493   6.753
 8689POPC   C3A47753  34.609  38.462   7.053
 8689POPC   C4A47754  34.571  38.461   7.353
 8689POPC   C1B47755  34.332  38.520   6.453
 8689POPC   C2B47756  34.297  38.513   6.753
 8689POPC   C3B47757  34.371  38.485   7.053
 8689POPC   C4B47758  34.309  38.520   7.353
 8690POPC   NC347759  38.455  36.102   5.553
 8690POPC   PO447760  38.502  36.175   5.853
 8690POPC   GL147761  38.446  36.128   6.153
 8690POPC   GL247762  38.483  36.024   6.153
 8690POPC   C1A47763  38.438  36.151   6.453
 8690POPC   D2A47764  38.505  36.095   6.753
 8690POPC   C3A47765  38.500  36.082   7.053
 8690POPC   C4A47766  38.458  36.151   7.353
 8690POPC   C1B47767  38.566  35.941   6.453
 8690POPC   C2B47768  38.589  35.862   6.753
 8690POPC   C3B47769  38.558  35.888   7.053
 8690POPC   C4B47770  38.578  35.873   7.353
 8691POPC   NC347771  32.202  31.509   5.553
 8691POPC   PO447772  32.203  31.502   5.853
 8691POPC   GL147773  32.277  31.447   6.153
 8691POPC   GL247774  32.238  31.395   6.153
 8691POPC   C1A47775  32.207  31.498   6.453
 8691POPC   D2A47776  32.297  31.471   6.753
 8691POPC   C3A47777  32.210  31.450   7.053
 8691POPC   C4A47778  32.290  31.508   7.353
 8691POPC   C1B47779  32.235  31.220   6.453
 8691POPC   C2B47780  32.177  31.263   6.753
 8691POPC   C3B47781  32.221  31.238   7.053
 8691POPC   C4B47782  32.159  31.232   7.353
 8692POPC   NC347783  32.208  15.223   5.553
 8692POPC   PO447784  32.219  15.199   5.853
 8692POPC   GL147785  32.252  15.198   6.153
 8692POPC   GL247786  32.384  15.267   6.153
 8692POPC   C1A47787  32.224  15.229   6.453
 8692POPC   D2A47788  32.283  15.138   6.753
 8692POPC   C3A47789  32.207  15.169   7.053
 8692POPC   C4A47790  32.253  15.165   7.353
 8692POPC   C1B47791  32.411  15.316   6.453
 8692POPC   C2B47792  32.379  15.309   6.753
 8692POPC   C3B47793  32.389  15.339   7.053
 8692POPC   C4B47794  32.476  15.316   7.353
 8693POPC   NC347795   2.799   7.467   5.553
 8693POPC   PO447796   2.749   7.423   5.853
 8693POPC   GL147797   2.727   7.431   6.153
 8693POPC   GL247798   2.937   7.432   6.153
 8693POPC   C1A47799   2.762   7.383   6.453
 8693POPC   D2A47800   2.749   7.391   6.753
 8693POPC   C3A47801   2.772   7.385   7.053
 8693POPC   C4A47802   2.811   7.393   7.353
 8693POPC   C1B47803   3.007   7.356   6.453
 8693POPC   C2B47804   3.045   7.426   6.753
 8693POPC   C3B47805   3.057   7.449   7.053
 8693POPC   C4B47806   3.003   7.402   7.353
 8694POPC   NC347807   6.684  12.860   5.553
 8694POPC   PO447808   6.672  12.813   5.853
 8694POPC   GL147809   6.632  12.861   6.153
 8694POPC   GL247810   6.543  12.889   6.153
 8694POPC   C1A47811   6.666  12.879   6.453
 8694POPC   D2A47812   6.617  12.833   6.753
 8694POPC   C3A47813   6.606  12.802   7.053
 8694POPC   C4A47814   6.672  12.820   7.353
 8694POPC   C1B47815   6.419  12.922   6.453
 8694POPC   C2B47816   6.402  12.900   6.753
 8694POPC   C3B47817   6.358  12.892   7.053
 8694POPC   C4B47818   6.360  12.873   7.353
 8695POPC   NC347819  40.021   2.026   5.553
 8695POPC   PO447820  39.983   2.003   5.853
 8695POPC   GL147821  39.976   1.977   6.153
 8695POPC   GL247822  40.063   1.878   6.153
 8695POPC   C1A47823  40.024   1.970   6.453
 8695POPC   D2A47824  40.056   2.005   6.753
 8695POPC   C3A47825  39.969   1.940   7.053
 8695POPC   C4A47826  40.046   1.978   7.353
 8695POPC   C1B47827  40.042   1.729   6.453
 8695POPC   C2B47828  40.079   1.753   6.753
 8695POPC   C3B47829  40.023   1.767   7.053
 8695POPC   C4B47830  40.053   1.785   7.353
 8696POPC   NC347831   8.981   5.056   5.553
 8696POPC   PO447832   9.010   5.112   5.853
 8696POPC   GL147833   9.022   5.083   6.153
 8696POPC   GL247834   8.958   4.943   6.153
 8696POPC   C1A47835   8.930   5.130   6.453
 8696POPC   D2A47836   9.008   5.091   6.753
 8696POPC   C3A47837   9.022   5.072   7.053
 8696POPC   C4A47838   9.004   5.093   7.353
 8696POPC   C1B47839   9.083   4.823   6.453
 8696POPC   C2B47840   9.069   4.842   6.753
 8696POPC   C3B47841   9.029   4.844   7.053
 8696POPC   C4B47842   9.063   4.838   7.353
 8697POPC   NC347843  44.679  36.930   5.553
 8697POPC   PO447844  44.644  36.890   5.853
 8697POPC   GL147845  44.624  36.903   6.153
 8697POPC   GL247846  44.598  36.970   6.153
 8697POPC   C1A47847  44.678  36.885   6.453
 8697POPC   D2A47848  44.685  36.920   6.753
 8697POPC   C3A47849  44.619  36.916   7.053
 8697POPC   C4A47850  44.642  36.896   7.353
 8697POPC   C1B47851  44.534  37.132   6.453
 8697POPC   C2B47852  44.564  37.140   6.753
 8697POPC   C3B47853  44.526  37.179   7.053
 8697POPC   C4B47854  44.570  37.117   7.353
 8698POPC   NC347855   5.047  36.948   5.553
 8698POPC   PO447856   5.085  36.895   5.853
 8698POPC   GL147857   5.117  36.952   6.153
 8698POPC   GL247858   4.930  36.932   6.153
 8698POPC   C1A47859   5.084  36.866   6.453
 8698POPC   D2A47860   5.067  36.870   6.753
 8698POPC   C3A47861   5.065  36.876   7.053
 8698POPC   C4A47862   5.115  36.939   7.353
 8698POPC   C1B47863   4.821  36.982   6.453
 8698POPC   C2B47864   4.827  36.987   6.753
 8698POPC   C3B47865   4.828  37.004   7.053
 8698POPC   C4B47866   4.858  36.996   7.353
 8699POPC   NC347867  13.624  15.964   5.553
 8699POPC   PO447868  13.633  15.926   5.853
 8699POPC   GL147869  13.584  15.958   6.153
 8699POPC   GL247870  13.603  15.813   6.153
 8699POPC   C1A47871  13.643  15.921   6.453
 8699POPC   D2A47872  13.642  15.985   6.753
 8699POPC   C3A47873  13.604  15.955   7.053
 8699POPC   C4A47874  13.614  15.978   7.353
 8699POPC   C1B47875  13.680  15.740   6.453
 8699POPC   C2B47876  13.701  15.725   6.753
 8699POPC   C3B47877  13.686  15.732   7.053
 8699POPC   C4B47878  13.627  15.737   7.353
 8700POPC   NC347879   2.038  14.397   5.553
 8700POPC   PO447880   2.019  14.431   5.853
 8700POPC   GL147881   1.998  14.382   6.153
 8700POPC   GL247882   2.136  14.305   6.153
 8700POPC   C1A47883   1.957  14.410   6.453
 8700POPC   D2A47884   2.010  14.413   6.753
 8700POPC   C3A47885   1.957  14.412   7.053
 8700POPC   C4A47886   1.991  14.370   7.353
 8700POPC   C1B47887   2.212  14.246   6.453
 8700POPC   C2B47888   2.232  14.227   6.753
 8700POPC   C3B47889   2.237  14.240   7.053
 8700POPC   C4B47890   2.178  14.244   7.353
 8701POPC   NC347891  33.788  44.625   5.553
 8701POPC   PO447892  33.821  44.708   5.853
 8701POPC   GL147893  33.844  44.686   6.153
 8701POPC   GL247894  33.882  44.543   6.153
 8701POPC   C1A47895  33.824  44.626   6.453
 8701POPC   D2A47896  33.787  44.639   6.753
 8701POPC   C3A47897  33.773  44.651   7.053
 8701POPC   C4A47898  33.849  44.701   7.353
 8701POPC   C1B47899  33.942  44.478   6.453
 8701POPC   C2B47900  33.898  44.430   6.753
 8701POPC   C3B47901  33.907  44.470   7.053
 8701POPC   C4B47902  33.903  44.442   7.353
 8702POPC   NC347903  30.647   1.186   5.553
 8702POPC   PO447904  30.667   1.188   5.853
 8702POPC   GL147905  30.705   1.225   6.153
 8702POPC   GL247906  30.805   1.243   6.153
 8702POPC   C1A47907  30.664   1.256   6.453
 8702POPC   D2A47908  30.678   1.185   6.753
 8702POPC   C3A47909  30.706   1.208   7.053
 8702POPC   C4A47910  30.718   1.229   7.353
 8702POPC   C1B47911  30.954   1.278   6.453
 8702POPC   C2B47912  30.906   1.269   6.753
 8702POPC   C3B47913  30.967   1.299   7.053
 8702POPC   C4B47914  30.928   1.226   7.353
 8703POPC   NC347915  29.127  10.491   5.553
 8703POPC   PO447916  29.173  10.520   5.853
 8703POPC   GL147917  29.167  10.534   6.153
 8703POPC   GL247918  29.064  10.540   6.153
 8703POPC   C1A47919  29.130  10.534   6.453
 8703POPC   D2A47920  29.140  10.547   6.753
 8703POPC   C3A47921  29.124  10.518   7.053
 8703POPC   C4A47922  29.098  10.551   7.353
 8703POPC   C1B47923  28.943  10.658   6.453
 8703POPC   C2B47924  28.939  10.623   6.753
 8703POPC   C3B47925  28.928  10.668   7.053
 8703POPC   C4B47926  28.969  10.647   7.353
 8704POPC   NC347927  24.487  35.398   5.553
 8704POPC   PO447928  24.524  35.401   5.853
 8704POPC   GL147929  24.475  35.388   6.153
 8704POPC   GL247930  24.588  35.381   6.153
 8704POPC   C1A47931  24.505  35.399   6.453
 8704POPC   D2A47932  24.465  35.361   6.753
 8704POPC   C3A47933  24.502  35.306   7.053
 8704POPC   C4A47934  24.517  35.367   7.353
 8704POPC   C1B47935  24.750  35.480   6.453
 8704POPC   C2B47936  24.731  35.468   6.753
 8704POPC   C3B47937  24.760  35.408   7.053
 8704POPC   C4B47938  24.728  35.401   7.353
 8705POPC   NC347939  15.991  26.062   5.553
 8705POPC   PO447940  15.908  26.040   5.853
 8705POPC   GL147941  15.978  26.089   6.153
 8705POPC   GL247942  15.972  26.181   6.153
 8705POPC   C1A47943  15.913  26.070   6.453
 8705POPC   D2A47944  15.970  26.091   6.753
 8705POPC   C3A47945  15.958  26.017   7.053
 8705POPC   C4A47946  15.914  26.035   7.353
 8705POPC   C1B47947  15.941  26.248   6.453
 8705POPC   C2B47948  15.951  26.259   6.753
 8705POPC   C3B47949  15.925  26.332   7.053
 8705POPC   C4B47950  15.941  26.277   7.353
 8706POPC   NC347951  18.290  19.014   5.553
 8706POPC   PO447952  18.264  19.088   5.853
 8706POPC   GL147953  18.243  19.047   6.153
 8706POPC   GL247954  18.310  19.178   6.153
 8706POPC   C1A47955  18.299  19.086   6.453
 8706POPC   D2A47956  18.269  19.090   6.753
 8706POPC   C3A47957  18.246  19.015   7.053
 8706POPC   C4A47958  18.259  19.059   7.353
 8706POPC   C1B47959  18.345  19.279   6.453
 8706POPC   C2B47960  18.287  19.323   6.753
 8706POPC   C3B47961  18.323  19.296   7.053
 8706POPC   C4B47962  18.338  19.345   7.353
 8707POPC   NC347963  44.697  32.217   5.553
 8707POPC   PO447964  44.678  32.243   5.853
 8707POPC   GL147965  44.673  32.203   6.153
 8707POPC   GL247966  44.800  32.231   6.153
 8707POPC   C1A47967  44.626  32.254   6.453
 8707POPC   D2A47968  44.646  32.234   6.753
 8707POPC   C3A47969  44.629  32.229   7.053
 8707POPC   C4A47970  44.640  32.286   7.353
 8707POPC   C1B47971  44.925  32.144   6.453
 8707POPC   C2B47972  44.928  32.152   6.753
 8707POPC   C3B47973  44.894  32.206   7.053
 8707POPC   C4B47974  44.870  32.190   7.353
 8708POPC   NC347975  14.437  35.372   5.553
 8708POPC   PO447976  14.452  35.314   5.853
 8708POPC   GL147977  14.355  35.330   6.153
 8708POPC   GL247978  14.362  35.451   6.153
 8708POPC   C1A47979  14.441  35.332   6.453
 8708POPC   D2A47980  14.384  35.323   6.753
 8708POPC   C3A47981  14.395  35.333   7.053
 8708POPC   C4A47982  14.357  35.337   7.353
 8708POPC   C1B47983  14.410  35.610   6.453
 8708POPC   C2B47984  14.351  35.568   6.753
 8708POPC   C3B47985  14.435  35.619   7.053
 8708POPC   C4B47986  14.391  35.593   7.353
 8709POPC   NC347987  39.253  19.792   5.553
 8709POPC   PO447988  39.225  19.795   5.853
 8709POPC   GL147989  39.256  19.829   6.153
 8709POPC   GL247990  39.109  19.963   6.153
 8709POPC   C1A47991  39.200  19.795   6.453
 8709POPC   D2A47992  39.201  19.800   6.753
 8709POPC   C3A47993  39.206  19.832   7.053
 8709POPC   C4A47994  39.269  19.852   7.353
 8709POPC   C1B47995  39.055  20.054   6.453
 8709POPC   C2B47996  39.062  20.072   6.753
 8709POPC   C3B47997  39.109  20.083   7.053
 8709POPC   C4B47998  39.080  20.027   7.353
 8710POPC   NC347999  33.016  33.839   5.553
 8710POPC   PO448000  32.986  33.750   5.853
 8710POPC   GL148001  33.067  33.822   6.153
 8710POPC   GL248002  33.057  33.703   6.153
 8710POPC   C1A48003  33.043  33.782   6.453
 8710POPC   D2A48004  33.053  33.770   6.753
 8710POPC   C3A48005  32.999  33.799   7.053
 8710POPC   C4A48006  32.983  33.808   7.353
 8710POPC   C1B48007  33.046  33.509   6.453
 8710POPC   C2B48008  32.977  33.553   6.753
 8710POPC   C3B48009  33.046  33.519   7.053
 8710POPC   C4B48010  32.992  33.587   7.353
 8711POPC   NC348011  22.191   9.733   5.553
 8711POPC   PO448012  22.196   9.704   5.853
 8711POPC   GL148013  22.138   9.711   6.153
 8711POPC   GL248014  22.229   9.812   6.153
 8711POPC   C1A48015  22.136   9.766   6.453
 8711POPC   D2A48016  22.200   9.797   6.753
 8711POPC   C3A48017  22.166   9.715   7.053
 8711POPC   C4A48018  22.137   9.731   7.353
 8711POPC   C1B48019  22.325   9.972   6.453
 8711POPC   C2B48020  22.390   9.935   6.753
 8711POPC   C3B48021  22.361   9.967   7.053
 8711POPC   C4B48022  22.329   9.949   7.353
 8712POPC   NC348023  31.488  43.135   5.553
 8712POPC   PO448024  31.454  43.066   5.853
 8712POPC   GL148025  31.480  43.071   6.153
 8712POPC   GL248026  31.498  43.216   6.153
 8712POPC   C1A48027  31.470  43.069   6.453
 8712POPC   D2A48028  31.452  43.151   6.753
 8712POPC   C3A48029  31.475  43.107   7.053
 8712POPC   C4A48030  31.464  43.105   7.353
 8712POPC   C1B48031  31.579  43.356   6.453
 8712POPC   C2B48032  31.637  43.311   6.753
 8712POPC   C3B48033  31.627  43.355   7.053
 8712POPC   C4B48034  31.572  43.284   7.353
 8713POPC   NC348035  17.513  36.106   5.553
 8713POPC   PO448036  17.488  36.112   5.853
 8713POPC   GL148037  17.555  36.102   6.153
 8713POPC   GL248038  17.586  36.087   6.153
 8713POPC   C1A48039  17.503  36.143   6.453
 8713POPC   D2A48040  17.545  36.157   6.753
 8713POPC   C3A48041  17.512  36.088   7.053
 8713POPC   C4A48042  17.533  36.165   7.353
 8713POPC   C1B48043  17.678  36.025   6.453
 8713POPC   C2B48044  17.759  35.986   6.753
 8713POPC   C3B48045  17.727  36.035   7.053
 8713POPC   C4B48046  17.753  36.025   7.353
 8714POPC   NC348047  23.702  39.212   5.553
 8714POPC   PO448048  23.693  39.239   5.853
 8714POPC   GL148049  23.752  39.240   6.153
 8714POPC   GL248050  23.796  39.131   6.153
 8714POPC   C1A48051  23.665  39.221   6.453
 8714POPC   D2A48052  23.760  39.217   6.753
 8714POPC   C3A48053  23.703  39.197   7.053
 8714POPC   C4A48054  23.671  39.253   7.353
 8714POPC   C1B48055  23.809  39.033   6.453
 8714POPC   C2B48056  23.878  39.048   6.753
 8714POPC   C3B48057  23.850  39.025   7.053
 8714POPC   C4B48058  23.828  39.030   7.353
 8715POPC   NC348059  43.095  40.011   5.553
 8715POPC   PO448060  43.065  40.019   5.853
 8715POPC   GL148061  43.092  40.002   6.153
 8715POPC   GL248062  43.028  39.934   6.153
 8715POPC   C1A48063  43.105  40.043   6.453
 8715POPC   D2A48064  43.087  39.973   6.753
 8715POPC   C3A48065  43.080  40.023   7.053
 8715POPC   C4A48066  43.116  40.044   7.353
 8715POPC   C1B48067  42.979  39.791   6.453
 8715POPC   C2B48068  42.978  39.787   6.753
 8715POPC   C3B48069  42.991  39.820   7.053
 8715POPC   C4B48070  43.048  39.732   7.353
 8716POPC   NC348071  22.920  34.534   5.553
 8716POPC   PO448072  22.987  34.549   5.853
 8716POPC   GL148073  22.914  34.579   6.153
 8716POPC   GL248074  23.069  34.505   6.153
 8716POPC   C1A48075  22.949  34.578   6.453
 8716POPC   D2A48076  22.930  34.600   6.753
 8716POPC   C3A48077  22.959  34.540   7.053
 8716POPC   C4A48078  22.943  34.625   7.353
 8716POPC   C1B48079  23.163  34.450   6.453
 8716POPC   C2B48080  23.157  34.459   6.753
 8716POPC   C3B48081  23.168  34.469   7.053
 8716POPC   C4B48082  23.127  34.472   7.353
 8717POPC   NC348083  36.156  26.787   5.553
 8717POPC   PO448084  36.176  26.790   5.853
 8717POPC   GL148085  36.094  26.796   6.153
 8717POPC   GL248086  36.016  26.884   6.153
 8717POPC   C1A48087  36.128  26.829   6.453
 8717POPC   D2A48088  36.172  26.822   6.753
 8717POPC   C3A48089  36.112  26.849   7.053
 8717POPC   C4A48090  36.159  26.850   7.353
 8717POPC   C1B48091  35.930  26.910   6.453
 8717POPC   C2B48092  35.835  26.891   6.753
 8717POPC   C3B48093  35.931  26.850   7.053
 8717POPC   C4B48094  35.882  26.911   7.353
 8718POPC   NC348095   0.425  19.107   5.553
 8718POPC   PO448096   0.465  19.013   5.853
 8718POPC   GL148097   0.452  19.061   6.153
 8718POPC   GL248098   0.448  19.158   6.153
 8718POPC   C1A48099   0.462  19.047   6.453
 8718POPC   D2A48100   0.443  19.103   6.753
 8718POPC   C3A48101   0.459  19.036   7.053
 8718POPC   C4A48102   0.468  19.055   7.353
 8718POPC   C1B48103   0.485  19.326   6.453
 8718POPC   C2B48104   0.491  19.356   6.753
 8718POPC   C3B48105   0.485  19.314   7.053
 8718POPC   C4B48106   0.509  19.310   7.353
 8719POPC   NC348107  29.156   5.881   5.553
 8719POPC   PO448108  29.095   5.861   5.853
 8719POPC   GL148109  29.163   5.882   6.153
 8719POPC   GL248110  28.985   5.791   6.153
 8719POPC   C1A48111  29.123   5.822   6.453
 8719POPC   D2A48112  29.142   5.897   6.753
 8719POPC   C3A48113  29.151   5.882   7.053
 8719POPC   C4A48114  29.155   5.893   7.353
 8719POPC   C1B48115  28.871   5.815   6.453
 8719POPC   C2B48116  28.915   5.858   6.753
 8719POPC   C3B48117  28.867   5.829   7.053
 8719POPC   C4B48118  28.860   5.802   7.353
 8720POPC   NC348119  15.174   4.361   5.553
 8720POPC   PO448120  15.164   4.308   5.853
 8720POPC   GL148121  15.196   4.335   6.153
 8720POPC   GL248122  15.310   4.367   6.153
 8720POPC   C1A48123  15.219   4.346   6.453
 8720POPC   D2A48124  15.220   4.312   6.753
 8720POPC   C3A48125  15.173   4.342   7.053
 8720POPC   C4A48126  15.151   4.314   7.353
 8720POPC   C1B48127  15.410   4.366   6.453
 8720POPC   C2B48128  15.473   4.343   6.753
 8720POPC   C3B48129  15.442   4.307   7.053
 8720POPC   C4B48130  15.464   4.334   7.353
 8721POPC   NC348131   5.130  36.111   5.553
 8721POPC   PO448132   5.056  36.093   5.853
 8721POPC   GL148133   5.089  36.119   6.153
 8721POPC   GL248134   5.092  36.018   6.153
 8721POPC   C1A48135   5.129  36.109   6.453
 8721POPC   D2A48136   5.079  36.162   6.753
 8721POPC   C3A48137   5.055  36.157   7.053
 8721POPC   C4A48138   5.055  36.168   7.353
 8721POPC   C1B48139   5.228  35.909   6.453
 8721POPC   C2B48140   5.194  35.936   6.753
 8721POPC   C3B48141   5.176  35.848   7.053
 8721POPC   C4B48142   5.228  35.945   7.353
 8722POPC   NC348143  40.758   8.180   5.553
 8722POPC   PO448144  40.734   8.201   5.853
 8722POPC   GL148145  40.806   8.178   6.153
 8722POPC   GL248146  40.645   8.122   6.153
 8722POPC   C1A48147  40.758   8.198   6.453
 8722POPC   D2A48148  40.760   8.221   6.753
 8722POPC   C3A48149  40.784   8.182   7.053
 8722POPC   C4A48150  40.822   8.236   7.353
 8722POPC   C1B48151  40.618   8.031   6.453
 8722POPC   C2B48152  40.562   8.052   6.753
 8722POPC   C3B48153  40.580   8.051   7.053
 8722POPC   C4B48154  40.594   8.046   7.353
 8723POPC   NC348155  42.372  17.457   5.553
 8723POPC   PO448156  42.349  17.545   5.853
 8723POPC   GL148157  42.349  17.499   6.153
 8723POPC   GL248158  42.324  17.643   6.153
 8723POPC   C1A48159  42.366  17.504   6.453
 8723POPC   D2A48160  42.340  17.513   6.753
 8723POPC   C3A48161  42.285  17.479   7.053
 8723POPC   C4A48162  42.334  17.481   7.353
 8723POPC   C1B48163  42.399  17.759   6.453
 8723POPC   C2B48164  42.413  17.788   6.753
 8723POPC   C3B48165  42.425  17.755   7.053
 8723POPC   C4B48166  42.347  17.788   7.353
 8724POPC   NC348167  19.039  33.023   5.553
 8724POPC   PO448168  19.104  33.021   5.853
 8724POPC   GL148169  19.025  32.989   6.153
 8724POPC   GL248170  19.013  33.079   6.153
 8724POPC   C1A48171  19.064  33.063   6.453
 8724POPC   D2A48172  19.083  33.023   6.753
 8724POPC   C3A48173  19.016  33.008   7.053
 8724POPC   C4A48174  19.080  33.064   7.353
 8724POPC   C1B48175  18.885  33.221   6.453
 8724POPC   C2B48176  18.946  33.256   6.753
 8724POPC   C3B48177  18.941  33.218   7.053
 8724POPC   C4B48178  18.911  33.241   7.353
 8725POPC   NC348179  15.173  16.706   5.553
 8725POPC   PO448180  15.148  16.736   5.853
 8725POPC   GL148181  15.137  16.727   6.153
 8725POPC   GL248182  15.171  16.608   6.153
 8725POPC   C1A48183  15.156  16.776   6.453
 8725POPC   D2A48184  15.197  16.742   6.753
 8725POPC   C3A48185  15.206  16.717   7.053
 8725POPC   C4A48186  15.217  16.748   7.353
 8725POPC   C1B48187  15.109  16.457   6.453
 8725POPC   C2B48188  15.129  16.437   6.753
 8725POPC   C3B48189  15.181  16.505   7.053
 8725POPC   C4B48190  15.190  16.477   7.353
 8726POPC   NC348191  26.784  32.236   5.553
 8726POPC   PO448192  26.832  32.260   5.853
 8726POPC   GL148193  26.775  32.211   6.153
 8726POPC   GL248194  26.713  32.142   6.153
 8726POPC   C1A48195  26.797  32.231   6.453
 8726POPC   D2A48196  26.788  32.257   6.753
 8726POPC   C3A48197  26.798  32.251   7.053
 8726POPC   C4A48198  26.830  32.276   7.353
 8726POPC   C1B48199  26.670  32.042   6.453
 8726POPC   C2B48200  26.684  32.080   6.753
 8726POPC   C3B48201  26.684  32.017   7.053
 8726POPC   C4B48202  26.639  32.034   7.353
 8727POPC   NC348203  33.049  22.980   5.553
 8727POPC   PO448204  33.025  22.917   5.853
 8727POPC   GL148205  33.038  22.924   6.153
 8727POPC   GL248206  33.021  23.082   6.153
 8727POPC   C1A48207  33.021  22.944   6.453
 8727POPC   D2A48208  32.991  22.974   6.753
 8727POPC   C3A48209  33.018  22.918   7.053
 8727POPC   C4A48210  33.000  22.970   7.353
 8727POPC   C1B48211  33.000  23.203   6.453
 8727POPC   C2B48212  33.051  23.212   6.753
 8727POPC   C3B48213  33.058  23.165   7.053
 8727POPC   C4B48214  33.053  23.158   7.353
 8728POPC   NC348215  37.651  25.279   5.553
 8728POPC   PO448216  37.630  25.228   5.853
 8728POPC   GL148217  37.636  25.296   6.153
 8728POPC   GL248218  37.806  25.181   6.153
 8728POPC   C1A48219  37.704  25.249   6.453
 8728POPC   D2A48220  37.653  25.242   6.753
 8728POPC   C3A48221  37.630  25.244   7.053
 8728POPC   C4A48222  37.717  25.217   7.353
 8728POPC   C1B48223  37.883  25.192   6.453
 8728POPC   C2B48224  37.896  25.221   6.753
 8728POPC   C3B48225  37.924  25.214   7.053
 8728POPC   C4B48226  37.889  25.193   7.353
 8729POPC   NC348227  24.514   1.188   5.553
 8729POPC   PO448228  24.512   1.256   5.853
 8729POPC   GL148229  24.501   1.242   6.153
 8729POPC   GL248230  24.541   1.298   6.153
 8729POPC   C1A48231  24.533   1.217   6.453
 8729POPC   D2A48232  24.449   1.230   6.753
 8729POPC   C3A48233  24.490   1.248   7.053
 8729POPC   C4A48234  24.527   1.184   7.353
 8729POPC   C1B48235  24.551   1.420   6.453
 8729POPC   C2B48236  24.541   1.504   6.753
 8729POPC   C3B48237  24.583   1.442   7.053
 8729POPC   C4B48238  24.560   1.485   7.353
 8730POPC   NC348239  14.395  16.711   5.553
 8730POPC   PO448240  14.363  16.750   5.853
 8730POPC   GL148241  14.368  16.701   6.153
 8730POPC   GL248242  14.329  16.798   6.153
 8730POPC   C1A48243  14.411  16.718   6.453
 8730POPC   D2A48244  14.386  16.730   6.753
 8730POPC   C3A48245  14.369  16.710   7.053
 8730POPC   C4A48246  14.361  16.727   7.353
 8730POPC   C1B48247  14.117  16.818   6.453
 8730POPC   C2B48248  14.129  16.806   6.753
 8730POPC   C3B48249  14.151  16.831   7.053
 8730POPC   C4B48250  14.144  16.772   7.353
 8731POPC   NC348251  36.078  28.333   5.553
 8731POPC   PO448252  36.119  28.345   5.853
 8731POPC   GL148253  36.159  28.412   6.153
 8731POPC   GL248254  36.186  28.336   6.153
 8731POPC   C1A48255  36.103  28.417   6.453
 8731POPC   D2A48256  36.100  28.347   6.753
 8731POPC   C3A48257  36.078  28.412   7.053
 8731POPC   C4A48258  36.157  28.339   7.353
 8731POPC   C1B48259  36.354  28.205   6.453
 8731POPC   C2B48260  36.390  28.285   6.753
 8731POPC   C3B48261  36.296  28.273   7.053
 8731POPC   C4B48262  36.338  28.260   7.353
 8732POPC   NC348263   4.359  31.477   5.553
 8732POPC   PO448264   4.328  31.427   5.853
 8732POPC   GL148265   4.326  31.496   6.153
 8732POPC   GL248266   4.399  31.574   6.153
 8732POPC   C1A48267   4.276  31.468   6.453
 8732POPC   D2A48268   4.329  31.513   6.753
 8732POPC   C3A48269   4.286  31.478   7.053
 8732POPC   C4A48270   4.267  31.479   7.353
 8732POPC   C1B48271   4.511  31.640   6.453
 8732POPC   C2B48272   4.519  31.632   6.753
 8732POPC   C3B48273   4.518  31.605   7.053
 8732POPC   C4B48274   4.487  31.577   7.353
 8733POPC   NC348275  28.370   3.508   5.553
 8733POPC   PO448276  28.373   3.589   5.853
 8733POPC   GL148277  28.417   3.533   6.153
 8733POPC   GL248278  28.226   3.497   6.153
 8733POPC   C1A48279  28.367   3.575   6.453
 8733POPC   D2A48280  28.398   3.551   6.753
 8733POPC   C3A48281  28.372   3.542   7.053
 8733POPC   C4A48282  28.416   3.542   7.353
 8733POPC   C1B48283  28.147   3.554   6.453
 8733POPC   C2B48284  28.084   3.499   6.753
 8733POPC   C3B48285  28.142   3.521   7.053
 8733POPC   C4B48286  28.126   3.566   7.353
 8734POPC   NC348287  12.112  26.828   5.553
 8734POPC   PO448288  12.042  26.824   5.853
 8734POPC   GL148289  12.108  26.851   6.153
 8734POPC   GL248290  12.215  26.768   6.153
 8734POPC   C1A48291  12.041  26.826   6.453
 8734POPC   D2A48292  12.071  26.782   6.753
 8734POPC   C3A48293  12.057  26.780   7.053
 8734POPC   C4A48294  12.081  26.769   7.353
 8734POPC   C1B48295  12.298  26.803   6.453
 8734POPC   C2B48296  12.307  26.777   6.753
 8734POPC   C3B48297  12.326  26.803   7.053
 8734POPC   C4B48298  12.352  26.746   7.353
 8735POPC   NC348299  27.555  44.641   5.553
 8735POPC   PO448300  27.582  44.659   5.853
 8735POPC   GL148301  27.624  44.690   6.153
 8735POPC   GL248302  27.663  44.699   6.153
 8735POPC   C1A48303  27.553  44.625   6.453
 8735POPC   D2A48304  27.627  44.624   6.753
 8735POPC   C3A48305  27.632  44.649   7.053
 8735POPC   C4A48306  27.604  44.655   7.353
 8735POPC   C1B48307  27.779  44.820   6.453
 8735POPC   C2B48308  27.774  44.753   6.753
 8735POPC   C3B48309  27.809  44.754   7.053
 8735POPC   C4B48310  27.787  44.795   7.353
 8736POPC   NC348311  33.066  38.422   5.553
 8736POPC   PO448312  33.042  38.442   5.853
 8736POPC   GL148313  33.035  38.411   6.153
 8736POPC   GL248314  32.981  38.598   6.153
 8736POPC   C1A48315  32.981  38.493   6.453
 8736POPC   D2A48316  33.066  38.462   6.753
 8736POPC   C3A48317  32.998  38.487   7.053
 8736POPC   C4A48318  33.066  38.412   7.353
 8736POPC   C1B48319  32.840  38.604   6.453
 8736POPC   C2B48320  32.862  38.684   6.753
 8736POPC   C3B48321  32.826  38.653   7.053
 8736POPC   C4B48322  32.902  38.690   7.353
 8737POPC   NC348323  29.931  28.330   5.553
 8737POPC   PO448324  29.889  28.375   5.853
 8737POPC   GL148325  29.933  28.388   6.153
 8737POPC   GL248326  29.814  28.325   6.153
 8737POPC   C1A48327  29.956  28.385   6.453
 8737POPC   D2A48328  29.940  28.343   6.753
 8737POPC   C3A48329  29.918  28.377   7.053
 8737POPC   C4A48330  29.944  28.407   7.353
 8737POPC   C1B48331  29.642  28.386   6.453
 8737POPC   C2B48332  29.640  28.383   6.753
 8737POPC   C3B48333  29.647  28.306   7.053
 8737POPC   C4B48334  29.692  28.320   7.353
 8738POPC   NC348335  34.581  32.266   5.553
 8738POPC   PO448336  34.615  32.229   5.853
 8738POPC   GL148337  34.544  32.230   6.153
 8738POPC   GL248338  34.504  32.174   6.153
 8738POPC   C1A48339  34.551  32.207   6.453
 8738POPC   D2A48340  34.587  32.229   6.753
 8738POPC   C3A48341  34.599  32.235   7.053
 8738POPC   C4A48342  34.558  32.213   7.353
 8738POPC   C1B48343  34.415  32.027   6.453
 8738POPC   C2B48344  34.435  32.014   6.753
 8738POPC   C3B48345  34.481  32.033   7.053
 8738POPC   C4B48346  34.424  32.067   7.353
 8739POPC   NC348347  22.155  25.310   5.553
 8739POPC   PO448348  22.177  25.216   5.853
 8739POPC   GL148349  22.121  25.287   6.153
 8739POPC   GL248350  22.250  25.373   6.153
 8739POPC   C1A48351  22.181  25.290   6.453
 8739POPC   D2A48352  22.161  25.235   6.753
 8739POPC   C3A48353  22.143  25.243   7.053
 8739POPC   C4A48354  22.115  25.297   7.353
 8739POPC   C1B48355  22.274  25.507   6.453
 8739POPC   C2B48356  22.283  25.487   6.753
 8739POPC   C3B48357  22.289  25.462   7.053
 8739POPC   C4B48358  22.283  25.497   7.353
 8740POPC   NC348359   0.486  18.295   5.553
 8740POPC   PO448360   0.427  18.241   5.853
 8740POPC   GL148361   0.418  18.245   6.153
 8740POPC   GL248362   0.585  18.295   6.153
 8740POPC   C1A48363   0.417  18.301   6.453
 8740POPC   D2A48364   0.466  18.270   6.753
 8740POPC   C3A48365   0.428  18.332   7.053
 8740POPC   C4A48366   0.388  18.241   7.353
 8740POPC   C1B48367   0.703  18.394   6.453
 8740POPC   C2B48368   0.676  18.432   6.753
 8740POPC   C3B48369   0.632  18.385   7.053
 8740POPC   C4B48370   0.643  18.372   7.353
 8741POPC   NC348371  29.156   8.207   5.553
 8741POPC   PO448372  29.174   8.210   5.853
 8741POPC   GL148373  29.185   8.179   6.153
 8741POPC   GL248374  29.100   8.305   6.153
 8741POPC   C1A48375  29.139   8.163   6.453
 8741POPC   D2A48376  29.163   8.227   6.753
 8741POPC   C3A48377  29.115   8.176   7.053
 8741POPC   C4A48378  29.163   8.219   7.353
 8741POPC   C1B48379  29.104   8.469   6.453
 8741POPC   C2B48380  29.125   8.463   6.753
 8741POPC   C3B48381  29.067   8.396   7.053
 8741POPC   C4B48382  29.114   8.463   7.353
 8742POPC   NC348383   7.421  17.545   5.553
 8742POPC   PO448384   7.403  17.521   5.853
 8742POPC   GL148385   7.381  17.469   6.153
 8742POPC   GL248386   7.402  17.358   6.153
 8742POPC   C1A48387   7.449  17.490   6.453
 8742POPC   D2A48388   7.452  17.511   6.753
 8742POPC   C3A48389   7.427  17.470   7.053
 8742POPC   C4A48390   7.426  17.526   7.353
 8742POPC   C1B48391   7.406  17.228   6.453
 8742POPC   C2B48392   7.375  17.218   6.753
 8742POPC   C3B48393   7.407  17.272   7.053
 8742POPC   C4B48394   7.391  17.220   7.353
 8743POPC   NC348395  15.973   6.665   5.553
 8743POPC   PO448396  15.993   6.609   5.853
 8743POPC   GL148397  15.955   6.658   6.153
 8743POPC   GL248398  15.989   6.785   6.153
 8743POPC   C1A48399  15.930   6.671   6.453
 8743POPC   D2A48400  15.987   6.619   6.753
 8743POPC   C3A48401  15.907   6.654   7.053
 8743POPC   C4A48402  15.930   6.610   7.353
 8743POPC   C1B48403  16.078   6.913   6.453
 8743POPC   C2B48404  16.084   6.902   6.753
 8743POPC   C3B48405  16.027   6.888   7.053
 8743POPC   C4B48406  16.084   6.924   7.353
 8744POPC   NC348407  18.317  29.898   5.553
 8744POPC   PO448408  18.248  29.950   5.853
 8744POPC   GL148409  18.282  29.877   6.153
 8744POPC   GL248410  18.393  29.989   6.153
 8744POPC   C1A48411  18.313  29.935   6.453
 8744POPC   D2A48412  18.322  29.897   6.753
 8744POPC   C3A48413  18.240  29.952   7.053
 8744POPC   C4A48414  18.235  29.944   7.353
 8744POPC   C1B48415  18.485  30.028   6.453
 8744POPC   C2B48416  18.499  29.976   6.753
 8744POPC   C3B48417  18.547  30.048   7.053
 8744POPC   C4B48418  18.484  30.012   7.353
 8745POPC   NC348419  12.061  22.191   5.553
 8745POPC   PO448420  12.077  22.139   5.853
 8745POPC   GL148421  12.047  22.129   6.153
 8745POPC   GL248422  12.148  22.228   6.153
 8745POPC   C1A48423  12.082  22.136   6.453
 8745POPC   D2A48424  12.046  22.113   6.753
 8745POPC   C3A48425  12.083  22.190   7.053
 8745POPC   C4A48426  12.056  22.194   7.353
 8745POPC   C1B48427  12.340  22.264   6.453
 8745POPC   C2B48428  12.310  22.334   6.753
 8745POPC   C3B48429  12.323  22.331   7.053
 8745POPC   C4B48430  12.247  22.278   7.353
 8746POPC   NC348431   4.321  10.534   5.553
 8746POPC   PO448432   4.317  10.477   5.853
 8746POPC   GL148433   4.301  10.536   6.153
 8746POPC   GL248434   4.396  10.572   6.153
 8746POPC   C1A48435   4.283  10.537   6.453
 8746POPC   D2A48436   4.312  10.488   6.753
 8746POPC   C3A48437   4.328  10.510   7.053
 8746POPC   C4A48438   4.277  10.568   7.353
 8746POPC   C1B48439   4.563  10.592   6.453
 8746POPC   C2B48440   4.526  10.540   6.753
 8746POPC   C3B48441   4.529  10.535   7.053
 8746POPC   C4B48442   4.526  10.579   7.353
 8747POPC   NC348443  30.703  39.228   5.553
 8747POPC   PO448444  30.722  39.206   5.853
 8747POPC   GL148445  30.710  39.193   6.153
 8747POPC   GL248446  30.586  39.216   6.153
 8747POPC   C1A48447  30.710  39.207   6.453
 8747POPC   D2A48448  30.659  39.269   6.753
 8747POPC   C3A48449  30.743  39.241   7.053
 8747POPC   C4A48450  30.701  39.245   7.353
 8747POPC   C1B48451  30.454  39.167   6.453
 8747POPC   C2B48452  30.496  39.246   6.753
 8747POPC   C3B48453  30.402  39.177   7.053
 8747POPC   C4B48454  30.490  39.204   7.353
 8748POPC   NC348455  13.607  38.414   5.553
 8748POPC   PO448456  13.673  38.472   5.853
 8748POPC   GL148457  13.648  38.464   6.153
 8748POPC   GL248458  13.699  38.427   6.153
 8748POPC   C1A48459  13.663  38.418   6.453
 8748POPC   D2A48460  13.648  38.417   6.753
 8748POPC   C3A48461  13.594  38.407   7.053
 8748POPC   C4A48462  13.676  38.422   7.353
 8748POPC   C1B48463  13.863  38.303   6.453
 8748POPC   C2B48464  13.786  38.317   6.753
 8748POPC   C3B48465  13.825  38.284   7.053
 8748POPC   C4B48466  13.857  38.268   7.353
 8749POPC   NC348467   5.898  10.475   5.553
 8749POPC   PO448468   5.855  10.502   5.853
 8749POPC   GL148469   5.820  10.540   6.153
 8749POPC   GL248470   5.701  10.521   6.153
 8749POPC   C1A48471   5.839  10.493   6.453
 8749POPC   D2A48472   5.836  10.528   6.753
 8749POPC   C3A48473   5.837  10.569   7.053
 8749POPC   C4A48474   5.848  10.543   7.353
 8749POPC   C1B48475   5.660  10.506   6.453
 8749POPC   C2B48476   5.594  10.482   6.753
 8749POPC   C3B48477   5.623  10.529   7.053
 8749POPC   C4B48478   5.594  10.540   7.353
 8750POPC   NC348479   4.355  16.709   5.553
 8750POPC   PO448480   4.270  16.768   5.853
 8750POPC   GL148481   4.314  16.733   6.153
 8750POPC   GL248482   4.423  16.720   6.153
 8750POPC   C1A48483   4.274  16.700   6.453
 8750POPC   D2A48484   4.334  16.694   6.753
 8750POPC   C3A48485   4.300  16.712   7.053
 8750POPC   C4A48486   4.286  16.730   7.353
 8750POPC   C1B48487   4.587  16.729   6.453
 8750POPC   C2B48488   4.574  16.724   6.753
 8750POPC   C3B48489   4.592  16.747   7.053
 8750POPC   C4B48490   4.588  16.755   7.353
 8751POPC   NC348491  11.285  44.649   5.553
 8751POPC   PO448492  11.309  44.626   5.853
 8751POPC   GL148493  11.266  44.691   6.153
 8751POPC   GL248494  11.443  44.720   6.153
 8751POPC   C1A48495  11.289  44.624   6.453
 8751POPC   D2A48496  11.286  44.649   6.753
 8751POPC   C3A48497  11.348  44.669   7.053
 8751POPC   C4A48498  11.274  44.705   7.353
 8751POPC   C1B48499  11.565  44.656   6.453
 8751POPC   C2B48500  11.515  44.658   6.753
 8751POPC   C3B48501  11.590  44.658   7.053
 8751POPC   C4B48502  11.508  44.716   7.353
 8752POPC   NC348503  23.715  32.996   5.553
 8752POPC   PO448504  23.675  32.978   5.853
 8752POPC   GL148505  23.696  33.051   6.153
 8752POPC   GL248506  23.635  33.118   6.153
 8752POPC   C1A48507  23.682  32.990   6.453
 8752POPC   D2A48508  23.762  32.987   6.753
 8752POPC   C3A48509  23.669  33.025   7.053
 8752POPC   C4A48510  23.763  32.976   7.353
 8752POPC   C1B48511  23.654  33.243   6.453
 8752POPC   C2B48512  23.607  33.250   6.753
 8752POPC   C3B48513  23.678  33.246   7.053
 8752POPC   C4B48514  23.597  33.224   7.353
 8753POPC   NC348515  14.444  43.134   5.553
 8753POPC   PO448516  14.379  43.121   5.853
 8753POPC   GL148517  14.375  43.154   6.153
 8753POPC   GL248518  14.514  43.035   6.153
 8753POPC   C1A48519  14.449  43.123   6.453
 8753POPC   D2A48520  14.414  43.077   6.753
 8753POPC   C3A48521  14.396  43.105   7.053
 8753POPC   C4A48522  14.429  43.073   7.353
 8753POPC   C1B48523  14.581  42.897   6.453
 8753POPC   C2B48524  14.595  42.944   6.753
 8753POPC   C3B48525  14.571  42.898   7.053
 8753POPC   C4B48526  14.622  42.947   7.353
 8754POPC   NC348527  38.468  33.762   5.553
 8754POPC   PO448528  38.460  33.812   5.853
 8754POPC   GL148529  38.443  33.783   6.153
 8754POPC   GL248530  38.386  33.726   6.153
 8754POPC   C1A48531  38.449  33.803   6.453
 8754POPC   D2A48532  38.472  33.767   6.753
 8754POPC   C3A48533  38.424  33.769   7.053
 8754POPC   C4A48534  38.412  33.826   7.353
 8754POPC   C1B48535  38.392  33.542   6.453
 8754POPC   C2B48536  38.334  33.547   6.753
 8754POPC   C3B48537  38.353  33.569   7.053
 8754POPC   C4B48538  38.402  33.579   7.353
 8755POPC   NC348539  27.632   8.236   5.553
 8755POPC   PO448540  27.550   8.188   5.853
 8755POPC   GL148541  27.615   8.191   6.153
 8755POPC   GL248542  27.487   8.241   6.153
 8755POPC   C1A48543  27.640   8.202   6.453
 8755POPC   D2A48544  27.559   8.148   6.753
 8755POPC   C3A48545  27.610   8.179   7.053
 8755POPC   C4A48546  27.575   8.161   7.353
 8755POPC   C1B48547  27.375   8.159   6.453
 8755POPC   C2B48548  27.356   8.197   6.753
 8755POPC   C3B48549  27.314   8.247   7.053
 8755POPC   C4B48550  27.350   8.197   7.353
 8756POPC   NC348551   8.157  18.266   5.553
 8756POPC   PO448552   8.170  18.325   5.853
 8756POPC   GL148553   8.158  18.284   6.153
 8756POPC   GL248554   8.161  18.192   6.153
 8756POPC   C1A48555   8.234  18.263   6.453
 8756POPC   D2A48556   8.161  18.287   6.753
 8756POPC   C3A48557   8.229  18.301   7.053
 8756POPC   C4A48558   8.157  18.306   7.353
 8756POPC   C1B48559   8.195  17.988   6.453
 8756POPC   C2B48560   8.105  17.999   6.753
 8756POPC   C3B48561   8.163  18.073   7.053
 8756POPC   C4B48562   8.177  18.036   7.353
 8757POPC   NC348563  18.317   2.039   5.553
 8757POPC   PO448564  18.247   2.003   5.853
 8757POPC   GL148565  18.263   2.008   6.153
 8757POPC   GL248566  18.174   2.040   6.153
 8757POPC   C1A48567  18.293   2.017   6.453
 8757POPC   D2A48568  18.246   2.002   6.753
 8757POPC   C3A48569  18.300   1.960   7.053
 8757POPC   C4A48570  18.271   1.962   7.353
 8757POPC   C1B48571  18.093   2.173   6.453
 8757POPC   C2B48572  18.104   2.165   6.753
 8757POPC   C3B48573  18.128   2.091   7.053
 8757POPC   C4B48574  18.073   2.153   7.353
 8758POPC   NC348575  24.496   0.403   5.553
 8758POPC   PO448576  24.459   0.432   5.853
 8758POPC   GL148577  24.482   0.473   6.153
 8758POPC   GL248578  24.605   0.404   6.153
 8758POPC   C1A48579  24.456   0.420   6.453
 8758POPC   D2A48580  24.450   0.442   6.753
 8758POPC   C3A48581  24.441   0.480   7.053
 8758POPC   C4A48582  24.452   0.427   7.353
 8758POPC   C1B48583  24.737   0.277   6.453
 8758POPC   C2B48584  24.657   0.312   6.753
 8758POPC   C3B48585  24.724   0.309   7.053
 8758POPC   C4B48586  24.674   0.325   7.353
 8759POPC   NC348587   1.254  36.945   5.553
 8759POPC   PO448588   1.190  36.948   5.853
 8759POPC   GL148589   1.250  36.895   6.153
 8759POPC   GL248590   1.356  36.867   6.153
 8759POPC   C1A48591   1.210  36.928   6.453
 8759POPC   D2A48592   1.205  36.951   6.753
 8759POPC   C3A48593   1.169  36.860   7.053
 8759POPC   C4A48594   1.254  36.891   7.353
 8759POPC   C1B48595   1.423  36.694   6.453
 8759POPC   C2B48596   1.393  36.766   6.753
 8759POPC   C3B48597   1.409  36.731   7.053
 8759POPC   C4B48598   1.435  36.702   7.353
 8760POPC   NC348599  11.260   3.532   5.553
 8760POPC   PO448600  11.310   3.501   5.853
 8760POPC   GL148601  11.316   3.570   6.153
 8760POPC   GL248602  11.180   3.486   6.153
 8760POPC   C1A48603  11.320   3.511   6.453
 8760POPC   D2A48604  11.331   3.541   6.753
 8760POPC   C3A48605  11.321   3.550   7.053
 8760POPC   C4A48606  11.301   3.534   7.353
 8760POPC   C1B48607  11.112   3.383   6.453
 8760POPC   C2B48608  11.096   3.375   6.753
 8760POPC   C3B48609  11.120   3.460   7.053
 8760POPC   C4B48610  11.053   3.378   7.353
 8761POPC   NC348611  30.714  23.667   5.553
 8761POPC   PO448612  30.713  23.692   5.853
 8761POPC   GL148613  30.746  23.719   6.153
 8761POPC   GL248614  30.689  23.868   6.153
 8761POPC   C1A48615  30.700  23.690   6.453
 8761POPC   D2A48616  30.718  23.762   6.753
 8761POPC   C3A48617  30.661  23.712   7.053
 8761POPC   C4A48618  30.722  23.689   7.353
 8761POPC   C1B48619  30.788  23.966   6.453
 8761POPC   C2B48620  30.729  23.959   6.753
 8761POPC   C3B48621  30.744  23.933   7.053
 8761POPC   C4B48622  30.799  23.935   7.353
 8762POPC   NC348623  13.631  41.558   5.553
 8762POPC   PO448624  13.635  41.586   5.853
 8762POPC   GL148625  13.651  41.585   6.153
 8762POPC   GL248626  13.565  41.698   6.153
 8762POPC   C1A48627  13.607  41.588   6.453
 8762POPC   D2A48628  13.633  41.558   6.753
 8762POPC   C3A48629  13.591  41.519   7.053
 8762POPC   C4A48630  13.592  41.568   7.353
 8762POPC   C1B48631  13.470  41.785   6.453
 8762POPC   C2B48632  13.423  41.742   6.753
 8762POPC   C3B48633  13.413  41.718   7.053
 8762POPC   C4B48634  13.477  41.723   7.353
 8763POPC   NC348635  10.500  19.789   5.553
 8763POPC   PO448636  10.492  19.786   5.853
 8763POPC   GL148637  10.560  19.809   6.153
 8763POPC   GL248638  10.472  19.770   6.153
 8763POPC   C1A48639  10.516  19.858   6.453
 8763POPC   D2A48640  10.487  19.846   6.753
 8763POPC   C3A48641  10.523  19.844   7.053
 8763POPC   C4A48642  10.486  19.800   7.353
 8763POPC   C1B48643  10.365  19.585   6.453
 8763POPC   C2B48644  10.362  19.647   6.753
 8763POPC   C3B48645  10.366  19.633   7.053
 8763POPC   C4B48646  10.402  19.661   7.353
 8764POPC   NC348647  34.604  44.650   5.553
 8764POPC   PO448648  34.583  44.661   5.853
 8764POPC   GL148649  34.531  44.663   6.153
 8764POPC   GL248650  34.592  44.575   6.153
 8764POPC   C1A48651  34.538  44.640   6.453
 8764POPC   D2A48652  34.536  44.646   6.753
 8764POPC   C3A48653  34.533  44.686   7.053
 8764POPC   C4A48654  34.560  44.668   7.353
 8764POPC   C1B48655  34.649  44.399   6.453
 8764POPC   C2B48656  34.665  44.406   6.753
 8764POPC   C3B48657  34.703  44.447   7.053
 8764POPC   C4B48658  34.698  44.428   7.353
 8765POPC   NC348659  31.513  33.039   5.553
 8765POPC   PO448660  31.482  32.985   5.853
 8765POPC   GL148661  31.459  32.989   6.153
 8765POPC   GL248662  31.361  33.133   6.153
 8765POPC   C1A48663  31.466  33.014   6.453
 8765POPC   D2A48664  31.432  33.055   6.753
 8765POPC   C3A48665  31.461  33.059   7.053
 8765POPC   C4A48666  31.510  33.044   7.353
 8765POPC   C1B48667  31.290  33.148   6.453
 8765POPC   C2B48668  31.303  33.193   6.753
 8765POPC   C3B48669  31.229  33.192   7.053
 8765POPC   C4B48670  31.304  33.174   7.353
 8766POPC   NC348671  36.929  29.124   5.553
 8766POPC   PO448672  36.941  29.164   5.853
 8766POPC   GL148673  36.869  29.190   6.153
 8766POPC   GL248674  36.791  29.244   6.153
 8766POPC   C1A48675  36.944  29.107   6.453
 8766POPC   D2A48676  36.921  29.175   6.753
 8766POPC   C3A48677  36.943  29.187   7.053
 8766POPC   C4A48678  36.881  29.137   7.353
 8766POPC   C1B48679  36.743  29.303   6.453
 8766POPC   C2B48680  36.700  29.266   6.753
 8766POPC   C3B48681  36.749  29.338   7.053
 8766POPC   C4B48682  36.717  29.307   7.353
 8767POPC   NC348683  26.038  24.447   5.553
 8767POPC   PO448684  25.994  24.515   5.853
 8767POPC   GL148685  25.999  24.498   6.153
 8767POPC   GL248686  26.194  24.497   6.153
 8767POPC   C1A48687  26.034  24.468   6.453
 8767POPC   D2A48688  26.036  24.519   6.753
 8767POPC   C3A48689  26.090  24.463   7.053
 8767POPC   C4A48690  26.045  24.448   7.353
 8767POPC   C1B48691  26.312  24.437   6.453
 8767POPC   C2B48692  26.250  24.420   6.753
 8767POPC   C3B48693  26.294  24.446   7.053
 8767POPC   C4B48694  26.243  24.478   7.353
 8768POPC   NC348695  19.034   0.474   5.553
 8768POPC   PO448696  19.051   0.410   5.853
 8768POPC   GL148697  19.043   0.440   6.153
 8768POPC   GL248698  19.066   0.266   6.153
 8768POPC   C1A48699  19.054   0.429   6.453
 8768POPC   D2A48700  19.092   0.427   6.753
 8768POPC   C3A48701  19.100   0.394   7.053
 8768POPC   C4A48702  19.094   0.471   7.353
 8768POPC   C1B48703  19.094   0.159   6.453
 8768POPC   C2B48704  19.124   0.152   6.753
 8768POPC   C3B48705  19.082   0.160   7.053
 8768POPC   C4B48706  19.135   0.160   7.353
 8769POPC   NC348707  16.689  37.675   5.553
 8769POPC   PO448708  16.737  37.648   5.853
 8769POPC   GL148709  16.707  37.720   6.153
 8769POPC   GL248710  16.900  37.686   6.153
 8769POPC   C1A48711  16.710  37.671   6.453
 8769POPC   D2A48712  16.771  37.665   6.753
 8769POPC   C3A48713  16.772  37.632   7.053
 8769POPC   C4A48714  16.733  37.670   7.353
 8769POPC   C1B48715  16.955  37.660   6.453
 8769POPC   C2B48716  16.951  37.710   6.753
 8769POPC   C3B48717  16.967  37.628   7.053
 8769POPC   C4B48718  16.991  37.664   7.353
 8770POPC   NC348719  10.521  43.145   5.553
 8770POPC   PO448720  10.551  43.148   5.853
 8770POPC   GL148721  10.545  43.150   6.153
 8770POPC   GL248722  10.645  43.050   6.153
 8770POPC   C1A48723  10.514  43.111   6.453
 8770POPC   D2A48724  10.485  43.128   6.753
 8770POPC   C3A48725  10.532  43.137   7.053
 8770POPC   C4A48726  10.483  43.153   7.353
 8770POPC   C1B48727  10.761  42.987   6.453
 8770POPC   C2B48728  10.759  42.947   6.753
 8770POPC   C3B48729  10.739  42.986   7.053
 8770POPC   C4B48730  10.699  42.928   7.353
 8771POPC   NC348731  36.864  19.089   5.553
 8771POPC   PO448732  36.947  19.101   5.853
 8771POPC   GL148733  36.953  19.070   6.153
 8771POPC   GL248734  36.964  18.930   6.153
 8771POPC   C1A48735  36.947  19.029   6.453
 8771POPC   D2A48736  36.896  19.062   6.753
 8771POPC   C3A48737  36.856  19.057   7.053
 8771POPC   C4A48738  36.919  19.043   7.353
 8771POPC   C1B48739  36.948  18.783   6.453
 8771POPC   C2B48740  37.017  18.839   6.753
 8771POPC   C3B48741  37.002  18.784   7.053
 8771POPC   C4B48742  36.991  18.843   7.353
 8772POPC   NC348743  10.574   0.400   5.553
 8772POPC   PO448744  10.556   0.388   5.853
 8772POPC   GL148745  10.484   0.400   6.153
 8772POPC   GL248746  10.370   0.452   6.153
 8772POPC   C1A48747  10.559   0.481   6.453
 8772POPC   D2A48748  10.527   0.416   6.753
 8772POPC   C3A48749  10.545   0.474   7.053
 8772POPC   C4A48750  10.568   0.449   7.353
 8772POPC   C1B48751  10.277   0.470   6.453
 8772POPC   C2B48752  10.309   0.519   6.753
 8772POPC   C3B48753  10.310   0.556   7.053
 8772POPC   C4B48754  10.324   0.538   7.353
 8773POPC   NC348755  36.946  31.469   5.553
 8773POPC   PO448756  36.873  31.439   5.853
 8773POPC   GL148757  36.929  31.515   6.153
 8773POPC   GL248758  37.014  31.517   6.153
 8773POPC   C1A48759  36.910  31.458   6.453
 8773POPC   D2A48760  36.906  31.513   6.753
 8773POPC   C3A48761  36.854  31.488   7.053
 8773POPC   C4A48762  36.941  31.468   7.353
 8773POPC   C1B48763  37.021  31.627   6.453
 8773POPC   C2B48764  37.076  31.684   6.753
 8773POPC   C3B48765  37.023  31.627   7.053
 8773POPC   C4B48766  37.030  31.617   7.353
 8774POPC   NC348767   0.409   6.675   5.553
 8774POPC   PO448768   0.411   6.673   5.853
 8774POPC   GL148769   0.413   6.629   6.153
 8774POPC   GL248770   0.525   6.530   6.153
 8774POPC   C1A48771   0.482   6.642   6.453
 8774POPC   D2A48772   0.445   6.688   6.753
 8774POPC   C3A48773   0.451   6.613   7.053
 8774POPC   C4A48774   0.410   6.604   7.353
 8774POPC   C1B48775   0.568   6.366   6.453
 8774POPC   C2B48776   0.575   6.435   6.753
 8774POPC   C3B48777   0.572   6.403   7.053
 8774POPC   C4B48778   0.530   6.400   7.353
 8775POPC   NC348779  27.633  20.640   5.553
 8775POPC   PO448780  27.550  20.628   5.853
 8775POPC   GL148781  27.596  20.620   6.153
 8775POPC   GL248782  27.548  20.516   6.153
 8775POPC   C1A48783  27.637  20.576   6.453
 8775POPC   D2A48784  27.573  20.594   6.753
 8775POPC   C3A48785  27.639  20.616   7.053
 8775POPC   C4A48786  27.618  20.566   7.353
 8775POPC   C1B48787  27.484  20.423   6.453
 8775POPC   C2B48788  27.510  20.356   6.753
 8775POPC   C3B48789  27.519  20.433   7.053
 8775POPC   C4B48790  27.452  20.397   7.353
 8776POPC   NC348791  11.314  18.263   5.553
 8776POPC   PO448792  11.252  18.290   5.853
 8776POPC   GL148793  11.323  18.251   6.153
 8776POPC   GL248794  11.273  18.410   6.153
 8776POPC   C1A48795  11.286  18.304   6.453
 8776POPC   D2A48796  11.273  18.258   6.753
 8776POPC   C3A48797  11.280  18.312   7.053
 8776POPC   C4A48798  11.320  18.324   7.353
 8776POPC   C1B48799  11.303  18.506   6.453
 8776POPC   C2B48800  11.377  18.484   6.753
 8776POPC   C3B48801  11.336  18.566   7.053
 8776POPC   C4B48802  11.367  18.524   7.353
 8777POPC   NC348803  12.075  36.147   5.553
 8777POPC   PO448804  12.051  36.113   5.853
 8777POPC   GL148805  12.033  36.117   6.153
 8777POPC   GL248806  12.158  36.037   6.153
 8777POPC   C1A48807  12.056  36.114   6.453
 8777POPC   D2A48808  12.108  36.144   6.753
 8777POPC   C3A48809  12.114  36.154   7.053
 8777POPC   C4A48810  12.094  36.159   7.353
 8777POPC   C1B48811  12.318  35.965   6.453
 8777POPC   C2B48812  12.283  36.022   6.753
 8777POPC   C3B48813  12.270  36.003   7.053
 8777POPC   C4B48814  12.256  35.977   7.353
 8778POPC   NC348815  19.057  30.649   5.553
 8778POPC   PO448816  19.080  30.738   5.853
 8778POPC   GL148817  19.029  30.648   6.153
 8778POPC   GL248818  19.092  30.796   6.153
 8778POPC   C1A48819  19.079  30.652   6.453
 8778POPC   D2A48820  19.017  30.683   6.753
 8778POPC   C3A48821  19.073  30.655   7.053
 8778POPC   C4A48822  19.059  30.680   7.353
 8778POPC   C1B48823  19.092  30.955   6.453
 8778POPC   C2B48824  19.031  30.905   6.753
 8778POPC   C3B48825  19.030  30.955   7.053
 8778POPC   C4B48826  19.014  30.988   7.353
 8779POPC   NC348827  33.777  40.032   5.553
 8779POPC   PO448828  33.817  39.957   5.853
 8779POPC   GL148829  33.797  40.011   6.153
 8779POPC   GL248830  33.891  40.015   6.153
 8779POPC   C1A48831  33.782  40.006   6.453
 8779POPC   D2A48832  33.806  40.009   6.753
 8779POPC   C3A48833  33.789  40.006   7.053
 8779POPC   C4A48834  33.801  39.958   7.353
 8779POPC   C1B48835  34.022  40.044   6.453
 8779POPC   C2B48836  34.041  40.039   6.753
 8779POPC   C3B48837  34.016  40.043   7.053
 8779POPC   C4B48838  34.019  39.964   7.353
 8780POPC   NC348839  20.615  28.375   5.553
 8780POPC   PO448840  20.589  28.398   5.853
 8780POPC   GL148841  20.621  28.400   6.153
 8780POPC   GL248842  20.464  28.351   6.153
 8780POPC   C1A48843  20.565  28.415   6.453
 8780POPC   D2A48844  20.583  28.375   6.753
 8780POPC   C3A48845  20.567  28.349   7.053
 8780POPC   C4A48846  20.626  28.364   7.353
 8780POPC   C1B48847  20.381  28.343   6.453
 8780POPC   C2B48848  20.349  28.393   6.753
 8780POPC   C3B48849  20.366  28.365   7.053
 8780POPC   C4B48850  20.358  28.329   7.353
 8781POPC   NC348851  29.917   4.291   5.553
 8781POPC   PO448852  29.933   4.283   5.853
 8781POPC   GL148853  29.917   4.363   6.153
 8781POPC   GL248854  29.995   4.426   6.153
 8781POPC   C1A48855  29.922   4.344   6.453
 8781POPC   D2A48856  29.962   4.306   6.753
 8781POPC   C3A48857  29.879   4.341   7.053
 8781POPC   C4A48858  29.956   4.318   7.353
 8781POPC   C1B48859  30.179   4.438   6.453
 8781POPC   C2B48860  30.172   4.484   6.753
 8781POPC   C3B48861  30.152   4.428   7.053
 8781POPC   C4B48862  30.182   4.479   7.353
 8782POPC   NC348863   9.771   9.777   5.553
 8782POPC   PO448864   9.766   9.720   5.853
 8782POPC   GL148865   9.751   9.723   6.153
 8782POPC   GL248866   9.902   9.715   6.153
 8782POPC   C1A48867   9.764   9.798   6.453
 8782POPC   D2A48868   9.711   9.746   6.753
 8782POPC   C3A48869   9.785   9.764   7.053
 8782POPC   C4A48870   9.716   9.777   7.353
 8782POPC   C1B48871   9.965   9.746   6.453
 8782POPC   C2B48872  10.032   9.751   6.753
 8782POPC   C3B48873  10.043   9.692   7.053
 8782POPC   C4B48874  10.012   9.687   7.353
 8783POPC   NC348875  12.895  11.262   5.553
 8783POPC   PO448876  12.838  11.286   5.853
 8783POPC   GL148877  12.836  11.346   6.153
 8783POPC   GL248878  12.999  11.239   6.153
 8783POPC   C1A48879  12.899  11.276   6.453
 8783POPC   D2A48880  12.838  11.303   6.753
 8783POPC   C3A48881  12.897  11.300   7.053
 8783POPC   C4A48882  12.838  11.312   7.353
 8783POPC   C1B48883  13.093  11.207   6.453
 8783POPC   C2B48884  13.113  11.225   6.753
 8783POPC   C3B48885  13.101  11.230   7.053
 8783POPC   C4B48886  13.054  11.251   7.353
 8784POPC   NC348887  42.321   5.895   5.553
 8784POPC   PO448888  42.296   5.890   5.853
 8784POPC   GL148889  42.364   5.840   6.153
 8784POPC   GL248890  42.342   5.970   6.153
 8784POPC   C1A48891  42.364   5.857   6.453
 8784POPC   D2A48892  42.348   5.849   6.753
 8784POPC   C3A48893  42.334   5.855   7.053
 8784POPC   C4A48894  42.310   5.899   7.353
 8784POPC   C1B48895  42.342   6.115   6.453
 8784POPC   C2B48896  42.303   6.139   6.753
 8784POPC   C3B48897  42.362   6.099   7.053
 8784POPC   C4B48898  42.363   6.142   7.353
 8785POPC   NC348899  31.428  23.684   5.553
 8785POPC   PO448900  31.493  23.727   5.853
 8785POPC   GL148901  31.472  23.711   6.153
 8785POPC   GL248902  31.457  23.801   6.153
 8785POPC   C1A48903  31.477  23.744   6.453
 8785POPC   D2A48904  31.509  23.738   6.753
 8785POPC   C3A48905  31.442  23.715   7.053
 8785POPC   C4A48906  31.483  23.673   7.353
 8785POPC   C1B48907  31.392  23.915   6.453
 8785POPC   C2B48908  31.420  23.916   6.753
 8785POPC   C3B48909  31.438  23.985   7.053
 8785POPC   C4B48910  31.436  23.975   7.353
 8786POPC   NC348911  22.914  15.177   5.553
 8786POPC   PO448912  22.899  15.199   5.853
 8786POPC   GL148913  22.985  15.182   6.153
 8786POPC   GL248914  22.978  15.313   6.153
 8786POPC   C1A48915  22.965  15.176   6.453
 8786POPC   D2A48916  22.929  15.183   6.753
 8786POPC   C3A48917  22.982  15.131   7.053
 8786POPC   C4A48918  22.966  15.226   7.353
 8786POPC   C1B48919  22.943  15.449   6.453
 8786POPC   C2B48920  22.903  15.410   6.753
 8786POPC   C3B48921  22.927  15.401   7.053
 8786POPC   C4B48922  22.887  15.400   7.353
 8787POPC   NC348923  39.198   1.217   5.553
 8787POPC   PO448924  39.205   1.164   5.853
 8787POPC   GL148925  39.262   1.262   6.153
 8787POPC   GL248926  39.284   1.104   6.153
 8787POPC   C1A48927  39.269   1.185   6.453
 8787POPC   D2A48928  39.188   1.245   6.753
 8787POPC   C3A48929  39.274   1.246   7.053
 8787POPC   C4A48930  39.275   1.261   7.353
 8787POPC   C1B48931  39.352   1.058   6.453
 8787POPC   C2B48932  39.349   0.974   6.753
 8787POPC   C3B48933  39.392   0.996   7.053
 8787POPC   C4B48934  39.422   1.004   7.353
 8788POPC   NC348935  29.888   2.790   5.553
 8788POPC   PO448936  29.946   2.747   5.853
 8788POPC   GL148937  29.918   2.807   6.153
 8788POPC   GL248938  30.009   2.787   6.153
 8788POPC   C1A48939  29.939   2.747   6.453
 8788POPC   D2A48940  29.893   2.765   6.753
 8788POPC   C3A48941  29.927   2.767   7.053
 8788POPC   C4A48942  29.891   2.815   7.353
 8788POPC   C1B48943  30.134   2.880   6.453
 8788POPC   C2B48944  30.170   2.895   6.753
 8788POPC   C3B48945  30.100   2.885   7.053
 8788POPC   C4B48946  30.166   2.890   7.353
 8789POPC   NC348947  36.163  29.174   5.553
 8789POPC   PO448948  36.103  29.112   5.853
 8789POPC   GL148949  36.093  29.180   6.153
 8789POPC   GL248950  36.174  29.014   6.153
 8789POPC   C1A48951  36.140  29.132   6.453
 8789POPC   D2A48952  36.173  29.145   6.753
 8789POPC   C3A48953  36.088  29.179   7.053
 8789POPC   C4A48954  36.123  29.106   7.353
 8789POPC   C1B48955  36.255  28.967   6.453
 8789POPC   C2B48956  36.231  28.893   6.753
 8789POPC   C3B48957  36.319  28.916   7.053
 8789POPC   C4B48958  36.292  28.925   7.353
 8790POPC   NC348959  38.482  21.400   5.553
 8790POPC   PO448960  38.500  21.417   5.853
 8790POPC   GL148961  38.496  21.381   6.153
 8790POPC   GL248962  38.542  21.492   6.153
 8790POPC   C1A48963  38.467  21.406   6.453
 8790POPC   D2A48964  38.456  21.397   6.753
 8790POPC   C3A48965  38.462  21.352   7.053
 8790POPC   C4A48966  38.494  21.374   7.353
 8790POPC   C1B48967  38.656  21.561   6.453
 8790POPC   C2B48968  38.617  21.530   6.753
 8790POPC   C3B48969  38.588  21.528   7.053
 8790POPC   C4B48970  38.611  21.581   7.353
 8791POPC   NC348971  28.355  29.125   5.553
 8791POPC   PO448972  28.370  29.113   5.853
 8791POPC   GL148973  28.393  29.119   6.153
 8791POPC   GL248974  28.279  29.103   6.153
 8791POPC   C1A48975  28.408  29.181   6.453
 8791POPC   D2A48976  28.322  29.140   6.753
 8791POPC   C3A48977  28.399  29.179   7.053
 8791POPC   C4A48978  28.402  29.176   7.353
 8791POPC   C1B48979  28.110  29.032   6.453
 8791POPC   C2B48980  28.091  29.066   6.753
 8791POPC   C3B48981  28.088  29.086   7.053
 8791POPC   C4B48982  28.177  29.033   7.353
 8792POPC   NC348983   5.129   9.012   5.553
 8792POPC   PO448984   5.107   8.963   5.853
 8792POPC   GL148985   5.060   8.980   6.153
 8792POPC   GL248986   5.041   8.859   6.153
 8792POPC   C1A48987   5.122   8.989   6.453
 8792POPC   D2A48988   5.112   8.999   6.753
 8792POPC   C3A48989   5.098   8.996   7.053
 8792POPC   C4A48990   5.084   8.997   7.353
 8792POPC   C1B48991   4.963   8.756   6.453
 8792POPC   C2B48992   4.941   8.721   6.753
 8792POPC   C3B48993   5.010   8.735   7.053
 8792POPC   C4B48994   4.995   8.774   7.353
 8793POPC   NC348995  37.643  19.058   5.553
 8793POPC   PO448996  37.697  19.079   5.853
 8793POPC   GL148997  37.699  19.048   6.153
 8793POPC   GL248998  37.765  18.997   6.153
 8793POPC   C1A48999  37.667  19.082   6.453
 8793POPC   D2A49000  37.728  19.041   6.753
 8793POPC   C3A49001  37.691  19.014   7.053
 8793POPC   C4A49002  37.670  19.039   7.353
 8793POPC   C1B49003  37.930  18.926   6.453
 8793POPC   C2B49004  37.936  18.917   6.753
 8793POPC   C3B49005  37.910  18.920   7.053
 8793POPC   C4B49006  37.900  18.921   7.353
 8794POPC   NC349007   9.744   0.455   5.553
 8794POPC   PO449008   9.708   0.413   5.853
 8794POPC   GL149009   9.720   0.453   6.153
 8794POPC   GL249010   9.815   0.516   6.153
 8794POPC   C1A49011   9.704   0.399   6.453
 8794POPC   D2A49012   9.709   0.417   6.753
 8794POPC   C3A49013   9.720   0.486   7.053
 8794POPC   C4A49014   9.779   0.430   7.353
 8794POPC   C1B49015   9.903   0.600   6.453
 8794POPC   C2B49016   9.898   0.665   6.753
 8794POPC   C3B49017   9.921   0.637   7.053
 8794POPC   C4B49018   9.881   0.661   7.353
 8795POPC   NC349019   2.772   8.193   5.553
 8795POPC   PO449020   2.746   8.238   5.853
 8795POPC   GL149021   2.809   8.171   6.153
 8795POPC   GL249022   2.833   8.119   6.153
 8795POPC   C1A49023   2.807   8.220   6.453
 8795POPC   D2A49024   2.732   8.150   6.753
 8795POPC   C3A49025   2.751   8.226   7.053
 8795POPC   C4A49026   2.738   8.153   7.353
 8795POPC   C1B49027   2.892   8.040   6.453
 8795POPC   C2B49028   2.948   7.975   6.753
 8795POPC   C3B49029   2.939   7.995   7.053
 8795POPC   C4B49030   2.975   8.029   7.353
 8796POPC   NC349031   3.542  10.502   5.553
 8796POPC   PO449032   3.521  10.518   5.853
 8796POPC   GL149033   3.574  10.573   6.153
 8796POPC   GL249034   3.598  10.617   6.153
 8796POPC   C1A49035   3.561  10.521   6.453
 8796POPC   D2A49036   3.498  10.520   6.753
 8796POPC   C3A49037   3.555  10.479   7.053
 8796POPC   C4A49038   3.529  10.551   7.353
 8796POPC   C1B49039   3.596  10.798   6.453
 8796POPC   C2B49040   3.626  10.800   6.753
 8796POPC   C3B49041   3.593  10.758   7.053
 8796POPC   C4B49042   3.590  10.770   7.353
 8797POPC   NC349043  37.685   4.308   5.553
 8797POPC   PO449044  37.658   4.299   5.853
 8797POPC   GL149045  37.725   4.324   6.153
 8797POPC   GL249046  37.574   4.409   6.153
 8797POPC   C1A49047  37.678   4.282   6.453
 8797POPC   D2A49048  37.649   4.269   6.753
 8797POPC   C3A49049  37.710   4.301   7.053
 8797POPC   C4A49050  37.633   4.340   7.353
 8797POPC   C1B49051  37.510   4.512   6.453
 8797POPC   C2B49052  37.530   4.495   6.753
 8797POPC   C3B49053  37.539   4.510   7.053
 8797POPC   C4B49054  37.489   4.535   7.353
 8798POPC   NC349055  11.293   4.327   5.553
 8798POPC   PO449056  11.327   4.270   5.853
 8798POPC   GL149057  11.283   4.307   6.153
 8798POPC   GL249058  11.346   4.148   6.153
 8798POPC   C1A49059  11.260   4.342   6.453
 8798POPC   D2A49060  11.288   4.270   6.753
 8798POPC   C3A49061  11.265   4.283   7.053
 8798POPC   C4A49062  11.278   4.273   7.353
 8798POPC   C1B49063  11.414   4.044   6.453
 8798POPC   C2B49064  11.364   4.125   6.753
 8798POPC   C3B49065  11.368   4.121   7.053
 8798POPC   C4B49066  11.400   4.094   7.353
 8799POPC   NC349067  36.132  23.694   5.553
 8799POPC   PO449068  36.094  23.700   5.853
 8799POPC   GL149069  36.079  23.745   6.153
 8799POPC   GL249070  36.005  23.661   6.153
 8799POPC   C1A49071  36.108  23.699   6.453
 8799POPC   D2A49072  36.098  23.746   6.753
 8799POPC   C3A49073  36.120  23.749   7.053
 8799POPC   C4A49074  36.108  23.725   7.353
 8799POPC   C1B49075  35.900  23.550   6.453
 8799POPC   C2B49076  35.898  23.516   6.753
 8799POPC   C3B49077  35.902  23.542   7.053
 8799POPC   C4B49078  35.895  23.511   7.353
 8800POPC   NC349079   1.256   8.980   5.553
 8800POPC   PO449080   1.197   8.953   5.853
 8800POPC   GL149081   1.201   9.012   6.153
 8800POPC   GL249082   1.313   9.019   6.153
 8800POPC   C1A49083   1.237   8.956   6.453
 8800POPC   D2A49084   1.248   8.971   6.753
 8800POPC   C3A49085   1.198   9.008   7.053
 8800POPC   C4A49086   1.192   8.976   7.353
 8800POPC   C1B49087   1.384   9.206   6.453
 8800POPC   C2B49088   1.368   9.132   6.753
 8800POPC   C3B49089   1.328   9.213   7.053
 8800POPC   C4B49090   1.348   9.197   7.353
 8801POPC   NC349091  22.147  10.488   5.553
 8801POPC   PO449092  22.162  10.496   5.853
 8801POPC   GL149093  22.182  10.476   6.153
 8801POPC   GL249094  22.000  10.595   6.153
 8801POPC   C1A49095  22.126  10.487   6.453
 8801POPC   D2A49096  22.186  10.476   6.753
 8801POPC   C3A49097  22.162  10.550   7.053
 8801POPC   C4A49098  22.142  10.553   7.353
 8801POPC   C1B49099  21.901  10.593   6.453
 8801POPC   C2B49100  21.868  10.601   6.753
 8801POPC   C3B49101  21.924  10.562   7.053
 8801POPC   C4B49102  21.907  10.577   7.353
 8802POPC   NC349103  21.350   8.988   5.553
 8802POPC   PO449104  21.378   8.998   5.853
 8802POPC   GL149105  21.366   8.967   6.153
 8802POPC   GL249106  21.264   8.915   6.153
 8802POPC   C1A49107  21.426   8.978   6.453
 8802POPC   D2A49108  21.416   8.960   6.753
 8802POPC   C3A49109  21.343   8.948   7.053
 8802POPC   C4A49110  21.371   9.009   7.353
 8802POPC   C1B49111  21.157   8.873   6.453
 8802POPC   C2B49112  21.233   8.864   6.753
 8802POPC   C3B49113  21.216   8.777   7.053
 8802POPC   C4B49114  21.151   8.809   7.353
 8803POPC   NC349115  14.354  22.131   5.553
 8803POPC   PO449116  14.356  22.145   5.853
 8803POPC   GL149117  14.364  22.121   6.153
 8803POPC   GL249118  14.543  22.159   6.153
 8803POPC   C1A49119  14.370  22.144   6.453
 8803POPC   D2A49120  14.414  22.140   6.753
 8803POPC   C3A49121  14.408  22.150   7.053
 8803POPC   C4A49122  14.375  22.180   7.353
 8803POPC   C1B49123  14.673  22.270   6.453
 8803POPC   C2B49124  14.645  22.217   6.753
 8803POPC   C3B49125  14.677  22.219   7.053
 8803POPC   C4B49126  14.615  22.224   7.353
 8804POPC   NC349127   8.164  29.949   5.553
 8804POPC   PO449128   8.161  29.888   5.853
 8804POPC   GL149129   8.193  29.898   6.153
 8804POPC   GL249130   8.294  29.948   6.153
 8804POPC   C1A49131   8.241  29.905   6.453
 8804POPC   D2A49132   8.218  29.924   6.753
 8804POPC   C3A49133   8.188  29.886   7.053
 8804POPC   C4A49134   8.165  29.953   7.353
 8804POPC   C1B49135   8.386  30.095   6.453
 8804POPC   C2B49136   8.423  30.020   6.753
 8804POPC   C3B49137   8.409  30.008   7.053
 8804POPC   C4B49138   8.455  30.044   7.353
 8805POPC   NC349139  32.984  44.633   5.553
 8805POPC   PO449140  32.977  44.650   5.853
 8805POPC   GL149141  33.058  44.620   6.153
 8805POPC   GL249142  32.898  44.603   6.153
 8805POPC   C1A49143  33.039  44.711   6.453
 8805POPC   D2A49144  32.979  44.624   6.753
 8805POPC   C3A49145  33.005  44.669   7.053
 8805POPC   C4A49146  32.999  44.691   7.353
 8805POPC   C1B49147  32.799  44.525   6.453
 8805POPC   C2B49148  32.817  44.550   6.753
 8805POPC   C3B49149  32.850  44.548   7.053
 8805POPC   C4B49150  32.822  44.556   7.353
 8806POPC   NC349151  36.119  12.840   5.553
 8806POPC   PO449152  36.114  12.823   5.853
 8806POPC   GL149153  36.140  12.828   6.153
 8806POPC   GL249154  36.199  12.713   6.153
 8806POPC   C1A49155  36.113  12.895   6.453
 8806POPC   D2A49156  36.153  12.847   6.753
 8806POPC   C3A49157  36.111  12.823   7.053
 8806POPC   C4A49158  36.148  12.883   7.353
 8806POPC   C1B49159  36.290  12.670   6.453
 8806POPC   C2B49160  36.294  12.610   6.753
 8806POPC   C3B49161  36.223  12.630   7.053
 8806POPC   C4B49162  36.218  12.675   7.353
 8807POPC   NC349163  26.782  23.737   5.553
 8807POPC   PO449164  26.792  23.734   5.853
 8807POPC   GL149165  26.854  23.718   6.153
 8807POPC   GL249166  26.737  23.680   6.153
 8807POPC   C1A49167  26.832  23.724   6.453
 8807POPC   D2A49168  26.796  23.731   6.753
 8807POPC   C3A49169  26.845  23.675   7.053
 8807POPC   C4A49170  26.848  23.716   7.353
 8807POPC   C1B49171  26.628  23.650   6.453
 8807POPC   C2B49172  26.598  23.623   6.753
 8807POPC   C3B49173  26.533  23.657   7.053
 8807POPC   C4B49174  26.538  23.684   7.353
 8808POPC   NC349175   8.233  15.136   5.553
 8808POPC   PO449176   8.216  15.141   5.853
 8808POPC   GL149177   8.234  15.130   6.153
 8808POPC   GL249178   8.220  15.320   6.153
 8808POPC   C1A49179   8.225  15.164   6.453
 8808POPC   D2A49180   8.169  15.155   6.753
 8808POPC   C3A49181   8.200  15.176   7.053
 8808POPC   C4A49182   8.206  15.174   7.353
 8808POPC   C1B49183   8.191  15.478   6.453
 8808POPC   C2B49184   8.243  15.443   6.753
 8808POPC   C3B49185   8.196  15.398   7.053
 8808POPC   C4B49186   8.266  15.463   7.353
 8809POPC   NC349187  19.825  43.866   5.553
 8809POPC   PO449188  19.843  43.870   5.853
 8809POPC   GL149189  19.802  43.903   6.153
 8809POPC   GL249190  19.745  43.825   6.153
 8809POPC   C1A49191  19.877  43.886   6.453
 8809POPC   D2A49192  19.873  43.929   6.753
 8809POPC   C3A49193  19.824  43.861   7.053
 8809POPC   C4A49194  19.816  43.863   7.353
 8809POPC   C1B49195  19.682  43.671   6.453
 8809POPC   C2B49196  19.729  43.666   6.753
 8809POPC   C3B49197  19.739  43.653   7.053
 8809POPC   C4B49198  19.698  43.642   7.353
 8810POPC   NC349199  25.279  12.117   5.553
 8810POPC   PO449200  25.299  12.027   5.853
 8810POPC   GL149201  25.251  12.045   6.153
 8810POPC   GL249202  25.230  12.238   6.153
 8810POPC   C1A49203  25.291  12.088   6.453
 8810POPC   D2A49204  25.259  12.068   6.753
 8810POPC   C3A49205  25.240  12.047   7.053
 8810POPC   C4A49206  25.306  12.092   7.353
 8810POPC   C1B49207  25.174  12.303   6.453
 8810POPC   C2B49208  25.137  12.287   6.753
 8810POPC   C3B49209  25.155  12.292   7.053
 8810POPC   C4B49210  25.173  12.299   7.353
 8811POPC   NC349211  36.078  43.928   5.553
 8811POPC   PO449212  36.091  43.904   5.853
 8811POPC   GL149213  36.085  43.878   6.153
 8811POPC   GL249214  36.230  43.835   6.153
 8811POPC   C1A49215  36.140  43.929   6.453
 8811POPC   D2A49216  36.137  43.880   6.753
 8811POPC   C3A49217  36.089  43.844   7.053
 8811POPC   C4A49218  36.154  43.911   7.353
 8811POPC   C1B49219  36.369  43.774   6.453
 8811POPC   C2B49220  36.392  43.730   6.753
 8811POPC   C3B49221  36.336  43.789   7.053
 8811POPC   C4B49222  36.363  43.759   7.353
 8812POPC   NC349223   8.159  31.513   5.553
 8812POPC   PO449224   8.192  31.478   5.853
 8812POPC   GL149225   8.172  31.444   6.153
 8812POPC   GL249226   8.171  31.572   6.153
 8812POPC   C1A49227   8.197  31.436   6.453
 8812POPC   D2A49228   8.161  31.467   6.753
 8812POPC   C3A49229   8.164  31.479   7.053
 8812POPC   C4A49230   8.218  31.475   7.353
 8812POPC   C1B49231   8.134  31.701   6.453
 8812POPC   C2B49232   8.218  31.743   6.753
 8812POPC   C3B49233   8.196  31.715   7.053
 8812POPC   C4B49234   8.198  31.723   7.353
 8813POPC   NC349235  29.109  26.840   5.553
 8813POPC   PO449236  29.146  26.831   5.853
 8813POPC   GL149237  29.114  26.856   6.153
 8813POPC   GL249238  29.172  26.983   6.153
 8813POPC   C1A49239  29.116  26.805   6.453
 8813POPC   D2A49240  29.149  26.776   6.753
 8813POPC   C3A49241  29.099  26.772   7.053
 8813POPC   C4A49242  29.185  26.797   7.353
 8813POPC   C1B49243  29.067  27.099   6.453
 8813POPC   C2B49244  29.102  27.055   6.753
 8813POPC   C3B49245  29.141  27.015   7.053
 8813POPC   C4B49246  29.075  27.071   7.353
 8814POPC   NC349247   6.626  13.630   5.553
 8814POPC   PO449248   6.685  13.646   5.853
 8814POPC   GL149249   6.691  13.635   6.153
 8814POPC   GL249250   6.626  13.715   6.153
 8814POPC   C1A49251   6.616  13.676   6.453
 8814POPC   D2A49252   6.643  13.644   6.753
 8814POPC   C3A49253   6.599  13.621   7.053
 8814POPC   C4A49254   6.650  13.592   7.353
 8814POPC   C1B49255   6.691  13.899   6.453
 8814POPC   C2B49256   6.641  13.909   6.753
 8814POPC   C3B49257   6.612  13.912   7.053
 8814POPC   C4B49258   6.604  13.858   7.353
 8815POPC   NC349259  36.896  30.710   5.553
 8815POPC   PO449260  36.887  30.671   5.853
 8815POPC   GL149261  36.863  30.716   6.153
 8815POPC   GL249262  36.917  30.621   6.153
 8815POPC   C1A49263  36.865  30.717   6.453
 8815POPC   D2A49264  36.934  30.662   6.753
 8815POPC   C3A49265  36.864  30.683   7.053
 8815POPC   C4A49266  36.922  30.707   7.353
 8815POPC   C1B49267  36.889  30.435   6.453
 8815POPC   C2B49268  36.888  30.495   6.753
 8815POPC   C3B49269  36.892  30.489   7.053
 8815POPC   C4B49270  36.904  30.454   7.353
 8816POPC   NC349271   3.496  15.149   5.553
 8816POPC   PO449272   3.580  15.213   5.853
 8816POPC   GL149273   3.530  15.198   6.153
 8816POPC   GL249274   3.460  15.110   6.153
 8816POPC   C1A49275   3.588  15.213   6.453
 8816POPC   D2A49276   3.533  15.181   6.753
 8816POPC   C3A49277   3.558  15.175   7.053
 8816POPC   C4A49278   3.590  15.148   7.353
 8816POPC   C1B49279   3.414  14.939   6.453
 8816POPC   C2B49280   3.406  14.908   6.753
 8816POPC   C3B49281   3.453  14.973   7.053
 8816POPC   C4B49282   3.446  14.956   7.353
 8817POPC   NC349283  31.467  28.393   5.553
 8817POPC   PO449284  31.459  28.372   5.853
 8817POPC   GL149285  31.509  28.378   6.153
 8817POPC   GL249286  31.621  28.385   6.153
 8817POPC   C1A49287  31.428  28.328   6.453
 8817POPC   D2A49288  31.444  28.400   6.753
 8817POPC   C3A49289  31.436  28.342   7.053
 8817POPC   C4A49290  31.473  28.378   7.353
 8817POPC   C1B49291  31.721  28.421   6.453
 8817POPC   C2B49292  31.752  28.433   6.753
 8817POPC   C3B49293  31.685  28.399   7.053
 8817POPC   C4B49294  31.673  28.378   7.353
 8818POPC   NC349295  19.044  29.143   5.553
 8818POPC   PO449296  19.088  29.173   5.853
 8818POPC   GL149297  19.037  29.132   6.153
 8818POPC   GL249298  19.007  29.300   6.153
 8818POPC   C1A49299  19.061  29.118   6.453
 8818POPC   D2A49300  19.048  29.155   6.753
 8818POPC   C3A49301  19.052  29.124   7.053
 8818POPC   C4A49302  19.009  29.114   7.353
 8818POPC   C1B49303  19.025  29.345   6.453
 8818POPC   C2B49304  19.037  29.428   6.753
 8818POPC   C3B49305  19.021  29.422   7.053
 8818POPC   C4B49306  19.034  29.372   7.353
 8819POPC   NC349307  26.816   2.746   5.553
 8819POPC   PO449308  26.817   2.748   5.853
 8819POPC   GL149309  26.806   2.751   6.153
 8819POPC   GL249310  26.881   2.894   6.153
 8819POPC   C1A49311  26.817   2.762   6.453
 8819POPC   D2A49312  26.862   2.805   6.753
 8819POPC   C3A49313  26.852   2.781   7.053
 8819POPC   C4A49314  26.768   2.790   7.353
 8819POPC   C1B49315  26.809   3.030   6.453
 8819POPC   C2B49316  26.867   3.048   6.753
 8819POPC   C3B49317  26.869   2.982   7.053
 8819POPC   C4B49318  26.877   2.964   7.353
 8820POPC   NC349319   1.211  19.855   5.553
 8820POPC   PO449320   1.169  19.848   5.853
 8820POPC   GL149321   1.252  19.862   6.153
 8820POPC   GL249322   1.289  19.740   6.153
 8820POPC   C1A49323   1.223  19.820   6.453
 8820POPC   D2A49324   1.183  19.788   6.753
 8820POPC   C3A49325   1.211  19.813   7.053
 8820POPC   C4A49326   1.261  19.847   7.353
 8820POPC   C1B49327   1.487  19.768   6.453
 8820POPC   C2B49328   1.400  19.720   6.753
 8820POPC   C3B49329   1.421  19.695   7.053
 8820POPC   C4B49330   1.392  19.679   7.353
 8821POPC   NC349331  22.901   2.027   5.553
 8821POPC   PO449332  22.919   2.000   5.853
 8821POPC   GL149333  22.907   2.026   6.153
 8821POPC   GL249334  22.795   2.015   6.153
 8821POPC   C1A49335  22.915   1.970   6.453
 8821POPC   D2A49336  22.916   1.948   6.753
 8821POPC   C3A49337  22.903   2.024   7.053
 8821POPC   C4A49338  22.951   1.957   7.353
 8821POPC   C1B49339  22.694   2.028   6.453
 8821POPC   C2B49340  22.710   2.065   6.753
 8821POPC   C3B49341  22.689   2.019   7.053
 8821POPC   C4B49342  22.672   2.049   7.353
 8822POPC   NC349343   0.434  14.361   5.553
 8822POPC   PO449344   0.425  14.423   5.853
 8822POPC   GL149345   0.487  14.430   6.153
 8822POPC   GL249346   0.330  14.519   6.153
 8822POPC   C1A49347   0.442  14.445   6.453
 8822POPC   D2A49348   0.402  14.380   6.753
 8822POPC   C3A49349   0.482  14.440   7.053
 8822POPC   C4A49350   0.431  14.412   7.353
 8822POPC   C1B49351   0.274  14.592   6.453
 8822POPC   C2B49352   0.254  14.542   6.753
 8822POPC   C3B49353   0.223  14.544   7.053
 8822POPC   C4B49354   0.296  14.590   7.353
 8823POPC   NC349355  36.110  12.033   5.553
 8823POPC   PO449356  36.127  12.051   5.853
 8823POPC   GL149357  36.149  12.028   6.153
 8823POPC   GL249358  36.228  12.145   6.153
 8823POPC   C1A49359  36.096  12.106   6.453
 8823POPC   D2A49360  36.079  12.113   6.753
 8823POPC   C3A49361  36.130  12.109   7.053
 8823POPC   C4A49362  36.089  12.106   7.353
 8823POPC   C1B49363  36.341  12.291   6.453
 8823POPC   C2B49364  36.312  12.270   6.753
 8823POPC   C3B49365  36.285  12.214   7.053
 8823POPC   C4B49366  36.327  12.256   7.353
 8824POPC   NC349367  20.620  34.567   5.553
 8824POPC   PO449368  20.629  34.583   5.853
 8824POPC   GL149369  20.630  34.554   6.153
 8824POPC   GL249370  20.638  34.641   6.153
 8824POPC   C1A49371  20.587  34.604   6.453
 8824POPC   D2A49372  20.639  34.618   6.753
 8824POPC   C3A49373  20.574  34.546   7.053
 8824POPC   C4A49374  20.642  34.584   7.353
 8824POPC   C1B49375  20.701  34.833   6.453
 8824POPC   C2B49376  20.723  34.786   6.753
 8824POPC   C3B49377  20.759  34.804   7.053
 8824POPC   C4B49378  20.714  34.785   7.353
 8825POPC   NC349379  36.922  21.356   5.553
 8825POPC   PO449380  36.906  21.344   5.853
 8825POPC   GL149381  36.947  21.364   6.153
 8825POPC   GL249382  36.860  21.550   6.153
 8825POPC   C1A49383  36.883  21.343   6.453
 8825POPC   D2A49384  36.878  21.344   6.753
 8825POPC   C3A49385  36.908  21.416   7.053
 8825POPC   C4A49386  36.878  21.356   7.353
 8825POPC   C1B49387  36.889  21.592   6.453
 8825POPC   C2B49388  36.941  21.674   6.753
 8825POPC   C3B49389  36.868  21.672   7.053
 8825POPC   C4B49390  36.888  21.631   7.353
 8826POPC   NC349391  43.836  39.207   5.553
 8826POPC   PO449392  43.881  39.191   5.853
 8826POPC   GL149393  43.884  39.213   6.153
 8826POPC   GL249394  43.955  39.165   6.153
 8826POPC   C1A49395  43.886  39.200   6.453
 8826POPC   D2A49396  43.890  39.236   6.753
 8826POPC   C3A49397  43.934  39.272   7.053
 8826POPC   C4A49398  43.901  39.246   7.353
 8826POPC   C1B49399  43.992  39.075   6.453
 8826POPC   C2B49400  44.021  39.056   6.753
 8826POPC   C3B49401  43.999  39.012   7.053
 8826POPC   C4B49402  43.996  39.006   7.353
 8827POPC   NC349403  23.704  21.402   5.553
 8827POPC   PO449404  23.682  21.372   5.853
 8827POPC   GL149405  23.735  21.380   6.153
 8827POPC   GL249406  23.758  21.224   6.153
 8827POPC   C1A49407  23.705  21.370   6.453
 8827POPC   D2A49408  23.747  21.369   6.753
 8827POPC   C3A49409  23.752  21.351   7.053
 8827POPC   C4A49410  23.713  21.371   7.353
 8827POPC   C1B49411  23.722  21.137   6.453
 8827POPC   C2B49412  23.778  21.112   6.753
 8827POPC   C3B49413  23.711  21.179   7.053
 8827POPC   C4B49414  23.762  21.144   7.353
 8828POPC   NC349415  42.286   8.182   5.553
 8828POPC   PO449416  42.350   8.195   5.853
 8828POPC   GL149417  42.355   8.234   6.153
 8828POPC   GL249418  42.252   8.291   6.153
 8828POPC   C1A49419  42.368   8.157   6.453
 8828POPC   D2A49420  42.286   8.170   6.753
 8828POPC   C3A49421  42.340   8.148   7.053
 8828POPC   C4A49422  42.375   8.160   7.353
 8828POPC   C1B49423  42.114   8.399   6.453
 8828POPC   C2B49424  42.161   8.356   6.753
 8828POPC   C3B49425  42.122   8.320   7.053
 8828POPC   C4B49426  42.180   8.397   7.353
 8829POPC   NC349427   9.776  12.066   5.553
 8829POPC   PO449428   9.755  12.037   5.853
 8829POPC   GL149429   9.749  12.055   6.153
 8829POPC   GL249430   9.697  11.927   6.153
 8829POPC   C1A49431   9.729  12.068   6.453
 8829POPC   D2A49432   9.722  12.042   6.753
 8829POPC   C3A49433   9.771  12.086   7.053
 8829POPC   C4A49434   9.782  12.069   7.353
 8829POPC   C1B49435   9.579  11.846   6.453
 8829POPC   C2B49436   9.582  11.865   6.753
 8829POPC   C3B49437   9.630  11.864   7.053
 8829POPC   C4B49438   9.652  11.898   7.353
 8830POPC   NC349439  12.823  26.813   5.553
 8830POPC   PO449440  12.804  26.804   5.853
 8830POPC   GL149441  12.834  26.834   6.153
 8830POPC   GL249442  12.774  26.717   6.153
 8830POPC   C1A49443  12.856  26.802   6.453
 8830POPC   D2A49444  12.844  26.799   6.753
 8830POPC   C3A49445  12.896  26.780   7.053
 8830POPC   C4A49446  12.891  26.801   7.353
 8830POPC   C1B49447  12.676  26.693   6.453
 8830POPC   C2B49448  12.702  26.635   6.753
 8830POPC   C3B49449  12.623  26.651   7.053
 8830POPC   C4B49450  12.668  26.640   7.353
 8831POPC   NC349451  27.611  28.346   5.553
 8831POPC   PO449452  27.566  28.413   5.853
 8831POPC   GL149453  27.634  28.342   6.153
 8831POPC   GL249454  27.626  28.245   6.153
 8831POPC   C1A49455  27.545  28.326   6.453
 8831POPC   D2A49456  27.586  28.322   6.753
 8831POPC   C3A49457  27.556  28.323   7.053
 8831POPC   C4A49458  27.551  28.394   7.353
 8831POPC   C1B49459  27.744  28.134   6.453
 8831POPC   C2B49460  27.766  28.155   6.753
 8831POPC   C3B49461  27.723  28.120   7.053
 8831POPC   C4B49462  27.743  28.121   7.353
 8832POPC   NC349463  18.308  19.861   5.553
 8832POPC   PO449464  18.321  19.811   5.853
 8832POPC   GL149465  18.309  19.803   6.153
 8832POPC   GL249466  18.121  19.806   6.153
 8832POPC   C1A49467  18.285  19.831   6.453
 8832POPC   D2A49468  18.246  19.877   6.753
 8832POPC   C3A49469  18.246  19.870   7.053
 8832POPC   C4A49470  18.332  19.789   7.353
 8832POPC   C1B49471  18.027  19.750   6.453
 8832POPC   C2B49472  18.046  19.814   6.753
 8832POPC   C3B49473  18.042  19.758   7.053
 8832POPC   C4B49474  18.087  19.798   7.353
 8833POPC   NC349475  43.860  21.433   5.553
 8833POPC   PO449476  43.850  21.405   5.853
 8833POPC   GL149477  43.931  21.414   6.153
 8833POPC   GL249478  43.918  21.278   6.153
 8833POPC   C1A49479  43.880  21.344   6.453
 8833POPC   D2A49480  43.910  21.389   6.753
 8833POPC   C3A49481  43.921  21.370   7.053
 8833POPC   C4A49482  43.877  21.350   7.353
 8833POPC   C1B49483  43.934  21.150   6.453
 8833POPC   C2B49484  43.917  21.118   6.753
 8833POPC   C3B49485  43.913  21.100   7.053
 8833POPC   C4B49486  43.891  21.178   7.353
 8834POPC   NC349487  11.267  25.222   5.553
 8834POPC   PO449488  11.257  25.286   5.853
 8834POPC   GL149489  11.325  25.222   6.153
 8834POPC   GL249490  11.450  25.270   6.153
 8834POPC   C1A49491  11.295  25.305   6.453
 8834POPC   D2A49492  11.327  25.269   6.753
 8834POPC   C3A49493  11.307  25.256   7.053
 8834POPC   C4A49494  11.327  25.249   7.353
 8834POPC   C1B49495  11.534  25.343   6.453
 8834POPC   C2B49496  11.520  25.416   6.753
 8834POPC   C3B49497  11.528  25.332   7.053
 8834POPC   C4B49498  11.546  25.408   7.353
 8835POPC   NC349499  32.980  36.889   5.553
 8835POPC   PO449500  33.036  36.917   5.853
 8835POPC   GL149501  33.055  36.943   6.153
 8835POPC   GL249502  32.995  37.015   6.153
 8835POPC   C1A49503  33.032  36.859   6.453
 8835POPC   D2A49504  32.998  36.885   6.753
 8835POPC   C3A49505  32.986  36.922   7.053
 8835POPC   C4A49506  33.040  36.933   7.353
 8835POPC   C1B49507  32.922  37.169   6.453
 8835POPC   C2B49508  32.928  37.131   6.753
 8835POPC   C3B49509  33.005  37.147   7.053
 8835POPC   C4B49510  32.936  37.149   7.353
 8836POPC   NC349511   6.610  14.356   5.553
 8836POPC   PO449512   6.689  14.438   5.853
 8836POPC   GL149513   6.614  14.355   6.153
 8836POPC   GL249514   6.540  14.505   6.153
 8836POPC   C1A49515   6.635  14.414   6.453
 8836POPC   D2A49516   6.671  14.436   6.753
 8836POPC   C3A49517   6.599  14.379   7.053
 8836POPC   C4A49518   6.610  14.421   7.353
 8836POPC   C1B49519   6.529  14.609   6.453
 8836POPC   C2B49520   6.530  14.613   6.753
 8836POPC   C3B49521   6.530  14.587   7.053
 8836POPC   C4B49522   6.478  14.650   7.353
 8837POPC   NC349523  44.663  35.304   5.553
 8837POPC   PO449524  44.673  35.343   5.853
 8837POPC   GL149525  44.662  35.307   6.153
 8837POPC   GL249526  44.831  35.293   6.153
 8837POPC   C1A49527  44.703  35.350   6.453
 8837POPC   D2A49528  44.688  35.377   6.753
 8837POPC   C3A49529  44.642  35.362   7.053
 8837POPC   C4A49530  44.642  35.373   7.353
 8837POPC   C1B49531  44.920  35.277   6.453
 8837POPC   C2B49532  44.927  35.266   6.753
 8837POPC   C3B49533  44.889  35.252   7.053
 8837POPC   C4B49534  44.872  35.302   7.353
 8838POPC   NC349535  17.482  44.678   5.553
 8838POPC   PO449536  17.507  44.671   5.853
 8838POPC   GL149537  17.544  44.710   6.153
 8838POPC   GL249538  17.406  44.604   6.153
 8838POPC   C1A49539  17.544  44.669   6.453
 8838POPC   D2A49540  17.483  44.697   6.753
 8838POPC   C3A49541  17.465  44.678   7.053
 8838POPC   C4A49542  17.477  44.631   7.353
 8838POPC   C1B49543  17.320  44.521   6.453
 8838POPC   C2B49544  17.331  44.470   6.753
 8838POPC   C3B49545  17.312  44.475   7.053
 8838POPC   C4B49546  17.288  44.523   7.353
 8839POPC   NC349547  43.905  40.004   5.553
 8839POPC   PO449548  43.846  39.971   5.853
 8839POPC   GL149549  43.915  39.967   6.153
 8839POPC   GL249550  43.899  40.139   6.153
 8839POPC   C1A49551  43.876  40.028   6.453
 8839POPC   D2A49552  43.888  40.035   6.753
 8839POPC   C3A49553  43.839  40.037   7.053
 8839POPC   C4A49554  43.898  40.035   7.353
 8839POPC   C1B49555  43.912  40.221   6.453
 8839POPC   C2B49556  43.824  40.296   6.753
 8839POPC   C3B49557  43.883  40.224   7.053
 8839POPC   C4B49558  43.911  40.260   7.353
 8840POPC   NC349559  16.723  21.392   5.553
 8840POPC   PO449560  16.697  21.399   5.853
 8840POPC   GL149561  16.691  21.341   6.153
 8840POPC   GL249562  16.745  21.496   6.153
 8840POPC   C1A49563  16.714  21.362   6.453
 8840POPC   D2A49564  16.772  21.358   6.753
 8840POPC   C3A49565  16.738  21.380   7.053
 8840POPC   C4A49566  16.764  21.416   7.353
 8840POPC   C1B49567  16.737  21.609   6.453
 8840POPC   C2B49568  16.759  21.636   6.753
 8840POPC   C3B49569  16.714  21.650   7.053
 8840POPC   C4B49570  16.763  21.626   7.353
 8841POPC   NC349571  29.888  24.500   5.553
 8841POPC   PO449572  29.912  24.486   5.853
 8841POPC   GL149573  29.947  24.488   6.153
 8841POPC   GL249574  29.998  24.463   6.153
 8841POPC   C1A49575  29.949  24.462   6.453
 8841POPC   D2A49576  29.945  24.454   6.753
 8841POPC   C3A49577  29.877  24.492   7.053
 8841POPC   C4A49578  29.882  24.503   7.353
 8841POPC   C1B49579  30.071  24.315   6.453
 8841POPC   C2B49580  30.164  24.336   6.753
 8841POPC   C3B49581  30.073  24.362   7.053
 8841POPC   C4B49582  30.080  24.377   7.353
 8842POPC   NC349583  22.186  40.739   5.553
 8842POPC   PO449584  22.126  40.823   5.853
 8842POPC   GL149585  22.114  40.823   6.153
 8842POPC   GL249586  22.077  40.651   6.153
 8842POPC   C1A49587  22.139  40.821   6.453
 8842POPC   D2A49588  22.175  40.742   6.753
 8842POPC   C3A49589  22.198  40.785   7.053
 8842POPC   C4A49590  22.179  40.804   7.353
 8842POPC   C1B49591  22.014  40.593   6.453
 8842POPC   C2B49592  22.030  40.570   6.753
 8842POPC   C3B49593  22.040  40.597   7.053
 8842POPC   C4B49594  21.987  40.540   7.353
 8843POPC   NC349595  27.640  26.088   5.553
 8843POPC   PO449596  27.574  26.024   5.853
 8843POPC   GL149597  27.616  26.013   6.153
 8843POPC   GL249598  27.566  26.189   6.153
 8843POPC   C1A49599  27.589  26.017   6.453
 8843POPC   D2A49600  27.559  26.024   6.753
 8843POPC   C3A49601  27.558  25.993   7.053
 8843POPC   C4A49602  27.639  26.079   7.353
 8843POPC   C1B49603  27.592  26.289   6.453
 8843POPC   C2B49604  27.650  26.286   6.753
 8843POPC   C3B49605  27.662  26.299   7.053
 8843POPC   C4B49606  27.612  26.314   7.353
 8844POPC   NC349607  43.836  22.979   5.553
 8844POPC   PO449608  43.838  22.901   5.853
 8844POPC   GL149609  43.898  22.911   6.153
 8844POPC   GL249610  43.955  22.844   6.153
 8844POPC   C1A49611  43.887  22.912   6.453
 8844POPC   D2A49612  43.878  22.911   6.753
 8844POPC   C3A49613  43.878  22.949   7.053
 8844POPC   C4A49614  43.845  22.918   7.353
 8844POPC   C1B49615  44.073  22.726   6.453
 8844POPC   C2B49616  44.044  22.751   6.753
 8844POPC   C3B49617  44.043  22.749   7.053
 8844POPC   C4B49618  43.991  22.737   7.353
 8845POPC   NC349619  31.453   2.793   5.553
 8845POPC   PO449620  31.482   2.768   5.853
 8845POPC   GL149621  31.510   2.786   6.153
 8845POPC   GL249622  31.410   2.892   6.153
 8845POPC   C1A49623  31.444   2.779   6.453
 8845POPC   D2A49624  31.489   2.791   6.753
 8845POPC   C3A49625  31.450   2.752   7.053
 8845POPC   C4A49626  31.436   2.735   7.353
 8845POPC   C1B49627  31.289   2.976   6.453
 8845POPC   C2B49628  31.365   2.995   6.753
 8845POPC   C3B49629  31.314   3.020   7.053
 8845POPC   C4B49630  31.293   2.967   7.353
 8846POPC   NC349631  34.556  14.410   5.553
 8846POPC   PO449632  34.622  14.451   5.853
 8846POPC   GL149633  34.574  14.371   6.153
 8846POPC   GL249634  34.507  14.305   6.153
 8846POPC   C1A49635  34.613  14.363   6.453
 8846POPC   D2A49636  34.554  14.370   6.753
 8846POPC   C3A49637  34.538  14.370   7.053
 8846POPC   C4A49638  34.620  14.355   7.353
 8846POPC   C1B49639  34.363  14.203   6.453
 8846POPC   C2B49640  34.336  14.267   6.753
 8846POPC   C3B49641  34.336  14.215   7.053
 8846POPC   C4B49642  34.376  14.281   7.353
 8847POPC   NC349643  19.017  29.925   5.553
 8847POPC   PO449644  19.072  29.939   5.853
 8847POPC   GL149645  19.020  29.900   6.153
 8847POPC   GL249646  18.994  29.947   6.153
 8847POPC   C1A49647  19.017  29.936   6.453
 8847POPC   D2A49648  19.062  29.956   6.753
 8847POPC   C3A49649  19.043  29.955   7.053
 8847POPC   C4A49650  19.045  29.911   7.353
 8847POPC   C1B49651  18.854  30.067   6.453
 8847POPC   C2B49652  18.856  30.041   6.753
 8847POPC   C3B49653  18.842  30.020   7.053
 8847POPC   C4B49654  18.882  29.993   7.353
 8848POPC   NC349655  41.574  39.181   5.553
 8848POPC   PO449656  41.584  39.220   5.853
 8848POPC   GL149657  41.527  39.221   6.153
 8848POPC   GL249658  41.693  39.279   6.153
 8848POPC   C1A49659  41.511  39.226   6.453
 8848POPC   D2A49660  41.510  39.270   6.753
 8848POPC   C3A49661  41.526  39.244   7.053
 8848POPC   C4A49662  41.524  39.243   7.353
 8848POPC   C1B49663  41.825  39.307   6.453
 8848POPC   C2B49664  41.808  39.286   6.753
 8848POPC   C3B49665  41.817  39.326   7.053
 8848POPC   C4B49666  41.807  39.295   7.353
 8849POPC   NC349667   3.519  43.062   5.553
 8849POPC   PO449668   3.554  43.087   5.853
 8849POPC   GL149669   3.508  43.092   6.153
 8849POPC   GL249670   3.530  42.958   6.153
 8849POPC   C1A49671   3.541  43.065   6.453
 8849POPC   D2A49672   3.500  43.066   6.753
 8849POPC   C3A49673   3.540  43.103   7.053
 8849POPC   C4A49674   3.512  43.154   7.353
 8849POPC   C1B49675   3.549  42.878   6.453
 8849POPC   C2B49676   3.488  42.863   6.753
 8849POPC   C3B49677   3.494  42.909   7.053
 8849POPC   C4B49678   3.504  42.838   7.353
 8850POPC   NC349679   2.751  36.107   5.553
 8850POPC   PO449680   2.775  36.102   5.853
 8850POPC   GL149681   2.759  36.104   6.153
 8850POPC   GL249682   2.700  36.234   6.153
 8850POPC   C1A49683   2.799  36.136   6.453
 8850POPC   D2A49684   2.751  36.138   6.753
 8850POPC   C3A49685   2.729  36.132   7.053
 8850POPC   C4A49686   2.730  36.109   7.353
 8850POPC   C1B49687   2.676  36.313   6.453
 8850POPC   C2B49688   2.623  36.360   6.753
 8850POPC   C3B49689   2.661  36.396   7.053
 8850POPC   C4B49690   2.670  36.362   7.353
 8851POPC   NC349691  32.212  43.096   5.553
 8851POPC   PO449692  32.229  43.133   5.853
 8851POPC   GL149693  32.232  43.127   6.153
 8851POPC   GL249694  32.155  43.166   6.153
 8851POPC   C1A49695  32.227  43.113   6.453
 8851POPC   D2A49696  32.204  43.085   6.753
 8851POPC   C3A49697  32.290  43.093   7.053
 8851POPC   C4A49698  32.204  43.108   7.353
 8851POPC   C1B49699  31.998  43.150   6.453
 8851POPC   C2B49700  31.978  43.169   6.753
 8851POPC   C3B49701  31.967  43.192   7.053
 8851POPC   C4B49702  31.969  43.131   7.353
 8852POPC   NC349703  14.378   2.037   5.553
 8852POPC   PO449704  14.387   2.011   5.853
 8852POPC   GL149705  14.370   1.951   6.153
 8852POPC   GL249706  14.273   1.918   6.153
 8852POPC   C1A49707  14.407   1.985   6.453
 8852POPC   D2A49708  14.422   2.027   6.753
 8852POPC   C3A49709  14.378   1.963   7.053
 8852POPC   C4A49710  14.411   2.006   7.353
 8852POPC   C1B49711  14.180   1.878   6.453
 8852POPC   C2B49712  14.203   1.865   6.753
 8852POPC   C3B49713  14.127   1.905   7.053
 8852POPC   C4B49714  14.147   1.875   7.353
 8853POPC   NC349715  43.853  23.735   5.553
 8853POPC   PO449716  43.843  23.698   5.853
 8853POPC   GL149717  43.876  23.751   6.153
 8853POPC   GL249718  43.830  23.608   6.153
 8853POPC   C1A49719  43.853  23.703   6.453
 8853POPC   D2A49720  43.861  23.687   6.753
 8853POPC   C3A49721  43.930  23.671   7.053
 8853POPC   C4A49722  43.917  23.674   7.353
 8853POPC   C1B49723  43.685  23.577   6.453
 8853POPC   C2B49724  43.676  23.595   6.753
 8853POPC   C3B49725  43.737  23.547   7.053
 8853POPC   C4B49726  43.690  23.542   7.353
 8854POPC   NC349727  43.082   8.168   5.553
 8854POPC   PO449728  43.108   8.229   5.853
 8854POPC   GL149729  43.138   8.164   6.153
 8854POPC   GL249730  42.986   8.215   6.153
 8854POPC   C1A49731  43.061   8.147   6.453
 8854POPC   D2A49732  43.153   8.156   6.753
 8854POPC   C3A49733  43.127   8.153   7.053
 8854POPC   C4A49734  43.061   8.228   7.353
 8854POPC   C1B49735  42.889   8.231   6.453
 8854POPC   C2B49736  42.909   8.308   6.753
 8854POPC   C3B49737  42.879   8.236   7.053
 8854POPC   C4B49738  42.884   8.317   7.353
 8855POPC   NC349739  12.839  25.261   5.553
 8855POPC   PO449740  12.847  25.270   5.853
 8855POPC   GL149741  12.864  25.298   6.153
 8855POPC   GL249742  12.962  25.288   6.153
 8855POPC   C1A49743  12.889  25.263   6.453
 8855POPC   D2A49744  12.852  25.285   6.753
 8855POPC   C3A49745  12.844  25.282   7.053
 8855POPC   C4A49746  12.890  25.291   7.353
 8855POPC   C1B49747  13.040  25.328   6.453
 8855POPC   C2B49748  13.083  25.417   6.753
 8855POPC   C3B49749  13.056  25.343   7.053
 8855POPC   C4B49750  13.122  25.392   7.353
 8856POPC   NC349751  39.219  39.257   5.553
 8856POPC   PO449752  39.241  39.236   5.853
 8856POPC   GL149753  39.271  39.228   6.153
 8856POPC   GL249754  39.143  39.122   6.153
 8856POPC   C1A49755  39.277  39.226   6.453
 8856POPC   D2A49756  39.204  39.201   6.753
 8856POPC   C3A49757  39.248  39.264   7.053
 8856POPC   C4A49758  39.219  39.193   7.353
 8856POPC   C1B49759  39.110  39.031   6.453
 8856POPC   C2B49760  39.059  39.008   6.753
 8856POPC   C3B49761  39.079  39.078   7.053
 8856POPC   C4B49762  39.077  39.001   7.353
 8857POPC   NC349763  33.017  39.960   5.553
 8857POPC   PO449764  32.985  40.025   5.853
 8857POPC   GL149765  33.006  40.027   6.153
 8857POPC   GL249766  33.087  40.107   6.153
 8857POPC   C1A49767  33.073  40.005   6.453
 8857POPC   D2A49768  32.985  39.970   6.753
 8857POPC   C3A49769  33.014  40.024   7.053
 8857POPC   C4A49770  32.990  40.028   7.353
 8857POPC   C1B49771  33.253  40.161   6.453
 8857POPC   C2B49772  33.214  40.218   6.753
 8857POPC   C3B49773  33.262  40.218   7.053
 8857POPC   C4B49774  33.256  40.211   7.353
 8858POPC   NC349775  27.571  24.538   5.553
 8858POPC   PO449776  27.600  24.467   5.853
 8858POPC   GL149777  27.620  24.475   6.153
 8858POPC   GL249778  27.563  24.360   6.153
 8858POPC   C1A49779  27.591  24.467   6.453
 8858POPC   D2A49780  27.588  24.454   6.753
 8858POPC   C3A49781  27.551  24.451   7.053
 8858POPC   C4A49782  27.633  24.539   7.353
 8858POPC   C1B49783  27.437  24.244   6.453
 8858POPC   C2B49784  27.481  24.240   6.753
 8858POPC   C3B49785  27.472  24.274   7.053
 8858POPC   C4B49786  27.456  24.323   7.353
 8859POPC   NC349787  21.399  27.561   5.553
 8859POPC   PO449788  21.372  27.625   5.853
 8859POPC   GL149789  21.433  27.575   6.153
 8859POPC   GL249790  21.450  27.534   6.153
 8859POPC   C1A49791  21.361  27.573   6.453
 8859POPC   D2A49792  21.416  27.573   6.753
 8859POPC   C3A49793  21.389  27.580   7.053
 8859POPC   C4A49794  21.352  27.624   7.353
 8859POPC   C1B49795  21.523  27.380   6.453
 8859POPC   C2B49796  21.571  27.451   6.753
 8859POPC   C3B49797  21.596  27.389   7.053
 8859POPC   C4B49798  21.532  27.392   7.353
 8860POPC   NC349799   1.220  14.401   5.553
 8860POPC   PO449800   1.213  14.359   5.853
 8860POPC   GL149801   1.234  14.397   6.153
 8860POPC   GL249802   1.161  14.317   6.153
 8860POPC   C1A49803   1.233  14.407   6.453
 8860POPC   D2A49804   1.204  14.406   6.753
 8860POPC   C3A49805   1.241  14.421   7.053
 8860POPC   C4A49806   1.197  14.417   7.353
 8860POPC   C1B49807   1.140  14.142   6.453
 8860POPC   C2B49808   1.124  14.219   6.753
 8860POPC   C3B49809   1.095  14.144   7.053
 8860POPC   C4B49810   1.139  14.150   7.353
 8861POPC   NC349811  35.329  33.845   5.553
 8861POPC   PO449812  35.399  33.801   5.853
 8861POPC   GL149813  35.375  33.842   6.153
 8861POPC   GL249814  35.298  33.947   6.153
 8861POPC   C1A49815  35.364  33.807   6.453
 8861POPC   D2A49816  35.385  33.794   6.753
 8861POPC   C3A49817  35.380  33.784   7.053
 8861POPC   C4A49818  35.382  33.757   7.353
 8861POPC   C1B49819  35.309  34.007   6.453
 8861POPC   C2B49820  35.233  34.044   6.753
 8861POPC   C3B49821  35.303  34.059   7.053
 8861POPC   C4B49822  35.263  34.043   7.353
 8862POPC   NC349823  30.718  21.421   5.553
 8862POPC   PO449824  30.693  21.402   5.853
 8862POPC   GL149825  30.713  21.381   6.153
 8862POPC   GL249826  30.770  21.504   6.153
 8862POPC   C1A49827  30.696  21.372   6.453
 8862POPC   D2A49828  30.648  21.377   6.753
 8862POPC   C3A49829  30.665  21.365   7.053
 8862POPC   C4A49830  30.656  21.386   7.353
 8862POPC   C1B49831  30.861  21.582   6.453
 8862POPC   C2B49832  30.800  21.609   6.753
 8862POPC   C3B49833  30.853  21.637   7.053
 8862POPC   C4B49834  30.793  21.631   7.353
 8863POPC   NC349835  15.939  12.114   5.553
 8863POPC   PO449836  15.918  12.071   5.853
 8863POPC   GL149837  15.937  12.088   6.153
 8863POPC   GL249838  16.052  12.044   6.153
 8863POPC   C1A49839  15.927  12.119   6.453
 8863POPC   D2A49840  15.980  12.108   6.753
 8863POPC   C3A49841  15.956  12.098   7.053
 8863POPC   C4A49842  15.920  12.044   7.353
 8863POPC   C1B49843  16.216  11.917   6.453
 8863POPC   C2B49844  16.126  11.977   6.753
 8863POPC   C3B49845  16.161  11.989   7.053
 8863POPC   C4B49846  16.161  11.982   7.353
 8864POPC   NC349847  33.832  12.874   5.553
 8864POPC   PO449848  33.759  12.818   5.853
 8864POPC   GL149849  33.828  12.872   6.153
 8864POPC   GL249850  33.845  12.790   6.153
 8864POPC   C1A49851  33.759  12.822   6.453
 8864POPC   D2A49852  33.834  12.865   6.753
 8864POPC   C3A49853  33.817  12.806   7.053
 8864POPC   C4A49854  33.819  12.802   7.353
 8864POPC   C1B49855  33.976  12.724   6.453
 8864POPC   C2B49856  33.954  12.716   6.753
 8864POPC   C3B49857  34.002  12.686   7.053
 8864POPC   C4B49858  34.010  12.737   7.353
 8865POPC   NC349859  41.523  43.845   5.553
 8865POPC   PO449860  41.604  43.848   5.853
 8865POPC   GL149861  41.514  43.857   6.153
 8865POPC   GL249862  41.727  43.864   6.153
 8865POPC   C1A49863  41.596  43.907   6.453
 8865POPC   D2A49864  41.527  43.839   6.753
 8865POPC   C3A49865  41.539  43.852   7.053
 8865POPC   C4A49866  41.520  43.898   7.353
 8865POPC   C1B49867  41.841  43.865   6.453
 8865POPC   C2B49868  41.853  43.861   6.753
 8865POPC   C3B49869  41.831  43.871   7.053
 8865POPC   C4B49870  41.837  43.913   7.353
 8866POPC   NC349871  37.701  28.339   5.553
 8866POPC   PO449872  37.663  28.332   5.853
 8866POPC   GL149873  37.657  28.352   6.153
 8866POPC   GL249874  37.781  28.491   6.153
 8866POPC   C1A49875  37.725  28.376   6.453
 8866POPC   D2A49876  37.727  28.381   6.753
 8866POPC   C3A49877  37.711  28.405   7.053
 8866POPC   C4A49878  37.702  28.320   7.353
 8866POPC   C1B49879  37.831  28.521   6.453
 8866POPC   C2B49880  37.902  28.472   6.753
 8866POPC   C3B49881  37.922  28.505   7.053
 8866POPC   C4B49882  37.895  28.529   7.353
 8867POPC   NC349883   8.977   4.320   5.553
 8867POPC   PO449884   8.923   4.337   5.853
 8867POPC   GL149885   8.949   4.314   6.153
 8867POPC   GL249886   8.884   4.356   6.153
 8867POPC   C1A49887   8.994   4.307   6.453
 8867POPC   D2A49888   8.979   4.300   6.753
 8867POPC   C3A49889   9.017   4.287   7.053
 8867POPC   C4A49890   8.970   4.280   7.353
 8867POPC   C1B49891   8.725   4.369   6.453
 8867POPC   C2B49892   8.746   4.354   6.753
 8867POPC   C3B49893   8.736   4.374   7.053
 8867POPC   C4B49894   8.751   4.363   7.353
 8868POPC   NC349895  29.930  17.465   5.553
 8868POPC   PO449896  29.968  17.515   5.853
 8868POPC   GL149897  29.935  17.474   6.153
 8868POPC   GL249898  30.068  17.611   6.153
 8868POPC   C1A49899  29.913  17.527   6.453
 8868POPC   D2A49900  29.923  17.507   6.753
 8868POPC   C3A49901  29.911  17.498   7.053
 8868POPC   C4A49902  29.940  17.523   7.353
 8868POPC   C1B49903  30.102  17.663   6.453
 8868POPC   C2B49904  30.177  17.686   6.753
 8868POPC   C3B49905  30.087  17.605   7.053
 8868POPC   C4B49906  30.102  17.637   7.353
 8869POPC   NC349907  32.255  22.927   5.553
 8869POPC   PO449908  32.297  22.934   5.853
 8869POPC   GL149909  32.240  22.928   6.153
 8869POPC   GL249910  32.273  22.805   6.153
 8869POPC   C1A49911  32.245  22.964   6.453
 8869POPC   D2A49912  32.234  22.977   6.753
 8869POPC   C3A49913  32.262  22.936   7.053
 8869POPC   C4A49914  32.245  22.978   7.353
 8869POPC   C1B49915  32.418  22.713   6.453
 8869POPC   C2B49916  32.424  22.767   6.753
 8869POPC   C3B49917  32.344  22.735   7.053
 8869POPC   C4B49918  32.377  22.728   7.353
 8870POPC   NC349919   0.457  35.345   5.553
 8870POPC   PO449920   0.433  35.334   5.853
 8870POPC   GL149921   0.415  35.336   6.153
 8870POPC   GL249922   0.336  35.401   6.153
 8870POPC   C1A49923   0.484  35.359   6.453
 8870POPC   D2A49924   0.477  35.362   6.753
 8870POPC   C3A49925   0.450  35.337   7.053
 8870POPC   C4A49926   0.476  35.392   7.353
 8870POPC   C1B49927   0.263  35.574   6.453
 8870POPC   C2B49928   0.315  35.498   6.753
 8870POPC   C3B49929   0.313  35.525   7.053
 8870POPC   C4B49930   0.242  35.574   7.353
 8871POPC   NC349931   8.241  20.609   5.553
 8871POPC   PO449932   8.214  20.637   5.853
 8871POPC   GL149933   8.153  20.623   6.153
 8871POPC   GL249934   8.336  20.643   6.153
 8871POPC   C1A49935   8.182  20.633   6.453
 8871POPC   D2A49936   8.154  20.651   6.753
 8871POPC   C3A49937   8.213  20.632   7.053
 8871POPC   C4A49938   8.158  20.567   7.353
 8871POPC   C1B49939   8.362  20.722   6.453
 8871POPC   C2B49940   8.402  20.785   6.753
 8871POPC   C3B49941   8.438  20.763   7.053
 8871POPC   C4B49942   8.436  20.747   7.353
 8872POPC   NC349943  37.658  10.496   5.553
 8872POPC   PO449944  37.674  10.483   5.853
 8872POPC   GL149945  37.682  10.498   6.153
 8872POPC   GL249946  37.816  10.538   6.153
 8872POPC   C1A49947  37.711  10.509   6.453
 8872POPC   D2A49948  37.692  10.526   6.753
 8872POPC   C3A49949  37.678  10.536   7.053
 8872POPC   C4A49950  37.645  10.516   7.353
 8872POPC   C1B49951  37.906  10.508   6.453
 8872POPC   C2B49952  37.959  10.504   6.753
 8872POPC   C3B49953  37.884  10.499   7.053
 8872POPC   C4B49954  37.926  10.521   7.353
 8873POPC   NC349955  28.401  39.210   5.553
 8873POPC   PO449956  28.338  39.237   5.853
 8873POPC   GL149957  28.372  39.226   6.153
 8873POPC   GL249958  28.391  39.148   6.153
 8873POPC   C1A49959  28.366  39.277   6.453
 8873POPC   D2A49960  28.365  39.218   6.753
 8873POPC   C3A49961  28.370  39.205   7.053
 8873POPC   C4A49962  28.333  39.256   7.353
 8873POPC   C1B49963  28.399  38.994   6.453
 8873POPC   C2B49964  28.441  38.960   6.753
 8873POPC   C3B49965  28.466  38.992   7.053
 8873POPC   C4B49966  28.392  38.989   7.353
 8874POPC   NC349967  43.909  30.659   5.553
 8874POPC   PO449968  43.881  30.692   5.853
 8874POPC   GL149969  43.921  30.744   6.153
 8874POPC   GL249970  43.742  30.676   6.153
 8874POPC   C1A49971  43.925  30.679   6.453
 8874POPC   D2A49972  43.856  30.736   6.753
 8874POPC   C3A49973  43.843  30.744   7.053
 8874POPC   C4A49974  43.861  30.677   7.353
 8874POPC   C1B49975  43.676  30.737   6.453
 8874POPC   C2B49976  43.680  30.763   6.753
 8874POPC   C3B49977  43.622  30.763   7.053
 8874POPC   C4B49978  43.641  30.764   7.353
 8875POPC   NC349979  15.205   9.732   5.553
 8875POPC   PO449980  15.228   9.723   5.853
 8875POPC   GL149981  15.133   9.769   6.153
 8875POPC   GL249982  15.056   9.864   6.153
 8875POPC   C1A49983  15.216   9.793   6.453
 8875POPC   D2A49984  15.182   9.771   6.753
 8875POPC   C3A49985  15.148   9.701   7.053
 8875POPC   C4A49986  15.197   9.701   7.353
 8875POPC   C1B49987  14.963   9.938   6.453
 8875POPC   C2B49988  15.003   9.940   6.753
 8875POPC   C3B49989  14.973   9.885   7.053
 8875POPC   C4B49990  14.966   9.916   7.353
 8876POPC   NC349991  33.766  10.474   5.553
 8876POPC   PO449992  33.764  10.484   5.853
 8876POPC   GL149993  33.765  10.559   6.153
 8876POPC   GL249994  33.892  10.560   6.153
 8876POPC   C1A49995  33.789  10.511   6.453
 8876POPC   D2A49996  33.818  10.518   6.753
 8876POPC   C3A49997  33.838  10.545   7.053
 8876POPC   C4A49998  33.778  10.562   7.353
 8876POPC   C1B49999  34.049  10.594   6.453
 8876POPC   C2B50000  34.016  10.613   6.753
 8876POPC   C3B50001  34.054  10.601   7.053
 8876POPC   C4B50002  34.065  10.601   7.353
 8877POPC   NC350003  35.321  31.521   5.553
 8877POPC   PO450004  35.394  31.451   5.853
 8877POPC   GL150005  35.385  31.445   6.153
 8877POPC   GL250006  35.230  31.586   6.153
 8877POPC   C1A50007  35.314  31.483   6.453
 8877POPC   D2A50008  35.345  31.429   6.753
 8877POPC   C3A50009  35.330  31.485   7.053
 8877POPC   C4A50010  35.322  31.491   7.353
 8877POPC   C1B50011  35.176  31.705   6.453
 8877POPC   C2B50012  35.212  31.670   6.753
 8877POPC   C3B50013  35.180  31.675   7.053
 8877POPC   C4B50014  35.221  31.640   7.353
 8878POPC   NC350015  14.414  13.597   5.553
 8878POPC   PO450016  14.406  13.643   5.853
 8878POPC   GL150017  14.400  13.578   6.153
 8878POPC   GL250018  14.454  13.577   6.153
 8878POPC   C1A50019  14.387  13.600   6.453
 8878POPC   D2A50020  14.423  13.627   6.753
 8878POPC   C3A50021  14.413  13.657   7.053
 8878POPC   C4A50022  14.397  13.596   7.353
 8878POPC   C1B50023  14.529  13.400   6.453
 8878POPC   C2B50024  14.559  13.408   6.753
 8878POPC   C3B50025  14.541  13.454   7.053
 8878POPC   C4B50026  14.545  13.407   7.353
 8879POPC   NC350027  25.259  33.074   5.553
 8879POPC   PO450028  25.238  33.007   5.853
 8879POPC   GL150029  25.249  32.983   6.153
 8879POPC   GL250030  25.366  33.030   6.153
 8879POPC   C1A50031  25.253  33.039   6.453
 8879POPC   D2A50032  25.220  32.994   6.753
 8879POPC   C3A50033  25.294  33.049   7.053
 8879POPC   C4A50034  25.312  33.014   7.353
 8879POPC   C1B50035  25.463  32.934   6.453
 8879POPC   C2B50036  25.497  32.925   6.753
 8879POPC   C3B50037  25.498  32.938   7.053
 8879POPC   C4B50038  25.458  32.957   7.353
 8880POPC   NC350039  34.599  40.056   5.553
 8880POPC   PO450040  34.602  39.986   5.853
 8880POPC   GL150041  34.545  40.054   6.153
 8880POPC   GL250042  34.699  39.974   6.153
 8880POPC   C1A50043  34.553  40.045   6.453
 8880POPC   D2A50044  34.553  39.966   6.753
 8880POPC   C3A50045  34.585  40.000   7.053
 8880POPC   C4A50046  34.531  39.963   7.353
 8880POPC   C1B50047  34.799  39.823   6.453
 8880POPC   C2B50048  34.804  39.814   6.753
 8880POPC   C3B50049  34.785  39.878   7.053
 8880POPC   C4B50050  34.794  39.807   7.353
 8881POPC   NC350051  31.512  27.582   5.553
 8881POPC   PO450052  31.497  27.603   5.853
 8881POPC   GL150053  31.482  27.559   6.153
 8881POPC   GL250054  31.643  27.568   6.153
 8881POPC   C1A50055  31.478  27.588   6.453
 8881POPC   D2A50056  31.443  27.623   6.753
 8881POPC   C3A50057  31.423  27.586   7.053
 8881POPC   C4A50058  31.494  27.566   7.353
 8881POPC   C1B50059  31.722  27.609   6.453
 8881POPC   C2B50060  31.712  27.598   6.753
 8881POPC   C3B50061  31.720  27.549   7.053
 8881POPC   C4B50062  31.744  27.628   7.353
 8882POPC   NC350063  43.128  22.207   5.553
 8882POPC   PO450064  43.081  22.156   5.853
 8882POPC   GL150065  43.129  22.141   6.153
 8882POPC   GL250066  43.064  22.284   6.153
 8882POPC   C1A50067  43.090  22.162   6.453
 8882POPC   D2A50068  43.125  22.145   6.753
 8882POPC   C3A50069  43.112  22.183   7.053
 8882POPC   C4A50070  43.158  22.198   7.353
 8882POPC   C1B50071  43.072  22.362   6.453
 8882POPC   C2B50072  43.163  22.366   6.753
 8882POPC   C3B50073  43.083  22.435   7.053
 8882POPC   C4B50074  43.080  22.393   7.353
 8883POPC   NC350075  32.249  32.282   5.553
 8883POPC   PO450076  32.217  32.235   5.853
 8883POPC   GL150077  32.219  32.265   6.153
 8883POPC   GL250078  32.179  32.393   6.153
 8883POPC   C1A50079  32.282  32.257   6.453
 8883POPC   D2A50080  32.281  32.294   6.753
 8883POPC   C3A50081  32.255  32.256   7.053
 8883POPC   C4A50082  32.258  32.291   7.353
 8883POPC   C1B50083  32.077  32.492   6.453
 8883POPC   C2B50084  32.059  32.500   6.753
 8883POPC   C3B50085  32.127  32.482   7.053
 8883POPC   C4B50086  32.060  32.475   7.353
 8884POPC   NC350087  43.130  33.802   5.553
 8884POPC   PO450088  43.159  33.837   5.853
 8884POPC   GL150089  43.084  33.799   6.153
 8884POPC   GL250090  42.976  33.824   6.153
 8884POPC   C1A50091  43.114  33.782   6.453
 8884POPC   D2A50092  43.063  33.786   6.753
 8884POPC   C3A50093  43.080  33.843   7.053
 8884POPC   C4A50094  43.068  33.762   7.353
 8884POPC   C1B50095  42.834  33.829   6.453
 8884POPC   C2B50096  42.870  33.818   6.753
 8884POPC   C3B50097  42.887  33.839   7.053
 8884POPC   C4B50098  42.889  33.757   7.353
 8885POPC   NC350099  33.824  18.268   5.553
 8885POPC   PO450100  33.829  18.256   5.853
 8885POPC   GL150101  33.752  18.275   6.153
 8885POPC   GL250102  33.700  18.220   6.153
 8885POPC   C1A50103  33.767  18.311   6.453
 8885POPC   D2A50104  33.838  18.258   6.753
 8885POPC   C3A50105  33.845  18.318   7.053
 8885POPC   C4A50106  33.829  18.300   7.353
 8885POPC   C1B50107  33.587  18.168   6.453
 8885POPC   C2B50108  33.553  18.165   6.753
 8885POPC   C3B50109  33.621  18.134   7.053
 8885POPC   C4B50110  33.622  18.178   7.353
 8886POPC   NC350111  38.451  41.521   5.553
 8886POPC   PO450112  38.425  41.511   5.853
 8886POPC   GL150113  38.441  41.521   6.153
 8886POPC   GL250114  38.403  41.449   6.153
 8886POPC   C1A50115  38.429  41.578   6.453
 8886POPC   D2A50116  38.446  41.572   6.753
 8886POPC   C3A50117  38.418  41.562   7.053
 8886POPC   C4A50118  38.445  41.553   7.353
 8886POPC   C1B50119  38.233  41.443   6.453
 8886POPC   C2B50120  38.314  41.383   6.753
 8886POPC   C3B50121  38.256  41.425   7.053
 8886POPC   C4B50122  38.223  41.440   7.353
 8887POPC   NC350123  39.985   5.054   5.553
 8887POPC   PO450124  40.025   5.108   5.853
 8887POPC   GL150125  40.007   5.064   6.153
 8887POPC   GL250126  40.113   5.108   6.153
 8887POPC   C1A50127  39.991   5.097   6.453
 8887POPC   D2A50128  39.980   5.102   6.753
 8887POPC   C3A50129  39.964   5.043   7.053
 8887POPC   C4A50130  40.041   5.099   7.353
 8887POPC   C1B50131  40.218   5.095   6.453
 8887POPC   C2B50132  40.239   5.127   6.753
 8887POPC   C3B50133  40.287   5.096   7.053
 8887POPC   C4B50134  40.207   5.151   7.353
 8888POPC   NC350135  23.726  16.748   5.553
 8888POPC   PO450136  23.689  16.776   5.853
 8888POPC   GL150137  23.710  16.683   6.153
 8888POPC   GL250138  23.606  16.859   6.153
 8888POPC   C1A50139  23.721  16.703   6.453
 8888POPC   D2A50140  23.724  16.756   6.753
 8888POPC   C3A50141  23.719  16.759   7.053
 8888POPC   C4A50142  23.762  16.702   7.353
 8888POPC   C1B50143  23.571  16.908   6.453
 8888POPC   C2B50144  23.555  16.842   6.753
 8888POPC   C3B50145  23.501  16.854   7.053
 8888POPC   C4B50146  23.492  16.935   7.353
 8889POPC   NC350147  18.291  17.473   5.553
 8889POPC   PO450148  18.270  17.462   5.853
 8889POPC   GL150149  18.332  17.531   6.153
 8889POPC   GL250150  18.316  17.335   6.153
 8889POPC   C1A50151  18.240  17.535   6.453
 8889POPC   D2A50152  18.267  17.508   6.753
 8889POPC   C3A50153  18.310  17.465   7.053
 8889POPC   C4A50154  18.321  17.550   7.353
 8889POPC   C1B50155  18.316  17.262   6.453
 8889POPC   C2B50156  18.312  17.291   6.753
 8889POPC   C3B50157  18.316  17.273   7.053
 8889POPC   C4B50158  18.235  17.276   7.353
 8890POPC   NC350159   8.935  13.646   5.553
 8890POPC   PO450160   8.967  13.661   5.853
 8890POPC   GL150161   8.935  13.645   6.153
 8890POPC   GL250162   8.992  13.748   6.153
 8890POPC   C1A50163   8.992  13.600   6.453
 8890POPC   D2A50164   8.935  13.674   6.753
 8890POPC   C3A50165   8.941  13.606   7.053
 8890POPC   C4A50166   8.957  13.595   7.353
 8890POPC   C1B50167   9.063  13.900   6.453
 8890POPC   C2B50168   9.054  13.822   6.753
 8890POPC   C3B50169   9.120  13.891   7.053
 8890POPC   C4B50170   9.102  13.818   7.353
 8891POPC   NC350171  35.375  32.205   5.553
 8891POPC   PO450172  35.370  32.238   5.853
 8891POPC   GL150173  35.314  32.238   6.153
 8891POPC   GL250174  35.243  32.281   6.153
 8891POPC   C1A50175  35.305  32.201   6.453
 8891POPC   D2A50176  35.305  32.261   6.753
 8891POPC   C3A50177  35.379  32.289   7.053
 8891POPC   C4A50178  35.345  32.227   7.353
 8891POPC   C1B50179  35.092  32.375   6.453
 8891POPC   C2B50180  35.127  32.330   6.753
 8891POPC   C3B50181  35.103  32.394   7.053
 8891POPC   C4B50182  35.141  32.396   7.353
 8892POPC   NC350183  40.775  40.784   5.553
 8892POPC   PO450184  40.739  40.752   5.853
 8892POPC   GL150185  40.818  40.817   6.153
 8892POPC   GL250186  40.653  40.724   6.153
 8892POPC   C1A50187  40.741  40.813   6.453
 8892POPC   D2A50188  40.826  40.771   6.753
 8892POPC   C3A50189  40.806  40.740   7.053
 8892POPC   C4A50190  40.825  40.796   7.353
 8892POPC   C1B50191  40.544  40.632   6.453
 8892POPC   C2B50192  40.537  40.675   6.753
 8892POPC   C3B50193  40.574  40.640   7.053
 8892POPC   C4B50194  40.607  40.614   7.353
 8893POPC   NC350195  24.443  37.719   5.553
 8893POPC   PO450196  24.489  37.642   5.853
 8893POPC   GL150197  24.485  37.727   6.153
 8893POPC   GL250198  24.549  37.543   6.153
 8893POPC   C1A50199  24.458  37.659   6.453
 8893POPC   D2A50200  24.526  37.647   6.753
 8893POPC   C3A50201  24.483  37.708   7.053
 8893POPC   C4A50202  24.457  37.713   7.353
 8893POPC   C1B50203  24.634  37.432   6.453
 8893POPC   C2B50204  24.611  37.476   6.753
 8893POPC   C3B50205  24.668  37.437   7.053
 8893POPC   C4B50206  24.601  37.470   7.353
 8894POPC   NC350207  23.760  20.614   5.553
 8894POPC   PO450208  23.713  20.651   5.853
 8894POPC   GL150209  23.736  20.611   6.153
 8894POPC   GL250210  23.663  20.446   6.153
 8894POPC   C1A50211  23.666  20.627   6.453
 8894POPC   D2A50212  23.695  20.617   6.753
 8894POPC   C3A50213  23.677  20.620   7.053
 8894POPC   C4A50214  23.667  20.570   7.353
 8894POPC   C1B50215  23.753  20.344   6.453
 8894POPC   C2B50216  23.681  20.343   6.753
 8894POPC   C3B50217  23.682  20.395   7.053
 8894POPC   C4B50218  23.696  20.350   7.353
 8895POPC   NC350219   2.718  10.511   5.553
 8895POPC   PO450220   2.767  10.516   5.853
 8895POPC   GL150221   2.729  10.489   6.153
 8895POPC   GL250222   2.736  10.649   6.153
 8895POPC   C1A50223   2.799  10.544   6.453
 8895POPC   D2A50224   2.750  10.551   6.753
 8895POPC   C3A50225   2.732  10.495   7.053
 8895POPC   C4A50226   2.735  10.492   7.353
 8895POPC   C1B50227   2.773  10.743   6.453
 8895POPC   C2B50228   2.743  10.766   6.753
 8895POPC   C3B50229   2.699  10.807   7.053
 8895POPC   C4B50230   2.726  10.764   7.353
 8896POPC   NC350231  36.128  31.514   5.553
 8896POPC   PO450232  36.131  31.454   5.853
 8896POPC   GL150233  36.117  31.436   6.153
 8896POPC   GL250234  36.134  31.549   6.153
 8896POPC   C1A50235  36.105  31.446   6.453
 8896POPC   D2A50236  36.145  31.456   6.753
 8896POPC   C3A50237  36.115  31.465   7.053
 8896POPC   C4A50238  36.175  31.456   7.353
 8896POPC   C1B50239  36.144  31.764   6.453
 8896POPC   C2B50240  36.164  31.699   6.753
 8896POPC   C3B50241  36.131  31.710   7.053
 8896POPC   C4B50242  36.158  31.674   7.353
 8897POPC   NC350243   4.273  15.204   5.553
 8897POPC   PO450244   4.338  15.161   5.853
 8897POPC   GL150245   4.294  15.156   6.153
 8897POPC   GL250246   4.185  15.087   6.153
 8897POPC   C1A50247   4.350  15.170   6.453
 8897POPC   D2A50248   4.363  15.168   6.753
 8897POPC   C3A50249   4.348  15.191   7.053
 8897POPC   C4A50250   4.322  15.188   7.353
 8897POPC   C1B50251   4.129  14.966   6.453
 8897POPC   C2B50252   4.099  14.992   6.753
 8897POPC   C3B50253   4.143  15.031   7.053
 8897POPC   C4B50254   4.146  15.013   7.353
 8898POPC   NC350255  36.100  19.803   5.553
 8898POPC   PO450256  36.110  19.876   5.853
 8898POPC   GL150257  36.171  19.869   6.153
 8898POPC   GL250258  35.964  19.758   6.153
 8898POPC   C1A50259  36.078  19.790   6.453
 8898POPC   D2A50260  36.113  19.860   6.753
 8898POPC   C3A50261  36.128  19.845   7.053
 8898POPC   C4A50262  36.166  19.809   7.353
 8898POPC   C1B50263  35.850  19.749   6.453
 8898POPC   C2B50264  35.898  19.767   6.753
 8898POPC   C3B50265  35.901  19.711   7.053
 8898POPC   C4B50266  35.914  19.767   7.353
 8899POPC   NC350267  22.190  44.648   5.553
 8899POPC   PO450268  22.153  44.649   5.853
 8899POPC   GL150269  22.182  44.629   6.153
 8899POPC   GL250270  22.261  44.626   6.153
 8899POPC   C1A50271  22.149  44.678   6.453
 8899POPC   D2A50272  22.193  44.698   6.753
 8899POPC   C3A50273  22.180  44.627   7.053
 8899POPC   C4A50274  22.186  44.693   7.353
 8899POPC   C1B50275  22.399  44.502   6.453
 8899POPC   C2B50276  22.359  44.470   6.753
 8899POPC   C3B50277  22.367  44.462   7.053
 8899POPC   C4B50278  22.319  44.482   7.353
 8900POPC   NC350279  17.462  10.527   5.553
 8900POPC   PO450280  17.485  10.510   5.853
 8900POPC   GL150281  17.540  10.547   6.153
 8900POPC   GL250282  17.443  10.405   6.153
 8900POPC   C1A50283  17.528  10.517   6.453
 8900POPC   D2A50284  17.520  10.527   6.753
 8900POPC   C3A50285  17.491  10.535   7.053
 8900POPC   C4A50286  17.463  10.533   7.353
 8900POPC   C1B50287  17.359  10.338   6.453
 8900POPC   C2B50288  17.345  10.403   6.753
 8900POPC   C3B50289  17.270  10.369   7.053
 8900POPC   C4B50290  17.271  10.322   7.353
 8901POPC   NC350291  42.320  43.889   5.553
 8901POPC   PO450292  42.310  43.848   5.853
 8901POPC   GL150293  42.338  43.850   6.153
 8901POPC   GL250294  42.297  44.023   6.153
 8901POPC   C1A50295  42.296  43.916   6.453
 8901POPC   D2A50296  42.334  43.915   6.753
 8901POPC   C3A50297  42.345  43.846   7.053
 8901POPC   C4A50298  42.304  43.886   7.353
 8901POPC   C1B50299  42.350  44.110   6.453
 8901POPC   C2B50300  42.351  44.120   6.753
 8901POPC   C3B50301  42.355  44.160   7.053
 8901POPC   C4B50302  42.362  44.131   7.353
 8902POPC   NC350303  14.373  22.943   5.553
 8902POPC   PO450304  14.382  22.976   5.853
 8902POPC   GL150305  14.422  22.979   6.153
 8902POPC   GL250306  14.502  22.982   6.153
 8902POPC   C1A50307  14.408  22.966   6.453
 8902POPC   D2A50308  14.359  22.949   6.753
 8902POPC   C3A50309  14.394  22.937   7.053
 8902POPC   C4A50310  14.372  22.963   7.353
 8902POPC   C1B50311  14.662  23.085   6.453
 8902POPC   C2B50312  14.606  23.010   6.753
 8902POPC   C3B50313  14.618  23.038   7.053
 8902POPC   C4B50314  14.677  23.079   7.353
 8903POPC   NC350315  37.689   8.227   5.553
 8903POPC   PO450316  37.688   8.155   5.853
 8903POPC   GL150317  37.635   8.161   6.153
 8903POPC   GL250318  37.747   8.265   6.153
 8903POPC   C1A50319  37.680   8.159   6.453
 8903POPC   D2A50320  37.690   8.231   6.753
 8903POPC   C3A50321  37.708   8.184   7.053
 8903POPC   C4A50322  37.699   8.246   7.353
 8903POPC   C1B50323  37.802   8.459   6.453
 8903POPC   C2B50324  37.737   8.389   6.753
 8903POPC   C3B50325  37.804   8.393   7.053
 8903POPC   C4B50326  37.728   8.472   7.353
 8904POPC   NC350327  20.571  39.991   5.553
 8904POPC   PO450328  20.637  39.991   5.853
 8904POPC   GL150329  20.624  40.048   6.153
 8904POPC   GL250330  20.621  39.868   6.153
 8904POPC   C1A50331  20.655  40.004   6.453
 8904POPC   D2A50332  20.652  40.011   6.753
 8904POPC   C3A50333  20.600  40.029   7.053
 8904POPC   C4A50334  20.571  40.017   7.353
 8904POPC   C1B50335  20.540  39.769   6.453
 8904POPC   C2B50336  20.568  39.777   6.753
 8904POPC   C3B50337  20.523  39.801   7.053
 8904POPC   C4B50338  20.546  39.773   7.353
 8905POPC   NC350339   8.986   6.659   5.553
 8905POPC   PO450340   8.964   6.639   5.853
 8905POPC   GL150341   8.965   6.622   6.153
 8905POPC   GL250342   8.820   6.633   6.153
 8905POPC   C1A50343   8.929   6.659   6.453
 8905POPC   D2A50344   8.947   6.690   6.753
 8905POPC   C3A50345   8.958   6.611   7.053
 8905POPC   C4A50346   8.966   6.597   7.353
 8905POPC   C1B50347   8.698   6.646   6.453
 8905POPC   C2B50348   8.755   6.645   6.753
 8905POPC   C3B50349   8.753   6.587   7.053
 8905POPC   C4B50350   8.716   6.621   7.353
 8906POPC   NC350351  22.962  16.733   5.553
 8906POPC   PO450352  22.970  16.735   5.853
 8906POPC   GL150353  22.961  16.687   6.153
 8906POPC   GL250354  22.965  16.820   6.153
 8906POPC   C1A50355  22.918  16.775   6.453
 8906POPC   D2A50356  22.922  16.733   6.753
 8906POPC   C3A50357  22.908  16.760   7.053
 8906POPC   C4A50358  22.892  16.776   7.353
 8906POPC   C1B50359  22.923  17.023   6.453
 8906POPC   C2B50360  22.912  16.997   6.753
 8906POPC   C3B50361  22.940  16.994   7.053
 8906POPC   C4B50362  22.916  16.947   7.353
 8907POPC   NC350363  12.095  34.581   5.553
 8907POPC   PO450364  12.118  34.599   5.853
 8907POPC   GL150365  12.107  34.621   6.153
 8907POPC   GL250366  12.045  34.444   6.153
 8907POPC   C1A50367  12.103  34.564   6.453
 8907POPC   D2A50368  12.115  34.531   6.753
 8907POPC   C3A50369  12.069  34.610   7.053
 8907POPC   C4A50370  12.042  34.569   7.353
 8907POPC   C1B50371  12.031  34.339   6.453
 8907POPC   C2B50372  12.054  34.336   6.753
 8907POPC   C3B50373  12.049  34.305   7.053
 8907POPC   C4B50374  12.061  34.280   7.353
 8908POPC   NC350375  19.798  39.990   5.553
 8908POPC   PO450376  19.865  39.972   5.853
 8908POPC   GL150377  19.790  40.050   6.153
 8908POPC   GL250378  19.700  40.037   6.153
 8908POPC   C1A50379  19.807  40.012   6.453
 8908POPC   D2A50380  19.861  40.035   6.753
 8908POPC   C3A50381  19.788  40.043   7.053
 8908POPC   C4A50382  19.876  40.030   7.353
 8908POPC   C1B50383  19.627  40.091   6.453
 8908POPC   C2B50384  19.636  40.109   6.753
 8908POPC   C3B50385  19.589  40.126   7.053
 8908POPC   C4B50386  19.626  40.143   7.353
 8909POPC   NC350387   5.083  13.630   5.553
 8909POPC   PO450388   5.131  13.642   5.853
 8909POPC   GL150389   5.109  13.598   6.153
 8909POPC   GL250390   4.963  13.691   6.153
 8909POPC   C1A50391   5.094  13.605   6.453
 8909POPC   D2A50392   5.089  13.640   6.753
 8909POPC   C3A50393   5.132  13.610   7.053
 8909POPC   C4A50394   5.090  13.634   7.353
 8909POPC   C1B50395   4.898  13.812   6.453
 8909POPC   C2B50396   4.964  13.788   6.753
 8909POPC   C3B50397   4.943  13.770   7.053
 8909POPC   C4B50398   4.915  13.859   7.353
 8910POPC   NC350399  21.393  10.526   5.553
 8910POPC   PO450400  21.405  10.516   5.853
 8910POPC   GL150401  21.339  10.489   6.153
 8910POPC   GL250402  21.425  10.636   6.153
 8910POPC   C1A50403  21.435  10.498   6.453
 8910POPC   D2A50404  21.408  10.569   6.753
 8910POPC   C3A50405  21.435  10.569   7.053
 8910POPC   C4A50406  21.357  10.547   7.353
 8910POPC   C1B50407  21.541  10.693   6.453
 8910POPC   C2B50408  21.486  10.703   6.753
 8910POPC   C3B50409  21.498  10.705   7.053
 8910POPC   C4B50410  21.480  10.791   7.353
 8911POPC   NC350411  12.862   2.752   5.553
 8911POPC   PO450412  12.851   2.759   5.853
 8911POPC   GL150413  12.830   2.769   6.153
 8911POPC   GL250414  12.774   2.776   6.153
 8911POPC   C1A50415  12.821   2.761   6.453
 8911POPC   D2A50416  12.877   2.796   6.753
 8911POPC   C3A50417  12.875   2.745   7.053
 8911POPC   C4A50418  12.860   2.754   7.353
 8911POPC   C1B50419  12.585   2.762   6.453
 8911POPC   C2B50420  12.620   2.742   6.753
 8911POPC   C3B50421  12.556   2.769   7.053
 8911POPC   C4B50422  12.613   2.718   7.353
 8912POPC   NC350423  38.505  28.357   5.553
 8912POPC   PO450424  38.422  28.375   5.853
 8912POPC   GL150425  38.456  28.327   6.153
 8912POPC   GL250426  38.620  28.444   6.153
 8912POPC   C1A50427  38.421  28.363   6.453
 8912POPC   D2A50428  38.418  28.321   6.753
 8912POPC   C3A50429  38.455  28.393   7.053
 8912POPC   C4A50430  38.493  28.415   7.353
 8912POPC   C1B50431  38.717  28.395   6.453
 8912POPC   C2B50432  38.732  28.416   6.753
 8912POPC   C3B50433  38.730  28.463   7.053
 8912POPC   C4B50434  38.701  28.460   7.353
 8913POPC   NC350435  12.889   5.845   5.553
 8913POPC   PO450436  12.803   5.834   5.853
 8913POPC   GL150437  12.823   5.903   6.153
 8913POPC   GL250438  12.844   5.736   6.153
 8913POPC   C1A50439  12.861   5.907   6.453
 8913POPC   D2A50440  12.826   5.865   6.753
 8913POPC   C3A50441  12.869   5.882   7.053
 8913POPC   C4A50442  12.898   5.868   7.353
 8913POPC   C1B50443  12.851   5.581   6.453
 8913POPC   C2B50444  12.855   5.669   6.753
 8913POPC   C3B50445  12.831   5.652   7.053
 8913POPC   C4B50446  12.860   5.657   7.353
 8914POPC   NC350447  39.252  19.054   5.553
 8914POPC   PO450448  39.198  19.021   5.853
 8914POPC   GL150449  39.235  19.084   6.153
 8914POPC   GL250450  39.083  19.019   6.153
 8914POPC   C1A50451  39.223  19.036   6.453
 8914POPC   D2A50452  39.215  19.050   6.753
 8914POPC   C3A50453  39.268  19.102   7.053
 8914POPC   C4A50454  39.221  19.070   7.353
 8914POPC   C1B50455  38.990  18.985   6.453
 8914POPC   C2B50456  38.944  19.039   6.753
 8914POPC   C3B50457  39.001  19.031   7.053
 8914POPC   C4B50458  38.952  19.019   7.353
 8915POPC   NC350459  12.879   1.263   5.553
 8915POPC   PO450460  12.854   1.204   5.853
 8915POPC   GL150461  12.896   1.212   6.153
 8915POPC   GL250462  13.009   1.154   6.153
 8915POPC   C1A50463  12.835   1.209   6.453
 8915POPC   D2A50464  12.812   1.200   6.753
 8915POPC   C3A50465  12.838   1.173   7.053
 8915POPC   C4A50466  12.890   1.214   7.353
 8915POPC   C1B50467  13.112   1.235   6.453
 8915POPC   C2B50468  13.141   1.183   6.753
 8915POPC   C3B50469  13.054   1.174   7.053
 8915POPC   C4B50470  13.093   1.197   7.353
 8916POPC   NC350471  29.970  33.775   5.553
 8916POPC   PO450472  29.876  33.785   5.853
 8916POPC   GL150473  29.926  33.830   6.153
 8916POPC   GL250474  29.837  33.862   6.153
 8916POPC   C1A50475  29.943  33.774   6.453
 8916POPC   D2A50476  29.884  33.772   6.753
 8916POPC   C3A50477  29.965  33.840   7.053
 8916POPC   C4A50478  29.932  33.751   7.353
 8916POPC   C1B50479  29.726  33.943   6.453
 8916POPC   C2B50480  29.703  33.962   6.753
 8916POPC   C3B50481  29.736  33.966   7.053
 8916POPC   C4B50482  29.694  33.898   7.353
 8917POPC   NC350483  15.958  24.523   5.553
 8917POPC   PO450484  15.970  24.504   5.853
 8917POPC   GL150485  15.909  24.459   6.153
 8917POPC   GL250486  16.066  24.531   6.153
 8917POPC   C1A50487  15.998  24.474   6.453
 8917POPC   D2A50488  15.998  24.537   6.753
 8917POPC   C3A50489  15.947  24.515   7.053
 8917POPC   C4A50490  15.980  24.478   7.353
 8917POPC   C1B50491  16.230  24.558   6.453
 8917POPC   C2B50492  16.228  24.547   6.753
 8917POPC   C3B50493  16.189  24.585   7.053
 8917POPC   C4B50494  16.190  24.554   7.353
 8918POPC   NC350495   4.349  11.284   5.553
 8918POPC   PO450496   4.357  11.338   5.853
 8918POPC   GL150497   4.288  11.310   6.153
 8918POPC   GL250498   4.351  11.409   6.153
 8918POPC   C1A50499   4.341  11.319   6.453
 8918POPC   D2A50500   4.319  11.252   6.753
 8918POPC   C3A50501   4.306  11.252   7.053
 8918POPC   C4A50502   4.313  11.284   7.353
 8918POPC   C1B50503   4.367  11.538   6.453
 8918POPC   C2B50504   4.368  11.576   6.753
 8918POPC   C3B50505   4.385  11.558   7.053
 8918POPC   C4B50506   4.298  11.560   7.353
 8919POPC   NC350507  20.572  25.247   5.553
 8919POPC   PO450508  20.602  25.223   5.853
 8919POPC   GL150509  20.603  25.253   6.153
 8919POPC   GL250510  20.436  25.286   6.153
 8919POPC   C1A50511  20.612  25.284   6.453
 8919POPC   D2A50512  20.575  25.256   6.753
 8919POPC   C3A50513  20.584  25.255   7.053
 8919POPC   C4A50514  20.652  25.250   7.353
 8919POPC   C1B50515  20.406  25.257   6.453
 8919POPC   C2B50516  20.378  25.292   6.753
 8919POPC   C3B50517  20.313  25.286   7.053
 8919POPC   C4B50518  20.399  25.297   7.353
 8920POPC   NC350519  12.032  19.821   5.553
 8920POPC   PO450520  12.047  19.831   5.853
 8920POPC   GL150521  12.053  19.788   6.153
 8920POPC   GL250522  11.998  19.926   6.153
 8920POPC   C1A50523  12.028  19.799   6.453
 8920POPC   D2A50524  12.046  19.806   6.753
 8920POPC   C3A50525  12.037  19.813   7.053
 8920POPC   C4A50526  12.031  19.879   7.353
 8920POPC   C1B50527  11.911  20.069   6.453
 8920POPC   C2B50528  11.983  20.095   6.753
 8920POPC   C3B50529  11.975  20.032   7.053
 8920POPC   C4B50530  11.980  20.088   7.353
 8921POPC   NC350531  34.533  42.332   5.553
 8921POPC   PO450532  34.529  42.299   5.853
 8921POPC   GL150533  34.572  42.322   6.153
 8921POPC   GL250534  34.645  42.285   6.153
 8921POPC   C1A50535  34.616  42.295   6.453
 8921POPC   D2A50536  34.536  42.299   6.753
 8921POPC   C3A50537  34.603  42.326   7.053
 8921POPC   C4A50538  34.567  42.351   7.353
 8921POPC   C1B50539  34.803  42.210   6.453
 8921POPC   C2B50540  34.808  42.217   6.753
 8921POPC   C3B50541  34.791  42.135   7.053
 8921POPC   C4B50542  34.746  42.149   7.353
 8922POPC   NC350543  43.905   8.148   5.553
 8922POPC   PO450544  43.935   8.189   5.853
 8922POPC   GL150545  43.906   8.203   6.153
 8922POPC   GL250546  43.724   8.237   6.153
 8922POPC   C1A50547  43.840   8.215   6.453
 8922POPC   D2A50548  43.911   8.221   6.753
 8922POPC   C3A50549  43.878   8.163   7.053
 8922POPC   C4A50550  43.928   8.210   7.353
 8922POPC   C1B50551  43.633   8.316   6.453
 8922POPC   C2B50552  43.659   8.295   6.753
 8922POPC   C3B50553  43.652   8.285   7.053
 8922POPC   C4B50554  43.623   8.284   7.353
 8923POPC   NC350555   2.803  15.171   5.553
 8923POPC   PO450556   2.752  15.182   5.853
 8923POPC   GL150557   2.748  15.206   6.153
 8923POPC   GL250558   2.733  15.268   6.153
 8923POPC   C1A50559   2.752  15.150   6.453
 8923POPC   D2A50560   2.806  15.134   6.753
 8923POPC   C3A50561   2.799  15.162   7.053
 8923POPC   C4A50562   2.803  15.130   7.353
 8923POPC   C1B50563   2.702  15.429   6.453
 8923POPC   C2B50564   2.746  15.465   6.753
 8923POPC   C3B50565   2.758  15.418   7.053
 8923POPC   C4B50566   2.701  15.415   7.353
 8924POPC   NC350567  29.951  16.728   5.553
 8924POPC   PO450568  29.890  16.734   5.853
 8924POPC   GL150569  29.920  16.761   6.153
 8924POPC   GL250570  29.879  16.663   6.153
 8924POPC   C1A50571  29.947  16.738   6.453
 8924POPC   D2A50572  29.919  16.714   6.753
 8924POPC   C3A50573  29.891  16.752   7.053
 8924POPC   C4A50574  29.887  16.726   7.353
 8924POPC   C1B50575  29.750  16.555   6.453
 8924POPC   C2B50576  29.776  16.532   6.753
 8924POPC   C3B50577  29.812  16.502   7.053
 8924POPC   C4B50578  29.770  16.535   7.353
 8925POPC   NC350579  26.808  42.314   5.553
 8925POPC   PO450580  26.776  42.334   5.853
 8925POPC   GL150581  26.824  42.314   6.153
 8925POPC   GL250582  26.900  42.411   6.153
 8925POPC   C1A50583  26.800  42.327   6.453
 8925POPC   D2A50584  26.811  42.300   6.753
 8925POPC   C3A50585  26.841  42.359   7.053
 8925POPC   C4A50586  26.856  42.351   7.353
 8925POPC   C1B50587  27.004  42.502   6.453
 8925POPC   C2B50588  27.064  42.437   6.753
 8925POPC   C3B50589  27.011  42.444   7.053
 8925POPC   C4B50590  27.049  42.425   7.353
 8926POPC   NC350591  22.909  13.606   5.553
 8926POPC   PO450592  22.906  13.648   5.853
 8926POPC   GL150593  22.947  13.641   6.153
 8926POPC   GL250594  23.007  13.677   6.153
 8926POPC   C1A50595  22.951  13.629   6.453
 8926POPC   D2A50596  22.951  13.668   6.753
 8926POPC   C3A50597  22.954  13.677   7.053
 8926POPC   C4A50598  22.907  13.593   7.353
 8926POPC   C1B50599  23.198  13.712   6.453
 8926POPC   C2B50600  23.213  13.746   6.753
 8926POPC   C3B50601  23.172  13.704   7.053
 8926POPC   C4B50602  23.185  13.717   7.353
 8927POPC   NC350603  30.735  37.726   5.553
 8927POPC   PO450604  30.660  37.690   5.853
 8927POPC   GL150605  30.735  37.693   6.153
 8927POPC   GL250606  30.653  37.550   6.153
 8927POPC   C1A50607  30.670  37.670   6.453
 8927POPC   D2A50608  30.731  37.657   6.753
 8927POPC   C3A50609  30.731  37.678   7.053
 8927POPC   C4A50610  30.697  37.647   7.353
 8927POPC   C1B50611  30.659  37.405   6.453
 8927POPC   C2B50612  30.691  37.453   6.753
 8927POPC   C3B50613  30.689  37.452   7.053
 8927POPC   C4B50614  30.695  37.443   7.353
 8928POPC   NC350615  11.315  27.628   5.553
 8928POPC   PO450616  11.316  27.621   5.853
 8928POPC   GL150617  11.332  27.594   6.153
 8928POPC   GL250618  11.409  27.554   6.153
 8928POPC   C1A50619  11.287  27.558   6.453
 8928POPC   D2A50620  11.269  27.575   6.753
 8928POPC   C3A50621  11.257  27.602   7.053
 8928POPC   C4A50622  11.250  27.567   7.353
 8928POPC   C1B50623  11.524  27.526   6.453
 8928POPC   C2B50624  11.508  27.559   6.753
 8928POPC   C3B50625  11.577  27.561   7.053
 8928POPC   C4B50626  11.563  27.549   7.353
 8929POPC   NC350627  14.427   8.205   5.553
 8929POPC   PO450628  14.382   8.242   5.853
 8929POPC   GL150629  14.396   8.233   6.153
 8929POPC   GL250630  14.517   8.244   6.153
 8929POPC   C1A50631  14.359   8.235   6.453
 8929POPC   D2A50632  14.386   8.237   6.753
 8929POPC   C3A50633  14.374   8.191   7.053
 8929POPC   C4A50634  14.370   8.183   7.353
 8929POPC   C1B50635  14.659   8.286   6.453
 8929POPC   C2B50636  14.646   8.303   6.753
 8929POPC   C3B50637  14.657   8.314   7.053
 8929POPC   C4B50638  14.601   8.272   7.353
 8930POPC   NC350639   6.646   0.406   5.553
 8930POPC   PO450640   6.644   0.444   5.853
 8930POPC   GL150641   6.611   0.476   6.153
 8930POPC   GL250642   6.795   0.436   6.153
 8930POPC   C1A50643   6.682   0.453   6.453
 8930POPC   D2A50644   6.644   0.427   6.753
 8930POPC   C3A50645   6.640   0.393   7.053
 8930POPC   C4A50646   6.627   0.477   7.353
 8930POPC   C1B50647   6.880   0.484   6.453
 8930POPC   C2B50648   6.923   0.481   6.753
 8930POPC   C3B50649   6.940   0.497   7.053
 8930POPC   C4B50650   6.907   0.421   7.353
 8931POPC   NC350651  17.493  41.543   5.553
 8931POPC   PO450652  17.487  41.608   5.853
 8931POPC   GL150653  17.487  41.571   6.153
 8931POPC   GL250654  17.385  41.586   6.153
 8931POPC   C1A50655  17.488  41.553   6.453
 8931POPC   D2A50656  17.515  41.532   6.753
 8931POPC   C3A50657  17.517  41.571   7.053
 8931POPC   C4A50658  17.491  41.541   7.353
 8931POPC   C1B50659  17.230  41.609   6.453
 8931POPC   C2B50660  17.229  41.665   6.753
 8931POPC   C3B50661  17.285  41.695   7.053
 8931POPC   C4B50662  17.284  41.694   7.353
 8932POPC   NC350663  43.902  31.458   5.553
 8932POPC   PO450664  43.845  31.464   5.853
 8932POPC   GL150665  43.912  31.451   6.153
 8932POPC   GL250666  43.738  31.540   6.153
 8932POPC   C1A50667  43.839  31.470   6.453
 8932POPC   D2A50668  43.848  31.490   6.753
 8932POPC   C3A50669  43.844  31.507   7.053
 8932POPC   C4A50670  43.889  31.512   7.353
 8932POPC   C1B50671  43.644  31.560   6.453
 8932POPC   C2B50672  43.671  31.592   6.753
 8932POPC   C3B50673  43.626  31.537   7.053
 8932POPC   C4B50674  43.685  31.541   7.353
 8933POPC   NC350675   5.820  36.096   5.553
 8933POPC   PO450676   5.877  36.094   5.853
 8933POPC   GL150677   5.888  36.121   6.153
 8933POPC   GL250678   5.716  36.047   6.153
 8933POPC   C1A50679   5.875  36.085   6.453
 8933POPC   D2A50680   5.880  36.170   6.753
 8933POPC   C3A50681   5.837  36.130   7.053
 8933POPC   C4A50682   5.886  36.169   7.353
 8933POPC   C1B50683   5.653  35.980   6.453
 8933POPC   C2B50684   5.623  36.037   6.753
 8933POPC   C3B50685   5.690  35.989   7.053
 8933POPC   C4B50686   5.660  36.006   7.353
 8934POPC   NC350687  33.765  33.833   5.553
 8934POPC   PO450688  33.775  33.773   5.853
 8934POPC   GL150689  33.763  33.757   6.153
 8934POPC   GL250690  33.885  33.698   6.153
 8934POPC   C1A50691  33.767  33.805   6.453
 8934POPC   D2A50692  33.787  33.763   6.753
 8934POPC   C3A50693  33.761  33.809   7.053
 8934POPC   C4A50694  33.817  33.786   7.353
 8934POPC   C1B50695  33.928  33.541   6.453
 8934POPC   C2B50696  33.928  33.554   6.753
 8934POPC   C3B50697  33.937  33.628   7.053
 8934POPC   C4B50698  33.920  33.609   7.353
 8935POPC   NC350699  19.882  41.584   5.553
 8935POPC   PO450700  19.823  41.571   5.853
 8935POPC   GL150701  19.797  41.559   6.153
 8935POPC   GL250702  19.740  41.596   6.153
 8935POPC   C1A50703  19.833  41.572   6.453
 8935POPC   D2A50704  19.817  41.583   6.753
 8935POPC   C3A50705  19.844  41.589   7.053
 8935POPC   C4A50706  19.825  41.588   7.353
 8935POPC   C1B50707  19.568  41.634   6.453
 8935POPC   C2B50708  19.596  41.599   6.753
 8935POPC   C3B50709  19.592  41.644   7.053
 8935POPC   C4B50710  19.551  41.636   7.353
 8936POPC   NC350711  27.624  40.016   5.553
 8936POPC   PO450712  27.563  40.005   5.853
 8936POPC   GL150713  27.605  39.998   6.153
 8936POPC   GL250714  27.475  40.115   6.153
 8936POPC   C1A50715  27.634  40.021   6.453
 8936POPC   D2A50716  27.595  40.037   6.753
 8936POPC   C3A50717  27.555  40.028   7.053
 8936POPC   C4A50718  27.603  40.025   7.353
 8936POPC   C1B50719  27.388  40.108   6.453
 8936POPC   C2B50720  27.332  40.118   6.753
 8936POPC   C3B50721  27.385  40.158   7.053
 8936POPC   C4B50722  27.334  40.140   7.353
 8937POPC   NC350723  15.135  20.583   5.553
 8937POPC   PO450724  15.206  20.584   5.853
 8937POPC   GL150725  15.130  20.598   6.153
 8937POPC   GL250726  15.078  20.558   6.153
 8937POPC   C1A50727  15.169  20.564   6.453
 8937POPC   D2A50728  15.184  20.607   6.753
 8937POPC   C3A50729  15.152  20.584   7.053
 8937POPC   C4A50730  15.209  20.591   7.353
 8937POPC   C1B50731  14.908  20.602   6.453
 8937POPC   C2B50732  14.928  20.527   6.753
 8937POPC   C3B50733  14.907  20.518   7.053
 8937POPC   C4B50734  14.955  20.570   7.353
 8938POPC   NC350735  26.054  10.563   5.553
 8938POPC   PO450736  26.057  10.515   5.853
 8938POPC   GL150737  26.033  10.534   6.153
 8938POPC   GL250738  25.959  10.451   6.153
 8938POPC   C1A50739  26.079  10.481   6.453
 8938POPC   D2A50740  26.007  10.483   6.753
 8938POPC   C3A50741  26.056  10.534   7.053
 8938POPC   C4A50742  26.041  10.528   7.353
 8938POPC   C1B50743  25.956  10.282   6.453
 8938POPC   C2B50744  25.969  10.281   6.753
 8938POPC   C3B50745  25.947  10.266   7.053
 8938POPC   C4B50746  25.903  10.322   7.353
 8939POPC   NC350747   0.426  25.291   5.553
 8939POPC   PO450748   0.467  25.288   5.853
 8939POPC   GL150749   0.395  25.239   6.153
 8939POPC   GL250750   0.277  25.314   6.153
 8939POPC   C1A50751   0.439  25.301   6.453
 8939POPC   D2A50752   0.439  25.234   6.753
 8939POPC   C3A50753   0.440  25.305   7.053
 8939POPC   C4A50754   0.411  25.238   7.353
 8939POPC   C1B50755   0.180  25.362   6.453
 8939POPC   C2B50756   0.240  25.350   6.753
 8939POPC   C3B50757   0.219  25.318   7.053
 8939POPC   C4B50758   0.170  25.305   7.353
 8940POPC   NC350759  44.662  12.802   5.553
 8940POPC   PO450760  44.637  12.843   5.853
 8940POPC   GL150761  44.651  12.898   6.153
 8940POPC   GL250762  44.572  12.929   6.153
 8940POPC   C1A50763  44.674  12.847   6.453
 8940POPC   D2A50764  44.675  12.828   6.753
 8940POPC   C3A50765  44.655  12.819   7.053
 8940POPC   C4A50766  44.685  12.855   7.353
 8940POPC   C1B50767  44.441  12.897   6.453
 8940POPC   C2B50768  44.435  12.951   6.753
 8940POPC   C3B50769  44.461  12.883   7.053
 8940POPC   C4B50770  44.446  12.899   7.353
 8941POPC   NC350771   5.073  22.918   5.553
 8941POPC   PO450772   5.119  22.891   5.853
 8941POPC   GL150773   5.141  22.934   6.153
 8941POPC   GL250774   5.182  22.971   6.153
 8941POPC   C1A50775   5.106  22.890   6.453
 8941POPC   D2A50776   5.082  22.929   6.753
 8941POPC   C3A50777   5.051  22.949   7.053
 8941POPC   C4A50778   5.105  22.907   7.353
 8941POPC   C1B50779   5.325  23.009   6.453
 8941POPC   C2B50780   5.347  22.945   6.753
 8941POPC   C3B50781   5.331  23.036   7.053
 8941POPC   C4B50782   5.293  22.941   7.353
 8942POPC   NC350783  43.064  36.153   5.553
 8942POPC   PO450784  43.069  36.159   5.853
 8942POPC   GL150785  43.113  36.146   6.153
 8942POPC   GL250786  43.042  36.086   6.153
 8942POPC   C1A50787  43.068  36.131   6.453
 8942POPC   D2A50788  43.095  36.122   6.753
 8942POPC   C3A50789  43.144  36.134   7.053
 8942POPC   C4A50790  43.129  36.134   7.353
 8942POPC   C1B50791  42.970  35.918   6.453
 8942POPC   C2B50792  42.891  35.913   6.753
 8942POPC   C3B50793  42.888  35.949   7.053
 8942POPC   C4B50794  42.951  35.967   7.353
 8943POPC   NC350795  31.490  18.264   5.553
 8943POPC   PO450796  31.483  18.302   5.853
 8943POPC   GL150797  31.519  18.313   6.153
 8943POPC   GL250798  31.370  18.149   6.153
 8943POPC   C1A50799  31.482  18.283   6.453
 8943POPC   D2A50800  31.476  18.318   6.753
 8943POPC   C3A50801  31.502  18.279   7.053
 8943POPC   C4A50802  31.503  18.302   7.353
 8943POPC   C1B50803  31.350  18.104   6.453
 8943POPC   C2B50804  31.294  18.073   6.753
 8943POPC   C3B50805  31.377  18.070   7.053
 8943POPC   C4B50806  31.370  18.062   7.353
 8944POPC   NC350807   7.382  21.341   5.553
 8944POPC   PO450808   7.460  21.374   5.853
 8944POPC   GL150809   7.415  21.407   6.153
 8944POPC   GL250810   7.529  21.420   6.153
 8944POPC   C1A50811   7.412  21.344   6.453
 8944POPC   D2A50812   7.384  21.434   6.753
 8944POPC   C3A50813   7.431  21.386   7.053
 8944POPC   C4A50814   7.405  21.380   7.353
 8944POPC   C1B50815   7.631  21.440   6.453
 8944POPC   C2B50816   7.697  21.499   6.753
 8944POPC   C3B50817   7.703  21.485   7.053
 8944POPC   C4B50818   7.638  21.419   7.353
 8945POPC   NC350819   9.756  29.151   5.553
 8945POPC   PO450820   9.732  29.133   5.853
 8945POPC   GL150821   9.784  29.103   6.153
 8945POPC   GL250822   9.773  29.071   6.153
 8945POPC   C1A50823   9.732  29.117   6.453
 8945POPC   D2A50824   9.747  29.177   6.753
 8945POPC   C3A50825   9.786  29.147   7.053
 8945POPC   C4A50826   9.771  29.141   7.353
 8945POPC   C1B50827   9.835  28.897   6.453
 8945POPC   C2B50828   9.753  28.886   6.753
 8945POPC   C3B50829   9.767  28.947   7.053
 8945POPC   C4B50830   9.769  28.908   7.353
 8946POPC   NC350831  15.939  43.149   5.553
 8946POPC   PO450832  15.921  43.129   5.853
 8946POPC   GL150833  15.971  43.160   6.153
 8946POPC   GL250834  15.924  43.007   6.153
 8946POPC   C1A50835  16.001  43.152   6.453
 8946POPC   D2A50836  15.917  43.081   6.753
 8946POPC   C3A50837  16.004  43.103   7.053
 8946POPC   C4A50838  15.967  43.096   7.353
 8946POPC   C1B50839  15.886  42.880   6.453
 8946POPC   C2B50840  15.829  42.852   6.753
 8946POPC   C3B50841  15.818  42.886   7.053
 8946POPC   C4B50842  15.810  42.919   7.353
 8947POPC   NC350843   7.422  41.511   5.553
 8947POPC   PO450844   7.405  41.521   5.853
 8947POPC   GL150845   7.383  41.543   6.153
 8947POPC   GL250846   7.325  41.652   6.153
 8947POPC   C1A50847   7.385  41.580   6.453
 8947POPC   D2A50848   7.406  41.518   6.753
 8947POPC   C3A50849   7.452  41.543   7.053
 8947POPC   C4A50850   7.391  41.509   7.353
 8947POPC   C1B50851   7.273  41.794   6.453
 8947POPC   C2B50852   7.252  41.706   6.753
 8947POPC   C3B50853   7.262  41.715   7.053
 8947POPC   C4B50854   7.222  41.762   7.353
 8948POPC   NC350855  25.218  40.792   5.553
 8948POPC   PO450856  25.225  40.737   5.853
 8948POPC   GL150857  25.268  40.748   6.153
 8948POPC   GL250858  25.257  40.703   6.153
 8948POPC   C1A50859  25.290  40.785   6.453
 8948POPC   D2A50860  25.232  40.737   6.753
 8948POPC   C3A50861  25.247  40.740   7.053
 8948POPC   C4A50862  25.242  40.790   7.353
 8948POPC   C1B50863  25.179  40.542   6.453
 8948POPC   C2B50864  25.165  40.547   6.753
 8948POPC   C3B50865  25.162  40.576   7.053
 8948POPC   C4B50866  25.179  40.523   7.353
 8949POPC   NC350867  26.785  20.583   5.553
 8949POPC   PO450868  26.807  20.622   5.853
 8949POPC   GL150869  26.832  20.637   6.153
 8949POPC   GL250870  26.874  20.501   6.153
 8949POPC   C1A50871  26.808  20.618   6.453
 8949POPC   D2A50872  26.773  20.658   6.753
 8949POPC   C3A50873  26.865  20.645   7.053
 8949POPC   C4A50874  26.781  20.637   7.353
 8949POPC   C1B50875  26.900  20.364   6.453
 8949POPC   C2B50876  26.886  20.388   6.753
 8949POPC   C3B50877  26.928  20.405   7.053
 8949POPC   C4B50878  26.879  20.408   7.353
 8950POPC   NC350879  21.398  38.459   5.553
 8950POPC   PO450880  21.373  38.433   5.853
 8950POPC   GL150881  21.398  38.493   6.153
 8950POPC   GL250882  21.342  38.342   6.153
 8950POPC   C1A50883  21.353  38.438   6.453
 8950POPC   D2A50884  21.395  38.503   6.753
 8950POPC   C3A50885  21.378  38.482   7.053
 8950POPC   C4A50886  21.431  38.437   7.353
 8950POPC   C1B50887  21.363  38.246   6.453
 8950POPC   C2B50888  21.391  38.249   6.753
 8950POPC   C3B50889  21.392  38.244   7.053
 8950POPC   C4B50890  21.387  38.186   7.353
 8951POPC   NC350891   1.171   6.645   5.553
 8951POPC   PO450892   1.210   6.653   5.853
 8951POPC   GL150893   1.236   6.651   6.153
 8951POPC   GL250894   1.243   6.539   6.153
 8951POPC   C1A50895   1.190   6.633   6.453
 8951POPC   D2A50896   1.206   6.689   6.753
 8951POPC   C3A50897   1.214   6.647   7.053
 8951POPC   C4A50898   1.224   6.684   7.353
 8951POPC   C1B50899   1.307   6.392   6.453
 8951POPC   C2B50900   1.340   6.399   6.753
 8951POPC   C3B50901   1.276   6.456   7.053
 8951POPC   C4B50902   1.284   6.414   7.353
 8952POPC   NC350903  30.709  25.270   5.553
 8952POPC   PO450904  30.736  25.314   5.853
 8952POPC   GL150905  30.679  25.290   6.153
 8952POPC   GL250906  30.832  25.235   6.153
 8952POPC   C1A50907  30.723  25.286   6.453
 8952POPC   D2A50908  30.688  25.289   6.753
 8952POPC   C3A50909  30.704  25.296   7.053
 8952POPC   C4A50910  30.706  25.302   7.353
 8952POPC   C1B50911  30.945  25.289   6.453
 8952POPC   C2B50912  30.898  25.286   6.753
 8952POPC   C3B50913  30.937  25.323   7.053
 8952POPC   C4B50914  30.972  25.262   7.353
 8953POPC   NC350915  38.426  26.789   5.553
 8953POPC   PO450916  38.460  26.857   5.853
 8953POPC   GL150917  38.461  26.786   6.153
 8953POPC   GL250918  38.320  26.848   6.153
 8953POPC   C1A50919  38.482  26.860   6.453
 8953POPC   D2A50920  38.446  26.775   6.753
 8953POPC   C3A50921  38.491  26.815   7.053
 8953POPC   C4A50922  38.427  26.854   7.353
 8953POPC   C1B50923  38.281  26.960   6.453
 8953POPC   C2B50924  38.271  26.902   6.753
 8953POPC   C3B50925  38.251  26.907   7.053
 8953POPC   C4B50926  38.273  26.906   7.353
 8954POPC   NC350927  36.113  38.457   5.553
 8954POPC   PO450928  36.116  38.477   5.853
 8954POPC   GL150929  36.147  38.464   6.153
 8954POPC   GL250930  36.136  38.347   6.153
 8954POPC   C1A50931  36.095  38.497   6.453
 8954POPC   D2A50932  36.165  38.446   6.753
 8954POPC   C3A50933  36.091  38.473   7.053
 8954POPC   C4A50934  36.167  38.494   7.353
 8954POPC   C1B50935  36.044  38.244   6.453
 8954POPC   C2B50936  36.046  38.172   6.753
 8954POPC   C3B50937  36.051  38.171   7.053
 8954POPC   C4B50938  36.033  38.255   7.353
 8955POPC   NC350939  40.776   2.756   5.553
 8955POPC   PO450940  40.748   2.716   5.853
 8955POPC   GL150941  40.772   2.810   6.153
 8955POPC   GL250942  40.755   2.883   6.153
 8955POPC   C1A50943  40.735   2.725   6.453
 8955POPC   D2A50944  40.735   2.792   6.753
 8955POPC   C3A50945  40.825   2.746   7.053
 8955POPC   C4A50946  40.829   2.732   7.353
 8955POPC   C1B50947  40.629   3.001   6.453
 8955POPC   C2B50948  40.684   2.953   6.753
 8955POPC   C3B50949  40.625   2.957   7.053
 8955POPC   C4B50950  40.698   3.025   7.353
 8956POPC   NC350951  35.320  22.208   5.553
 8956POPC   PO450952  35.369  22.178   5.853
 8956POPC   GL150953  35.382  22.182   6.153
 8956POPC   GL250954  35.215  22.137   6.153
 8956POPC   C1A50955  35.393  22.186   6.453
 8956POPC   D2A50956  35.392  22.122   6.753
 8956POPC   C3A50957  35.324  22.202   7.053
 8956POPC   C4A50958  35.396  22.118   7.353
 8956POPC   C1B50959  35.062  22.056   6.453
 8956POPC   C2B50960  35.112  22.083   6.753
 8956POPC   C3B50961  35.110  22.052   7.053
 8956POPC   C4B50962  35.112  22.055   7.353
 8957POPC   NC350963   9.797  23.727   5.553
 8957POPC   PO450964   9.757  23.749   5.853
 8957POPC   GL150965   9.714  23.738   6.153
 8957POPC   GL250966   9.753  23.842   6.153
 8957POPC   C1A50967   9.761  23.682   6.453
 8957POPC   D2A50968   9.723  23.727   6.753
 8957POPC   C3A50969   9.767  23.664   7.053
 8957POPC   C4A50970   9.743  23.702   7.353
 8957POPC   C1B50971   9.890  23.925   6.453
 8957POPC   C2B50972   9.806  23.931   6.753
 8957POPC   C3B50973   9.891  23.928   7.053
 8957POPC   C4B50974   9.880  23.952   7.353
 8958POPC   NC350975  13.660  21.435   5.553
 8958POPC   PO450976  13.671  21.431   5.853
 8958POPC   GL150977  13.640  21.349   6.153
 8958POPC   GL250978  13.508  21.281   6.153
 8958POPC   C1A50979  13.640  21.386   6.453
 8958POPC   D2A50980  13.631  21.430   6.753
 8958POPC   C3A50981  13.633  21.355   7.053
 8958POPC   C4A50982  13.601  21.373   7.353
 8958POPC   C1B50983  13.379  21.287   6.453
 8958POPC   C2B50984  13.440  21.285   6.753
 8958POPC   C3B50985  13.405  21.305   7.053
 8958POPC   C4B50986  13.418  21.254   7.353
 8959POPC   NC350987   1.204  42.347   5.553
 8959POPC   PO450988   1.164  42.353   5.853
 8959POPC   GL150989   1.197  42.344   6.153
 8959POPC   GL250990   1.225  42.448   6.153
 8959POPC   C1A50991   1.248  42.382   6.453
 8959POPC   D2A50992   1.221  42.366   6.753
 8959POPC   C3A50993   1.193  42.317   7.053
 8959POPC   C4A50994   1.240  42.296   7.353
 8959POPC   C1B50995   1.283  42.559   6.453
 8959POPC   C2B50996   1.264  42.615   6.753
 8959POPC   C3B50997   1.266  42.529   7.053
 8959POPC   C4B50998   1.336  42.579   7.353
 8960POPC   NC350999   4.306  29.122   5.553
 8960POPC   PO451000   4.281  29.184   5.853
 8960POPC   GL151001   4.294  29.142   6.153
 8960POPC   GL251002   4.426  29.073   6.153
 8960POPC   C1A51003   4.320  29.155   6.453
 8960POPC   D2A51004   4.342  29.178   6.753
 8960POPC   C3A51005   4.304  29.183   7.053
 8960POPC   C4A51006   4.310  29.158   7.353
 8960POPC   C1B51007   4.418  28.915   6.453
 8960POPC   C2B51008   4.389  28.893   6.753
 8960POPC   C3B51009   4.470  28.944   7.053
 8960POPC   C4B51010   4.396  28.967   7.353
 8961POPC   NC351011  17.503  27.567   5.553
 8961POPC   PO451012  17.532  27.617   5.853
 8961POPC   GL151013  17.523  27.591   6.153
 8961POPC   GL251014  17.547  27.689   6.153
 8961POPC   C1A51015  17.514  27.620   6.453
 8961POPC   D2A51016  17.472  27.559   6.753
 8961POPC   C3A51017  17.491  27.641   7.053
 8961POPC   C4A51018  17.506  27.622   7.353
 8961POPC   C1B51019  17.581  27.793   6.453
 8961POPC   C2B51020  17.558  27.818   6.753
 8961POPC   C3B51021  17.521  27.861   7.053
 8961POPC   C4B51022  17.579  27.874   7.353
 8962POPC   NC351023  24.490   2.773   5.553
 8962POPC   PO451024  24.522   2.746   5.853
 8962POPC   GL151025  24.533   2.723   6.153
 8962POPC   GL251026  24.439   2.851   6.153
 8962POPC   C1A51027  24.455   2.781   6.453
 8962POPC   D2A51028  24.502   2.719   6.753
 8962POPC   C3A51029  24.476   2.753   7.053
 8962POPC   C4A51030  24.498   2.793   7.353
 8962POPC   C1B51031  24.316   2.926   6.453
 8962POPC   C2B51032  24.257   2.933   6.753
 8962POPC   C3B51033  24.287   2.936   7.053
 8962POPC   C4B51034  24.338   2.917   7.353
 8963POPC   NC351035  26.041   8.197   5.553
 8963POPC   PO451036  26.042   8.219   5.853
 8963POPC   GL151037  26.077   8.179   6.153
 8963POPC   GL251038  26.089   8.371   6.153
 8963POPC   C1A51039  26.065   8.232   6.453
 8963POPC   D2A51040  26.011   8.241   6.753
 8963POPC   C3A51041  26.010   8.185   7.053
 8963POPC   C4A51042  26.011   8.159   7.353
 8963POPC   C1B51043  26.052   8.489   6.453
 8963POPC   C2B51044  26.028   8.482   6.753
 8963POPC   C3B51045  26.087   8.414   7.053
 8963POPC   C4B51046  26.041   8.416   7.353
 8964POPC   NC351047  33.757  43.876   5.553
 8964POPC   PO451048  33.843  43.883   5.853
 8964POPC   GL151049  33.793  43.884   6.153
 8964POPC   GL251050  33.893  43.824   6.153
 8964POPC   C1A51051  33.756  43.844   6.453
 8964POPC   D2A51052  33.836  43.853   6.753
 8964POPC   C3A51053  33.826  43.889   7.053
 8964POPC   C4A51054  33.778  43.848   7.353
 8964POPC   C1B51055  33.971  43.709   6.453
 8964POPC   C2B51056  33.937  43.763   6.753
 8964POPC   C3B51057  33.969  43.744   7.053
 8964POPC   C4B51058  34.004  43.762   7.353
 8965POPC   NC351059  28.376  29.955   5.553
 8965POPC   PO451060  28.361  29.956   5.853
 8965POPC   GL151061  28.347  29.894   6.153
 8965POPC   GL251062  28.321  29.854   6.153
 8965POPC   C1A51063  28.323  29.966   6.453
 8965POPC   D2A51064  28.364  29.876   6.753
 8965POPC   C3A51065  28.339  29.948   7.053
 8965POPC   C4A51066  28.328  29.970   7.353
 8965POPC   C1B51067  28.182  29.754   6.453
 8965POPC   C2B51068  28.146  29.769   6.753
 8965POPC   C3B51069  28.222  29.766   7.053
 8965POPC   C4B51070  28.167  29.778   7.353
 8966POPC   NC351071  43.083  23.751   5.553
 8966POPC   PO451072  43.062  23.691   5.853
 8966POPC   GL151073  43.090  23.702   6.153
 8966POPC   GL251074  43.087  23.830   6.153
 8966POPC   C1A51075  43.160  23.715   6.453
 8966POPC   D2A51076  43.085  23.670   6.753
 8966POPC   C3A51077  43.138  23.670   7.053
 8966POPC   C4A51078  43.097  23.702   7.353
 8966POPC   C1B51079  42.990  23.916   6.453
 8966POPC   C2B51080  43.069  23.898   6.753
 8966POPC   C3B51081  43.067  23.956   7.053
 8966POPC   C4B51082  43.042  23.938   7.353
 8967POPC   NC351083   0.450  27.595   5.553
 8967POPC   PO451084   0.452  27.557   5.853
 8967POPC   GL151085   0.389  27.596   6.153
 8967POPC   GL251086   0.541  27.609   6.153
 8967POPC   C1A51087   0.428  27.556   6.453
 8967POPC   D2A51088   0.464  27.591   6.753
 8967POPC   C3A51089   0.434  27.621   7.053
 8967POPC   C4A51090   0.415  27.593   7.353
 8967POPC   C1B51091   0.675  27.622   6.453
 8967POPC   C2B51092   0.719  27.640   6.753
 8967POPC   C3B51093   0.668  27.692   7.053
 8967POPC   C4B51094   0.663  27.649   7.353
 8968POPC   NC351095  39.206  17.533   5.553
 8968POPC   PO451096  39.272  17.552   5.853
 8968POPC   GL151097  39.275  17.553   6.153
 8968POPC   GL251098  39.322  17.359   6.153
 8968POPC   C1A51099  39.246  17.478   6.453
 8968POPC   D2A51100  39.196  17.557   6.753
 8968POPC   C3A51101  39.271  17.540   7.053
 8968POPC   C4A51102  39.183  17.490   7.353
 8968POPC   C1B51103  39.336  17.262   6.453
 8968POPC   C2B51104  39.336  17.233   6.753
 8968POPC   C3B51105  39.355  17.241   7.053
 8968POPC   C4B51106  39.344  17.287   7.353
 8969POPC   NC351107  21.403  26.804   5.553
 8969POPC   PO451108  21.342  26.802   5.853
 8969POPC   GL151109  21.372  26.839   6.153
 8969POPC   GL251110  21.528  26.729   6.153
 8969POPC   C1A51111  21.417  26.856   6.453
 8969POPC   D2A51112  21.393  26.839   6.753
 8969POPC   C3A51113  21.408  26.796   7.053
 8969POPC   C4A51114  21.436  26.846   7.353
 8969POPC   C1B51115  21.593  26.659   6.453
 8969POPC   C2B51116  21.587  26.621   6.753
 8969POPC   C3B51117  21.547  26.697   7.053
 8969POPC   C4B51118  21.584  26.680   7.353
 8970POPC   NC351119  37.660   5.892   5.553
 8970POPC   PO451120  37.657   5.878   5.853
 8970POPC   GL151121  37.674   5.820   6.153
 8970POPC   GL251122  37.588   5.804   6.153
 8970POPC   C1A51123  37.649   5.866   6.453
 8970POPC   D2A51124  37.722   5.854   6.753
 8970POPC   C3A51125  37.667   5.830   7.053
 8970POPC   C4A51126  37.638   5.890   7.353
 8970POPC   C1B51127  37.474   5.730   6.453
 8970POPC   C2B51128  37.466   5.778   6.753
 8970POPC   C3B51129  37.440   5.740   7.053
 8970POPC   C4B51130  37.464   5.696   7.353
 8971POPC   NC351131   1.970  15.212   5.553
 8971POPC   PO451132   1.989  15.143   5.853
 8971POPC   GL151133   1.973  15.134   6.153
 8971POPC   GL251134   2.117  15.222   6.153
 8971POPC   C1A51135   1.973  15.205   6.453
 8971POPC   D2A51136   1.973  15.221   6.753
 8971POPC   C3A51137   1.971  15.216   7.053
 8971POPC   C4A51138   2.010  15.189   7.353
 8971POPC   C1B51139   2.250  15.224   6.453
 8971POPC   C2B51140   2.264  15.248   6.753
 8971POPC   C3B51141   2.189  15.270   7.053
 8971POPC   C4B51142   2.228  15.241   7.353
 8972POPC   NC351143   3.508  20.567   5.553
 8972POPC   PO451144   3.572  20.584   5.853
 8972POPC   GL151145   3.538  20.627   6.153
 8972POPC   GL251146   3.581  20.779   6.153
 8972POPC   C1A51147   3.547  20.569   6.453
 8972POPC   D2A51148   3.570  20.659   6.753
 8972POPC   C3A51149   3.494  20.629   7.053
 8972POPC   C4A51150   3.565  20.606   7.353
 8972POPC   C1B51151   3.629  20.816   6.453
 8972POPC   C2B51152   3.604  20.887   6.753
 8972POPC   C3B51153   3.564  20.843   7.053
 8972POPC   C4B51154   3.625  20.897   7.353
 8973POPC   NC351155  28.380  27.613   5.553
 8973POPC   PO451156  28.325  27.587   5.853
 8973POPC   GL151157  28.385  27.613   6.153
 8973POPC   GL251158  28.290  27.699   6.153
 8973POPC   C1A51159  28.350  27.641   6.453
 8973POPC   D2A51160  28.351  27.591   6.753
 8973POPC   C3A51161  28.379  27.602   7.053
 8973POPC   C4A51162  28.334  27.600   7.353
 8973POPC   C1B51163  28.186  27.757   6.453
 8973POPC   C2B51164  28.206  27.771   6.753
 8973POPC   C3B51165  28.210  27.741   7.053
 8973POPC   C4B51166  28.222  27.713   7.353
 8974POPC   NC351167  29.117   7.424   5.553
 8974POPC   PO451168  29.173   7.428   5.853
 8974POPC   GL151169  29.184   7.421   6.153
 8974POPC   GL251170  29.257   7.347   6.153
 8974POPC   C1A51171  29.153   7.425   6.453
 8974POPC   D2A51172  29.114   7.467   6.753
 8974POPC   C3A51173  29.141   7.464   7.053
 8974POPC   C4A51174  29.103   7.438   7.353
 8974POPC   C1B51175  29.313   7.214   6.453
 8974POPC   C2B51176  29.265   7.205   6.753
 8974POPC   C3B51177  29.239   7.258   7.053
 8974POPC   C4B51178  29.274   7.189   7.353
 8975POPC   NC351179  43.886   9.723   5.553
 8975POPC   PO451180  43.922   9.786   5.853
 8975POPC   GL151181  43.857   9.723   6.153
 8975POPC   GL251182  43.994   9.705   6.153
 8975POPC   C1A51183  43.880   9.704   6.453
 8975POPC   D2A51184  43.863   9.778   6.753
 8975POPC   C3A51185  43.868   9.774   7.053
 8975POPC   C4A51186  43.913   9.707   7.353
 8975POPC   C1B51187  44.136   9.717   6.453
 8975POPC   C2B51188  44.165   9.747   6.753
 8975POPC   C3B51189  44.094   9.740   7.053
 8975POPC   C4B51190  44.082   9.673   7.353
 8976POPC   NC351191  41.516  43.157   5.553
 8976POPC   PO451192  41.553  43.134   5.853
 8976POPC   GL151193  41.594  43.118   6.153
 8976POPC   GL251194  41.563  42.936   6.153
 8976POPC   C1A51195  41.519  43.105   6.453
 8976POPC   D2A51196  41.561  43.060   6.753
 8976POPC   C3A51197  41.543  43.128   7.053
 8976POPC   C4A51198  41.574  43.104   7.353
 8976POPC   C1B51199  41.508  42.904   6.453
 8976POPC   C2B51200  41.502  42.834   6.753
 8976POPC   C3B51201  41.537  42.832   7.053
 8976POPC   C4B51202  41.504  42.904   7.353
 8977POPC   NC351203  12.120   4.324   5.553
 8977POPC   PO451204  12.028   4.364   5.853
 8977POPC   GL151205  12.072   4.279   6.153
 8977POPC   GL251206  12.194   4.357   6.153
 8977POPC   C1A51207  12.073   4.299   6.453
 8977POPC   D2A51208  12.116   4.289   6.753
 8977POPC   C3A51209  12.050   4.294   7.053
 8977POPC   C4A51210  12.100   4.318   7.353
 8977POPC   C1B51211  12.272   4.410   6.453
 8977POPC   C2B51212  12.279   4.444   6.753
 8977POPC   C3B51213  12.325   4.430   7.053
 8977POPC   C4B51214  12.276   4.463   7.353
 8978POPC   NC351215  35.347  12.813   5.553
 8978POPC   PO451216  35.389  12.902   5.853
 8978POPC   GL151217  35.391  12.880   6.153
 8978POPC   GL251218  35.433  12.728   6.153
 8978POPC   C1A51219  35.391  12.872   6.453
 8978POPC   D2A51220  35.370  12.882   6.753
 8978POPC   C3A51221  35.387  12.849   7.053
 8978POPC   C4A51222  35.337  12.877   7.353
 8978POPC   C1B51223  35.411  12.602   6.453
 8978POPC   C2B51224  35.455  12.623   6.753
 8978POPC   C3B51225  35.411  12.637   7.053
 8978POPC   C4B51226  35.503  12.635   7.353
 8979POPC   NC351227   3.525  36.087   5.553
 8979POPC   PO451228   3.570  36.085   5.853
 8979POPC   GL151229   3.577  36.147   6.153
 8979POPC   GL251230   3.380  36.070   6.153
 8979POPC   C1A51231   3.559  36.168   6.453
 8979POPC   D2A51232   3.538  36.079   6.753
 8979POPC   C3A51233   3.538  36.160   7.053
 8979POPC   C4A51234   3.572  36.160   7.353
 8979POPC   C1B51235   3.335  36.133   6.453
 8979POPC   C2B51236   3.303  36.139   6.753
 8979POPC   C3B51237   3.295  36.112   7.053
 8979POPC   C4B51238   3.336  36.128   7.353
 8980POPC   NC351239  39.259  21.362   5.553
 8980POPC   PO451240  39.257  21.357   5.853
 8980POPC   GL151241  39.249  21.398   6.153
 8980POPC   GL251242  39.268  21.529   6.153
 8980POPC   C1A51243  39.267  21.384   6.453
 8980POPC   D2A51244  39.215  21.414   6.753
 8980POPC   C3A51245  39.185  21.383   7.053
 8980POPC   C4A51246  39.209  21.404   7.353
 8980POPC   C1B51247  39.297  21.602   6.453
 8980POPC   C2B51248  39.326  21.635   6.753
 8980POPC   C3B51249  39.342  21.588   7.053
 8980POPC   C4B51250  39.272  21.664   7.353
 8981POPC   NC351251  18.325  23.724   5.553
 8981POPC   PO451252  18.317  23.686   5.853
 8981POPC   GL151253  18.287  23.715   6.153
 8981POPC   GL251254  18.174  23.828   6.153
 8981POPC   C1A51255  18.272  23.746   6.453
 8981POPC   D2A51256  18.242  23.762   6.753
 8981POPC   C3A51257  18.294  23.709   7.053
 8981POPC   C4A51258  18.266  23.721   7.353
 8981POPC   C1B51259  18.105  23.926   6.453
 8981POPC   C2B51260  18.116  23.910   6.753
 8981POPC   C3B51261  18.054  23.911   7.053
 8981POPC   C4B51262  18.099  23.901   7.353
 8982POPC   NC351263  12.851  40.786   5.553
 8982POPC   PO451264  12.853  40.781   5.853
 8982POPC   GL151265  12.842  40.823   6.153
 8982POPC   GL251266  12.844  40.703   6.153
 8982POPC   C1A51267  12.869  40.764   6.453
 8982POPC   D2A51268  12.840  40.817   6.753
 8982POPC   C3A51269  12.863  40.815   7.053
 8982POPC   C4A51270  12.847  40.764   7.353
 8982POPC   C1B51271  12.761  40.535   6.453
 8982POPC   C2B51272  12.766  40.538   6.753
 8982POPC   C3B51273  12.781  40.512   7.053
 8982POPC   C4B51274  12.761  40.582   7.353
 8983POPC   NC351275  42.333  10.537   5.553
 8983POPC   PO451276  42.357  10.516   5.853
 8983POPC   GL151277  42.325  10.522   6.153
 8983POPC   GL251278  42.280  10.600   6.153
 8983POPC   C1A51279  42.377  10.484   6.453
 8983POPC   D2A51280  42.348  10.572   6.753
 8983POPC   C3A51281  42.360  10.573   7.053
 8983POPC   C4A51282  42.372  10.519   7.353
 8983POPC   C1B51283  42.225  10.686   6.453
 8983POPC   C2B51284  42.170  10.676   6.753
 8983POPC   C3B51285  42.142  10.731   7.053
 8983POPC   C4B51286  42.191  10.690   7.353
 8984POPC   NC351287  40.007  25.276   5.553
 8984POPC   PO451288  40.025  25.283   5.853
 8984POPC   GL151289  40.035  25.257   6.153
 8984POPC   GL251290  40.154  25.269   6.153
 8984POPC   C1A51291  40.052  25.223   6.453
 8984POPC   D2A51292  40.029  25.298   6.753
 8984POPC   C3A51293  39.987  25.216   7.053
 8984POPC   C4A51294  39.961  25.236   7.353
 8984POPC   C1B51295  40.199  25.146   6.453
 8984POPC   C2B51296  40.253  25.232   6.753
 8984POPC   C3B51297  40.293  25.209   7.053
 8984POPC   C4B51298  40.291  25.234   7.353
 8985POPC   NC351299  20.607  26.773   5.553
 8985POPC   PO451300  20.586  26.802   5.853
 8985POPC   GL151301  20.576  26.812   6.153
 8985POPC   GL251302  20.572  26.896   6.153
 8985POPC   C1A51303  20.654  26.795   6.453
 8985POPC   D2A51304  20.640  26.813   6.753
 8985POPC   C3A51305  20.563  26.842   7.053
 8985POPC   C4A51306  20.613  26.782   7.353
 8985POPC   C1B51307  20.647  27.042   6.453
 8985POPC   C2B51308  20.601  27.045   6.753
 8985POPC   C3B51309  20.582  27.080   7.053
 8985POPC   C4B51310  20.597  27.034   7.353
 8986POPC   NC351311   8.963  34.605   5.553
 8986POPC   PO451312   8.962  34.532   5.853
 8986POPC   GL151313   8.924  34.577   6.153
 8986POPC   GL251314   9.072  34.522   6.153
 8986POPC   C1A51315   8.942  34.581   6.453
 8986POPC   D2A51316   8.992  34.618   6.753
 8986POPC   C3A51317   8.982  34.575   7.053
 8986POPC   C4A51318   8.933  34.553   7.353
 8986POPC   C1B51319   9.159  34.424   6.453
 8986POPC   C2B51320   9.130  34.414   6.753
 8986POPC   C3B51321   9.165  34.452   7.053
 8986POPC   C4B51322   9.145  34.439   7.353
 8987POPC   NC351323   9.010  33.051   5.553
 8987POPC   PO451324   8.946  32.985   5.853
 8987POPC   GL151325   8.951  32.976   6.153
 8987POPC   GL251326   9.075  32.977   6.153
 8987POPC   C1A51327   8.969  33.052   6.453
 8987POPC   D2A51328   8.956  33.000   6.753
 8987POPC   C3A51329   8.929  32.999   7.053
 8987POPC   C4A51330   8.961  33.017   7.353
 8987POPC   C1B51331   9.255  33.021   6.453
 8987POPC   C2B51332   9.228  32.987   6.753
 8987POPC   C3B51333   9.192  32.927   7.053
 8987POPC   C4B51334   9.246  32.972   7.353
 8988POPC   NC351335   8.196  24.501   5.553
 8988POPC   PO451336   8.192  24.523   5.853
 8988POPC   GL151337   8.157  24.483   6.153
 8988POPC   GL251338   8.077  24.360   6.153
 8988POPC   C1A51339   8.185  24.509   6.453
 8988POPC   D2A51340   8.223  24.476   6.753
 8988POPC   C3A51341   8.212  24.475   7.053
 8988POPC   C4A51342   8.189  24.530   7.353
 8988POPC   C1B51343   7.978  24.357   6.453
 8988POPC   C2B51344   7.984  24.274   6.753
 8988POPC   C3B51345   7.973  24.280   7.053
 8988POPC   C4B51346   8.068  24.280   7.353
 8989POPC   NC351347  16.712  43.924   5.553
 8989POPC   PO451348  16.777  43.880   5.853
 8989POPC   GL151349  16.687  43.913   6.153
 8989POPC   GL251350  16.832  43.782   6.153
 8989POPC   C1A51351  16.694  43.917   6.453
 8989POPC   D2A51352  16.689  43.888   6.753
 8989POPC   C3A51353  16.741  43.906   7.053
 8989POPC   C4A51354  16.684  43.860   7.353
 8989POPC   C1B51355  16.947  43.729   6.453
 8989POPC   C2B51356  16.887  43.741   6.753
 8989POPC   C3B51357  16.956  43.743   7.053
 8989POPC   C4B51358  16.864  43.693   7.353
 8990POPC   NC351359  37.715  43.845   5.553
 8990POPC   PO451360  37.641  43.930   5.853
 8990POPC   GL151361  37.719  43.892   6.153
 8990POPC   GL251362  37.788  43.814   6.153
 8990POPC   C1A51363  37.651  43.871   6.453
 8990POPC   D2A51364  37.631  43.865   6.753
 8990POPC   C3A51365  37.671  43.863   7.053
 8990POPC   C4A51366  37.691  43.890   7.353
 8990POPC   C1B51367  37.878  43.666   6.453
 8990POPC   C2B51368  37.879  43.724   6.753
 8990POPC   C3B51369  37.855  43.678   7.053
 8990POPC   C4B51370  37.871  43.736   7.353
 8991POPC   NC351371  21.346   1.194   5.553
 8991POPC   PO451372  21.410   1.168   5.853
 8991POPC   GL151373  21.338   1.193   6.153
 8991POPC   GL251374  21.318   1.133   6.153
 8991POPC   C1A51375  21.340   1.222   6.453
 8991POPC   D2A51376  21.387   1.171   6.753
 8991POPC   C3A51377  21.382   1.234   7.053
 8991POPC   C4A51378  21.368   1.190   7.353
 8991POPC   C1B51379  21.228   0.965   6.453
 8991POPC   C2B51380  21.258   0.959   6.753
 8991POPC   C3B51381  21.248   1.016   7.053
 8991POPC   C4B51382  21.299   0.972   7.353
 8992POPC   NC351383  23.757  31.513   5.553
 8992POPC   PO451384  23.710  31.428   5.853
 8992POPC   GL151385  23.671  31.476   6.153
 8992POPC   GL251386  23.646  31.347   6.153
 8992POPC   C1A51387  23.698  31.437   6.453
 8992POPC   D2A51388  23.721  31.486   6.753
 8992POPC   C3A51389  23.747  31.509   7.053
 8992POPC   C4A51390  23.687  31.474   7.353
 8992POPC   C1B51391  23.665  31.231   6.453
 8992POPC   C2B51392  23.673  31.274   6.753
 8992POPC   C3B51393  23.619  31.242   7.053
 8992POPC   C4B51394  23.642  31.222   7.353
 8993POPC   NC351395  30.716  38.466   5.553
 8993POPC   PO451396  30.710  38.406   5.853
 8993POPC   GL151397  30.734  38.446   6.153
 8993POPC   GL251398  30.621  38.440   6.153
 8993POPC   C1A51399  30.728  38.481   6.453
 8993POPC   D2A51400  30.736  38.456   6.753
 8993POPC   C3A51401  30.738  38.444   7.053
 8993POPC   C4A51402  30.692  38.502   7.353
 8993POPC   C1B51403  30.488  38.470   6.453
 8993POPC   C2B51404  30.454  38.419   6.753
 8993POPC   C3B51405  30.402  38.462   7.053
 8993POPC   C4B51406  30.452  38.425   7.353
 8994POPC   NC351407  25.998  13.676   5.553
 8994POPC   PO451408  26.055  13.655   5.853
 8994POPC   GL151409  25.993  13.643   6.153
 8994POPC   GL251410  25.901  13.602   6.153
 8994POPC   C1A51411  26.068  13.643   6.453
 8994POPC   D2A51412  26.042  13.600   6.753
 8994POPC   C3A51413  26.011  13.593   7.053
 8994POPC   C4A51414  26.028  13.608   7.353
 8994POPC   C1B51415  25.844  13.700   6.453
 8994POPC   C2B51416  25.762  13.645   6.753
 8994POPC   C3B51417  25.842  13.695   7.053
 8994POPC   C4B51418  25.803  13.663   7.353
 8995POPC   NC351419  19.788   4.315   5.553
 8995POPC   PO451420  19.877   4.311   5.853
 8995POPC   GL151421  19.824   4.280   6.153
 8995POPC   GL251422  19.866   4.146   6.153
 8995POPC   C1A51423  19.816   4.320   6.453
 8995POPC   D2A51424  19.814   4.267   6.753
 8995POPC   C3A51425  19.861   4.277   7.053
 8995POPC   C4A51426  19.830   4.320   7.353
 8995POPC   C1B51427  19.765   4.048   6.453
 8995POPC   C2B51428  19.777   4.023   6.753
 8995POPC   C3B51429  19.799   4.065   7.053
 8995POPC   C4B51430  19.818   4.055   7.353
 8996POPC   NC351431  10.538  42.297   5.553
 8996POPC   PO451432  10.528  42.306   5.853
 8996POPC   GL151433  10.537  42.356   6.153
 8996POPC   GL251434  10.602  42.358   6.153
 8996POPC   C1A51435  10.573  42.370   6.453
 8996POPC   D2A51436  10.499  42.347   6.753
 8996POPC   C3A51437  10.532  42.336   7.053
 8996POPC   C4A51438  10.565  42.354   7.353
 8996POPC   C1B51439  10.762  42.407   6.453
 8996POPC   C2B51440  10.723  42.441   6.753
 8996POPC   C3B51441  10.801  42.421   7.053
 8996POPC   C4B51442  10.742  42.402   7.353
 8997POPC   NC351443   9.796  10.509   5.553
 8997POPC   PO451444   9.750  10.570   5.853
 8997POPC   GL151445   9.747  10.539   6.153
 8997POPC   GL251446   9.749  10.414   6.153
 8997POPC   C1A51447   9.766  10.568   6.453
 8997POPC   D2A51448   9.727  10.482   6.753
 8997POPC   C3A51449   9.748  10.565   7.053
 8997POPC   C4A51450   9.764  10.522   7.353
 8997POPC   C1B51451   9.727  10.238   6.453
 8997POPC   C2B51452   9.711  10.272   6.753
 8997POPC   C3B51453   9.775  10.250   7.053
 8997POPC   C4B51454   9.807  10.229   7.353
 8998POPC   NC351455  28.339  16.700   5.553
 8998POPC   PO451456  28.328  16.734   5.853
 8998POPC   GL151457  28.381  16.711   6.153
 8998POPC   GL251458  28.495  16.654   6.153
 8998POPC   C1A51459  28.411  16.721   6.453
 8998POPC   D2A51460  28.331  16.711   6.753
 8998POPC   C3A51461  28.331  16.684   7.053
 8998POPC   C4A51462  28.348  16.717   7.353
 8998POPC   C1B51463  28.635  16.653   6.453
 8998POPC   C2B51464  28.590  16.609   6.753
 8998POPC   C3B51465  28.620  16.629   7.053
 8998POPC   C4B51466  28.570  16.654   7.353
 8999POPC   NC351467  40.032  31.441   5.553
 8999POPC   PO451468  40.003  31.457   5.853
 8999POPC   GL151469  39.995  31.449   6.153
 8999POPC   GL251470  40.025  31.628   6.153
 8999POPC   C1A51471  40.014  31.473   6.453
 8999POPC   D2A51472  40.008  31.436   6.753
 8999POPC   C3A51473  39.973  31.442   7.053
 8999POPC   C4A51474  39.996  31.522   7.353
 8999POPC   C1B51475  39.981  31.701   6.453
 8999POPC   C2B51476  39.941  31.730   6.753
 8999POPC   C3B51477  39.986  31.688   7.053
 8999POPC   C4B51478  39.981  31.718   7.353
 9000POPC   NC351479   4.313   8.997   5.553
 9000POPC   PO451480   4.310   9.012   5.853
 9000POPC   GL151481   4.340   8.988   6.153
 9000POPC   GL251482   4.446   8.989   6.153
 9000POPC   C1A51483   4.277   8.960   6.453
 9000POPC   D2A51484   4.360   9.010   6.753
 9000POPC   C3A51485   4.304   8.936   7.053
 9000POPC   C4A51486   4.300   9.012   7.353
 9000POPC   C1B51487   4.557   8.881   6.453
 9000POPC   C2B51488   4.564   8.932   6.753
 9000POPC   C3B51489   4.584   8.956   7.053
 9000POPC   C4B51490   4.607   8.962   7.353
 9001POPC   NC351491  43.142  44.637   5.553
 9001POPC   PO451492  43.079  44.671   5.853
 9001POPC   GL151493  43.120  44.620   6.153
 9001POPC   GL251494  43.014  44.613   6.153
 9001POPC   C1A51495  43.100  44.633   6.453
 9001POPC   D2A51496  43.151  44.693   6.753
 9001POPC   C3A51497  43.097  44.667   7.053
 9001POPC   C4A51498  43.061  44.681   7.353
 9001POPC   C1B51499  42.897  44.578   6.453
 9001POPC   C2B51500  42.846  44.634   6.753
 9001POPC   C3B51501  42.912  44.568   7.053
 9001POPC   C4B51502  42.900  44.655   7.353
 9002POPC   NC351503  16.706  26.776   5.553
 9002POPC   PO451504  16.750  26.866   5.853
 9002POPC   GL151505  16.774  26.800   6.153
 9002POPC   GL251506  16.574  26.732   6.153
 9002POPC   C1A51507  16.771  26.808   6.453
 9002POPC   D2A51508  16.773  26.807   6.753
 9002POPC   C3A51509  16.690  26.858   7.053
 9002POPC   C4A51510  16.758  26.844   7.353
 9002POPC   C1B51511  16.488  26.682   6.453
 9002POPC   C2B51512  16.502  26.701   6.753
 9002POPC   C3B51513  16.520  26.706   7.053
 9002POPC   C4B51514  16.492  26.743   7.353
 9003POPC   NC351515  22.183  21.415   5.553
 9003POPC   PO451516  22.120  21.346   5.853
 9003POPC   GL151517  22.150  21.429   6.153
 9003POPC   GL251518  22.294  21.370   6.153
 9003POPC   C1A51519  22.204  21.383   6.453
 9003POPC   D2A51520  22.168  21.380   6.753
 9003POPC   C3A51521  22.174  21.382   7.053
 9003POPC   C4A51522  22.198  21.362   7.353
 9003POPC   C1B51523  22.429  21.372   6.453
 9003POPC   C2B51524  22.413  21.395   6.753
 9003POPC   C3B51525  22.385  21.421   7.053
 9003POPC   C4B51526  22.383  21.440   7.353
 9004POPC   NC351527   2.014   9.779   5.553
 9004POPC   PO451528   1.992   9.744   5.853
 9004POPC   GL151529   1.981   9.716   6.153
 9004POPC   GL251530   2.069   9.865   6.153
 9004POPC   C1A51531   1.945   9.797   6.453
 9004POPC   D2A51532   1.963   9.751   6.753
 9004POPC   C3A51533   1.958   9.741   7.053
 9004POPC   C4A51534   1.962   9.724   7.353
 9004POPC   C1B51535   2.215   9.938   6.453
 9004POPC   C2B51536   2.177   9.933   6.753
 9004POPC   C3B51537   2.190   9.891   7.053
 9004POPC   C4B51538   2.196   9.870   7.353
 9005POPC   NC351539   9.718  22.202   5.553
 9005POPC   PO451540   9.780  22.183   5.853
 9005POPC   GL151541   9.780  22.125   6.153
 9005POPC   GL251542   9.714  22.305   6.153
 9005POPC   C1A51543   9.707  22.113   6.453
 9005POPC   D2A51544   9.710  22.118   6.753
 9005POPC   C3A51545   9.709  22.165   7.053
 9005POPC   C4A51546   9.701  22.112   7.353
 9005POPC   C1B51547   9.763  22.374   6.453
 9005POPC   C2B51548   9.743  22.430   6.753
 9005POPC   C3B51549   9.770  22.461   7.053
 9005POPC   C4B51550   9.745  22.391   7.353
 9006POPC   NC351551  27.607  43.870   5.553
 9006POPC   PO451552  27.637  43.908   5.853
 9006POPC   GL151553  27.616  43.922   6.153
 9006POPC   GL251554  27.736  43.871   6.153
 9006POPC   C1A51555  27.572  43.889   6.453
 9006POPC   D2A51556  27.625  43.871   6.753
 9006POPC   C3A51557  27.548  43.901   7.053
 9006POPC   C4A51558  27.587  43.855   7.353
 9006POPC   C1B51559  27.785  43.843   6.453
 9006POPC   C2B51560  27.782  43.760   6.753
 9006POPC   C3B51561  27.838  43.754   7.053
 9006POPC   C4B51562  27.841  43.811   7.353
 9007POPC   NC351563  32.257  19.068   5.553
 9007POPC   PO451564  32.276  19.095   5.853
 9007POPC   GL151565  32.290  19.034   6.153
 9007POPC   GL251566  32.206  18.889   6.153
 9007POPC   C1A51567  32.296  19.051   6.453
 9007POPC   D2A51568  32.207  19.064   6.753
 9007POPC   C3A51569  32.239  19.017   7.053
 9007POPC   C4A51570  32.204  19.033   7.353
 9007POPC   C1B51571  32.270  18.809   6.453
 9007POPC   C2B51572  32.252  18.851   6.753
 9007POPC   C3B51573  32.238  18.825   7.053
 9007POPC   C4B51574  32.240  18.785   7.353
 9008POPC   NC351575   6.642   5.123   5.553
 9008POPC   PO451576   6.631   5.099   5.853
 9008POPC   GL151577   6.634   5.050   6.153
 9008POPC   GL251578   6.552   4.945   6.153
 9008POPC   C1A51579   6.672   5.112   6.453
 9008POPC   D2A51580   6.676   5.134   6.753
 9008POPC   C3A51581   6.604   5.092   7.053
 9008POPC   C4A51582   6.653   5.048   7.353
 9008POPC   C1B51583   6.579   4.904   6.453
 9008POPC   C2B51584   6.524   4.839   6.753
 9008POPC   C3B51585   6.582   4.849   7.053
 9008POPC   C4B51586   6.509   4.905   7.353
 9009POPC   NC351587  37.727  40.756   5.553
 9009POPC   PO451588  37.727  40.821   5.853
 9009POPC   GL151589  37.713  40.740   6.153
 9009POPC   GL251590  37.628  40.688   6.153
 9009POPC   C1A51591  37.683  40.764   6.453
 9009POPC   D2A51592  37.677  40.805   6.753
 9009POPC   C3A51593  37.658  40.798   7.053
 9009POPC   C4A51594  37.691  40.775   7.353
 9009POPC   C1B51595  37.539  40.593   6.453
 9009POPC   C2B51596  37.474  40.650   6.753
 9009POPC   C3B51597  37.471  40.651   7.053
 9009POPC   C4B51598  37.509  40.590   7.353
 9010POPC   NC351599  39.966  19.838   5.553
 9010POPC   PO451600  39.992  19.817   5.853
 9010POPC   GL151601  39.972  19.855   6.153
 9010POPC   GL251602  40.000  19.748   6.153
 9010POPC   C1A51603  40.006  19.792   6.453
 9010POPC   D2A51604  39.997  19.787   6.753
 9010POPC   C3A51605  39.959  19.785   7.053
 9010POPC   C4A51606  40.005  19.882   7.353
 9010POPC   C1B51607  39.911  19.592   6.453
 9010POPC   C2B51608  39.916  19.619   6.753
 9010POPC   C3B51609  39.974  19.549   7.053
 9010POPC   C4B51610  39.954  19.597   7.353
 9011POPC   NC351611  27.552  10.484   5.553
 9011POPC   PO451612  27.565  10.498   5.853
 9011POPC   GL151613  27.552  10.505   6.153
 9011POPC   GL251614  27.699  10.511   6.153
 9011POPC   C1A51615  27.597  10.506   6.453
 9011POPC   D2A51616  27.580  10.556   6.753
 9011POPC   C3A51617  27.554  10.516   7.053
 9011POPC   C4A51618  27.590  10.557   7.353
 9011POPC   C1B51619  27.776  10.480   6.453
 9011POPC   C2B51620  27.837  10.441   6.753
 9011POPC   C3B51621  27.825  10.451   7.053
 9011POPC   C4B51622  27.823  10.473   7.353
 9012POPC   NC351623  44.699  15.909   5.553
 9012POPC   PO451624  44.621  15.915   5.853
 9012POPC   GL151625  44.635  15.956   6.153
 9012POPC   GL251626  44.693  15.834   6.153
 9012POPC   C1A51627  44.615  15.906   6.453
 9012POPC   D2A51628  44.700  15.956   6.753
 9012POPC   C3A51629  44.693  15.908   7.053
 9012POPC   C4A51630  44.698  15.967   7.353
 9012POPC   C1B51631  44.786  15.714   6.453
 9012POPC   C2B51632  44.766  15.741   6.753
 9012POPC   C3B51633  44.779  15.784   7.053
 9012POPC   C4B51634  44.816  15.775   7.353
 9013POPC   NC351635  38.430   0.460   5.553
 9013POPC   PO451636  38.436   0.415   5.853
 9013POPC   GL151637  38.459   0.436   6.153
 9013POPC   GL251638  38.337   0.554   6.153
 9013POPC   C1A51639  38.441   0.407   6.453
 9013POPC   D2A51640  38.489   0.483   6.753
 9013POPC   C3A51641  38.463   0.453   7.053
 9013POPC   C4A51642  38.494   0.437   7.353
 9013POPC   C1B51643  38.225   0.541   6.453
 9013POPC   C2B51644  38.261   0.538   6.753
 9013POPC   C3B51645  38.284   0.561   7.053
 9013POPC   C4B51646  38.244   0.595   7.353
 9014POPC   NC351647   3.503  42.334   5.553
 9014POPC   PO451648   3.500  42.333   5.853
 9014POPC   GL151649   3.569  42.368   6.153
 9014POPC   GL251650   3.490  42.427   6.153
 9014POPC   C1A51651   3.576  42.366   6.453
 9014POPC   D2A51652   3.537  42.287   6.753
 9014POPC   C3A51653   3.503  42.374   7.053
 9014POPC   C4A51654   3.524  42.374   7.353
 9014POPC   C1B51655   3.514  42.613   6.453
 9014POPC   C2B51656   3.442  42.582   6.753
 9014POPC   C3B51657   3.500  42.558   7.053
 9014POPC   C4B51658   3.511  42.555   7.353
 9015POPC   NC351659  41.607  21.391   5.553
 9015POPC   PO451660  41.567  21.342   5.853
 9015POPC   GL151661  41.599  21.355   6.153
 9015POPC   GL251662  41.441  21.290   6.153
 9015POPC   C1A51663  41.532  21.401   6.453
 9015POPC   D2A51664  41.515  21.369   6.753
 9015POPC   C3A51665  41.545  21.432   7.053
 9015POPC   C4A51666  41.527  21.435   7.353
 9015POPC   C1B51667  41.432  21.158   6.453
 9015POPC   C2B51668  41.412  21.204   6.753
 9015POPC   C3B51669  41.432  21.217   7.053
 9015POPC   C4B51670  41.447  21.145   7.353
 9016POPC   NC351671  36.143  11.285   5.553
 9016POPC   PO451672  36.104  11.337   5.853
 9016POPC   GL151673  36.095  11.333   6.153
 9016POPC   GL251674  36.029  11.440   6.153
 9016POPC   C1A51675  36.168  11.296   6.453
 9016POPC   D2A51676  36.078  11.283   6.753
 9016POPC   C3A51677  36.177  11.288   7.053
 9016POPC   C4A51678  36.088  11.342   7.353
 9016POPC   C1B51679  35.925  11.498   6.453
 9016POPC   C2B51680  35.995  11.535   6.753
 9016POPC   C3B51681  35.953  11.481   7.053
 9016POPC   C4B51682  35.923  11.523   7.353
 9017POPC   NC351683  15.175  37.715   5.553
 9017POPC   PO451684  15.189  37.680   5.853
 9017POPC   GL151685  15.134  37.700   6.153
 9017POPC   GL251686  15.128  37.806   6.153
 9017POPC   C1A51687  15.214  37.718   6.453
 9017POPC   D2A51688  15.143  37.630   6.753
 9017POPC   C3A51689  15.209  37.675   7.053
 9017POPC   C4A51690  15.201  37.666   7.353
 9017POPC   C1B51691  15.190  37.950   6.453
 9017POPC   C2B51692  15.121  37.924   6.753
 9017POPC   C3B51693  15.157  37.912   7.053
 9017POPC   C4B51694  15.195  37.888   7.353
 9018POPC   NC351695   7.392  23.725   5.553
 9018POPC   PO451696   7.377  23.679   5.853
 9018POPC   GL151697   7.461  23.731   6.153
 9018POPC   GL251698   7.498  23.727   6.153
 9018POPC   C1A51699   7.426  23.724   6.453
 9018POPC   D2A51700   7.389  23.706   6.753
 9018POPC   C3A51701   7.408  23.743   7.053
 9018POPC   C4A51702   7.403  23.754   7.353
 9018POPC   C1B51703   7.648  23.672   6.453
 9018POPC   C2B51704   7.650  23.641   6.753
 9018POPC   C3B51705   7.673  23.729   7.053
 9018POPC   C4B51706   7.669  23.715   7.353
 9019POPC   NC351707  22.972  12.035   5.553
 9019POPC   PO451708  22.970  12.123   5.853
 9019POPC   GL151709  22.901  12.061   6.153
 9019POPC   GL251710  22.797  12.174   6.153
 9019POPC   C1A51711  22.950  12.094   6.453
 9019POPC   D2A51712  22.892  12.096   6.753
 9019POPC   C3A51713  22.978  12.120   7.053
 9019POPC   C4A51714  22.973  12.067   7.353
 9019POPC   C1B51715  22.759  12.186   6.453
 9019POPC   C2B51716  22.716  12.246   6.753
 9019POPC   C3B51717  22.685  12.240   7.053
 9019POPC   C4B51718  22.683  12.186   7.353
 9020POPC   NC351719  35.306  33.026   5.553
 9020POPC   PO451720  35.341  33.073   5.853
 9020POPC   GL151721  35.351  32.994   6.153
 9020POPC   GL251722  35.233  32.936   6.153
 9020POPC   C1A51723  35.323  33.003   6.453
 9020POPC   D2A51724  35.368  33.026   6.753
 9020POPC   C3A51725  35.355  33.047   7.053
 9020POPC   C4A51726  35.322  33.043   7.353
 9020POPC   C1B51727  35.172  32.936   6.453
 9020POPC   C2B51728  35.076  32.958   6.753
 9020POPC   C3B51729  35.125  32.946   7.053
 9020POPC   C4B51730  35.170  32.908   7.353
 9021POPC   NC351731  29.957  26.048   5.553
 9021POPC   PO451732  29.934  26.047   5.853
 9021POPC   GL151733  29.965  26.061   6.153
 9021POPC   GL251734  29.854  26.144   6.153
 9021POPC   C1A51735  29.936  25.996   6.453
 9021POPC   D2A51736  29.941  26.052   6.753
 9021POPC   C3A51737  29.914  26.085   7.053
 9021POPC   C4A51738  29.913  26.049   7.353
 9021POPC   C1B51739  29.805  26.236   6.453
 9021POPC   C2B51740  29.804  26.238   6.753
 9021POPC   C3B51741  29.867  26.250   7.053
 9021POPC   C4B51742  29.819  26.316   7.353
 9022POPC   NC351743  16.701  33.799   5.553
 9022POPC   PO451744  16.754  33.838   5.853
 9022POPC   GL151745  16.719  33.772   6.153
 9022POPC   GL251746  16.579  33.919   6.153
 9022POPC   C1A51747  16.689  33.758   6.453
 9022POPC   D2A51748  16.683  33.773   6.753
 9022POPC   C3A51749  16.761  33.770   7.053
 9022POPC   C4A51750  16.771  33.782   7.353
 9022POPC   C1B51751  16.559  33.905   6.453
 9022POPC   C2B51752  16.476  33.907   6.753
 9022POPC   C3B51753  16.554  33.892   7.053
 9022POPC   C4B51754  16.479  33.943   7.353
 9023POPC   NC351755   5.864  29.881   5.553
 9023POPC   PO451756   5.859  29.910   5.853
 9023POPC   GL151757   5.912  29.922   6.153
 9023POPC   GL251758   6.012  29.913   6.153
 9023POPC   C1A51759   5.875  29.916   6.453
 9023POPC   D2A51760   5.910  29.941   6.753
 9023POPC   C3A51761   5.827  29.884   7.053
 9023POPC   C4A51762   5.828  29.883   7.353
 9023POPC   C1B51763   6.067  30.031   6.453
 9023POPC   C2B51764   6.131  29.996   6.753
 9023POPC   C3B51765   6.099  30.009   7.053
 9023POPC   C4B51766   6.086  30.013   7.353
 9024POPC   NC351767  19.074  21.418   5.553
 9024POPC   PO451768  19.095  21.435   5.853
 9024POPC   GL151769  19.013  21.369   6.153
 9024POPC   GL251770  18.937  21.443   6.153
 9024POPC   C1A51771  19.042  21.436   6.453
 9024POPC   D2A51772  19.033  21.409   6.753
 9024POPC   C3A51773  19.043  21.395   7.053
 9024POPC   C4A51774  19.014  21.338   7.353
 9024POPC   C1B51775  18.807  21.431   6.453
 9024POPC   C2B51776  18.779  21.436   6.753
 9024POPC   C3B51777  18.825  21.459   7.053
 9024POPC   C4B51778  18.775  21.414   7.353
 9025POPC   NC351779  43.870  28.411   5.553
 9025POPC   PO451780  43.889  28.413   5.853
 9025POPC   GL151781  43.896  28.412   6.153
 9025POPC   GL251782  43.827  28.280   6.153
 9025POPC   C1A51783  43.846  28.384   6.453
 9025POPC   D2A51784  43.923  28.392   6.753
 9025POPC   C3A51785  43.858  28.402   7.053
 9025POPC   C4A51786  43.923  28.411   7.353
 9025POPC   C1B51787  43.762  28.135   6.453
 9025POPC   C2B51788  43.738  28.177   6.753
 9025POPC   C3B51789  43.733  28.163   7.053
 9025POPC   C4B51790  43.704  28.188   7.353
 9026POPC   NC351791  19.792   9.775   5.553
 9026POPC   PO451792  19.832   9.742   5.853
 9026POPC   GL151793  19.795   9.741   6.153
 9026POPC   GL251794  19.971   9.810   6.153
 9026POPC   C1A51795  19.855   9.745   6.453
 9026POPC   D2A51796  19.852   9.723   6.753
 9026POPC   C3A51797  19.842   9.712   7.053
 9026POPC   C4A51798  19.872   9.758   7.353
 9026POPC   C1B51799  20.103   9.883   6.453
 9026POPC   C2B51800  20.063   9.842   6.753
 9026POPC   C3B51801  20.076   9.802   7.053
 9026POPC   C4B51802  20.112   9.879   7.353
 9027POPC   NC351803   5.076  33.783   5.553
 9027POPC   PO451804   5.136  33.789   5.853
 9027POPC   GL151805   5.057  33.810   6.153
 9027POPC   GL251806   5.126  33.721   6.153
 9027POPC   C1A51807   5.087  33.795   6.453
 9027POPC   D2A51808   5.109  33.781   6.753
 9027POPC   C3A51809   5.107  33.843   7.053
 9027POPC   C4A51810   5.095  33.812   7.353
 9027POPC   C1B51811   5.186  33.548   6.453
 9027POPC   C2B51812   5.192  33.589   6.753
 9027POPC   C3B51813   5.165  33.614   7.053
 9027POPC   C4B51814   5.202  33.555   7.353
 9028POPC   NC351815  36.154  42.304   5.553
 9028POPC   PO451816  36.103  42.360   5.853
 9028POPC   GL151817  36.153  42.357   6.153
 9028POPC   GL251818  36.151  42.206   6.153
 9028POPC   C1A51819  36.110  42.289   6.453
 9028POPC   D2A51820  36.127  42.381   6.753
 9028POPC   C3A51821  36.118  42.287   7.053
 9028POPC   C4A51822  36.135  42.321   7.353
 9028POPC   C1B51823  36.193  42.138   6.453
 9028POPC   C2B51824  36.171  42.063   6.753
 9028POPC   C3B51825  36.162  42.059   7.053
 9028POPC   C4B51826  36.204  42.084   7.353
 9029POPC   NC351827  11.252  30.695   5.553
 9029POPC   PO451828  11.280  30.695   5.853
 9029POPC   GL151829  11.341  30.666   6.153
 9029POPC   GL251830  11.446  30.806   6.153
 9029POPC   C1A51831  11.253  30.664   6.453
 9029POPC   D2A51832  11.280  30.671   6.753
 9029POPC   C3A51833  11.338  30.747   7.053
 9029POPC   C4A51834  11.347  30.730   7.353
 9029POPC   C1B51835  11.469  30.888   6.453
 9029POPC   C2B51836  11.474  30.854   6.753
 9029POPC   C3B51837  11.545  30.806   7.053
 9029POPC   C4B51838  11.493  30.872   7.353
 9030POPC   NC351839   5.087  43.073   5.553
 9030POPC   PO451840   5.096  43.104   5.853
 9030POPC   GL151841   5.049  43.108   6.153
 9030POPC   GL251842   5.254  43.032   6.153
 9030POPC   C1A51843   5.137  43.159   6.453
 9030POPC   D2A51844   5.094  43.136   6.753
 9030POPC   C3A51845   5.124  43.136   7.053
 9030POPC   C4A51846   5.089  43.152   7.353
 9030POPC   C1B51847   5.289  43.071   6.453
 9030POPC   C2B51848   5.375  43.032   6.753
 9030POPC   C3B51849   5.374  43.010   7.053
 9030POPC   C4B51850   5.341  43.056   7.353
 9031POPC   NC351851   8.211   5.064   5.553
 9031POPC   PO451852   8.231   5.102   5.853
 9031POPC   GL151853   8.213   5.119   6.153
 9031POPC   GL251854   8.057   5.126   6.153
 9031POPC   C1A51855   8.205   5.065   6.453
 9031POPC   D2A51856   8.191   5.105   6.753
 9031POPC   C3A51857   8.186   5.112   7.053
 9031POPC   C4A51858   8.242   5.137   7.353
 9031POPC   C1B51859   7.961   5.119   6.453
 9031POPC   C2B51860   7.935   5.116   6.753
 9031POPC   C3B51861   7.958   5.127   7.053
 9031POPC   C4B51862   7.951   5.134   7.353
 9032POPC   NC351863  26.047  14.389   5.553
 9032POPC   PO451864  26.051  14.441   5.853
 9032POPC   GL151865  26.088  14.392   6.153
 9032POPC   GL251866  26.047  14.274   6.153
 9032POPC   C1A51867  26.090  14.423   6.453
 9032POPC   D2A51868  26.060  14.377   6.753
 9032POPC   C3A51869  26.040  14.399   7.053
 9032POPC   C4A51870  26.044  14.354   7.353
 9032POPC   C1B51871  25.956  14.188   6.453
 9032POPC   C2B51872  25.941  14.157   6.753
 9032POPC   C3B51873  25.938  14.190   7.053
 9032POPC   C4B51874  25.962  14.165   7.353
 9033POPC   NC351875   6.645  44.672   5.553
 9033POPC   PO451876   6.677  44.617   5.853
 9033POPC   GL151877   6.668  44.639   6.153
 9033POPC   GL251878   6.637  44.496   6.153
 9033POPC   C1A51879   6.661  44.668   6.453
 9033POPC   D2A51880   6.607  44.707   6.753
 9033POPC   C3A51881   6.604  44.633   7.053
 9033POPC   C4A51882   6.692  44.637   7.353
 9033POPC   C1B51883   6.698  44.407   6.453
 9033POPC   C2B51884   6.696  44.433   6.753
 9033POPC   C3B51885   6.657  44.373   7.053
 9033POPC   C4B51886   6.660  44.432   7.353
 9034POPC   NC351887  18.270  38.462   5.553
 9034POPC   PO451888  18.295  38.459   5.853
 9034POPC   GL151889  18.324  38.422   6.153
 9034POPC   GL251890  18.323  38.348   6.153
 9034POPC   C1A51891  18.304  38.430   6.453
 9034POPC   D2A51892  18.293  38.437   6.753
 9034POPC   C3A51893  18.269  38.431   7.053
 9034POPC   C4A51894  18.244  38.501   7.353
 9034POPC   C1B51895  18.299  38.193   6.453
 9034POPC   C2B51896  18.243  38.237   6.753
 9034POPC   C3B51897  18.232  38.207   7.053
 9034POPC   C4B51898  18.230  38.186   7.353
 9035POPC   NC351899  36.882  40.761   5.553
 9035POPC   PO451900  36.873  40.801   5.853
 9035POPC   GL151901  36.906  40.778   6.153
 9035POPC   GL251902  36.819  40.799   6.153
 9035POPC   C1A51903  36.918  40.757   6.453
 9035POPC   D2A51904  36.929  40.757   6.753
 9035POPC   C3A51905  36.867  40.760   7.053
 9035POPC   C4A51906  36.902  40.795   7.353
 9035POPC   C1B51907  36.646  40.853   6.453
 9035POPC   C2B51908  36.658  40.801   6.753
 9035POPC   C3B51909  36.654  40.787   7.053
 9035POPC   C4B51910  36.637  40.765   7.353
 9036POPC   NC351911  27.611   8.983   5.553
 9036POPC   PO451912  27.598   9.004   5.853
 9036POPC   GL151913  27.569   8.942   6.153
 9036POPC   GL251914  27.758   8.957   6.153
 9036POPC   C1A51915  27.588   8.977   6.453
 9036POPC   D2A51916  27.568   8.927   6.753
 9036POPC   C3A51917  27.594   8.961   7.053
 9036POPC   C4A51918  27.616   8.949   7.353
 9036POPC   C1B51919  27.883   8.987   6.453
 9036POPC   C2B51920  27.850   8.968   6.753
 9036POPC   C3B51921  27.796   8.951   7.053
 9036POPC   C4B51922  27.834   8.922   7.353
 9037POPC   NC351923   8.197   7.450   5.553
 9037POPC   PO451924   8.203   7.385   5.853
 9037POPC   GL151925   8.193   7.432   6.153
 9037POPC   GL251926   8.062   7.347   6.153
 9037POPC   C1A51927   8.173   7.422   6.453
 9037POPC   D2A51928   8.161   7.414   6.753
 9037POPC   C3A51929   8.219   7.380   7.053
 9037POPC   C4A51930   8.223   7.433   7.353
 9037POPC   C1B51931   7.905   7.336   6.453
 9037POPC   C2B51932   7.942   7.316   6.753
 9037POPC   C3B51933   7.958   7.392   7.053
 9037POPC   C4B51934   7.936   7.330   7.353
 9038POPC   NC351935  35.312   8.989   5.553
 9038POPC   PO451936  35.323   8.940   5.853
 9038POPC   GL151937  35.389   8.960   6.153
 9038POPC   GL251938  35.511   9.054   6.153
 9038POPC   C1A51939  35.344   8.998   6.453
 9038POPC   D2A51940  35.392   8.988   6.753
 9038POPC   C3A51941  35.353   8.999   7.053
 9038POPC   C4A51942  35.396   8.940   7.353
 9038POPC   C1B51943  35.568   9.045   6.453
 9038POPC   C2B51944  35.622   9.079   6.753
 9038POPC   C3B51945  35.629   9.077   7.053
 9038POPC   C4B51946  35.602   9.047   7.353
 9039POPC   NC351947  36.924  29.949   5.553
 9039POPC   PO451948  36.934  29.928   5.853
 9039POPC   GL151949  36.953  29.938   6.153
 9039POPC   GL251950  36.903  30.092   6.153
 9039POPC   C1A51951  36.877  29.925   6.453
 9039POPC   D2A51952  36.868  29.898   6.753
 9039POPC   C3A51953  36.941  29.925   7.053
 9039POPC   C4A51954  36.865  29.890   7.353
 9039POPC   C1B51955  36.961  30.144   6.453
 9039POPC   C2B51956  36.926  30.157   6.753
 9039POPC   C3B51957  36.908  30.155   7.053
 9039POPC   C4B51958  36.905  30.123   7.353
 9040POPC   NC351959  26.865  24.537   5.553
 9040POPC   PO451960  26.775  24.491   5.853
 9040POPC   GL151961  26.794  24.489   6.153
 9040POPC   GL251962  26.821  24.647   6.153
 9040POPC   C1A51963  26.825  24.536   6.453
 9040POPC   D2A51964  26.797  24.462   6.753
 9040POPC   C3A51965  26.825  24.474   7.053
 9040POPC   C4A51966  26.822  24.503   7.353
 9040POPC   C1B51967  26.740  24.727   6.453
 9040POPC   C2B51968  26.739  24.772   6.753
 9040POPC   C3B51969  26.735  24.718   7.053
 9040POPC   C4B51970  26.746  24.721   7.353
 9041POPC   NC351971  11.332   0.394   5.553
 9041POPC   PO451972  11.337   0.473   5.853
 9041POPC   GL151973  11.287   0.438   6.153
 9041POPC   GL251974  11.444   0.540   6.153
 9041POPC   C1A51975  11.307   0.462   6.453
 9041POPC   D2A51976  11.271   0.455   6.753
 9041POPC   C3A51977  11.309   0.402   7.053
 9041POPC   C4A51978  11.313   0.404   7.353
 9041POPC   C1B51979  11.514   0.543   6.453
 9041POPC   C2B51980  11.475   0.613   6.753
 9041POPC   C3B51981  11.471   0.532   7.053
 9041POPC   C4B51982  11.526   0.580   7.353
 9042POPC   NC351983  26.852   8.153   5.553
 9042POPC   PO451984  26.866   8.186   5.853
 9042POPC   GL151985  26.819   8.181   6.153
 9042POPC   GL251986  26.754   8.138   6.153
 9042POPC   C1A51987  26.811   8.235   6.453
 9042POPC   D2A51988  26.770   8.160   6.753
 9042POPC   C3A51989  26.850   8.163   7.053
 9042POPC   C4A51990  26.772   8.182   7.353
 9042POPC   C1B51991  26.663   8.050   6.453
 9042POPC   C2B51992  26.683   8.062   6.753
 9042POPC   C3B51993  26.679   8.028   7.053
 9042POPC   C4B51994  26.694   7.998   7.353
 9043POPC   NC351995  27.580  17.544   5.553
 9043POPC   PO451996  27.555  17.486   5.853
 9043POPC   GL151997  27.565  17.499   6.153
 9043POPC   GL251998  27.451  17.472   6.153
 9043POPC   C1A51999  27.614  17.514   6.453
 9043POPC   D2A52000  27.618  17.472   6.753
 9043POPC   C3A52001  27.551  17.460   7.053
 9043POPC   C4A52002  27.555  17.547   7.353
 9043POPC   C1B52003  27.327  17.373   6.453
 9043POPC   C2B52004  27.378  17.368   6.753
 9043POPC   C3B52005  27.354  17.440   7.053
 9043POPC   C4B52006  27.328  17.370   7.353
 9044POPC   NC352007  33.799  20.612   5.553
 9044POPC   PO452008  33.778  20.568   5.853
 9044POPC   GL152009  33.770  20.626   6.153
 9044POPC   GL252010  33.754  20.751   6.153
 9044POPC   C1A52011  33.805  20.658   6.453
 9044POPC   D2A52012  33.785  20.577   6.753
 9044POPC   C3A52013  33.773  20.599   7.053
 9044POPC   C4A52014  33.817  20.583   7.353
 9044POPC   C1B52015  33.738  20.844   6.453
 9044POPC   C2B52016  33.751  20.892   6.753
 9044POPC   C3B52017  33.694  20.807   7.053
 9044POPC   C4B52018  33.742  20.810   7.353
 9045POPC   NC352019  19.833  40.743   5.553
 9045POPC   PO452020  19.848  40.739   5.853
 9045POPC   GL152021  19.863  40.821   6.153
 9045POPC   GL252022  19.703  40.738   6.153
 9045POPC   C1A52023  19.861  40.764   6.453
 9045POPC   D2A52024  19.881  40.734   6.753
 9045POPC   C3A52025  19.796  40.790   7.053
 9045POPC   C4A52026  19.811  40.775   7.353
 9045POPC   C1B52027  19.588  40.697   6.453
 9045POPC   C2B52028  19.608  40.748   6.753
 9045POPC   C3B52029  19.563  40.661   7.053
 9045POPC   C4B52030  19.581  40.685   7.353
 9046POPC   NC352031   5.876  31.498   5.553
 9046POPC   PO452032   5.904  31.464   5.853
 9046POPC   GL152033   5.879  31.469   6.153
 9046POPC   GL252034   5.756  31.469   6.153
 9046POPC   C1A52035   5.908  31.496   6.453
 9046POPC   D2A52036   5.859  31.443   6.753
 9046POPC   C3A52037   5.826  31.508   7.053
 9046POPC   C4A52038   5.849  31.519   7.353
 9046POPC   C1B52039   5.605  31.504   6.453
 9046POPC   C2B52040   5.641  31.509   6.753
 9046POPC   C3B52041   5.597  31.461   7.053
 9046POPC   C4B52042   5.588  31.442   7.353
 9047POPC   NC352043   1.210   0.459   5.553
 9047POPC   PO452044   1.199   0.431   5.853
 9047POPC   GL152045   1.233   0.439   6.153
 9047POPC   GL252046   1.129   0.325   6.153
 9047POPC   C1A52047   1.228   0.389   6.453
 9047POPC   D2A52048   1.232   0.413   6.753
 9047POPC   C3A52049   1.246   0.415   7.053
 9047POPC   C4A52050   1.262   0.447   7.353
 9047POPC   C1B52051   1.151   0.171   6.453
 9047POPC   C2B52052   1.077   0.190   6.753
 9047POPC   C3B52053   1.133   0.216   7.053
 9047POPC   C4B52054   1.126   0.165   7.353
 9048POPC   NC352055  13.662  43.137   5.553
 9048POPC   PO452056  13.653  43.081   5.853
 9048POPC   GL152057  13.615  43.103   6.153
 9048POPC   GL252058  13.561  43.030   6.153
 9048POPC   C1A52059  13.639  43.099   6.453
 9048POPC   D2A52060  13.592  43.075   6.753
 9048POPC   C3A52061  13.594  43.160   7.053
 9048POPC   C4A52062  13.624  43.127   7.353
 9048POPC   C1B52063  13.590  42.861   6.453
 9048POPC   C2B52064  13.537  42.826   6.753
 9048POPC   C3B52065  13.524  42.858   7.053
 9048POPC   C4B52066  13.504  42.894   7.353
 9049POPC   NC352067  32.232  39.235   5.553
 9049POPC   PO452068  32.260  39.184   5.853
 9049POPC   GL152069  32.245  39.248   6.153
 9049POPC   GL252070  32.164  39.205   6.153
 9049POPC   C1A52071  32.239  39.221   6.453
 9049POPC   D2A52072  32.250  39.229   6.753
 9049POPC   C3A52073  32.237  39.258   7.053
 9049POPC   C4A52074  32.283  39.226   7.353
 9049POPC   C1B52075  32.032  39.066   6.453
 9049POPC   C2B52076  32.016  39.062   6.753
 9049POPC   C3B52077  32.092  39.118   7.053
 9049POPC   C4B52078  32.055  39.100   7.353
 9050POPC   NC352079  10.504  44.617   5.553
 9050POPC   PO452080  10.523  44.615   5.853
 9050POPC   GL152081  10.493  44.684   6.153
 9050POPC   GL252082  10.428  44.649   6.153
 9050POPC   C1A52083  10.552  44.679   6.453
 9050POPC   D2A52084  10.558  44.623   6.753
 9050POPC   C3A52085  10.522  44.690   7.053
 9050POPC   C4A52086  10.505  44.651   7.353
 9050POPC   C1B52087  10.324  44.528   6.453
 9050POPC   C2B52088  10.307  44.561   6.753
 9050POPC   C3B52089  10.291  44.576   7.053
 9050POPC   C4B52090  10.302  44.530   7.353
 9051POPC   NC352091  28.409  42.360   5.553
 9051POPC   PO452092  28.372  42.318   5.853
 9051POPC   GL152093  28.371  42.376   6.153
 9051POPC   GL252094  28.435  42.452   6.153
 9051POPC   C1A52095  28.400  42.383   6.453
 9051POPC   D2A52096  28.381  42.365   6.753
 9051POPC   C3A52097  28.377  42.378   7.053
 9051POPC   C4A52098  28.406  42.327   7.353
 9051POPC   C1B52099  28.422  42.535   6.453
 9051POPC   C2B52100  28.478  42.530   6.753
 9051POPC   C3B52101  28.416  42.568   7.053
 9051POPC   C4B52102  28.453  42.623   7.353
 9052POPC   NC352103  22.134  29.114   5.553
 9052POPC   PO452104  22.176  29.185   5.853
 9052POPC   GL152105  22.151  29.128   6.153
 9052POPC   GL252106  22.108  29.050   6.153
 9052POPC   C1A52107  22.128  29.138   6.453
 9052POPC   D2A52108  22.192  29.141   6.753
 9052POPC   C3A52109  22.151  29.168   7.053
 9052POPC   C4A52110  22.203  29.105   7.353
 9052POPC   C1B52111  22.095  28.900   6.453
 9052POPC   C2B52112  22.093  28.898   6.753
 9052POPC   C3B52113  22.132  28.917   7.053
 9052POPC   C4B52114  22.137  28.868   7.353
 9053POPC   NC352115  25.309   2.771   5.553
 9053POPC   PO452116  25.253   2.726   5.853
 9053POPC   GL152117  25.306   2.750   6.153
 9053POPC   GL252118  25.143   2.750   6.153
 9053POPC   C1A52119  25.281   2.785   6.453
 9053POPC   D2A52120  25.289   2.763   6.753
 9053POPC   C3A52121  25.263   2.733   7.053
 9053POPC   C4A52122  25.221   2.783   7.353
 9053POPC   C1B52123  25.056   2.667   6.453
 9053POPC   C2B52124  25.050   2.674   6.753
 9053POPC   C3B52125  25.066   2.618   7.053
 9053POPC   C4B52126  25.003   2.667   7.353
 9054POPC   NC352127   8.957  20.602   5.553
 9054POPC   PO452128   8.988  20.634   5.853
 9054POPC   GL152129   9.002  20.615   6.153
 9054POPC   GL252130   9.042  20.505   6.153
 9054POPC   C1A52131   8.946  20.626   6.453
 9054POPC   D2A52132   8.983  20.569   6.753
 9054POPC   C3A52133   8.933  20.649   7.053
 9054POPC   C4A52134   9.012  20.580   7.353
 9054POPC   C1B52135   9.041  20.416   6.453
 9054POPC   C2B52136   9.055  20.366   6.753
 9054POPC   C3B52137   9.085  20.425   7.053
 9054POPC   C4B52138   9.034  20.415   7.353
 9055POPC   NC352139  38.421  20.650   5.553
 9055POPC   PO452140  38.475  20.643   5.853
 9055POPC   GL152141  38.448  20.572   6.153
 9055POPC   GL252142  38.537  20.612   6.153
 9055POPC   C1A52143  38.438  20.583   6.453
 9055POPC   D2A52144  38.432  20.631   6.753
 9055POPC   C3A52145  38.478  20.591   7.053
 9055POPC   C4A52146  38.478  20.638   7.353
 9055POPC   C1B52147  38.672  20.619   6.453
 9055POPC   C2B52148  38.657  20.641   6.753
 9055POPC   C3B52149  38.698  20.584   7.053
 9055POPC   C4B52150  38.683  20.650   7.353
 9056POPC   NC352151   8.956  44.640   5.553
 9056POPC   PO452152   8.958  44.696   5.853
 9056POPC   GL152153   8.988  44.708   6.153
 9056POPC   GL252154   9.135  44.617   6.153
 9056POPC   C1A52155   8.974  44.619   6.453
 9056POPC   D2A52156   8.933  44.626   6.753
 9056POPC   C3A52157   8.930  44.630   7.053
 9056POPC   C4A52158   8.999  44.684   7.353
 9056POPC   C1B52159   9.227  44.595   6.453
 9056POPC   C2B52160   9.151  44.533   6.753
 9056POPC   C3B52161   9.151  44.580   7.053
 9056POPC   C4B52162   9.164  44.566   7.353
 9057POPC   NC352163  25.288   8.984   5.553
 9057POPC   PO452164  25.223   8.982   5.853
 9057POPC   GL152165  25.310   8.953   6.153
 9057POPC   GL252166  25.392   8.872   6.153
 9057POPC   C1A52167  25.299   8.946   6.453
 9057POPC   D2A52168  25.300   9.015   6.753
 9057POPC   C3A52169  25.221   8.978   7.053
 9057POPC   C4A52170  25.229   9.009   7.353
 9057POPC   C1B52171  25.461   8.759   6.453
 9057POPC   C2B52172  25.393   8.824   6.753
 9057POPC   C3B52173  25.460   8.783   7.053
 9057POPC   C4B52174  25.453   8.746   7.353
 9058POPC   NC352175  22.893  22.894   5.553
 9058POPC   PO452176  22.981  22.968   5.853
 9058POPC   GL152177  22.959  22.935   6.153
 9058POPC   GL252178  22.952  22.776   6.153
 9058POPC   C1A52179  22.971  22.913   6.453
 9058POPC   D2A52180  22.983  22.914   6.753
 9058POPC   C3A52181  22.889  22.912   7.053
 9058POPC   C4A52182  22.938  22.915   7.353
 9058POPC   C1B52183  22.967  22.698   6.453
 9058POPC   C2B52184  22.922  22.659   6.753
 9058POPC   C3B52185  22.874  22.676   7.053
 9058POPC   C4B52186  22.909  22.729   7.353
 9059POPC   NC352187  34.590  30.668   5.553
 9059POPC   PO452188  34.545  30.728   5.853
 9059POPC   GL152189  34.581  30.680   6.153
 9059POPC   GL252190  34.651  30.612   6.153
 9059POPC   C1A52191  34.560  30.666   6.453
 9059POPC   D2A52192  34.567  30.683   6.753
 9059POPC   C3A52193  34.577  30.667   7.053
 9059POPC   C4A52194  34.596  30.744   7.353
 9059POPC   C1B52195  34.658  30.442   6.453
 9059POPC   C2B52196  34.664  30.434   6.753
 9059POPC   C3B52197  34.720  30.450   7.053
 9059POPC   C4B52198  34.755  30.467   7.353
 9060POPC   NC352199  23.741  43.092   5.553
 9060POPC   PO452200  23.751  43.120   5.853
 9060POPC   GL152201  23.689  43.151   6.153
 9060POPC   GL252202  23.747  43.176   6.153
 9060POPC   C1A52203  23.726  43.081   6.453
 9060POPC   D2A52204  23.725  43.082   6.753
 9060POPC   C3A52205  23.728  43.128   7.053
 9060POPC   C4A52206  23.694  43.156   7.353
 9060POPC   C1B52207  23.830  43.358   6.453
 9060POPC   C2B52208  23.802  43.374   6.753
 9060POPC   C3B52209  23.817  43.286   7.053
 9060POPC   C4B52210  23.873  43.324   7.353
 9061POPC   NC352211  40.755  22.124   5.553
 9061POPC   PO452212  40.767  22.143   5.853
 9061POPC   GL152213  40.742  22.196   6.153
 9061POPC   GL252214  40.839  22.261   6.153
 9061POPC   C1A52215  40.815  22.185   6.453
 9061POPC   D2A52216  40.793  22.179   6.753
 9061POPC   C3A52217  40.825  22.151   7.053
 9061POPC   C4A52218  40.739  22.127   7.353
 9061POPC   C1B52219  40.867  22.426   6.453
 9061POPC   C2B52220  40.883  22.432   6.753
 9061POPC   C3B52221  40.911  22.430   7.053
 9061POPC   C4B52222  40.907  22.417   7.353
 9062POPC   NC352223  29.128   0.482   5.553
 9062POPC   PO452224  29.099   0.463   5.853
 9062POPC   GL152225  29.182   0.467   6.153
 9062POPC   GL252226  29.105   0.328   6.153
 9062POPC   C1A52227  29.156   0.457   6.453
 9062POPC   D2A52228  29.172   0.431   6.753
 9062POPC   C3A52229  29.172   0.481   7.053
 9062POPC   C4A52230  29.155   0.400   7.353
 9062POPC   C1B52231  29.103   0.187   6.453
 9062POPC   C2B52232  29.121   0.185   6.753
 9062POPC   C3B52233  29.059   0.188   7.053
 9062POPC   C4B52234  29.117   0.167   7.353
 9063POPC   NC352235   0.487  26.015   5.553
 9063POPC   PO452236   0.477  26.034   5.853
 9063POPC   GL152237   0.394  26.074   6.153
 9063POPC   GL252238   0.489  25.921   6.153
 9063POPC   C1A52239   0.400  26.029   6.453
 9063POPC   D2A52240   0.431  26.067   6.753
 9063POPC   C3A52241   0.433  26.047   7.053
 9063POPC   C4A52242   0.405  26.074   7.353
 9063POPC   C1B52243   0.528  25.760   6.453
 9063POPC   C2B52244   0.479  25.842   6.753
 9063POPC   C3B52245   0.450  25.799   7.053
 9063POPC   C4B52246   0.523  25.805   7.353
 9064POPC   NC352247  19.106  11.343   5.553
 9064POPC   PO452248  19.024  11.273   5.853
 9064POPC   GL152249  19.055  11.252   6.153
 9064POPC   GL252250  18.964  11.313   6.153
 9064POPC   C1A52251  19.041  11.326   6.453
 9064POPC   D2A52252  19.015  11.260   6.753
 9064POPC   C3A52253  19.053  11.344   7.053
 9064POPC   C4A52254  19.011  11.256   7.353
 9064POPC   C1B52255  18.832  11.246   6.453
 9064POPC   C2B52256  18.841  11.263   6.753
 9064POPC   C3B52257  18.817  11.248   7.053
 9064POPC   C4B52258  18.860  11.217   7.353
 9065POPC   NC352259  32.246  27.598   5.553
 9065POPC   PO452260  32.210  27.545   5.853
 9065POPC   GL152261  32.264  27.600   6.153
 9065POPC   GL252262  32.325  27.678   6.153
 9065POPC   C1A52263  32.241  27.584   6.453
 9065POPC   D2A52264  32.282  27.600   6.753
 9065POPC   C3A52265  32.260  27.556   7.053
 9065POPC   C4A52266  32.237  27.611   7.353
 9065POPC   C1B52267  32.405  27.817   6.453
 9065POPC   C2B52268  32.380  27.761   6.753
 9065POPC   C3B52269  32.382  27.734   7.053
 9065POPC   C4B52270  32.437  27.777   7.353
 9066POPC   NC352271   2.015  22.163   5.553
 9066POPC   PO452272   1.993  22.157   5.853
 9066POPC   GL152273   2.019  22.187   6.153
 9066POPC   GL252274   2.104  22.199   6.153
 9066POPC   C1A52275   2.038  22.206   6.453
 9066POPC   D2A52276   2.000  22.134   6.753
 9066POPC   C3A52277   2.000  22.160   7.053
 9066POPC   C4A52278   1.952  22.154   7.353
 9066POPC   C1B52279   2.219  22.119   6.453
 9066POPC   C2B52280   2.207  22.129   6.753
 9066POPC   C3B52281   2.199  22.142   7.053
 9066POPC   C4B52282   2.196  22.172   7.353
 9067POPC   NC352283  35.376  22.963   5.553
 9067POPC   PO452284  35.334  22.922   5.853
 9067POPC   GL152285  35.335  22.929   6.153
 9067POPC   GL252286  35.419  22.820   6.153
 9067POPC   C1A52287  35.352  22.919   6.453
 9067POPC   D2A52288  35.309  22.958   6.753
 9067POPC   C3A52289  35.348  22.888   7.053
 9067POPC   C4A52290  35.372  22.913   7.353
 9067POPC   C1B52291  35.585  22.767   6.453
 9067POPC   C2B52292  35.508  22.759   6.753
 9067POPC   C3B52293  35.595  22.797   7.053
 9067POPC   C4B52294  35.565  22.773   7.353
 9068POPC   NC352295  19.855   2.734   5.553
 9068POPC   PO452296  19.791   2.727   5.853
 9068POPC   GL152297  19.880   2.733   6.153
 9068POPC   GL252298  19.899   2.832   6.153
 9068POPC   C1A52299  19.833   2.737   6.453
 9068POPC   D2A52300  19.871   2.809   6.753
 9068POPC   C3A52301  19.793   2.720   7.053
 9068POPC   C4A52302  19.820   2.783   7.353
 9068POPC   C1B52303  19.995   2.901   6.453
 9068POPC   C2B52304  20.006   2.894   6.753
 9068POPC   C3B52305  19.990   2.960   7.053
 9068POPC   C4B52306  20.014   2.951   7.353
 9069POPC   NC352307  11.267  15.221   5.553
 9069POPC   PO452308  11.272  15.131   5.853
 9069POPC   GL152309  11.315  15.162   6.153
 9069POPC   GL252310  11.140  15.167   6.153
 9069POPC   C1A52311  11.271  15.169   6.453
 9069POPC   D2A52312  11.324  15.191   6.753
 9069POPC   C3A52313  11.258  15.175   7.053
 9069POPC   C4A52314  11.320  15.137   7.353
 9069POPC   C1B52315  11.035  15.245   6.453
 9069POPC   C2B52316  11.036  15.252   6.753
 9069POPC   C3B52317  11.057  15.250   7.053
 9069POPC   C4B52318  11.080  15.235   7.353
 9070POPC   NC352319   5.919  19.870   5.553
 9070POPC   PO452320   5.898  19.855   5.853
 9070POPC   GL152321   5.908  19.802   6.153
 9070POPC   GL252322   5.793  19.852   6.153
 9070POPC   C1A52323   5.890  19.796   6.453
 9070POPC   D2A52324   5.898  19.807   6.753
 9070POPC   C3A52325   5.829  19.824   7.053
 9070POPC   C4A52326   5.915  19.819   7.353
 9070POPC   C1B52327   5.626  19.822   6.453
 9070POPC   C2B52328   5.648  19.864   6.753
 9070POPC   C3B52329   5.632  19.770   7.053
 9070POPC   C4B52330   5.659  19.799   7.353
 9071POPC   NC352331  15.985  15.180   5.553
 9071POPC   PO452332  15.912  15.192   5.853
 9071POPC   GL152333  15.961  15.168   6.153
 9071POPC   GL252334  15.788  15.116   6.153
 9071POPC   C1A52335  15.967  15.149   6.453
 9071POPC   D2A52336  15.933  15.227   6.753
 9071POPC   C3A52337  15.936  15.193   7.053
 9071POPC   C4A52338  15.930  15.221   7.353
 9071POPC   C1B52339  15.683  15.111   6.453
 9071POPC   C2B52340  15.667  15.153   6.753
 9071POPC   C3B52341  15.719  15.118   7.053
 9071POPC   C4B52342  15.709  15.102   7.353
 9072POPC   NC352343   7.374   5.054   5.553
 9072POPC   PO452344   7.378   5.103   5.853
 9072POPC   GL152345   7.452   5.119   6.153
 9072POPC   GL252346   7.520   5.107   6.153
 9072POPC   C1A52347   7.406   5.075   6.453
 9072POPC   D2A52348   7.383   5.070   6.753
 9072POPC   C3A52349   7.420   5.086   7.053
 9072POPC   C4A52350   7.464   5.101   7.353
 9072POPC   C1B52351   7.628   4.995   6.453
 9072POPC   C2B52352   7.655   5.045   6.753
 9072POPC   C3B52353   7.704   5.070   7.053
 9072POPC   C4B52354   7.638   5.086   7.353
 9073POPC   NC352355  36.126  34.547   5.553
 9073POPC   PO452356  36.088  34.529   5.853
 9073POPC   GL152357  36.128  34.566   6.153
 9073POPC   GL252358  36.209  34.550   6.153
 9073POPC   C1A52359  36.155  34.592   6.453
 9073POPC   D2A52360  36.170  34.591   6.753
 9073POPC   C3A52361  36.080  34.592   7.053
 9073POPC   C4A52362  36.094  34.563   7.353
 9073POPC   C1B52363  36.376  34.564   6.453
 9073POPC   C2B52364  36.404  34.587   6.753
 9073POPC   C3B52365  36.330  34.615   7.053
 9073POPC   C4B52366  36.341  34.581   7.353
 9074POPC   NC352367  43.078  16.735   5.553
 9074POPC   PO452368  43.122  16.726   5.853
 9074POPC   GL152369  43.094  16.701   6.153
 9074POPC   GL252370  43.019  16.647   6.153
 9074POPC   C1A52371  43.160  16.694   6.453
 9074POPC   D2A52372  43.152  16.709   6.753
 9074POPC   C3A52373  43.105  16.748   7.053
 9074POPC   C4A52374  43.114  16.699   7.353
 9074POPC   C1B52375  43.017  16.500   6.453
 9074POPC   C2B52376  43.016  16.538   6.753
 9074POPC   C3B52377  43.015  16.467   7.053
 9074POPC   C4B52378  43.014  16.513   7.353
 9075POPC   NC352379  29.890   8.164   5.553
 9075POPC   PO452380  29.930   8.191   5.853
 9075POPC   GL152381  29.873   8.183   6.153
 9075POPC   GL252382  29.832   8.278   6.153
 9075POPC   C1A52383  29.912   8.228   6.453
 9075POPC   D2A52384  29.883   8.231   6.753
 9075POPC   C3A52385  29.902   8.202   7.053
 9075POPC   C4A52386  29.879   8.175   7.353
 9075POPC   C1B52387  29.789   8.411   6.453
 9075POPC   C2B52388  29.741   8.381   6.753
 9075POPC   C3B52389  29.798   8.396   7.053
 9075POPC   C4B52390  29.834   8.384   7.353
 9076POPC   NC352391  11.280  21.433   5.553
 9076POPC   PO452392  11.349  21.348   5.853
 9076POPC   GL152393  11.251  21.371   6.153
 9076POPC   GL252394  11.411  21.308   6.153
 9076POPC   C1A52395  11.326  21.348   6.453
 9076POPC   D2A52396  11.350  21.372   6.753
 9076POPC   C3A52397  11.330  21.341   7.053
 9076POPC   C4A52398  11.277  21.364   7.353
 9076POPC   C1B52399  11.457  21.198   6.453
 9076POPC   C2B52400  11.484  21.203   6.753
 9076POPC   C3B52401  11.455  21.246   7.053
 9076POPC   C4B52402  11.496  21.216   7.353
 9077POPC   NC352403  30.689   6.642   5.553
 9077POPC   PO452404  30.732   6.694   5.853
 9077POPC   GL152405  30.717   6.605   6.153
 9077POPC   GL252406  30.587   6.636   6.153
 9077POPC   C1A52407  30.744   6.650   6.453
 9077POPC   D2A52408  30.676   6.629   6.753
 9077POPC   C3A52409  30.744   6.688   7.053
 9077POPC   C4A52410  30.683   6.691   7.353
 9077POPC   C1B52411  30.493   6.581   6.453
 9077POPC   C2B52412  30.417   6.657   6.753
 9077POPC   C3B52413  30.427   6.597   7.053
 9077POPC   C4B52414  30.471   6.673   7.353
 9078POPC   NC352415  39.995   0.391   5.553
 9078POPC   PO452416  40.042   0.431   5.853
 9078POPC   GL152417  39.980   0.486   6.153
 9078POPC   GL252418  40.036   0.269   6.153
 9078POPC   C1A52419  39.973   0.461   6.453
 9078POPC   D2A52420  40.050   0.424   6.753
 9078POPC   C3A52421  39.972   0.454   7.053
 9078POPC   C4A52422  40.040   0.389   7.353
 9078POPC   C1B52423  39.992   0.201   6.453
 9078POPC   C2B52424  39.972   0.190   6.753
 9078POPC   C3B52425  40.054   0.171   7.053
 9078POPC   C4B52426  39.980   0.219   7.353
 9079POPC   NC352427   1.167  43.107   5.553
 9079POPC   PO452428   1.183  43.097   5.853
 9079POPC   GL152429   1.199  43.157   6.153
 9079POPC   GL252430   1.317  43.160   6.153
 9079POPC   C1A52431   1.244  43.101   6.453
 9079POPC   D2A52432   1.220  43.111   6.753
 9079POPC   C3A52433   1.214  43.158   7.053
 9079POPC   C4A52434   1.260  43.091   7.353
 9079POPC   C1B52435   1.462  43.243   6.453
 9079POPC   C2B52436   1.460  43.193   6.753
 9079POPC   C3B52437   1.477  43.256   7.053
 9079POPC   C4B52438   1.433  43.236   7.353
 9080POPC   NC352439  18.323  34.529   5.553
 9080POPC   PO452440  18.243  34.582   5.853
 9080POPC   GL152441  18.292  34.541   6.153
 9080POPC   GL252442  18.131  34.605   6.153
 9080POPC   C1A52443  18.305  34.529   6.453
 9080POPC   D2A52444  18.323  34.585   6.753
 9080POPC   C3A52445  18.297  34.543   7.053
 9080POPC   C4A52446  18.262  34.563   7.353
 9080POPC   C1B52447  17.995  34.573   6.453
 9080POPC   C2B52448  18.056  34.525   6.753
 9080POPC   C3B52449  18.053  34.582   7.053
 9080POPC   C4B52450  18.064  34.580   7.353
 9081POPC   NC352451  39.966  38.504   5.553
 9081POPC   PO452452  39.960  38.406   5.853
 9081POPC   GL152453  40.009  38.452   6.153
 9081POPC   GL252454  40.069  38.361   6.153
 9081POPC   C1A52455  40.001  38.447   6.453
 9081POPC   D2A52456  40.042  38.439   6.753
 9081POPC   C3A52457  39.969  38.480   7.053
 9081POPC   C4A52458  40.009  38.423   7.353
 9081POPC   C1B52459  40.119  38.171   6.453
 9081POPC   C2B52460  40.112  38.212   6.753
 9081POPC   C3B52461  40.067  38.249   7.053
 9081POPC   C4B52462  40.115  38.198   7.353
 9082POPC   NC352463  12.896  36.176   5.553
 9082POPC   PO452464  12.868  36.095   5.853
 9082POPC   GL152465  12.861  36.122   6.153
 9082POPC   GL252466  12.747  36.139   6.153
 9082POPC   C1A52467  12.824  36.088   6.453
 9082POPC   D2A52468  12.900  36.111   6.753
 9082POPC   C3A52469  12.884  36.153   7.053
 9082POPC   C4A52470  12.867  36.164   7.353
 9082POPC   C1B52471  12.634  36.178   6.453
 9082POPC   C2B52472  12.643  36.181   6.753
 9082POPC   C3B52473  12.569  36.177   7.053
 9082POPC   C4B52474  12.574  36.231   7.353
 9083POPC   NC352475   9.794  18.333   5.553
 9083POPC   PO452476   9.726  18.257   5.853
 9083POPC   GL152477   9.704  18.268   6.153
 9083POPC   GL252478   9.840  18.152   6.153
 9083POPC   C1A52479   9.699  18.306   6.453
 9083POPC   D2A52480   9.794  18.248   6.753
 9083POPC   C3A52481   9.726  18.251   7.053
 9083POPC   C4A52482   9.727  18.307   7.353
 9083POPC   C1B52483   9.896  18.104   6.453
 9083POPC   C2B52484   9.865  18.029   6.753
 9083POPC   C3B52485   9.817  18.031   7.053
 9083POPC   C4B52486   9.884  18.105   7.353
 9084POPC   NC352487   0.485  10.497   5.553
 9084POPC   PO452488   0.446  10.548   5.853
 9084POPC   GL152489   0.404  10.486   6.153
 9084POPC   GL252490   0.524  10.385   6.153
 9084POPC   C1A52491   0.483  10.565   6.453
 9084POPC   D2A52492   0.421  10.525   6.753
 9084POPC   C3A52493   0.393  10.490   7.053
 9084POPC   C4A52494   0.420  10.489   7.353
 9084POPC   C1B52495   0.553  10.351   6.453
 9084POPC   C2B52496   0.606  10.355   6.753
 9084POPC   C3B52497   0.621  10.295   7.053
 9084POPC   C4B52498   0.567  10.363   7.353
 9085POPC   NC352499  43.847  14.399   5.553
 9085POPC   PO452500  43.887  14.438   5.853
 9085POPC   GL152501  43.843  14.386   6.153
 9085POPC   GL252502  43.757  14.461   6.153
 9085POPC   C1A52503  43.909  14.432   6.453
 9085POPC   D2A52504  43.840  14.405   6.753
 9085POPC   C3A52505  43.932  14.354   7.053
 9085POPC   C4A52506  43.839  14.408   7.353
 9085POPC   C1B52507  43.597  14.451   6.453
 9085POPC   C2B52508  43.625  14.433   6.753
 9085POPC   C3B52509  43.669  14.499   7.053
 9085POPC   C4B52510  43.666  14.514   7.353
 9086POPC   NC352511  29.943  40.828   5.553
 9086POPC   PO452512  29.911  40.795   5.853
 9086POPC   GL152513  29.947  40.805   6.153
 9086POPC   GL252514  30.062  40.684   6.153
 9086POPC   C1A52515  29.914  40.824   6.453
 9086POPC   D2A52516  29.932  40.808   6.753
 9086POPC   C3A52517  29.926  40.812   7.053
 9086POPC   C4A52518  29.878  40.774   7.353
 9086POPC   C1B52519  30.161  40.585   6.453
 9086POPC   C2B52520  30.139  40.673   6.753
 9086POPC   C3B52521  30.091  40.610   7.053
 9086POPC   C4B52522  30.165  40.617   7.353
 9087POPC   NC352523  23.702  14.359   5.553
 9087POPC   PO452524  23.732  14.390   5.853
 9087POPC   GL152525  23.673  14.421   6.153
 9087POPC   GL252526  23.704  14.337   6.153
 9087POPC   C1A52527  23.761  14.445   6.453
 9087POPC   D2A52528  23.754  14.403   6.753
 9087POPC   C3A52529  23.708  14.426   7.053
 9087POPC   C4A52530  23.671  14.401   7.353
 9087POPC   C1B52531  23.551  14.172   6.453
 9087POPC   C2B52532  23.576  14.222   6.753
 9087POPC   C3B52533  23.626  14.161   7.053
 9087POPC   C4B52534  23.587  14.136   7.353
 9088POPC   NC352535  40.806  30.670   5.553
 9088POPC   PO452536  40.798  30.669   5.853
 9088POPC   GL152537  40.777  30.719   6.153
 9088POPC   GL252538  40.802  30.579   6.153
 9088POPC   C1A52539  40.762  30.659   6.453
 9088POPC   D2A52540  40.830  30.650   6.753
 9088POPC   C3A52541  40.764  30.704   7.053
 9088POPC   C4A52542  40.814  30.740   7.353
 9088POPC   C1B52543  40.752  30.453   6.453
 9088POPC   C2B52544  40.783  30.423   6.753
 9088POPC   C3B52545  40.827  30.478   7.053
 9088POPC   C4B52546  40.800  30.402   7.353
 9089POPC   NC352547  19.093  34.555   5.553
 9089POPC   PO452548  19.106  34.598   5.853
 9089POPC   GL152549  19.060  34.557   6.153
 9089POPC   GL252550  18.958  34.555   6.153
 9089POPC   C1A52551  19.050  34.543   6.453
 9089POPC   D2A52552  19.055  34.586   6.753
 9089POPC   C3A52553  19.038  34.544   7.053
 9089POPC   C4A52554  19.025  34.578   7.353
 9089POPC   C1B52555  18.866  34.507   6.453
 9089POPC   C2B52556  18.817  34.542   6.753
 9089POPC   C3B52557  18.802  34.459   7.053
 9089POPC   C4B52558  18.828  34.511   7.353
 9090POPC   NC352559  23.699  36.173   5.553
 9090POPC   PO452560  23.712  36.161   5.853
 9090POPC   GL152561  23.714  36.082   6.153
 9090POPC   GL252562  23.799  36.123   6.153
 9090POPC   C1A52563  23.679  36.169   6.453
 9090POPC   D2A52564  23.732  36.114   6.753
 9090POPC   C3A52565  23.727  36.093   7.053
 9090POPC   C4A52566  23.763  36.078   7.353
 9090POPC   C1B52567  23.968  36.198   6.453
 9090POPC   C2B52568  23.996  36.155   6.753
 9090POPC   C3B52569  23.963  36.225   7.053
 9090POPC   C4B52570  23.984  36.196   7.353
 9091POPC   NC352571  22.149  22.130   5.553
 9091POPC   PO452572  22.180  22.113   5.853
 9091POPC   GL152573  22.151  22.209   6.153
 9091POPC   GL252574  22.302  22.116   6.153
 9091POPC   C1A52575  22.155  22.139   6.453
 9091POPC   D2A52576  22.212  22.179   6.753
 9091POPC   C3A52577  22.149  22.133   7.053
 9091POPC   C4A52578  22.206  22.149   7.353
 9091POPC   C1B52579  22.385  21.970   6.453
 9091POPC   C2B52580  22.306  21.984   6.753
 9091POPC   C3B52581  22.376  21.975   7.053
 9091POPC   C4B52582  22.389  21.989   7.353
 9092POPC   NC352583  26.844  29.958   5.553
 9092POPC   PO452584  26.809  29.903   5.853
 9092POPC   GL152585  26.844  29.954   6.153
 9092POPC   GL252586  26.731  30.008   6.153
 9092POPC   C1A52587  26.772  29.924   6.453
 9092POPC   D2A52588  26.822  29.876   6.753
 9092POPC   C3A52589  26.859  29.948   7.053
 9092POPC   C4A52590  26.820  29.939   7.353
 9092POPC   C1B52591  26.588  30.035   6.453
 9092POPC   C2B52592  26.646  30.026   6.753
 9092POPC   C3B52593  26.584  30.033   7.053
 9092POPC   C4B52594  26.623  30.028   7.353
 9093POPC   NC352595   6.618  18.273   5.553
 9093POPC   PO452596   6.624  18.328   5.853
 9093POPC   GL152597   6.681  18.301   6.153
 9093POPC   GL252598   6.581  18.175   6.153
 9093POPC   C1A52599   6.643  18.319   6.453
 9093POPC   D2A52600   6.676  18.305   6.753
 9093POPC   C3A52601   6.632  18.241   7.053
 9093POPC   C4A52602   6.616  18.320   7.353
 9093POPC   C1B52603   6.650  18.069   6.453
 9093POPC   C2B52604   6.590  18.040   6.753
 9093POPC   C3B52605   6.658  18.014   7.053
 9093POPC   C4B52606   6.604  18.055   7.353
 9094POPC   NC352607  43.106   0.403   5.553
 9094POPC   PO452608  43.125   0.435   5.853
 9094POPC   GL152609  43.089   0.401   6.153
 9094POPC   GL252610  43.217   0.576   6.153
 9094POPC   C1A52611  43.105   0.396   6.453
 9094POPC   D2A52612  43.115   0.484   6.753
 9094POPC   C3A52613  43.077   0.466   7.053
 9094POPC   C4A52614  43.120   0.476   7.353
 9094POPC   C1B52615  43.252   0.679   6.453
 9094POPC   C2B52616  43.191   0.643   6.753
 9094POPC   C3B52617  43.198   0.612   7.053
 9094POPC   C4B52618  43.244   0.685   7.353
 9095POPC   NC352619   1.241  41.554   5.553
 9095POPC   PO452620   1.220  41.513   5.853
 9095POPC   GL152621   1.253  41.547   6.153
 9095POPC   GL252622   1.165  41.460   6.153
 9095POPC   C1A52623   1.251  41.511   6.453
 9095POPC   D2A52624   1.260  41.540   6.753
 9095POPC   C3A52625   1.250  41.540   7.053
 9095POPC   C4A52626   1.252  41.524   7.353
 9095POPC   C1B52627   1.132  41.291   6.453
 9095POPC   C2B52628   1.158  41.307   6.753
 9095POPC   C3B52629   1.152  41.344   7.053
 9095POPC   C4B52630   1.185  41.283   7.353
 9096POPC   NC352631  37.642  17.464   5.553
 9096POPC   PO452632  37.663  17.554   5.853
 9096POPC   GL152633  37.725  17.546   6.153
 9096POPC   GL252634  37.849  17.548   6.153
 9096POPC   C1A52635  37.671  17.475   6.453
 9096POPC   D2A52636  37.647  17.510   6.753
 9096POPC   C3A52637  37.669  17.493   7.053
 9096POPC   C4A52638  37.707  17.527   7.353
 9096POPC   C1B52639  37.893  17.481   6.453
 9096POPC   C2B52640  37.950  17.488   6.753
 9096POPC   C3B52641  37.954  17.561   7.053
 9096POPC   C4B52642  37.969  17.501   7.353
 9097POPC   NC352643  27.636  15.985   5.553
 9097POPC   PO452644  27.545  15.965   5.853
 9097POPC   GL152645  27.578  15.982   6.153
 9097POPC   GL252646  27.493  16.030   6.153
 9097POPC   C1A52647  27.605  15.966   6.453
 9097POPC   D2A52648  27.544  15.995   6.753
 9097POPC   C3A52649  27.557  15.988   7.053
 9097POPC   C4A52650  27.596  15.944   7.353
 9097POPC   C1B52651  27.401  16.182   6.453
 9097POPC   C2B52652  27.438  16.159   6.753
 9097POPC   C3B52653  27.392  16.129   7.053
 9097POPC   C4B52654  27.476  16.182   7.353
 9098POPC   NC352655   6.626  28.383   5.553
 9098POPC   PO452656   6.659  28.398   5.853
 9098POPC   GL152657   6.672  28.348   6.153
 9098POPC   GL252658   6.521  28.269   6.153
 9098POPC   C1A52659   6.606  28.400   6.453
 9098POPC   D2A52660   6.628  28.400   6.753
 9098POPC   C3A52661   6.602  28.384   7.053
 9098POPC   C4A52662   6.600  28.391   7.353
 9098POPC   C1B52663   6.485  28.211   6.453
 9098POPC   C2B52664   6.431  28.191   6.753
 9098POPC   C3B52665   6.491  28.186   7.053
 9098POPC   C4B52666   6.475  28.157   7.353
 9099POPC   NC352667   7.467  20.591   5.553
 9099POPC   PO452668   7.460  20.622   5.853
 9099POPC   GL152669   7.378  20.604   6.153
 9099POPC   GL252670   7.265  20.634   6.153
 9099POPC   C1A52671   7.407  20.593   6.453
 9099POPC   D2A52672   7.452  20.605   6.753
 9099POPC   C3A52673   7.429  20.589   7.053
 9099POPC   C4A52674   7.460  20.631   7.353
 9099POPC   C1B52675   7.145  20.569   6.453
 9099POPC   C2B52676   7.213  20.637   6.753
 9099POPC   C3B52677   7.164  20.637   7.053
 9099POPC   C4B52678   7.152  20.563   7.353
 9100POPC   NC352679  14.376  12.808   5.553
 9100POPC   PO452680  14.367  12.873   5.853
 9100POPC   GL152681  14.434  12.828   6.153
 9100POPC   GL252682  14.560  12.891   6.153
 9100POPC   C1A52683  14.359  12.830   6.453
 9100POPC   D2A52684  14.445  12.827   6.753
 9100POPC   C3A52685  14.423  12.867   7.053
 9100POPC   C4A52686  14.428  12.824   7.353
 9100POPC   C1B52687  14.598  12.909   6.453
 9100POPC   C2B52688  14.633  12.943   6.753
 9100POPC   C3B52689  14.659  12.893   7.053
 9100POPC   C4B52690  14.596  12.941   7.353
 9101POPC   NC352691  30.731  41.512   5.553
 9101POPC   PO452692  30.732  41.582   5.853
 9101POPC   GL152693  30.696  41.593   6.153
 9101POPC   GL252694  30.810  41.488   6.153
 9101POPC   C1A52695  30.656  41.579   6.453
 9101POPC   D2A52696  30.668  41.550   6.753
 9101POPC   C3A52697  30.713  41.559   7.053
 9101POPC   C4A52698  30.707  41.557   7.353
 9101POPC   C1B52699  30.943  41.519   6.453
 9101POPC   C2B52700  30.917  41.506   6.753
 9101POPC   C3B52701  30.925  41.498   7.053
 9101POPC   C4B52702  30.977  41.455   7.353
 9102POPC   NC352703  32.276  32.983   5.553
 9102POPC   PO452704  32.225  32.981   5.853
 9102POPC   GL152705  32.228  32.991   6.153
 9102POPC   GL252706  32.254  32.912   6.153
 9102POPC   C1A52707  32.204  33.057   6.453
 9102POPC   D2A52708  32.295  33.040   6.753
 9102POPC   C3A52709  32.242  33.031   7.053
 9102POPC   C4A52710  32.263  33.022   7.353
 9102POPC   C1B52711  32.174  32.818   6.453
 9102POPC   C2B52712  32.186  32.778   6.753
 9102POPC   C3B52713  32.202  32.732   7.053
 9102POPC   C4B52714  32.150  32.758   7.353
 9103POPC   NC352715  13.674  19.072   5.553
 9103POPC   PO452716  13.673  19.106   5.853
 9103POPC   GL152717  13.628  19.103   6.153
 9103POPC   GL252718  13.729  19.183   6.153
 9103POPC   C1A52719  13.599  19.021   6.453
 9103POPC   D2A52720  13.664  19.054   6.753
 9103POPC   C3A52721  13.599  19.102   7.053
 9103POPC   C4A52722  13.649  19.041   7.353
 9103POPC   C1B52723  13.790  19.190   6.453
 9103POPC   C2B52724  13.827  19.222   6.753
 9103POPC   C3B52725  13.857  19.261   7.053
 9103POPC   C4B52726  13.858  19.220   7.353
 9104POPC   NC352727  13.665   2.795   5.553
 9104POPC   PO452728  13.579   2.736   5.853
 9104POPC   GL152729  13.668   2.798   6.153
 9104POPC   GL252730  13.542   2.794   6.153
 9104POPC   C1A52731  13.587   2.721   6.453
 9104POPC   D2A52732  13.657   2.724   6.753
 9104POPC   C3A52733  13.586   2.779   7.053
 9104POPC   C4A52734  13.660   2.719   7.353
 9104POPC   C1B52735  13.411   2.786   6.453
 9104POPC   C2B52736  13.355   2.789   6.753
 9104POPC   C3B52737  13.338   2.763   7.053
 9104POPC   C4B52738  13.360   2.817   7.353
 9105POPC   NC352739   6.613  30.648   5.553
 9105POPC   PO452740   6.650  30.734   5.853
 9105POPC   GL152741   6.671  30.687   6.153
 9105POPC   GL252742   6.621  30.546   6.153
 9105POPC   C1A52743   6.653  30.675   6.453
 9105POPC   D2A52744   6.682  30.697   6.753
 9105POPC   C3A52745   6.659  30.681   7.053
 9105POPC   C4A52746   6.649  30.649   7.353
 9105POPC   C1B52747   6.515  30.515   6.453
 9105POPC   C2B52748   6.501  30.523   6.753
 9105POPC   C3B52749   6.529  30.522   7.053
 9105POPC   C4B52750   6.465  30.490   7.353
 9106POPC   NC352751  30.733  29.931   5.553
 9106POPC   PO452752  30.676  29.883   5.853
 9106POPC   GL152753  30.652  29.881   6.153
 9106POPC   GL252754  30.737  29.767   6.153
 9106POPC   C1A52755  30.711  29.887   6.453
 9106POPC   D2A52756  30.732  29.923   6.753
 9106POPC   C3A52757  30.736  29.932   7.053
 9106POPC   C4A52758  30.725  29.945   7.353
 9106POPC   C1B52759  30.769  29.694   6.453
 9106POPC   C2B52760  30.727  29.660   6.753
 9106POPC   C3B52761  30.807  29.662   7.053
 9106POPC   C4B52762  30.738  29.717   7.353
 9107POPC   NC352763   8.934  36.140   5.553
 9107POPC   PO452764   8.962  36.153   5.853
 9107POPC   GL152765   8.981  36.167   6.153
 9107POPC   GL252766   8.892  36.164   6.153
 9107POPC   C1A52767   9.014  36.123   6.453
 9107POPC   D2A52768   8.995  36.081   6.753
 9107POPC   C3A52769   8.978  36.153   7.053
 9107POPC   C4A52770   8.975  36.120   7.353
 9107POPC   C1B52771   8.710  36.213   6.453
 9107POPC   C2B52772   8.728  36.243   6.753
 9107POPC   C3B52773   8.778  36.213   7.053
 9107POPC   C4B52774   8.760  36.166   7.353
 9108POPC   NC352775  31.518  41.584   5.553
 9108POPC   PO452776  31.456  41.580   5.853
 9108POPC   GL152777  31.510  41.604   6.153
 9108POPC   GL252778  31.517  41.402   6.153
 9108POPC   C1A52779  31.469  41.524   6.453
 9108POPC   D2A52780  31.496  41.538   6.753
 9108POPC   C3A52781  31.493  41.547   7.053
 9108POPC   C4A52782  31.432  41.604   7.353
 9108POPC   C1B52783  31.556  41.361   6.453
 9108POPC   C2B52784  31.600  41.294   6.753
 9108POPC   C3B52785  31.587  41.287   7.053
 9108POPC   C4B52786  31.563  41.305   7.353
 9109POPC   NC352787   9.727  44.653   5.553
 9109POPC   PO452788   9.784  44.671   5.853
 9109POPC   GL152789   9.787  44.641   6.153
 9109POPC   GL252790   9.760  44.736   6.153
 9109POPC   C1A52791   9.769  44.711   6.453
 9109POPC   D2A52792   9.704  44.673   6.753
 9109POPC   C3A52793   9.779  44.652   7.053
 9109POPC   C4A52794   9.766  44.659   7.353
 9109POPC   C1B52795   9.735  44.863   6.453
 9109POPC   C2B52796   9.696  44.904   6.753
 9109POPC   C3B52797   9.729  44.938   7.053
 9109POPC   C4B52798   9.701  44.946   7.353
 9110POPC   NC352799  41.531  29.190   5.553
 9110POPC   PO452800  41.511  29.134   5.853
 9110POPC   GL152801  41.511  29.185   6.153
 9110POPC   GL252802  41.540  29.300   6.153
 9110POPC   C1A52803  41.509  29.146   6.453
 9110POPC   D2A52804  41.577  29.138   6.753
 9110POPC   C3A52805  41.584  29.188   7.053
 9110POPC   C4A52806  41.509  29.117   7.353
 9110POPC   C1B52807  41.459  29.353   6.453
 9110POPC   C2B52808  41.431  29.369   6.753
 9110POPC   C3B52809  41.447  29.375   7.053
 9110POPC   C4B52810  41.514  29.343   7.353
 9111POPC   NC352811  12.026  33.824   5.553
 9111POPC   PO452812  12.033  33.799   5.853
 9111POPC   GL152813  12.081  33.752   6.153
 9111POPC   GL252814  12.047  33.949   6.153
 9111POPC   C1A52815  12.110  33.813   6.453
 9111POPC   D2A52816  12.065  33.836   6.753
 9111POPC   C3A52817  12.043  33.812   7.053
 9111POPC   C4A52818  12.119  33.813   7.353
 9111POPC   C1B52819  11.950  34.044   6.453
 9111POPC   C2B52820  11.966  33.981   6.753
 9111POPC   C3B52821  11.965  33.992   7.053
 9111POPC   C4B52822  11.899  34.051   7.353
 9112POPC   NC352823  29.884   7.405   5.553
 9112POPC   PO452824  29.933   7.400   5.853
 9112POPC   GL152825  29.934   7.432   6.153
 9112POPC   GL252826  29.903   7.339   6.153
 9112POPC   C1A52827  29.915   7.420   6.453
 9112POPC   D2A52828  29.878   7.384   6.753
 9112POPC   C3A52829  29.955   7.413   7.053
 9112POPC   C4A52830  29.967   7.435   7.353
 9112POPC   C1B52831  29.946   7.145   6.453
 9112POPC   C2B52832  29.966   7.213   6.753
 9112POPC   C3B52833  29.906   7.179   7.053
 9112POPC   C4B52834  29.923   7.169   7.353
 9113POPC   NC352835  21.428  33.829   5.553
 9113POPC   PO452836  21.418  33.786   5.853
 9113POPC   GL152837  21.388  33.841   6.153
 9113POPC   GL252838  21.339  33.703   6.153
 9113POPC   C1A52839  21.405  33.817   6.453
 9113POPC   D2A52840  21.373  33.794   6.753
 9113POPC   C3A52841  21.373  33.836   7.053
 9113POPC   C4A52842  21.352  33.762   7.353
 9113POPC   C1B52843  21.275  33.568   6.453
 9113POPC   C2B52844  21.251  33.575   6.753
 9113POPC   C3B52845  21.276  33.583   7.053
 9113POPC   C4B52846  21.245  33.550   7.353
 9114POPC   NC352847   9.719  33.010   5.553
 9114POPC   PO452848   9.766  33.035   5.853
 9114POPC   GL152849   9.774  33.029   6.153
 9114POPC   GL252850   9.749  33.095   6.153
 9114POPC   C1A52851   9.777  33.056   6.453
 9114POPC   D2A52852   9.726  33.046   6.753
 9114POPC   C3A52853   9.709  32.991   7.053
 9114POPC   C4A52854   9.792  32.978   7.353
 9114POPC   C1B52855   9.704  33.220   6.453
 9114POPC   C2B52856   9.629  33.283   6.753
 9114POPC   C3B52857   9.682  33.241   7.053
 9114POPC   C4B52858   9.627  33.213   7.353
 9115POPC   NC352859  12.896  14.388   5.553
 9115POPC   PO452860  12.856  14.366   5.853
 9115POPC   GL152861  12.864  14.408   6.153
 9115POPC   GL252862  12.922  14.340   6.153
 9115POPC   C1A52863  12.820  14.419   6.453
 9115POPC   D2A52864  12.849  14.383   6.753
 9115POPC   C3A52865  12.852  14.423   7.053
 9115POPC   C4A52866  12.824  14.428   7.353
 9115POPC   C1B52867  13.043  14.224   6.453
 9115POPC   C2B52868  13.005  14.206   6.753
 9115POPC   C3B52869  12.956  14.200   7.053
 9115POPC   C4B52870  12.974  14.238   7.353
 9116POPC   NC352871  31.456  36.165   5.553
 9116POPC   PO452872  31.481  36.146   5.853
 9116POPC   GL152873  31.510  36.091   6.153
 9116POPC   GL252874  31.378  36.204   6.153
 9116POPC   C1A52875  31.467  36.162   6.453
 9116POPC   D2A52876  31.446  36.148   6.753
 9116POPC   C3A52877  31.502  36.173   7.053
 9116POPC   C4A52878  31.427  36.111   7.353
 9116POPC   C1B52879  31.300  36.213   6.453
 9116POPC   C2B52880  31.285  36.217   6.753
 9116POPC   C3B52881  31.223  36.247   7.053
 9116POPC   C4B52882  31.223  36.262   7.353
 9117POPC   NC352883   5.845  33.792   5.553
 9117POPC   PO452884   5.879  33.843   5.853
 9117POPC   GL152885   5.857  33.810   6.153
 9117POPC   GL252886   5.720  33.791   6.153
 9117POPC   C1A52887   5.898  33.839   6.453
 9117POPC   D2A52888   5.856  33.810   6.753
 9117POPC   C3A52889   5.911  33.844   7.053
 9117POPC   C4A52890   5.853  33.792   7.353
 9117POPC   C1B52891   5.609  33.816   6.453
 9117POPC   C2B52892   5.632  33.799   6.753
 9117POPC   C3B52893   5.621  33.821   7.053
 9117POPC   C4B52894   5.648  33.742   7.353
 9118POPC   NC352895  11.334  16.777   5.553
 9118POPC   PO452896  11.296  16.764   5.853
 9118POPC   GL152897  11.251  16.685   6.153
 9118POPC   GL252898  11.344  16.840   6.153
 9118POPC   C1A52899  11.330  16.755   6.453
 9118POPC   D2A52900  11.310  16.688   6.753
 9118POPC   C3A52901  11.331  16.685   7.053
 9118POPC   C4A52902  11.296  16.713   7.353
 9118POPC   C1B52903  11.491  16.886   6.453
 9118POPC   C2B52904  11.494  16.884   6.753
 9118POPC   C3B52905  11.462  16.913   7.053
 9118POPC   C4B52906  11.417  16.908   7.353
 9119POPC   NC352907  41.587  11.307   5.553
 9119POPC   PO452908  41.524  11.331   5.853
 9119POPC   GL152909  41.517  11.286   6.153
 9119POPC   GL252910  41.497  11.223   6.153
 9119POPC   C1A52911  41.534  11.326   6.453
 9119POPC   D2A52912  41.548  11.328   6.753
 9119POPC   C3A52913  41.606  11.297   7.053
 9119POPC   C4A52914  41.586  11.327   7.353
 9119POPC   C1B52915  41.364  11.060   6.453
 9119POPC   C2B52916  41.398  11.084   6.753
 9119POPC   C3B52917  41.454  11.125   7.053
 9119POPC   C4B52918  41.369  11.087   7.353
 9120POPC   NC352919  35.383  20.628   5.553
 9120POPC   PO452920  35.396  20.621   5.853
 9120POPC   GL152921  35.330  20.575   6.153
 9120POPC   GL252922  35.442  20.512   6.153
 9120POPC   C1A52923  35.307  20.614   6.453
 9120POPC   D2A52924  35.323  20.648   6.753
 9120POPC   C3A52925  35.368  20.622   7.053
 9120POPC   C4A52926  35.377  20.626   7.353
 9120POPC   C1B52927  35.460  20.414   6.453
 9120POPC   C2B52928  35.483  20.439   6.753
 9120POPC   C3B52929  35.434  20.427   7.053
 9120POPC   C4B52930  35.491  20.357   7.353
 9121POPC   NC352931  34.601  26.067   5.553
 9121POPC   PO452932  34.567  26.047   5.853
 9121POPC   GL152933  34.583  26.079   6.153
 9121POPC   GL252934  34.558  25.940   6.153
 9121POPC   C1A52935  34.576  25.995   6.453
 9121POPC   D2A52936  34.586  26.051   6.753
 9121POPC   C3A52937  34.563  26.044   7.053
 9121POPC   C4A52938  34.579  26.069   7.353
 9121POPC   C1B52939  34.655  25.839   6.453
 9121POPC   C2B52940  34.671  25.794   6.753
 9121POPC   C3B52941  34.628  25.777   7.053
 9121POPC   C4B52942  34.648  25.796   7.353
 9122POPC   NC352943  44.701   7.454   5.553
 9122POPC   PO452944  44.643   7.450   5.853
 9122POPC   GL152945  44.681   7.424   6.153
 9122POPC   GL252946  44.712   7.336   6.153
 9122POPC   C1A52947  44.639   7.430   6.453
 9122POPC   D2A52948  44.684   7.396   6.753
 9122POPC   C3A52949  44.710   7.374   7.053
 9122POPC   C4A52950  44.656   7.416   7.353
 9122POPC   C1B52951  44.668   7.162   6.453
 9122POPC   C2B52952  44.645   7.214   6.753
 9122POPC   C3B52953  44.683   7.126   7.053
 9122POPC   C4B52954  44.715   7.145   7.353
 9123POPC   NC352955   8.958  28.378   5.553
 9123POPC   PO452956   8.997  28.362   5.853
 9123POPC   GL152957   9.008  28.378   6.153
 9123POPC   GL252958   9.031  28.466   6.153
 9123POPC   C1A52959   8.977  28.330   6.453
 9123POPC   D2A52960   9.006  28.346   6.753
 9123POPC   C3A52961   9.002  28.405   7.053
 9123POPC   C4A52962   8.931  28.403   7.353
 9123POPC   C1B52963   9.118  28.586   6.453
 9123POPC   C2B52964   9.186  28.561   6.753
 9123POPC   C3B52965   9.170  28.507   7.053
 9123POPC   C4B52966   9.175  28.585   7.353
 9124POPC   NC352967  32.263   2.022   5.553
 9124POPC   PO452968  32.227   2.021   5.853
 9124POPC   GL152969  32.297   1.963   6.153
 9124POPC   GL252970  32.101   1.964   6.153
 9124POPC   C1A52971  32.258   2.039   6.453
 9124POPC   D2A52972  32.230   2.001   6.753
 9124POPC   C3A52973  32.237   1.988   7.053
 9124POPC   C4A52974  32.263   1.954   7.353
 9124POPC   C1B52975  31.982   1.934   6.453
 9124POPC   C2B52976  32.034   1.887   6.753
 9124POPC   C3B52977  32.032   1.918   7.053
 9124POPC   C4B52978  31.977   1.974   7.353
 9125POPC   NC352979  25.224  40.036   5.553
 9125POPC   PO452980  25.315  40.027   5.853
 9125POPC   GL152981  25.298  40.054   6.153
 9125POPC   GL252982  25.306  40.148   6.153
 9125POPC   C1A52983  25.281  40.048   6.453
 9125POPC   D2A52984  25.302  39.979   6.753
 9125POPC   C3A52985  25.270  39.996   7.053
 9125POPC   C4A52986  25.256  40.012   7.353
 9125POPC   C1B52987  25.252  40.220   6.453
 9125POPC   C2B52988  25.332  40.264   6.753
 9125POPC   C3B52989  25.314  40.223   7.053
 9125POPC   C4B52990  25.334  40.299   7.353
 9126POPC   NC352991  28.410   9.742   5.553
 9126POPC   PO452992  28.400   9.773   5.853
 9126POPC   GL152993  28.397   9.736   6.153
 9126POPC   GL252994  28.536   9.711   6.153
 9126POPC   C1A52995  28.383   9.773   6.453
 9126POPC   D2A52996  28.375   9.755   6.753
 9126POPC   C3A52997  28.327   9.721   7.053
 9126POPC   C4A52998  28.334   9.796   7.353
 9126POPC   C1B52999  28.657   9.689   6.453
 9126POPC   C2B53000  28.624   9.717   6.753
 9126POPC   C3B53001  28.591   9.726   7.053
 9126POPC   C4B53002  28.599   9.762   7.353
 9127POPC   NC353003  38.498   4.347   5.553
 9127POPC   PO453004  38.429   4.343   5.853
 9127POPC   GL153005  38.464   4.324   6.153
 9127POPC   GL253006  38.461   4.414   6.153
 9127POPC   C1A53007  38.428   4.317   6.453
 9127POPC   D2A53008  38.462   4.279   6.753
 9127POPC   C3A53009  38.432   4.300   7.053
 9127POPC   C4A53010  38.426   4.325   7.353
 9127POPC   C1B53011  38.470   4.540   6.453
 9127POPC   C2B53012  38.528   4.523   6.753
 9127POPC   C3B53013  38.526   4.607   7.053
 9127POPC   C4B53014  38.447   4.573   7.353
 9128POPC   NC353015  26.035   7.471   5.553
 9128POPC   PO453016  26.053   7.456   5.853
 9128POPC   GL153017  26.085   7.382   6.153
 9128POPC   GL253018  26.136   7.443   6.153
 9128POPC   C1A53019  26.014   7.441   6.453
 9128POPC   D2A53020  26.086   7.371   6.753
 9128POPC   C3A53021  26.068   7.396   7.053
 9128POPC   C4A53022  25.999   7.375   7.353
 9128POPC   C1B53023  26.286   7.410   6.453
 9128POPC   C2B53024  26.244   7.395   6.753
 9128POPC   C3B53025  26.264   7.413   7.053
 9128POPC   C4B53026  26.264   7.329   7.353
 9129POPC   NC353027   9.010  12.026   5.553
 9129POPC   PO453028   8.999  12.034   5.853
 9129POPC   GL153029   8.996  12.112   6.153
 9129POPC   GL253030   8.992  11.955   6.153
 9129POPC   C1A53031   8.968  12.047   6.453
 9129POPC   D2A53032   9.002  12.086   6.753
 9129POPC   C3A53033   8.935  12.081   7.053
 9129POPC   C4A53034   9.002  12.052   7.353
 9129POPC   C1B53035   9.129  11.849   6.453
 9129POPC   C2B53036   9.045  11.814   6.753
 9129POPC   C3B53037   9.125  11.830   7.053
 9129POPC   C4B53038   9.136  11.813   7.353
 9130POPC   NC353039  15.135  13.603   5.553
 9130POPC   PO453040  15.173  13.653   5.853
 9130POPC   GL153041  15.189  13.677   6.153
 9130POPC   GL253042  15.308  13.725   6.153
 9130POPC   C1A53043  15.180  13.669   6.453
 9130POPC   D2A53044  15.213  13.610   6.753
 9130POPC   C3A53045  15.222  13.640   7.053
 9130POPC   C4A53046  15.224  13.656   7.353
 9130POPC   C1B53047  15.425  13.737   6.453
 9130POPC   C2B53048  15.410  13.731   6.753
 9130POPC   C3B53049  15.439  13.730   7.053
 9130POPC   C4B53050  15.405  13.701   7.353
 9131POPC   NC353051  29.134  43.916   5.553
 9131POPC   PO453052  29.166  43.845   5.853
 9131POPC   GL153053  29.168  43.845   6.153
 9131POPC   GL253054  29.184  43.945   6.153
 9131POPC   C1A53055  29.103  43.876   6.453
 9131POPC   D2A53056  29.159  43.912   6.753
 9131POPC   C3A53057  29.160  43.852   7.053
 9131POPC   C4A53058  29.103  43.928   7.353
 9131POPC   C1B53059  29.252  44.121   6.453
 9131POPC   C2B53060  29.245  44.127   6.753
 9131POPC   C3B53061  29.288  44.047   7.053
 9131POPC   C4B53062  29.324  44.109   7.353
 9132POPC   NC353063  40.003  42.295   5.553
 9132POPC   PO453064  39.980  42.289   5.853
 9132POPC   GL153065  39.963  42.289   6.153
 9132POPC   GL253066  39.948  42.489   6.153
 9132POPC   C1A53067  40.035  42.382   6.453
 9132POPC   D2A53068  40.002  42.375   6.753
 9132POPC   C3A53069  40.014  42.328   7.053
 9132POPC   C4A53070  39.981  42.338   7.353
 9132POPC   C1B53071  39.923  42.547   6.453
 9132POPC   C2B53072  39.949  42.603   6.753
 9132POPC   C3B53073  39.920  42.586   7.053
 9132POPC   C4B53074  39.906  42.554   7.353
 9133POPC   NC353075  38.441  43.102   5.553
 9133POPC   PO453076  38.449  43.125   5.853
 9133POPC   GL153077  38.411  43.141   6.153
 9133POPC   GL253078  38.391  43.220   6.153
 9133POPC   C1A53079  38.460  43.079   6.453
 9133POPC   D2A53080  38.422  43.153   6.753
 9133POPC   C3A53081  38.466  43.066   7.053
 9133POPC   C4A53082  38.498  43.154   7.353
 9133POPC   C1B53083  38.377  43.370   6.453
 9133POPC   C2B53084  38.353  43.346   6.753
 9133POPC   C3B53085  38.380  43.376   7.053
 9133POPC   C4B53086  38.346  43.347   7.353
 9134POPC   NC353087  18.234  42.309   5.553
 9134POPC   PO453088  18.261  42.316   5.853
 9134POPC   GL153089  18.330  42.331   6.153
 9134POPC   GL253090  18.348  42.483   6.153
 9134POPC   C1A53091  18.245  42.365   6.453
 9134POPC   D2A53092  18.259  42.336   6.753
 9134POPC   C3A53093  18.244  42.332   7.053
 9134POPC   C4A53094  18.242  42.301   7.353
 9134POPC   C1B53095  18.346  42.575   6.453
 9134POPC   C2B53096  18.270  42.576   6.753
 9134POPC   C3B53097  18.333  42.604   7.053
 9134POPC   C4B53098  18.324  42.564   7.353
 9135POPC   NC353099  34.590  17.473   5.553
 9135POPC   PO453100  34.530  17.525   5.853
 9135POPC   GL153101  34.530  17.521   6.153
 9135POPC   GL253102  34.620  17.453   6.153
 9135POPC   C1A53103  34.589  17.527   6.453
 9135POPC   D2A53104  34.529  17.554   6.753
 9135POPC   C3A53105  34.573  17.496   7.053
 9135POPC   C4A53106  34.580  17.550   7.353
 9135POPC   C1B53107  34.790  17.350   6.453
 9135POPC   C2B53108  34.750  17.319   6.753
 9135POPC   C3B53109  34.752  17.279   7.053
 9135POPC   C4B53110  34.793  17.324   7.353
 9136POPC   NC353111  20.577  27.611   5.553
 9136POPC   PO453112  20.570  27.558   5.853
 9136POPC   GL153113  20.607  27.553   6.153
 9136POPC   GL253114  20.609  27.444   6.153
 9136POPC   C1A53115  20.584  27.635   6.453
 9136POPC   D2A53116  20.615  27.604   6.753
 9136POPC   C3A53117  20.638  27.553   7.053
 9136POPC   C4A53118  20.601  27.611   7.353
 9136POPC   C1B53119  20.614  27.300   6.453
 9136POPC   C2B53120  20.701  27.337   6.753
 9136POPC   C3B53121  20.696  27.326   7.053
 9136POPC   C4B53122  20.671  27.334   7.353
 9137POPC   NC353123  15.206   5.847   5.553
 9137POPC   PO453124  15.191   5.861   5.853
 9137POPC   GL153125  15.141   5.917   6.153
 9137POPC   GL253126  15.273   5.823   6.153
 9137POPC   C1A53127  15.145   5.902   6.453
 9137POPC   D2A53128  15.202   5.820   6.753
 9137POPC   C3A53129  15.184   5.836   7.053
 9137POPC   C4A53130  15.159   5.913   7.353
 9137POPC   C1B53131  15.380   5.757   6.453
 9137POPC   C2B53132  15.444   5.750   6.753
 9137POPC   C3B53133  15.454   5.723   7.053
 9137POPC   C4B53134  15.441   5.718   7.353
 9138POPC   NC353135  33.000  30.700   5.553
 9138POPC   PO453136  32.989  30.662   5.853
 9138POPC   GL153137  33.022  30.720   6.153
 9138POPC   GL253138  32.975  30.814   6.153
 9138POPC   C1A53139  33.009  30.689   6.453
 9138POPC   D2A53140  32.996  30.686   6.753
 9138POPC   C3A53141  32.998  30.647   7.053
 9138POPC   C4A53142  33.066  30.684   7.353
 9138POPC   C1B53143  32.998  30.945   6.453
 9138POPC   C2B53144  33.014  30.913   6.753
 9138POPC   C3B53145  33.036  30.993   7.053
 9138POPC   C4B53146  33.039  30.966   7.353
 9139POPC   NC353147  36.936  32.292   5.553
 9139POPC   PO453148  36.869  32.275   5.853
 9139POPC   GL153149  36.859  32.205   6.153
 9139POPC   GL253150  36.882  32.318   6.153
 9139POPC   C1A53151  36.924  32.201   6.453
 9139POPC   D2A53152  36.932  32.262   6.753
 9139POPC   C3A53153  36.929  32.240   7.053
 9139POPC   C4A53154  36.934  32.227   7.353
 9139POPC   C1B53155  36.856  32.502   6.453
 9139POPC   C2B53156  36.824  32.461   6.753
 9139POPC   C3B53157  36.811  32.448   7.053
 9139POPC   C4B53158  36.780  32.521   7.353
 9140POPC   NC353159  34.600  33.024   5.553
 9140POPC   PO453160  34.561  33.031   5.853
 9140POPC   GL153161  34.607  33.059   6.153
 9140POPC   GL253162  34.581  32.900   6.153
 9140POPC   C1A53163  34.573  33.022   6.453
 9140POPC   D2A53164  34.527  33.035   6.753
 9140POPC   C3A53165  34.608  33.043   7.053
 9140POPC   C4A53166  34.582  32.993   7.353
 9140POPC   C1B53167  34.546  32.753   6.453
 9140POPC   C2B53168  34.509  32.753   6.753
 9140POPC   C3B53169  34.503  32.804   7.053
 9140POPC   C4B53170  34.471  32.802   7.353
 9141POPC   NC353171  31.515  33.787   5.553
 9141POPC   PO453172  31.498  33.771   5.853
 9141POPC   GL153173  31.426  33.781   6.153
 9141POPC   GL253174  31.550  33.726   6.153
 9141POPC   C1A53175  31.517  33.776   6.453
 9141POPC   D2A53176  31.429  33.823   6.753
 9141POPC   C3A53177  31.451  33.758   7.053
 9141POPC   C4A53178  31.480  33.812   7.353
 9141POPC   C1B53179  31.690  33.657   6.453
 9141POPC   C2B53180  31.718  33.652   6.753
 9141POPC   C3B53181  31.654  33.618   7.053
 9141POPC   C4B53182  31.690  33.640   7.353
 9142POPC   NC353183  33.765  40.832   5.553
 9142POPC   PO453184  33.837  40.795   5.853
 9142POPC   GL153185  33.829  40.809   6.153
 9142POPC   GL253186  33.708  40.798   6.153
 9142POPC   C1A53187  33.836  40.764   6.453
 9142POPC   D2A53188  33.832  40.762   6.753
 9142POPC   C3A53189  33.797  40.748   7.053
 9142POPC   C4A53190  33.768  40.746   7.353
 9142POPC   C1B53191  33.547  40.806   6.453
 9142POPC   C2B53192  33.533  40.803   6.753
 9142POPC   C3B53193  33.537  40.787   7.053
 9142POPC   C4B53194  33.566  40.744   7.353
 9143POPC   NC353195  44.623  14.393   5.553
 9143POPC   PO453196  44.664  14.392   5.853
 9143POPC   GL153197  44.617  14.441   6.153
 9143POPC   GL253198  44.711  14.504   6.153
 9143POPC   C1A53199  44.645  14.406   6.453
 9143POPC   D2A53200  44.674  14.388   6.753
 9143POPC   C3A53201  44.702  14.374   7.053
 9143POPC   C4A53202  44.628  14.367   7.353
 9143POPC   C1B53203  44.824  14.604   6.453
 9143POPC   C2B53204  44.728  14.647   6.753
 9143POPC   C3B53205  44.824  14.666   7.053
 9143POPC   C4B53206  44.778  14.652   7.353
 9144POPC   NC353207  36.111  36.931   5.553
 9144POPC   PO453208  36.166  36.861   5.853
 9144POPC   GL153209  36.085  36.899   6.153
 9144POPC   GL253210  36.219  36.878   6.153
 9144POPC   C1A53211  36.097  36.927   6.453
 9144POPC   D2A53212  36.116  36.941   6.753
 9144POPC   C3A53213  36.096  36.918   7.053
 9144POPC   C4A53214  36.117  36.940   7.353
 9144POPC   C1B53215  36.359  36.910   6.453
 9144POPC   C2B53216  36.399  36.919   6.753
 9144POPC   C3B53217  36.407  36.903   7.053
 9144POPC   C4B53218  36.419  36.978   7.353
 9145POPC   NC353219   1.241  20.586   5.553
 9145POPC   PO453220   1.252  20.569   5.853
 9145POPC   GL153221   1.225  20.590   6.153
 9145POPC   GL253222   1.104  20.738   6.153
 9145POPC   C1A53223   1.211  20.603   6.453
 9145POPC   D2A53224   1.201  20.624   6.753
 9145POPC   C3A53225   1.254  20.646   7.053
 9145POPC   C4A53226   1.239  20.577   7.353
 9145POPC   C1B53227   0.982  20.797   6.453
 9145POPC   C2B53228   1.001  20.823   6.753
 9145POPC   C3B53229   0.983  20.775   7.053
 9145POPC   C4B53230   1.070  20.799   7.353
 9146POPC   NC353231  20.617  21.429   5.553
 9146POPC   PO453232  20.595  21.395   5.853
 9146POPC   GL153233  20.649  21.422   6.153
 9146POPC   GL253234  20.684  21.379   6.153
 9146POPC   C1A53235  20.648  21.359   6.453
 9146POPC   D2A53236  20.618  21.361   6.753
 9146POPC   C3A53237  20.644  21.403   7.053
 9146POPC   C4A53238  20.623  21.408   7.353
 9146POPC   C1B53239  20.830  21.385   6.453
 9146POPC   C2B53240  20.884  21.432   6.753
 9146POPC   C3B53241  20.905  21.407   7.053
 9146POPC   C4B53242  20.843  21.392   7.353
 9147POPC   NC353243  16.711   9.008   5.553
 9147POPC   PO453244  16.683   8.997   5.853
 9147POPC   GL153245  16.757   8.922   6.153
 9147POPC   GL253246  16.789   9.105   6.153
 9147POPC   C1A53247  16.715   8.990   6.453
 9147POPC   D2A53248  16.737   8.938   6.753
 9147POPC   C3A53249  16.706   8.950   7.053
 9147POPC   C4A53250  16.747   8.982   7.353
 9147POPC   C1B53251  16.827   9.203   6.453
 9147POPC   C2B53252  16.881   9.153   6.753
 9147POPC   C3B53253  16.845   9.180   7.053
 9147POPC   C4B53254  16.893   9.218   7.353
 9148POPC   NC353255  12.064  26.084   5.553
 9148POPC   PO453256  12.097  26.051   5.853
 9148POPC   GL153257  12.106  26.054   6.153
 9148POPC   GL253258  12.189  25.952   6.153
 9148POPC   C1A53259  12.123  26.017   6.453
 9148POPC   D2A53260  12.034  26.083   6.753
 9148POPC   C3A53261  12.121  26.045   7.053
 9148POPC   C4A53262  12.120  26.021   7.353
 9148POPC   C1B53263  12.244  25.867   6.453
 9148POPC   C2B53264  12.273  25.850   6.753
 9148POPC   C3B53265  12.275  25.865   7.053
 9148POPC   C4B53266  12.297  25.857   7.353
 9149POPC   NC353267  39.215  43.142   5.553
 9149POPC   PO453268  39.188  43.117   5.853
 9149POPC   GL153269  39.280  43.138   6.153
 9149POPC   GL253270  39.239  43.227   6.153
 9149POPC   C1A53271  39.217  43.129   6.453
 9149POPC   D2A53272  39.275  43.148   6.753
 9149POPC   C3A53273  39.264  43.117   7.053
 9149POPC   C4A53274  39.260  43.153   7.353
 9149POPC   C1B53275  39.259  43.391   6.453
 9149POPC   C2B53276  39.248  43.328   6.753
 9149POPC   C3B53277  39.177  43.396   7.053
 9149POPC   C4B53278  39.241  43.328   7.353
 9150POPC   NC353279   4.272   7.445   5.553
 9150POPC   PO453280   4.329   7.395   5.853
 9150POPC   GL153281   4.351   7.414   6.153
 9150POPC   GL253282   4.199   7.353   6.153
 9150POPC   C1A53283   4.304   7.408   6.453
 9150POPC   D2A53284   4.336   7.461   6.753
 9150POPC   C3A53285   4.332   7.378   7.053
 9150POPC   C4A53286   4.324   7.437   7.353
 9150POPC   C1B53287   4.084   7.247   6.453
 9150POPC   C2B53288   4.084   7.272   6.753
 9150POPC   C3B53289   4.052   7.293   7.053
 9150POPC   C4B53290   4.070   7.251   7.353
 9151POPC   NC353291   0.471  22.120   5.553
 9151POPC   PO453292   0.396  22.191   5.853
 9151POPC   GL153293   0.473  22.185   6.153
 9151POPC   GL253294   0.590  22.107   6.153
 9151POPC   C1A53295   0.478  22.118   6.453
 9151POPC   D2A53296   0.406  22.160   6.753
 9151POPC   C3A53297   0.394  22.114   7.053
 9151POPC   C4A53298   0.442  22.134   7.353
 9151POPC   C1B53299   0.663  22.022   6.453
 9151POPC   C2B53300   0.604  21.986   6.753
 9151POPC   C3B53301   0.656  22.063   7.053
 9151POPC   C4B53302   0.685  22.019   7.353
 9152POPC   NC353303  29.108  19.809   5.553
 9152POPC   PO453304  29.106  19.809   5.853
 9152POPC   GL153305  29.161  19.805   6.153
 9152POPC   GL253306  29.071  19.739   6.153
 9152POPC   C1A53307  29.138  19.814   6.453
 9152POPC   D2A53308  29.186  19.820   6.753
 9152POPC   C3A53309  29.159  19.820   7.053
 9152POPC   C4A53310  29.126  19.841   7.353
 9152POPC   C1B53311  29.021  19.581   6.453
 9152POPC   C2B53312  29.009  19.620   6.753
 9152POPC   C3B53313  29.039  19.636   7.053
 9152POPC   C4B53314  29.045  19.650   7.353
 9153POPC   NC353315  29.911  35.334   5.553
 9153POPC   PO453316  29.969  35.366   5.853
 9153POPC   GL153317  29.877  35.312   6.153
 9153POPC   GL253318  29.979  35.502   6.153
 9153POPC   C1A53319  29.952  35.347   6.453
 9153POPC   D2A53320  29.947  35.386   6.753
 9153POPC   C3A53321  29.919  35.321   7.053
 9153POPC   C4A53322  29.934  35.391   7.353
 9153POPC   C1B53323  29.954  35.615   6.453
 9153POPC   C2B53324  29.930  35.584   6.753
 9153POPC   C3B53325  29.900  35.564   7.053
 9153POPC   C4B53326  29.986  35.620   7.353
 9154POPC   NC353327  40.794   0.459   5.553
 9154POPC   PO453328  40.781   0.397   5.853
 9154POPC   GL153329  40.748   0.444   6.153
 9154POPC   GL253330  40.828   0.330   6.153
 9154POPC   C1A53331  40.798   0.432   6.453
 9154POPC   D2A53332  40.753   0.428   6.753
 9154POPC   C3A53333  40.791   0.428   7.053
 9154POPC   C4A53334  40.795   0.487   7.353
 9154POPC   C1B53335  40.880   0.269   6.453
 9154POPC   C2B53336  40.908   0.192   6.753
 9154POPC   C3B53337  40.882   0.251   7.053
 9154POPC   C4B53338  40.904   0.231   7.353
 9155POPC   NC353339  32.994  32.237   5.553
 9155POPC   PO453340  33.049  32.263   5.853
 9155POPC   GL153341  33.020  32.255   6.153
 9155POPC   GL253342  33.151  32.196   6.153
 9155POPC   C1A53343  33.068  32.266   6.453
 9155POPC   D2A53344  33.063  32.253   6.753
 9155POPC   C3A53345  32.996  32.203   7.053
 9155POPC   C4A53346  32.979  32.213   7.353
 9155POPC   C1B53347  33.278  32.269   6.453
 9155POPC   C2B53348  33.321  32.243   6.753
 9155POPC   C3B53349  33.308  32.202   7.053
 9155POPC   C4B53350  33.270  32.207   7.353
 9156POPC   NC353351  25.999  26.825   5.553
 9156POPC   PO453352  26.059  26.826   5.853
 9156POPC   GL153353  26.051  26.786   6.153
 9156POPC   GL253354  26.166  26.776   6.153
 9156POPC   C1A53355  26.044  26.803   6.453
 9156POPC   D2A53356  26.021  26.814   6.753
 9156POPC   C3A53357  26.084  26.789   7.053
 9156POPC   C4A53358  26.057  26.799   7.353
 9156POPC   C1B53359  26.297  26.700   6.453
 9156POPC   C2B53360  26.228  26.687   6.753
 9156POPC   C3B53361  26.234  26.681   7.053
 9156POPC   C4B53362  26.275  26.654   7.353
 9157POPC   NC353363  43.915  41.602   5.553
 9157POPC   PO453364  43.871  41.519   5.853
 9157POPC   GL153365  43.857  41.519   6.153
 9157POPC   GL253366  43.807  41.656   6.153
 9157POPC   C1A53367  43.852  41.520   6.453
 9157POPC   D2A53368  43.888  41.564   6.753
 9157POPC   C3A53369  43.865  41.533   7.053
 9157POPC   C4A53370  43.907  41.577   7.353
 9157POPC   C1B53371  43.741  41.767   6.453
 9157POPC   C2B53372  43.679  41.766   6.753
 9157POPC   C3B53373  43.713  41.761   7.053
 9157POPC   C4B53374  43.687  41.718   7.353
 9158POPC   NC353375  27.631  13.580   5.553
 9158POPC   PO453376  27.631  13.654   5.853
 9158POPC   GL153377  27.636  13.669   6.153
 9158POPC   GL253378  27.687  13.578   6.153
 9158POPC   C1A53379  27.571  13.671   6.453
 9158POPC   D2A53380  27.599  13.647   6.753
 9158POPC   C3A53381  27.601  13.612   7.053
 9158POPC   C4A53382  27.641  13.583   7.353
 9158POPC   C1B53383  27.820  13.530   6.453
 9158POPC   C2B53384  27.754  13.458   6.753
 9158POPC   C3B53385  27.759  13.467   7.053
 9158POPC   C4B53386  27.804  13.442   7.353
 9159POPC   NC353387  10.525  36.872   5.553
 9159POPC   PO453388  10.495  36.862   5.853
 9159POPC   GL153389  10.522  36.944   6.153
 9159POPC   GL253390  10.638  37.027   6.153
 9159POPC   C1A53391  10.574  36.898   6.453
 9159POPC   D2A53392  10.491  36.944   6.753
 9159POPC   C3A53393  10.565  36.924   7.053
 9159POPC   C4A53394  10.514  36.931   7.353
 9159POPC   C1B53395  10.674  37.155   6.453
 9159POPC   C2B53396  10.653  37.134   6.753
 9159POPC   C3B53397  10.700  37.116   7.053
 9159POPC   C4B53398  10.652  37.135   7.353
 9160POPC   NC353399  14.410  19.009   5.553
 9160POPC   PO453400  14.405  19.101   5.853
 9160POPC   GL153401  14.438  19.108   6.153
 9160POPC   GL253402  14.504  19.140   6.153
 9160POPC   C1A53403  14.444  19.044   6.453
 9160POPC   D2A53404  14.443  19.101   6.753
 9160POPC   C3A53405  14.392  19.069   7.053
 9160POPC   C4A53406  14.394  19.090   7.353
 9160POPC   C1B53407  14.652  19.157   6.453
 9160POPC   C2B53408  14.629  19.127   6.753
 9160POPC   C3B53409  14.601  19.210   7.053
 9160POPC   C4B53410  14.654  19.131   7.353
 9161POPC   NC353411   5.107  19.072   5.553
 9161POPC   PO453412   5.092  19.010   5.853
 9161POPC   GL153413   5.051  19.057   6.153
 9161POPC   GL253414   5.133  18.991   6.153
 9161POPC   C1A53415   5.051  19.108   6.453
 9161POPC   D2A53416   5.125  19.104   6.753
 9161POPC   C3A53417   5.075  19.089   7.053
 9161POPC   C4A53418   5.108  19.097   7.353
 9161POPC   C1B53419   5.140  18.783   6.453
 9161POPC   C2B53420   5.218  18.847   6.753
 9161POPC   C3B53421   5.154  18.851   7.053
 9161POPC   C4B53422   5.148  18.819   7.353
 9162POPC   NC353423  44.662   1.982   5.553
 9162POPC   PO453424  44.624   2.036   5.853
 9162POPC   GL153425  44.662   2.007   6.153
 9162POPC   GL253426  44.713   2.154   6.153
 9162POPC   C1A53427  44.633   1.960   6.453
 9162POPC   D2A53428  44.697   2.032   6.753
 9162POPC   C3A53429  44.657   1.987   7.053
 9162POPC   C4A53430  44.624   2.037   7.353
 9162POPC   C1B53431  44.666   2.265   6.453
 9162POPC   C2B53432  44.640   2.221   6.753
 9162POPC   C3B53433  44.714   2.246   7.053
 9162POPC   C4B53434  44.737   2.201   7.353
 9163POPC   NC353435  11.307  33.004   5.553
 9163POPC   PO453436  11.273  33.040   5.853
 9163POPC   GL153437  11.308  33.055   6.153
 9163POPC   GL253438  11.155  33.020   6.153
 9163POPC   C1A53439  11.295  33.052   6.453
 9163POPC   D2A53440  11.336  33.034   6.753
 9163POPC   C3A53441  11.255  33.060   7.053
 9163POPC   C4A53442  11.275  32.989   7.353
 9163POPC   C1B53443  11.064  33.060   6.453
 9163POPC   C2B53444  11.089  33.066   6.753
 9163POPC   C3B53445  11.070  33.087   7.053
 9163POPC   C4B53446  11.098  33.011   7.353
 9164POPC   NC353447  12.118  33.059   5.553
 9164POPC   PO453448  12.066  32.985   5.853
 9164POPC   GL153449  12.091  32.995   6.153
 9164POPC   GL253450  12.105  32.927   6.153
 9164POPC   C1A53451  12.122  33.019   6.453
 9164POPC   D2A53452  12.086  32.987   6.753
 9164POPC   C3A53453  12.040  32.984   7.053
 9164POPC   C4A53454  12.114  33.054   7.353
 9164POPC   C1B53455  12.192  32.822   6.453
 9164POPC   C2B53456  12.264  32.849   6.753
 9164POPC   C3B53457  12.195  32.864   7.053
 9164POPC   C4B53458  12.274  32.850   7.353
 9165POPC   NC353459  40.013  22.151   5.553
 9165POPC   PO453460  40.028  22.163   5.853
 9165POPC   GL153461  40.041  22.207   6.153
 9165POPC   GL253462  40.104  22.090   6.153
 9165POPC   C1A53463  40.044  22.191   6.453
 9165POPC   D2A53464  40.038  22.169   6.753
 9165POPC   C3A53465  40.005  22.116   7.053
 9165POPC   C4A53466  39.970  22.140   7.353
 9165POPC   C1B53467  40.121  21.948   6.453
 9165POPC   C2B53468  40.099  21.955   6.753
 9165POPC   C3B53469  40.174  21.977   7.053
 9165POPC   C4B53470  40.119  21.938   7.353
 9166POPC   NC353471  31.486  29.887   5.553
 9166POPC   PO453472  31.497  29.924   5.853
 9166POPC   GL153473  31.436  29.956   6.153
 9166POPC   GL253474  31.536  29.826   6.153
 9166POPC   C1A53475  31.456  29.945   6.453
 9166POPC   D2A53476  31.488  29.884   6.753
 9166POPC   C3A53477  31.513  29.942   7.053
 9166POPC   C4A53478  31.469  29.960   7.353
 9166POPC   C1B53479  31.648  29.773   6.453
 9166POPC   C2B53480  31.684  29.800   6.753
 9166POPC   C3B53481  31.631  29.796   7.053
 9166POPC   C4B53482  31.676  29.785   7.353
 9167POPC   NC353483  19.811  42.300   5.553
 9167POPC   PO453484  19.796  42.315   5.853
 9167POPC   GL153485  19.790  42.335   6.153
 9167POPC   GL253486  19.729  42.343   6.153
 9167POPC   C1A53487  19.846  42.368   6.453
 9167POPC   D2A53488  19.803  42.359   6.753
 9167POPC   C3A53489  19.790  42.384   7.053
 9167POPC   C4A53490  19.811  42.344   7.353
 9167POPC   C1B53491  19.546  42.388   6.453
 9167POPC   C2B53492  19.572  42.381   6.753
 9167POPC   C3B53493  19.545  42.364   7.053
 9167POPC   C4B53494  19.630  42.378   7.353
 9168POPC   NC353495   7.405   8.981   5.553
 9168POPC   PO453496   7.447   8.963   5.853
 9168POPC   GL153497   7.414   8.973   6.153
 9168POPC   GL253498   7.319   8.951   6.153
 9168POPC   C1A53499   7.456   8.952   6.453
 9168POPC   D2A53500   7.470   8.979   6.753
 9168POPC   C3A53501   7.385   8.928   7.053
 9168POPC   C4A53502   7.441   8.951   7.353
 9168POPC   C1B53503   7.195   8.889   6.453
 9168POPC   C2B53504   7.172   8.861   6.753
 9168POPC   C3B53505   7.172   8.941   7.053
 9168POPC   C4B53506   7.219   8.863   7.353
 9169POPC   NC353507   5.049   5.918   5.553
 9169POPC   PO453508   5.092   5.868   5.853
 9169POPC   GL153509   5.131   5.838   6.153
 9169POPC   GL253510   5.054   5.762   6.153
 9169POPC   C1A53511   5.092   5.918   6.453
 9169POPC   D2A53512   5.112   5.905   6.753
 9169POPC   C3A53513   5.078   5.839   7.053
 9169POPC   C4A53514   5.139   5.888   7.353
 9169POPC   C1B53515   4.896   5.707   6.453
 9169POPC   C2B53516   4.877   5.661   6.753
 9169POPC   C3B53517   4.914   5.675   7.053
 9169POPC   C4B53518   4.967   5.718   7.353
 9170POPC   NC353519  41.551  32.246   5.553
 9170POPC   PO453520  41.519  32.213   5.853
 9170POPC   GL153521  41.531  32.229   6.153
 9170POPC   GL253522  41.718  32.244   6.153
 9170POPC   C1A53523  41.566  32.285   6.453
 9170POPC   D2A53524  41.590  32.285   6.753
 9170POPC   C3A53525  41.518  32.205   7.053
 9170POPC   C4A53526  41.570  32.273   7.353
 9170POPC   C1B53527  41.771  32.277   6.453
 9170POPC   C2B53528  41.828  32.284   6.753
 9170POPC   C3B53529  41.773  32.319   7.053
 9170POPC   C4B53530  41.846  32.301   7.353
 9171POPC   NC353531   2.775   9.001   5.553
 9171POPC   PO453532   2.742   9.010   5.853
 9171POPC   GL153533   2.745   8.946   6.153
 9171POPC   GL253534   2.621   8.962   6.153
 9171POPC   C1A53535   2.739   9.016   6.453
 9171POPC   D2A53536   2.722   8.947   6.753
 9171POPC   C3A53537   2.757   9.011   7.053
 9171POPC   C4A53538   2.760   8.974   7.353
 9171POPC   C1B53539   2.537   8.915   6.453
 9171POPC   C2B53540   2.547   8.922   6.753
 9171POPC   C3B53541   2.536   8.944   7.053
 9171POPC   C4B53542   2.496   8.879   7.353
 9172POPC   NC353543  32.204  44.687   5.553
 9172POPC   PO453544  32.214  44.652   5.853
 9172POPC   GL153545  32.223  44.667   6.153
 9172POPC   GL253546  32.414  44.641   6.153
 9172POPC   C1A53547  32.296  44.706   6.453
 9172POPC   D2A53548  32.224  44.685   6.753
 9172POPC   C3A53549  32.204  44.662   7.053
 9172POPC   C4A53550  32.201  44.675   7.353
 9172POPC   C1B53551  32.486  44.697   6.453
 9172POPC   C2B53552  32.463  44.678   6.753
 9172POPC   C3B53553  32.486  44.676   7.053
 9172POPC   C4B53554  32.480  44.650   7.353
 9173POPC   NC353555  25.305  43.858   5.553
 9173POPC   PO453556  25.286  43.861   5.853
 9173POPC   GL153557  25.224  43.868   6.153
 9173POPC   GL253558  25.331  43.801   6.153
 9173POPC   C1A53559  25.291  43.930   6.453
 9173POPC   D2A53560  25.229  43.886   6.753
 9173POPC   C3A53561  25.268  43.884   7.053
 9173POPC   C4A53562  25.306  43.889   7.353
 9173POPC   C1B53563  25.473  43.789   6.453
 9173POPC   C2B53564  25.502  43.735   6.753
 9173POPC   C3B53565  25.489  43.747   7.053
 9173POPC   C4B53566  25.495  43.731   7.353
 9174POPC   NC353567  43.141  38.422   5.553
 9174POPC   PO453568  43.133  38.444   5.853
 9174POPC   GL153569  43.098  38.455   6.153
 9174POPC   GL253570  43.224  38.392   6.153
 9174POPC   C1A53571  43.152  38.499   6.453
 9174POPC   D2A53572  43.149  38.470   6.753
 9174POPC   C3A53573  43.065  38.427   7.053
 9174POPC   C4A53574  43.139  38.465   7.353
 9174POPC   C1B53575  43.213  38.262   6.453
 9174POPC   C2B53576  43.266  38.256   6.753
 9174POPC   C3B53577  43.223  38.283   7.053
 9174POPC   C4B53578  43.227  38.272   7.353
 9175POPC   NC353579   8.174  43.857   5.553
 9175POPC   PO453580   8.241  43.889   5.853
 9175POPC   GL153581   8.171  43.879   6.153
 9175POPC   GL253582   8.086  43.795   6.153
 9175POPC   C1A53583   8.174  43.859   6.453
 9175POPC   D2A53584   8.157  43.915   6.753
 9175POPC   C3A53585   8.231  43.933   7.053
 9175POPC   C4A53586   8.181  43.909   7.353
 9175POPC   C1B53587   8.068  43.638   6.453
 9175POPC   C2B53588   8.095  43.695   6.753
 9175POPC   C3B53589   8.072  43.718   7.053
 9175POPC   C4B53590   8.016  43.633   7.353
 9176POPC   NC353591   1.263   5.851   5.553
 9176POPC   PO453592   1.202   5.885   5.853
 9176POPC   GL153593   1.226   5.915   6.153
 9176POPC   GL253594   1.262   6.033   6.153
 9176POPC   C1A53595   1.190   5.906   6.453
 9176POPC   D2A53596   1.171   5.847   6.753
 9176POPC   C3A53597   1.178   5.863   7.053
 9176POPC   C4A53598   1.236   5.898   7.353
 9176POPC   C1B53599   1.252   6.124   6.453
 9176POPC   C2B53600   1.265   6.136   6.753
 9176POPC   C3B53601   1.224   6.140   7.053
 9176POPC   C4B53602   1.253   6.079   7.353
 9177POPC   NC353603   1.248   5.083   5.553
 9177POPC   PO453604   1.168   5.128   5.853
 9177POPC   GL153605   1.188   5.120   6.153
 9177POPC   GL253606   1.053   5.029   6.153
 9177POPC   C1A53607   1.239   5.121   6.453
 9177POPC   D2A53608   1.219   5.048   6.753
 9177POPC   C3A53609   1.184   5.064   7.053
 9177POPC   C4A53610   1.188   5.075   7.353
 9177POPC   C1B53611   1.038   5.015   6.453
 9177POPC   C2B53612   1.029   4.971   6.753
 9177POPC   C3B53613   0.978   4.975   7.053
 9177POPC   C4B53614   1.025   4.938   7.353
 9178POPC   NC353615  24.509  24.482   5.553
 9178POPC   PO453616  24.492  24.440   5.853
 9178POPC   GL153617  24.504  24.448   6.153
 9178POPC   GL253618  24.581  24.483   6.153
 9178POPC   C1A53619  24.481  24.513   6.453
 9178POPC   D2A53620  24.444  24.479   6.753
 9178POPC   C3A53621  24.520  24.524   7.053
 9178POPC   C4A53622  24.458  24.535   7.353
 9178POPC   C1B53623  24.778  24.486   6.453
 9178POPC   C2B53624  24.698  24.514   6.753
 9178POPC   C3B53625  24.740  24.556   7.053
 9178POPC   C4B53626  24.732  24.543   7.353
 9179POPC   NC353627   5.084  37.724   5.553
 9179POPC   PO453628   5.084  37.724   5.853
 9179POPC   GL153629   5.062  37.660   6.153
 9179POPC   GL253630   5.158  37.619   6.153
 9179POPC   C1A53631   5.118  37.692   6.453
 9179POPC   D2A53632   5.048  37.658   6.753
 9179POPC   C3A53633   5.142  37.691   7.053
 9179POPC   C4A53634   5.128  37.669   7.353
 9179POPC   C1B53635   5.209  37.475   6.453
 9179POPC   C2B53636   5.229  37.459   6.753
 9179POPC   C3B53637   5.253  37.474   7.053
 9179POPC   C4B53638   5.252  37.430   7.353
 9180POPC   NC353639  16.778   4.331   5.553
 9180POPC   PO453640  16.745   4.274   5.853
 9180POPC   GL153641  16.769   4.365   6.153
 9180POPC   GL253642  16.746   4.148   6.153
 9180POPC   C1A53643  16.758   4.339   6.453
 9180POPC   D2A53644  16.709   4.334   6.753
 9180POPC   C3A53645  16.755   4.361   7.053
 9180POPC   C4A53646  16.710   4.348   7.353
 9180POPC   C1B53647  16.828   4.122   6.453
 9180POPC   C2B53648  16.788   4.051   6.753
 9180POPC   C3B53649  16.781   4.085   7.053
 9180POPC   C4B53650  16.828   4.120   7.353
 9181POPC   NC353651  16.737  20.646   5.553
 9181POPC   PO453652  16.741  20.595   5.853
 9181POPC   GL153653  16.750  20.613   6.153
 9181POPC   GL253654  16.808  20.500   6.153
 9181POPC   C1A53655  16.776  20.605   6.453
 9181POPC   D2A53656  16.743  20.625   6.753
 9181POPC   C3A53657  16.701  20.582   7.053
 9181POPC   C4A53658  16.750  20.604   7.353
 9181POPC   C1B53659  16.927  20.487   6.453
 9181POPC   C2B53660  16.871  20.394   6.753
 9181POPC   C3B53661  16.932  20.462   7.053
 9181POPC   C4B53662  16.872  20.442   7.353
 9182POPC   NC353663  36.912  44.669   5.553
 9182POPC   PO453664  36.930  44.708   5.853
 9182POPC   GL153665  36.855  44.622   6.153
 9182POPC   GL253666  37.037  44.614   6.153
 9182POPC   C1A53667  36.876  44.675   6.453
 9182POPC   D2A53668  36.916  44.706   6.753
 9182POPC   C3A53669  36.876  44.645   7.053
 9182POPC   C4A53670  36.944  44.675   7.353
 9182POPC   C1B53671  37.058  44.506   6.453
 9182POPC   C2B53672  37.035  44.484   6.753
 9182POPC   C3B53673  37.039  44.511   7.053
 9182POPC   C4B53674  37.100  44.529   7.353
 9183POPC   NC353675  20.567  37.643   5.553
 9183POPC   PO453676  20.595  37.704   5.853
 9183POPC   GL153677  20.590  37.653   6.153
 9183POPC   GL253678  20.702  37.806   6.153
 9183POPC   C1A53679  20.644  37.721   6.453
 9183POPC   D2A53680  20.566  37.650   6.753
 9183POPC   C3A53681  20.590  37.710   7.053
 9183POPC   C4A53682  20.622  37.648   7.353
 9183POPC   C1B53683  20.727  37.903   6.453
 9183POPC   C2B53684  20.691  37.881   6.753
 9183POPC   C3B53685  20.661  37.955   7.053
 9183POPC   C4B53686  20.704  37.913   7.353
 9184POPC   NC353687  29.952  39.206   5.553
 9184POPC   PO453688  29.959  39.253   5.853
 9184POPC   GL153689  29.924  39.267   6.153
 9184POPC   GL253690  30.031  39.316   6.153
 9184POPC   C1A53691  29.937  39.194   6.453
 9184POPC   D2A53692  29.951  39.214   6.753
 9184POPC   C3A53693  29.925  39.218   7.053
 9184POPC   C4A53694  29.945  39.192   7.353
 9184POPC   C1B53695  30.157  39.402   6.453
 9184POPC   C2B53696  30.108  39.404   6.753
 9184POPC   C3B53697  30.161  39.332   7.053
 9184POPC   C4B53698  30.157  39.313   7.353
 9185POPC   NC353699  30.691  30.695   5.553
 9185POPC   PO453700  30.679  30.671   5.853
 9185POPC   GL153701  30.712  30.722   6.153
 9185POPC   GL253702  30.749  30.562   6.153
 9185POPC   C1A53703  30.728  30.737   6.453
 9185POPC   D2A53704  30.663  30.673   6.753
 9185POPC   C3A53705  30.692  30.686   7.053
 9185POPC   C4A53706  30.709  30.695   7.353
 9185POPC   C1B53707  30.711  30.484   6.453
 9185POPC   C2B53708  30.808  30.418   6.753
 9185POPC   C3B53709  30.712  30.427   7.053
 9185POPC   C4B53710  30.746  30.494   7.353
 9186POPC   NC353711  36.943  43.855   5.553
 9186POPC   PO453712  36.885  43.900   5.853
 9186POPC   GL153713  36.861  43.866   6.153
 9186POPC   GL253714  36.904  43.750   6.153
 9186POPC   C1A53715  36.872  43.856   6.453
 9186POPC   D2A53716  36.863  43.857   6.753
 9186POPC   C3A53717  36.882  43.876   7.053
 9186POPC   C4A53718  36.865  43.849   7.353
 9186POPC   C1B53719  36.874  43.625   6.453
 9186POPC   C2B53720  36.858  43.614   6.753
 9186POPC   C3B53721  36.901  43.588   7.053
 9186POPC   C4B53722  36.922  43.656   7.353
 9187POPC   NC353723  44.655   6.598   5.553
 9187POPC   PO453724  44.703   6.611   5.853
 9187POPC   GL153725  44.614   6.693   6.153
 9187POPC   GL253726  44.525   6.661   6.153
 9187POPC   C1A53727  44.675   6.617   6.453
 9187POPC   D2A53728  44.635   6.683   6.753
 9187POPC   C3A53729  44.627   6.631   7.053
 9187POPC   C4A53730  44.666   6.649   7.353
 9187POPC   C1B53731  44.449   6.668   6.453
 9187POPC   C2B53732  44.446   6.612   6.753
 9187POPC   C3B53733  44.431   6.637   7.053
 9187POPC   C4B53734  44.441   6.577   7.353
 9188POPC   NC353735  12.878  39.254   5.553
 9188POPC   PO453736  12.834  39.183   5.853
 9188POPC   GL153737  12.818  39.252   6.153
 9188POPC   GL253738  12.983  39.162   6.153
 9188POPC   C1A53739  12.870  39.184   6.453
 9188POPC   D2A53740  12.880  39.226   6.753
 9188POPC   C3A53741  12.869  39.259   7.053
 9188POPC   C4A53742  12.887  39.183   7.353
 9188POPC   C1B53743  13.110  39.127   6.453
 9188POPC   C2B53744  13.070  39.078   6.753
 9188POPC   C3B53745  13.049  39.056   7.053
 9188POPC   C4B53746  13.095  39.115   7.353
 9189POPC   NC353747  38.469  24.537   5.553
 9189POPC   PO453748  38.473  24.528   5.853
 9189POPC   GL153749  38.472  24.448   6.153
 9189POPC   GL253750  38.424  24.642   6.153
 9189POPC   C1A53751  38.457  24.490   6.453
 9189POPC   D2A53752  38.475  24.539   6.753
 9189POPC   C3A53753  38.408  24.506   7.053
 9189POPC   C4A53754  38.491  24.500   7.353
 9189POPC   C1B53755  38.368  24.690   6.453
 9189POPC   C2B53756  38.383  24.687   6.753
 9189POPC   C3B53757  38.405  24.705   7.053
 9189POPC   C4B53758  38.412  24.786   7.353
 9190POPC   NC353759  40.042   3.562   5.553
 9190POPC   PO453760  40.005   3.530   5.853
 9190POPC   GL153761  40.050   3.580   6.153
 9190POPC   GL253762  40.034   3.642   6.153
 9190POPC   C1A53763  40.054   3.518   6.453
 9190POPC   D2A53764  40.008   3.583   6.753
 9190POPC   C3A53765  40.010   3.517   7.053
 9190POPC   C4A53766  40.015   3.542   7.353
 9190POPC   C1B53767  40.084   3.781   6.453
 9190POPC   C2B53768  40.096   3.739   6.753
 9190POPC   C3B53769  40.094   3.764   7.053
 9190POPC   C4B53770  40.108   3.741   7.353
 9191POPC   NC353771  20.581  11.261   5.553
 9191POPC   PO453772  20.659  11.310   5.853
 9191POPC   GL153773  20.636  11.296   6.153
 9191POPC   GL253774  20.458  11.252   6.153
 9191POPC   C1A53775  20.615  11.290   6.453
 9191POPC   D2A53776  20.617  11.287   6.753
 9191POPC   C3A53777  20.605  11.303   7.053
 9191POPC   C4A53778  20.612  11.296   7.353
 9191POPC   C1B53779  20.407  11.206   6.453
 9191POPC   C2B53780  20.367  11.116   6.753
 9191POPC   C3B53781  20.427  11.188   7.053
 9191POPC   C4B53782  20.437  11.208   7.353
 9192POPC   NC353783  19.813  26.846   5.553
 9192POPC   PO453784  19.874  26.839   5.853
 9192POPC   GL153785  19.841  26.789   6.153
 9192POPC   GL253786  19.721  26.872   6.153
 9192POPC   C1A53787  19.853  26.843   6.453
 9192POPC   D2A53788  19.834  26.787   6.753
 9192POPC   C3A53789  19.787  26.831   7.053
 9192POPC   C4A53790  19.791  26.779   7.353
 9192POPC   C1B53791  19.632  26.905   6.453
 9192POPC   C2B53792  19.576  26.867   6.753
 9192POPC   C3B53793  19.652  26.887   7.053
 9192POPC   C4B53794  19.591  26.884   7.353
 9193POPC   NC353795  37.684  38.413   5.553
 9193POPC   PO453796  37.662  38.433   5.853
 9193POPC   GL153797  37.702  38.496   6.153
 9193POPC   GL253798  37.726  38.343   6.153
 9193POPC   C1A53799  37.649  38.435   6.453
 9193POPC   D2A53800  37.638  38.451   6.753
 9193POPC   C3A53801  37.700  38.479   7.053
 9193POPC   C4A53802  37.641  38.502   7.353
 9193POPC   C1B53803  37.789  38.229   6.453
 9193POPC   C2B53804  37.796  38.233   6.753
 9193POPC   C3B53805  37.771  38.202   7.053
 9193POPC   C4B53806  37.831  38.227   7.353
 9194POPC   NC353807  34.531  12.809   5.553
 9194POPC   PO453808  34.551  12.865   5.853
 9194POPC   GL153809  34.559  12.874   6.153
 9194POPC   GL253810  34.545  12.968   6.153
 9194POPC   C1A53811  34.568  12.873   6.453
 9194POPC   D2A53812  34.593  12.832   6.753
 9194POPC   C3A53813  34.592  12.827   7.053
 9194POPC   C4A53814  34.537  12.824   7.353
 9194POPC   C1B53815  34.516  13.054   6.453
 9194POPC   C2B53816  34.494  13.129   6.753
 9194POPC   C3B53817  34.556  13.139   7.053
 9194POPC   C4B53818  34.494  13.086   7.353
 9195POPC   NC353819  28.409  31.512   5.553
 9195POPC   PO453820  28.319  31.431   5.853
 9195POPC   GL153821  28.407  31.451   6.153
 9195POPC   GL253822  28.404  31.356   6.153
 9195POPC   C1A53823  28.319  31.438   6.453
 9195POPC   D2A53824  28.323  31.488   6.753
 9195POPC   C3A53825  28.321  31.443   7.053
 9195POPC   C4A53826  28.345  31.478   7.353
 9195POPC   C1B53827  28.343  31.200   6.453
 9195POPC   C2B53828  28.337  31.261   6.753
 9195POPC   C3B53829  28.399  31.260   7.053
 9195POPC   C4B53830  28.336  31.213   7.353
 9196POPC   NC353831  19.041  44.664   5.553
 9196POPC   PO453832  19.015  44.711   5.853
 9196POPC   GL153833  19.019  44.666   6.153
 9196POPC   GL253834  18.988  44.713   6.153
 9196POPC   C1A53835  19.018  44.689   6.453
 9196POPC   D2A53836  19.022  44.619   6.753
 9196POPC   C3A53837  19.095  44.621   7.053
 9196POPC   C4A53838  19.031  44.620   7.353
 9196POPC   C1B53839  18.870  44.754   6.453
 9196POPC   C2B53840  18.822  44.790   6.753
 9196POPC   C3B53841  18.822  44.750   7.053
 9196POPC   C4B53842  18.817  44.831   7.353
 9197POPC   NC353843  23.713  30.706   5.553
 9197POPC   PO453844  23.720  30.655   5.853
 9197POPC   GL153845  23.716  30.738   6.153
 9197POPC   GL253846  23.785  30.716   6.153
 9197POPC   C1A53847  23.697  30.700   6.453
 9197POPC   D2A53848  23.674  30.713   6.753
 9197POPC   C3A53849  23.681  30.697   7.053
 9197POPC   C4A53850  23.665  30.722   7.353
 9197POPC   C1B53851  23.940  30.850   6.453
 9197POPC   C2B53852  23.956  30.817   6.753
 9197POPC   C3B53853  23.904  30.844   7.053
 9197POPC   C4B53854  23.962  30.840   7.353
 9198POPC   NC353855  33.832  19.025   5.553
 9198POPC   PO453856  33.796  19.052   5.853
 9198POPC   GL153857  33.766  19.072   6.153
 9198POPC   GL253858  33.653  19.045   6.153
 9198POPC   C1A53859  33.823  19.084   6.453
 9198POPC   D2A53860  33.810  19.072   6.753
 9198POPC   C3A53861  33.838  19.091   7.053
 9198POPC   C4A53862  33.842  19.020   7.353
 9198POPC   C1B53863  33.560  19.026   6.453
 9198POPC   C2B53864  33.508  18.992   6.753
 9198POPC   C3B53865  33.535  19.003   7.053
 9198POPC   C4B53866  33.556  19.017   7.353
 9199POPC   NC353867  13.605  22.920   5.553
 9199POPC   PO453868  13.621  22.905   5.853
 9199POPC   GL153869  13.602  22.922   6.153
 9199POPC   GL253870  13.699  23.007   6.153
 9199POPC   C1A53871  13.674  22.899   6.453
 9199POPC   D2A53872  13.674  22.933   6.753
 9199POPC   C3A53873  13.585  22.961   7.053
 9199POPC   C4A53874  13.582  22.915   7.353
 9199POPC   C1B53875  13.841  23.037   6.453
 9199POPC   C2B53876  13.865  23.038   6.753
 9199POPC   C3B53877  13.851  22.978   7.053
 9199POPC   C4B53878  13.860  23.018   7.353
 9200POPC   NC353879  33.772  17.530   5.553
 9200POPC   PO453880  33.763  17.506   5.853
 9200POPC   GL153881  33.752  17.471   6.153
 9200POPC   GL253882  33.706  17.369   6.153
 9200POPC   C1A53883  33.778  17.551   6.453
 9200POPC   D2A53884  33.774  17.555   6.753
 9200POPC   C3A53885  33.784  17.544   7.053
 9200POPC   C4A53886  33.779  17.555   7.353
 9200POPC   C1B53887  33.646  17.247   6.453
 9200POPC   C2B53888  33.717  17.284   6.753
 9200POPC   C3B53889  33.641  17.294   7.053
 9200POPC   C4B53890  33.647  17.331   7.353
 9201POPC   NC353891  37.712  16.707   5.553
 9201POPC   PO453892  37.632  16.697   5.853
 9201POPC   GL153893  37.673  16.714   6.153
 9201POPC   GL253894  37.673  16.627   6.153
 9201POPC   C1A53895  37.639  16.701   6.453
 9201POPC   D2A53896  37.681  16.746   6.753
 9201POPC   C3A53897  37.638  16.705   7.053
 9201POPC   C4A53898  37.651  16.742   7.353
 9201POPC   C1B53899  37.621  16.533   6.453
 9201POPC   C2B53900  37.673  16.516   6.753
 9201POPC   C3B53901  37.599  16.435   7.053
 9201POPC   C4B53902  37.615  16.489   7.353
 9202POPC   NC353903   5.874   8.237   5.553
 9202POPC   PO453904   5.853   8.182   5.853
 9202POPC   GL153905   5.879   8.230   6.153
 9202POPC   GL253906   5.827   8.083   6.153
 9202POPC   C1A53907   5.841   8.191   6.453
 9202POPC   D2A53908   5.880   8.193   6.753
 9202POPC   C3A53909   5.845   8.173   7.053
 9202POPC   C4A53910   5.857   8.239   7.353
 9202POPC   C1B53911   5.706   8.006   6.453
 9202POPC   C2B53912   5.796   7.970   6.753
 9202POPC   C3B53913   5.734   7.948   7.053
 9202POPC   C4B53914   5.782   8.002   7.353
 9203POPC   NC353915  38.493  29.948   5.553
 9203POPC   PO453916  38.418  29.941   5.853
 9203POPC   GL153917  38.479  29.887   6.153
 9203POPC   GL253918  38.404  30.036   6.153
 9203POPC   C1A53919  38.422  29.933   6.453
 9203POPC   D2A53920  38.429  29.888   6.753
 9203POPC   C3A53921  38.441  29.883   7.053
 9203POPC   C4A53922  38.432  29.964   7.353
 9203POPC   C1B53923  38.453  30.174   6.453
 9203POPC   C2B53924  38.404  30.139   6.753
 9203POPC   C3B53925  38.438  30.140   7.053
 9203POPC   C4B53926  38.390  30.187   7.353
 9204POPC   NC353927  44.669  22.142   5.553
 9204POPC   PO453928  44.695  22.147   5.853
 9204POPC   GL153929  44.670  22.135   6.153
 9204POPC   GL253930  44.600  22.063   6.153
 9204POPC   C1A53931  44.693  22.204   6.453
 9204POPC   D2A53932  44.658  22.206   6.753
 9204POPC   C3A53933  44.682  22.192   7.053
 9204POPC   C4A53934  44.638  22.166   7.353
 9204POPC   C1B53935  44.513  21.979   6.453
 9204POPC   C2B53936  44.447  22.006   6.753
 9204POPC   C3B53937  44.464  21.931   7.053
 9204POPC   C4B53938  44.514  21.985   7.353
 9205POPC   NC353939  34.546   8.958   5.553
 9205POPC   PO453940  34.593   8.962   5.853
 9205POPC   GL153941  34.610   8.970   6.153
 9205POPC   GL253942  34.404   8.966   6.153
 9205POPC   C1A53943  34.572   8.982   6.453
 9205POPC   D2A53944  34.597   8.938   6.753
 9205POPC   C3A53945  34.583   8.977   7.053
 9205POPC   C4A53946  34.568   8.937   7.353
 9205POPC   C1B53947  34.336   8.938   6.453
 9205POPC   C2B53948  34.312   8.999   6.753
 9205POPC   C3B53949  34.373   8.949   7.053
 9205POPC   C4B53950  34.315   8.999   7.353
 9206POPC   NC353951   3.565  21.355   5.553
 9206POPC   PO453952   3.492  21.415   5.853
 9206POPC   GL153953   3.524  21.414   6.153
 9206POPC   GL253954   3.641  21.325   6.153
 9206POPC   C1A53955   3.545  21.354   6.453
 9206POPC   D2A53956   3.588  21.421   6.753
 9206POPC   C3A53957   3.506  21.394   7.053
 9206POPC   C4A53958   3.553  21.338   7.353
 9206POPC   C1B53959   3.725  21.130   6.453
 9206POPC   C2B53960   3.637  21.166   6.753
 9206POPC   C3B53961   3.708  21.162   7.053
 9206POPC   C4B53962   3.687  21.148   7.353
 9207POPC   NC353963  39.185   7.421   5.553
 9207POPC   PO453964  39.219   7.433   5.853
 9207POPC   GL153965  39.240   7.376   6.153
 9207POPC   GL253966  39.377   7.465   6.153
 9207POPC   C1A53967  39.212   7.450   6.453
 9207POPC   D2A53968  39.241   7.381   6.753
 9207POPC   C3A53969  39.201   7.419   7.053
 9207POPC   C4A53970  39.237   7.390   7.353
 9207POPC   C1B53971  39.511   7.392   6.453
 9207POPC   C2B53972  39.519   7.379   6.753
 9207POPC   C3B53973  39.486   7.383   7.053
 9207POPC   C4B53974  39.478   7.449   7.353
 9208POPC   NC353975  30.681  32.234   5.553
 9208POPC   PO453976  30.647  32.237   5.853
 9208POPC   GL153977  30.738  32.257   6.153
 9208POPC   GL253978  30.586  32.308   6.153
 9208POPC   C1A53979  30.722  32.281   6.453
 9208POPC   D2A53980  30.690  32.267   6.753
 9208POPC   C3A53981  30.647  32.291   7.053
 9208POPC   C4A53982  30.737  32.217   7.353
 9208POPC   C1B53983  30.464  32.298   6.453
 9208POPC   C2B53984  30.489  32.337   6.753
 9208POPC   C3B53985  30.485  32.322   7.053
 9208POPC   C4B53986  30.410  32.252   7.353
 9209POPC   NC353987  31.440  29.162   5.553
 9209POPC   PO453988  31.453  29.151   5.853
 9209POPC   GL153989  31.516  29.138   6.153
 9209POPC   GL253990  31.514  29.277   6.153
 9209POPC   C1A53991  31.514  29.119   6.453
 9209POPC   D2A53992  31.473  29.153   6.753
 9209POPC   C3A53993  31.480  29.178   7.053
 9209POPC   C4A53994  31.432  29.119   7.353
 9209POPC   C1B53995  31.520  29.427   6.453
 9209POPC   C2B53996  31.547  29.342   6.753
 9209POPC   C3B53997  31.599  29.422   7.053
 9209POPC   C4B53998  31.591  29.429   7.353
 9210POPC   NC353999  36.857  12.110   5.553
 9210POPC   PO454000  36.915  12.079   5.853
 9210POPC   GL154001  36.904  12.051   6.153
 9210POPC   GL254002  37.031  12.116   6.153
 9210POPC   C1A54003  36.918  12.107   6.453
 9210POPC   D2A54004  36.904  12.052   6.753
 9210POPC   C3A54005  36.859  12.063   7.053
 9210POPC   C4A54006  36.950  12.065   7.353
 9210POPC   C1B54007  37.181  12.092   6.453
 9210POPC   C2B54008  37.188  12.071   6.753
 9210POPC   C3B54009  37.136  12.082   7.053
 9210POPC   C4B54010  37.132  12.063   7.353
 9211POPC   NC354011  18.249  22.205   5.553
 9211POPC   PO454012  18.250  22.143   5.853
 9211POPC   GL154013  18.292  22.138   6.153
 9211POPC   GL254014  18.335  22.229   6.153
 9211POPC   C1A54015  18.306  22.186   6.453
 9211POPC   D2A54016  18.301  22.151   6.753
 9211POPC   C3A54017  18.271  22.119   7.053
 9211POPC   C4A54018  18.252  22.179   7.353
 9211POPC   C1B54019  18.492  22.338   6.453
 9211POPC   C2B54020  18.502  22.318   6.753
 9211POPC   C3B54021  18.427  22.357   7.053
 9211POPC   C4B54022  18.518  22.295   7.353
 9212POPC   NC354023  14.359  36.109   5.553
 9212POPC   PO454024  14.413  36.133   5.853
 9212POPC   GL154025  14.431  36.096   6.153
 9212POPC   GL254026  14.399  36.003   6.153
 9212POPC   C1A54027  14.430  36.163   6.453
 9212POPC   D2A54028  14.397  36.167   6.753
 9212POPC   C3A54029  14.437  36.164   7.053
 9212POPC   C4A54030  14.355  36.139   7.353
 9212POPC   C1B54031  14.338  35.856   6.453
 9212POPC   C2B54032  14.371  35.852   6.753
 9212POPC   C3B54033  14.282  35.911   7.053
 9212POPC   C4B54034  14.304  35.928   7.353
 9213POPC   NC354035  25.258  22.149   5.553
 9213POPC   PO454036  25.278  22.146   5.853
 9213POPC   GL154037  25.288  22.118   6.153
 9213POPC   GL254038  25.279  22.314   6.153
 9213POPC   C1A54039  25.298  22.117   6.453
 9213POPC   D2A54040  25.252  22.153   6.753
 9213POPC   C3A54041  25.315  22.169   7.053
 9213POPC   C4A54042  25.251  22.150   7.353
 9213POPC   C1B54043  25.272  22.443   6.453
 9213POPC   C2B54044  25.240  22.417   6.753
 9213POPC   C3B54045  25.255  22.382   7.053
 9213POPC   C4B54046  25.301  22.448   7.353
 9214POPC   NC354047   8.170  13.596   5.553
 9214POPC   PO454048   8.223  13.611   5.853
 9214POPC   GL154049   8.186  13.668   6.153
 9214POPC   GL254050   8.361  13.628   6.153
 9214POPC   C1A54051   8.199  13.590   6.453
 9214POPC   D2A54052   8.182  13.612   6.753
 9214POPC   C3A54053   8.212  13.656   7.053
 9214POPC   C4A54054   8.237  13.597   7.353
 9214POPC   C1B54055   8.410  13.689   6.453
 9214POPC   C2B54056   8.479  13.697   6.753
 9214POPC   C3B54057   8.492  13.650   7.053
 9214POPC   C4B54058   8.457  13.681   7.353
 9215POPC   NC354059  26.075  42.335   5.553
 9215POPC   PO454060  26.062  42.286   5.853
 9215POPC   GL154061  26.037  42.362   6.153
 9215POPC   GL254062  26.010  42.449   6.153
 9215POPC   C1A54063  25.993  42.379   6.453
 9215POPC   D2A54064  26.087  42.330   6.753
 9215POPC   C3A54065  26.091  42.334   7.053
 9215POPC   C4A54066  26.090  42.337   7.353
 9215POPC   C1B54067  25.941  42.572   6.453
 9215POPC   C2B54068  25.978  42.584   6.753
 9215POPC   C3B54069  25.985  42.584   7.053
 9215POPC   C4B54070  25.988  42.622   7.353
 9216POPC   NC354071   5.872  34.537   5.553
 9216POPC   PO454072   5.859  34.573   5.853
 9216POPC   GL154073   5.839  34.602   6.153
 9216POPC   GL254074   5.802  34.495   6.153
 9216POPC   C1A54075   5.861  34.571   6.453
 9216POPC   D2A54076   5.912  34.617   6.753
 9216POPC   C3A54077   5.884  34.581   7.053
 9216POPC   C4A54078   5.850  34.571   7.353
 9216POPC   C1B54079   5.703  34.431   6.453
 9216POPC   C2B54080   5.701  34.410   6.753
 9216POPC   C3B54081   5.696  34.431   7.053
 9216POPC   C4B54082   5.667  34.420   7.353
 9217POPC   NC354083  36.886   6.658   5.553
 9217POPC   PO454084  36.908   6.670   5.853
 9217POPC   GL154085  36.903   6.629   6.153
 9217POPC   GL254086  37.058   6.584   6.153
 9217POPC   C1A54087  36.921   6.613   6.453
 9217POPC   D2A54088  36.923   6.637   6.753
 9217POPC   C3A54089  36.897   6.607   7.053
 9217POPC   C4A54090  36.856   6.685   7.353
 9217POPC   C1B54091  37.144   6.504   6.453
 9217POPC   C2B54092  37.115   6.517   6.753
 9217POPC   C3B54093  37.164   6.524   7.053
 9217POPC   C4B54094  37.101   6.531   7.353
 9218POPC   NC354095  26.024  44.697   5.553
 9218POPC   PO454096  26.076  44.654   5.853
 9218POPC   GL154097  26.054  44.613   6.153
 9218POPC   GL254098  26.088  44.808   6.153
 9218POPC   C1A54099  26.060  44.648   6.453
 9218POPC   D2A54100  26.014  44.674   6.753
 9218POPC   C3A54101  26.032  44.646   7.053
 9218POPC   C4A54102  26.016  44.707   7.353
 9218POPC   C1B54103  26.201  44.881   6.453
 9218POPC   C2B54104  26.223  44.812   6.753
 9218POPC   C3B54105  26.216  44.895   7.053
 9218POPC   C4B54106  26.196  44.900   7.353
 9219POPC   NC354107  22.142  41.557   5.553
 9219POPC   PO454108  22.207  41.608   5.853
 9219POPC   GL154109  22.202  41.592   6.153
 9219POPC   GL254110  22.261  41.432   6.153
 9219POPC   C1A54111  22.141  41.536   6.453
 9219POPC   D2A54112  22.196  41.531   6.753
 9219POPC   C3A54113  22.140  41.581   7.053
 9219POPC   C4A54114  22.155  41.594   7.353
 9219POPC   C1B54115  22.339  41.348   6.453
 9219POPC   C2B54116  22.321  41.315   6.753
 9219POPC   C3B54117  22.339  41.340   7.053
 9219POPC   C4B54118  22.299  41.320   7.353
 9220POPC   NC354119  11.313  13.641   5.553
 9220POPC   PO454120  11.306  13.674   5.853
 9220POPC   GL154121  11.270  13.624   6.153
 9220POPC   GL254122  11.159  13.694   6.153
 9220POPC   C1A54123  11.287  13.648   6.453
 9220POPC   D2A54124  11.320  13.658   6.753
 9220POPC   C3A54125  11.327  13.665   7.053
 9220POPC   C4A54126  11.312  13.623   7.353
 9220POPC   C1B54127  11.043  13.689   6.453
 9220POPC   C2B54128  11.025  13.751   6.753
 9220POPC   C3B54129  11.034  13.721   7.053
 9220POPC   C4B54130  11.026  13.747   7.353
 9221POPC   NC354131   7.415  31.505   5.553
 9221POPC   PO454132   7.374  31.499   5.853
 9221POPC   GL154133   7.440  31.508   6.153
 9221POPC   GL254134   7.357  31.396   6.153
 9221POPC   C1A54135   7.383  31.516   6.453
 9221POPC   D2A54136   7.381  31.455   6.753
 9221POPC   C3A54137   7.429  31.499   7.053
 9221POPC   C4A54138   7.387  31.425   7.353
 9221POPC   C1B54139   7.240  31.287   6.453
 9221POPC   C2B54140   7.272  31.242   6.753
 9221POPC   C3B54141   7.221  31.288   7.053
 9221POPC   C4B54142   7.301  31.276   7.353
 9222POPC   NC354143  36.132  16.722   5.553
 9222POPC   PO454144  36.116  16.717   5.853
 9222POPC   GL154145  36.174  16.731   6.153
 9222POPC   GL254146  36.194  16.812   6.153
 9222POPC   C1A54147  36.100  16.766   6.453
 9222POPC   D2A54148  36.102  16.763   6.753
 9222POPC   C3A54149  36.150  16.758   7.053
 9222POPC   C4A54150  36.090  16.765   7.353
 9222POPC   C1B54151  36.155  16.992   6.453
 9222POPC   C2B54152  36.147  17.000   6.753
 9222POPC   C3B54153  36.214  16.978   7.053
 9222POPC   C4B54154  36.203  16.940   7.353
 9223POPC   NC354155  35.362  21.348   5.553
 9223POPC   PO454156  35.350  21.389   5.853
 9223POPC   GL154157  35.385  21.406   6.153
 9223POPC   GL254158  35.245  21.348   6.153
 9223POPC   C1A54159  35.350  21.369   6.453
 9223POPC   D2A54160  35.385  21.378   6.753
 9223POPC   C3A54161  35.305  21.389   7.053
 9223POPC   C4A54162  35.363  21.411   7.353
 9223POPC   C1B54163  35.087  21.239   6.453
 9223POPC   C2B54164  35.163  21.295   6.753
 9223POPC   C3B54165  35.145  21.300   7.053
 9223POPC   C4B54166  35.163  21.240   7.353
 9224POPC   NC354167  26.058   8.938   5.553
 9224POPC   PO454168  25.996   8.992   5.853
 9224POPC   GL154169  25.999   8.937   6.153
 9224POPC   GL254170  26.002   9.120   6.153
 9224POPC   C1A54171  26.022   8.929   6.453
 9224POPC   D2A54172  26.084   9.001   6.753
 9224POPC   C3A54173  26.007   8.960   7.053
 9224POPC   C4A54174  26.011   8.972   7.353
 9224POPC   C1B54175  25.897   9.140   6.453
 9224POPC   C2B54176  25.846   9.121   6.753
 9224POPC   C3B54177  25.897   9.124   7.053
 9224POPC   C4B54178  25.837   9.137   7.353
 9225POPC   NC354179  22.162  17.508   5.553
 9225POPC   PO454180  22.131  17.548   5.853
 9225POPC   GL154181  22.131  17.499   6.153
 9225POPC   GL254182  22.099  17.553   6.153
 9225POPC   C1A54183  22.163  17.498   6.453
 9225POPC   D2A54184  22.136  17.555   6.753
 9225POPC   C3A54185  22.147  17.513   7.053
 9225POPC   C4A54186  22.181  17.537   7.353
 9225POPC   C1B54187  21.932  17.678   6.453
 9225POPC   C2B54188  22.008  17.647   6.753
 9225POPC   C3B54189  21.947  17.621   7.053
 9225POPC   C4B54190  21.945  17.637   7.353
 9226POPC   NC354191  37.676  35.394   5.553
 9226POPC   PO454192  37.642  35.318   5.853
 9226POPC   GL154193  37.655  35.380   6.153
 9226POPC   GL254194  37.629  35.424   6.153
 9226POPC   C1A54195  37.643  35.308   6.453
 9226POPC   D2A54196  37.644  35.385   6.753
 9226POPC   C3A54197  37.711  35.399   7.053
 9226POPC   C4A54198  37.707  35.400   7.353
 9226POPC   C1B54199  37.601  35.616   6.453
 9226POPC   C2B54200  37.589  35.519   6.753
 9226POPC   C3B54201  37.515  35.552   7.053
 9226POPC   C4B54202  37.563  35.523   7.353
 9227POPC   NC354203   9.752  12.898   5.553
 9227POPC   PO454204   9.709  12.866   5.853
 9227POPC   GL154205   9.794  12.849   6.153
 9227POPC   GL254206   9.654  12.738   6.153
 9227POPC   C1A54207   9.734  12.871   6.453
 9227POPC   D2A54208   9.731  12.884   6.753
 9227POPC   C3A54209   9.730  12.852   7.053
 9227POPC   C4A54210   9.717  12.847   7.353
 9227POPC   C1B54211   9.600  12.691   6.453
 9227POPC   C2B54212   9.555  12.629   6.753
 9227POPC   C3B54213   9.616  12.719   7.053
 9227POPC   C4B54214   9.551  12.692   7.353
 9228POPC   NC354215  41.592   0.439   5.553
 9228POPC   PO454216  41.526   0.433   5.853
 9228POPC   GL154217  41.528   0.403   6.153
 9228POPC   GL254218  41.611   0.548   6.153
 9228POPC   C1A54219  41.584   0.485   6.453
 9228POPC   D2A54220  41.607   0.407   6.753
 9228POPC   C3A54221  41.576   0.472   7.053
 9228POPC   C4A54222  41.513   0.460   7.353
 9228POPC   C1B54223  41.665   0.660   6.453
 9228POPC   C2B54224  41.698   0.681   6.753
 9228POPC   C3B54225  41.713   0.666   7.053
 9228POPC   C4B54226  41.706   0.670   7.353
 9229POPC   NC354227  40.733  36.913   5.553
 9229POPC   PO454228  40.814  36.911   5.853
 9229POPC   GL154229  40.829  36.909   6.153
 9229POPC   GL254230  40.744  36.987   6.153
 9229POPC   C1A54231  40.817  36.916   6.453
 9229POPC   D2A54232  40.750  36.908   6.753
 9229POPC   C3A54233  40.828  36.894   7.053
 9229POPC   C4A54234  40.814  36.900   7.353
 9229POPC   C1B54235  40.750  37.126   6.453
 9229POPC   C2B54236  40.724  37.143   6.753
 9229POPC   C3B54237  40.692  37.139   7.053
 9229POPC   C4B54238  40.705  37.164   7.353
 9230POPC   NC354239  23.729  29.876   5.553
 9230POPC   PO454240  23.678  29.872   5.853
 9230POPC   GL154241  23.752  29.951   6.153
 9230POPC   GL254242  23.888  29.940   6.153
 9230POPC   C1A54243  23.679  29.931   6.453
 9230POPC   D2A54244  23.693  29.953   6.753
 9230POPC   C3A54245  23.748  29.957   7.053
 9230POPC   C4A54246  23.730  29.940   7.353
 9230POPC   C1B54247  24.005  29.983   6.453
 9230POPC   C2B54248  23.964  29.969   6.753
 9230POPC   C3B54249  23.956  29.947   7.053
 9230POPC   C4B54250  23.974  29.937   7.353
 9231POPC   NC354251  10.555  17.503   5.553
 9231POPC   PO454252  10.568  17.486   5.853
 9231POPC   GL154253  10.536  17.544   6.153
 9231POPC   GL254254  10.431  17.410   6.153
 9231POPC   C1A54255  10.526  17.463   6.453
 9231POPC   D2A54256  10.551  17.551   6.753
 9231POPC   C3A54257  10.539  17.459   7.053
 9231POPC   C4A54258  10.522  17.541   7.353
 9231POPC   C1B54259  10.318  17.351   6.453
 9231POPC   C2B54260  10.322  17.337   6.753
 9231POPC   C3B54261  10.372  17.316   7.053
 9231POPC   C4B54262  10.382  17.361   7.353
 9232POPC   NC354263  10.569  12.048   5.553
 9232POPC   PO454264  10.524  12.114   5.853
 9232POPC   GL154265  10.501  12.057   6.153
 9232POPC   GL254266  10.595  12.178   6.153
 9232POPC   C1A54267  10.479  12.027   6.453
 9232POPC   D2A54268  10.494  12.125   6.753
 9232POPC   C3A54269  10.522  12.055   7.053
 9232POPC   C4A54270  10.562  12.074   7.353
 9232POPC   C1B54271  10.724  12.302   6.453
 9232POPC   C2B54272  10.723  12.288   6.753
 9232POPC   C3B54273  10.668  12.278   7.053
 9232POPC   C4B54274  10.723  12.257   7.353
 9233POPC   NC354275   7.425  43.112   5.553
 9233POPC   PO454276   7.419  43.065   5.853
 9233POPC   GL154277   7.448  43.144   6.153
 9233POPC   GL254278   7.339  43.142   6.153
 9233POPC   C1A54279   7.450  43.116   6.453
 9233POPC   D2A54280   7.406  43.101   6.753
 9233POPC   C3A54281   7.405  43.088   7.053
 9233POPC   C4A54282   7.466  43.105   7.353
 9233POPC   C1B54283   7.175  43.282   6.453
 9233POPC   C2B54284   7.249  43.236   6.753
 9233POPC   C3B54285   7.213  43.274   7.053
 9233POPC   C4B54286   7.207  43.220   7.353
 9234POPC   NC354287  42.338  19.010   5.553
 9234POPC   PO454288  42.289  19.009   5.853
 9234POPC   GL154289  42.305  19.067   6.153
 9234POPC   GL254290  42.469  18.936   6.153
 9234POPC   C1A54291  42.341  19.084   6.453
 9234POPC   D2A54292  42.296  19.088   6.753
 9234POPC   C3A54293  42.342  19.096   7.053
 9234POPC   C4A54294  42.298  19.081   7.353
 9234POPC   C1B54295  42.545  18.896   6.453
 9234POPC   C2B54296  42.537  18.937   6.753
 9234POPC   C3B54297  42.506  18.952   7.053
 9234POPC   C4B54298  42.535  18.862   7.353
 9235POPC   NC354299  29.906  41.603   5.553
 9235POPC   PO454300  29.872  41.592   5.853
 9235POPC   GL154301  29.933  41.586   6.153
 9235POPC   GL254302  29.982  41.488   6.153
 9235POPC   C1A54303  29.905  41.527   6.453
 9235POPC   D2A54304  29.901  41.603   6.753
 9235POPC   C3A54305  29.911  41.566   7.053
 9235POPC   C4A54306  29.968  41.551   7.353
 9235POPC   C1B54307  30.118  41.447   6.453
 9235POPC   C2B54308  30.114  41.426   6.753
 9235POPC   C3B54309  30.173  41.478   7.053
 9235POPC   C4B54310  30.114  41.405   7.353
 9236POPC   NC354311  27.638  29.164   5.553
 9236POPC   PO454312  27.591  29.148   5.853
 9236POPC   GL154313  27.557  29.139   6.153
 9236POPC   GL254314  27.658  29.048   6.153
 9236POPC   C1A54315  27.590  29.128   6.453
 9236POPC   D2A54316  27.609  29.184   6.753
 9236POPC   C3A54317  27.547  29.101   7.053
 9236POPC   C4A54318  27.557  29.190   7.353
 9236POPC   C1B54319  27.643  28.934   6.453
 9236POPC   C2B54320  27.639  28.900   6.753
 9236POPC   C3B54321  27.676  28.921   7.053
 9236POPC   C4B54322  27.640  28.905   7.353
 9237POPC   NC354323   2.793  39.197   5.553
 9237POPC   PO454324   2.736  39.221   5.853
 9237POPC   GL154325   2.775  39.194   6.153
 9237POPC   GL254326   2.879  39.164   6.153
 9237POPC   C1A54327   2.777  39.260   6.453
 9237POPC   D2A54328   2.790  39.260   6.753
 9237POPC   C3A54329   2.769  39.221   7.053
 9237POPC   C4A54330   2.795  39.274   7.353
 9237POPC   C1B54331   2.874  39.031   6.453
 9237POPC   C2B54332   2.963  39.032   6.753
 9237POPC   C3B54333   2.908  39.027   7.053
 9237POPC   C4B54334   2.923  39.050   7.353
 9238POPC   NC354335  25.295  17.492   5.553
 9238POPC   PO454336  25.272  17.535   5.853
 9238POPC   GL154337  25.251  17.549   6.153
 9238POPC   GL254338  25.215  17.375   6.153
 9238POPC   C1A54339  25.312  17.531   6.453
 9238POPC   D2A54340  25.260  17.543   6.753
 9238POPC   C3A54341  25.311  17.482   7.053
 9238POPC   C4A54342  25.274  17.554   7.353
 9238POPC   C1B54343  25.203  17.294   6.453
 9238POPC   C2B54344  25.214  17.224   6.753
 9238POPC   C3B54345  25.228  17.238   7.053
 9238POPC   C4B54346  25.214  17.235   7.353
 9239POPC   NC354347  20.562  19.047   5.553
 9239POPC   PO454348  20.604  19.009   5.853
 9239POPC   GL154349  20.605  19.061   6.153
 9239POPC   GL254350  20.587  19.125   6.153
 9239POPC   C1A54351  20.628  19.067   6.453
 9239POPC   D2A54352  20.656  19.071   6.753
 9239POPC   C3A54353  20.586  19.053   7.053
 9239POPC   C4A54354  20.567  19.096   7.353
 9239POPC   C1B54355  20.509  19.225   6.453
 9239POPC   C2B54356  20.468  19.257   6.753
 9239POPC   C3B54357  20.497  19.314   7.053
 9239POPC   C4B54358  20.527  19.294   7.353
 9240POPC   NC354359  41.519  42.329   5.553
 9240POPC   PO454360  41.599  42.314   5.853
 9240POPC   GL154361  41.510  42.305   6.153
 9240POPC   GL254362  41.497  42.238   6.153
 9240POPC   C1A54363  41.509  42.366   6.453
 9240POPC   D2A54364  41.595  42.348   6.753
 9240POPC   C3A54365  41.515  42.326   7.053
 9240POPC   C4A54366  41.583  42.305   7.353
 9240POPC   C1B54367  41.425  42.067   6.453
 9240POPC   C2B54368  41.447  42.143   6.753
 9240POPC   C3B54369  41.468  42.157   7.053
 9240POPC   C4B54370  41.441  42.106   7.353
 9241POPC   NC354371  22.906  40.795   5.553
 9241POPC   PO454372  22.978  40.800   5.853
 9241POPC   GL154373  22.964  40.798   6.153
 9241POPC   GL254374  23.055  40.716   6.153
 9241POPC   C1A54375  22.919  40.756   6.453
 9241POPC   D2A54376  22.955  40.737   6.753
 9241POPC   C3A54377  22.903  40.826   7.053
 9241POPC   C4A54378  22.941  40.826   7.353
 9241POPC   C1B54379  23.153  40.655   6.453
 9241POPC   C2B54380  23.141  40.640   6.753
 9241POPC   C3B54381  23.109  40.599   7.053
 9241POPC   C4B54382  23.102  40.622   7.353
 9242POPC   NC354383  15.155  11.257   5.553
 9242POPC   PO454384  15.152  11.292   5.853
 9242POPC   GL154385  15.165  11.256   6.153
 9242POPC   GL254386  15.215  11.381   6.153
 9242POPC   C1A54387  15.163  11.280   6.453
 9242POPC   D2A54388  15.170  11.327   6.753
 9242POPC   C3A54389  15.221  11.266   7.053
 9242POPC   C4A54390  15.134  11.311   7.353
 9242POPC   C1B54391  15.350  11.529   6.453
 9242POPC   C2B54392  15.335  11.556   6.753
 9242POPC   C3B54393  15.346  11.514   7.053
 9242POPC   C4B54394  15.295  11.514   7.353
 9243POPC   NC354395  28.373  43.880   5.553
 9243POPC   PO454396  28.350  43.875   5.853
 9243POPC   GL154397  28.344  43.927   6.153
 9243POPC   GL254398  28.350  43.965   6.153
 9243POPC   C1A54399  28.387  43.905   6.453
 9243POPC   D2A54400  28.321  43.891   6.753
 9243POPC   C3A54401  28.323  43.871   7.053
 9243POPC   C4A54402  28.348  43.861   7.353
 9243POPC   C1B54403  28.280  44.162   6.453
 9243POPC   C2B54404  28.273  44.132   6.753
 9243POPC   C3B54405  28.331  44.123   7.053
 9243POPC   C4B54406  28.333  44.139   7.353
 9244POPC   NC354407  15.224  40.785   5.553
 9244POPC   PO454408  15.176  40.785   5.853
 9244POPC   GL154409  15.182  40.746   6.153
 9244POPC   GL254410  15.224  40.643   6.153
 9244POPC   C1A54411  15.158  40.819   6.453
 9244POPC   D2A54412  15.143  40.768   6.753
 9244POPC   C3A54413  15.197  40.831   7.053
 9244POPC   C4A54414  15.217  40.811   7.353
 9244POPC   C1B54415  15.159  40.555   6.453
 9244POPC   C2B54416  15.186  40.503   6.753
 9244POPC   C3B54417  15.248  40.576   7.053
 9244POPC   C4B54418  15.154  40.545   7.353
 9245POPC   NC354419  21.344   2.001   5.553
 9245POPC   PO454420  21.341   1.985   5.853
 9245POPC   GL154421  21.346   1.955   6.153
 9245POPC   GL254422  21.311   1.931   6.153
 9245POPC   C1A54423  21.432   2.013   6.453
 9245POPC   D2A54424  21.430   1.979   6.753
 9245POPC   C3A54425  21.434   2.009   7.053
 9245POPC   C4A54426  21.373   1.963   7.353
 9245POPC   C1B54427  21.123   1.922   6.453
 9245POPC   C2B54428  21.119   1.919   6.753
 9245POPC   C3B54429  21.116   1.918   7.053
 9245POPC   C4B54430  21.185   1.980   7.353
 9246POPC   NC354431   0.475   8.923   5.553
 9246POPC   PO454432   0.473   8.969   5.853
 9246POPC   GL154433   0.472   8.923   6.153
 9246POPC   GL254434   0.376   9.069   6.153
 9246POPC   C1A54435   0.480   9.021   6.453
 9246POPC   D2A54436   0.443   9.006   6.753
 9246POPC   C3A54437   0.397   8.943   7.053
 9246POPC   C4A54438   0.471   8.965   7.353
 9246POPC   C1B54439   0.256   9.164   6.453
 9246POPC   C2B54440   0.276   9.137   6.753
 9246POPC   C3B54441   0.299   9.162   7.053
 9246POPC   C4B54442   0.274   9.145   7.353
 9247POPC   NC354443  40.785  27.556   5.553
 9247POPC   PO454444  40.821  27.625   5.853
 9247POPC   GL154445  40.813  27.589   6.153
 9247POPC   GL254446  40.913  27.547   6.153
 9247POPC   C1A54447  40.792  27.583   6.453
 9247POPC   D2A54448  40.805  27.594   6.753
 9247POPC   C3A54449  40.790  27.630   7.053
 9247POPC   C4A54450  40.802  27.551   7.353
 9247POPC   C1B54451  40.948  27.439   6.453
 9247POPC   C2B54452  40.933  27.401   6.753
 9247POPC   C3B54453  41.011  27.435   7.053
 9247POPC   C4B54454  40.979  27.412   7.353
 9248POPC   NC354455   6.645  42.308   5.553
 9248POPC   PO454456   6.691  42.308   5.853
 9248POPC   GL154457   6.662  42.337   6.153
 9248POPC   GL254458   6.704  42.246   6.153
 9248POPC   C1A54459   6.659  42.327   6.453
 9248POPC   D2A54460   6.652  42.384   6.753
 9248POPC   C3A54461   6.686  42.291   7.053
 9248POPC   C4A54462   6.598  42.315   7.353
 9248POPC   C1B54463   6.771  42.154   6.453
 9248POPC   C2B54464   6.830  42.122   6.753
 9248POPC   C3B54465   6.839  42.132   7.053
 9248POPC   C4B54466   6.859  42.147   7.353
 9249POPC   NC354467  14.418  39.210   5.553
 9249POPC   PO454468  14.438  39.276   5.853
 9249POPC   GL154469  14.405  39.231   6.153
 9249POPC   GL254470  14.454  39.282   6.153
 9249POPC   C1A54471  14.424  39.264   6.453
 9249POPC   D2A54472  14.358  39.254   6.753
 9249POPC   C3A54473  14.446  39.233   7.053
 9249POPC   C4A54474  14.395  39.218   7.353
 9249POPC   C1B54475  14.531  39.410   6.453
 9249POPC   C2B54476  14.625  39.424   6.753
 9249POPC   C3B54477  14.567  39.456   7.053
 9249POPC   C4B54478  14.535  39.371   7.353
 9250POPC   NC354479  33.014  26.775   5.553
 9250POPC   PO454480  33.062  26.789   5.853
 9250POPC   GL154481  33.035  26.823   6.153
 9250POPC   GL254482  33.144  26.752   6.153
 9250POPC   C1A54483  33.032  26.863   6.453
 9250POPC   D2A54484  33.056  26.795   6.753
 9250POPC   C3A54485  33.029  26.812   7.053
 9250POPC   C4A54486  33.012  26.817   7.353
 9250POPC   C1B54487  33.225  26.761   6.453
 9250POPC   C2B54488  33.292  26.723   6.753
 9250POPC   C3B54489  33.262  26.724   7.053
 9250POPC   C4B54490  33.255  26.715   7.353
 9251POPC   NC354491  27.600  31.459   5.553
 9251POPC   PO454492  27.607  31.520   5.853
 9251POPC   GL154493  27.572  31.495   6.153
 9251POPC   GL254494  27.591  31.579   6.153
 9251POPC   C1A54495  27.612  31.459   6.453
 9251POPC   D2A54496  27.544  31.451   6.753
 9251POPC   C3A54497  27.624  31.458   7.053
 9251POPC   C4A54498  27.631  31.448   7.353
 9251POPC   C1B54499  27.650  31.736   6.453
 9251POPC   C2B54500  27.652  31.694   6.753
 9251POPC   C3B54501  27.672  31.732   7.053
 9251POPC   C4B54502  27.654  31.705   7.353
 9252POPC   NC354503   3.516  12.825   5.553
 9252POPC   PO454504   3.515  12.835   5.853
 9252POPC   GL154505   3.498  12.830   6.153
 9252POPC   GL254506   3.655  12.725   6.153
 9252POPC   C1A54507   3.580  12.870   6.453
 9252POPC   D2A54508   3.571  12.900   6.753
 9252POPC   C3A54509   3.586  12.828   7.053
 9252POPC   C4A54510   3.525  12.879   7.353
 9252POPC   C1B54511   3.708  12.616   6.453
 9252POPC   C2B54512   3.644  12.610   6.753
 9252POPC   C3B54513   3.648  12.594   7.053
 9252POPC   C4B54514   3.665  12.674   7.353
 9253POPC   NC354515  34.535  39.274   5.553
 9253POPC   PO454516  34.582  39.240   5.853
 9253POPC   GL154517  34.615  39.191   6.153
 9253POPC   GL254518  34.608  39.350   6.153
 9253POPC   C1A54519  34.535  39.190   6.453
 9253POPC   D2A54520  34.529  39.272   6.753
 9253POPC   C3A54521  34.564  39.191   7.053
 9253POPC   C4A54522  34.576  39.254   7.353
 9253POPC   C1B54523  34.627  39.511   6.453
 9253POPC   C2B54524  34.632  39.486   6.753
 9253POPC   C3B54525  34.688  39.492   7.053
 9253POPC   C4B54526  34.633  39.476   7.353
 9254POPC   NC354527  11.293  26.768   5.553
 9254POPC   PO454528  11.279  26.786   5.853
 9254POPC   GL154529  11.302  26.820   6.153
 9254POPC   GL254530  11.233  26.970   6.153
 9254POPC   C1A54531  11.251  26.819   6.453
 9254POPC   D2A54532  11.293  26.859   6.753
 9254POPC   C3A54533  11.260  26.861   7.053
 9254POPC   C4A54534  11.309  26.863   7.353
 9254POPC   C1B54535  11.179  27.074   6.453
 9254POPC   C2B54536  11.175  27.083   6.753
 9254POPC   C3B54537  11.259  27.088   7.053
 9254POPC   C4B54538  11.175  27.052   7.353
 9255POPC   NC354539   7.401  43.922   5.553
 9255POPC   PO454540   7.375  43.841   5.853
 9255POPC   GL154541   7.442  43.893   6.153
 9255POPC   GL254542   7.431  44.027   6.153
 9255POPC   C1A54543   7.470  43.864   6.453
 9255POPC   D2A54544   7.438  43.889   6.753
 9255POPC   C3A54545   7.419  43.900   7.053
 9255POPC   C4A54546   7.402  43.929   7.353
 9255POPC   C1B54547   7.522  44.122   6.453
 9255POPC   C2B54548   7.490  44.080   6.753
 9255POPC   C3B54549   7.537  44.151   7.053
 9255POPC   C4B54550   7.507  44.121   7.353
 9256POPC   NC354551  16.708  19.034   5.553
 9256POPC   PO454552  16.771  19.093   5.853
 9256POPC   GL154553  16.752  19.041   6.153
 9256POPC   GL254554  16.635  18.915   6.153
 9256POPC   C1A54555  16.776  19.066   6.453
 9256POPC   D2A54556  16.779  19.097   6.753
 9256POPC   C3A54557  16.722  19.107   7.053
 9256POPC   C4A54558  16.715  19.084   7.353
 9256POPC   C1B54559  16.571  18.835   6.453
 9256POPC   C2B54560  16.623  18.858   6.753
 9256POPC   C3B54561  16.536  18.815   7.053
 9256POPC   C4B54562  16.536  18.836   7.353
 9257POPC   NC354563  16.724  10.563   5.553
 9257POPC   PO454564  16.682  10.526   5.853
 9257POPC   GL154565  16.769  10.554   6.153
 9257POPC   GL254566  16.787  10.406   6.153
 9257POPC   C1A54567  16.741  10.476   6.453
 9257POPC   D2A54568  16.706  10.499   6.753
 9257POPC   C3A54569  16.725  10.567   7.053
 9257POPC   C4A54570  16.763  10.557   7.353
 9257POPC   C1B54571  16.833  10.271   6.453
 9257POPC   C2B54572  16.829  10.297   6.753
 9257POPC   C3B54573  16.827  10.274   7.053
 9257POPC   C4B54574  16.795  10.254   7.353
 9258POPC   NC354575  20.639  41.522   5.553
 9258POPC   PO454576  20.621  41.601   5.853
 9258POPC   GL154577  20.652  41.592   6.153
 9258POPC   GL254578  20.547  41.709   6.153
 9258POPC   C1A54579  20.592  41.537   6.453
 9258POPC   D2A54580  20.622  41.604   6.753
 9258POPC   C3A54581  20.637  41.514   7.053
 9258POPC   C4A54582  20.563  41.527   7.353
 9258POPC   C1B54583  20.477  41.732   6.453
 9258POPC   C2B54584  20.421  41.723   6.753
 9258POPC   C3B54585  20.508  41.733   7.053
 9258POPC   C4B54586  20.471  41.779   7.353
 9259POPC   NC354587   3.550  12.072   5.553
 9259POPC   PO454588   3.516  12.109   5.853
 9259POPC   GL154589   3.531  12.108   6.153
 9259POPC   GL254590   3.423  12.077   6.153
 9259POPC   C1A54591   3.557  12.120   6.453
 9259POPC   D2A54592   3.499  12.072   6.753
 9259POPC   C3A54593   3.542  12.097   7.053
 9259POPC   C4A54594   3.559  12.112   7.353
 9259POPC   C1B54595   3.298  12.044   6.453
 9259POPC   C2B54596   3.319  12.009   6.753
 9259POPC   C3B54597   3.337  12.097   7.053
 9259POPC   C4B54598   3.256  12.048   7.353
 9260POPC   NC354599  17.479  21.411   5.553
 9260POPC   PO454600  17.549  21.428   5.853
 9260POPC   GL154601  17.480  21.337   6.153
 9260POPC   GL254602  17.462  21.536   6.153
 9260POPC   C1A54603  17.487  21.431   6.453
 9260POPC   D2A54604  17.477  21.346   6.753
 9260POPC   C3A54605  17.520  21.429   7.053
 9260POPC   C4A54606  17.469  21.416   7.353
 9260POPC   C1B54607  17.382  21.579   6.453
 9260POPC   C2B54608  17.406  21.628   6.753
 9260POPC   C3B54609  17.361  21.659   7.053
 9260POPC   C4B54610  17.385  21.658   7.353
 9261POPC   NC354611  10.479  22.892   5.553
 9261POPC   PO454612  10.560  22.908   5.853
 9261POPC   GL154613  10.521  22.922   6.153
 9261POPC   GL254614  10.641  22.907   6.153
 9261POPC   C1A54615  10.549  22.940   6.453
 9261POPC   D2A54616  10.506  22.898   6.753
 9261POPC   C3A54617  10.563  22.888   7.053
 9261POPC   C4A54618  10.520  22.943   7.353
 9261POPC   C1B54619  10.811  22.920   6.453
 9261POPC   C2B54620  10.735  22.992   6.753
 9261POPC   C3B54621  10.787  22.936   7.053
 9261POPC   C4B54622  10.809  22.986   7.353
 9262POPC   NC354623  39.962  30.691   5.553
 9262POPC   PO454624  39.976  30.658   5.853
 9262POPC   GL154625  39.959  30.712   6.153
 9262POPC   GL254626  39.913  30.824   6.153
 9262POPC   C1A54627  40.044  30.674   6.453
 9262POPC   D2A54628  40.032  30.744   6.753
 9262POPC   C3A54629  39.993  30.667   7.053
 9262POPC   C4A54630  39.981  30.704   7.353
 9262POPC   C1B54631  39.885  30.909   6.453
 9262POPC   C2B54632  39.850  30.928   6.753
 9262POPC   C3B54633  39.874  30.864   7.053
 9262POPC   C4B54634  39.908  30.915   7.353
 9263POPC   NC354635  37.639   9.779   5.553
 9263POPC   PO454636  37.686   9.780   5.853
 9263POPC   GL154637  37.661   9.777   6.153
 9263POPC   GL254638  37.717   9.843   6.153
 9263POPC   C1A54639  37.722   9.759   6.453
 9263POPC   D2A54640  37.675   9.786   6.753
 9263POPC   C3A54641  37.683   9.795   7.053
 9263POPC   C4A54642  37.659   9.774   7.353
 9263POPC   C1B54643  37.692   9.964   6.453
 9263POPC   C2B54644  37.729  10.047   6.753
 9263POPC   C3B54645  37.694  10.022   7.053
 9263POPC   C4B54646  37.704   9.970   7.353
 9264POPC   NC354647  15.939  18.284   5.553
 9264POPC   PO454648  15.980  18.253   5.853
 9264POPC   GL154649  15.967  18.314   6.153
 9264POPC   GL254650  15.877  18.153   6.153
 9264POPC   C1A54651  15.961  18.283   6.453
 9264POPC   D2A54652  15.960  18.257   6.753
 9264POPC   C3A54653  15.923  18.324   7.053
 9264POPC   C4A54654  15.909  18.247   7.353
 9264POPC   C1B54655  15.793  18.085   6.453
 9264POPC   C2B54656  15.834  18.057   6.753
 9264POPC   C3B54657  15.875  18.091   7.053
 9264POPC   C4B54658  15.887  18.078   7.353
 9265POPC   NC354659  44.688  15.223   5.553
 9265POPC   PO454660  44.693  15.166   5.853
 9265POPC   GL154661  44.704  15.138   6.153
 9265POPC   GL254662  44.572  15.089   6.153
 9265POPC   C1A54663  44.671  15.197   6.453
 9265POPC   D2A54664  44.636  15.153   6.753
 9265POPC   C3A54665  44.705  15.145   7.053
 9265POPC   C4A54666  44.643  15.219   7.353
 9265POPC   C1B54667  44.559  14.912   6.453
 9265POPC   C2B54668  44.569  14.941   6.753
 9265POPC   C3B54669  44.609  14.980   7.053
 9265POPC   C4B54670  44.579  14.915   7.353
 9266POPC   NC354671  38.485  22.912   5.553
 9266POPC   PO454672  38.482  22.970   5.853
 9266POPC   GL154673  38.417  22.904   6.153
 9266POPC   GL254674  38.473  22.798   6.153
 9266POPC   C1A54675  38.472  22.905   6.453
 9266POPC   D2A54676  38.488  22.961   6.753
 9266POPC   C3A54677  38.414  22.908   7.053
 9266POPC   C4A54678  38.444  22.964   7.353
 9266POPC   C1B54679  38.567  22.665   6.453
 9266POPC   C2B54680  38.536  22.708   6.753
 9266POPC   C3B54681  38.556  22.750   7.053
 9266POPC   C4B54682  38.546  22.665   7.353
 9267POPC   NC354683  26.866  30.651   5.553
 9267POPC   PO454684  26.854  30.744   5.853
 9267POPC   GL154685  26.863  30.702   6.153
 9267POPC   GL254686  26.762  30.629   6.153
 9267POPC   C1A54687  26.778  30.648   6.453
 9267POPC   D2A54688  26.794  30.703   6.753
 9267POPC   C3A54689  26.777  30.700   7.053
 9267POPC   C4A54690  26.806  30.720   7.353
 9267POPC   C1B54691  26.655  30.472   6.453
 9267POPC   C2B54692  26.728  30.449   6.753
 9267POPC   C3B54693  26.703  30.442   7.053
 9267POPC   C4B54694  26.712  30.530   7.353
 9268POPC   NC354695   8.210  26.856   5.553
 9268POPC   PO454696   8.188  26.774   5.853
 9268POPC   GL154697   8.212  26.812   6.153
 9268POPC   GL254698   8.204  26.913   6.153
 9268POPC   C1A54699   8.156  26.815   6.453
 9268POPC   D2A54700   8.233  26.772   6.753
 9268POPC   C3A54701   8.234  26.776   7.053
 9268POPC   C4A54702   8.193  26.848   7.353
 9268POPC   C1B54703   8.224  27.059   6.453
 9268POPC   C2B54704   8.222  27.038   6.753
 9268POPC   C3B54705   8.196  27.018   7.053
 9268POPC   C4B54706   8.233  27.089   7.353
 9269POPC   NC354707  28.403  22.190   5.553
 9269POPC   PO454708  28.413  22.152   5.853
 9269POPC   GL154709  28.384  22.148   6.153
 9269POPC   GL254710  28.465  22.248   6.153
 9269POPC   C1A54711  28.405  22.204   6.453
 9269POPC   D2A54712  28.392  22.158   6.753
 9269POPC   C3A54713  28.389  22.149   7.053
 9269POPC   C4A54714  28.413  22.155   7.353
 9269POPC   C1B54715  28.511  22.338   6.453
 9269POPC   C2B54716  28.537  22.354   6.753
 9269POPC   C3B54717  28.535  22.356   7.053
 9269POPC   C4B54718  28.579  22.388   7.353
 9270POPC   NC354719   6.600  20.566   5.553
 9270POPC   PO454720   6.636  20.642   5.853
 9270POPC   GL154721   6.674  20.659   6.153
 9270POPC   GL254722   6.549  20.663   6.153
 9270POPC   C1A54723   6.674  20.580   6.453
 9270POPC   D2A54724   6.626  20.629   6.753
 9270POPC   C3A54725   6.646  20.584   7.053
 9270POPC   C4A54726   6.695  20.647   7.353
 9270POPC   C1B54727   6.434  20.666   6.453
 9270POPC   C2B54728   6.418  20.625   6.753
 9270POPC   C3B54729   6.383  20.597   7.053
 9270POPC   C4B54730   6.430  20.606   7.353
 9271POPC   NC354731   9.772  31.510   5.553
 9271POPC   PO454732   9.723  31.454   5.853
 9271POPC   GL154733   9.779  31.443   6.153
 9271POPC   GL254734   9.825  31.555   6.153
 9271POPC   C1A54735   9.710  31.488   6.453
 9271POPC   D2A54736   9.795  31.462   6.753
 9271POPC   C3A54737   9.714  31.448   7.053
 9271POPC   C4A54738   9.785  31.430   7.353
 9271POPC   C1B54739   9.880  31.625   6.453
 9271POPC   C2B54740   9.889  31.639   6.753
 9271POPC   C3B54741   9.931  31.646   7.053
 9271POPC   C4B54742   9.910  31.689   7.353
 9272POPC   NC354743  36.855  39.989   5.553
 9272POPC   PO454744  36.882  39.996   5.853
 9272POPC   GL154745  36.873  39.983   6.153
 9272POPC   GL254746  36.779  40.001   6.153
 9272POPC   C1A54747  36.927  40.013   6.453
 9272POPC   D2A54748  36.931  40.009   6.753
 9272POPC   C3A54749  36.947  40.014   7.053
 9272POPC   C4A54750  36.892  39.975   7.353
 9272POPC   C1B54751  36.612  40.056   6.453
 9272POPC   C2B54752  36.663  40.043   6.753
 9272POPC   C3B54753  36.646  40.067   7.053
 9272POPC   C4B54754  36.622  40.081   7.353
 9273POPC   NC354755   1.990  27.608   5.553
 9273POPC   PO454756   2.006  27.606   5.853
 9273POPC   GL154757   1.946  27.600   6.153
 9273POPC   GL254758   2.071  27.484   6.153
 9273POPC   C1A54759   1.956  27.567   6.453
 9273POPC   D2A54760   2.002  27.630   6.753
 9273POPC   C3A54761   1.951  27.555   7.053
 9273POPC   C4A54762   1.942  27.606   7.353
 9273POPC   C1B54763   2.098  27.374   6.453
 9273POPC   C2B54764   2.128  27.394   6.753
 9273POPC   C3B54765   2.098  27.416   7.053
 9273POPC   C4B54766   2.133  27.388   7.353
 9274POPC   NC354767   2.728  37.710   5.553
 9274POPC   PO454768   2.793  37.691   5.853
 9274POPC   GL154769   2.753  37.693   6.153
 9274POPC   GL254770   2.721  37.604   6.153
 9274POPC   C1A54771   2.742  37.650   6.453
 9274POPC   D2A54772   2.743  37.725   6.753
 9274POPC   C3A54773   2.802  37.655   7.053
 9274POPC   C4A54774   2.781  37.713   7.353
 9274POPC   C1B54775   2.728  37.399   6.453
 9274POPC   C2B54776   2.803  37.428   6.753
 9274POPC   C3B54777   2.721  37.478   7.053
 9274POPC   C4B54778   2.766  37.468   7.353
 9275POPC   NC354779  14.390  44.657   5.553
 9275POPC   PO454780  14.371  44.651   5.853
 9275POPC   GL154781  14.439  44.626   6.153
 9275POPC   GL254782  14.542  44.697   6.153
 9275POPC   C1A54783  14.397  44.639   6.453
 9275POPC   D2A54784  14.429  44.700   6.753
 9275POPC   C3A54785  14.395  44.680   7.053
 9275POPC   C4A54786  14.416  44.665   7.353
 9275POPC   C1B54787  14.638  44.728   6.453
 9275POPC   C2B54788  14.654  44.690   6.753
 9275POPC   C3B54789  14.604  44.751   7.053
 9275POPC   C4B54790  14.693  44.738   7.353
 9276POPC   NC354791  43.146   5.856   5.553
 9276POPC   PO454792  43.067   5.917   5.853
 9276POPC   GL154793  43.146   5.860   6.153
 9276POPC   GL254794  43.154   5.747   6.153
 9276POPC   C1A54795  43.138   5.861   6.453
 9276POPC   D2A54796  43.075   5.826   6.753
 9276POPC   C3A54797  43.079   5.890   7.053
 9276POPC   C4A54798  43.113   5.891   7.353
 9276POPC   C1B54799  43.205   5.693   6.453
 9276POPC   C2B54800  43.255   5.679   6.753
 9276POPC   C3B54801  43.228   5.623   7.053
 9276POPC   C4B54802  43.257   5.632   7.353
 9277POPC   NC354803   6.607  15.920   5.553
 9277POPC   PO454804   6.621  15.954   5.853
 9277POPC   GL154805   6.609  15.953   6.153
 9277POPC   GL254806   6.499  15.965   6.153
 9277POPC   C1A54807   6.596  15.917   6.453
 9277POPC   D2A54808   6.662  15.982   6.753
 9277POPC   C3A54809   6.602  16.002   7.053
 9277POPC   C4A54810   6.687  15.909   7.353
 9277POPC   C1B54811   6.378  15.975   6.453
 9277POPC   C2B54812   6.365  15.960   6.753
 9277POPC   C3B54813   6.369  15.964   7.053
 9277POPC   C4B54814   6.405  15.949   7.353
 9278POPC   NC354815  30.700  36.950   5.553
 9278POPC   PO454816  30.699  36.918   5.853
 9278POPC   GL154817  30.672  36.905   6.153
 9278POPC   GL254818  30.811  36.889   6.153
 9278POPC   C1A54819  30.660  36.869   6.453
 9278POPC   D2A54820  30.728  36.943   6.753
 9278POPC   C3A54821  30.655  36.871   7.053
 9278POPC   C4A54822  30.696  36.858   7.353
 9278POPC   C1B54823  30.988  36.921   6.453
 9278POPC   C2B54824  30.902  36.899   6.753
 9278POPC   C3B54825  30.918  36.899   7.053
 9278POPC   C4B54826  30.965  36.942   7.353
 9279POPC   NC354827  18.297   0.427   5.553
 9279POPC   PO454828  18.248   0.428   5.853
 9279POPC   GL154829  18.313   0.456   6.153
 9279POPC   GL254830  18.252   0.342   6.153
 9279POPC   C1A54831  18.281   0.476   6.453
 9279POPC   D2A54832  18.282   0.399   6.753
 9279POPC   C3A54833  18.326   0.470   7.053
 9279POPC   C4A54834  18.331   0.423   7.353
 9279POPC   C1B54835  18.204   0.174   6.453
 9279POPC   C2B54836  18.275   0.190   6.753
 9279POPC   C3B54837  18.248   0.216   7.053
 9279POPC   C4B54838  18.232   0.234   7.353
 9280POPC   NC354839  17.498  26.081   5.553
 9280POPC   PO454840  17.515  26.011   5.853
 9280POPC   GL154841  17.538  26.051   6.153
 9280POPC   GL254842  17.572  25.942   6.153
 9280POPC   C1A54843  17.504  26.014   6.453
 9280POPC   D2A54844  17.468  26.018   6.753
 9280POPC   C3A54845  17.525  26.070   7.053
 9280POPC   C4A54846  17.511  26.009   7.353
 9280POPC   C1B54847  17.707  25.922   6.453
 9280POPC   C2B54848  17.677  25.845   6.753
 9280POPC   C3B54849  17.708  25.838   7.053
 9280POPC   C4B54850  17.660  25.858   7.353
 9281POPC   NC354851  43.137  39.215   5.553
 9281POPC   PO454852  43.152  39.212   5.853
 9281POPC   GL154853  43.126  39.194   6.153
 9281POPC   GL254854  43.255  39.276   6.153
 9281POPC   C1A54855  43.140  39.226   6.453
 9281POPC   D2A54856  43.074  39.233   6.753
 9281POPC   C3A54857  43.072  39.261   7.053
 9281POPC   C4A54858  43.126  39.246   7.353
 9281POPC   C1B54859  43.268  39.395   6.453
 9281POPC   C2B54860  43.265  39.403   6.753
 9281POPC   C3B54861  43.363  39.406   7.053
 9281POPC   C4B54862  43.303  39.415   7.353
 9282POPC   NC354863   5.048  21.360   5.553
 9282POPC   PO454864   5.101  21.345   5.853
 9282POPC   GL154865   5.073  21.398   6.153
 9282POPC   GL254866   5.169  21.464   6.153
 9282POPC   C1A54867   5.123  21.420   6.453
 9282POPC   D2A54868   5.105  21.429   6.753
 9282POPC   C3A54869   5.067  21.355   7.053
 9282POPC   C4A54870   5.117  21.396   7.353
 9282POPC   C1B54871   5.265  21.565   6.453
 9282POPC   C2B54872   5.224  21.642   6.753
 9282POPC   C3B54873   5.270  21.579   7.053
 9282POPC   C4B54874   5.239  21.549   7.353
 9283POPC   NC354875  15.979   2.775   5.553
 9283POPC   PO454876  15.995   2.790   5.853
 9283POPC   GL154877  15.951   2.732   6.153
 9283POPC   GL254878  16.117   2.798   6.153
 9283POPC   C1A54879  15.969   2.811   6.453
 9283POPC   D2A54880  15.909   2.781   6.753
 9283POPC   C3A54881  15.984   2.760   7.053
 9283POPC   C4A54882  15.926   2.798   7.353
 9283POPC   C1B54883  16.168   2.873   6.453
 9283POPC   C2B54884  16.169   2.824   6.753
 9283POPC   C3B54885  16.144   2.855   7.053
 9283POPC   C4B54886  16.178   2.842   7.353
 9284POPC   NC354887  22.974  36.094   5.553
 9284POPC   PO454888  22.897  36.160   5.853
 9284POPC   GL154889  22.967  36.150   6.153
 9284POPC   GL254890  23.014  36.237   6.153
 9284POPC   C1A54891  22.907  36.093   6.453
 9284POPC   D2A54892  22.921  36.099   6.753
 9284POPC   C3A54893  22.987  36.171   7.053
 9284POPC   C4A54894  22.953  36.133   7.353
 9284POPC   C1B54895  22.967  36.348   6.453
 9284POPC   C2B54896  22.973  36.336   6.753
 9284POPC   C3B54897  23.031  36.387   7.053
 9284POPC   C4B54898  22.963  36.398   7.353
 9285POPC   NC354899   9.723  42.377   5.553
 9285POPC   PO454900   9.749  42.305   5.853
 9285POPC   GL154901   9.711  42.362   6.153
 9285POPC   GL254902   9.888  42.258   6.153
 9285POPC   C1A54903   9.746  42.367   6.453
 9285POPC   D2A54904   9.699  42.338   6.753
 9285POPC   C3A54905   9.777  42.295   7.053
 9285POPC   C4A54906   9.753  42.329   7.353
 9285POPC   C1B54907  10.005  42.246   6.453
 9285POPC   C2B54908   9.930  42.232   6.753
 9285POPC   C3B54909   9.916  42.194   7.053
 9285POPC   C4B54910   9.918  42.206   7.353
 9286POPC   NC354911  33.782  11.270   5.553
 9286POPC   PO454912  33.767  11.291   5.853
 9286POPC   GL154913  33.773  11.276   6.153
 9286POPC   GL254914  33.679  11.308   6.153
 9286POPC   C1A54915  33.803  11.303   6.453
 9286POPC   D2A54916  33.830  11.265   6.753
 9286POPC   C3A54917  33.804  11.297   7.053
 9286POPC   C4A54918  33.800  11.323   7.353
 9286POPC   C1B54919  33.586  11.315   6.453
 9286POPC   C2B54920  33.545  11.335   6.753
 9286POPC   C3B54921  33.553  11.310   7.053
 9286POPC   C4B54922  33.521  11.289   7.353
 9287POPC   NC354923  13.635   8.978   5.553
 9287POPC   PO454924  13.608   8.945   5.853
 9287POPC   GL154925  13.628   8.939   6.153
 9287POPC   GL254926  13.677   8.875   6.153
 9287POPC   C1A54927  13.605   9.021   6.453
 9287POPC   D2A54928  13.597   9.001   6.753
 9287POPC   C3A54929  13.613   9.019   7.053
 9287POPC   C4A54930  13.654   8.988   7.353
 9287POPC   C1B54931  13.806   8.838   6.453
 9287POPC   C2B54932  13.852   8.800   6.753
 9287POPC   C3B54933  13.828   8.823   7.053
 9287POPC   C4B54934  13.773   8.804   7.353
 9288POPC   NC354935  12.065  21.410   5.553
 9288POPC   PO454936  12.057  21.392   5.853
 9288POPC   GL154937  12.119  21.341   6.153
 9288POPC   GL254938  12.210  21.469   6.153
 9288POPC   C1A54939  12.080  21.378   6.453
 9288POPC   D2A54940  12.045  21.381   6.753
 9288POPC   C3A54941  12.031  21.418   7.053
 9288POPC   C4A54942  12.116  21.427   7.353
 9288POPC   C1B54943  12.266  21.552   6.453
 9288POPC   C2B54944  12.242  21.528   6.753
 9288POPC   C3B54945  12.243  21.538   7.053
 9288POPC   C4B54946  12.303  21.554   7.353
 9289POPC   NC354947  29.194  21.402   5.553
 9289POPC   PO454948  29.151  21.422   5.853
 9289POPC   GL154949  29.137  21.423   6.153
 9289POPC   GL254950  29.077  21.278   6.153
 9289POPC   C1A54951  29.112  21.348   6.453
 9289POPC   D2A54952  29.140  21.355   6.753
 9289POPC   C3A54953  29.194  21.431   7.053
 9289POPC   C4A54954  29.154  21.339   7.353
 9289POPC   C1B54955  29.143  21.150   6.453
 9289POPC   C2B54956  29.052  21.119   6.753
 9289POPC   C3B54957  29.052  21.103   7.053
 9289POPC   C4B54958  29.120  21.148   7.353
 9290POPC   NC354959  23.695  13.627   5.553
 9290POPC   PO454960  23.680  13.610   5.853
 9290POPC   GL154961  23.744  13.615   6.153
 9290POPC   GL254962  23.823  13.732   6.153
 9290POPC   C1A54963  23.754  13.599   6.453
 9290POPC   D2A54964  23.751  13.634   6.753
 9290POPC   C3A54965  23.723  13.643   7.053
 9290POPC   C4A54966  23.726  13.663   7.353
 9290POPC   C1B54967  23.988  13.712   6.453
 9290POPC   C2B54968  23.890  13.767   6.753
 9290POPC   C3B54969  23.921  13.770   7.053
 9290POPC   C4B54970  23.895  13.698   7.353
 9291POPC   NC354971  24.469  16.742   5.553
 9291POPC   PO454972  24.465  16.731   5.853
 9291POPC   GL154973  24.523  16.717   6.153
 9291POPC   GL254974  24.578  16.721   6.153
 9291POPC   C1A54975  24.507  16.732   6.453
 9291POPC   D2A54976  24.486  16.771   6.753
 9291POPC   C3A54977  24.511  16.683   7.053
 9291POPC   C4A54978  24.494  16.750   7.353
 9291POPC   C1B54979  24.778  16.676   6.453
 9291POPC   C2B54980  24.780  16.681   6.753
 9291POPC   C3B54981  24.731  16.708   7.053
 9291POPC   C4B54982  24.755  16.725   7.353
 9292POPC   NC354983   0.410  22.982   5.553
 9292POPC   PO454984   0.478  22.985   5.853
 9292POPC   GL154985   0.439  22.930   6.153
 9292POPC   GL254986   0.572  22.895   6.153
 9292POPC   C1A54987   0.389  22.976   6.453
 9292POPC   D2A54988   0.439  22.971   6.753
 9292POPC   C3A54989   0.473  22.929   7.053
 9292POPC   C4A54990   0.486  22.964   7.353
 9292POPC   C1B54991   0.637  22.896   6.453
 9292POPC   C2B54992   0.706  22.922   6.753
 9292POPC   C3B54993   0.701  22.871   7.053
 9292POPC   C4B54994   0.651  22.904   7.353
 9293POPC   NC354995  43.085  13.599   5.553
 9293POPC   PO454996  43.066  13.660   5.853
 9293POPC   GL154997  43.153  13.646   6.153
 9293POPC   GL254998  43.143  13.502   6.153
 9293POPC   C1A54999  43.086  13.605   6.453
 9293POPC   D2A55000  43.114  13.653   6.753
 9293POPC   C3A55001  43.088  13.610   7.053
 9293POPC   C4A55002  43.137  13.643   7.353
 9293POPC   C1B55003  43.194  13.350   6.453
 9293POPC   C2B55004  43.234  13.385   6.753
 9293POPC   C3B55005  43.170  13.353   7.053
 9293POPC   C4B55006  43.244  13.379   7.353
 9294POPC   NC355007  20.571  36.935   5.553
 9294POPC   PO455008  20.651  36.943   5.853
 9294POPC   GL155009  20.658  36.854   6.153
 9294POPC   GL255010  20.561  36.772   6.153
 9294POPC   C1A55011  20.621  36.944   6.453
 9294POPC   D2A55012  20.624  36.884   6.753
 9294POPC   C3A55013  20.645  36.922   7.053
 9294POPC   C4A55014  20.583  36.897   7.353
 9294POPC   C1B55015  20.463  36.723   6.453
 9294POPC   C2B55016  20.444  36.688   6.753
 9294POPC   C3B55017  20.420  36.681   7.053
 9294POPC   C4B55018  20.475  36.762   7.353
 9295POPC   NC355019  35.381  11.327   5.553
 9295POPC   PO455020  35.376  11.343   5.853
 9295POPC   GL155021  35.394  11.340   6.153
 9295POPC   GL255022  35.325  11.382   6.153
 9295POPC   C1A55023  35.310  11.262   6.453
 9295POPC   D2A55024  35.365  11.301   6.753
 9295POPC   C3A55025  35.348  11.291   7.053
 9295POPC   C4A55026  35.357  11.283   7.353
 9295POPC   C1B55027  35.344  11.561   6.453
 9295POPC   C2B55028  35.329  11.519   6.753
 9295POPC   C3B55029  35.356  11.503   7.053
 9295POPC   C4B55030  35.362  11.514   7.353
 9296POPC   NC355031  43.870  19.793   5.553
 9296POPC   PO455032  43.844  19.803   5.853
 9296POPC   GL155033  43.886  19.806   6.153
 9296POPC   GL255034  43.794  19.853   6.153
 9296POPC   C1A55035  43.852  19.806   6.453
 9296POPC   D2A55036  43.846  19.804   6.753
 9296POPC   C3A55037  43.876  19.845   7.053
 9296POPC   C4A55038  43.928  19.811   7.353
 9296POPC   C1B55039  43.595  19.836   6.453
 9296POPC   C2B55040  43.688  19.879   6.753
 9296POPC   C3B55041  43.615  19.857   7.053
 9296POPC   C4B55042  43.648  19.844   7.353
 9297POPC   NC355043  27.592  22.170   5.553
 9297POPC   PO455044  27.605  22.181   5.853
 9297POPC   GL155045  27.627  22.156   6.153
 9297POPC   GL255046  27.735  22.154   6.153
 9297POPC   C1A55047  27.604  22.163   6.453
 9297POPC   D2A55048  27.635  22.210   6.753
 9297POPC   C3A55049  27.580  22.173   7.053
 9297POPC   C4A55050  27.610  22.170   7.353
 9297POPC   C1B55051  27.795  22.100   6.453
 9297POPC   C2B55052  27.845  22.058   6.753
 9297POPC   C3B55053  27.879  22.035   7.053
 9297POPC   C4B55054  27.815  22.037   7.353
 9298POPC   NC355055  19.883  28.409   5.553
 9298POPC   PO455056  19.794  28.373   5.853
 9298POPC   GL155057  19.794  28.349   6.153
 9298POPC   GL255058  19.753  28.275   6.153
 9298POPC   C1A55059  19.795  28.399   6.453
 9298POPC   D2A55060  19.807  28.364   6.753
 9298POPC   C3A55061  19.813  28.416   7.053
 9298POPC   C4A55062  19.801  28.410   7.353
 9298POPC   C1B55063  19.727  28.162   6.453
 9298POPC   C2B55064  19.656  28.159   6.753
 9298POPC   C3B55065  19.646  28.154   7.053
 9298POPC   C4B55066  19.677  28.128   7.353
 9299POPC   NC355067  36.857   5.872   5.553
 9299POPC   PO455068  36.883   5.856   5.853
 9299POPC   GL155069  36.935   5.890   6.153
 9299POPC   GL255070  36.870   6.011   6.153
 9299POPC   C1A55071  36.932   5.838   6.453
 9299POPC   D2A55072  36.926   5.841   6.753
 9299POPC   C3A55073  36.903   5.906   7.053
 9299POPC   C4A55074  36.903   5.832   7.353
 9299POPC   C1B55075  36.913   6.072   6.453
 9299POPC   C2B55076  36.904   6.157   6.753
 9299POPC   C3B55077  36.911   6.103   7.053
 9299POPC   C4B55078  36.848   6.071   7.353
 9300POPC   NC355079  15.991   8.239   5.553
 9300POPC   PO455080  15.913   8.164   5.853
 9300POPC   GL155081  15.963   8.163   6.153
 9300POPC   GL255082  15.985   8.101   6.153
 9300POPC   C1A55083  15.945   8.184   6.453
 9300POPC   D2A55084  15.933   8.240   6.753
 9300POPC   C3A55085  15.949   8.244   7.053
 9300POPC   C4A55086  15.989   8.173   7.353
 9300POPC   C1B55087  15.933   7.974   6.453
 9300POPC   C2B55088  15.999   7.898   6.753
 9300POPC   C3B55089  15.951   7.982   7.053
 9300POPC   C4B55090  16.017   7.913   7.353
 9301POPC   NC355091  41.559  35.306   5.553
 9301POPC   PO455092  41.569  35.346   5.853
 9301POPC   GL155093  41.569  35.382   6.153
 9301POPC   GL255094  41.423  35.380   6.153
 9301POPC   C1A55095  41.512  35.350   6.453
 9301POPC   D2A55096  41.567  35.400   6.753
 9301POPC   C3A55097  41.574  35.350   7.053
 9301POPC   C4A55098  41.587  35.385   7.353
 9301POPC   C1B55099  41.338  35.453   6.453
 9301POPC   C2B55100  41.328  35.468   6.753
 9301POPC   C3B55101  41.364  35.440   7.053
 9301POPC   C4B55102  41.372  35.424   7.353
 9302POPC   NC355103  10.519  36.141   5.553
 9302POPC   PO455104  10.529  36.105   5.853
 9302POPC   GL155105  10.560  36.109   6.153
 9302POPC   GL255106  10.486  36.243   6.153
 9302POPC   C1A55107  10.534  36.158   6.453
 9302POPC   D2A55108  10.497  36.137   6.753
 9302POPC   C3A55109  10.517  36.157   7.053
 9302POPC   C4A55110  10.523  36.097   7.353
 9302POPC   C1B55111  10.466  36.346   6.453
 9302POPC   C2B55112  10.509  36.363   6.753
 9302POPC   C3B55113  10.442  36.351   7.053
 9302POPC   C4B55114  10.440  36.335   7.353
 9303POPC   NC355115  27.594  33.813   5.553
 9303POPC   PO455116  27.637  33.759   5.853
 9303POPC   GL155117  27.568  33.778   6.153
 9303POPC   GL255118  27.468  33.812   6.153
 9303POPC   C1A55119  27.636  33.789   6.453
 9303POPC   D2A55120  27.544  33.767   6.753
 9303POPC   C3A55121  27.617  33.760   7.053
 9303POPC   C4A55122  27.580  33.802   7.353
 9303POPC   C1B55123  27.349  33.858   6.453
 9303POPC   C2B55124  27.364  33.858   6.753
 9303POPC   C3B55125  27.309  33.859   7.053
 9303POPC   C4B55126  27.396  33.880   7.353
 9304POPC   NC355127  42.317  26.033   5.553
 9304POPC   PO455128  42.310  26.053   5.853
 9304POPC   GL155129  42.298  26.028   6.153
 9304POPC   GL255130  42.209  26.100   6.153
 9304POPC   C1A55131  42.347  26.090   6.453
 9304POPC   D2A55132  42.365  26.043   6.753
 9304POPC   C3A55133  42.365  26.037   7.053
 9304POPC   C4A55134  42.309  26.074   7.353
 9304POPC   C1B55135  42.132  26.227   6.453
 9304POPC   C2B55136  42.183  26.275   6.753
 9304POPC   C3B55137  42.185  26.192   7.053
 9304POPC   C4B55138  42.198  26.185   7.353
 9305POPC   NC355139   0.428   0.478   5.553
 9305POPC   PO455140   0.457   0.401   5.853
 9305POPC   GL155141   0.469   0.395   6.153
 9305POPC   GL255142   0.297   0.418   6.153
 9305POPC   C1A55143   0.479   0.412   6.453
 9305POPC   D2A55144   0.407   0.397   6.753
 9305POPC   C3A55145   0.392   0.431   7.053
 9305POPC   C4A55146   0.437   0.465   7.353
 9305POPC   C1B55147   0.178   0.347   6.453
 9305POPC   C2B55148   0.236   0.325   6.753
 9305POPC   C3B55149   0.230   0.376   7.053
 9305POPC   C4B55150   0.208   0.341   7.353
 9306POPC   NC355151  43.861   5.077   5.553
 9306POPC   PO455152  43.925   5.083   5.853
 9306POPC   GL155153  43.860   5.061   6.153
 9306POPC   GL255154  43.988   5.024   6.153
 9306POPC   C1A55155  43.877   5.129   6.453
 9306POPC   D2A55156  43.896   5.100   6.753
 9306POPC   C3A55157  43.879   5.090   7.053
 9306POPC   C4A55158  43.886   5.065   7.353
 9306POPC   C1B55159  44.133   5.046   6.453
 9306POPC   C2B55160  44.116   5.003   6.753
 9306POPC   C3B55161  44.133   4.973   7.053
 9306POPC   C4B55162  44.123   5.003   7.353
 9307POPC   NC355163  21.425  18.255   5.553
 9307POPC   PO455164  21.342  18.269   5.853
 9307POPC   GL155165  21.353  18.305   6.153
 9307POPC   GL255166  21.299  18.189   6.153
 9307POPC   C1A55167  21.379  18.307   6.453
 9307POPC   D2A55168  21.358  18.257   6.753
 9307POPC   C3A55169  21.418  18.290   7.053
 9307POPC   C4A55170  21.363  18.268   7.353
 9307POPC   C1B55171  21.196  18.156   6.453
 9307POPC   C2B55172  21.129  18.182   6.753
 9307POPC   C3B55173  21.130  18.145   7.053
 9307POPC   C4B55174  21.137  18.187   7.353
 9308POPC   NC355175   1.213  43.894   5.553
 9308POPC   PO455176   1.204  43.911   5.853
 9308POPC   GL155177   1.233  43.872   6.153
 9308POPC   GL255178   1.336  43.956   6.153
 9308POPC   C1A55179   1.234  43.849   6.453
 9308POPC   D2A55180   1.226  43.853   6.753
 9308POPC   C3A55181   1.263  43.925   7.053
 9308POPC   C4A55182   1.167  43.872   7.353
 9308POPC   C1B55183   1.425  43.988   6.453
 9308POPC   C2B55184   1.390  44.024   6.753
 9308POPC   C3B55185   1.436  44.050   7.053
 9308POPC   C4B55186   1.436  43.958   7.353
 9309POPC   NC355187  28.388  23.678   5.553
 9309POPC   PO455188  28.381  23.719   5.853
 9309POPC   GL155189  28.416  23.674   6.153
 9309POPC   GL255190  28.297  23.804   6.153
 9309POPC   C1A55191  28.340  23.724   6.453
 9309POPC   D2A55192  28.383  23.715   6.753
 9309POPC   C3A55193  28.335  23.719   7.053
 9309POPC   C4A55194  28.357  23.723   7.353
 9309POPC   C1B55195  28.148  23.879   6.453
 9309POPC   C2B55196  28.149  23.873   6.753
 9309POPC   C3B55197  28.165  23.816   7.053
 9309POPC   C4B55198  28.175  23.831   7.353
 9310POPC   NC355199   9.769  29.960   5.553
 9310POPC   PO455200   9.751  29.964   5.853
 9310POPC   GL155201   9.740  29.873   6.153
 9310POPC   GL255202   9.764  29.770   6.153
 9310POPC   C1A55203   9.795  29.893   6.453
 9310POPC   D2A55204   9.726  29.873   6.753
 9310POPC   C3A55205   9.796  29.892   7.053
 9310POPC   C4A55206   9.789  29.949   7.353
 9310POPC   C1B55207   9.683  29.703   6.453
 9310POPC   C2B55208   9.756  29.660   6.753
 9310POPC   C3B55209   9.720  29.722   7.053
 9310POPC   C4B55210   9.755  29.632   7.353
 9311POPC   NC355211  43.134  18.266   5.553
 9311POPC   PO455212  43.093  18.286   5.853
 9311POPC   GL155213  43.116  18.283   6.153
 9311POPC   GL255214  43.045  18.338   6.153
 9311POPC   C1A55215  43.128  18.235   6.453
 9311POPC   D2A55216  43.150  18.261   6.753
 9311POPC   C3A55217  43.091  18.324   7.053
 9311POPC   C4A55218  43.115  18.306   7.353
 9311POPC   C1B55219  42.960  18.474   6.453
 9311POPC   C2B55220  42.960  18.537   6.753
 9311POPC   C3B55221  42.967  18.457   7.053
 9311POPC   C4B55222  42.932  18.476   7.353
 9312POPC   NC355223  43.120   7.428   5.553
 9312POPC   PO455224  43.075   7.448   5.853
 9312POPC   GL155225  43.096   7.447   6.153
 9312POPC   GL255226  43.135   7.506   6.153
 9312POPC   C1A55227  43.095   7.415   6.453
 9312POPC   D2A55228  43.094   7.398   6.753
 9312POPC   C3A55229  43.096   7.440   7.053
 9312POPC   C4A55230  43.132   7.428   7.353
 9312POPC   C1B55231  43.229   7.621   6.453
 9312POPC   C2B55232  43.229   7.643   6.753
 9312POPC   C3B55233  43.219   7.646   7.053
 9312POPC   C4B55234  43.174   7.605   7.353
 9313POPC   NC355235  15.222  44.636   5.553
 9313POPC   PO455236  15.226  44.648   5.853
 9313POPC   GL155237  15.218  44.679   6.153
 9313POPC   GL255238  15.184  44.751   6.153
 9313POPC   C1A55239  15.181  44.653   6.453
 9313POPC   D2A55240  15.152  44.688   6.753
 9313POPC   C3A55241  15.149  44.711   7.053
 9313POPC   C4A55242  15.166  44.652   7.353
 9313POPC   C1B55243  15.281  44.873   6.453
 9313POPC   C2B55244  15.243  44.864   6.753
 9313POPC   C3B55245  15.230  44.857   7.053
 9313POPC   C4B55246  15.246  44.917   7.353
 9314POPC   NC355247  43.851   1.170   5.553
 9314POPC   PO455248  43.900   1.193   5.853
 9314POPC   GL155249  43.921   1.262   6.153
 9314POPC   GL255250  43.727   1.174   6.153
 9314POPC   C1A55251  43.899   1.239   6.453
 9314POPC   D2A55252  43.920   1.192   6.753
 9314POPC   C3A55253  43.841   1.210   7.053
 9314POPC   C4A55254  43.877   1.174   7.353
 9314POPC   C1B55255  43.673   1.113   6.453
 9314POPC   C2B55256  43.608   1.169   6.753
 9314POPC   C3B55257  43.653   1.112   7.053
 9314POPC   C4B55258  43.687   1.084   7.353
 9315POPC   NC355259  16.731  16.700   5.553
 9315POPC   PO455260  16.710  16.707   5.853
 9315POPC   GL155261  16.740  16.742   6.153
 9315POPC   GL255262  16.645  16.829   6.153
 9315POPC   C1A55263  16.740  16.691   6.453
 9315POPC   D2A55264  16.693  16.767   6.753
 9315POPC   C3A55265  16.715  16.753   7.053
 9315POPC   C4A55266  16.734  16.691   7.353
 9315POPC   C1B55267  16.581  16.857   6.453
 9315POPC   C2B55268  16.508  16.917   6.753
 9315POPC   C3B55269  16.527  16.880   7.053
 9315POPC   C4B55270  16.583  16.885   7.353
 9316POPC   NC355271  18.328  21.412   5.553
 9316POPC   PO455272  18.289  21.368   5.853
 9316POPC   GL155273  18.290  21.432   6.153
 9316POPC   GL255274  18.163  21.474   6.153
 9316POPC   C1A55275  18.275  21.419   6.453
 9316POPC   D2A55276  18.236  21.347   6.753
 9316POPC   C3A55277  18.254  21.398   7.053
 9316POPC   C4A55278  18.234  21.355   7.353
 9316POPC   C1B55279  18.184  21.598   6.453
 9316POPC   C2B55280  18.095  21.543   6.753
 9316POPC   C3B55281  18.095  21.552   7.053
 9316POPC   C4B55282  18.159  21.619   7.353
 9317POPC   NC355283   6.596  33.000   5.553
 9317POPC   PO455284   6.599  33.055   5.853
 9317POPC   GL155285   6.623  32.988   6.153
 9317POPC   GL255286   6.750  33.059   6.153
 9317POPC   C1A55287   6.651  33.019   6.453
 9317POPC   D2A55288   6.652  33.068   6.753
 9317POPC   C3A55289   6.665  33.017   7.053
 9317POPC   C4A55290   6.648  33.002   7.353
 9317POPC   C1B55291   6.899  33.087   6.453
 9317POPC   C2B55292   6.848  33.088   6.753
 9317POPC   C3B55293   6.934  33.021   7.053
 9317POPC   C4B55294   6.943  33.007   7.353
 9318POPC   NC355295  18.285   6.666   5.553
 9318POPC   PO455296  18.321   6.682   5.853
 9318POPC   GL155297  18.275   6.692   6.153
 9318POPC   GL255298  18.259   6.766   6.153
 9318POPC   C1A55299  18.290   6.662   6.453
 9318POPC   D2A55300  18.239   6.620   6.753
 9318POPC   C3A55301  18.323   6.612   7.053
 9318POPC   C4A55302  18.296   6.631   7.353
 9318POPC   C1B55303  18.124   6.887   6.453
 9318POPC   C2B55304  18.179   6.864   6.753
 9318POPC   C3B55305  18.186   6.835   7.053
 9318POPC   C4B55306  18.106   6.892   7.353
 9319POPC   NC355307   4.353  18.240   5.553
 9319POPC   PO455308   4.269  18.261   5.853
 9319POPC   GL155309   4.273  18.240   6.153
 9319POPC   GL255310   4.345  18.364   6.153
 9319POPC   C1A55311   4.325  18.327   6.453
 9319POPC   D2A55312   4.362  18.328   6.753
 9319POPC   C3A55313   4.359  18.321   7.053
 9319POPC   C4A55314   4.323  18.234   7.353
 9319POPC   C1B55315   4.353  18.524   6.453
 9319POPC   C2B55316   4.341  18.526   6.753
 9319POPC   C3B55317   4.414  18.481   7.053
 9319POPC   C4B55318   4.358  18.549   7.353
 9320POPC   NC355319  14.364  27.629   5.553
 9320POPC   PO455320  14.440  27.599   5.853
 9320POPC   GL155321  14.382  27.547   6.153
 9320POPC   GL255322  14.325  27.623   6.153
 9320POPC   C1A55323  14.406  27.579   6.453
 9320POPC   D2A55324  14.445  27.626   6.753
 9320POPC   C3A55325  14.384  27.583   7.053
 9320POPC   C4A55326  14.436  27.614   7.353
 9320POPC   C1B55327  14.177  27.723   6.453
 9320POPC   C2B55328  14.219  27.778   6.753
 9320POPC   C3B55329  14.231  27.707   7.053
 9320POPC   C4B55330  14.225  27.783   7.353
 9321POPC   NC355331   1.238   8.230   5.553
 9321POPC   PO455332   1.182   8.235   5.853
 9321POPC   GL155333   1.262   8.233   6.153
 9321POPC   GL255334   1.288   8.108   6.153
 9321POPC   C1A55335   1.252   8.154   6.453
 9321POPC   D2A55336   1.233   8.171   6.753
 9321POPC   C3A55337   1.202   8.228   7.053
 9321POPC   C4A55338   1.185   8.208   7.353
 9321POPC   C1B55339   1.451   8.078   6.453
 9321POPC   C2B55340   1.415   8.034   6.753
 9321POPC   C3B55341   1.444   8.045   7.053
 9321POPC   C4B55342   1.386   8.015   7.353
 9322POPC   NC355343  18.237   2.793   5.553
 9322POPC   PO455344  18.318   2.735   5.853
 9322POPC   GL155345  18.318   2.759   6.153
 9322POPC   GL255346  18.370   2.785   6.153
 9322POPC   C1A55347  18.257   2.802   6.453
 9322POPC   D2A55348  18.243   2.722   6.753
 9322POPC   C3A55349  18.309   2.716   7.053
 9322POPC   C4A55350  18.281   2.781   7.353
 9322POPC   C1B55351  18.536   2.817   6.453
 9322POPC   C2B55352  18.533   2.897   6.753
 9322POPC   C3B55353  18.473   2.894   7.053
 9322POPC   C4B55354  18.485   2.875   7.353
 9323POPC   NC355355   9.725  27.574   5.553
 9323POPC   PO455356   9.700  27.615   5.853
 9323POPC   GL155357   9.716  27.569   6.153
 9323POPC   GL255358   9.642  27.598   6.153
 9323POPC   C1A55359   9.793  27.555   6.453
 9323POPC   D2A55360   9.727  27.584   6.753
 9323POPC   C3A55361   9.709  27.589   7.053
 9323POPC   C4A55362   9.775  27.608   7.353
 9323POPC   C1B55363   9.553  27.723   6.453
 9323POPC   C2B55364   9.486  27.656   6.753
 9323POPC   C3B55365   9.487  27.708   7.053
 9323POPC   C4B55366   9.532  27.681   7.353
 9324POPC   NC355367  32.259   5.874   5.553
 9324POPC   PO455368  32.223   5.858   5.853
 9324POPC   GL155369  32.264   5.872   6.153
 9324POPC   GL255370  32.393   5.790   6.153
 9324POPC   C1A55371  32.271   5.830   6.453
 9324POPC   D2A55372  32.242   5.911   6.753
 9324POPC   C3A55373  32.238   5.903   7.053
 9324POPC   C4A55374  32.279   5.882   7.353
 9324POPC   C1B55375  32.499   5.734   6.453
 9324POPC   C2B55376  32.435   5.805   6.753
 9324POPC   C3B55377  32.467   5.806   7.053
 9324POPC   C4B55378  32.495   5.751   7.353
 9325POPC   NC355379  21.428   0.435   5.553
 9325POPC   PO455380  21.415   0.411   5.853
 9325POPC   GL155381  21.375   0.454   6.153
 9325POPC   GL255382  21.401   0.370   6.153
 9325POPC   C1A55383  21.431   0.397   6.453
 9325POPC   D2A55384  21.404   0.426   6.753
 9325POPC   C3A55385  21.404   0.468   7.053
 9325POPC   C4A55386  21.399   0.468   7.353
 9325POPC   C1B55387  21.537   0.234   6.453
 9325POPC   C2B55388  21.535   0.193   6.753
 9325POPC   C3B55389  21.516   0.194   7.053
 9325POPC   C4B55390  21.506   0.177   7.353
 9326POPC   NC355391  15.966  40.824   5.553
 9326POPC   PO455392  15.939  40.797   5.853
 9326POPC   GL155393  15.914  40.788   6.153
 9326POPC   GL255394  15.859  40.830   6.153
 9326POPC   C1A55395  15.922  40.760   6.453
 9326POPC   D2A55396  15.932  40.819   6.753
 9326POPC   C3A55397  15.975  40.774   7.053
 9326POPC   C4A55398  15.925  40.755   7.353
 9326POPC   C1B55399  15.773  40.860   6.453
 9326POPC   C2B55400  15.702  40.867   6.753
 9326POPC   C3B55401  15.711  40.878   7.053
 9326POPC   C4B55402  15.715  40.939   7.353
 9327POPC   NC355403  38.435  29.120   5.553
 9327POPC   PO455404  38.469  29.137   5.853
 9327POPC   GL155405  38.503  29.163   6.153
 9327POPC   GL255406  38.304  29.128   6.153
 9327POPC   C1A55407  38.411  29.113   6.453
 9327POPC   D2A55408  38.407  29.139   6.753
 9327POPC   C3A55409  38.423  29.123   7.053
 9327POPC   C4A55410  38.501  29.195   7.353
 9327POPC   C1B55411  38.204  29.144   6.453
 9327POPC   C2B55412  38.193  29.147   6.753
 9327POPC   C3B55413  38.164  29.217   7.053
 9327POPC   C4B55414  38.211  29.217   7.353
 9328POPC   NC355415  19.823   3.504   5.553
 9328POPC   PO455416  19.869   3.530   5.853
 9328POPC   GL155417  19.822   3.519   6.153
 9328POPC   GL255418  19.823   3.630   6.153
 9328POPC   C1A55419  19.852   3.532   6.453
 9328POPC   D2A55420  19.828   3.528   6.753
 9328POPC   C3A55421  19.874   3.518   7.053
 9328POPC   C4A55422  19.851   3.587   7.353
 9328POPC   C1B55423  19.740   3.752   6.453
 9328POPC   C2B55424  19.713   3.808   6.753
 9328POPC   C3B55425  19.774   3.789   7.053
 9328POPC   C4B55426  19.753   3.792   7.353
 9329POPC   NC355427  12.092   7.395   5.553
 9329POPC   PO455428  12.119   7.426   5.853
 9329POPC   GL155429  12.084   7.443   6.153
 9329POPC   GL255430  11.974   7.305   6.153
 9329POPC   C1A55431  12.039   7.394   6.453
 9329POPC   D2A55432  12.100   7.433   6.753
 9329POPC   C3A55433  12.066   7.427   7.053
 9329POPC   C4A55434  12.077   7.419   7.353
 9329POPC   C1B55435  11.921   7.179   6.453
 9329POPC   C2B55436  11.899   7.210   6.753
 9329POPC   C3B55437  11.953   7.205   7.053
 9329POPC   C4B55438  11.963   7.207   7.353
 9330POPC   NC355439  19.853  23.745   5.553
 9330POPC   PO455440  19.880  23.686   5.853
 9330POPC   GL155441  19.863  23.695   6.153
 9330POPC   GL255442  19.704  23.683   6.153
 9330POPC   C1A55443  19.799  23.754   6.453
 9330POPC   D2A55444  19.818  23.684   6.753
 9330POPC   C3A55445  19.806  23.717   7.053
 9330POPC   C4A55446  19.838  23.748   7.353
 9330POPC   C1B55447  19.593  23.533   6.453
 9330POPC   C2B55448  19.655  23.541   6.753
 9330POPC   C3B55449  19.643  23.603   7.053
 9330POPC   C4B55450  19.620  23.549   7.353
 9331POPC   NC355451  17.498  39.990   5.553
 9331POPC   PO455452  17.538  40.050   5.853
 9331POPC   GL155453  17.459  40.039   6.153
 9331POPC   GL255454  17.338  39.976   6.153
 9331POPC   C1A55455  17.509  39.985   6.453
 9331POPC   D2A55456  17.481  39.995   6.753
 9331POPC   C3A55457  17.485  40.050   7.053
 9331POPC   C4A55458  17.467  39.987   7.353
 9331POPC   C1B55459  17.248  39.956   6.453
 9331POPC   C2B55460  17.247  39.926   6.753
 9331POPC   C3B55461  17.315  39.945   7.053
 9331POPC   C4B55462  17.255  39.920   7.353
 9332POPC   NC355463   4.285  41.586   5.553
 9332POPC   PO455464   4.288  41.534   5.853
 9332POPC   GL155465   4.271  41.524   6.153
 9332POPC   GL255466   4.344  41.648   6.153
 9332POPC   C1A55467   4.312  41.509   6.453
 9332POPC   D2A55468   4.326  41.538   6.753
 9332POPC   C3A55469   4.357  41.580   7.053
 9332POPC   C4A55470   4.331  41.563   7.353
 9332POPC   C1B55471   4.351  41.826   6.453
 9332POPC   C2B55472   4.335  41.832   6.753
 9332POPC   C3B55473   4.319  41.823   7.053
 9332POPC   C4B55474   4.298  41.786   7.353
 9333POPC   NC355475  16.693   8.205   5.553
 9333POPC   PO455476  16.729   8.214   5.853
 9333POPC   GL155477  16.712   8.227   6.153
 9333POPC   GL255478  16.837   8.331   6.153
 9333POPC   C1A55479  16.763   8.176   6.453
 9333POPC   D2A55480  16.742   8.246   6.753
 9333POPC   C3A55481  16.726   8.165   7.053
 9333POPC   C4A55482  16.741   8.207   7.353
 9333POPC   C1B55483  16.876   8.359   6.453
 9333POPC   C2B55484  16.886   8.440   6.753
 9333POPC   C3B55485  16.883   8.433   7.053
 9333POPC   C4B55486  16.858   8.440   7.353
 9334POPC   NC355487  44.705   0.485   5.553
 9334POPC   PO455488  44.622   0.411   5.853
 9334POPC   GL155489  44.708   0.443   6.153
 9334POPC   GL255490  44.528   0.452   6.153
 9334POPC   C1A55491  44.656   0.429   6.453
 9334POPC   D2A55492  44.676   0.440   6.753
 9334POPC   C3A55493  44.693   0.447   7.053
 9334POPC   C4A55494  44.648   0.472   7.353
 9334POPC   C1B55495  44.432   0.456   6.453
 9334POPC   C2B55496  44.371   0.452   6.753
 9334POPC   C3B55497  44.448   0.435   7.053
 9334POPC   C4B55498  44.449   0.460   7.353
 9335POPC   NC355499  22.183  36.115   5.553
 9335POPC   PO455500  22.132  36.122   5.853
 9335POPC   GL155501  22.192  36.080   6.153
 9335POPC   GL255502  22.034  36.164   6.153
 9335POPC   C1A55503  22.181  36.122   6.453
 9335POPC   D2A55504  22.201  36.102   6.753
 9335POPC   C3A55505  22.126  36.133   7.053
 9335POPC   C4A55506  22.141  36.148   7.353
 9335POPC   C1B55507  21.936  36.102   6.453
 9335POPC   C2B55508  21.899  36.086   6.753
 9335POPC   C3B55509  21.878  36.099   7.053
 9335POPC   C4B55510  21.911  36.099   7.353
 9336POPC   NC355511   8.166   1.214   5.553
 9336POPC   PO455512   8.163   1.233   5.853
 9336POPC   GL155513   8.201   1.250   6.153
 9336POPC   GL255514   8.177   1.107   6.153
 9336POPC   C1A55515   8.242   1.221   6.453
 9336POPC   D2A55516   8.235   1.243   6.753
 9336POPC   C3A55517   8.163   1.204   7.053
 9336POPC   C4A55518   8.172   1.257   7.353
 9336POPC   C1B55519   8.256   0.941   6.453
 9336POPC   C2B55520   8.241   0.931   6.753
 9336POPC   C3B55521   8.284   0.972   7.053
 9336POPC   C4B55522   8.205   0.991   7.353
 9337POPC   NC355523  13.674   7.394   5.553
 9337POPC   PO455524  13.665   7.449   5.853
 9337POPC   GL155525  13.593   7.372   6.153
 9337POPC   GL255526  13.520   7.380   6.153
 9337POPC   C1A55527  13.668   7.403   6.453
 9337POPC   D2A55528  13.644   7.412   6.753
 9337POPC   C3A55529  13.676   7.445   7.053
 9337POPC   C4A55530  13.655   7.374   7.353
 9337POPC   C1B55531  13.427   7.346   6.453
 9337POPC   C2B55532  13.429   7.333   6.753
 9337POPC   C3B55533  13.361   7.261   7.053
 9337POPC   C4B55534  13.387   7.313   7.353
 9338POPC   NC355535  14.372   5.110   5.553
 9338POPC   PO455536  14.375   5.135   5.853
 9338POPC   GL155537  14.367   5.051   6.153
 9338POPC   GL255538  14.370   5.184   6.153
 9338POPC   C1A55539  14.395   5.112   6.453
 9338POPC   D2A55540  14.410   5.065   6.753
 9338POPC   C3A55541  14.413   5.069   7.053
 9338POPC   C4A55542  14.396   5.097   7.353
 9338POPC   C1B55543  14.385   5.325   6.453
 9338POPC   C2B55544  14.419   5.319   6.753
 9338POPC   C3B55545  14.388   5.296   7.053
 9338POPC   C4B55546  14.462   5.325   7.353
 9339POPC   NC355547  31.433  39.218   5.553
 9339POPC   PO455548  31.461  39.272   5.853
 9339POPC   GL155549  31.453  39.264   6.153
 9339POPC   GL255550  31.319  39.271   6.153
 9339POPC   C1A55551  31.508  39.235   6.453
 9339POPC   D2A55552  31.439  39.193   6.753
 9339POPC   C3A55553  31.460  39.264   7.053
 9339POPC   C4A55554  31.498  39.207   7.353
 9339POPC   C1B55555  31.221  39.368   6.453
 9339POPC   C2B55556  31.275  39.355   6.753
 9339POPC   C3B55557  31.305  39.398   7.053
 9339POPC   C4B55558  31.213  39.375   7.353
 9340POPC   NC355559  23.753  12.853   5.553
 9340POPC   PO455560  23.694  12.891   5.853
 9340POPC   GL155561  23.673  12.814   6.153
 9340POPC   GL255562  23.850  12.897   6.153
 9340POPC   C1A55563  23.737  12.816   6.453
 9340POPC   D2A55564  23.736  12.867   6.753
 9340POPC   C3A55565  23.689  12.868   7.053
 9340POPC   C4A55566  23.746  12.842   7.353
 9340POPC   C1B55567  23.940  12.979   6.453
 9340POPC   C2B55568  23.923  12.973   6.753
 9340POPC   C3B55569  23.909  13.043   7.053
 9340POPC   C4B55570  23.908  13.036   7.353
 9341POPC   NC355571  18.273  20.566   5.553
 9341POPC   PO455572  18.271  20.606   5.853
 9341POPC   GL155573  18.234  20.563   6.153
 9341POPC   GL255574  18.448  20.579   6.153
 9341POPC   C1A55575  18.273  20.590   6.453
 9341POPC   D2A55576  18.268  20.606   6.753
 9341POPC   C3A55577  18.245  20.596   7.053
 9341POPC   C4A55578  18.278  20.583   7.353
 9341POPC   C1B55579  18.494  20.637   6.453
 9341POPC   C2B55580  18.497  20.671   6.753
 9341POPC   C3B55581  18.506  20.584   7.053
 9341POPC   C4B55582  18.486  20.633   7.353
 9342POPC   NC355583   5.076   8.212   5.553
 9342POPC   PO455584   5.058   8.213   5.853
 9342POPC   GL155585   5.105   8.168   6.153
 9342POPC   GL255586   4.988   8.207   6.153
 9342POPC   C1A55587   5.074   8.223   6.453
 9342POPC   D2A55588   5.102   8.173   6.753
 9342POPC   C3A55589   5.078   8.176   7.053
 9342POPC   C4A55590   5.067   8.225   7.353
 9342POPC   C1B55591   4.855   8.231   6.453
 9342POPC   C2B55592   4.886   8.253   6.753
 9342POPC   C3B55593   4.853   8.227   7.053
 9342POPC   C4B55594   4.813   8.210   7.353
 9343POPC   NC355595  28.385   8.163   5.553
 9343POPC   PO455596  28.347   8.187   5.853
 9343POPC   GL155597  28.402   8.246   6.153
 9343POPC   GL255598  28.433   8.272   6.153
 9343POPC   C1A55599  28.335   8.155   6.453
 9343POPC   D2A55600  28.337   8.180   6.753
 9343POPC   C3A55601  28.332   8.210   7.053
 9343POPC   C4A55602  28.324   8.183   7.353
 9343POPC   C1B55603  28.498   8.437   6.453
 9343POPC   C2B55604  28.517   8.397   6.753
 9343POPC   C3B55605  28.452   8.378   7.053
 9343POPC   C4B55606  28.537   8.407   7.353
 9344POPC   NC355607  43.921   5.827   5.553
 9344POPC   PO455608  43.924   5.897   5.853
 9344POPC   GL155609  43.888   5.895   6.153
 9344POPC   GL255610  43.871   5.779   6.153
 9344POPC   C1A55611  43.903   5.912   6.453
 9344POPC   D2A55612  43.921   5.863   6.753
 9344POPC   C3A55613  43.891   5.820   7.053
 9344POPC   C4A55614  43.875   5.913   7.353
 9344POPC   C1B55615  43.910   5.575   6.453
 9344POPC   C2B55616  43.894   5.662   6.753
 9344POPC   C3B55617  43.931   5.574   7.053
 9344POPC   C4B55618  43.923   5.651   7.353
 9345POPC   NC355619  39.257   0.476   5.553
 9345POPC   PO455620  39.277   0.410   5.853
 9345POPC   GL155621  39.233   0.422   6.153
 9345POPC   GL255622  39.125   0.536   6.153
 9345POPC   C1A55623  39.254   0.419   6.453
 9345POPC   D2A55624  39.211   0.442   6.753
 9345POPC   C3A55625  39.241   0.407   7.053
 9345POPC   C4A55626  39.208   0.449   7.353
 9345POPC   C1B55627  39.065   0.528   6.453
 9345POPC   C2B55628  38.997   0.554   6.753
 9345POPC   C3B55629  39.032   0.564   7.053
 9345POPC   C4B55630  39.065   0.620   7.353
 9346POPC   NC355631  44.652  43.153   5.553
 9346POPC   PO455632  44.631  43.152   5.853
 9346POPC   GL155633  44.662  43.081   6.153
 9346POPC   GL255634  44.674  42.966   6.153
 9346POPC   C1A55635  44.617  43.090   6.453
 9346POPC   D2A55636  44.695  43.138   6.753
 9346POPC   C3A55637  44.669  43.074   7.053
 9346POPC   C4A55638  44.635  43.139   7.353
 9346POPC   C1B55639  44.618  42.815   6.453
 9346POPC   C2B55640  44.627  42.908   6.753
 9346POPC   C3B55641  44.678  42.879   7.053
 9346POPC   C4B55642  44.610  42.876   7.353
 9347POPC   NC355643  36.142   8.204   5.553
 9347POPC   PO455644  36.162   8.149   5.853
 9347POPC   GL155645  36.147   8.231   6.153
 9347POPC   GL255646  36.105   8.334   6.153
 9347POPC   C1A55647  36.091   8.186   6.453
 9347POPC   D2A55648  36.125   8.155   6.753
 9347POPC   C3A55649  36.163   8.151   7.053
 9347POPC   C4A55650  36.157   8.231   7.353
 9347POPC   C1B55651  36.009   8.387   6.453
 9347POPC   C2B55652  36.081   8.431   6.753
 9347POPC   C3B55653  36.000   8.396   7.053
 9347POPC   C4B55654  36.070   8.477   7.353
 9348POPC   NC355655  32.212   6.600   5.553
 9348POPC   PO455656  32.250   6.673   5.853
 9348POPC   GL155657  32.268   6.690   6.153
 9348POPC   GL255658  32.299   6.729   6.153
 9348POPC   C1A55659  32.273   6.607   6.453
 9348POPC   D2A55660  32.251   6.663   6.753
 9348POPC   C3A55661  32.292   6.674   7.053
 9348POPC   C4A55662  32.235   6.657   7.353
 9348POPC   C1B55663  32.396   6.827   6.453
 9348POPC   C2B55664  32.416   6.808   6.753
 9348POPC   C3B55665  32.427   6.825   7.053
 9348POPC   C4B55666  32.382   6.860   7.353
 9349POPC   NC355667  23.752   0.464   5.553
 9349POPC   PO455668  23.742   0.482   5.853
 9349POPC   GL155669  23.694   0.465   6.153
 9349POPC   GL255670  23.863   0.423   6.153
 9349POPC   C1A55671  23.715   0.482   6.453
 9349POPC   D2A55672  23.730   0.408   6.753
 9349POPC   C3A55673  23.681   0.418   7.053
 9349POPC   C4A55674  23.696   0.433   7.353
 9349POPC   C1B55675  23.927   0.497   6.453
 9349POPC   C2B55676  23.938   0.507   6.753
 9349POPC   C3B55677  23.939   0.442   7.053
 9349POPC   C4B55678  23.944   0.486   7.353
 9350POPC   NC355679  22.178   1.226   5.553
 9350POPC   PO455680  22.123   1.175   5.853
 9350POPC   GL155681  22.207   1.214   6.153
 9350POPC   GL255682  22.113   1.311   6.153
 9350POPC   C1A55683  22.133   1.172   6.453
 9350POPC   D2A55684  22.138   1.177   6.753
 9350POPC   C3A55685  22.116   1.213   7.053
 9350POPC   C4A55686  22.212   1.242   7.353
 9350POPC   C1B55687  22.011   1.392   6.453
 9350POPC   C2B55688  22.040   1.433   6.753
 9350POPC   C3B55689  22.004   1.453   7.053
 9350POPC   C4B55690  22.006   1.439   7.353
 9351POPC   NC355691  19.856   0.400   5.553
 9351POPC   PO455692  19.841   0.443   5.853
 9351POPC   GL155693  19.841   0.435   6.153
 9351POPC   GL255694  19.908   0.389   6.153
 9351POPC   C1A55695  19.851   0.433   6.453
 9351POPC   D2A55696  19.818   0.403   6.753
 9351POPC   C3A55697  19.847   0.486   7.053
 9351POPC   C4A55698  19.880   0.434   7.353
 9351POPC   C1B55699  20.009   0.270   6.453
 9351POPC   C2B55700  20.031   0.323   6.753
 9351POPC   C3B55701  20.020   0.315   7.053
 9351POPC   C4B55702  20.079   0.267   7.353
 9352POPC   NC355703  30.694  33.027   5.553
 9352POPC   PO455704  30.694  33.059   5.853
 9352POPC   GL155705  30.685  33.046   6.153
 9352POPC   GL255706  30.650  33.138   6.153
 9352POPC   C1A55707  30.693  33.024   6.453
 9352POPC   D2A55708  30.701  33.010   6.753
 9352POPC   C3A55709  30.727  33.051   7.053
 9352POPC   C4A55710  30.684  32.999   7.353
 9352POPC   C1B55711  30.666  33.278   6.453
 9352POPC   C2B55712  30.695  33.258   6.753
 9352POPC   C3B55713  30.630  33.252   7.053
 9352POPC   C4B55714  30.635  33.316   7.353
 9353POPC   NC355715  29.157  42.351   5.553
 9353POPC   PO455716  29.107  42.302   5.853
 9353POPC   GL155717  29.162  42.383   6.153
 9353POPC   GL255718  29.042  42.276   6.153
 9353POPC   C1A55719  29.141  42.289   6.453
 9353POPC   D2A55720  29.138  42.354   6.753
 9353POPC   C3A55721  29.184  42.346   7.053
 9353POPC   C4A55722  29.147  42.351   7.353
 9353POPC   C1B55723  28.910  42.241   6.453
 9353POPC   C2B55724  28.929  42.266   6.753
 9353POPC   C3B55725  28.904  42.233   7.053
 9353POPC   C4B55726  28.954  42.301   7.353
 9354POPC   NC355727   5.078  12.031   5.553
 9354POPC   PO455728   5.056  12.106   5.853
 9354POPC   GL155729   5.096  12.038   6.153
 9354POPC   GL255730   5.007  12.229   6.153
 9354POPC   C1A55731   5.142  12.080   6.453
 9354POPC   D2A55732   5.063  12.093   6.753
 9354POPC   C3A55733   5.081  12.093   7.053
 9354POPC   C4A55734   5.071  12.112   7.353
 9354POPC   C1B55735   4.957  12.289   6.453
 9354POPC   C2B55736   4.979  12.271   6.753
 9354POPC   C3B55737   4.993  12.261   7.053
 9354POPC   C4B55738   4.986  12.347   7.353
 9355POPC   NC355739  21.377  28.319   5.553
 9355POPC   PO455740  21.379  28.357   5.853
 9355POPC   GL155741  21.353  28.414   6.153
 9355POPC   GL255742  21.495  28.326   6.153
 9355POPC   C1A55743  21.405  28.323   6.453
 9355POPC   D2A55744  21.339  28.388   6.753
 9355POPC   C3A55745  21.432  28.401   7.053
 9355POPC   C4A55746  21.394  28.338   7.353
 9355POPC   C1B55747  21.623  28.253   6.453
 9355POPC   C2B55748  21.587  28.277   6.753
 9355POPC   C3B55749  21.655  28.219   7.053
 9355POPC   C4B55750  21.615  28.248   7.353
 9356POPC   NC355751  42.344  18.322   5.553
 9356POPC   PO455752  42.345  18.251   5.853
 9356POPC   GL155753  42.356  18.298   6.153
 9356POPC   GL255754  42.320  18.399   6.153
 9356POPC   C1A55755  42.296  18.275   6.453
 9356POPC   D2A55756  42.338  18.237   6.753
 9356POPC   C3A55757  42.329  18.316   7.053
 9356POPC   C4A55758  42.364  18.233   7.353
 9356POPC   C1B55759  42.349  18.498   6.453
 9356POPC   C2B55760  42.321  18.520   6.753
 9356POPC   C3B55761  42.386  18.547   7.053
 9356POPC   C4B55762  42.378  18.535   7.353
 9357POPC   NC355763  42.299  38.448   5.553
 9357POPC   PO455764  42.287  38.432   5.853
 9357POPC   GL155765  42.300  38.467   6.153
 9357POPC   GL255766  42.238  38.559   6.153
 9357POPC   C1A55767  42.344  38.445   6.453
 9357POPC   D2A55768  42.378  38.464   6.753
 9357POPC   C3A55769  42.382  38.448   7.053
 9357POPC   C4A55770  42.306  38.415   7.353
 9357POPC   C1B55771  42.074  38.538   6.453
 9357POPC   C2B55772  42.115  38.563   6.753
 9357POPC   C3B55773  42.149  38.554   7.053
 9357POPC   C4B55774  42.072  38.560   7.353
 9358POPC   NC355775  16.694   5.837   5.553
 9358POPC   PO455776  16.725   5.839   5.853
 9358POPC   GL155777  16.714   5.820   6.153
 9358POPC   GL255778  16.793   5.855   6.153
 9358POPC   C1A55779  16.780   5.838   6.453
 9358POPC   D2A55780  16.707   5.868   6.753
 9358POPC   C3A55781  16.696   5.850   7.053
 9358POPC   C4A55782  16.712   5.851   7.353
 9358POPC   C1B55783  16.903   5.777   6.453
 9358POPC   C2B55784  16.964   5.714   6.753
 9358POPC   C3B55785  16.979   5.718   7.053
 9358POPC   C4B55786  16.922   5.783   7.353
 9359POPC   NC355787  43.838  33.038   5.553
 9359POPC   PO455788  43.886  33.010   5.853
 9359POPC   GL155789  43.842  32.983   6.153
 9359POPC   GL255790  43.820  33.150   6.153
 9359POPC   C1A55791  43.895  33.025   6.453
 9359POPC   D2A55792  43.865  33.014   6.753
 9359POPC   C3A55793  43.852  32.979   7.053
 9359POPC   C4A55794  43.854  33.060   7.353
 9359POPC   C1B55795  43.748  33.228   6.453
 9359POPC   C2B55796  43.762  33.200   6.753
 9359POPC   C3B55797  43.700  33.238   7.053
 9359POPC   C4B55798  43.713  33.277   7.353
 9360POPC   NC355799  21.358  41.580   5.553
 9360POPC   PO455800  21.389  41.572   5.853
 9360POPC   GL155801  21.376  41.539   6.153
 9360POPC   GL255802  21.445  41.441   6.153
 9360POPC   C1A55803  21.359  41.595   6.453
 9360POPC   D2A55804  21.390  41.551   6.753
 9360POPC   C3A55805  21.427  41.519   7.053
 9360POPC   C4A55806  21.354  41.578   7.353
 9360POPC   C1B55807  21.546  41.364   6.453
 9360POPC   C2B55808  21.591  41.439   6.753
 9360POPC   C3B55809  21.578  41.368   7.053
 9360POPC   C4B55810  21.560  41.400   7.353
 9361POPC   NC355811   0.480  16.713   5.553
 9361POPC   PO455812   0.473  16.736   5.853
 9361POPC   GL155813   0.474  16.690   6.153
 9361POPC   GL255814   0.383  16.800   6.153
 9361POPC   C1A55815   0.483  16.761   6.453
 9361POPC   D2A55816   0.431  16.773   6.753
 9361POPC   C3A55817   0.403  16.755   7.053
 9361POPC   C4A55818   0.406  16.697   7.353
 9361POPC   C1B55819   0.267  16.880   6.453
 9361POPC   C2B55820   0.298  16.889   6.753
 9361POPC   C3B55821   0.252  16.920   7.053
 9361POPC   C4B55822   0.317  16.962   7.353
 9362POPC   NC355823  13.607   6.693   5.553
 9362POPC   PO455824  13.667   6.662   5.853
 9362POPC   GL155825  13.668   6.672   6.153
 9362POPC   GL255826  13.710   6.672   6.153
 9362POPC   C1A55827  13.634   6.618   6.453
 9362POPC   D2A55828  13.588   6.655   6.753
 9362POPC   C3A55829  13.611   6.620   7.053
 9362POPC   C4A55830  13.602   6.649   7.353
 9362POPC   C1B55831  13.915   6.682   6.453
 9362POPC   C2B55832  13.869   6.668   6.753
 9362POPC   C3B55833  13.885   6.683   7.053
 9362POPC   C4B55834  13.873   6.704   7.353
 9363POPC   NC355835  37.671  29.900   5.553
 9363POPC   PO455836  37.697  29.886   5.853
 9363POPC   GL155837  37.635  29.937   6.153
 9363POPC   GL255838  37.804  29.896   6.153
 9363POPC   C1A55839  37.648  29.927   6.453
 9363POPC   D2A55840  37.662  29.890   6.753
 9363POPC   C3A55841  37.722  29.891   7.053
 9363POPC   C4A55842  37.688  29.890   7.353
 9363POPC   C1B55843  37.961  29.900   6.453
 9363POPC   C2B55844  37.908  29.865   6.753
 9363POPC   C3B55845  37.897  29.842   7.053
 9363POPC   C4B55846  37.896  29.931   7.353
 9364POPC   NC355847  12.902  35.337   5.553
 9364POPC   PO455848  12.881  35.374   5.853
 9364POPC   GL155849  12.838  35.328   6.153
 9364POPC   GL255850  12.857  35.457   6.153
 9364POPC   C1A55851  12.851  35.349   6.453
 9364POPC   D2A55852  12.860  35.389   6.753
 9364POPC   C3A55853  12.845  35.381   7.053
 9364POPC   C4A55854  12.813  35.323   7.353
 9364POPC   C1B55855  12.865  35.556   6.453
 9364POPC   C2B55856  12.899  35.560   6.753
 9364POPC   C3B55857  12.878  35.556   7.053
 9364POPC   C4B55858  12.904  35.627   7.353
 9365POPC   NC355859   0.416  12.092   5.553
 9365POPC   PO455860   0.397  12.100   5.853
 9365POPC   GL155861   0.421  12.076   6.153
 9365POPC   GL255862   0.574  12.110   6.153
 9365POPC   C1A55863   0.417  12.080   6.453
 9365POPC   D2A55864   0.458  12.115   6.753
 9365POPC   C3A55865   0.460  12.030   7.053
 9365POPC   C4A55866   0.424  12.075   7.353
 9365POPC   C1B55867   0.674  12.144   6.453
 9365POPC   C2B55868   0.703  12.156   6.753
 9365POPC   C3B55869   0.693  12.103   7.053
 9365POPC   C4B55870   0.709  12.142   7.353
 9366POPC   NC355871  40.013  22.922   5.553
 9366POPC   PO455872  40.028  22.973   5.853
 9366POPC   GL155873  40.037  22.940   6.153
 9366POPC   GL255874  40.028  23.032   6.153
 9366POPC   C1A55875  40.034  22.930   6.453
 9366POPC   D2A55876  40.022  22.934   6.753
 9366POPC   C3A55877  39.996  22.914   7.053
 9366POPC   C4A55878  40.006  22.890   7.353
 9366POPC   C1B55879  39.962  23.220   6.453
 9366POPC   C2B55880  39.930  23.201   6.753
 9366POPC   C3B55881  39.962  23.183   7.053
 9366POPC   C4B55882  39.981  23.227   7.353
 9367POPC   NC355883  14.419  26.065   5.553
 9367POPC   PO455884  14.452  26.044   5.853
 9367POPC   GL155885  14.361  26.008   6.153
 9367POPC   GL255886  14.388  25.911   6.153
 9367POPC   C1A55887  14.416  26.001   6.453
 9367POPC   D2A55888  14.357  26.025   6.753
 9367POPC   C3A55889  14.369  26.021   7.053
 9367POPC   C4A55890  14.385  26.023   7.353
 9367POPC   C1B55891  14.353  25.818   6.453
 9367POPC   C2B55892  14.341  25.776   6.753
 9367POPC   C3B55893  14.336  25.815   7.053
 9367POPC   C4B55894  14.399  25.846   7.353
 9368POPC   NC355895   7.376  32.206   5.553
 9368POPC   PO455896   7.470  32.251   5.853
 9368POPC   GL155897   7.409  32.240   6.153
 9368POPC   GL255898   7.298  32.358   6.153
 9368POPC   C1A55899   7.391  32.272   6.453
 9368POPC   D2A55900   7.446  32.208   6.753
 9368POPC   C3A55901   7.454  32.278   7.053
 9368POPC   C4A55902   7.396  32.291   7.353
 9368POPC   C1B55903   7.274  32.369   6.453
 9368POPC   C2B55904   7.270  32.388   6.753
 9368POPC   C3B55905   7.198  32.415   7.053
 9368POPC   C4B55906   7.267  32.409   7.353
 9369POPC   NC355907  39.967   8.182   5.553
 9369POPC   PO455908  40.050   8.160   5.853
 9369POPC   GL155909  39.966   8.206   6.153
 9369POPC   GL255910  40.131   8.072   6.153
 9369POPC   C1A55911  40.042   8.203   6.453
 9369POPC   D2A55912  40.043   8.240   6.753
 9369POPC   C3A55913  39.998   8.157   7.053
 9369POPC   C4A55914  40.042   8.188   7.353
 9369POPC   C1B55915  40.171   7.978   6.453
 9369POPC   C2B55916  40.160   7.990   6.753
 9369POPC   C3B55917  40.178   8.011   7.053
 9369POPC   C4B55918  40.140   7.982   7.353
 9370POPC   NC355919  38.476   8.214   5.553
 9370POPC   PO455920  38.453   8.210   5.853
 9370POPC   GL155921  38.445   8.230   6.153
 9370POPC   GL255922  38.604   8.189   6.153
 9370POPC   C1A55923  38.475   8.215   6.453
 9370POPC   D2A55924  38.466   8.204   6.753
 9370POPC   C3A55925  38.470   8.186   7.053
 9370POPC   C4A55926  38.441   8.214   7.353
 9370POPC   C1B55927  38.732   8.236   6.453
 9370POPC   C2B55928  38.747   8.209   6.753
 9370POPC   C3B55929  38.709   8.198   7.053
 9370POPC   C4B55930  38.689   8.200   7.353
 9371POPC   NC355931   5.126   7.462   5.553
 9371POPC   PO455932   5.095   7.431   5.853
 9371POPC   GL155933   5.086   7.401   6.153
 9371POPC   GL255934   5.145   7.332   6.153
 9371POPC   C1A55935   5.060   7.385   6.453
 9371POPC   D2A55936   5.080   7.450   6.753
 9371POPC   C3A55937   5.096   7.449   7.053
 9371POPC   C4A55938   5.104   7.466   7.353
 9371POPC   C1B55939   5.106   7.135   6.453
 9371POPC   C2B55940   5.184   7.159   6.753
 9371POPC   C3B55941   5.179   7.144   7.053
 9371POPC   C4B55942   5.164   7.178   7.353
 9372POPC   NC355943  31.507  42.312   5.553
 9372POPC   PO455944  31.485  42.349   5.853
 9372POPC   GL155945  31.491  42.370   6.153
 9372POPC   GL255946  31.579  42.379   6.153
 9372POPC   C1A55947  31.499  42.307   6.453
 9372POPC   D2A55948  31.435  42.299   6.753
 9372POPC   C3A55949  31.427  42.304   7.053
 9372POPC   C4A55950  31.475  42.314   7.353
 9372POPC   C1B55951  31.742  42.406   6.453
 9372POPC   C2B55952  31.734  42.464   6.753
 9372POPC   C3B55953  31.717  42.442   7.053
 9372POPC   C4B55954  31.674  42.406   7.353
 9373POPC   NC355955  15.959   9.758   5.553
 9373POPC   PO455956  15.969   9.751   5.853
 9373POPC   GL155957  15.958   9.728   6.153
 9373POPC   GL255958  15.848   9.872   6.153
 9373POPC   C1A55959  15.994   9.758   6.453
 9373POPC   D2A55960  15.982   9.775   6.753
 9373POPC   C3A55961  15.906   9.776   7.053
 9373POPC   C4A55962  15.996   9.743   7.353
 9373POPC   C1B55963  15.823   9.967   6.453
 9373POPC   C2B55964  15.789   9.947   6.753
 9373POPC   C3B55965  15.808   9.971   7.053
 9373POPC   C4B55966  15.855   9.976   7.353
 9374POPC   NC355967  15.990  35.339   5.553
 9374POPC   PO455968  15.971  35.351   5.853
 9374POPC   GL155969  16.001  35.307   6.153
 9374POPC   GL255970  16.072  35.322   6.153
 9374POPC   C1A55971  15.926  35.351   6.453
 9374POPC   D2A55972  15.946  35.342   6.753
 9374POPC   C3A55973  15.933  35.318   7.053
 9374POPC   C4A55974  15.913  35.388   7.353
 9374POPC   C1B55975  16.187  35.376   6.453
 9374POPC   C2B55976  16.203  35.394   6.753
 9374POPC   C3B55977  16.214  35.369   7.053
 9374POPC   C4B55978  16.225  35.367   7.353
 9375POPC   NC355979  41.518   8.979   5.553
 9375POPC   PO455980  41.530   8.941   5.853
 9375POPC   GL155981  41.557   8.966   6.153
 9375POPC   GL255982  41.603   9.077   6.153
 9375POPC   C1A55983  41.546   8.958   6.453
 9375POPC   D2A55984  41.580   9.003   6.753
 9375POPC   C3A55985  41.563   8.990   7.053
 9375POPC   C4A55986  41.601   8.927   7.353
 9375POPC   C1B55987  41.680   9.138   6.453
 9375POPC   C2B55988  41.755   9.181   6.753
 9375POPC   C3B55989  41.677   9.182   7.053
 9375POPC   C4B55990  41.720   9.111   7.353
 9376POPC   NC355991  35.349  15.132   5.553
 9376POPC   PO455992  35.396  15.206   5.853
 9376POPC   GL155993  35.329  15.215   6.153
 9376POPC   GL255994  35.257  15.042   6.153
 9376POPC   C1A55995  35.326  15.203   6.453
 9376POPC   D2A55996  35.313  15.226   6.753
 9376POPC   C3A55997  35.391  15.168   7.053
 9376POPC   C4A55998  35.355  15.158   7.353
 9376POPC   C1B55999  35.267  14.947   6.453
 9376POPC   C2B56000  35.266  14.973   6.753
 9376POPC   C3B56001  35.195  14.954   7.053
 9376POPC   C4B56002  35.254  15.011   7.353
 9377POPC   NC356003  16.774  22.177   5.553
 9377POPC   PO456004  16.692  22.189   5.853
 9377POPC   GL156005  16.718  22.117   6.153
 9377POPC   GL256006  16.791  22.231   6.153
 9377POPC   C1A56007  16.748  22.194   6.453
 9377POPC   D2A56008  16.773  22.201   6.753
 9377POPC   C3A56009  16.755  22.177   7.053
 9377POPC   C4A56010  16.743  22.121   7.353
 9377POPC   C1B56011  16.873  22.322   6.453
 9377POPC   C2B56012  16.864  22.411   6.753
 9377POPC   C3B56013  16.839  22.323   7.053
 9377POPC   C4B56014  16.843  22.354   7.353
 9378POPC   NC356015   3.543  41.531   5.553
 9378POPC   PO456016   3.507  41.550   5.853
 9378POPC   GL156017   3.505  41.554   6.153
 9378POPC   GL256018   3.654  41.512   6.153
 9378POPC   C1A56019   3.585  41.577   6.453
 9378POPC   D2A56020   3.549  41.525   6.753
 9378POPC   C3A56021   3.564  41.519   7.053
 9378POPC   C4A56022   3.573  41.534   7.353
 9378POPC   C1B56023   3.794  41.442   6.453
 9378POPC   C2B56024   3.723  41.414   6.753
 9378POPC   C3B56025   3.754  41.424   7.053
 9378POPC   C4B56026   3.732  41.471   7.353
 9379POPC   NC356027  15.934  17.551   5.553
 9379POPC   PO456028  15.957  17.480   5.853
 9379POPC   GL156029  15.995  17.495   6.153
 9379POPC   GL256030  16.078  17.508   6.153
 9379POPC   C1A56031  15.992  17.486   6.453
 9379POPC   D2A56032  15.955  17.478   6.753
 9379POPC   C3A56033  15.917  17.458   7.053
 9379POPC   C4A56034  15.999  17.545   7.353
 9379POPC   C1B56035  16.244  17.530   6.453
 9379POPC   C2B56036  16.155  17.599   6.753
 9379POPC   C3B56037  16.231  17.517   7.053
 9379POPC   C4B56038  16.171  17.578   7.353
 9380POPC   NC356039  25.300  44.675   5.553
 9380POPC   PO456040  25.289  44.642   5.853
 9380POPC   GL156041  25.294  44.642   6.153
 9380POPC   GL256042  25.398  44.614   6.153
 9380POPC   C1A56043  25.298  44.680   6.453
 9380POPC   D2A56044  25.220  44.648   6.753
 9380POPC   C3A56045  25.242  44.627   7.053
 9380POPC   C4A56046  25.266  44.647   7.353
 9380POPC   C1B56047  25.510  44.537   6.453
 9380POPC   C2B56048  25.518  44.557   6.753
 9380POPC   C3B56049  25.518  44.598   7.053
 9380POPC   C4B56050  25.470  44.619   7.353
 9381POPC   NC356051  29.117   1.189   5.553
 9381POPC   PO456052  29.183   1.189   5.853
 9381POPC   GL156053  29.102   1.210   6.153
 9381POPC   GL256054  29.128   1.299   6.153
 9381POPC   C1A56055  29.174   1.184   6.453
 9381POPC   D2A56056  29.153   1.249   6.753
 9381POPC   C3A56057  29.100   1.189   7.053
 9381POPC   C4A56058  29.125   1.225   7.353
 9381POPC   C1B56059  29.112   1.483   6.453
 9381POPC   C2B56060  29.080   1.482   6.753
 9381POPC   C3B56061  29.087   1.413   7.053
 9381POPC   C4B56062  29.148   1.437   7.353
 9382POPC   NC356063  13.647  10.556   5.553
 9382POPC   PO456064  13.667  10.545   5.853
 9382POPC   GL156065  13.619  10.563   6.153
 9382POPC   GL256066  13.481  10.587   6.153
 9382POPC   C1A56067  13.635  10.534   6.453
 9382POPC   D2A56068  13.668  10.516   6.753
 9382POPC   C3A56069  13.631  10.489   7.053
 9382POPC   C4A56070  13.639  10.482   7.353
 9382POPC   C1B56071  13.435  10.553   6.453
 9382POPC   C2B56072  13.375  10.605   6.753
 9382POPC   C3B56073  13.386  10.649   7.053
 9382POPC   C4B56074  13.436  10.649   7.353
 9383POPC   NC356075  22.157  19.797   5.553
 9383POPC   PO456076  22.127  19.879   5.853
 9383POPC   GL156077  22.203  19.826   6.153
 9383POPC   GL256078  22.181  19.957   6.153
 9383POPC   C1A56079  22.173  19.831   6.453
 9383POPC   D2A56080  22.126  19.827   6.753
 9383POPC   C3A56081  22.151  19.809   7.053
 9383POPC   C4A56082  22.195  19.865   7.353
 9383POPC   C1B56083  22.175  20.074   6.453
 9383POPC   C2B56084  22.239  20.051   6.753
 9383POPC   C3B56085  22.237  20.101   7.053
 9383POPC   C4B56086  22.210  20.063   7.353
 9384POPC   NC356087  11.307   9.746   5.553
 9384POPC   PO456088  11.257   9.701   5.853
 9384POPC   GL156089  11.330   9.711   6.153
 9384POPC   GL256090  11.374   9.861   6.153
 9384POPC   C1A56091  11.283   9.744   6.453
 9384POPC   D2A56092  11.324   9.767   6.753
 9384POPC   C3A56093  11.321   9.718   7.053
 9384POPC   C4A56094  11.294   9.746   7.353
 9384POPC   C1B56095  11.502   9.953   6.453
 9384POPC   C2B56096  11.464   9.977   6.753
 9384POPC   C3B56097  11.484   9.912   7.053
 9384POPC   C4B56098  11.496   9.922   7.353
 9385POPC   NC356099  15.924   3.553   5.553
 9385POPC   PO456100  15.978   3.513   5.853
 9385POPC   GL156101  15.974   3.514   6.153
 9385POPC   GL256102  16.054   3.656   6.153
 9385POPC   C1A56103  15.925   3.591   6.453
 9385POPC   D2A56104  15.955   3.584   6.753
 9385POPC   C3A56105  15.983   3.512   7.053
 9385POPC   C4A56106  15.967   3.572   7.353
 9385POPC   C1B56107  16.171   3.733   6.453
 9385POPC   C2B56108  16.130   3.671   6.753
 9385POPC   C3B56109  16.205   3.664   7.053
 9385POPC   C4B56110  16.111   3.662   7.353
 9386POPC   NC356111  23.670  19.807   5.553
 9386POPC   PO456112  23.764  19.805   5.853
 9386POPC   GL156113  23.686  19.825   6.153
 9386POPC   GL256114  23.827  19.830   6.153
 9386POPC   C1A56115  23.706  19.795   6.453
 9386POPC   D2A56116  23.710  19.810   6.753
 9386POPC   C3A56117  23.742  19.828   7.053
 9386POPC   C4A56118  23.707  19.882   7.353
 9386POPC   C1B56119  23.983  19.837   6.453
 9386POPC   C2B56120  23.973  19.859   6.753
 9386POPC   C3B56121  23.946  19.903   7.053
 9386POPC   C4B56122  23.923  19.871   7.353
 9387POPC   NC356123   1.250  25.284   5.553
 9387POPC   PO456124   1.187  25.241   5.853
 9387POPC   GL156125   1.188  25.227   6.153
 9387POPC   GL256126   1.206  25.404   6.153
 9387POPC   C1A56127   1.215  25.226   6.453
 9387POPC   D2A56128   1.220  25.270   6.753
 9387POPC   C3A56129   1.177  25.239   7.053
 9387POPC   C4A56130   1.231  25.262   7.353
 9387POPC   C1B56131   1.110  25.533   6.453
 9387POPC   C2B56132   1.203  25.538   6.753
 9387POPC   C3B56133   1.171  25.498   7.053
 9387POPC   C4B56134   1.174  25.466   7.353
 9388POPC   NC356135  33.751  34.598   5.553
 9388POPC   PO456136  33.760  34.541   5.853
 9388POPC   GL156137  33.772  34.626   6.153
 9388POPC   GL256138  33.699  34.481   6.153
 9388POPC   C1A56139  33.787  34.609   6.453
 9388POPC   D2A56140  33.834  34.617   6.753
 9388POPC   C3A56141  33.752  34.601   7.053
 9388POPC   C4A56142  33.843  34.580   7.353
 9388POPC   C1B56143  33.553  34.417   6.453
 9388POPC   C2B56144  33.564  34.406   6.753
 9388POPC   C3B56145  33.573  34.399   7.053
 9388POPC   C4B56146  33.618  34.400   7.353
 9389POPC   NC356147  43.069  22.945   5.553
 9389POPC   PO456148  43.062  22.972   5.853
 9389POPC   GL156149  43.159  22.946   6.153
 9389POPC   GL256150  42.976  22.970   6.153
 9389POPC   C1A56151  43.119  22.922   6.453
 9389POPC   D2A56152  43.078  22.975   6.753
 9389POPC   C3A56153  43.143  22.927   7.053
 9389POPC   C4A56154  43.107  22.945   7.353
 9389POPC   C1B56155  42.879  23.000   6.453
 9389POPC   C2B56156  42.833  22.962   6.753
 9389POPC   C3B56157  42.911  22.911   7.053
 9389POPC   C4B56158  42.811  22.979   7.353
 9390POPC   NC356159   4.270  43.121   5.553
 9390POPC   PO456160   4.283  43.140   5.853
 9390POPC   GL156161   4.317  43.105   6.153
 9390POPC   GL256162   4.409  43.068   6.153
 9390POPC   C1A56163   4.320  43.114   6.453
 9390POPC   D2A56164   4.317  43.086   6.753
 9390POPC   C3A56165   4.285  43.119   7.053
 9390POPC   C4A56166   4.354  43.090   7.353
 9390POPC   C1B56167   4.552  42.975   6.453
 9390POPC   C2B56168   4.568  43.046   6.753
 9390POPC   C3B56169   4.536  43.057   7.053
 9390POPC   C4B56170   4.582  43.047   7.353
 9391POPC   NC356171  14.404  11.342   5.553
 9391POPC   PO456172  14.375  11.314   5.853
 9391POPC   GL156173  14.382  11.305   6.153
 9391POPC   GL256174  14.383  11.207   6.153
 9391POPC   C1A56175  14.356  11.258   6.453
 9391POPC   D2A56176  14.418  11.289   6.753
 9391POPC   C3A56177  14.381  11.276   7.053
 9391POPC   C4A56178  14.426  11.317   7.353
 9391POPC   C1B56179  14.398  11.021   6.453
 9391POPC   C2B56180  14.384  11.011   6.753
 9391POPC   C3B56181  14.389  11.003   7.053
 9391POPC   C4B56182  14.411  11.036   7.353
 9392POPC   NC356183  35.353   6.645   5.553
 9392POPC   PO456184  35.362   6.669   5.853
 9392POPC   GL156185  35.395   6.642   6.153
 9392POPC   GL256186  35.236   6.697   6.153
 9392POPC   C1A56187  35.341   6.644   6.453
 9392POPC   D2A56188  35.327   6.659   6.753
 9392POPC   C3A56189  35.392   6.642   7.053
 9392POPC   C4A56190  35.335   6.617   7.353
 9392POPC   C1B56191  35.108   6.668   6.453
 9392POPC   C2B56192  35.159   6.760   6.753
 9392POPC   C3B56193  35.147   6.690   7.053
 9392POPC   C4B56194  35.111   6.746   7.353
 9393POPC   NC356195   7.373  22.197   5.553
 9393POPC   PO456196   7.429  22.187   5.853
 9393POPC   GL156197   7.401  22.152   6.153
 9393POPC   GL256198   7.291  22.217   6.153
 9393POPC   C1A56199   7.460  22.130   6.453
 9393POPC   D2A56200   7.444  22.191   6.753
 9393POPC   C3A56201   7.437  22.142   7.053
 9393POPC   C4A56202   7.444  22.167   7.353
 9393POPC   C1B56203   7.247  22.262   6.453
 9393POPC   C2B56204   7.200  22.346   6.753
 9393POPC   C3B56205   7.221  22.335   7.053
 9393POPC   C4B56206   7.187  22.308   7.353
 9394POPC   NC356207  21.358  33.073   5.553
 9394POPC   PO456208  21.367  33.052   5.853
 9394POPC   GL156209  21.371  33.049   6.153
 9394POPC   GL256210  21.420  33.126   6.153
 9394POPC   C1A56211  21.371  32.994   6.453
 9394POPC   D2A56212  21.421  33.065   6.753
 9394POPC   C3A56213  21.350  33.071   7.053
 9394POPC   C4A56214  21.359  33.025   7.353
 9394POPC   C1B56215  21.400  33.300   6.453
 9394POPC   C2B56216  21.436  33.315   6.753
 9394POPC   C3B56217  21.411  33.252   7.053
 9394POPC   C4B56218  21.364  33.316   7.353
 9395POPC   NC356219  15.958  16.746   5.553
 9395POPC   PO456220  15.959  16.741   5.853
 9395POPC   GL156221  15.941  16.695   6.153
 9395POPC   GL256222  15.895  16.780   6.153
 9395POPC   C1A56223  15.977  16.738   6.453
 9395POPC   D2A56224  15.976  16.778   6.753
 9395POPC   C3A56225  15.984  16.748   7.053
 9395POPC   C4A56226  15.952  16.777   7.353
 9395POPC   C1B56227  15.734  16.839   6.453
 9395POPC   C2B56228  15.766  16.850   6.753
 9395POPC   C3B56229  15.773  16.932   7.053
 9395POPC   C4B56230  15.780  16.925   7.353
 9396POPC   NC356231  36.169  19.053   5.553
 9396POPC   PO456232  36.118  19.033   5.853
 9396POPC   GL156233  36.115  19.053   6.153
 9396POPC   GL256234  36.074  19.159   6.153
 9396POPC   C1A56235  36.169  19.065   6.453
 9396POPC   D2A56236  36.149  19.047   6.753
 9396POPC   C3A56237  36.103  19.092   7.053
 9396POPC   C4A56238  36.137  19.050   7.353
 9396POPC   C1B56239  35.891  19.245   6.453
 9396POPC   C2B56240  35.894  19.227   6.753
 9396POPC   C3B56241  35.900  19.230   7.053
 9396POPC   C4B56242  35.953  19.216   7.353
 9397POPC   NC356243  42.345  25.275   5.553
 9397POPC   PO456244  42.383  25.313   5.853
 9397POPC   GL156245  42.318  25.248   6.153
 9397POPC   GL256246  42.217  25.155   6.153
 9397POPC   C1A56247  42.368  25.243   6.453
 9397POPC   D2A56248  42.331  25.235   6.753
 9397POPC   C3A56249  42.379  25.235   7.053
 9397POPC   C4A56250  42.351  25.257   7.353
 9397POPC   C1B56251  42.143  25.095   6.453
 9397POPC   C2B56252  42.103  25.164   6.753
 9397POPC   C3B56253  42.133  25.134   7.053
 9397POPC   C4B56254  42.088  25.096   7.353
 9398POPC   NC356255  33.842  14.388   5.553
 9398POPC   PO456256  33.824  14.378   5.853
 9398POPC   GL156257  33.775  14.405   6.153
 9398POPC   GL256258  33.760  14.313   6.153
 9398POPC   C1A56259  33.831  14.429   6.453
 9398POPC   D2A56260  33.759  14.359   6.753
 9398POPC   C3A56261  33.836  14.354   7.053
 9398POPC   C4A56262  33.782  14.374   7.353
 9398POPC   C1B56263  33.656  14.206   6.453
 9398POPC   C2B56264  33.663  14.151   6.753
 9398POPC   C3B56265  33.686  14.235   7.053
 9398POPC   C4B56266  33.638  14.232   7.353
 9399POPC   NC356267  30.657  43.869   5.553
 9399POPC   PO456268  30.654  43.893   5.853
 9399POPC   GL156269  30.729  43.917   6.153
 9399POPC   GL256270  30.803  43.992   6.153
 9399POPC   C1A56271  30.662  43.886   6.453
 9399POPC   D2A56272  30.708  43.855   6.753
 9399POPC   C3A56273  30.736  43.871   7.053
 9399POPC   C4A56274  30.680  43.839   7.353
 9399POPC   C1B56275  30.937  44.045   6.453
 9399POPC   C2B56276  30.854  44.095   6.753
 9399POPC   C3B56277  30.902  44.028   7.053
 9399POPC   C4B56278  30.863  44.082   7.353
 9400POPC   NC356279  41.524  41.526   5.553
 9400POPC   PO456280  41.513  41.571   5.853
 9400POPC   GL156281  41.603  41.512   6.153
 9400POPC   GL256282  41.672  41.495   6.153
 9400POPC   C1A56283  41.559  41.561   6.453
 9400POPC   D2A56284  41.531  41.607   6.753
 9400POPC   C3A56285  41.520  41.586   7.053
 9400POPC   C4A56286  41.556  41.575   7.353
 9400POPC   C1B56287  41.791  41.400   6.453
 9400POPC   C2B56288  41.768  41.399   6.753
 9400POPC   C3B56289  41.737  41.425   7.053
 9400POPC   C4B56290  41.735  41.375   7.353
 9401POPC   NC356291   7.374  44.699   5.553
 9401POPC   PO456292   7.460  44.682   5.853
 9401POPC   GL156293   7.419  44.652   6.153
 9401POPC   GL256294   7.336  44.581   6.153
 9401POPC   C1A56295   7.414  44.657   6.453
 9401POPC   D2A56296   7.389  44.634   6.753
 9401POPC   C3A56297   7.392  44.652   7.053
 9401POPC   C4A56298   7.444  44.621   7.353
 9401POPC   C1B56299   7.272  44.507   6.453
 9401POPC   C2B56300   7.196  44.488   6.753
 9401POPC   C3B56301   7.225  44.522   7.053
 9401POPC   C4B56302   7.247  44.478   7.353
 9402POPC   NC356303   6.676  16.759   5.553
 9402POPC   PO456304   6.596  16.761   5.853
 9402POPC   GL156305   6.683  16.686   6.153
 9402POPC   GL256306   6.592  16.631   6.153
 9402POPC   C1A56307   6.630  16.744   6.453
 9402POPC   D2A56308   6.611  16.683   6.753
 9402POPC   C3A56309   6.628  16.738   7.053
 9402POPC   C4A56310   6.599  16.739   7.353
 9402POPC   C1B56311   6.578  16.474   6.453
 9402POPC   C2B56312   6.568  16.452   6.753
 9402POPC   C3B56313   6.640  16.506   7.053
 9402POPC   C4B56314   6.590  16.467   7.353
 9403POPC   NC356315   8.176   0.472   5.553
 9403POPC   PO456316   8.186   0.459   5.853
 9403POPC   GL156317   8.167   0.391   6.153
 9403POPC   GL256318   8.289   0.334   6.153
 9403POPC   C1A56319   8.219   0.410   6.453
 9403POPC   D2A56320   8.163   0.424   6.753
 9403POPC   C3A56321   8.205   0.415   7.053
 9403POPC   C4A56322   8.169   0.397   7.353
 9403POPC   C1B56323   8.382   0.274   6.453
 9403POPC   C2B56324   8.424   0.339   6.753
 9403POPC   C3B56325   8.463   0.351   7.053
 9403POPC   C4B56326   8.467   0.329   7.353
 9404POPC   NC356327  42.360  28.419   5.553
 9404POPC   PO456328  42.371  28.321   5.853
 9404POPC   GL156329  42.295  28.377   6.153
 9404POPC   GL256330  42.214  28.459   6.153
 9404POPC   C1A56331  42.383  28.354   6.453
 9404POPC   D2A56332  42.359  28.417   6.753
 9404POPC   C3A56333  42.294  28.411   7.053
 9404POPC   C4A56334  42.310  28.405   7.353
 9404POPC   C1B56335  42.195  28.536   6.453
 9404POPC   C2B56336  42.123  28.536   6.753
 9404POPC   C3B56337  42.173  28.558   7.053
 9404POPC   C4B56338  42.184  28.508   7.353
 9405POPC   NC356339   1.173  40.777   5.553
 9405POPC   PO456340   1.191  40.789   5.853
 9405POPC   GL156341   1.233  40.787   6.153
 9405POPC   GL256342   1.228  40.864   6.153
 9405POPC   C1A56343   1.164  40.815   6.453
 9405POPC   D2A56344   1.210  40.747   6.753
 9405POPC   C3A56345   1.211  40.738   7.053
 9405POPC   C4A56346   1.223  40.760   7.353
 9405POPC   C1B56347   1.179  41.011   6.453
 9405POPC   C2B56348   1.218  41.062   6.753
 9405POPC   C3B56349   1.171  41.067   7.053
 9405POPC   C4B56350   1.227  40.987   7.353
 9406POPC   NC356351  38.470  26.088   5.553
 9406POPC   PO456352  38.426  26.086   5.853
 9406POPC   GL156353  38.470  25.997   6.153
 9406POPC   GL256354  38.527  26.136   6.153
 9406POPC   C1A56355  38.485  26.052   6.453
 9406POPC   D2A56356  38.430  26.023   6.753
 9406POPC   C3A56357  38.417  26.011   7.053
 9406POPC   C4A56358  38.462  26.022   7.353
 9406POPC   C1B56359  38.609  26.175   6.453
 9406POPC   C2B56360  38.638  26.237   6.753
 9406POPC   C3B56361  38.639  26.202   7.053
 9406POPC   C4B56362  38.616  26.199   7.353
 9407POPC   NC356363  41.553  16.739   5.553
 9407POPC   PO456364  41.607  16.762   5.853
 9407POPC   GL156365  41.575  16.701   6.153
 9407POPC   GL256366  41.696  16.748   6.153
 9407POPC   C1A56367  41.541  16.692   6.453
 9407POPC   D2A56368  41.584  16.759   6.753
 9407POPC   C3A56369  41.517  16.748   7.053
 9407POPC   C4A56370  41.548  16.739   7.353
 9407POPC   C1B56371  41.789  16.758   6.453
 9407POPC   C2B56372  41.793  16.716   6.753
 9407POPC   C3B56373  41.857  16.753   7.053
 9407POPC   C4B56374  41.785  16.754   7.353
 9408POPC   NC356375  43.142  19.785   5.553
 9408POPC   PO456376  43.119  19.818   5.853
 9408POPC   GL156377  43.139  19.824   6.153
 9408POPC   GL256378  42.943  19.765   6.153
 9408POPC   C1A56379  43.119  19.806   6.453
 9408POPC   D2A56380  43.148  19.831   6.753
 9408POPC   C3A56381  43.110  19.831   7.053
 9408POPC   C4A56382  43.105  19.846   7.353
 9408POPC   C1B56383  42.904  19.725   6.453
 9408POPC   C2B56384  42.873  19.780   6.753
 9408POPC   C3B56385  42.823  19.798   7.053
 9408POPC   C4B56386  42.879  19.797   7.353
 9409POPC   NC356387  36.922  17.533   5.553
 9409POPC   PO456388  36.926  17.521   5.853
 9409POPC   GL156389  36.940  17.549   6.153
 9409POPC   GL256390  36.847  17.629   6.153
 9409POPC   C1A56391  36.854  17.541   6.453
 9409POPC   D2A56392  36.920  17.535   6.753
 9409POPC   C3A56393  36.924  17.481   7.053
 9409POPC   C4A56394  36.949  17.540   7.353
 9409POPC   C1B56395  36.743  17.676   6.453
 9409POPC   C2B56396  36.756  17.703   6.753
 9409POPC   C3B56397  36.724  17.711   7.053
 9409POPC   C4B56398  36.705  17.660   7.353
 9410POPC   NC356399  32.200  42.287   5.553
 9410POPC   PO456400  32.284  42.361   5.853
 9410POPC   GL156401  32.211  42.321   6.153
 9410POPC   GL256402  32.151  42.445   6.153
 9410POPC   C1A56403  32.205  42.310   6.453
 9410POPC   D2A56404  32.205  42.373   6.753
 9410POPC   C3A56405  32.297  42.380   7.053
 9410POPC   C4A56406  32.282  42.360   7.353
 9410POPC   C1B56407  32.032  42.486   6.453
 9410POPC   C2B56408  32.050  42.480   6.753
 9410POPC   C3B56409  32.081  42.564   7.053
 9410POPC   C4B56410  32.080  42.553   7.353
 9411POPC   NC356411  16.708  39.238   5.553
 9411POPC   PO456412  16.776  39.209   5.853
 9411POPC   GL156413  16.733  39.187   6.153
 9411POPC   GL256414  16.637  39.193   6.153
 9411POPC   C1A56415  16.685  39.249   6.453
 9411POPC   D2A56416  16.751  39.205   6.753
 9411POPC   C3A56417  16.688  39.219   7.053
 9411POPC   C4A56418  16.765  39.228   7.353
 9411POPC   C1B56419  16.471  39.191   6.453
 9411POPC   C2B56420  16.443  39.141   6.753
 9411POPC   C3B56421  16.509  39.159   7.053
 9411POPC   C4B56422  16.489  39.145   7.353
 9412POPC   NC356423  15.952  19.077   5.553
 9412POPC   PO456424  15.934  19.021   5.853
 9412POPC   GL156425  15.929  19.068   6.153
 9412POPC   GL256426  16.087  18.985   6.153
 9412POPC   C1A56427  15.948  19.058   6.453
 9412POPC   D2A56428  15.978  19.058   6.753
 9412POPC   C3A56429  15.926  19.039   7.053
 9412POPC   C4A56430  15.915  19.064   7.353
 9412POPC   C1B56431  16.121  18.890   6.453
 9412POPC   C2B56432  16.138  18.955   6.753
 9412POPC   C3B56433  16.192  18.913   7.053
 9412POPC   C4B56434  16.134  18.883   7.353
 9413POPC   NC356435  27.564  40.829   5.553
 9413POPC   PO456436  27.623  40.773   5.853
 9413POPC   GL156437  27.608  40.762   6.153
 9413POPC   GL256438  27.509  40.911   6.153
 9413POPC   C1A56439  27.578  40.816   6.453
 9413POPC   D2A56440  27.599  40.760   6.753
 9413POPC   C3A56441  27.643  40.742   7.053
 9413POPC   C4A56442  27.599  40.797   7.353
 9413POPC   C1B56443  27.409  40.989   6.453
 9413POPC   C2B56444  27.487  40.977   6.753
 9413POPC   C3B56445  27.447  41.031   7.053
 9413POPC   C4B56446  27.495  40.993   7.353
 9414POPC   NC356447  40.825  23.691   5.553
 9414POPC   PO456448  40.825  23.764   5.853
 9414POPC   GL156449  40.794  23.719   6.153
 9414POPC   GL256450  40.848  23.743   6.153
 9414POPC   C1A56451  40.823  23.705   6.453
 9414POPC   D2A56452  40.786  23.753   6.753
 9414POPC   C3A56453  40.788  23.732   7.053
 9414POPC   C4A56454  40.799  23.758   7.353
 9414POPC   C1B56455  40.935  23.840   6.453
 9414POPC   C2B56456  40.937  23.865   6.753
 9414POPC   C3B56457  40.979  23.861   7.053
 9414POPC   C4B56458  41.012  23.852   7.353
 9415POPC   NC356459  40.795  26.070   5.553
 9415POPC   PO456460  40.739  26.014   5.853
 9415POPC   GL156461  40.733  26.019   6.153
 9415POPC   GL256462  40.889  26.137   6.153
 9415POPC   C1A56463  40.799  26.014   6.453
 9415POPC   D2A56464  40.814  26.036   6.753
 9415POPC   C3A56465  40.794  26.067   7.053
 9415POPC   C4A56466  40.804  26.011   7.353
 9415POPC   C1B56467  40.969  26.248   6.453
 9415POPC   C2B56468  40.900  26.242   6.753
 9415POPC   C3B56469  40.946  26.189   7.053
 9415POPC   C4B56470  40.921  26.275   7.353
 9416POPC   NC356471  12.802  16.727   5.553
 9416POPC   PO456472  12.817  16.749   5.853
 9416POPC   GL156473  12.884  16.766   6.153
 9416POPC   GL256474  12.872  16.632   6.153
 9416POPC   C1A56475  12.872  16.684   6.453
 9416POPC   D2A56476  12.811  16.775   6.753
 9416POPC   C3A56477  12.894  16.754   7.053
 9416POPC   C4A56478  12.871  16.762   7.353
 9416POPC   C1B56479  12.884  16.505   6.453
 9416POPC   C2B56480  12.918  16.528   6.753
 9416POPC   C3B56481  12.863  16.526   7.053
 9416POPC   C4B56482  12.934  16.501   7.353
 9417POPC   NC356483  18.307   7.442   5.553
 9417POPC   PO456484  18.264   7.416   5.853
 9417POPC   GL156485  18.326   7.448   6.153
 9417POPC   GL256486  18.209   7.548   6.153
 9417POPC   C1A56487  18.245   7.458   6.453
 9417POPC   D2A56488  18.322   7.471   6.753
 9417POPC   C3A56489  18.314   7.427   7.053
 9417POPC   C4A56490  18.272   7.461   7.353
 9417POPC   C1B56491  18.155   7.625   6.453
 9417POPC   C2B56492  18.176   7.646   6.753
 9417POPC   C3B56493  18.209   7.650   7.053
 9417POPC   C4B56494  18.127   7.670   7.353
 9418POPC   NC356495  26.795  38.459   5.553
 9418POPC   PO456496  26.824  38.483   5.853
 9418POPC   GL156497  26.819  38.417   6.153
 9418POPC   GL256498  26.949  38.385   6.153
 9418POPC   C1A56499  26.799  38.417   6.453
 9418POPC   D2A56500  26.831  38.424   6.753
 9418POPC   C3A56501  26.858  38.446   7.053
 9418POPC   C4A56502  26.785  38.410   7.353
 9418POPC   C1B56503  27.072  38.416   6.453
 9418POPC   C2B56504  27.056  38.436   6.753
 9418POPC   C3B56505  27.110  38.401   7.053
 9418POPC   C4B56506  27.014  38.362   7.353
 9419POPC   NC356507  27.618  42.306   5.553
 9419POPC   PO456508  27.587  42.350   5.853
 9419POPC   GL156509  27.641  42.348   6.153
 9419POPC   GL256510  27.558  42.442   6.153
 9419POPC   C1A56511  27.572  42.357   6.453
 9419POPC   D2A56512  27.599  42.325   6.753
 9419POPC   C3A56513  27.587  42.321   7.053
 9419POPC   C4A56514  27.618  42.293   7.353
 9419POPC   C1B56515  27.552  42.561   6.453
 9419POPC   C2B56516  27.582  42.538   6.753
 9419POPC   C3B56517  27.612  42.546   7.053
 9419POPC   C4B56518  27.526  42.546   7.353
 9420POPC   NC356519  39.239   5.113   5.553
 9420POPC   PO456520  39.281   5.131   5.853
 9420POPC   GL156521  39.181   5.087   6.153
 9420POPC   GL256522  39.285   5.214   6.153
 9420POPC   C1A56523  39.187   5.066   6.453
 9420POPC   D2A56524  39.254   5.093   6.753
 9420POPC   C3A56525  39.274   5.045   7.053
 9420POPC   C4A56526  39.183   5.104   7.353
 9420POPC   C1B56527  39.320   5.274   6.453
 9420POPC   C2B56528  39.375   5.301   6.753
 9420POPC   C3B56529  39.315   5.292   7.053
 9420POPC   C4B56530  39.401   5.300   7.353
 9421POPC   NC356531  34.562  36.139   5.553
 9421POPC   PO456532  34.612  36.131   5.853
 9421POPC   GL156533  34.589  36.133   6.153
 9421POPC   GL256534  34.697  36.024   6.153
 9421POPC   C1A56535  34.553  36.165   6.453
 9421POPC   D2A56536  34.585  36.163   6.753
 9421POPC   C3A56537  34.542  36.140   7.053
 9421POPC   C4A56538  34.585  36.089   7.353
 9421POPC   C1B56539  34.737  35.992   6.453
 9421POPC   C2B56540  34.708  35.957   6.753
 9421POPC   C3B56541  34.710  35.992   7.053
 9421POPC   C4B56542  34.774  35.916   7.353
 9422POPC   NC356543  32.244  22.144   5.553
 9422POPC   PO456544  32.267  22.195   5.853
 9422POPC   GL156545  32.282  22.132   6.153
 9422POPC   GL256546  32.077  22.201   6.153
 9422POPC   C1A56547  32.281  22.129   6.453
 9422POPC   D2A56548  32.270  22.145   6.753
 9422POPC   C3A56549  32.203  22.166   7.053
 9422POPC   C4A56550  32.206  22.177   7.353
 9422POPC   C1B56551  31.968  22.173   6.453
 9422POPC   C2B56552  31.966  22.125   6.753
 9422POPC   C3B56553  32.003  22.151   7.053
 9422POPC   C4B56554  31.959  22.181   7.353
 9423POPC   NC356555  24.467  14.370   5.553
 9423POPC   PO456556  24.529  14.412   5.853
 9423POPC   GL156557  24.478  14.449   6.153
 9423POPC   GL256558  24.550  14.305   6.153
 9423POPC   C1A56559  24.471  14.386   6.453
 9423POPC   D2A56560  24.539  14.434   6.753
 9423POPC   C3A56561  24.534  14.428   7.053
 9423POPC   C4A56562  24.517  14.434   7.353
 9423POPC   C1B56563  24.706  14.275   6.453
 9423POPC   C2B56564  24.691  14.274   6.753
 9423POPC   C3B56565  24.748  14.266   7.053
 9423POPC   C4B56566  24.723  14.274   7.353
 9424POPC   NC356567  22.169  26.820   5.553
 9424POPC   PO456568  22.141  26.782   5.853
 9424POPC   GL156569  22.117  26.777   6.153
 9424POPC   GL256570  22.038  26.823   6.153
 9424POPC   C1A56571  22.193  26.798   6.453
 9424POPC   D2A56572  22.137  26.771   6.753
 9424POPC   C3A56573  22.200  26.865   7.053
 9424POPC   C4A56574  22.207  26.790   7.353
 9424POPC   C1B56575  21.968  26.743   6.453
 9424POPC   C2B56576  21.879  26.733   6.753
 9424POPC   C3B56577  21.957  26.777   7.053
 9424POPC   C4B56578  21.959  26.719   7.353
 9425POPC   NC356579  43.846  22.184   5.553
 9425POPC   PO456580  43.931  22.122   5.853
 9425POPC   GL156581  43.844  22.128   6.153
 9425POPC   GL256582  43.785  22.283   6.153
 9425POPC   C1A56583  43.849  22.202   6.453
 9425POPC   D2A56584  43.841  22.162   6.753
 9425POPC   C3A56585  43.878  22.185   7.053
 9425POPC   C4A56586  43.931  22.128   7.353
 9425POPC   C1B56587  43.658  22.280   6.453
 9425POPC   C2B56588  43.709  22.315   6.753
 9425POPC   C3B56589  43.722  22.279   7.053
 9425POPC   C4B56590  43.667  22.324   7.353
 9426POPC   NC356591   6.633  17.509   5.553
 9426POPC   PO456592   6.688  17.464   5.853
 9426POPC   GL156593   6.664  17.514   6.153
 9426POPC   GL256594   6.515  17.473   6.153
 9426POPC   C1A56595   6.684  17.461   6.453
 9426POPC   D2A56596   6.637  17.500   6.753
 9426POPC   C3A56597   6.617  17.462   7.053
 9426POPC   C4A56598   6.631  17.464   7.353
 9426POPC   C1B56599   6.422  17.472   6.453
 9426POPC   C2B56600   6.411  17.488   6.753
 9426POPC   C3B56601   6.434  17.435   7.053
 9426POPC   C4B56602   6.362  17.415   7.353
 9427POPC   NC356603  12.056  24.507   5.553
 9427POPC   PO456604  12.055  24.511   5.853
 9427POPC   GL156605  12.104  24.521   6.153
 9427POPC   GL256606  11.982  24.423   6.153
 9427POPC   C1A56607  12.074  24.535   6.453
 9427POPC   D2A56608  12.037  24.462   6.753
 9427POPC   C3A56609  12.107  24.503   7.053
 9427POPC   C4A56610  12.095  24.447   7.353
 9427POPC   C1B56611  11.858  24.421   6.453
 9427POPC   C2B56612  11.807  24.419   6.753
 9427POPC   C3B56613  11.875  24.382   7.053
 9427POPC   C4B56614  11.853  24.390   7.353
 9428POPC   NC356615  26.823  18.318   5.553
 9428POPC   PO456616  26.776  18.271   5.853
 9428POPC   GL156617  26.832  18.261   6.153
 9428POPC   GL256618  26.751  18.203   6.153
 9428POPC   C1A56619  26.772  18.309   6.453
 9428POPC   D2A56620  26.862  18.292   6.753
 9428POPC   C3A56621  26.799  18.295   7.053
 9428POPC   C4A56622  26.801  18.288   7.353
 9428POPC   C1B56623  26.719  18.051   6.453
 9428POPC   C2B56624  26.724  18.060   6.753
 9428POPC   C3B56625  26.730  18.072   7.053
 9428POPC   C4B56626  26.709  18.018   7.353
 9429POPC   NC356627  26.803  31.431   5.553
 9429POPC   PO456628  26.845  31.514   5.853
 9429POPC   GL156629  26.773  31.506   6.153
 9429POPC   GL256630  26.730  31.464   6.153
 9429POPC   C1A56631  26.811  31.461   6.453
 9429POPC   D2A56632  26.780  31.463   6.753
 9429POPC   C3A56633  26.854  31.478   7.053
 9429POPC   C4A56634  26.840  31.425   7.353
 9429POPC   C1B56635  26.577  31.575   6.453
 9429POPC   C2B56636  26.604  31.556   6.753
 9429POPC   C3B56637  26.550  31.509   7.053
 9429POPC   C4B56638  26.589  31.549   7.353
 9430POPC   NC356639  26.056  33.832   5.553
 9430POPC   PO456640  26.051  33.828   5.853
 9430POPC   GL156641  26.011  33.809   6.153
 9430POPC   GL256642  25.917  33.808   6.153
 9430POPC   C1A56643  26.038  33.829   6.453
 9430POPC   D2A56644  26.049  33.823   6.753
 9430POPC   C3A56645  26.047  33.774   7.053
 9430POPC   C4A56646  26.030  33.788   7.353
 9430POPC   C1B56647  25.837  33.838   6.453
 9430POPC   C2B56648  25.843  33.854   6.753
 9430POPC   C3B56649  25.811  33.832   7.053
 9430POPC   C4B56650  25.804  33.841   7.353
 9431POPC   NC356651  43.858  25.273   5.553
 9431POPC   PO456652  43.841  25.240   5.853
 9431POPC   GL156653  43.917  25.306   6.153
 9431POPC   GL256654  43.893  25.153   6.153
 9431POPC   C1A56655  43.868  25.247   6.453
 9431POPC   D2A56656  43.929  25.303   6.753
 9431POPC   C3A56657  43.839  25.223   7.053
 9431POPC   C4A56658  43.861  25.307   7.353
 9431POPC   C1B56659  43.957  25.041   6.453
 9431POPC   C2B56660  43.971  25.021   6.753
 9431POPC   C3B56661  43.962  25.062   7.053
 9431POPC   C4B56662  43.935  25.008   7.353
 9432POPC   NC356663  34.617  11.320   5.553
 9432POPC   PO456664  34.560  11.325   5.853
 9432POPC   GL156665  34.599  11.285   6.153
 9432POPC   GL256666  34.686  11.205   6.153
 9432POPC   C1A56667  34.578  11.305   6.453
 9432POPC   D2A56668  34.540  11.322   6.753
 9432POPC   C3A56669  34.622  11.270   7.053
 9432POPC   C4A56670  34.615  11.283   7.353
 9432POPC   C1B56671  34.834  11.250   6.453
 9432POPC   C2B56672  34.779  11.158   6.753
 9432POPC   C3B56673  34.809  11.201   7.053
 9432POPC   C4B56674  34.797  11.176   7.353
 9433POPC   NC356675  22.127  43.895   5.553
 9433POPC   PO456676  22.177  43.918   5.853
 9433POPC   GL156677  22.145  43.865   6.153
 9433POPC   GL256678  22.232  43.988   6.153
 9433POPC   C1A56679  22.196  43.917   6.453
 9433POPC   D2A56680  22.150  43.898   6.753
 9433POPC   C3A56681  22.190  43.847   7.053
 9433POPC   C4A56682  22.143  43.879   7.353
 9433POPC   C1B56683  22.206  44.157   6.453
 9433POPC   C2B56684  22.255  44.082   6.753
 9433POPC   C3B56685  22.178  44.127   7.053
 9433POPC   C4B56686  22.214  44.092   7.353
 9434POPC   NC356687  11.270   6.599   5.553
 9434POPC   PO456688  11.256   6.628   5.853
 9434POPC   GL156689  11.285   6.657   6.153
 9434POPC   GL256690  11.202   6.529   6.153
 9434POPC   C1A56691  11.350   6.660   6.453
 9434POPC   D2A56692  11.267   6.622   6.753
 9434POPC   C3A56693  11.331   6.684   7.053
 9434POPC   C4A56694  11.295   6.633   7.353
 9434POPC   C1B56695  11.132   6.422   6.453
 9434POPC   C2B56696  11.115   6.474   6.753
 9434POPC   C3B56697  11.157   6.460   7.053
 9434POPC   C4B56698  11.148   6.462   7.353
 9435POPC   NC356699  44.632  40.054   5.553
 9435POPC   PO456700  44.653  39.985   5.853
 9435POPC   GL156701  44.690  39.972   6.153
 9435POPC   GL256702  44.795  40.133   6.153
 9435POPC   C1A56703  44.667  40.017   6.453
 9435POPC   D2A56704  44.645  40.024   6.753
 9435POPC   C3A56705  44.687  39.975   7.053
 9435POPC   C4A56706  44.710  39.975   7.353
 9435POPC   C1B56707  44.885  40.187   6.453
 9435POPC   C2B56708  44.820  40.228   6.753
 9435POPC   C3B56709  44.850  40.220   7.053
 9435POPC   C4B56710  44.787  40.190   7.353
 9436POPC   NC356711  40.008  37.640   5.553
 9436POPC   PO456712  40.038  37.729   5.853
 9436POPC   GL156713  39.986  37.652   6.153
 9436POPC   GL256714  39.956  37.509   6.153
 9436POPC   C1A56715  40.039  37.708   6.453
 9436POPC   D2A56716  40.052  37.727   6.753
 9436POPC   C3A56717  40.026  37.706   7.053
 9436POPC   C4A56718  40.033  37.690   7.353
 9436POPC   C1B56719  39.971  37.479   6.453
 9436POPC   C2B56720  39.980  37.473   6.753
 9436POPC   C3B56721  40.020  37.420   7.053
 9436POPC   C4B56722  40.005  37.471   7.353
 9437POPC   NC356723  38.482  19.106   5.553
 9437POPC   PO456724  38.411  19.033   5.853
 9437POPC   GL156725  38.455  19.093   6.153
 9437POPC   GL256726  38.396  19.167   6.153
 9437POPC   C1A56727  38.475  19.038   6.453
 9437POPC   D2A56728  38.429  19.035   6.753
 9437POPC   C3A56729  38.445  19.036   7.053
 9437POPC   C4A56730  38.486  19.100   7.353
 9437POPC   C1B56731  38.272  19.274   6.453
 9437POPC   C2B56732  38.278  19.299   6.753
 9437POPC   C3B56733  38.314  19.251   7.053
 9437POPC   C4B56734  38.349  19.245   7.353
 9438POPC   NC356735   0.407  36.868   5.553
 9438POPC   PO456736   0.482  36.914   5.853
 9438POPC   GL156737   0.398  36.869   6.153
 9438POPC   GL256738   0.374  37.031   6.153
 9438POPC   C1A56739   0.448  36.910   6.453
 9438POPC   D2A56740   0.421  36.862   6.753
 9438POPC   C3A56741   0.430  36.894   7.053
 9438POPC   C4A56742   0.446  36.905   7.353
 9438POPC   C1B56743   0.338  37.149   6.453
 9438POPC   C2B56744   0.315  37.139   6.753
 9438POPC   C3B56745   0.285  37.160   7.053
 9438POPC   C4B56746   0.302  37.089   7.353
 9439POPC   NC356747  18.310  36.902   5.553
 9439POPC   PO456748  18.263  36.923   5.853
 9439POPC   GL156749  18.283  36.858   6.153
 9439POPC   GL256750  18.363  37.024   6.153
 9439POPC   C1A56751  18.303  36.898   6.453
 9439POPC   D2A56752  18.243  36.951   6.753
 9439POPC   C3A56753  18.266  36.931   7.053
 9439POPC   C4A56754  18.267  36.881   7.353
 9439POPC   C1B56755  18.384  37.137   6.453
 9439POPC   C2B56756  18.453  37.092   6.753
 9439POPC   C3B56757  18.410  37.066   7.053
 9439POPC   C4B56758  18.440  37.109   7.353
 9440POPC   NC356759  36.860   8.955   5.553
 9440POPC   PO456760  36.951   8.991   5.853
 9440POPC   GL156761  36.889   8.939   6.153
 9440POPC   GL256762  36.974   9.043   6.153
 9440POPC   C1A56763  36.889   8.966   6.453
 9440POPC   D2A56764  36.865   9.021   6.753
 9440POPC   C3A56765  36.881   9.012   7.053
 9440POPC   C4A56766  36.914   8.975   7.353
 9440POPC   C1B56767  37.174   9.129   6.453
 9440POPC   C2B56768  37.149   9.131   6.753
 9440POPC   C3B56769  37.107   9.100   7.053
 9440POPC   C4B56770  37.147   9.061   7.353
 9441POPC   NC356771  29.970   0.426   5.553
 9441POPC   PO456772  29.943   0.412   5.853
 9441POPC   GL156773  29.946   0.427   6.153
 9441POPC   GL256774  29.936   0.521   6.153
 9441POPC   C1A56775  29.924   0.472   6.453
 9441POPC   D2A56776  29.886   0.468   6.753
 9441POPC   C3A56777  29.919   0.409   7.053
 9441POPC   C4A56778  29.947   0.393   7.353
 9441POPC   C1B56779  29.935   0.650   6.453
 9441POPC   C2B56780  29.918   0.639   6.753
 9441POPC   C3B56781  29.924   0.658   7.053
 9441POPC   C4B56782  29.958   0.663   7.353
 9442POPC   NC356783   1.945  24.516   5.553
 9442POPC   PO456784   1.992  24.471   5.853
 9442POPC   GL156785   1.966  24.500   6.153
 9442POPC   GL256786   1.994  24.329   6.153
 9442POPC   C1A56787   2.012  24.465   6.453
 9442POPC   D2A56788   2.003  24.526   6.753
 9442POPC   C3A56789   1.964  24.442   7.053
 9442POPC   C4A56790   1.960  24.524   7.353
 9442POPC   C1B56791   1.917  24.249   6.453
 9442POPC   C2B56792   1.970  24.223   6.753
 9442POPC   C3B56793   1.964  24.287   7.053
 9442POPC   C4B56794   1.943  24.257   7.353
 9443POPC   NC356795  15.917  28.396   5.553
 9443POPC   PO456796  15.986  28.370   5.853
 9443POPC   GL156797  15.913  28.418   6.153
 9443POPC   GL256798  16.051  28.247   6.153
 9443POPC   C1A56799  16.003  28.382   6.453
 9443POPC   D2A56800  15.939  28.322   6.753
 9443POPC   C3A56801  15.934  28.400   7.053
 9443POPC   C4A56802  15.960  28.414   7.353
 9443POPC   C1B56803  16.105  28.156   6.453
 9443POPC   C2B56804  16.093  28.123   6.753
 9443POPC   C3B56805  16.066  28.182   7.053
 9443POPC   C4B56806  16.018  28.155   7.353
 9444POPC   NC356807  10.542  29.162   5.553
 9444POPC   PO456808  10.493  29.127   5.853
 9444POPC   GL156809  10.557  29.131   6.153
 9444POPC   GL256810  10.519  29.230   6.153
 9444POPC   C1A56811  10.559  29.103   6.453
 9444POPC   D2A56812  10.534  29.117   6.753
 9444POPC   C3A56813  10.490  29.129   7.053
 9444POPC   C4A56814  10.502  29.101   7.353
 9444POPC   C1B56815  10.512  29.418   6.453
 9444POPC   C2B56816  10.517  29.392   6.753
 9444POPC   C3B56817  10.578  29.362   7.053
 9444POPC   C4B56818  10.515  29.431   7.353
 9445POPC   NC356819  42.341  32.999   5.553
 9445POPC   PO456820  42.289  33.042   5.853
 9445POPC   GL156821  42.320  33.070   6.153
 9445POPC   GL256822  42.416  33.173   6.153
 9445POPC   C1A56823  42.318  33.067   6.453
 9445POPC   D2A56824  42.295  33.005   6.753
 9445POPC   C3A56825  42.380  32.977   7.053
 9445POPC   C4A56826  42.304  33.054   7.353
 9445POPC   C1B56827  42.420  33.188   6.453
 9445POPC   C2B56828  42.476  33.280   6.753
 9445POPC   C3B56829  42.433  33.194   7.053
 9445POPC   C4B56830  42.509  33.275   7.353
 9446POPC   NC356831  15.943  36.879   5.553
 9446POPC   PO456832  15.931  36.924   5.853
 9446POPC   GL156833  15.959  36.860   6.153
 9446POPC   GL256834  15.877  37.025   6.153
 9446POPC   C1A56835  15.927  36.926   6.453
 9446POPC   D2A56836  15.931  36.915   6.753
 9446POPC   C3A56837  15.957  36.871   7.053
 9446POPC   C4A56838  15.922  36.934   7.353
 9446POPC   C1B56839  15.805  37.106   6.453
 9446POPC   C2B56840  15.819  37.152   6.753
 9446POPC   C3B56841  15.840  37.080   7.053
 9446POPC   C4B56842  15.768  37.066   7.353
 9447POPC   NC356843   2.802  40.049   5.553
 9447POPC   PO456844   2.807  39.958   5.853
 9447POPC   GL156845   2.752  40.003   6.153
 9447POPC   GL256846   2.899  40.082   6.153
 9447POPC   C1A56847   2.753  40.051   6.453
 9447POPC   D2A56848   2.800  40.025   6.753
 9447POPC   C3A56849   2.774  40.011   7.053
 9447POPC   C4A56850   2.764  40.051   7.353
 9447POPC   C1B56851   2.978  40.117   6.453
 9447POPC   C2B56852   3.014  40.041   6.753
 9447POPC   C3B56853   3.044  40.026   7.053
 9447POPC   C4B56854   3.055  40.042   7.353
 9448POPC   NC356855  32.978  40.735   5.553
 9448POPC   PO456856  32.993  40.744   5.853
 9448POPC   GL156857  33.045  40.799   6.153
 9448POPC   GL256858  33.114  40.749   6.153
 9448POPC   C1A56859  32.977  40.763   6.453
 9448POPC   D2A56860  33.072  40.764   6.753
 9448POPC   C3A56861  33.003  40.796   7.053
 9448POPC   C4A56862  32.996  40.766   7.353
 9448POPC   C1B56863  33.195  40.621   6.453
 9448POPC   C2B56864  33.225  40.625   6.753
 9448POPC   C3B56865  33.197  40.604   7.053
 9448POPC   C4B56866  33.218  40.619   7.353
 9449POPC   NC356867  26.085  29.946   5.553
 9449POPC   PO456868  26.030  29.948   5.853
 9449POPC   GL156869  26.058  29.907   6.153
 9449POPC   GL256870  26.109  29.812   6.153
 9449POPC   C1A56871  26.086  29.919   6.453
 9449POPC   D2A56872  26.084  29.908   6.753
 9449POPC   C3A56873  26.083  29.918   7.053
 9449POPC   C4A56874  25.994  29.969   7.353
 9449POPC   C1B56875  26.166  29.694   6.453
 9449POPC   C2B56876  26.153  29.669   6.753
 9449POPC   C3B56877  26.106  29.666   7.053
 9449POPC   C4B56878  26.112  29.678   7.353
 9450POPC   NC356879   1.169  19.092   5.553
 9450POPC   PO456880   1.189  19.050   5.853
 9450POPC   GL156881   1.218  19.041   6.153
 9450POPC   GL256882   1.088  18.957   6.153
 9450POPC   C1A56883   1.209  19.028   6.453
 9450POPC   D2A56884   1.192  19.009   6.753
 9450POPC   C3A56885   1.170  19.072   7.053
 9450POPC   C4A56886   1.256  19.105   7.353
 9450POPC   C1B56887   1.083  18.842   6.453
 9450POPC   C2B56888   1.084  18.846   6.753
 9450POPC   C3B56889   1.063  18.856   7.053
 9450POPC   C4B56890   1.023  18.873   7.353
 9451POPC   NC356891  15.212  39.277   5.553
 9451POPC   PO456892  15.173  39.254   5.853
 9451POPC   GL156893  15.175  39.260   6.153
 9451POPC   GL256894  15.319  39.253   6.153
 9451POPC   C1A56895  15.161  39.275   6.453
 9451POPC   D2A56896  15.197  39.194   6.753
 9451POPC   C3A56897  15.217  39.280   7.053
 9451POPC   C4A56898  15.151  39.232   7.353
 9451POPC   C1B56899  15.371  39.395   6.453
 9451POPC   C2B56900  15.428  39.387   6.753
 9451POPC   C3B56901  15.345  39.373   7.053
 9451POPC   C4B56902  15.383  39.325   7.353
 9452POPC   NC356903  26.819  11.337   5.553
 9452POPC   PO456904  26.816  11.322   5.853
 9452POPC   GL156905  26.838  11.304   6.153
 9452POPC   GL256906  26.702  11.326   6.153
 9452POPC   C1A56907  26.859  11.306   6.453
 9452POPC   D2A56908  26.843  11.333   6.753
 9452POPC   C3A56909  26.815  11.338   7.053
 9452POPC   C4A56910  26.786  11.252   7.353
 9452POPC   C1B56911  26.564  11.377   6.453
 9452POPC   C2B56912  26.583  11.403   6.753
 9452POPC   C3B56913  26.576  11.386   7.053
 9452POPC   C4B56914  26.608  11.466   7.353
 9453POPC   NC356915  42.382  30.738   5.553
 9453POPC   PO456916  42.339  30.690   5.853
 9453POPC   GL156917  42.364  30.666   6.153
 9453POPC   GL256918  42.217  30.688   6.153
 9453POPC   C1A56919  42.336  30.690   6.453
 9453POPC   D2A56920  42.340  30.714   6.753
 9453POPC   C3A56921  42.348  30.724   7.053
 9453POPC   C4A56922  42.325  30.677   7.353
 9453POPC   C1B56923  42.133  30.697   6.453
 9453POPC   C2B56924  42.104  30.725   6.753
 9453POPC   C3B56925  42.038  30.690   7.053
 9453POPC   C4B56926  42.083  30.680   7.353
 9454POPC   NC356927  39.260  23.751   5.553
 9454POPC   PO456928  39.257  23.722   5.853
 9454POPC   GL156929  39.269  23.759   6.153
 9454POPC   GL256930  39.126  23.614   6.153
 9454POPC   C1A56931  39.183  23.751   6.453
 9454POPC   D2A56932  39.222  23.749   6.753
 9454POPC   C3A56933  39.270  23.687   7.053
 9454POPC   C4A56934  39.183  23.691   7.353
 9454POPC   C1B56935  39.113  23.507   6.453
 9454POPC   C2B56936  39.134  23.476   6.753
 9454POPC   C3B56937  39.132  23.531   7.053
 9454POPC   C4B56938  39.113  23.529   7.353
 9455POPC   NC356939   1.225  39.277   5.553
 9455POPC   PO456940   1.259  39.249   5.853
 9455POPC   GL156941   1.177  39.222   6.153
 9455POPC   GL256942   1.331  39.283   6.153
 9455POPC   C1A56943   1.185  39.184   6.453
 9455POPC   D2A56944   1.234  39.213   6.753
 9455POPC   C3A56945   1.225  39.223   7.053
 9455POPC   C4A56946   1.206  39.212   7.353
 9455POPC   C1B56947   1.485  39.270   6.453
 9455POPC   C2B56948   1.445  39.249   6.753
 9455POPC   C3B56949   1.506  39.241   7.053
 9455POPC   C4B56950   1.501  39.245   7.353
 9456POPC   NC356951  11.325  24.526   5.553
 9456POPC   PO456952  11.329  24.485   5.853
 9456POPC   GL156953  11.255  24.501   6.153
 9456POPC   GL256954  11.377  24.352   6.153
 9456POPC   C1A56955  11.288  24.465   6.453
 9456POPC   D2A56956  11.285  24.524   6.753
 9456POPC   C3A56957  11.292  24.508   7.053
 9456POPC   C4A56958  11.270  24.529   7.353
 9456POPC   C1B56959  11.388  24.309   6.453
 9456POPC   C2B56960  11.412  24.254   6.753
 9456POPC   C3B56961  11.367  24.301   7.053
 9456POPC   C4B56962  11.441  24.279   7.353
 9457POPC   NC356963  38.413  23.682   5.553
 9457POPC   PO456964  38.482  23.760   5.853
 9457POPC   GL156965  38.478  23.670   6.153
 9457POPC   GL256966  38.313  23.634   6.153
 9457POPC   C1A56967  38.489  23.747   6.453
 9457POPC   D2A56968  38.483  23.749   6.753
 9457POPC   C3A56969  38.475  23.680   7.053
 9457POPC   C4A56970  38.469  23.693   7.353
 9457POPC   C1B56971  38.209  23.689   6.453
 9457POPC   C2B56972  38.247  23.636   6.753
 9457POPC   C3B56973  38.256  23.687   7.053
 9457POPC   C4B56974  38.227  23.603   7.353
 9458POPC   NC356975  28.351  25.251   5.553
 9458POPC   PO456976  28.365  25.305   5.853
 9458POPC   GL156977  28.352  25.231   6.153
 9458POPC   GL256978  28.302  25.430   6.153
 9458POPC   C1A56979  28.375  25.258   6.453
 9458POPC   D2A56980  28.414  25.301   6.753
 9458POPC   C3A56981  28.405  25.250   7.053
 9458POPC   C4A56982  28.347  25.295   7.353
 9458POPC   C1B56983  28.319  25.527   6.453
 9458POPC   C2B56984  28.289  25.492   6.753
 9458POPC   C3B56985  28.339  25.487   7.053
 9458POPC   C4B56986  28.315  25.510   7.353
 9459POPC   NC356987   0.479  15.140   5.553
 9459POPC   PO456988   0.401  15.156   5.853
 9459POPC   GL156989   0.393  15.223   6.153
 9459POPC   GL256990   0.388  15.092   6.153
 9459POPC   C1A56991   0.398  15.139   6.453
 9459POPC   D2A56992   0.439  15.147   6.753
 9459POPC   C3A56993   0.425  15.184   7.053
 9459POPC   C4A56994   0.480  15.171   7.353
 9459POPC   C1B56995   0.285  14.948   6.453
 9459POPC   C2B56996   0.336  14.986   6.753
 9459POPC   C3B56997   0.343  14.964   7.053
 9459POPC   C4B56998   0.284  14.998   7.353
 9460POPC   NC356999  37.723  23.761   5.553
 9460POPC   PO457000  37.697  23.670   5.853
 9460POPC   GL157001  37.651  23.744   6.153
 9460POPC   GL257002  37.515  23.805   6.153
 9460POPC   C1A57003  37.655  23.761   6.453
 9460POPC   D2A57004  37.677  23.685   6.753
 9460POPC   C3A57005  37.707  23.762   7.053
 9460POPC   C4A57006  37.668  23.726   7.353
 9460POPC   C1B57007  37.446  23.815   6.453
 9460POPC   C2B57008  37.467  23.803   6.753
 9460POPC   C3B57009  37.450  23.838   7.053
 9460POPC   C4B57010  37.424  23.849   7.353
 9461POPC   NC357011  44.662  43.910   5.553
 9461POPC   PO457012  44.615  43.930   5.853
 9461POPC   GL157013  44.638  43.891   6.153
 9461POPC   GL257014  44.627  44.012   6.153
 9461POPC   C1A57015  44.621  43.904   6.453
 9461POPC   D2A57016  44.628  43.913   6.753
 9461POPC   C3A57017  44.653  43.841   7.053
 9461POPC   C4A57018  44.637  43.894   7.353
 9461POPC   C1B57019  44.507  44.115   6.453
 9461POPC   C2B57020  44.568  44.085   6.753
 9461POPC   C3B57021  44.544  44.120   7.053
 9461POPC   C4B57022  44.489  44.139   7.353
 9462POPC   NC357023   3.557   8.926   5.553
 9462POPC   PO457024   3.540   8.956   5.853
 9462POPC   GL157025   3.549   8.966   6.153
 9462POPC   GL257026   3.650   8.969   6.153
 9462POPC   C1A57027   3.591   8.935   6.453
 9462POPC   D2A57028   3.533   8.951   6.753
 9462POPC   C3A57029   3.584   8.950   7.053
 9462POPC   C4A57030   3.498   8.996   7.353
 9462POPC   C1B57031   3.796   9.027   6.453
 9462POPC   C2B57032   3.741   9.009   6.753
 9462POPC   C3B57033   3.760   9.017   7.053
 9462POPC   C4B57034   3.749   9.081   7.353
 9463POPC   NC357035  21.369  22.901   5.553
 9463POPC   PO457036  21.436  22.929   5.853
 9463POPC   GL157037  21.352  22.933   6.153
 9463POPC   GL257038  21.232  22.881   6.153
 9463POPC   C1A57039  21.435  22.973   6.453
 9463POPC   D2A57040  21.345  22.946   6.753
 9463POPC   C3A57041  21.403  22.982   7.053
 9463POPC   C4A57042  21.347  22.986   7.353
 9463POPC   C1B57043  21.200  22.805   6.453
 9463POPC   C2B57044  21.138  22.856   6.753
 9463POPC   C3B57045  21.186  22.818   7.053
 9463POPC   C4B57046  21.159  22.793   7.353
 9464POPC   NC357047   6.616  33.818   5.553
 9464POPC   PO457048   6.595  33.846   5.853
 9464POPC   GL157049   6.596  33.842   6.153
 9464POPC   GL257050   6.559  33.907   6.153
 9464POPC   C1A57051   6.694  33.841   6.453
 9464POPC   D2A57052   6.677  33.751   6.753
 9464POPC   C3A57053   6.610  33.837   7.053
 9464POPC   C4A57054   6.596  33.833   7.353
 9464POPC   C1B57055   6.572  34.031   6.453
 9464POPC   C2B57056   6.547  33.996   6.753
 9464POPC   C3B57057   6.608  34.021   7.053
 9464POPC   C4B57058   6.569  34.018   7.353
 9465POPC   NC357059  28.414  36.143   5.553
 9465POPC   PO457060  28.337  36.140   5.853
 9465POPC   GL157061  28.321  36.090   6.153
 9465POPC   GL257062  28.397  36.047   6.153
 9465POPC   C1A57063  28.388  36.130   6.453
 9465POPC   D2A57064  28.381  36.094   6.753
 9465POPC   C3A57065  28.392  36.080   7.053
 9465POPC   C4A57066  28.337  36.160   7.353
 9465POPC   C1B57067  28.436  35.890   6.453
 9465POPC   C2B57068  28.497  35.899   6.753
 9465POPC   C3B57069  28.414  35.915   7.053
 9465POPC   C4B57070  28.477  35.869   7.353
 9466POPC   NC357071   8.923   3.541   5.553
 9466POPC   PO457072   8.962   3.582   5.853
 9466POPC   GL157073   8.989   3.515   6.153
 9466POPC   GL257074   8.822   3.520   6.153
 9466POPC   C1A57075   8.991   3.493   6.453
 9466POPC   D2A57076   8.961   3.537   6.753
 9466POPC   C3A57077   8.989   3.571   7.053
 9466POPC   C4A57078   8.968   3.565   7.353
 9466POPC   C1B57079   8.770   3.498   6.453
 9466POPC   C2B57080   8.779   3.490   6.753
 9466POPC   C3B57081   8.704   3.491   7.053
 9466POPC   C4B57082   8.777   3.510   7.353
 9467POPC   NC357083  26.051  25.260   5.553
 9467POPC   PO457084  26.069  25.274   5.853
 9467POPC   GL157085  26.089  25.261   6.153
 9467POPC   GL257086  26.142  25.317   6.153
 9467POPC   C1A57087  25.993  25.218   6.453
 9467POPC   D2A57088  26.008  25.261   6.753
 9467POPC   C3A57089  26.041  25.221   7.053
 9467POPC   C4A57090  26.080  25.282   7.353
 9467POPC   C1B57091  26.313  25.369   6.453
 9467POPC   C2B57092  26.241  25.369   6.753
 9467POPC   C3B57093  26.279  25.344   7.053
 9467POPC   C4B57094  26.312  25.357   7.353
 9468POPC   NC357095  40.819   6.617   5.553
 9468POPC   PO457096  40.737   6.622   5.853
 9468POPC   GL157097  40.793   6.640   6.153
 9468POPC   GL257098  40.811   6.537   6.153
 9468POPC   C1A57099  40.736   6.615   6.453
 9468POPC   D2A57100  40.797   6.663   6.753
 9468POPC   C3A57101  40.740   6.617   7.053
 9468POPC   C4A57102  40.790   6.645   7.353
 9468POPC   C1B57103  40.824   6.384   6.453
 9468POPC   C2B57104  40.736   6.394   6.753
 9468POPC   C3B57105  40.750   6.421   7.053
 9468POPC   C4B57106  40.812   6.396   7.353
 9469POPC   NC357107  40.020  40.774   5.553
 9469POPC   PO457108  40.029  40.804   5.853
 9469POPC   GL157109  40.052  40.765   6.153
 9469POPC   GL257110  39.883  40.745   6.153
 9469POPC   C1A57111  40.020  40.739   6.453
 9469POPC   D2A57112  39.969  40.830   6.753
 9469POPC   C3A57113  39.961  40.809   7.053
 9469POPC   C4A57114  40.002  40.823   7.353
 9469POPC   C1B57115  39.750  40.693   6.453
 9469POPC   C2B57116  39.752  40.718   6.753
 9469POPC   C3B57117  39.818  40.704   7.053
 9469POPC   C4B57118  39.803  40.674   7.353
 9470POPC   NC357119  43.841  18.317   5.553
 9470POPC   PO457120  43.882  18.256   5.853
 9470POPC   GL157121  43.836  18.319   6.153
 9470POPC   GL257122  43.888  18.148   6.153
 9470POPC   C1A57123  43.919  18.273   6.453
 9470POPC   D2A57124  43.876  18.272   6.753
 9470POPC   C3A57125  43.840  18.332   7.053
 9470POPC   C4A57126  43.931  18.278   7.353
 9470POPC   C1B57127  43.915  18.075   6.453
 9470POPC   C2B57128  43.879  18.042   6.753
 9470POPC   C3B57129  43.947  18.065   7.053
 9470POPC   C4B57130  43.908  18.083   7.353
 9471POPC   NC357131  15.130  12.052   5.553
 9471POPC   PO457132  15.195  12.098   5.853
 9471POPC   GL157133  15.213  12.092   6.153
 9471POPC   GL257134  15.037  12.102   6.153
 9471POPC   C1A57135  15.194  12.072   6.453
 9471POPC   D2A57136  15.169  12.107   6.753
 9471POPC   C3A57137  15.182  12.119   7.053
 9471POPC   C4A57138  15.154  12.034   7.353
 9471POPC   C1B57139  14.892  12.060   6.453
 9471POPC   C2B57140  14.954  12.079   6.753
 9471POPC   C3B57141  14.888  12.022   7.053
 9471POPC   C4B57142  14.946  12.058   7.353
 9472POPC   NC357143  43.933  38.485   5.553
 9472POPC   PO457144  43.906  38.453   5.853
 9472POPC   GL157145  43.850  38.421   6.153
 9472POPC   GL257146  43.816  38.352   6.153
 9472POPC   C1A57147  43.885  38.431   6.453
 9472POPC   D2A57148  43.861  38.457   6.753
 9472POPC   C3A57149  43.893  38.477   7.053
 9472POPC   C4A57150  43.861  38.500   7.353
 9472POPC   C1B57151  43.711  38.249   6.453
 9472POPC   C2B57152  43.720  38.234   6.753
 9472POPC   C3B57153  43.780  38.234   7.053
 9472POPC   C4B57154  43.707  38.249   7.353
 9473POPC   NC357155   5.847   0.409   5.553
 9473POPC   PO457156   5.824   0.456   5.853
 9473POPC   GL157157   5.871   0.389   6.153
 9473POPC   GL257158   5.821   0.360   6.153
 9473POPC   C1A57159   5.855   0.448   6.453
 9473POPC   D2A57160   5.853   0.408   6.753
 9473POPC   C3A57161   5.882   0.417   7.053
 9473POPC   C4A57162   5.919   0.477   7.353
 9473POPC   C1B57163   5.735   0.245   6.453
 9473POPC   C2B57164   5.716   0.221   6.753
 9473POPC   C3B57165   5.755   0.271   7.053
 9473POPC   C4B57166   5.707   0.230   7.353
 9474POPC   NC357167  42.356   9.719   5.553
 9474POPC   PO457168  42.302   9.745   5.853
 9474POPC   GL157169  42.296   9.711   6.153
 9474POPC   GL257170  42.477   9.763   6.153
 9474POPC   C1A57171  42.321   9.750   6.453
 9474POPC   D2A57172  42.295   9.753   6.753
 9474POPC   C3A57173  42.372   9.796   7.053
 9474POPC   C4A57174  42.333   9.779   7.353
 9474POPC   C1B57175  42.619   9.780   6.453
 9474POPC   C2B57176  42.535   9.789   6.753
 9474POPC   C3B57177  42.629   9.768   7.053
 9474POPC   C4B57178  42.607   9.712   7.353
 9475POPC   NC357179   6.673  19.836   5.553
 9475POPC   PO457180   6.633  19.845   5.853
 9475POPC   GL157181   6.614  19.838   6.153
 9475POPC   GL257182   6.548  19.975   6.153
 9475POPC   C1A57183   6.674  19.863   6.453
 9475POPC   D2A57184   6.620  19.818   6.753
 9475POPC   C3A57185   6.615  19.844   7.053
 9475POPC   C4A57186   6.660  19.866   7.353
 9475POPC   C1B57187   6.462  20.001   6.453
 9475POPC   C2B57188   6.501  20.005   6.753
 9475POPC   C3B57189   6.465  20.076   7.053
 9475POPC   C4B57190   6.504  19.993   7.353
 9476POPC   NC357191  38.473  39.227   5.553
 9476POPC   PO457192  38.421  39.233   5.853
 9476POPC   GL157193  38.427  39.219   6.153
 9476POPC   GL257194  38.609  39.226   6.153
 9476POPC   C1A57195  38.490  39.235   6.453
 9476POPC   D2A57196  38.423  39.205   6.753
 9476POPC   C3A57197  38.494  39.222   7.053
 9476POPC   C4A57198  38.474  39.220   7.353
 9476POPC   C1B57199  38.660  39.288   6.453
 9476POPC   C2B57200  38.742  39.279   6.753
 9476POPC   C3B57201  38.678  39.229   7.053
 9476POPC   C4B57202  38.712  39.217   7.353
 9477POPC   NC357203  10.551   7.394   5.553
 9477POPC   PO457204  10.531   7.455   5.853
 9477POPC   GL157205  10.533   7.436   6.153
 9477POPC   GL257206  10.543   7.287   6.153
 9477POPC   C1A57207  10.487   7.392   6.453
 9477POPC   D2A57208  10.478   7.376   6.753
 9477POPC   C3A57209  10.535   7.444   7.053
 9477POPC   C4A57210  10.517   7.454   7.353
 9477POPC   C1B57211  10.479   7.156   6.453
 9477POPC   C2B57212  10.490   7.159   6.753
 9477POPC   C3B57213  10.550   7.211   7.053
 9477POPC   C4B57214  10.487   7.221   7.353
 9478POPC   NC357215   5.895  15.944   5.553
 9478POPC   PO457216   5.834  15.930   5.853
 9478POPC   GL157217   5.849  15.922   6.153
 9478POPC   GL257218   5.926  15.906   6.153
 9478POPC   C1A57219   5.915  15.926   6.453
 9478POPC   D2A57220   5.892  15.940   6.753
 9478POPC   C3A57221   5.900  15.969   7.053
 9478POPC   C4A57222   5.891  15.991   7.353
 9478POPC   C1B57223   6.087  15.777   6.453
 9478POPC   C2B57224   6.082  15.835   6.753
 9478POPC   C3B57225   6.044  15.799   7.053
 9478POPC   C4B57226   6.019  15.807   7.353
 9479POPC   NC357227  33.839  39.188   5.553
 9479POPC   PO457228  33.814  39.267   5.853
 9479POPC   GL157229  33.790  39.281   6.153
 9479POPC   GL257230  33.908  39.350   6.153
 9479POPC   C1A57231  33.841  39.191   6.453
 9479POPC   D2A57232  33.833  39.192   6.753
 9479POPC   C3A57233  33.786  39.225   7.053
 9479POPC   C4A57234  33.841  39.191   7.353
 9479POPC   C1B57235  33.924  39.384   6.453
 9479POPC   C2B57236  33.937  39.395   6.753
 9479POPC   C3B57237  33.921  39.376   7.053
 9479POPC   C4B57238  33.943  39.421   7.353
 9480POPC   NC357239  35.396  19.026   5.553
 9480POPC   PO457240  35.338  19.014   5.853
 9480POPC   GL157241  35.394  19.073   6.153
 9480POPC   GL257242  35.290  18.996   6.153
 9480POPC   C1A57243  35.332  19.108   6.453
 9480POPC   D2A57244  35.389  19.032   6.753
 9480POPC   C3A57245  35.369  19.021   7.053
 9480POPC   C4A57246  35.355  19.044   7.353
 9480POPC   C1B57247  35.202  18.813   6.453
 9480POPC   C2B57248  35.277  18.884   6.753
 9480POPC   C3B57249  35.234  18.822   7.053
 9480POPC   C4B57250  35.275  18.827   7.353
 9481POPC   NC357251  41.600  27.599   5.553
 9481POPC   PO457252  41.512  27.568   5.853
 9481POPC   GL157253  41.576  27.588   6.153
 9481POPC   GL257254  41.530  27.765   6.153
 9481POPC   C1A57255  41.539  27.561   6.453
 9481POPC   D2A57256  41.555  27.572   6.753
 9481POPC   C3A57257  41.568  27.563   7.053
 9481POPC   C4A57258  41.553  27.634   7.353
 9481POPC   C1B57259  41.592  27.827   6.453
 9481POPC   C2B57260  41.578  27.812   6.753
 9481POPC   C3B57261  41.586  27.843   7.053
 9481POPC   C4B57262  41.559  27.883   7.353
 9482POPC   NC357263  33.822  36.118   5.553
 9482POPC   PO457264  33.755  36.083   5.853
 9482POPC   GL157265  33.761  36.120   6.153
 9482POPC   GL257266  33.850  36.164   6.153
 9482POPC   C1A57267  33.806  36.100   6.453
 9482POPC   D2A57268  33.768  36.084   6.753
 9482POPC   C3A57269  33.765  36.096   7.053
 9482POPC   C4A57270  33.845  36.141   7.353
 9482POPC   C1B57271  34.035  36.283   6.453
 9482POPC   C2B57272  33.987  36.341   6.753
 9482POPC   C3B57273  33.965  36.333   7.053
 9482POPC   C4B57274  34.009  36.334   7.353
 9483POPC   NC357275   9.754   6.619   5.553
 9483POPC   PO457276   9.711   6.616   5.853
 9483POPC   GL157277   9.734   6.598   6.153
 9483POPC   GL257278   9.789   6.698   6.153
 9483POPC   C1A57279   9.709   6.605   6.453
 9483POPC   D2A57280   9.759   6.691   6.753
 9483POPC   C3A57281   9.780   6.639   7.053
 9483POPC   C4A57282   9.737   6.639   7.353
 9483POPC   C1B57283   9.862   6.874   6.453
 9483POPC   C2B57284   9.917   6.818   6.753
 9483POPC   C3B57285   9.929   6.790   7.053
 9483POPC   C4B57286   9.863   6.868   7.353
 9484POPC   NC357287  12.045  44.663   5.553
 9484POPC   PO457288  12.113  44.661   5.853
 9484POPC   GL157289  12.026  44.656   6.153
 9484POPC   GL257290  12.162  44.554   6.153
 9484POPC   C1A57291  12.089  44.612   6.453
 9484POPC   D2A57292  12.060  44.676   6.753
 9484POPC   C3A57293  12.037  44.640   7.053
 9484POPC   C4A57294  12.107  44.687   7.353
 9484POPC   C1B57295  12.207  44.455   6.453
 9484POPC   C2B57296  12.179  44.442   6.753
 9484POPC   C3B57297  12.201  44.480   7.053
 9484POPC   C4B57298  12.231  44.436   7.353
 9485POPC   NC357299  27.543  19.812   5.553
 9485POPC   PO457300  27.566  19.830   5.853
 9485POPC   GL157301  27.587  19.872   6.153
 9485POPC   GL257302  27.451  19.833   6.153
 9485POPC   C1A57303  27.582  19.800   6.453
 9485POPC   D2A57304  27.638  19.876   6.753
 9485POPC   C3A57305  27.570  19.800   7.053
 9485POPC   C4A57306  27.547  19.809   7.353
 9485POPC   C1B57307  27.351  19.933   6.453
 9485POPC   C2B57308  27.334  19.931   6.753
 9485POPC   C3B57309  27.360  19.870   7.053
 9485POPC   C4B57310  27.383  19.894   7.353
 9486POPC   NC357311  37.723  20.561   5.553
 9486POPC   PO457312  37.639  20.658   5.853
 9486POPC   GL157313  37.674  20.609   6.153
 9486POPC   GL257314  37.762  20.597   6.153
 9486POPC   C1A57315  37.703  20.606   6.453
 9486POPC   D2A57316  37.658  20.621   6.753
 9486POPC   C3A57317  37.679  20.628   7.053
 9486POPC   C4A57318  37.646  20.658   7.353
 9486POPC   C1B57319  37.933  20.517   6.453
 9486POPC   C2B57320  37.881  20.535   6.753
 9486POPC   C3B57321  37.874  20.499   7.053
 9486POPC   C4B57322  37.900  20.516   7.353
 9487POPC   NC357323   5.909  43.098   5.553
 9487POPC   PO457324   5.876  43.157   5.853
 9487POPC   GL157325   5.871  43.145   6.153
 9487POPC   GL257326   5.910  43.258   6.153
 9487POPC   C1A57327   5.835  43.139   6.453
 9487POPC   D2A57328   5.907  43.139   6.753
 9487POPC   C3A57329   5.858  43.087   7.053
 9487POPC   C4A57330   5.839  43.130   7.353
 9487POPC   C1B57331   6.009  43.359   6.453
 9487POPC   C2B57332   5.964  43.306   6.753
 9487POPC   C3B57333   5.934  43.351   7.053
 9487POPC   C4B57334   5.941  43.357   7.353
 9488POPC   NC357335  22.143  35.340   5.553
 9488POPC   PO457336  22.183  35.386   5.853
 9488POPC   GL157337  22.162  35.352   6.153
 9488POPC   GL257338  22.063  35.339   6.153
 9488POPC   C1A57339  22.130  35.375   6.453
 9488POPC   D2A57340  22.141  35.392   6.753
 9488POPC   C3A57341  22.171  35.361   7.053
 9488POPC   C4A57342  22.211  35.385   7.353
 9488POPC   C1B57343  21.966  35.368   6.453
 9488POPC   C2B57344  21.895  35.402   6.753
 9488POPC   C3B57345  21.945  35.445   7.053
 9488POPC   C4B57346  21.870  35.394   7.353
 9489POPC   NC357347  11.257   5.824   5.553
 9489POPC   PO457348  11.260   5.824   5.853
 9489POPC   GL157349  11.349   5.912   6.153
 9489POPC   GL257350  11.227   5.757   6.153
 9489POPC   C1A57351  11.256   5.830   6.453
 9489POPC   D2A57352  11.294   5.893   6.753
 9489POPC   C3A57353  11.290   5.870   7.053
 9489POPC   C4A57354  11.254   5.910   7.353
 9489POPC   C1B57355  11.162   5.631   6.453
 9489POPC   C2B57356  11.164   5.620   6.753
 9489POPC   C3B57357  11.150   5.676   7.053
 9489POPC   C4B57358  11.218   5.673   7.353
 9490POPC   NC357359  20.583  39.193   5.553
 9490POPC   PO457360  20.591  39.246   5.853
 9490POPC   GL157361  20.621  39.235   6.153
 9490POPC   GL257362  20.715  39.283   6.153
 9490POPC   C1A57363  20.567  39.218   6.453
 9490POPC   D2A57364  20.632  39.263   6.753
 9490POPC   C3A57365  20.626  39.207   7.053
 9490POPC   C4A57366  20.616  39.227   7.353
 9490POPC   C1B57367  20.884  39.317   6.453
 9490POPC   C2B57368  20.852  39.226   6.753
 9490POPC   C3B57369  20.849  39.277   7.053
 9490POPC   C4B57370  20.901  39.259   7.353
 9491POPC   NC357371  39.280  34.561   5.553
 9491POPC   PO457372  39.214  34.598   5.853
 9491POPC   GL157373  39.272  34.616   6.153
 9491POPC   GL257374  39.155  34.464   6.153
 9491POPC   C1A57375  39.242  34.532   6.453
 9491POPC   D2A57376  39.236  34.619   6.753
 9491POPC   C3A57377  39.185  34.554   7.053
 9491POPC   C4A57378  39.275  34.570   7.353
 9491POPC   C1B57379  39.123  34.338   6.453
 9491POPC   C2B57380  39.122  34.376   6.753
 9491POPC   C3B57381  39.169  34.300   7.053
 9491POPC   C4B57382  39.122  34.397   7.353
 9492POPC   NC357383   5.105  35.339   5.553
 9492POPC   PO457384   5.107  35.337   5.853
 9492POPC   GL157385   5.046  35.349   6.153
 9492POPC   GL257386   5.215  35.393   6.153
 9492POPC   C1A57387   5.133  35.334   6.453
 9492POPC   D2A57388   5.092  35.356   6.753
 9492POPC   C3A57389   5.090  35.393   7.053
 9492POPC   C4A57390   5.118  35.346   7.353
 9492POPC   C1B57391   5.289  35.450   6.453
 9492POPC   C2B57392   5.351  35.447   6.753
 9492POPC   C3B57393   5.352  35.441   7.053
 9492POPC   C4B57394   5.311  35.447   7.353
 9493POPC   NC357395  39.236   8.224   5.553
 9493POPC   PO457396  39.233   8.242   5.853
 9493POPC   GL157397  39.226   8.181   6.153
 9493POPC   GL257398  39.129   8.163   6.153
 9493POPC   C1A57399  39.217   8.245   6.453
 9493POPC   D2A57400  39.235   8.170   6.753
 9493POPC   C3A57401  39.232   8.191   7.053
 9493POPC   C4A57402  39.209   8.238   7.353
 9493POPC   C1B57403  39.019   8.093   6.453
 9493POPC   C2B57404  39.002   8.065   6.753
 9493POPC   C3B57405  39.024   8.028   7.053
 9493POPC   C4B57406  38.974   8.080   7.353
 9494POPC   NC357407  29.174  26.013   5.553
 9494POPC   PO457408  29.105  26.074   5.853
 9494POPC   GL157409  29.152  26.050   6.153
 9494POPC   GL257410  29.089  26.165   6.153
 9494POPC   C1A57411  29.181  26.004   6.453
 9494POPC   D2A57412  29.190  26.081   6.753
 9494POPC   C3A57413  29.095  26.068   7.053
 9494POPC   C4A57414  29.101  26.006   7.353
 9494POPC   C1B57415  29.050  26.268   6.453
 9494POPC   C2B57416  29.132  26.303   6.753
 9494POPC   C3B57417  29.054  26.325   7.053
 9494POPC   C4B57418  29.065  26.269   7.353
 9495POPC   NC357419  41.555  36.909   5.553
 9495POPC   PO457420  41.568  36.931   5.853
 9495POPC   GL157421  41.542  36.866   6.153
 9495POPC   GL257422  41.580  36.769   6.153
 9495POPC   C1A57423  41.603  36.854   6.453
 9495POPC   D2A57424  41.518  36.919   6.753
 9495POPC   C3A57425  41.570  36.922   7.053
 9495POPC   C4A57426  41.573  36.929   7.353
 9495POPC   C1B57427  41.703  36.713   6.453
 9495POPC   C2B57428  41.655  36.661   6.753
 9495POPC   C3B57429  41.687  36.647   7.053
 9495POPC   C4B57430  41.707  36.705   7.353
 9496POPC   NC357431  16.686   6.603   5.553
 9496POPC   PO457432  16.770   6.622   5.853
 9496POPC   GL157433  16.711   6.650   6.153
 9496POPC   GL257434  16.585   6.756   6.153
 9496POPC   C1A57435  16.691   6.681   6.453
 9496POPC   D2A57436  16.719   6.635   6.753
 9496POPC   C3A57437  16.777   6.601   7.053
 9496POPC   C4A57438  16.775   6.622   7.353
 9496POPC   C1B57439  16.560   6.843   6.453
 9496POPC   C2B57440  16.508   6.837   6.753
 9496POPC   C3B57441  16.535   6.816   7.053
 9496POPC   C4B57442  16.488   6.840   7.353
 9497POPC   NC357443  17.469   7.429   5.553
 9497POPC   PO457444  17.486   7.457   5.853
 9497POPC   GL157445  17.548   7.438   6.153
 9497POPC   GL257446  17.504   7.278   6.153
 9497POPC   C1A57447  17.463   7.462   6.453
 9497POPC   D2A57448  17.540   7.405   6.753
 9497POPC   C3A57449  17.523   7.394   7.053
 9497POPC   C4A57450  17.527   7.466   7.353
 9497POPC   C1B57451  17.478   7.211   6.453
 9497POPC   C2B57452  17.505   7.190   6.753
 9497POPC   C3B57453  17.509   7.149   7.053
 9497POPC   C4B57454  17.464   7.181   7.353
 9498POPC   NC357455  17.550  28.410   5.553
 9498POPC   PO457456  17.519  28.362   5.853
 9498POPC   GL157457  17.487  28.406   6.153
 9498POPC   GL257458  17.596  28.440   6.153
 9498POPC   C1A57459  17.548  28.376   6.453
 9498POPC   D2A57460  17.551  28.396   6.753
 9498POPC   C3A57461  17.480  28.387   7.053
 9498POPC   C4A57462  17.548  28.413   7.353
 9498POPC   C1B57463  17.778  28.405   6.453
 9498POPC   C2B57464  17.779  28.472   6.753
 9498POPC   C3B57465  17.734  28.404   7.053
 9498POPC   C4B57466  17.732  28.391   7.353
 9499POPC   NC357467  36.139  26.091   5.553
 9499POPC   PO457468  36.170  26.013   5.853
 9499POPC   GL157469  36.164  26.069   6.153
 9499POPC   GL257470  36.193  25.945   6.153
 9499POPC   C1A57471  36.099  26.052   6.453
 9499POPC   D2A57472  36.136  26.017   6.753
 9499POPC   C3A57473  36.140  26.083   7.053
 9499POPC   C4A57474  36.142  26.023   7.353
 9499POPC   C1B57475  36.278  25.804   6.453
 9499POPC   C2B57476  36.273  25.849   6.753
 9499POPC   C3B57477  36.313  25.869   7.053
 9499POPC   C4B57478  36.278  25.878   7.353
 9500POPC   NC357479  37.722  41.571   5.553
 9500POPC   PO457480  37.686  41.561   5.853
 9500POPC   GL157481  37.674  41.512   6.153
 9500POPC   GL257482  37.675  41.719   6.153
 9500POPC   C1A57483  37.699  41.537   6.453
 9500POPC   D2A57484  37.693  41.516   6.753
 9500POPC   C3A57485  37.709  41.584   7.053
 9500POPC   C4A57486  37.657  41.597   7.353
 9500POPC   C1B57487  37.781  41.827   6.453
 9500POPC   C2B57488  37.741  41.814   6.753
 9500POPC   C3B57489  37.763  41.782   7.053
 9500POPC   C4B57490  37.757  41.827   7.353
 9501POPC   NC357491  28.339  24.458   5.553
 9501POPC   PO457492  28.409  24.482   5.853
 9501POPC   GL157493  28.416  24.448   6.153
 9501POPC   GL257494  28.268  24.524   6.153
 9501POPC   C1A57495  28.396  24.445   6.453
 9501POPC   D2A57496  28.323  24.532   6.753
 9501POPC   C3A57497  28.406  24.454   7.053
 9501POPC   C4A57498  28.330  24.510   7.353
 9501POPC   C1B57499  28.130  24.528   6.453
 9501POPC   C2B57500  28.151  24.556   6.753
 9501POPC   C3B57501  28.174  24.505   7.053
 9501POPC   C4B57502  28.102  24.563   7.353
 9502POPC   NC357503  21.363  11.346   5.553
 9502POPC   PO457504  21.386  11.346   5.853
 9502POPC   GL157505  21.403  11.311   6.153
 9502POPC   GL257506  21.525  11.322   6.153
 9502POPC   C1A57507  21.387  11.323   6.453
 9502POPC   D2A57508  21.354  11.287   6.753
 9502POPC   C3A57509  21.387  11.342   7.053
 9502POPC   C4A57510  21.407  11.272   7.353
 9502POPC   C1B57511  21.579  11.423   6.453
 9502POPC   C2B57512  21.603  11.433   6.753
 9502POPC   C3B57513  21.641  11.443   7.053
 9502POPC   C4B57514  21.617  11.376   7.353
 9503POPC   NC357515  12.850  41.594   5.553
 9503POPC   PO457516  12.817  41.533   5.853
 9503POPC   GL157517  12.886  41.563   6.153
 9503POPC   GL257518  12.975  41.457   6.153
 9503POPC   C1A57519  12.875  41.568   6.453
 9503POPC   D2A57520  12.844  41.584   6.753
 9503POPC   C3A57521  12.897  41.599   7.053
 9503POPC   C4A57522  12.820  41.589   7.353
 9503POPC   C1B57523  13.031  41.487   6.453
 9503POPC   C2B57524  13.090  41.461   6.753
 9503POPC   C3B57525  13.028  41.428   7.053
 9503POPC   C4B57526  13.080  41.424   7.353
 9504POPC   NC357527   3.544  13.638   5.553
 9504POPC   PO457528   3.582  13.616   5.853
 9504POPC   GL157529   3.497  13.605   6.153
 9504POPC   GL257530   3.635  13.712   6.153
 9504POPC   C1A57531   3.561  13.675   6.453
 9504POPC   D2A57532   3.554  13.657   6.753
 9504POPC   C3A57533   3.502  13.665   7.053
 9504POPC   C4A57534   3.576  13.630   7.353
 9504POPC   C1B57535   3.603  13.866   6.453
 9504POPC   C2B57536   3.647  13.895   6.753
 9504POPC   C3B57537   3.679  13.814   7.053
 9504POPC   C4B57538   3.648  13.822   7.353
 9505POPC   NC357539  18.304  39.960   5.553
 9505POPC   PO457540  18.303  40.006   5.853
 9505POPC   GL157541  18.287  40.000   6.153
 9505POPC   GL257542  18.157  39.915   6.153
 9505POPC   C1A57543  18.271  40.009   6.453
 9505POPC   D2A57544  18.316  40.011   6.753
 9505POPC   C3A57545  18.279  39.967   7.053
 9505POPC   C4A57546  18.275  40.036   7.353
 9505POPC   C1B57547  18.097  39.810   6.453
 9505POPC   C2B57548  18.088  39.870   6.753
 9505POPC   C3B57549  18.163  39.842   7.053
 9505POPC   C4B57550  18.096  39.815   7.353
 9506POPC   NC357551  27.596  25.301   5.553
 9506POPC   PO457552  27.606  25.240   5.853
 9506POPC   GL157553  27.577  25.313   6.153
 9506POPC   GL257554  27.658  25.176   6.153
 9506POPC   C1A57555  27.545  25.253   6.453
 9506POPC   D2A57556  27.574  25.291   6.753
 9506POPC   C3A57557  27.544  25.229   7.053
 9506POPC   C4A57558  27.604  25.262   7.353
 9506POPC   C1B57559  27.728  25.067   6.453
 9506POPC   C2B57560  27.632  25.044   6.753
 9506POPC   C3B57561  27.673  24.992   7.053
 9506POPC   C4B57562  27.703  25.045   7.353
 9507POPC   NC357563  17.543   1.955   5.553
 9507POPC   PO457564  17.523   2.024   5.853
 9507POPC   GL157565  17.498   1.966   6.153
 9507POPC   GL257566  17.417   2.117   6.153
 9507POPC   C1A57567  17.534   1.985   6.453
 9507POPC   D2A57568  17.471   2.023   6.753
 9507POPC   C3A57569  17.496   2.012   7.053
 9507POPC   C4A57570  17.475   2.037   7.353
 9507POPC   C1B57571  17.389   2.191   6.453
 9507POPC   C2B57572  17.348   2.233   6.753
 9507POPC   C3B57573  17.332   2.179   7.053
 9507POPC   C4B57574  17.394   2.153   7.353
 9508POPC   NC357575  10.540  23.668   5.553
 9508POPC   PO457576  10.508  23.720   5.853
 9508POPC   GL157577  10.516  23.741   6.153
 9508POPC   GL257578  10.696  23.670   6.153
 9508POPC   C1A57579  10.546  23.694   6.453
 9508POPC   D2A57580  10.534  23.665   6.753
 9508POPC   C3A57581  10.505  23.710   7.053
 9508POPC   C4A57582  10.499  23.748   7.353
 9508POPC   C1B57583  10.737  23.700   6.453
 9508POPC   C2B57584  10.757  23.727   6.753
 9508POPC   C3B57585  10.766  23.673   7.053
 9508POPC   C4B57586  10.731  23.711   7.353
 9509POPC   NC357587  37.642  40.004   5.553
 9509POPC   PO457588  37.673  40.040   5.853
 9509POPC   GL157589  37.644  40.038   6.153
 9509POPC   GL257590  37.759  40.097   6.153
 9509POPC   C1A57591  37.660  40.017   6.453
 9509POPC   D2A57592  37.666  40.005   6.753
 9509POPC   C3A57593  37.714  39.964   7.053
 9509POPC   C4A57594  37.692  39.965   7.353
 9509POPC   C1B57595  37.861  40.170   6.453
 9509POPC   C2B57596  37.917  40.143   6.753
 9509POPC   C3B57597  37.865  40.121   7.053
 9509POPC   C4B57598  37.875  40.164   7.353
 9510POPC   NC357599   8.973  43.856   5.553
 9510POPC   PO457600   8.999  43.925   5.853
 9510POPC   GL157601   8.998  43.898   6.153
 9510POPC   GL257602   9.022  43.806   6.153
 9510POPC   C1A57603   8.970  43.919   6.453
 9510POPC   D2A57604   8.961  43.898   6.753
 9510POPC   C3A57605   8.972  43.918   7.053
 9510POPC   C4A57606   9.017  43.839   7.353
 9510POPC   C1B57607   9.018  43.641   6.453
 9510POPC   C2B57608   9.051  43.637   6.753
 9510POPC   C3B57609   9.054  43.635   7.053
 9510POPC   C4B57610   9.015  43.682   7.353
 9511POPC   NC357611  29.935  21.355   5.553
 9511POPC   PO457612  29.963  21.356   5.853
 9511POPC   GL157613  29.910  21.359   6.153
 9511POPC   GL257614  29.886  21.472   6.153
 9511POPC   C1A57615  29.942  21.381   6.453
 9511POPC   D2A57616  29.924  21.397   6.753
 9511POPC   C3A57617  29.969  21.371   7.053
 9511POPC   C4A57618  29.885  21.410   7.353
 9511POPC   C1B57619  29.791  21.627   6.453
 9511POPC   C2B57620  29.792  21.556   6.753
 9511POPC   C3B57621  29.759  21.630   7.053
 9511POPC   C4B57622  29.815  21.624   7.353
 9512POPC   NC357623  31.486  44.662   5.553
 9512POPC   PO457624  31.483  44.687   5.853
 9512POPC   GL157625  31.459  44.662   6.153
 9512POPC   GL257626  31.550  44.563   6.153
 9512POPC   C1A57627  31.464  44.650   6.453
 9512POPC   D2A57628  31.461  44.677   6.753
 9512POPC   C3A57629  31.442  44.675   7.053
 9512POPC   C4A57630  31.520  44.633   7.353
 9512POPC   C1B57631  31.603  44.506   6.453
 9512POPC   C2B57632  31.609  44.516   6.753
 9512POPC   C3B57633  31.654  44.422   7.053
 9512POPC   C4B57634  31.618  44.420   7.353
 9513POPC   NC357635  12.802  22.917   5.553
 9513POPC   PO457636  12.897  22.982   5.853
 9513POPC   GL157637  12.882  22.930   6.153
 9513POPC   GL257638  13.006  22.930   6.153
 9513POPC   C1A57639  12.862  22.975   6.453
 9513POPC   D2A57640  12.825  22.940   6.753
 9513POPC   C3A57641  12.889  22.964   7.053
 9513POPC   C4A57642  12.841  22.963   7.353
 9513POPC   C1B57643  13.109  22.895   6.453
 9513POPC   C2B57644  13.069  22.937   6.753
 9513POPC   C3B57645  13.102  22.948   7.053
 9513POPC   C4B57646  13.065  22.923   7.353
 9514POPC   NC357647  14.366  37.663   5.553
 9514POPC   PO457648  14.405  37.691   5.853
 9514POPC   GL157649  14.399  37.649   6.153
 9514POPC   GL257650  14.516  37.573   6.153
 9514POPC   C1A57651  14.421  37.641   6.453
 9514POPC   D2A57652  14.420  37.643   6.753
 9514POPC   C3A57653  14.380  37.648   7.053
 9514POPC   C4A57654  14.447  37.709   7.353
 9514POPC   C1B57655  14.595  37.506   6.453
 9514POPC   C2B57656  14.656  37.510   6.753
 9514POPC   C3B57657  14.606  37.499   7.053
 9514POPC   C4B57658  14.609  37.514   7.353
 9515POPC   NC357659  21.342  24.506   5.553
 9515POPC   PO457660  21.377  24.461   5.853
 9515POPC   GL157661  21.386  24.484   6.153
 9515POPC   GL257662  21.377  24.638   6.153
 9515POPC   C1A57663  21.423  24.483   6.453
 9515POPC   D2A57664  21.420  24.502   6.753
 9515POPC   C3A57665  21.368  24.442   7.053
 9515POPC   C4A57666  21.366  24.455   7.353
 9515POPC   C1B57667  21.298  24.728   6.453
 9515POPC   C2B57668  21.344  24.692   6.753
 9515POPC   C3B57669  21.388  24.708   7.053
 9515POPC   C4B57670  21.387  24.764   7.353
 9516POPC   NC357671   8.949  17.514   5.553
 9516POPC   PO457672   8.982  17.502   5.853
 9516POPC   GL157673   8.923  17.539   6.153
 9516POPC   GL257674   9.135  17.464   6.153
 9516POPC   C1A57675   8.985  17.532   6.453
 9516POPC   D2A57676   9.001  17.530   6.753
 9516POPC   C3A57677   8.992  17.546   7.053
 9516POPC   C4A57678   8.979  17.533   7.353
 9516POPC   C1B57679   9.235  17.420   6.453
 9516POPC   C2B57680   9.266  17.430   6.753
 9516POPC   C3B57681   9.214  17.421   7.053
 9516POPC   C4B57682   9.198  17.481   7.353
 9517POPC   NC357683  21.390  40.038   5.553
 9517POPC   PO457684  21.357  40.021   5.853
 9517POPC   GL157685  21.392  39.970   6.153
 9517POPC   GL257686  21.527  40.076   6.153
 9517POPC   C1A57687  21.349  39.982   6.453
 9517POPC   D2A57688  21.384  39.981   6.753
 9517POPC   C3A57689  21.401  40.022   7.053
 9517POPC   C4A57690  21.395  39.974   7.353
 9517POPC   C1B57691  21.585  40.111   6.453
 9517POPC   C2B57692  21.636  40.126   6.753
 9517POPC   C3B57693  21.633  40.061   7.053
 9517POPC   C4B57694  21.660  40.094   7.353
 9518POPC   NC357695  33.025  19.793   5.553
 9518POPC   PO457696  33.019  19.841   5.853
 9518POPC   GL157697  33.011  19.813   6.153
 9518POPC   GL257698  33.118  19.752   6.153
 9518POPC   C1A57699  33.065  19.881   6.453
 9518POPC   D2A57700  33.013  19.790   6.753
 9518POPC   C3A57701  32.991  19.873   7.053
 9518POPC   C4A57702  33.057  19.832   7.353
 9518POPC   C1B57703  33.270  19.738   6.453
 9518POPC   C2B57704  33.220  19.676   6.753
 9518POPC   C3B57705  33.253  19.716   7.053
 9518POPC   C4B57706  33.206  19.702   7.353
 9519POPC   NC357707  40.753   4.341   5.553
 9519POPC   PO457708  40.758   4.318   5.853
 9519POPC   GL157709  40.776   4.360   6.153
 9519POPC   GL257710  40.823   4.221   6.153
 9519POPC   C1A57711  40.816   4.284   6.453
 9519POPC   D2A57712  40.813   4.272   6.753
 9519POPC   C3A57713  40.810   4.313   7.053
 9519POPC   C4A57714  40.818   4.269   7.353
 9519POPC   C1B57715  40.924   4.075   6.453
 9519POPC   C2B57716  40.882   4.058   6.753
 9519POPC   C3B57717  40.914   4.097   7.053
 9519POPC   C4B57718  40.913   4.126   7.353
 9520POPC   NC357719  41.530   5.841   5.553
 9520POPC   PO457720  41.518   5.887   5.853
 9520POPC   GL157721  41.551   5.911   6.153
 9520POPC   GL257722  41.499   5.730   6.153
 9520POPC   C1A57723  41.511   5.839   6.453
 9520POPC   D2A57724  41.574   5.911   6.753
 9520POPC   C3A57725  41.527   5.878   7.053
 9520POPC   C4A57726  41.558   5.838   7.353
 9520POPC   C1B57727  41.476   5.647   6.453
 9520POPC   C2B57728  41.507   5.659   6.753
 9520POPC   C3B57729  41.536   5.625   7.053
 9520POPC   C4B57730  41.541   5.626   7.353
 9521POPC   NC357731  31.457  19.106   5.553
 9521POPC   PO457732  31.496  19.094   5.853
 9521POPC   GL157733  31.501  19.047   6.153
 9521POPC   GL257734  31.505  18.956   6.153
 9521POPC   C1A57735  31.506  19.098   6.453
 9521POPC   D2A57736  31.458  19.079   6.753
 9521POPC   C3A57737  31.518  19.026   7.053
 9521POPC   C4A57738  31.505  19.013   7.353
 9521POPC   C1B57739  31.664  18.859   6.453
 9521POPC   C2B57740  31.595  18.906   6.753
 9521POPC   C3B57741  31.661  18.911   7.053
 9521POPC   C4B57742  31.602  18.872   7.353
 9522POPC   NC357743  25.269  31.460   5.553
 9522POPC   PO457744  25.257  31.494   5.853
 9522POPC   GL157745  25.260  31.448   6.153
 9522POPC   GL257746  25.365  31.542   6.153
 9522POPC   C1A57747  25.235  31.457   6.453
 9522POPC   D2A57748  25.216  31.520   6.753
 9522POPC   C3A57749  25.258  31.423   7.053
 9522POPC   C4A57750  25.310  31.487   7.353
 9522POPC   C1B57751  25.488  31.483   6.453
 9522POPC   C2B57752  25.532  31.531   6.753
 9522POPC   C3B57753  25.505  31.557   7.053
 9522POPC   C4B57754  25.517  31.535   7.353
 9523POPC   NC357755  25.306  13.586   5.553
 9523POPC   PO457756  25.280  13.630   5.853
 9523POPC   GL157757  25.266  13.599   6.153
 9523POPC   GL257758  25.265  13.484   6.153
 9523POPC   C1A57759  25.281  13.676   6.453
 9523POPC   D2A57760  25.286  13.664   6.753
 9523POPC   C3A57761  25.299  13.632   7.053
 9523POPC   C4A57762  25.222  13.587   7.353
 9523POPC   C1B57763  25.155  13.413   6.453
 9523POPC   C2B57764  25.139  13.442   6.753
 9523POPC   C3B57765  25.126  13.444   7.053
 9523POPC   C4B57766  25.150  13.439   7.353
 9524POPC   NC357767  43.065   3.539   5.553
 9524POPC   PO457768  43.081   3.580   5.853
 9524POPC   GL157769  43.099   3.586   6.153
 9524POPC   GL257770  43.021   3.618   6.153
 9524POPC   C1A57771  43.060   3.548   6.453
 9524POPC   D2A57772  43.111   3.535   6.753
 9524POPC   C3A57773  43.142   3.570   7.053
 9524POPC   C4A57774  43.155   3.568   7.353
 9524POPC   C1B57775  42.896   3.592   6.453
 9524POPC   C2B57776  42.867   3.654   6.753
 9524POPC   C3B57777  42.920   3.656   7.053
 9524POPC   C4B57778  42.834   3.616   7.353
 9525POPC   NC357779  36.865   0.482   5.553
 9525POPC   PO457780  36.949   0.401   5.853
 9525POPC   GL157781  36.919   0.408   6.153
 9525POPC   GL257782  36.854   0.591   6.153
 9525POPC   C1A57783  36.880   0.423   6.453
 9525POPC   D2A57784  36.908   0.475   6.753
 9525POPC   C3A57785  36.915   0.458   7.053
 9525POPC   C4A57786  36.874   0.485   7.353
 9525POPC   C1B57787  36.737   0.642   6.453
 9525POPC   C2B57788  36.743   0.658   6.753
 9525POPC   C3B57789  36.793   0.621   7.053
 9525POPC   C4B57790  36.738   0.653   7.353
 9526POPC   NC357791  20.594  30.702   5.553
 9526POPC   PO457792  20.587  30.734   5.853
 9526POPC   GL157793  20.615  30.727   6.153
 9526POPC   GL257794  20.563  30.598   6.153
 9526POPC   C1A57795  20.633  30.668   6.453
 9526POPC   D2A57796  20.651  30.706   6.753
 9526POPC   C3A57797  20.606  30.661   7.053
 9526POPC   C4A57798  20.624  30.680   7.353
 9526POPC   C1B57799  20.548  30.482   6.453
 9526POPC   C2B57800  20.562  30.449   6.753
 9526POPC   C3B57801  20.638  30.482   7.053
 9526POPC   C4B57802  20.575  30.440   7.353
 9527POPC   NC357803  30.664   0.464   5.553
 9527POPC   PO457804  30.732   0.417   5.853
 9527POPC   GL157805  30.648   0.437   6.153
 9527POPC   GL257806  30.548   0.412   6.153
 9527POPC   C1A57807  30.727   0.421   6.453
 9527POPC   D2A57808  30.667   0.484   6.753
 9527POPC   C3A57809  30.718   0.417   7.053
 9527POPC   C4A57810  30.712   0.476   7.353
 9527POPC   C1B57811  30.492   0.372   6.453
 9527POPC   C2B57812  30.408   0.349   6.753
 9527POPC   C3B57813  30.438   0.405   7.053
 9527POPC   C4B57814  30.488   0.379   7.353
 9528POPC   NC357815  12.824   3.530   5.553
 9528POPC   PO457816  12.867   3.521   5.853
 9528POPC   GL157817  12.896   3.511   6.153
 9528POPC   GL257818  12.975   3.581   6.153
 9528POPC   C1A57819  12.842   3.525   6.453
 9528POPC   D2A57820  12.867   3.502   6.753
 9528POPC   C3A57821  12.815   3.541   7.053
 9528POPC   C4A57822  12.830   3.560   7.353
 9528POPC   C1B57823  13.099   3.576   6.453
 9528POPC   C2B57824  13.081   3.580   6.753
 9528POPC   C3B57825  13.146   3.580   7.053
 9528POPC   C4B57826  13.142   3.596   7.353
 9529POPC   NC357827  11.277  39.269   5.553
 9529POPC   PO457828  11.290  39.235   5.853
 9529POPC   GL157829  11.263  39.271   6.153
 9529POPC   GL257830  11.218  39.296   6.153
 9529POPC   C1A57831  11.322  39.197   6.453
 9529POPC   D2A57832  11.267  39.241   6.753
 9529POPC   C3A57833  11.286  39.249   7.053
 9529POPC   C4A57834  11.330  39.204   7.353
 9529POPC   C1B57835  11.091  39.306   6.453
 9529POPC   C2B57836  11.018  39.329   6.753
 9529POPC   C3B57837  11.109  39.313   7.053
 9529POPC   C4B57838  11.104  39.316   7.353
 9530POPC   NC357839  18.330   4.351   5.553
 9530POPC   PO457840  18.327   4.325   5.853
 9530POPC   GL157841  18.328   4.361   6.153
 9530POPC   GL257842  18.384   4.362   6.153
 9530POPC   C1A57843  18.296   4.342   6.453
 9530POPC   D2A57844  18.301   4.308   6.753
 9530POPC   C3A57845  18.331   4.308   7.053
 9530POPC   C4A57846  18.282   4.323   7.353
 9530POPC   C1B57847  18.463   4.510   6.453
 9530POPC   C2B57848  18.498   4.521   6.753
 9530POPC   C3B57849  18.478   4.469   7.053
 9530POPC   C4B57850  18.451   4.512   7.353
 9531POPC   NC357851  26.040  35.369   5.553
 9531POPC   PO457852  26.070  35.378   5.853
 9531POPC   GL157853  26.043  35.325   6.153
 9531POPC   GL257854  26.127  35.414   6.153
 9531POPC   C1A57855  25.992  35.341   6.453
 9531POPC   D2A57856  26.064  35.342   6.753
 9531POPC   C3A57857  26.027  35.401   7.053
 9531POPC   C4A57858  26.090  35.332   7.353
 9531POPC   C1B57859  26.293  35.478   6.453
 9531POPC   C2B57860  26.255  35.487   6.753
 9531POPC   C3B57861  26.259  35.474   7.053
 9531POPC   C4B57862  26.249  35.512   7.353
 9532POPC   NC357863   7.422  14.369   5.553
 9532POPC   PO457864   7.392  14.446   5.853
 9532POPC   GL157865   7.468  14.419   6.153
 9532POPC   GL257866   7.462  14.288   6.153
 9532POPC   C1A57867   7.395  14.427   6.453
 9532POPC   D2A57868   7.450  14.414   6.753
 9532POPC   C3A57869   7.373  14.424   7.053
 9532POPC   C4A57870   7.394  14.433   7.353
 9532POPC   C1B57871   7.386  14.111   6.453
 9532POPC   C2B57872   7.409  14.163   6.753
 9532POPC   C3B57873   7.390  14.117   7.053
 9532POPC   C4B57874   7.442  14.180   7.353
 9533POPC   NC357875  24.442  26.079   5.553
 9533POPC   PO457876  24.452  26.025   5.853
 9533POPC   GL157877  24.498  26.018   6.153
 9533POPC   GL257878  24.574  26.058   6.153
 9533POPC   C1A57879  24.523  26.018   6.453
 9533POPC   D2A57880  24.468  26.080   6.753
 9533POPC   C3A57881  24.527  26.023   7.053
 9533POPC   C4A57882  24.454  26.023   7.353
 9533POPC   C1B57883  24.688  25.962   6.453
 9533POPC   C2B57884  24.699  25.960   6.753
 9533POPC   C3B57885  24.760  26.037   7.053
 9533POPC   C4B57886  24.784  26.018   7.353
 9534POPC   NC357887  22.166  42.298   5.553
 9534POPC   PO457888  22.124  42.350   5.853
 9534POPC   GL157889  22.182  42.294   6.153
 9534POPC   GL257890  22.034  42.350   6.153
 9534POPC   C1A57891  22.162  42.312   6.453
 9534POPC   D2A57892  22.159  42.354   6.753
 9534POPC   C3A57893  22.132  42.311   7.053
 9534POPC   C4A57894  22.206  42.304   7.353
 9534POPC   C1B57895  21.909  42.314   6.453
 9534POPC   C2B57896  21.889  42.276   6.753
 9534POPC   C3B57897  21.951  42.275   7.053
 9534POPC   C4B57898  21.932  42.277   7.353
 9535POPC   NC357899  29.096  36.170   5.553
 9535POPC   PO457900  29.162  36.109   5.853
 9535POPC   GL157901  29.132  36.158   6.153
 9535POPC   GL257902  29.068  36.275   6.153
 9535POPC   C1A57903  29.113  36.089   6.453
 9535POPC   D2A57904  29.170  36.114   6.753
 9535POPC   C3A57905  29.188  36.163   7.053
 9535POPC   C4A57906  29.150  36.115   7.353
 9535POPC   C1B57907  29.070  36.406   6.453
 9535POPC   C2B57908  29.046  36.383   6.753
 9535POPC   C3B57909  29.086  36.327   7.053
 9535POPC   C4B57910  29.131  36.408   7.353
 9536POPC   NC357911  19.879  21.367   5.553
 9536POPC   PO457912  19.795  21.350   5.853
 9536POPC   GL157913  19.844  21.432   6.153
 9536POPC   GL257914  19.833  21.526   6.153
 9536POPC   C1A57915  19.861  21.339   6.453
 9536POPC   D2A57916  19.808  21.360   6.753
 9536POPC   C3A57917  19.831  21.345   7.053
 9536POPC   C4A57918  19.860  21.384   7.353
 9536POPC   C1B57919  19.792  21.655   6.453
 9536POPC   C2B57920  19.757  21.591   6.753
 9536POPC   C3B57921  19.735  21.601   7.053
 9536POPC   C4B57922  19.738  21.643   7.353
 9537POPC   NC357923  43.880  29.103   5.553
 9537POPC   PO457924  43.892  29.166   5.853
 9537POPC   GL157925  43.912  29.129   6.153
 9537POPC   GL257926  43.933  29.213   6.153
 9537POPC   C1A57927  43.843  29.182   6.453
 9537POPC   D2A57928  43.852  29.115   6.753
 9537POPC   C3A57929  43.907  29.117   7.053
 9537POPC   C4A57930  43.848  29.134   7.353
 9537POPC   C1B57931  44.088  29.324   6.453
 9537POPC   C2B57932  44.028  29.363   6.753
 9537POPC   C3B57933  44.043  29.315   7.053
 9537POPC   C4B57934  44.055  29.323   7.353
 9538POPC   NC357935  26.027  36.124   5.553
 9538POPC   PO457936  26.014  36.093   5.853
 9538POPC   GL157937  26.022  36.160   6.153
 9538POPC   GL257938  26.085  36.260   6.153
 9538POPC   C1A57939  26.088  36.136   6.453
 9538POPC   D2A57940  26.063  36.148   6.753
 9538POPC   C3A57941  26.030  36.173   7.053
 9538POPC   C4A57942  26.077  36.113   7.353
 9538POPC   C1B57943  26.210  36.278   6.453
 9538POPC   C2B57944  26.251  36.293   6.753
 9538POPC   C3B57945  26.202  36.331   7.053
 9538POPC   C4B57946  26.249  36.319   7.353
 9539POPC   NC357947  34.553  22.138   5.553
 9539POPC   PO457948  34.570  22.123   5.853
 9539POPC   GL157949  34.535  22.183   6.153
 9539POPC   GL257950  34.602  22.079   6.153
 9539POPC   C1A57951  34.539  22.176   6.453
 9539POPC   D2A57952  34.597  22.156   6.753
 9539POPC   C3A57953  34.530  22.166   7.053
 9539POPC   C4A57954  34.541  22.145   7.353
 9539POPC   C1B57955  34.662  21.896   6.453
 9539POPC   C2B57956  34.661  21.895   6.753
 9539POPC   C3B57957  34.606  21.956   7.053
 9539POPC   C4B57958  34.654  21.941   7.353
 9540POPC   NC357959  10.503   2.007   5.553
 9540POPC   PO457960  10.554   2.012   5.853
 9540POPC   GL157961  10.505   1.972   6.153
 9540POPC   GL257962  10.616   1.887   6.153
 9540POPC   C1A57963  10.558   1.965   6.453
 9540POPC   D2A57964  10.559   1.969   6.753
 9540POPC   C3A57965  10.493   1.985   7.053
 9540POPC   C4A57966  10.532   2.028   7.353
 9540POPC   C1B57967  10.771   1.884   6.453
 9540POPC   C2B57968  10.781   1.866   6.753
 9540POPC   C3B57969  10.774   1.854   7.053
 9540POPC   C4B57970  10.710   1.810   7.353
 9541POPC   NC357971  24.535  21.416   5.553
 9541POPC   PO457972  24.517  21.435   5.853
 9541POPC   GL157973  24.453  21.410   6.153
 9541POPC   GL257974  24.544  21.421   6.153
 9541POPC   C1A57975  24.456  21.416   6.453
 9541POPC   D2A57976  24.453  21.373   6.753
 9541POPC   C3A57977  24.459  21.432   7.053
 9541POPC   C4A57978  24.472  21.372   7.353
 9541POPC   C1B57979  24.683  21.597   6.453
 9541POPC   C2B57980  24.632  21.591   6.753
 9541POPC   C3B57981  24.699  21.534   7.053
 9541POPC   C4B57982  24.683  21.566   7.353
 9542POPC   NC357983  12.098  43.858   5.553
 9542POPC   PO457984  12.071  43.840   5.853
 9542POPC   GL157985  12.122  43.868   6.153
 9542POPC   GL257986  11.931  43.892   6.153
 9542POPC   C1A57987  12.037  43.875   6.453
 9542POPC   D2A57988  12.049  43.931   6.753
 9542POPC   C3A57989  12.062  43.839   7.053
 9542POPC   C4A57990  12.115  43.897   7.353
 9542POPC   C1B57991  11.809  43.800   6.453
 9542POPC   C2B57992  11.864  43.833   6.753
 9542POPC   C3B57993  11.799  43.828   7.053
 9542POPC   C4B57994  11.873  43.819   7.353
 9543POPC   NC357995   9.781  21.369   5.553
 9543POPC   PO457996   9.711  21.400   5.853
 9543POPC   GL157997   9.761  21.419   6.153
 9543POPC   GL257998   9.721  21.450   6.153
 9543POPC   C1A57999   9.763  21.352   6.453
 9543POPC   D2A58000   9.712  21.337   6.753
 9543POPC   C3A58001   9.705  21.359   7.053
 9543POPC   C4A58002   9.783  21.431   7.353
 9543POPC   C1B58003   9.685  21.656   6.453
 9543POPC   C2B58004   9.593  21.619   6.753
 9543POPC   C3B58005   9.687  21.640   7.053
 9543POPC   C4B58006   9.669  21.631   7.353
 9544POPC   NC358007  43.151  15.916   5.553
 9544POPC   PO458008  43.095  15.959   5.853
 9544POPC   GL158009  43.064  15.975   6.153
 9544POPC   GL258010  43.246  16.003   6.153
 9544POPC   C1A58011  43.117  16.003   6.453
 9544POPC   D2A58012  43.134  15.976   6.753
 9544POPC   C3A58013  43.084  15.920   7.053
 9544POPC   C4A58014  43.065  15.995   7.353
 9544POPC   C1B58015  43.374  15.976   6.453
 9544POPC   C2B58016  43.372  16.006   6.753
 9544POPC   C3B58017  43.388  15.970   7.053
 9544POPC   C4B58018  43.338  15.959   7.353
 9545POPC   NC358019  20.565  12.036   5.553
 9545POPC   PO458020  20.586  12.070   5.853
 9545POPC   GL158021  20.616  12.030   6.153
 9545POPC   GL258022  20.446  12.012   6.153
 9545POPC   C1A58023  20.572  12.029   6.453
 9545POPC   D2A58024  20.583  12.072   6.753
 9545POPC   C3A58025  20.660  12.117   7.053
 9545POPC   C4A58026  20.647  12.092   7.353
 9545POPC   C1B58027  20.410  12.022   6.453
 9545POPC   C2B58028  20.430  11.964   6.753
 9545POPC   C3B58029  20.372  11.999   7.053
 9545POPC   C4B58030  20.373  12.009   7.353
 9546POPC   NC358031  12.036  10.492   5.553
 9546POPC   PO458032  12.037  10.481   5.853
 9546POPC   GL158033  12.095  10.515   6.153
 9546POPC   GL258034  12.098  10.401   6.153
 9546POPC   C1A58035  12.029  10.563   6.453
 9546POPC   D2A58036  12.035  10.505   6.753
 9546POPC   C3A58037  12.030  10.568   7.053
 9546POPC   C4A58038  12.109  10.564   7.353
 9546POPC   C1B58039  12.057  10.231   6.453
 9546POPC   C2B58040  12.052  10.300   6.753
 9546POPC   C3B58041  12.067  10.276   7.053
 9546POPC   C4B58042  12.053  10.267   7.353
 9547POPC   NC358043  26.840  25.229   5.553
 9547POPC   PO458044  26.852  25.292   5.853
 9547POPC   GL158045  26.844  25.313   6.153
 9547POPC   GL258046  26.962  25.158   6.153
 9547POPC   C1A58047  26.846  25.309   6.453
 9547POPC   D2A58048  26.845  25.245   6.753
 9547POPC   C3A58049  26.835  25.290   7.053
 9547POPC   C4A58050  26.775  25.287   7.353
 9547POPC   C1B58051  27.037  25.113   6.453
 9547POPC   C2B58052  27.004  25.131   6.753
 9547POPC   C3B58053  27.070  25.130   7.053
 9547POPC   C4B58054  27.047  25.103   7.353
 9548POPC   NC358055  34.564  27.624   5.553
 9548POPC   PO458056  34.619  27.557   5.853
 9548POPC   GL158057  34.621  27.627   6.153
 9548POPC   GL258058  34.734  27.599   6.153
 9548POPC   C1A58059  34.612  27.627   6.453
 9548POPC   D2A58060  34.622  27.547   6.753
 9548POPC   C3A58061  34.568  27.550   7.053
 9548POPC   C4A58062  34.545  27.574   7.353
 9548POPC   C1B58063  34.801  27.671   6.453
 9548POPC   C2B58064  34.824  27.668   6.753
 9548POPC   C3B58065  34.797  27.664   7.053
 9548POPC   C4B58066  34.795  27.721   7.353
 9549POPC   NC358067   7.384   2.807   5.553
 9549POPC   PO458068   7.383   2.739   5.853
 9549POPC   GL158069   7.427   2.773   6.153
 9549POPC   GL258070   7.451   2.889   6.153
 9549POPC   C1A58071   7.415   2.733   6.453
 9549POPC   D2A58072   7.453   2.787   6.753
 9549POPC   C3A58073   7.444   2.781   7.053
 9549POPC   C4A58074   7.448   2.722   7.353
 9549POPC   C1B58075   7.404   2.979   6.453
 9549POPC   C2B58076   7.417   2.995   6.753
 9549POPC   C3B58077   7.393   3.036   7.053
 9549POPC   C4B58078   7.385   3.015   7.353
 9550POPC   NC358079  28.336  26.772   5.553
 9550POPC   PO458080  28.327  26.846   5.853
 9550POPC   GL158081  28.325  26.828   6.153
 9550POPC   GL258082  28.348  26.976   6.153
 9550POPC   C1A58083  28.405  26.806   6.453
 9550POPC   D2A58084  28.330  26.800   6.753
 9550POPC   C3A58085  28.375  26.801   7.053
 9550POPC   C4A58086  28.343  26.796   7.353
 9550POPC   C1B58087  28.400  27.015   6.453
 9550POPC   C2B58088  28.432  27.110   6.753
 9550POPC   C3B58089  28.424  27.037   7.053
 9550POPC   C4B58090  28.398  27.073   7.353
 9551POPC   NC358091   5.066  16.716   5.553
 9551POPC   PO458092   5.093  16.683   5.853
 9551POPC   GL158093   5.075  16.740   6.153
 9551POPC   GL258094   4.978  16.633   6.153
 9551POPC   C1A58095   5.073  16.743   6.453
 9551POPC   D2A58096   5.081  16.780   6.753
 9551POPC   C3A58097   5.045  16.713   7.053
 9551POPC   C4A58098   5.120  16.720   7.353
 9551POPC   C1B58099   4.841  16.629   6.453
 9551POPC   C2B58100   4.839  16.645   6.753
 9551POPC   C3B58101   4.816  16.663   7.053
 9551POPC   C4B58102   4.904  16.665   7.353
 9552POPC   NC358103   6.616   8.984   5.553
 9552POPC   PO458104   6.656   9.004   5.853
 9552POPC   GL158105   6.602   8.982   6.153
 9552POPC   GL258106   6.493   9.071   6.153
 9552POPC   C1A58107   6.625   8.988   6.453
 9552POPC   D2A58108   6.655   8.954   6.753
 9552POPC   C3A58109   6.688   8.948   7.053
 9552POPC   C4A58110   6.629   9.012   7.353
 9552POPC   C1B58111   6.410   9.067   6.453
 9552POPC   C2B58112   6.406   9.105   6.753
 9552POPC   C3B58113   6.384   9.125   7.053
 9552POPC   C4B58114   6.387   9.121   7.353
 9553POPC   NC358115  26.837   6.607   5.553
 9553POPC   PO458116  26.776   6.690   5.853
 9553POPC   GL158117  26.851   6.680   6.153
 9553POPC   GL258118  26.878   6.517   6.153
 9553POPC   C1A58119  26.785   6.666   6.453
 9553POPC   D2A58120  26.786   6.610   6.753
 9553POPC   C3A58121  26.834   6.596   7.053
 9553POPC   C4A58122  26.780   6.656   7.353
 9553POPC   C1B58123  26.818   6.426   6.453
 9553POPC   C2B58124  26.793   6.398   6.753
 9553POPC   C3B58125  26.848   6.391   7.053
 9553POPC   C4B58126  26.888   6.389   7.353
 9554POPC   NC358127  21.368  22.162   5.553
 9554POPC   PO458128  21.415  22.154   5.853
 9554POPC   GL158129  21.423  22.170   6.153
 9554POPC   GL258130  21.519  22.155   6.153
 9554POPC   C1A58131  21.364  22.160   6.453
 9554POPC   D2A58132  21.358  22.173   6.753
 9554POPC   C3A58133  21.393  22.128   7.053
 9554POPC   C4A58134  21.430  22.164   7.353
 9554POPC   C1B58135  21.588  22.193   6.453
 9554POPC   C2B58136  21.624  22.264   6.753
 9554POPC   C3B58137  21.617  22.261   7.053
 9554POPC   C4B58138  21.601  22.215   7.353
 9555POPC   NC358139  36.916  32.974   5.553
 9555POPC   PO458140  36.903  33.030   5.853
 9555POPC   GL158141  36.903  33.065   6.153
 9555POPC   GL258142  36.968  33.120   6.153
 9555POPC   C1A58143  36.859  32.978   6.453
 9555POPC   D2A58144  36.913  33.030   6.753
 9555POPC   C3A58145  36.862  32.985   7.053
 9555POPC   C4A58146  36.892  33.040   7.353
 9555POPC   C1B58147  37.111  33.186   6.453
 9555POPC   C2B58148  37.069  33.218   6.753
 9555POPC   C3B58149  37.142  33.175   7.053
 9555POPC   C4B58150  37.068  33.187   7.353
 9556POPC   NC358151  11.252  20.648   5.553
 9556POPC   PO458152  11.316  20.640   5.853
 9556POPC   GL158153  11.256  20.603   6.153
 9556POPC   GL258154  11.275  20.531   6.153
 9556POPC   C1A58155  11.333  20.635   6.453
 9556POPC   D2A58156  11.285  20.627   6.753
 9556POPC   C3A58157  11.266  20.580   7.053
 9556POPC   C4A58158  11.325  20.632   7.353
 9556POPC   C1B58159  11.300  20.380   6.453
 9556POPC   C2B58160  11.346  20.358   6.753
 9556POPC   C3B58161  11.344  20.366   7.053
 9556POPC   C4B58162  11.316  20.400   7.353
 9557POPC   NC358163   6.643  34.579   5.553
 9557POPC   PO458164   6.625  34.575   5.853
 9557POPC   GL158165   6.665  34.611   6.153
 9557POPC   GL258166   6.615  34.730   6.153
 9557POPC   C1A58167   6.692  34.601   6.453
 9557POPC   D2A58168   6.671  34.543   6.753
 9557POPC   C3A58169   6.636  34.544   7.053
 9557POPC   C4A58170   6.677  34.530   7.353
 9557POPC   C1B58171   6.508  34.778   6.453
 9557POPC   C2B58172   6.502  34.756   6.753
 9557POPC   C3B58173   6.520  34.761   7.053
 9557POPC   C4B58174   6.521  34.783   7.353
 9558POPC   NC358175  13.642  39.976   5.553
 9558POPC   PO458176  13.619  39.971   5.853
 9558POPC   GL158177  13.612  40.053   6.153
 9558POPC   GL258178  13.637  40.171   6.153
 9558POPC   C1A58179  13.618  39.970   6.453
 9558POPC   D2A58180  13.604  39.996   6.753
 9558POPC   C3A58181  13.603  40.037   7.053
 9558POPC   C4A58182  13.650  39.979   7.353
 9558POPC   C1B58183  13.581  40.259   6.453
 9558POPC   C2B58184  13.623  40.276   6.753
 9558POPC   C3B58185  13.560  40.260   7.053
 9558POPC   C4B58186  13.619  40.278   7.353
 9559POPC   NC358187  29.947  42.300   5.553
 9559POPC   PO458188  29.886  42.305   5.853
 9559POPC   GL158189  29.915  42.313   6.153
 9559POPC   GL258190  29.977  42.231   6.153
 9559POPC   C1A58191  29.902  42.310   6.453
 9559POPC   D2A58192  29.871  42.308   6.753
 9559POPC   C3A58193  29.897  42.307   7.053
 9559POPC   C4A58194  29.886  42.384   7.353
 9559POPC   C1B58195  30.001  42.148   6.453
 9559POPC   C2B58196  30.034  42.165   6.753
 9559POPC   C3B58197  30.029  42.108   7.053
 9559POPC   C4B58198  30.014  42.109   7.353
 9560POPC   NC358199  43.078  43.145   5.553
 9560POPC   PO458200  43.101  43.159   5.853
 9560POPC   GL158201  43.122  43.119   6.153
 9560POPC   GL258202  43.071  43.023   6.153
 9560POPC   C1A58203  43.143  43.113   6.453
 9560POPC   D2A58204  43.125  43.071   6.753
 9560POPC   C3A58205  43.148  43.095   7.053
 9560POPC   C4A58206  43.073  43.061   7.353
 9560POPC   C1B58207  43.040  42.823   6.453
 9560POPC   C2B58208  43.056  42.826   6.753
 9560POPC   C3B58209  43.012  42.880   7.053
 9560POPC   C4B58210  43.007  42.895   7.353
 9561POPC   NC358211  10.569  32.270   5.553
 9561POPC   PO458212  10.524  32.291   5.853
 9561POPC   GL158213  10.562  32.204   6.153
 9561POPC   GL258214  10.426  32.337   6.153
 9561POPC   C1A58215  10.563  32.295   6.453
 9561POPC   D2A58216  10.542  32.289   6.753
 9561POPC   C3A58217  10.477  32.247   7.053
 9561POPC   C4A58218  10.557  32.224   7.353
 9561POPC   C1B58219  10.335  32.413   6.453
 9561POPC   C2B58220  10.378  32.413   6.753
 9561POPC   C3B58221  10.368  32.396   7.053
 9561POPC   C4B58222  10.340  32.465   7.353
 9562POPC   NC358223  10.566   9.790   5.553
 9562POPC   PO458224  10.544   9.787   5.853
 9562POPC   GL158225  10.534   9.782   6.153
 9562POPC   GL258226  10.466   9.840   6.153
 9562POPC   C1A58227  10.549   9.721   6.453
 9562POPC   D2A58228  10.516   9.720   6.753
 9562POPC   C3A58229  10.501   9.748   7.053
 9562POPC   C4A58230  10.537   9.778   7.353
 9562POPC   C1B58231  10.351   9.967   6.453
 9562POPC   C2B58232  10.348   9.959   6.753
 9562POPC   C3B58233  10.407   9.941   7.053
 9562POPC   C4B58234  10.326   9.982   7.353
 9563POPC   NC358235  44.692   8.202   5.553
 9563POPC   PO458236  44.668   8.161   5.853
 9563POPC   GL158237  44.656   8.239   6.153
 9563POPC   GL258238  44.632   8.303   6.153
 9563POPC   C1A58239  44.622   8.166   6.453
 9563POPC   D2A58240  44.621   8.242   6.753
 9563POPC   C3A58241  44.685   8.170   7.053
 9563POPC   C4A58242  44.628   8.153   7.353
 9563POPC   C1B58243  44.682   8.429   6.453
 9563POPC   C2B58244  44.632   8.430   6.753
 9563POPC   C3B58245  44.624   8.435   7.053
 9563POPC   C4B58246  44.632   8.403   7.353
 9564POPC   NC358247  38.501  19.792   5.553
 9564POPC   PO458248  38.480  19.785   5.853
 9564POPC   GL158249  38.501  19.794   6.153
 9564POPC   GL258250  38.483  19.718   6.153
 9564POPC   C1A58251  38.431  19.796   6.453
 9564POPC   D2A58252  38.444  19.825   6.753
 9564POPC   C3A58253  38.471  19.860   7.053
 9564POPC   C4A58254  38.428  19.867   7.353
 9564POPC   C1B58255  38.528  19.595   6.453
 9564POPC   C2B58256  38.565  19.641   6.753
 9564POPC   C3B58257  38.541  19.644   7.053
 9564POPC   C4B58258  38.580  19.599   7.353
 9565POPC   NC358259  33.838  35.363   5.553
 9565POPC   PO458260  33.831  35.307   5.853
 9565POPC   GL158261  33.798  35.368   6.153
 9565POPC   GL258262  33.775  35.493   6.153
 9565POPC   C1A58263  33.796  35.363   6.453
 9565POPC   D2A58264  33.815  35.343   6.753
 9565POPC   C3A58265  33.797  35.356   7.053
 9565POPC   C4A58266  33.842  35.392   7.353
 9565POPC   C1B58267  33.856  35.623   6.453
 9565POPC   C2B58268  33.836  35.599   6.753
 9565POPC   C3B58269  33.806  35.649   7.053
 9565POPC   C4B58270  33.798  35.576   7.353
 9566POPC   NC358271  34.590  41.562   5.553
 9566POPC   PO458272  34.620  41.511   5.853
 9566POPC   GL158273  34.550  41.525   6.153
 9566POPC   GL258274  34.650  41.642   6.153
 9566POPC   C1A58275  34.546  41.601   6.453
 9566POPC   D2A58276  34.547  41.518   6.753
 9566POPC   C3A58277  34.575  41.566   7.053
 9566POPC   C4A58278  34.528  41.543   7.353
 9566POPC   C1B58279  34.737  41.734   6.453
 9566POPC   C2B58280  34.763  41.749   6.753
 9566POPC   C3B58281  34.738  41.816   7.053
 9566POPC   C4B58282  34.690  41.731   7.353
 9567POPC   NC358283   5.871  35.369   5.553
 9567POPC   PO458284   5.901  35.309   5.853
 9567POPC   GL158285   5.865  35.308   6.153
 9567POPC   GL258286   5.724  35.403   6.153
 9567POPC   C1A58287   5.849  35.302   6.453
 9567POPC   D2A58288   5.869  35.398   6.753
 9567POPC   C3A58289   5.872  35.302   7.053
 9567POPC   C4A58290   5.831  35.341   7.353
 9567POPC   C1B58291   5.589  35.413   6.453
 9567POPC   C2B58292   5.592  35.405   6.753
 9567POPC   C3B58293   5.621  35.417   7.053
 9567POPC   C4B58294   5.660  35.399   7.353
 9568POPC   NC358295  34.571  29.187   5.553
 9568POPC   PO458296  34.538  29.191   5.853
 9568POPC   GL158297  34.570  29.109   6.153
 9568POPC   GL258298  34.562  29.224   6.153
 9568POPC   C1A58299  34.577  29.180   6.453
 9568POPC   D2A58300  34.554  29.164   6.753
 9568POPC   C3A58301  34.539  29.184   7.053
 9568POPC   C4A58302  34.584  29.169   7.353
 9568POPC   C1B58303  34.519  29.376   6.453
 9568POPC   C2B58304  34.482  29.411   6.753
 9568POPC   C3B58305  34.473  29.344   7.053
 9568POPC   C4B58306  34.488  29.356   7.353
 9569POPC   NC358307  28.354  19.812   5.553
 9569POPC   PO458308  28.357  19.798   5.853
 9569POPC   GL158309  28.334  19.843   6.153
 9569POPC   GL258310  28.212  19.888   6.153
 9569POPC   C1A58311  28.395  19.863   6.453
 9569POPC   D2A58312  28.351  19.803   6.753
 9569POPC   C3A58313  28.336  19.867   7.053
 9569POPC   C4A58314  28.329  19.799   7.353
 9569POPC   C1B58315  28.129  19.847   6.453
 9569POPC   C2B58316  28.164  19.886   6.753
 9569POPC   C3B58317  28.113  19.939   7.053
 9569POPC   C4B58318  28.159  19.884   7.353
 9570POPC   NC358319   4.358  19.026   5.553
 9570POPC   PO458320   4.303  19.079   5.853
 9570POPC   GL158321   4.288  19.021   6.153
 9570POPC   GL258322   4.283  18.978   6.153
 9570POPC   C1A58323   4.315  19.031   6.453
 9570POPC   D2A58324   4.364  19.050   6.753
 9570POPC   C3A58325   4.343  19.057   7.053
 9570POPC   C4A58326   4.302  19.022   7.353
 9570POPC   C1B58327   4.183  18.900   6.453
 9570POPC   C2B58328   4.209  18.896   6.753
 9570POPC   C3B58329   4.150  18.892   7.053
 9570POPC   C4B58330   4.170  18.895   7.353
 9571POPC   NC358331  43.151   5.047   5.553
 9571POPC   PO458332  43.116   5.085   5.853
 9571POPC   GL158333  43.062   5.115   6.153
 9571POPC   GL258334  43.196   5.100   6.153
 9571POPC   C1A58335  43.103   5.061   6.453
 9571POPC   D2A58336  43.115   5.129   6.753
 9571POPC   C3A58337  43.160   5.077   7.053
 9571POPC   C4A58338  43.150   5.122   7.353
 9571POPC   C1B58339  43.343   5.073   6.453
 9571POPC   C2B58340  43.328   5.116   6.753
 9571POPC   C3B58341  43.386   5.094   7.053
 9571POPC   C4B58342  43.347   5.055   7.353
 9572POPC   NC358343  41.523  26.091   5.553
 9572POPC   PO458344  41.542  26.024   5.853
 9572POPC   GL158345  41.601  26.064   6.153
 9572POPC   GL258346  41.638  25.966   6.153
 9572POPC   C1A58347  41.606  26.091   6.453
 9572POPC   D2A58348  41.530  26.033   6.753
 9572POPC   C3A58349  41.510  26.026   7.053
 9572POPC   C4A58350  41.569  26.034   7.353
 9572POPC   C1B58351  41.766  25.884   6.453
 9572POPC   C2B58352  41.806  25.887   6.753
 9572POPC   C3B58353  41.800  25.941   7.053
 9572POPC   C4B58354  41.779  25.939   7.353
 9573POPC   NC358355  18.329   5.911   5.553
 9573POPC   PO458356  18.273   5.819   5.853
 9573POPC   GL158357  18.319   5.859   6.153
 9573POPC   GL258358  18.205   5.987   6.153
 9573POPC   C1A58359  18.254   5.865   6.453
 9573POPC   D2A58360  18.333   5.904   6.753
 9573POPC   C3A58361  18.323   5.913   7.053
 9573POPC   C4A58362  18.249   5.849   7.353
 9573POPC   C1B58363  18.100   6.052   6.453
 9573POPC   C2B58364  18.050   6.050   6.753
 9573POPC   C3B58365  18.074   5.971   7.053
 9573POPC   C4B58366  18.074   6.011   7.353
 9574POPC   NC358367  30.686  22.956   5.553
 9574POPC   PO458368  30.674  22.946   5.853
 9574POPC   GL158369  30.662  22.896   6.153
 9574POPC   GL258370  30.618  22.816   6.153
 9574POPC   C1A58371  30.654  22.898   6.453
 9574POPC   D2A58372  30.740  22.928   6.753
 9574POPC   C3A58373  30.670  22.926   7.053
 9574POPC   C4A58374  30.665  22.986   7.353
 9574POPC   C1B58375  30.616  22.666   6.453
 9574POPC   C2B58376  30.667  22.727   6.753
 9574POPC   C3B58377  30.586  22.669   7.053
 9574POPC   C4B58378  30.652  22.684   7.353
 9575POPC   NC358379  24.509   2.016   5.553
 9575POPC   PO458380  24.507   2.038   5.853
 9575POPC   GL158381  24.534   1.984   6.153
 9575POPC   GL258382  24.495   1.861   6.153
 9575POPC   C1A58383  24.512   1.961   6.453
 9575POPC   D2A58384  24.512   2.018   6.753
 9575POPC   C3A58385  24.491   1.972   7.053
 9575POPC   C4A58386  24.506   2.010   7.353
 9575POPC   C1B58387  24.586   1.749   6.453
 9575POPC   C2B58388  24.549   1.765   6.753
 9575POPC   C3B58389  24.566   1.728   7.053
 9575POPC   C4B58390  24.556   1.751   7.353
 9576POPC   NC358391   8.987   1.205   5.553
 9576POPC   PO458392   8.971   1.165   5.853
 9576POPC   GL158393   9.015   1.191   6.153
 9576POPC   GL258394   8.905   1.303   6.153
 9576POPC   C1A58395   9.001   1.172   6.453
 9576POPC   D2A58396   8.974   1.166   6.753
 9576POPC   C3A58397   8.952   1.167   7.053
 9576POPC   C4A58398   8.926   1.261   7.353
 9576POPC   C1B58399   8.820   1.371   6.453
 9576POPC   C2B58400   8.855   1.432   6.753
 9576POPC   C3B58401   8.859   1.409   7.053
 9576POPC   C4B58402   8.827   1.419   7.353
 9577POPC   NC358403  14.435   6.673   5.553
 9577POPC   PO458404  14.388   6.677   5.853
 9577POPC   GL158405  14.423   6.623   6.153
 9577POPC   GL258406  14.360   6.501   6.153
 9577POPC   C1A58407  14.355   6.651   6.453
 9577POPC   D2A58408  14.400   6.633   6.753
 9577POPC   C3A58409  14.381   6.611   7.053
 9577POPC   C4A58410  14.396   6.614   7.353
 9577POPC   C1B58411  14.253   6.460   6.453
 9577POPC   C2B58412  14.305   6.479   6.753
 9577POPC   C3B58413  14.255   6.453   7.053
 9577POPC   C4B58414  14.222   6.451   7.353
 9578POPC   NC358415  23.671  23.750   5.553
 9578POPC   PO458416  23.667  23.755   5.853
 9578POPC   GL158417  23.724  23.742   6.153
 9578POPC   GL258418  23.707  23.619   6.153
 9578POPC   C1A58419  23.728  23.752   6.453
 9578POPC   D2A58420  23.664  23.747   6.753
 9578POPC   C3A58421  23.692  23.695   7.053
 9578POPC   C4A58422  23.737  23.688   7.353
 9578POPC   C1B58423  23.626  23.522   6.453
 9578POPC   C2B58424  23.571  23.503   6.753
 9578POPC   C3B58425  23.635  23.464   7.053
 9578POPC   C4B58426  23.574  23.504   7.353
 9579POPC   NC358427  14.398   1.234   5.553
 9579POPC   PO458428  14.382   1.246   5.853
 9579POPC   GL158429  14.398   1.218   6.153
 9579POPC   GL258430  14.529   1.213   6.153
 9579POPC   C1A58431  14.372   1.197   6.453
 9579POPC   D2A58432  14.359   1.222   6.753
 9579POPC   C3A58433  14.367   1.199   7.053
 9579POPC   C4A58434  14.359   1.181   7.353
 9579POPC   C1B58435  14.621   1.108   6.453
 9579POPC   C2B58436  14.608   1.150   6.753
 9579POPC   C3B58437  14.646   1.160   7.053
 9579POPC   C4B58438  14.661   1.070   7.353
 9580POPC   NC358439  15.913   7.435   5.553
 9580POPC   PO458440  15.937   7.394   5.853
 9580POPC   GL158441  15.954   7.435   6.153
 9580POPC   GL258442  16.109   7.404   6.153
 9580POPC   C1A58443  15.992   7.372   6.453
 9580POPC   D2A58444  15.923   7.463   6.753
 9580POPC   C3A58445  15.996   7.467   7.053
 9580POPC   C4A58446  15.987   7.447   7.353
 9580POPC   C1B58447  16.252   7.388   6.453
 9580POPC   C2B58448  16.172   7.340   6.753
 9580POPC   C3B58449  16.176   7.367   7.053
 9580POPC   C4B58450  16.215   7.346   7.353
 9581POPC   NC358451   0.483  28.392   5.553
 9581POPC   PO458452   0.400  28.327   5.853
 9581POPC   GL158453   0.388  28.333   6.153
 9581POPC   GL258454   0.349  28.333   6.153
 9581POPC   C1A58455   0.448  28.339   6.453
 9581POPC   D2A58456   0.450  28.399   6.753
 9581POPC   C3A58457   0.431  28.324   7.053
 9581POPC   C4A58458   0.459  28.346   7.353
 9581POPC   C1B58459   0.250  28.263   6.453
 9581POPC   C2B58460   0.166  28.307   6.753
 9581POPC   C3B58461   0.253  28.261   7.053
 9581POPC   C4B58462   0.211  28.233   7.353
 9582POPC   NC358463   9.745  22.920   5.553
 9582POPC   PO458464   9.734  22.969   5.853
 9582POPC   GL158465   9.753  22.928   6.153
 9582POPC   GL258466   9.786  23.071   6.153
 9582POPC   C1A58467   9.787  22.943   6.453
 9582POPC   D2A58468   9.740  22.891   6.753
 9582POPC   C3A58469   9.786  22.948   7.053
 9582POPC   C4A58470   9.706  22.948   7.353
 9582POPC   C1B58471   9.871  23.103   6.453
 9582POPC   C2B58472   9.936  23.091   6.753
 9582POPC   C3B58473   9.948  23.144   7.053
 9582POPC   C4B58474   9.884  23.127   7.353
 9583POPC   NC358475   5.836  21.354   5.553
 9583POPC   PO458476   5.878  21.435   5.853
 9583POPC   GL158477   5.829  21.393   6.153
 9583POPC   GL258478   5.956  21.375   6.153
 9583POPC   C1A58479   5.829  21.348   6.453
 9583POPC   D2A58480   5.904  21.359   6.753
 9583POPC   C3A58481   5.906  21.428   7.053
 9583POPC   C4A58482   5.819  21.349   7.353
 9583POPC   C1B58483   6.093  21.361   6.453
 9583POPC   C2B58484   6.088  21.342   6.753
 9583POPC   C3B58485   6.115  21.274   7.053
 9583POPC   C4B58486   6.152  21.313   7.353
 9584POPC   NC358487  19.037  31.495   5.553
 9584POPC   PO458488  19.094  31.462   5.853
 9584POPC   GL158489  19.086  31.422   6.153
 9584POPC   GL258490  19.003  31.352   6.153
 9584POPC   C1A58491  19.094  31.447   6.453
 9584POPC   D2A58492  19.044  31.501   6.753
 9584POPC   C3A58493  19.009  31.462   7.053
 9584POPC   C4A58494  19.096  31.427   7.353
 9584POPC   C1B58495  19.042  31.268   6.453
 9584POPC   C2B58496  19.089  31.233   6.753
 9584POPC   C3B58497  19.019  31.207   7.053
 9584POPC   C4B58498  19.049  31.254   7.353
 9585POPC   NC358499  12.106   5.820   5.553
 9585POPC   PO458500  12.089   5.902   5.853
 9585POPC   GL158501  12.118   5.873   6.153
 9585POPC   GL258502  12.070   5.790   6.153
 9585POPC   C1A58503  12.064   5.894   6.453
 9585POPC   D2A58504  12.090   5.859   6.753
 9585POPC   C3A58505  12.070   5.855   7.053
 9585POPC   C4A58506  12.117   5.908   7.353
 9585POPC   C1B58507  11.988   5.629   6.453
 9585POPC   C2B58508  12.001   5.630   6.753
 9585POPC   C3B58509  11.986   5.631   7.053
 9585POPC   C4B58510  11.987   5.609   7.353
 9586POPC   NC358511  22.952  25.221   5.553
 9586POPC   PO458512  22.984  25.239   5.853
 9586POPC   GL158513  22.970  25.273   6.153
 9586POPC   GL258514  22.889  25.139   6.153
 9586POPC   C1A58515  22.986  25.263   6.453
 9586POPC   D2A58516  22.948  25.274   6.753
 9586POPC   C3A58517  22.897  25.220   7.053
 9586POPC   C4A58518  22.892  25.278   7.353
 9586POPC   C1B58519  22.824  25.077   6.453
 9586POPC   C2B58520  22.809  25.074   6.753
 9586POPC   C3B58521  22.872  25.041   7.053
 9586POPC   C4B58522  22.815  25.027   7.353
 9587POPC   NC358523  35.324  43.141   5.553
 9587POPC   PO458524  35.327  43.079   5.853
 9587POPC   GL158525  35.350  43.112   6.153
 9587POPC   GL258526  35.189  43.133   6.153
 9587POPC   C1A58527  35.382  43.126   6.453
 9587POPC   D2A58528  35.325  43.139   6.753
 9587POPC   C3A58529  35.366  43.070   7.053
 9587POPC   C4A58530  35.336  43.070   7.353
 9587POPC   C1B58531  35.123  43.080   6.453
 9587POPC   C2B58532  35.098  43.049   6.753
 9587POPC   C3B58533  35.100  43.094   7.053
 9587POPC   C4B58534  35.087  43.024   7.353
 9588POPC   NC358535   5.910   5.878   5.553
 9588POPC   PO458536   5.906   5.843   5.853
 9588POPC   GL158537   5.844   5.848   6.153
 9588POPC   GL258538   5.910   5.760   6.153
 9588POPC   C1A58539   5.849   5.866   6.453
 9588POPC   D2A58540   5.885   5.844   6.753
 9588POPC   C3A58541   5.855   5.898   7.053
 9588POPC   C4A58542   5.851   5.888   7.353
 9588POPC   C1B58543   5.908   5.670   6.453
 9588POPC   C2B58544   5.915   5.617   6.753
 9588POPC   C3B58545   5.912   5.589   7.053
 9588POPC   C4B58546   5.931   5.658   7.353
 9589POPC   NC358547  38.435  11.258   5.553
 9589POPC   PO458548  38.421  11.336   5.853
 9589POPC   GL158549  38.482  11.317   6.153
 9589POPC   GL258550  38.581  11.285   6.153
 9589POPC   C1A58551  38.491  11.319   6.453
 9589POPC   D2A58552  38.469  11.335   6.753
 9589POPC   C3A58553  38.420  11.275   7.053
 9589POPC   C4A58554  38.406  11.290   7.353
 9589POPC   C1B58555  38.701  11.168   6.453
 9589POPC   C2B58556  38.638  11.140   6.753
 9589POPC   C3B58557  38.713  11.206   7.053
 9589POPC   C4B58558  38.657  11.199   7.353
 9590POPC   NC358559  36.882  10.475   5.553
 9590POPC   PO458560  36.947  10.536   5.853
 9590POPC   GL158561  36.858  10.532   6.153
 9590POPC   GL258562  37.002  10.543   6.153
 9590POPC   C1A58563  36.865  10.496   6.453
 9590POPC   D2A58564  36.919  10.508   6.753
 9590POPC   C3A58565  36.881  10.516   7.053
 9590POPC   C4A58566  36.885  10.523   7.353
 9590POPC   C1B58567  37.099  10.556   6.453
 9590POPC   C2B58568  37.184  10.559   6.753
 9590POPC   C3B58569  37.164  10.618   7.053
 9590POPC   C4B58570  37.144  10.632   7.353
 9591POPC   NC358571  24.510  23.698   5.553
 9591POPC   PO458572  24.484  23.689   5.853
 9591POPC   GL158573  24.533  23.713   6.153
 9591POPC   GL258574  24.549  23.626   6.153
 9591POPC   C1A58575  24.493  23.718   6.453
 9591POPC   D2A58576  24.446  23.730   6.753
 9591POPC   C3A58577  24.537  23.698   7.053
 9591POPC   C4A58578  24.442  23.744   7.353
 9591POPC   C1B58579  24.602  23.545   6.453
 9591POPC   C2B58580  24.658  23.476   6.753
 9591POPC   C3B58581  24.660  23.556   7.053
 9591POPC   C4B58582  24.667  23.493   7.353
 9592POPC   NC358583  17.483  39.212   5.553
 9592POPC   PO458584  17.557  39.261   5.853
 9592POPC   GL158585  17.536  39.230   6.153
 9592POPC   GL258586  17.361  39.234   6.153
 9592POPC   C1A58587  17.482  39.223   6.453
 9592POPC   D2A58588  17.470  39.280   6.753
 9592POPC   C3A58589  17.502  39.221   7.053
 9592POPC   C4A58590  17.545  39.203   7.353
 9592POPC   C1B58591  17.229  39.298   6.453
 9592POPC   C2B58592  17.234  39.252   6.753
 9592POPC   C3B58593  17.270  39.231   7.053
 9592POPC   C4B58594  17.301  39.205   7.353
 9593POPC   NC358595  19.878  22.960   5.553
 9593POPC   PO458596  19.823  22.959   5.853
 9593POPC   GL158597  19.801  22.902   6.153
 9593POPC   GL258598  19.675  22.904   6.153
 9593POPC   C1A58599  19.841  22.894   6.453
 9593POPC   D2A58600  19.871  22.947   6.753
 9593POPC   C3A58601  19.802  22.955   7.053
 9593POPC   C4A58602  19.880  22.941   7.353
 9593POPC   C1B58603  19.599  22.810   6.453
 9593POPC   C2B58604  19.604  22.848   6.753
 9593POPC   C3B58605  19.644  22.881   7.053
 9593POPC   C4B58606  19.595  22.836   7.353
 9594POPC   NC358607  35.313  28.331   5.553
 9594POPC   PO458608  35.305  28.359   5.853
 9594POPC   GL158609  35.341  28.323   6.153
 9594POPC   GL258610  35.425  28.469   6.153
 9594POPC   C1A58611  35.329  28.390   6.453
 9594POPC   D2A58612  35.393  28.363   6.753
 9594POPC   C3A58613  35.351  28.383   7.053
 9594POPC   C4A58614  35.336  28.321   7.353
 9594POPC   C1B58615  35.508  28.554   6.453
 9594POPC   C2B58616  35.557  28.559   6.753
 9594POPC   C3B58617  35.598  28.566   7.053
 9594POPC   C4B58618  35.587  28.521   7.353
 9595POPC   NC358619  13.661  16.728   5.553
 9595POPC   PO458620  13.618  16.702   5.853
 9595POPC   GL158621  13.661  16.725   6.153
 9595POPC   GL258622  13.704  16.696   6.153
 9595POPC   C1A58623  13.661  16.774   6.453
 9595POPC   D2A58624  13.650  16.715   6.753
 9595POPC   C3A58625  13.596  16.764   7.053
 9595POPC   C4A58626  13.608  16.688   7.353
 9595POPC   C1B58627  13.841  16.573   6.453
 9595POPC   C2B58628  13.814  16.627   6.753
 9595POPC   C3B58629  13.783  16.578   7.053
 9595POPC   C4B58630  13.795  16.580   7.353
 9596POPC   NC358631  40.009  33.842   5.553
 9596POPC   PO458632  40.025  33.757   5.853
 9596POPC   GL158633  40.042  33.802   6.153
 9596POPC   GL258634  40.083  33.891   6.153
 9596POPC   C1A58635  40.008  33.774   6.453
 9596POPC   D2A58636  39.962  33.833   6.753
 9596POPC   C3A58637  40.023  33.811   7.053
 9596POPC   C4A58638  39.968  33.813   7.353
 9596POPC   C1B58639  40.066  34.013   6.453
 9596POPC   C2B58640  40.057  34.066   6.753
 9596POPC   C3B58641  40.131  34.067   7.053
 9596POPC   C4B58642  40.102  34.024   7.353
 9597POPC   NC358643  23.683  17.481   5.553
 9597POPC   PO458644  23.714  17.537   5.853
 9597POPC   GL158645  23.720  17.535   6.153
 9597POPC   GL258646  23.731  17.370   6.153
 9597POPC   C1A58647  23.726  17.535   6.453
 9597POPC   D2A58648  23.699  17.557   6.753
 9597POPC   C3A58649  23.700  17.480   7.053
 9597POPC   C4A58650  23.693  17.549   7.353
 9597POPC   C1B58651  23.832  17.282   6.453
 9597POPC   C2B58652  23.865  17.337   6.753
 9597POPC   C3B58653  23.822  17.304   7.053
 9597POPC   C4B58654  23.823  17.280   7.353
 9598POPC   NC358655  29.956  22.898   5.553
 9598POPC   PO458656  29.917  22.947   5.853
 9598POPC   GL158657  29.927  22.963   6.153
 9598POPC   GL258658  29.764  22.876   6.153
 9598POPC   C1A58659  29.918  22.975   6.453
 9598POPC   D2A58660  29.947  22.922   6.753
 9598POPC   C3A58661  29.920  22.916   7.053
 9598POPC   C4A58662  29.934  22.944   7.353
 9598POPC   C1B58663  29.727  22.839   6.453
 9598POPC   C2B58664  29.637  22.877   6.753
 9598POPC   C3B58665  29.722  22.901   7.053
 9598POPC   C4B58666  29.641  22.902   7.353
 9599POPC   NC358667  15.201  25.245   5.553
 9599POPC   PO458668  15.199  25.225   5.853
 9599POPC   GL158669  15.179  25.312   6.153
 9599POPC   GL258670  15.072  25.347   6.153
 9599POPC   C1A58671  15.181  25.267   6.453
 9599POPC   D2A58672  15.200  25.234   6.753
 9599POPC   C3A58673  15.225  25.230   7.053
 9599POPC   C4A58674  15.225  25.231   7.353
 9599POPC   C1B58675  14.935  25.384   6.453
 9599POPC   C2B58676  14.990  25.420   6.753
 9599POPC   C3B58677  15.004  25.438   7.053
 9599POPC   C4B58678  14.959  25.394   7.353
 9600POPC   NC358679  36.147  39.273   5.553
 9600POPC   PO458680  36.141  39.242   5.853
 9600POPC   GL158681  36.091  39.269   6.153
 9600POPC   GL258682  36.252  39.304   6.153
 9600POPC   C1A58683  36.146  39.276   6.453
 9600POPC   D2A58684  36.167  39.241   6.753
 9600POPC   C3A58685  36.095  39.272   7.053
 9600POPC   C4A58686  36.096  39.185   7.353
 9600POPC   C1B58687  36.334  39.339   6.453
 9600POPC   C2B58688  36.326  39.298   6.753
 9600POPC   C3B58689  36.329  39.367   7.053
 9600POPC   C4B58690  36.397  39.322   7.353
 9601POPC   NC358691  43.130  32.259   5.553
 9601POPC   PO458692  43.136  32.253   5.853
 9601POPC   GL158693  43.134  32.242   6.153
 9601POPC   GL258694  43.104  32.388   6.153
 9601POPC   C1A58695  43.085  32.269   6.453
 9601POPC   D2A58696  43.120  32.262   6.753
 9601POPC   C3A58697  43.126  32.226   7.053
 9601POPC   C4A58698  43.151  32.271   7.353
 9601POPC   C1B58699  43.164  32.502   6.453
 9601POPC   C2B58700  43.129  32.482   6.753
 9601POPC   C3B58701  43.133  32.491   7.053
 9601POPC   C4B58702  43.162  32.500   7.353
 9602POPC   NC358703   6.653  29.930   5.553
 9602POPC   PO458704   6.635  29.958   5.853
 9602POPC   GL158705   6.636  29.952   6.153
 9602POPC   GL258706   6.505  30.039   6.153
 9602POPC   C1A58707   6.692  29.901   6.453
 9602POPC   D2A58708   6.626  29.912   6.753
 9602POPC   C3A58709   6.600  29.907   7.053
 9602POPC   C4A58710   6.606  29.915   7.353
 9602POPC   C1B58711   6.450  30.096   6.453
 9602POPC   C2B58712   6.416  30.116   6.753
 9602POPC   C3B58713   6.482  30.063   7.053
 9602POPC   C4B58714   6.507  30.047   7.353
 9603POPC   NC358715  34.529  15.182   5.553
 9603POPC   PO458716  34.576  15.164   5.853
 9603POPC   GL158717  34.619  15.161   6.153
 9603POPC   GL258718  34.643  15.287   6.153
 9603POPC   C1A58719  34.601  15.178   6.453
 9603POPC   D2A58720  34.610  15.169   6.753
 9603POPC   C3A58721  34.528  15.136   7.053
 9603POPC   C4A58722  34.543  15.172   7.353
 9603POPC   C1B58723  34.842  15.295   6.453
 9603POPC   C2B58724  34.809  15.294   6.753
 9603POPC   C3B58725  34.781  15.257   7.053
 9603POPC   C4B58726  34.781  15.318   7.353
 9604POPC   NC358727  23.678  35.310   5.553
 9604POPC   PO458728  23.685  35.378   5.853
 9604POPC   GL158729  23.723  35.330   6.153
 9604POPC   GL258730  23.850  35.459   6.153
 9604POPC   C1A58731  23.731  35.352   6.453
 9604POPC   D2A58732  23.695  35.387   6.753
 9604POPC   C3A58733  23.704  35.315   7.053
 9604POPC   C4A58734  23.739  35.312   7.353
 9604POPC   C1B58735  23.889  35.488   6.453
 9604POPC   C2B58736  23.940  35.439   6.753
 9604POPC   C3B58737  23.956  35.494   7.053
 9604POPC   C4B58738  23.975  35.484   7.353
 9605POPC   NC358739  10.549  29.902   5.553
 9605POPC   PO458740  10.507  29.899   5.853
 9605POPC   GL158741  10.553  29.879   6.153
 9605POPC   GL258742  10.428  29.994   6.153
 9605POPC   C1A58743  10.561  29.914   6.453
 9605POPC   D2A58744  10.490  29.907   6.753
 9605POPC   C3A58745  10.480  29.939   7.053
 9605POPC   C4A58746  10.504  29.877   7.353
 9605POPC   C1B58747  10.382  30.060   6.453
 9605POPC   C2B58748  10.362  30.043   6.753
 9605POPC   C3B58749  10.373  30.106   7.053
 9605POPC   C4B58750  10.317  30.056   7.353
 9606POPC   NC358751  13.669  22.145   5.553
 9606POPC   PO458752  13.648  22.127   5.853
 9606POPC   GL158753  13.635  22.177   6.153
 9606POPC   GL258754  13.796  22.099   6.153
 9606POPC   C1A58755  13.639  22.182   6.453
 9606POPC   D2A58756  13.656  22.192   6.753
 9606POPC   C3A58757  13.606  22.203   7.053
 9606POPC   C4A58758  13.671  22.163   7.353
 9606POPC   C1B58759  13.825  22.118   6.453
 9606POPC   C2B58760  13.914  22.127   6.753
 9606POPC   C3B58761  13.879  22.086   7.053
 9606POPC   C4B58762  13.920  22.160   7.353
 9607POPC   NC358763  18.274  18.331   5.553
 9607POPC   PO458764  18.243  18.330   5.853
 9607POPC   GL158765  18.276  18.329   6.153
 9607POPC   GL258766  18.220  18.395   6.153
 9607POPC   C1A58767  18.327  18.300   6.453
 9607POPC   D2A58768  18.294  18.242   6.753
 9607POPC   C3A58769  18.274  18.285   7.053
 9607POPC   C4A58770  18.266  18.240   7.353
 9607POPC   C1B58771  18.159  18.493   6.453
 9607POPC   C2B58772  18.167  18.532   6.753
 9607POPC   C3B58773  18.206  18.513   7.053
 9607POPC   C4B58774  18.234  18.516   7.353
 9608POPC   NC358775  32.984   7.457   5.553
 9608POPC   PO458776  33.044   7.390   5.853
 9608POPC   GL158777  33.063   7.416   6.153
 9608POPC   GL258778  32.998   7.339   6.153
 9608POPC   C1A58779  33.010   7.462   6.453
 9608POPC   D2A58780  33.019   7.398   6.753
 9608POPC   C3A58781  32.990   7.463   7.053
 9608POPC   C4A58782  32.995   7.430   7.353
 9608POPC   C1B58783  32.870   7.157   6.453
 9608POPC   C2B58784  32.955   7.192   6.753
 9608POPC   C3B58785  32.912   7.174   7.053
 9608POPC   C4B58786  32.894   7.176   7.353
 9609POPC   NC358787   8.224  32.264   5.553
 9609POPC   PO458788   8.220  32.256   5.853
 9609POPC   GL158789   8.161  32.218   6.153
 9609POPC   GL258790   8.102  32.172   6.153
 9609POPC   C1A58791   8.238  32.262   6.453
 9609POPC   D2A58792   8.233  32.229   6.753
 9609POPC   C3A58793   8.244  32.232   7.053
 9609POPC   C4A58794   8.198  32.250   7.353
 9609POPC   C1B58795   8.044  32.039   6.453
 9609POPC   C2B58796   8.072  32.022   6.753
 9609POPC   C3B58797   8.049  32.061   7.053
 9609POPC   C4B58798   8.044  32.005   7.353
 9610POPC   NC358799  38.501   3.514   5.553
 9610POPC   PO458800  38.445   3.511   5.853
 9610POPC   GL158801  38.439   3.496   6.153
 9610POPC   GL258802  38.552   3.485   6.153
 9610POPC   C1A58803  38.464   3.495   6.453
 9610POPC   D2A58804  38.501   3.580   6.753
 9610POPC   C3A58805  38.500   3.533   7.053
 9610POPC   C4A58806  38.495   3.589   7.353
 9610POPC   C1B58807  38.670   3.440   6.453
 9610POPC   C2B58808  38.628   3.442   6.753
 9610POPC   C3B58809  38.657   3.462   7.053
 9610POPC   C4B58810  38.706   3.430   7.353
 9611POPC   NC358811   5.050  42.356   5.553
 9611POPC   PO458812   5.060  42.291   5.853
 9611POPC   GL158813   5.073  42.337   6.153
 9611POPC   GL258814   5.009  42.441   6.153
 9611POPC   C1A58815   5.074  42.310   6.453
 9611POPC   D2A58816   5.121  42.357   6.753
 9611POPC   C3A58817   5.078  42.367   7.053
 9611POPC   C4A58818   5.099  42.365   7.353
 9611POPC   C1B58819   4.968  42.522   6.453
 9611POPC   C2B58820   4.953  42.515   6.753
 9611POPC   C3B58821   4.968  42.499   7.053
 9611POPC   C4B58822   4.980  42.486   7.353
 9612POPC   NC358823  27.546   3.538   5.553
 9612POPC   PO458824  27.633   3.567   5.853
 9612POPC   GL158825  27.626   3.509   6.153
 9612POPC   GL258826  27.707   3.450   6.153
 9612POPC   C1A58827  27.586   3.589   6.453
 9612POPC   D2A58828  27.627   3.492   6.753
 9612POPC   C3A58829  27.569   3.572   7.053
 9612POPC   C4A58830  27.635   3.496   7.353
 9612POPC   C1B58831  27.803   3.345   6.453
 9612POPC   C2B58832  27.803   3.353   6.753
 9612POPC   C3B58833  27.724   3.318   7.053
 9612POPC   C4B58834  27.785   3.311   7.353
 9613POPC   NC358835  21.408  20.590   5.553
 9613POPC   PO458836  21.412  20.588   5.853
 9613POPC   GL158837  21.428  20.609   6.153
 9613POPC   GL258838  21.355  20.500   6.153
 9613POPC   C1A58839  21.342  20.617   6.453
 9613POPC   D2A58840  21.424  20.623   6.753
 9613POPC   C3A58841  21.369  20.565   7.053
 9613POPC   C4A58842  21.356  20.573   7.353
 9613POPC   C1B58843  21.238  20.405   6.453
 9613POPC   C2B58844  21.275  20.349   6.753
 9613POPC   C3B58845  21.320  20.382   7.053
 9613POPC   C4B58846  21.246  20.334   7.353
 9614POPC   NC358847   5.820  18.299   5.553
 9614POPC   PO458848   5.914  18.241   5.853
 9614POPC   GL158849   5.865  18.281   6.153
 9614POPC   GL258850   5.966  18.384   6.153
 9614POPC   C1A58851   5.908  18.300   6.453
 9614POPC   D2A58852   5.868  18.314   6.753
 9614POPC   C3A58853   5.829  18.256   7.053
 9614POPC   C4A58854   5.823  18.262   7.353
 9614POPC   C1B58855   6.068  18.433   6.453
 9614POPC   C2B58856   6.092  18.397   6.753
 9614POPC   C3B58857   6.087  18.429   7.053
 9614POPC   C4B58858   6.038  18.392   7.353
 9615POPC   NC358859   4.329   9.773   5.553
 9615POPC   PO458860   4.282   9.758   5.853
 9615POPC   GL158861   4.340   9.703   6.153
 9615POPC   GL258862   4.422   9.766   6.153
 9615POPC   C1A58863   4.272   9.725   6.453
 9615POPC   D2A58864   4.343   9.762   6.753
 9615POPC   C3A58865   4.333   9.738   7.053
 9615POPC   C4A58866   4.304   9.700   7.353
 9615POPC   C1B58867   4.556   9.694   6.453
 9615POPC   C2B58868   4.584   9.721   6.753
 9615POPC   C3B58869   4.531   9.720   7.053
 9615POPC   C4B58870   4.539   9.739   7.353
 9616POPC   NC358871   8.174  15.914   5.553
 9616POPC   PO458872   8.191  15.994   5.853
 9616POPC   GL158873   8.149  15.961   6.153
 9616POPC   GL258874   8.254  15.873   6.153
 9616POPC   C1A58875   8.225  15.905   6.453
 9616POPC   D2A58876   8.210  15.958   6.753
 9616POPC   C3A58877   8.175  15.973   7.053
 9616POPC   C4A58878   8.186  15.954   7.353
 9616POPC   C1B58879   8.247  15.745   6.453
 9616POPC   C2B58880   8.268  15.710   6.753
 9616POPC   C3B58881   8.223  15.701   7.053
 9616POPC   C4B58882   8.287  15.678   7.353
 9617POPC   NC358883  25.252  28.376   5.553
 9617POPC   PO458884  25.279  28.361   5.853
 9617POPC   GL158885  25.229  28.380   6.153
 9617POPC   GL258886  25.283  28.274   6.153
 9617POPC   C1A58887  25.227  28.369   6.453
 9617POPC   D2A58888  25.243  28.388   6.753
 9617POPC   C3A58889  25.281  28.375   7.053
 9617POPC   C4A58890  25.309  28.411   7.353
 9617POPC   C1B58891  25.334  28.099   6.453
 9617POPC   C2B58892  25.280  28.101   6.753
 9617POPC   C3B58893  25.254  28.155   7.053
 9617POPC   C4B58894  25.306  28.100   7.353
 9618POPC   NC358895  28.374  34.568   5.553
 9618POPC   PO458896  28.414  34.568   5.853
 9618POPC   GL158897  28.380  34.600   6.153
 9618POPC   GL258898  28.310  34.737   6.153
 9618POPC   C1A58899  28.351  34.592   6.453
 9618POPC   D2A58900  28.357  34.569   6.753
 9618POPC   C3A58901  28.371  34.548   7.053
 9618POPC   C4A58902  28.319  34.564   7.353
 9618POPC   C1B58903  28.251  34.853   6.453
 9618POPC   C2B58904  28.271  34.769   6.753
 9618POPC   C3B58905  28.262  34.841   7.053
 9618POPC   C4B58906  28.301  34.857   7.353
 9619POPC   NC358907  21.374  43.114   5.553
 9619POPC   PO458908  21.417  43.072   5.853
 9619POPC   GL158909  21.430  43.092   6.153
 9619POPC   GL258910  21.410  43.204   6.153
 9619POPC   C1A58911  21.374  43.118   6.453
 9619POPC   D2A58912  21.422  43.149   6.753
 9619POPC   C3A58913  21.353  43.105   7.053
 9619POPC   C4A58914  21.373  43.095   7.353
 9619POPC   C1B58915  21.407  43.316   6.453
 9619POPC   C2B58916  21.376  43.378   6.753
 9619POPC   C3B58917  21.410  43.341   7.053
 9619POPC   C4B58918  21.355  43.372   7.353
 9620POPC   NC358919   1.208  23.689   5.553
 9620POPC   PO458920   1.239  23.757   5.853
 9620POPC   GL158921   1.225  23.705   6.153
 9620POPC   GL258922   1.146  23.635   6.153
 9620POPC   C1A58923   1.196  23.762   6.453
 9620POPC   D2A58924   1.204  23.744   6.753
 9620POPC   C3A58925   1.196  23.751   7.053
 9620POPC   C4A58926   1.231  23.750   7.353
 9620POPC   C1B58927   1.018  23.578   6.453
 9620POPC   C2B58928   0.969  23.594   6.753
 9620POPC   C3B58929   0.988  23.605   7.053
 9620POPC   C4B58930   0.971  23.567   7.353
 9621POPC   NC358931  33.777  22.207   5.553
 9621POPC   PO458932  33.777  22.142   5.853
 9621POPC   GL158933  33.826  22.146   6.153
 9621POPC   GL258934  33.738  22.021   6.153
 9621POPC   C1A58935  33.826  22.160   6.453
 9621POPC   D2A58936  33.804  22.186   6.753
 9621POPC   C3A58937  33.841  22.116   7.053
 9621POPC   C4A58938  33.798  22.131   7.353
 9621POPC   C1B58939  33.697  21.935   6.453
 9621POPC   C2B58940  33.690  21.951   6.753
 9621POPC   C3B58941  33.681  21.939   7.053
 9621POPC   C4B58942  33.708  21.999   7.353
 9622POPC   NC358943  43.125  31.515   5.553
 9622POPC   PO458944  43.154  31.498   5.853
 9622POPC   GL158945  43.155  31.491   6.153
 9622POPC   GL258946  43.091  31.608   6.153
 9622POPC   C1A58947  43.153  31.471   6.453
 9622POPC   D2A58948  43.119  31.442   6.753
 9622POPC   C3A58949  43.158  31.434   7.053
 9622POPC   C4A58950  43.133  31.479   7.353
 9622POPC   C1B58951  43.105  31.758   6.453
 9622POPC   C2B58952  43.087  31.675   6.753
 9622POPC   C3B58953  43.100  31.711   7.053
 9622POPC   C4B58954  43.128  31.742   7.353
 9623POPC   NC358955   0.406  43.155   5.553
 9623POPC   PO458956   0.435  43.087   5.853
 9623POPC   GL158957   0.472  43.096   6.153
 9623POPC   GL258958   0.480  43.217   6.153
 9623POPC   C1A58959   0.463  43.148   6.453
 9623POPC   D2A58960   0.409  43.128   6.753
 9623POPC   C3A58961   0.436  43.131   7.053
 9623POPC   C4A58962   0.480  43.139   7.353
 9623POPC   C1B58963   0.519  43.341   6.453
 9623POPC   C2B58964   0.479  43.359   6.753
 9623POPC   C3B58965   0.486  43.342   7.053
 9623POPC   C4B58966   0.498  43.400   7.353
 9624POPC   NC358967  23.728  37.688   5.553
 9624POPC   PO458968  23.689  37.679   5.853
 9624POPC   GL158969  23.701  37.681   6.153
 9624POPC   GL258970  23.595  37.638   6.153
 9624POPC   C1A58971  23.677  37.638   6.453
 9624POPC   D2A58972  23.740  37.645   6.753
 9624POPC   C3A58973  23.707  37.666   7.053
 9624POPC   C4A58974  23.732  37.680   7.353
 9624POPC   C1B58975  23.468  37.695   6.453
 9624POPC   C2B58976  23.488  37.631   6.753
 9624POPC   C3B58977  23.441  37.688   7.053
 9624POPC   C4B58978  23.455  37.674   7.353
 9625POPC   NC358979   7.401   9.777   5.553
 9625POPC   PO458980   7.450   9.716   5.853
 9625POPC   GL158981   7.466   9.756   6.153
 9625POPC   GL258982   7.327   9.799   6.153
 9625POPC   C1A58983   7.423   9.718   6.453
 9625POPC   D2A58984   7.401   9.727   6.753
 9625POPC   C3A58985   7.455   9.764   7.053
 9625POPC   C4A58986   7.402   9.795   7.353
 9625POPC   C1B58987   7.180   9.887   6.453
 9625POPC   C2B58988   7.190   9.883   6.753
 9625POPC   C3B58989   7.249   9.861   7.053
 9625POPC   C4B58990   7.211   9.873   7.353
 9626POPC   NC358991  19.060  36.938   5.553
 9626POPC   PO458992  19.103  36.864   5.853
 9626POPC   GL158993  19.085  36.872   6.153
 9626POPC   GL258994  18.964  36.964   6.153
 9626POPC   C1A58995  19.106  36.861   6.453
 9626POPC   D2A58996  19.036  36.906   6.753
 9626POPC   C3A58997  19.011  36.934   7.053
 9626POPC   C4A58998  19.042  36.944   7.353
 9626POPC   C1B58999  18.840  36.955   6.453
 9626POPC   C2B59000  18.784  37.032   6.753
 9626POPC   C3B59001  18.805  36.993   7.053
 9626POPC   C4B59002  18.850  37.019   7.353
 9627POPC   NC359003  23.764  36.924   5.553
 9627POPC   PO459004  23.682  36.891   5.853
 9627POPC   GL159005  23.697  36.884   6.153
 9627POPC   GL259006  23.575  36.948   6.153
 9627POPC   C1A59007  23.755  36.903   6.453
 9627POPC   D2A59008  23.747  36.937   6.753
 9627POPC   C3A59009  23.686  36.894   7.053
 9627POPC   C4A59010  23.754  36.930   7.353
 9627POPC   C1B59011  23.501  37.095   6.453
 9627POPC   C2B59012  23.546  37.106   6.753
 9627POPC   C3B59013  23.580  37.051   7.053
 9627POPC   C4B59014  23.492  37.042   7.353
 9628POPC   NC359015  21.341  30.693   5.553
 9628POPC   PO459016  21.404  30.720   5.853
 9628POPC   GL159017  21.370  30.676   6.153
 9628POPC   GL259018  21.241  30.711   6.153
 9628POPC   C1A59019  21.412  30.674   6.453
 9628POPC   D2A59020  21.399  30.702   6.753
 9628POPC   C3A59021  21.380  30.689   7.053
 9628POPC   C4A59022  21.367  30.732   7.353
 9628POPC   C1B59023  21.117  30.695   6.453
 9628POPC   C2B59024  21.149  30.660   6.753
 9628POPC   C3B59025  21.152  30.652   7.053
 9628POPC   C4B59026  21.138  30.635   7.353
 9629POPC   NC359027  36.079   7.421   5.553
 9629POPC   PO459028  36.078   7.401   5.853
 9629POPC   GL159029  36.162   7.396   6.153
 9629POPC   GL259030  36.218   7.304   6.153
 9629POPC   C1A59031  36.167   7.447   6.453
 9629POPC   D2A59032  36.128   7.405   6.753
 9629POPC   C3A59033  36.172   7.439   7.053
 9629POPC   C4A59034  36.114   7.464   7.353
 9629POPC   C1B59035  36.270   7.249   6.453
 9629POPC   C2B59036  36.269   7.243   6.753
 9629POPC   C3B59037  36.234   7.220   7.053
 9629POPC   C4B59038  36.263   7.235   7.353
 9630POPC   NC359039  43.061  17.507   5.553
 9630POPC   PO459040  43.131  17.485   5.853
 9630POPC   GL159041  43.105  17.510   6.153
 9630POPC   GL259042  43.193  17.579   6.153
 9630POPC   C1A59043  43.136  17.491   6.453
 9630POPC   D2A59044  43.076  17.503   6.753
 9630POPC   C3A59045  43.067  17.520   7.053
 9630POPC   C4A59046  43.125  17.495   7.353
 9630POPC   C1B59047  43.272  17.690   6.453
 9630POPC   C2B59048  43.337  17.663   6.753
 9630POPC   C3B59049  43.268  17.669   7.053
 9630POPC   C4B59050  43.292  17.635   7.353
 9631POPC   NC359051   9.771  36.089   5.553
 9631POPC   PO459052   9.724  36.109   5.853
 9631POPC   GL159053   9.735  36.084   6.153
 9631POPC   GL259054   9.843  36.062   6.153
 9631POPC   C1A59055   9.752  36.081   6.453
 9631POPC   D2A59056   9.735  36.121   6.753
 9631POPC   C3A59057   9.756  36.116   7.053
 9631POPC   C4A59058   9.715  36.149   7.353
 9631POPC   C1B59059   9.962  35.969   6.453
 9631POPC   C2B59060   9.907  36.008   6.753
 9631POPC   C3B59061   9.968  36.010   7.053
 9631POPC   C4B59062   9.975  35.948   7.353
 9632POPC   NC359063  24.486  29.884   5.553
 9632POPC   PO459064  24.482  29.956   5.853
 9632POPC   GL159065  24.530  29.926   6.153
 9632POPC   GL259066  24.483  29.852   6.153
 9632POPC   C1A59067  24.483  29.905   6.453
 9632POPC   D2A59068  24.539  29.910   6.753
 9632POPC   C3A59069  24.462  29.887   7.053
 9632POPC   C4A59070  24.525  29.952   7.353
 9632POPC   C1B59071  24.367  29.706   6.453
 9632POPC   C2B59072  24.356  29.712   6.753
 9632POPC   C3B59073  24.360  29.710   7.053
 9632POPC   C4B59074  24.419  29.737   7.353
 9633POPC   NC359075  24.487  29.127   5.553
 9633POPC   PO459076  24.458  29.148   5.853
 9633POPC   GL159077  24.538  29.178   6.153
 9633POPC   GL259078  24.389  29.015   6.153
 9633POPC   C1A59079  24.511  29.184   6.453
 9633POPC   D2A59080  24.506  29.116   6.753
 9633POPC   C3A59081  24.445  29.195   7.053
 9633POPC   C4A59082  24.464  29.177   7.353
 9633POPC   C1B59083  24.329  29.024   6.453
 9633POPC   C2B59084  24.314  28.997   6.753
 9633POPC   C3B59085  24.258  28.960   7.053
 9633POPC   C4B59086  24.332  29.015   7.353
 9634POPC   NC359087   7.391  22.945   5.553
 9634POPC   PO459088   7.395  22.899   5.853
 9634POPC   GL159089   7.427  22.905   6.153
 9634POPC   GL259090   7.272  22.975   6.153
 9634POPC   C1A59091   7.427  22.902   6.453
 9634POPC   D2A59092   7.469  22.945   6.753
 9634POPC   C3A59093   7.402  22.898   7.053
 9634POPC   C4A59094   7.391  22.944   7.353
 9634POPC   C1B59095   7.237  23.024   6.453
 9634POPC   C2B59096   7.168  23.062   6.753
 9634POPC   C3B59097   7.189  23.066   7.053
 9634POPC   C4B59098   7.204  23.104   7.353
 9635POPC   NC359099  33.012  39.237   5.553
 9635POPC   PO459100  33.051  39.225   5.853
 9635POPC   GL159101  33.047  39.231   6.153
 9635POPC   GL259102  33.084  39.299   6.153
 9635POPC   C1A59103  33.043  39.241   6.453
 9635POPC   D2A59104  33.055  39.192   6.753
 9635POPC   C3A59105  33.026  39.227   7.053
 9635POPC   C4A59106  33.037  39.192   7.353
 9635POPC   C1B59107  33.228  39.379   6.453
 9635POPC   C2B59108  33.239  39.359   6.753
 9635POPC   C3B59109  33.230  39.351   7.053
 9635POPC   C4B59110  33.228  39.312   7.353
 9636POPC   NC359111   1.257  34.593   5.553
 9636POPC   PO459112   1.214  34.546   5.853
 9636POPC   GL159113   1.188  34.604   6.153
 9636POPC   GL259114   1.182  34.408   6.153
 9636POPC   C1A59115   1.178  34.526   6.453
 9636POPC   D2A59116   1.261  34.596   6.753
 9636POPC   C3A59117   1.165  34.590   7.053
 9636POPC   C4A59118   1.199  34.531   7.353
 9636POPC   C1B59119   1.177  34.372   6.453
 9636POPC   C2B59120   1.140  34.356   6.753
 9636POPC   C3B59121   1.216  34.347   7.053
 9636POPC   C4B59122   1.198  34.324   7.353
 9637POPC   NC359123  29.946  19.067   5.553
 9637POPC   PO459124  29.925  19.045   5.853
 9637POPC   GL159125  29.954  19.042   6.153
 9637POPC   GL259126  30.008  19.014   6.153
 9637POPC   C1A59127  29.871  19.059   6.453
 9637POPC   D2A59128  29.908  19.073   6.753
 9637POPC   C3A59129  29.900  19.029   7.053
 9637POPC   C4A59130  29.946  19.016   7.353
 9637POPC   C1B59131  30.204  19.012   6.453
 9637POPC   C2B59132  30.200  19.012   6.753
 9637POPC   C3B59133  30.130  19.098   7.053
 9637POPC   C4B59134  30.188  19.038   7.353
 9638POPC   NC359135  37.655  15.906   5.553
 9638POPC   PO459136  37.711  15.919   5.853
 9638POPC   GL159137  37.649  15.997   6.153
 9638POPC   GL259138  37.589  15.826   6.153
 9638POPC   C1A59139  37.725  15.962   6.453
 9638POPC   D2A59140  37.654  15.943   6.753
 9638POPC   C3A59141  37.692  15.990   7.053
 9638POPC   C4A59142  37.712  15.937   7.353
 9638POPC   C1B59143  37.561  15.785   6.453
 9638POPC   C2B59144  37.507  15.746   6.753
 9638POPC   C3B59145  37.554  15.707   7.053
 9638POPC   C4B59146  37.519  15.709   7.353
 9639POPC   NC359147  20.578  43.925   5.553
 9639POPC   PO459148  20.580  43.847   5.853
 9639POPC   GL159149  20.562  43.854   6.153
 9639POPC   GL259150  20.574  43.991   6.153
 9639POPC   C1A59151  20.580  43.928   6.453
 9639POPC   D2A59152  20.577  43.844   6.753
 9639POPC   C3A59153  20.660  43.934   7.053
 9639POPC   C4A59154  20.577  43.916   7.353
 9639POPC   C1B59155  20.492  44.115   6.453
 9639POPC   C2B59156  20.507  44.158   6.753
 9639POPC   C3B59157  20.520  44.099   7.053
 9639POPC   C4B59158  20.501  44.098   7.353
 9640POPC   NC359159  26.076  29.169   5.553
 9640POPC   PO459160  26.051  29.130   5.853
 9640POPC   GL159161  26.060  29.185   6.153
 9640POPC   GL259162  26.154  29.074   6.153
 9640POPC   C1A59163  26.043  29.142   6.453
 9640POPC   D2A59164  26.015  29.188   6.753
 9640POPC   C3A59165  26.091  29.139   7.053
 9640POPC   C4A59166  26.008  29.124   7.353
 9640POPC   C1B59167  26.175  28.975   6.453
 9640POPC   C2B59168  26.193  28.923   6.753
 9640POPC   C3B59169  26.261  28.953   7.053
 9640POPC   C4B59170  26.222  28.929   7.353
 9641POPC   NC359171  18.314   8.199   5.553
 9641POPC   PO459172  18.268   8.151   5.853
 9641POPC   GL159173  18.305   8.216   6.153
 9641POPC   GL259174  18.408   8.152   6.153
 9641POPC   C1A59175  18.243   8.201   6.453
 9641POPC   D2A59176  18.312   8.210   6.753
 9641POPC   C3A59177  18.274   8.161   7.053
 9641POPC   C4A59178  18.307   8.158   7.353
 9641POPC   C1B59179  18.541   8.117   6.453
 9641POPC   C2B59180  18.489   8.117   6.753
 9641POPC   C3B59181  18.482   8.203   7.053
 9641POPC   C4B59182  18.579   8.170   7.353
 9642POPC   NC359183  26.063  18.249   5.553
 9642POPC   PO459184  26.037  18.307   5.853
 9642POPC   GL159185  26.020  18.244   6.153
 9642POPC   GL259186  26.003  18.344   6.153
 9642POPC   C1A59187  26.079  18.243   6.453
 9642POPC   D2A59188  26.078  18.243   6.753
 9642POPC   C3A59189  25.995  18.238   7.053
 9642POPC   C4A59190  26.030  18.294   7.353
 9642POPC   C1B59191  25.880  18.452   6.453
 9642POPC   C2B59192  25.941  18.491   6.753
 9642POPC   C3B59193  25.938  18.442   7.053
 9642POPC   C4B59194  25.897  18.441   7.353
 9643POPC   NC359195   5.858  42.369   5.553
 9643POPC   PO459196   5.835  42.312   5.853
 9643POPC   GL159197   5.868  42.345   6.153
 9643POPC   GL259198   5.866  42.229   6.153
 9643POPC   C1A59199   5.896  42.344   6.453
 9643POPC   D2A59200   5.847  42.297   6.753
 9643POPC   C3A59201   5.863  42.347   7.053
 9643POPC   C4A59202   5.846  42.351   7.353
 9643POPC   C1B59203   5.943  42.049   6.453
 9643POPC   C2B59204   5.907  42.109   6.753
 9643POPC   C3B59205   5.880  42.082   7.053
 9643POPC   C4B59206   5.943  42.055   7.353
 9644POPC   NC359207  19.057  35.336   5.553
 9644POPC   PO459208  19.052  35.368   5.853
 9644POPC   GL159209  19.059  35.352   6.153
 9644POPC   GL259210  18.906  35.331   6.153
 9644POPC   C1A59211  19.108  35.321   6.453
 9644POPC   D2A59212  19.056  35.380   6.753
 9644POPC   C3A59213  19.088  35.370   7.053
 9644POPC   C4A59214  19.044  35.384   7.353
 9644POPC   C1B59215  18.833  35.386   6.453
 9644POPC   C2B59216  18.770  35.447   6.753
 9644POPC   C3B59217  18.845  35.441   7.053
 9644POPC   C4B59218  18.843  35.415   7.353
 9645POPC   NC359219  17.476  25.251   5.553
 9645POPC   PO459220  17.478  25.219   5.853
 9645POPC   GL159221  17.549  25.279   6.153
 9645POPC   GL259222  17.529  25.380   6.153
 9645POPC   C1A59223  17.530  25.216   6.453
 9645POPC   D2A59224  17.509  25.263   6.753
 9645POPC   C3A59225  17.542  25.299   7.053
 9645POPC   C4A59226  17.550  25.242   7.353
 9645POPC   C1B59227  17.508  25.535   6.453
 9645POPC   C2B59228  17.506  25.524   6.753
 9645POPC   C3B59229  17.562  25.470   7.053
 9645POPC   C4B59230  17.514  25.499   7.353
 9646POPC   NC359231  44.671  19.026   5.553
 9646POPC   PO459232  44.641  19.022   5.853
 9646POPC   GL159233  44.620  19.061   6.153
 9646POPC   GL259234  44.656  19.164   6.153
 9646POPC   C1A59235  44.661  19.061   6.453
 9646POPC   D2A59236  44.646  19.024   6.753
 9646POPC   C3A59237  44.710  19.051   7.053
 9646POPC   C4A59238  44.686  19.059   7.353
 9646POPC   C1B59239  44.671  19.252   6.453
 9646POPC   C2B59240  44.693  19.267   6.753
 9646POPC   C3B59241  44.679  19.267   7.053
 9646POPC   C4B59242  44.737  19.336   7.353
 9647POPC   NC359243   5.108  40.768   5.553
 9647POPC   PO459244   5.136  40.804   5.853
 9647POPC   GL159245   5.116  40.767   6.153
 9647POPC   GL259246   5.103  40.906   6.153
 9647POPC   C1A59247   5.102  40.740   6.453
 9647POPC   D2A59248   5.100  40.822   6.753
 9647POPC   C3A59249   5.103  40.816   7.053
 9647POPC   C4A59250   5.086  40.777   7.353
 9647POPC   C1B59251   5.154  41.051   6.453
 9647POPC   C2B59252   5.132  41.046   6.753
 9647POPC   C3B59253   5.180  41.002   7.053
 9647POPC   C4B59254   5.149  41.073   7.353
 9648POPC   NC359255  43.898  34.581   5.553
 9648POPC   PO459256  43.885  34.599   5.853
 9648POPC   GL159257  43.859  34.590   6.153
 9648POPC   GL259258  43.735  34.518   6.153
 9648POPC   C1A59259  43.929  34.565   6.453
 9648POPC   D2A59260  43.868  34.549   6.753
 9648POPC   C3A59261  43.897  34.552   7.053
 9648POPC   C4A59262  43.932  34.540   7.353
 9648POPC   C1B59263  43.640  34.436   6.453
 9648POPC   C2B59264  43.663  34.483   6.753
 9648POPC   C3B59265  43.669  34.472   7.053
 9648POPC   C4B59266  43.673  34.443   7.353
 9649POPC   NC359267  12.088  29.959   5.553
 9649POPC   PO459268  12.042  29.968   5.853
 9649POPC   GL159269  12.115  29.948   6.153
 9649POPC   GL259270  12.122  29.821   6.153
 9649POPC   C1A59271  12.097  29.909   6.453
 9649POPC   D2A59272  12.054  29.902   6.753
 9649POPC   C3A59273  12.053  29.889   7.053
 9649POPC   C4A59274  12.051  29.970   7.353
 9649POPC   C1B59275  12.152  29.736   6.453
 9649POPC   C2B59276  12.211  29.667   6.753
 9649POPC   C3B59277  12.189  29.681   7.053
 9649POPC   C4B59278  12.222  29.681   7.353
 9650POPC   NC359279   5.056  11.279   5.553
 9650POPC   PO459280   5.106  11.286   5.853
 9650POPC   GL159281   5.057  11.293   6.153
 9650POPC   GL259282   5.242  11.328   6.153
 9650POPC   C1A59283   5.058  11.262   6.453
 9650POPC   D2A59284   5.105  11.349   6.753
 9650POPC   C3A59285   5.130  11.262   7.053
 9650POPC   C4A59286   5.120  11.304   7.353
 9650POPC   C1B59287   5.306  11.349   6.453
 9650POPC   C2B59288   5.318  11.380   6.753
 9650POPC   C3B59289   5.314  11.319   7.053
 9650POPC   C4B59290   5.306  11.381   7.353
 9651POPC   NC359291  42.325   6.611   5.553
 9651POPC   PO459292  42.288   6.629   5.853
 9651POPC   GL159293  42.333   6.655   6.153
 9651POPC   GL259294  42.211   6.629   6.153
 9651POPC   C1A59295  42.380   6.652   6.453
 9651POPC   D2A59296  42.368   6.623   6.753
 9651POPC   C3A59297  42.363   6.626   7.053
 9651POPC   C4A59298  42.347   6.670   7.353
 9651POPC   C1B59299  42.100   6.731   6.453
 9651POPC   C2B59300  42.082   6.698   6.753
 9651POPC   C3B59301  42.134   6.732   7.053
 9651POPC   C4B59302  42.058   6.683   7.353
 9652POPC   NC359303  29.126  39.220   5.553
 9652POPC   PO459304  29.177  39.224   5.853
 9652POPC   GL159305  29.190  39.231   6.153
 9652POPC   GL259306  29.206  39.136   6.153
 9652POPC   C1A59307  29.178  39.218   6.453
 9652POPC   D2A59308  29.168  39.232   6.753
 9652POPC   C3A59309  29.156  39.220   7.053
 9652POPC   C4A59310  29.184  39.252   7.353
 9652POPC   C1B59311  29.169  38.969   6.453
 9652POPC   C2B59312  29.210  38.958   6.753
 9652POPC   C3B59313  29.249  38.997   7.053
 9652POPC   C4B59314  29.180  38.953   7.353
 9653POPC   NC359315  44.653  12.097   5.553
 9653POPC   PO459316  44.641  12.069   5.853
 9653POPC   GL159317  44.647  12.041   6.153
 9653POPC   GL259318  44.664  12.005   6.153
 9653POPC   C1A59319  44.644  12.110   6.453
 9653POPC   D2A59320  44.692  12.081   6.753
 9653POPC   C3A59321  44.672  12.107   7.053
 9653POPC   C4A59322  44.710  12.095   7.353
 9653POPC   C1B59323  44.546  11.827   6.453
 9653POPC   C2B59324  44.613  11.825   6.753
 9653POPC   C3B59325  44.555  11.822   7.053
 9653POPC   C4B59326  44.529  11.870   7.353
 9654POPC   NC359327  25.243  32.255   5.553
 9654POPC   PO459328  25.217  32.244   5.853
 9654POPC   GL159329  25.314  32.256   6.153
 9654POPC   GL259330  25.262  32.095   6.153
 9654POPC   C1A59331  25.271  32.261   6.453
 9654POPC   D2A59332  25.297  32.250   6.753
 9654POPC   C3A59333  25.231  32.293   7.053
 9654POPC   C4A59334  25.286  32.285   7.353
 9654POPC   C1B59335  25.277  32.006   6.453
 9654POPC   C2B59336  25.282  32.009   6.753
 9654POPC   C3B59337  25.303  32.011   7.053
 9654POPC   C4B59338  25.247  31.957   7.353
 9655POPC   NC359339  11.268  41.528   5.553
 9655POPC   PO459340  11.278  41.559   5.853
 9655POPC   GL159341  11.298  41.589   6.153
 9655POPC   GL259342  11.279  41.652   6.153
 9655POPC   C1A59343  11.337  41.586   6.453
 9655POPC   D2A59344  11.267  41.586   6.753
 9655POPC   C3A59345  11.254  41.551   7.053
 9655POPC   C4A59346  11.287  41.585   7.353
 9655POPC   C1B59347  11.235  41.794   6.453
 9655POPC   C2B59348  11.159  41.797   6.753
 9655POPC   C3B59349  11.201  41.821   7.053
 9655POPC   C4B59350  11.229  41.774   7.353
 9656POPC   NC359351  18.277  43.108   5.553
 9656POPC   PO459352  18.250  43.145   5.853
 9656POPC   GL159353  18.276  43.066   6.153
 9656POPC   GL259354  18.175  43.097   6.153
 9656POPC   C1A59355  18.308  43.099   6.453
 9656POPC   D2A59356  18.305  43.153   6.753
 9656POPC   C3A59357  18.314  43.081   7.053
 9656POPC   C4A59358  18.325  43.156   7.353
 9656POPC   C1B59359  18.069  43.057   6.453
 9656POPC   C2B59360  18.005  43.065   6.753
 9656POPC   C3B59361  18.006  43.075   7.053
 9656POPC   C4B59362  18.039  43.042   7.353
 9657POPC   NC359363  35.307  35.323   5.553
 9657POPC   PO459364  35.326  35.303   5.853
 9657POPC   GL159365  35.380  35.312   6.153
 9657POPC   GL259366  35.360  35.209   6.153
 9657POPC   C1A59367  35.332  35.364   6.453
 9657POPC   D2A59368  35.357  35.308   6.753
 9657POPC   C3A59369  35.361  35.361   7.053
 9657POPC   C4A59370  35.360  35.324   7.353
 9657POPC   C1B59371  35.407  35.070   6.453
 9657POPC   C2B59372  35.358  35.081   6.753
 9657POPC   C3B59373  35.419  35.113   7.053
 9657POPC   C4B59374  35.424  35.134   7.353
 9658POPC   NC359375  20.613  32.298   5.553
 9658POPC   PO459376  20.660  32.244   5.853
 9658POPC   GL159377  20.564  32.282   6.153
 9658POPC   GL259378  20.725  32.183   6.153
 9658POPC   C1A59379  20.591  32.246   6.453
 9658POPC   D2A59380  20.645  32.291   6.753
 9658POPC   C3A59381  20.630  32.297   7.053
 9658POPC   C4A59382  20.593  32.219   7.353
 9658POPC   C1B59383  20.882  32.121   6.453
 9658POPC   C2B59384  20.883  32.179   6.753
 9658POPC   C3B59385  20.877  32.185   7.053
 9658POPC   C4B59386  20.811  32.116   7.353
 9659POPC   NC359387  36.912   9.790   5.553
 9659POPC   PO459388  36.900   9.733   5.853
 9659POPC   GL159389  36.866   9.745   6.153
 9659POPC   GL259390  37.006   9.842   6.153
 9659POPC   C1A59391  36.860   9.740   6.453
 9659POPC   D2A59392  36.883   9.741   6.753
 9659POPC   C3A59393  36.867   9.734   7.053
 9659POPC   C4A59394  36.910   9.778   7.353
 9659POPC   C1B59395  37.126   9.951   6.453
 9659POPC   C2B59396  37.052   9.958   6.753
 9659POPC   C3B59397  37.083   9.963   7.053
 9659POPC   C4B59398  37.122   9.950   7.353
 9660POPC   NC359399  15.129  21.406   5.553
 9660POPC   PO459400  15.173  21.338   5.853
 9660POPC   GL159401  15.218  21.390   6.153
 9660POPC   GL259402  15.030  21.371   6.153
 9660POPC   C1A59403  15.134  21.347   6.453
 9660POPC   D2A59404  15.211  21.398   6.753
 9660POPC   C3A59405  15.187  21.404   7.053
 9660POPC   C4A59406  15.176  21.413   7.353
 9660POPC   C1B59407  14.925  21.329   6.453
 9660POPC   C2B59408  14.891  21.364   6.753
 9660POPC   C3B59409  14.911  21.329   7.053
 9660POPC   C4B59410  14.972  21.369   7.353
 9661POPC   NC359411  11.252  12.125   5.553
 9661POPC   PO459412  11.291  12.122   5.853
 9661POPC   GL159413  11.294  12.100   6.153
 9661POPC   GL259414  11.236  11.918   6.153
 9661POPC   C1A59415  11.295  12.032   6.453
 9661POPC   D2A59416  11.323  12.125   6.753
 9661POPC   C3A59417  11.298  12.046   7.053
 9661POPC   C4A59418  11.333  12.026   7.353
 9661POPC   C1B59419  11.182  11.880   6.453
 9661POPC   C2B59420  11.143  11.889   6.753
 9661POPC   C3B59421  11.178  11.877   7.053
 9661POPC   C4B59422  11.173  11.857   7.353
 9662POPC   NC359423  16.692  23.752   5.553
 9662POPC   PO459424  16.763  23.723   5.853
 9662POPC   GL159425  16.705  23.668   6.153
 9662POPC   GL259426  16.628  23.674   6.153
 9662POPC   C1A59427  16.767  23.735   6.453
 9662POPC   D2A59428  16.759  23.731   6.753
 9662POPC   C3A59429  16.732  23.686   7.053
 9662POPC   C4A59430  16.694  23.725   7.353
 9662POPC   C1B59431  16.433  23.669   6.453
 9662POPC   C2B59432  16.501  23.737   6.753
 9662POPC   C3B59433  16.508  23.690   7.053
 9662POPC   C4B59434  16.437  23.689   7.353
 9663POPC   NC359435  42.313  22.115   5.553
 9663POPC   PO459436  42.360  22.126   5.853
 9663POPC   GL159437  42.302  22.184   6.153
 9663POPC   GL259438  42.426  22.150   6.153
 9663POPC   C1A59439  42.309  22.174   6.453
 9663POPC   D2A59440  42.295  22.179   6.753
 9663POPC   C3A59441  42.338  22.211   7.053
 9663POPC   C4A59442  42.300  22.195   7.353
 9663POPC   C1B59443  42.548  22.266   6.453
 9663POPC   C2B59444  42.593  22.274   6.753
 9663POPC   C3B59445  42.575  22.262   7.053
 9663POPC   C4B59446  42.555  22.194   7.353
 9664POPC   NC359447  21.364  29.148   5.553
 9664POPC   PO459448  21.428  29.117   5.853
 9664POPC   GL159449  21.371  29.146   6.153
 9664POPC   GL259450  21.343  29.277   6.153
 9664POPC   C1A59451  21.356  29.104   6.453
 9664POPC   D2A59452  21.371  29.123   6.753
 9664POPC   C3A59453  21.413  29.184   7.053
 9664POPC   C4A59454  21.365  29.116   7.353
 9664POPC   C1B59455  21.254  29.340   6.453
 9664POPC   C2B59456  21.274  29.335   6.753
 9664POPC   C3B59457  21.311  29.353   7.053
 9664POPC   C4B59458  21.342  29.366   7.353
 9665POPC   NC359459  22.972  26.820   5.553
 9665POPC   PO459460  22.985  26.791   5.853
 9665POPC   GL159461  22.984  26.813   6.153
 9665POPC   GL259462  22.993  26.911   6.153
 9665POPC   C1A59463  22.944  26.827   6.453
 9665POPC   D2A59464  22.955  26.822   6.753
 9665POPC   C3A59465  22.984  26.803   7.053
 9665POPC   C4A59466  22.900  26.771   7.353
 9665POPC   C1B59467  23.022  27.025   6.453
 9665POPC   C2B59468  23.014  27.026   6.753
 9665POPC   C3B59469  23.037  27.055   7.053
 9665POPC   C4B59470  23.042  27.045   7.353
 9666POPC   NC359471  12.123   5.091   5.553
 9666POPC   PO459472  12.052   5.118   5.853
 9666POPC   GL159473  12.056   5.078   6.153
 9666POPC   GL259474  12.020   5.215   6.153
 9666POPC   C1A59475  12.089   5.051   6.453
 9666POPC   D2A59476  12.045   5.111   6.753
 9666POPC   C3A59477  12.108   5.131   7.053
 9666POPC   C4A59478  12.092   5.048   7.353
 9666POPC   C1B59479  12.009   5.285   6.453
 9666POPC   C2B59480  12.026   5.373   6.753
 9666POPC   C3B59481  12.027   5.361   7.053
 9666POPC   C4B59482  12.006   5.335   7.353
 9667POPC   NC359483  15.181   1.968   5.553
 9667POPC   PO459484  15.203   1.942   5.853
 9667POPC   GL159485  15.193   1.956   6.153
 9667POPC   GL259486  15.074   2.041   6.153
 9667POPC   C1A59487  15.227   2.019   6.453
 9667POPC   D2A59488  15.216   1.964   6.753
 9667POPC   C3A59489  15.170   1.957   7.053
 9667POPC   C4A59490  15.168   1.992   7.353
 9667POPC   C1B59491  15.060   2.145   6.453
 9667POPC   C2B59492  15.009   2.211   6.753
 9667POPC   C3B59493  14.997   2.181   7.053
 9667POPC   C4B59494  15.055   2.136   7.353
 9668POPC   NC359495  36.102  27.548   5.553
 9668POPC   PO459496  36.175  27.584   5.853
 9668POPC   GL159497  36.109  27.614   6.153
 9668POPC   GL259498  36.060  27.700   6.153
 9668POPC   C1A59499  36.108  27.603   6.453
 9668POPC   D2A59500  36.141  27.642   6.753
 9668POPC   C3A59501  36.140  27.577   7.053
 9668POPC   C4A59502  36.165  27.553   7.353
 9668POPC   C1B59503  36.018  27.809   6.453
 9668POPC   C2B59504  36.006  27.882   6.753
 9668POPC   C3B59505  36.072  27.851   7.053
 9668POPC   C4B59506  36.060  27.870   7.353
 9669POPC   NC359507  43.128  24.486   5.553
 9669POPC   PO459508  43.063  24.481   5.853
 9669POPC   GL159509  43.130  24.459   6.153
 9669POPC   GL259510  43.096  24.329   6.153
 9669POPC   C1A59511  43.130  24.464   6.453
 9669POPC   D2A59512  43.151  24.477   6.753
 9669POPC   C3A59513  43.150  24.503   7.053
 9669POPC   C4A59514  43.130  24.462   7.353
 9669POPC   C1B59515  43.110  24.290   6.453
 9669POPC   C2B59516  43.097  24.233   6.753
 9669POPC   C3B59517  43.039  24.243   7.053
 9669POPC   C4B59518  43.037  24.279   7.353
 9670POPC   NC359519   4.283  36.089   5.553
 9670POPC   PO459520   4.327  36.135   5.853
 9670POPC   GL159521   4.328  36.145   6.153
 9670POPC   GL259522   4.254  36.198   6.153
 9670POPC   C1A59523   4.305  36.128   6.453
 9670POPC   D2A59524   4.279  36.140   6.753
 9670POPC   C3A59525   4.333  36.176   7.053
 9670POPC   C4A59526   4.353  36.103   7.353
 9670POPC   C1B59527   4.094  36.203   6.453
 9670POPC   C2B59528   4.117  36.295   6.753
 9670POPC   C3B59529   4.150  36.239   7.053
 9670POPC   C4B59530   4.070  36.244   7.353
 9671POPC   NC359531  11.287  43.128   5.553
 9671POPC   PO459532  11.339  43.085   5.853
 9671POPC   GL159533  11.327  43.097   6.153
 9671POPC   GL259534  11.434  43.183   6.153
 9671POPC   C1A59535  11.298  43.072   6.453
 9671POPC   D2A59536  11.287  43.150   6.753
 9671POPC   C3A59537  11.334  43.122   7.053
 9671POPC   C4A59538  11.343  43.158   7.353
 9671POPC   C1B59539  11.464  43.334   6.453
 9671POPC   C2B59540  11.439  43.245   6.753
 9671POPC   C3B59541  11.490  43.303   7.053
 9671POPC   C4B59542  11.462  43.239   7.353
 9672POPC   NC359543  43.157  40.743   5.553
 9672POPC   PO459544  43.156  40.754   5.853
 9672POPC   GL159545  43.072  40.750   6.153
 9672POPC   GL259546  43.244  40.755   6.153
 9672POPC   C1A59547  43.112  40.735   6.453
 9672POPC   D2A59548  43.081  40.809   6.753
 9672POPC   C3A59549  43.104  40.790   7.053
 9672POPC   C4A59550  43.140  40.820   7.353
 9672POPC   C1B59551  43.340  40.754   6.453
 9672POPC   C2B59552  43.393  40.825   6.753
 9672POPC   C3B59553  43.352  40.810   7.053
 9672POPC   C4B59554  43.357  40.841   7.353
 9673POPC   NC359555  23.683  29.112   5.553
 9673POPC   PO459556  23.698  29.142   5.853
 9673POPC   GL159557  23.732  29.184   6.153
 9673POPC   GL259558  23.632  29.146   6.153
 9673POPC   C1A59559  23.666  29.170   6.453
 9673POPC   D2A59560  23.732  29.141   6.753
 9673POPC   C3A59561  23.716  29.099   7.053
 9673POPC   C4A59562  23.718  29.183   7.353
 9673POPC   C1B59563  23.434  29.140   6.453
 9673POPC   C2B59564  23.507  29.097   6.753
 9673POPC   C3B59565  23.445  29.190   7.053
 9673POPC   C4B59566  23.447  29.151   7.353
 9674POPC   NC359567  22.146  30.723   5.553
 9674POPC   PO459568  22.165  30.709   5.853
 9674POPC   GL159569  22.186  30.654   6.153
 9674POPC   GL259570  22.226  30.605   6.153
 9674POPC   C1A59571  22.177  30.668   6.453
 9674POPC   D2A59572  22.203  30.701   6.753
 9674POPC   C3A59573  22.113  30.705   7.053
 9674POPC   C4A59574  22.155  30.746   7.353
 9674POPC   C1B59575  22.289  30.467   6.453
 9674POPC   C2B59576  22.368  30.555   6.753
 9674POPC   C3B59577  22.335  30.519   7.053
 9674POPC   C4B59578  22.354  30.484   7.353
 9675POPC   NC359579  26.042  22.141   5.553
 9675POPC   PO459580  26.006  22.120   5.853
 9675POPC   GL159581  26.051  22.203   6.153
 9675POPC   GL259582  25.949  22.229   6.153
 9675POPC   C1A59583  26.029  22.139   6.453
 9675POPC   D2A59584  26.011  22.184   6.753
 9675POPC   C3A59585  25.998  22.138   7.053
 9675POPC   C4A59586  26.069  22.149   7.353
 9675POPC   C1B59587  25.823  22.243   6.453
 9675POPC   C2B59588  25.809  22.333   6.753
 9675POPC   C3B59589  25.787  22.272   7.053
 9675POPC   C4B59590  25.840  22.322   7.353
 9676POPC   NC359591  36.875  19.880   5.553
 9676POPC   PO459592  36.941  19.838   5.853
 9676POPC   GL159593  36.881  19.854   6.153
 9676POPC   GL259594  36.891  19.691   6.153
 9676POPC   C1A59595  36.888  19.842   6.453
 9676POPC   D2A59596  36.881  19.872   6.753
 9676POPC   C3A59597  36.939  19.879   7.053
 9676POPC   C4A59598  36.932  19.800   7.353
 9676POPC   C1B59599  36.935  19.576   6.453
 9676POPC   C2B59600  36.962  19.634   6.753
 9676POPC   C3B59601  36.903  19.536   7.053
 9676POPC   C4B59602  36.925  19.545   7.353
 9677POPC   NC359603  20.613  29.940   5.553
 9677POPC   PO459604  20.647  29.927   5.853
 9677POPC   GL159605  20.632  29.963   6.153
 9677POPC   GL259606  20.496  30.021   6.153
 9677POPC   C1A59607  20.605  29.880   6.453
 9677POPC   D2A59608  20.613  29.880   6.753
 9677POPC   C3A59609  20.650  29.939   7.053
 9677POPC   C4A59610  20.636  29.888   7.353
 9677POPC   C1B59611  20.418  30.113   6.453
 9677POPC   C2B59612  20.476  30.048   6.753
 9677POPC   C3B59613  20.404  30.142   7.053
 9677POPC   C4B59614  20.461  30.133   7.353
 9678POPC   NC359615   1.168  38.480   5.553
 9678POPC   PO459616   1.213  38.467   5.853
 9678POPC   GL159617   1.224  38.420   6.153
 9678POPC   GL259618   1.239  38.529   6.153
 9678POPC   C1A59619   1.227  38.407   6.453
 9678POPC   D2A59620   1.249  38.505   6.753
 9678POPC   C3A59621   1.204  38.479   7.053
 9678POPC   C4A59622   1.216  38.493   7.353
 9678POPC   C1B59623   1.288  38.655   6.453
 9678POPC   C2B59624   1.346  38.693   6.753
 9678POPC   C3B59625   1.356  38.689   7.053
 9678POPC   C4B59626   1.271  38.692   7.353
 9679POPC   NC359627  32.219  41.511   5.553
 9679POPC   PO459628  32.250  41.560   5.853
 9679POPC   GL159629  32.236  41.572   6.153
 9679POPC   GL259630  32.235  41.453   6.153
 9679POPC   C1A59631  32.259  41.577   6.453
 9679POPC   D2A59632  32.229  41.513   6.753
 9679POPC   C3A59633  32.247  41.522   7.053
 9679POPC   C4A59634  32.259  41.578   7.353
 9679POPC   C1B59635  32.266  41.300   6.453
 9679POPC   C2B59636  32.257  41.273   6.753
 9679POPC   C3B59637  32.322  41.328   7.053
 9679POPC   C4B59638  32.268  41.284   7.353
 9680POPC   NC359639  28.355  26.091   5.553
 9680POPC   PO459640  28.403  26.000   5.853
 9680POPC   GL159641  28.360  26.048   6.153
 9680POPC   GL259642  28.490  26.138   6.153
 9680POPC   C1A59643  28.377  26.011   6.453
 9680POPC   D2A59644  28.327  26.071   6.753
 9680POPC   C3A59645  28.374  26.072   7.053
 9680POPC   C4A59646  28.396  25.996   7.353
 9680POPC   C1B59647  28.538  26.250   6.453
 9680POPC   C2B59648  28.542  26.250   6.753
 9680POPC   C3B59649  28.588  26.240   7.053
 9680POPC   C4B59650  28.589  26.243   7.353
 9681POPC   NC359651  24.440  44.674   5.553
 9681POPC   PO459652  24.441  44.621   5.853
 9681POPC   GL159653  24.484  44.677   6.153
 9681POPC   GL259654  24.455  44.824   6.153
 9681POPC   C1A59655  24.480  44.643   6.453
 9681POPC   D2A59656  24.468  44.692   6.753
 9681POPC   C3A59657  24.490  44.666   7.053
 9681POPC   C4A59658  24.506  44.694   7.353
 9681POPC   C1B59659  24.464  44.924   6.453
 9681POPC   C2B59660  24.474  44.935   6.753
 9681POPC   C3B59661  24.386  44.924   7.053
 9681POPC   C4B59662  24.408  44.883   7.353
 9682POPC   NC359663  19.055   8.181   5.553
 9682POPC   PO459664  19.049   8.212   5.853
 9682POPC   GL159665  19.018   8.243   6.153
 9682POPC   GL259666  19.024   8.348   6.153
 9682POPC   C1A59667  19.047   8.234   6.453
 9682POPC   D2A59668  19.053   8.233   6.753
 9682POPC   C3A59669  19.025   8.149   7.053
 9682POPC   C4A59670  19.096   8.233   7.353
 9682POPC   C1B59671  19.039   8.474   6.453
 9682POPC   C2B59672  19.106   8.415   6.753
 9682POPC   C3B59673  19.090   8.471   7.053
 9682POPC   C4B59674  19.034   8.463   7.353
 9683POPC   NC359675  26.087  40.765   5.553
 9683POPC   PO459676  26.016  40.757   5.853
 9683POPC   GL159677  26.053  40.814   6.153
 9683POPC   GL259678  26.121  40.921   6.153
 9683POPC   C1A59679  26.034  40.771   6.453
 9683POPC   D2A59680  26.045  40.797   6.753
 9683POPC   C3A59681  26.075  40.760   7.053
 9683POPC   C4A59682  26.002  40.762   7.353
 9683POPC   C1B59683  26.239  40.933   6.453
 9683POPC   C2B59684  26.255  40.938   6.753
 9683POPC   C3B59685  26.264  40.951   7.053
 9683POPC   C4B59686  26.212  40.913   7.353
 9684POPC   NC359687  40.009  29.165   5.553
 9684POPC   PO459688  40.048  29.148   5.853
 9684POPC   GL159689  40.053  29.120   6.153
 9684POPC   GL259690  40.083  29.235   6.153
 9684POPC   C1A59691  39.999  29.108   6.453
 9684POPC   D2A59692  39.970  29.149   6.753
 9684POPC   C3A59693  40.001  29.190   7.053
 9684POPC   C4A59694  40.008  29.171   7.353
 9684POPC   C1B59695  40.158  29.393   6.453
 9684POPC   C2B59696  40.186  29.348   6.753
 9684POPC   C3B59697  40.162  29.364   7.053
 9684POPC   C4B59698  40.128  29.332   7.353
 9685POPC   NC359699  21.423  19.826   5.553
 9685POPC   PO459700  21.428  19.797   5.853
 9685POPC   GL159701  21.369  19.785   6.153
 9685POPC   GL259702  21.399  20.005   6.153
 9685POPC   C1A59703  21.406  19.819   6.453
 9685POPC   D2A59704  21.373  19.846   6.753
 9685POPC   C3A59705  21.385  19.880   7.053
 9685POPC   C4A59706  21.407  19.873   7.353
 9685POPC   C1B59707  21.411  20.038   6.453
 9685POPC   C2B59708  21.383  20.063   6.753
 9685POPC   C3B59709  21.430  20.131   7.053
 9685POPC   C4B59710  21.387  20.120   7.353
 9686POPC   NC359711   9.706  32.231   5.553
 9686POPC   PO459712   9.741  32.292   5.853
 9686POPC   GL159713   9.708  32.284   6.153
 9686POPC   GL259714   9.915  32.265   6.153
 9686POPC   C1A59715   9.722  32.228   6.453
 9686POPC   D2A59716   9.774  32.230   6.753
 9686POPC   C3A59717   9.734  32.227   7.053
 9686POPC   C4A59718   9.711  32.275   7.353
 9686POPC   C1B59719   9.999  32.196   6.453
 9686POPC   C2B59720   9.969  32.219   6.753
 9686POPC   C3B59721   9.991  32.227   7.053
 9686POPC   C4B59722   9.998  32.200   7.353
 9687POPC   NC359723   9.753   4.352   5.553
 9687POPC   PO459724   9.721   4.337   5.853
 9687POPC   GL159725   9.737   4.280   6.153
 9687POPC   GL259726   9.670   4.205   6.153
 9687POPC   C1A59727   9.770   4.350   6.453
 9687POPC   D2A59728   9.700   4.320   6.753
 9687POPC   C3A59729   9.719   4.347   7.053
 9687POPC   C4A59730   9.794   4.322   7.353
 9687POPC   C1B59731   9.647   4.106   6.453
 9687POPC   C2B59732   9.599   4.114   6.753
 9687POPC   C3B59733   9.620   4.126   7.053
 9687POPC   C4B59734   9.603   4.129   7.353
 9688POPC   NC359735  24.445  43.073   5.553
 9688POPC   PO459736  24.451  43.096   5.853
 9688POPC   GL159737  24.486  43.130   6.153
 9688POPC   GL259738  24.533  43.034   6.153
 9688POPC   C1A59739  24.455  43.082   6.453
 9688POPC   D2A59740  24.441  43.104   6.753
 9688POPC   C3A59741  24.522  43.153   7.053
 9688POPC   C4A59742  24.450  43.135   7.353
 9688POPC   C1B59743  24.517  42.883   6.453
 9688POPC   C2B59744  24.546  42.869   6.753
 9688POPC   C3B59745  24.560  42.856   7.053
 9688POPC   C4B59746  24.515  42.880   7.353
 9689POPC   NC359747  22.948  40.013   5.553
 9689POPC   PO459748  22.953  39.964   5.853
 9689POPC   GL159749  22.936  40.035   6.153
 9689POPC   GL259750  22.942  40.179   6.153
 9689POPC   C1A59751  22.925  40.006   6.453
 9689POPC   D2A59752  22.892  40.049   6.753
 9689POPC   C3A59753  22.902  39.985   7.053
 9689POPC   C4A59754  22.940  40.018   7.353
 9689POPC   C1B59755  22.876  40.292   6.453
 9689POPC   C2B59756  22.946  40.287   6.753
 9689POPC   C3B59757  22.901  40.287   7.053
 9689POPC   C4B59758  22.863  40.220   7.353
 9690POPC   NC359759   7.436  11.292   5.553
 9690POPC   PO459760   7.439  11.252   5.853
 9690POPC   GL159761   7.461  11.320   6.153
 9690POPC   GL259762   7.434  11.195   6.153
 9690POPC   C1A59763   7.464  11.301   6.453
 9690POPC   D2A59764   7.388  11.325   6.753
 9690POPC   C3A59765   7.376  11.257   7.053
 9690POPC   C4A59766   7.411  11.294   7.353
 9690POPC   C1B59767   7.414  11.039   6.453
 9690POPC   C2B59768   7.405  11.068   6.753
 9690POPC   C3B59769   7.442  11.013   7.053
 9690POPC   C4B59770   7.403  11.001   7.353
 9691POPC   NC359771  10.566  14.447   5.553
 9691POPC   PO459772  10.482  14.356   5.853
 9691POPC   GL159773  10.530  14.446   6.153
 9691POPC   GL259774  10.651  14.435   6.153
 9691POPC   C1A59775  10.533  14.371   6.453
 9691POPC   D2A59776  10.495  14.453   6.753
 9691POPC   C3A59777  10.520  14.435   7.053
 9691POPC   C4A59778  10.550  14.430   7.353
 9691POPC   C1B59779  10.741  14.496   6.453
 9691POPC   C2B59780  10.748  14.561   6.753
 9691POPC   C3B59781  10.779  14.555   7.053
 9691POPC   C4B59782  10.739  14.525   7.353
 9692POPC   NC359783   1.978   8.966   5.553
 9692POPC   PO459784   2.027   8.929   5.853
 9692POPC   GL159785   1.940   8.962   6.153
 9692POPC   GL259786   1.828   8.896   6.153
 9692POPC   C1A59787   1.970   8.943   6.453
 9692POPC   D2A59788   2.021   9.010   6.753
 9692POPC   C3A59789   1.957   8.930   7.053
 9692POPC   C4A59790   1.974   9.003   7.353
 9692POPC   C1B59791   1.758   8.903   6.453
 9692POPC   C2B59792   1.788   8.889   6.753
 9692POPC   C3B59793   1.791   8.942   7.053
 9692POPC   C4B59794   1.764   8.869   7.353
 9693POPC   NC359795  22.966  21.400   5.553
 9693POPC   PO459796  22.904  21.364   5.853
 9693POPC   GL159797  22.946  21.362   6.153
 9693POPC   GL259798  22.837  21.426   6.153
 9693POPC   C1A59799  22.978  21.340   6.453
 9693POPC   D2A59800  22.931  21.412   6.753
 9693POPC   C3A59801  22.958  21.374   7.053
 9693POPC   C4A59802  22.906  21.362   7.353
 9693POPC   C1B59803  22.790  21.548   6.453
 9693POPC   C2B59804  22.718  21.521   6.753
 9693POPC   C3B59805  22.733  21.531   7.053
 9693POPC   C4B59806  22.770  21.580   7.353
 9694POPC   NC359807  17.473   4.298   5.553
 9694POPC   PO459808  17.457   4.320   5.853
 9694POPC   GL159809  17.544   4.365   6.153
 9694POPC   GL259810  17.356   4.341   6.153
 9694POPC   C1A59811  17.496   4.317   6.453
 9694POPC   D2A59812  17.541   4.340   6.753
 9694POPC   C3A59813  17.541   4.284   7.053
 9694POPC   C4A59814  17.543   4.292   7.353
 9694POPC   C1B59815  17.229   4.322   6.453
 9694POPC   C2B59816  17.295   4.358   6.753
 9694POPC   C3B59817  17.227   4.280   7.053
 9694POPC   C4B59818  17.273   4.294   7.353
 9695POPC   NC359819  17.475  43.857   5.553
 9695POPC   PO459820  17.480  43.912   5.853
 9695POPC   GL159821  17.531  43.883   6.153
 9695POPC   GL259822  17.414  43.971   6.153
 9695POPC   C1A59823  17.555  43.880   6.453
 9695POPC   D2A59824  17.460  43.859   6.753
 9695POPC   C3A59825  17.546  43.920   7.053
 9695POPC   C4A59826  17.458  43.918   7.353
 9695POPC   C1B59827  17.310  44.028   6.453
 9695POPC   C2B59828  17.290  44.043   6.753
 9695POPC   C3B59829  17.285  44.036   7.053
 9695POPC   C4B59830  17.315  44.021   7.353
 9696POPC   NC359831   6.695   5.823   5.553
 9696POPC   PO459832   6.679   5.824   5.853
 9696POPC   GL159833   6.600   5.836   6.153
 9696POPC   GL259834   6.574   5.821   6.153
 9696POPC   C1A59835   6.651   5.843   6.453
 9696POPC   D2A59836   6.669   5.825   6.753
 9696POPC   C3A59837   6.650   5.845   7.053
 9696POPC   C4A59838   6.663   5.823   7.353
 9696POPC   C1B59839   6.444   5.733   6.453
 9696POPC   C2B59840   6.461   5.727   6.753
 9696POPC   C3B59841   6.476   5.732   7.053
 9696POPC   C4B59842   6.441   5.736   7.353
 9697POPC   NC359843   2.039  43.858   5.553
 9697POPC   PO459844   1.960  43.932   5.853
 9697POPC   GL159845   1.997  43.913   6.153
 9697POPC   GL259846   2.044  43.995   6.153
 9697POPC   C1A59847   1.976  43.837   6.453
 9697POPC   D2A59848   2.037  43.868   6.753
 9697POPC   C3A59849   2.034  43.849   7.053
 9697POPC   C4A59850   2.006  43.867   7.353
 9697POPC   C1B59851   2.172  44.114   6.453
 9697POPC   C2B59852   2.205  44.056   6.753
 9697POPC   C3B59853   2.188  44.031   7.053
 9697POPC   C4B59854   2.133  44.099   7.353
 9698POPC   NC359855  29.181   2.011   5.553
 9698POPC   PO459856  29.193   1.957   5.853
 9698POPC   GL159857  29.143   2.035   6.153
 9698POPC   GL259858  29.173   2.156   6.153
 9698POPC   C1A59859  29.156   1.944   6.453
 9698POPC   D2A59860  29.169   2.010   6.753
 9698POPC   C3A59861  29.136   1.943   7.053
 9698POPC   C4A59862  29.134   2.013   7.353
 9698POPC   C1B59863  29.209   2.279   6.453
 9698POPC   C2B59864  29.157   2.273   6.753
 9698POPC   C3B59865  29.222   2.251   7.053
 9698POPC   C4B59866  29.152   2.206   7.353
 9699POPC   NC359867  22.130  16.758   5.553
 9699POPC   PO459868  22.127  16.700   5.853
 9699POPC   GL159869  22.202  16.749   6.153
 9699POPC   GL259870  22.099  16.824   6.153
 9699POPC   C1A59871  22.202  16.756   6.453
 9699POPC   D2A59872  22.197  16.744   6.753
 9699POPC   C3A59873  22.178  16.703   7.053
 9699POPC   C4A59874  22.199  16.727   7.353
 9699POPC   C1B59875  21.918  16.896   6.453
 9699POPC   C2B59876  22.004  16.911   6.753
 9699POPC   C3B59877  21.962  16.840   7.053
 9699POPC   C4B59878  21.974  16.881   7.353
 9700POPC   NC359879   8.980  36.925   5.553
 9700POPC   PO459880   8.979  36.864   5.853
 9700POPC   GL159881   8.931  36.939   6.153
 9700POPC   GL259882   8.939  36.746   6.153
 9700POPC   C1A59883   8.934  36.944   6.453
 9700POPC   D2A59884   8.935  36.861   6.753
 9700POPC   C3A59885   9.010  36.873   7.053
 9700POPC   C4A59886   8.986  36.870   7.353
 9700POPC   C1B59887   8.972  36.635   6.453
 9700POPC   C2B59888   8.972  36.638   6.753
 9700POPC   C3B59889   8.927  36.609   7.053
 9700POPC   C4B59890   8.953  36.642   7.353
 9701POPC   NC359891  44.662  37.653   5.553
 9701POPC   PO459892  44.623  37.633   5.853
 9701POPC   GL159893  44.693  37.649   6.153
 9701POPC   GL259894  44.494  37.685   6.153
 9701POPC   C1A59895  44.617  37.687   6.453
 9701POPC   D2A59896  44.709  37.646   6.753
 9701POPC   C3A59897  44.661  37.714   7.053
 9701POPC   C4A59898  44.680  37.705   7.353
 9701POPC   C1B59899  44.423  37.717   6.453
 9701POPC   C2B59900  44.434  37.774   6.753
 9701POPC   C3B59901  44.455  37.722   7.053
 9701POPC   C4B59902  44.379  37.749   7.353
 9702POPC   NC359903   1.972   8.238   5.553
 9702POPC   PO459904   1.960   8.211   5.853
 9702POPC   GL159905   1.988   8.234   6.153
 9702POPC   GL259906   1.946   8.069   6.153
 9702POPC   C1A59907   1.960   8.163   6.453
 9702POPC   D2A59908   2.039   8.214   6.753
 9702POPC   C3A59909   1.966   8.227   7.053
 9702POPC   C4A59910   2.039   8.226   7.353
 9702POPC   C1B59911   1.765   8.050   6.453
 9702POPC   C2B59912   1.768   8.005   6.753
 9702POPC   C3B59913   1.818   8.023   7.053
 9702POPC   C4B59914   1.849   8.005   7.353
 9703POPC   NC359915  28.358  32.260   5.553
 9703POPC   PO459916  28.405  32.290   5.853
 9703POPC   GL159917  28.416  32.228   6.153
 9703POPC   GL259918  28.268  32.350   6.153
 9703POPC   C1A59919  28.352  32.279   6.453
 9703POPC   D2A59920  28.382  32.200   6.753
 9703POPC   C3A59921  28.415  32.238   7.053
 9703POPC   C4A59922  28.368  32.255   7.353
 9703POPC   C1B59923  28.266  32.453   6.453
 9703POPC   C2B59924  28.297  32.436   6.753
 9703POPC   C3B59925  28.231  32.459   7.053
 9703POPC   C4B59926  28.247  32.503   7.353
 9704POPC   NC359927  25.261  24.443   5.553
 9704POPC   PO459928  25.250  24.454   5.853
 9704POPC   GL159929  25.270  24.534   6.153
 9704POPC   GL259930  25.144  24.435   6.153
 9704POPC   C1A59931  25.278  24.529   6.453
 9704POPC   D2A59932  25.259  24.503   6.753
 9704POPC   C3A59933  25.264  24.463   7.053
 9704POPC   C4A59934  25.249  24.523   7.353
 9704POPC   C1B59935  25.014  24.358   6.453
 9704POPC   C2B59936  24.991  24.378   6.753
 9704POPC   C3B59937  25.064  24.415   7.053
 9704POPC   C4B59938  25.059  24.426   7.353
 9705POPC   NC359939  27.578   5.096   5.553
 9705POPC   PO459940  27.634   5.046   5.853
 9705POPC   GL159941  27.568   5.117   6.153
 9705POPC   GL259942  27.644   5.214   6.153
 9705POPC   C1A59943  27.617   5.104   6.453
 9705POPC   D2A59944  27.603   5.073   6.753
 9705POPC   C3A59945  27.633   5.090   7.053
 9705POPC   C4A59946  27.603   5.070   7.353
 9705POPC   C1B59947  27.571   5.380   6.453
 9705POPC   C2B59948  27.581   5.359   6.753
 9705POPC   C3B59949  27.592   5.296   7.053
 9705POPC   C4B59950  27.602   5.305   7.353
 9706POPC   NC359951   1.165  36.147   5.553
 9706POPC   PO459952   1.247  36.132   5.853
 9706POPC   GL159953   1.196  36.081   6.153
 9706POPC   GL259954   1.268  36.207   6.153
 9706POPC   C1A59955   1.211  36.137   6.453
 9706POPC   D2A59956   1.218  36.097   6.753
 9706POPC   C3A59957   1.243  36.145   7.053
 9706POPC   C4A59958   1.189  36.118   7.353
 9706POPC   C1B59959   1.353  36.351   6.453
 9706POPC   C2B59960   1.281  36.322   6.753
 9706POPC   C3B59961   1.327  36.401   7.053
 9706POPC   C4B59962   1.265  36.314   7.353
 9707POPC   NC359963  38.501  18.235   5.553
 9707POPC   PO459964  38.488  18.307   5.853
 9707POPC   GL159965  38.452  18.253   6.153
 9707POPC   GL259966  38.386  18.373   6.153
 9707POPC   C1A59967  38.447  18.277   6.453
 9707POPC   D2A59968  38.456  18.318   6.753
 9707POPC   C3A59969  38.443  18.314   7.053
 9707POPC   C4A59970  38.470  18.233   7.353
 9707POPC   C1B59971  38.300  18.412   6.453
 9707POPC   C2B59972  38.300  18.402   6.753
 9707POPC   C3B59973  38.229  18.453   7.053
 9707POPC   C4B59974  38.220  18.459   7.353
 9708POPC   NC359975  26.060  39.960   5.553
 9708POPC   PO459976  26.046  39.965   5.853
 9708POPC   GL159977  26.076  39.997   6.153
 9708POPC   GL259978  25.935  40.118   6.153
 9708POPC   C1A59979  26.049  40.043   6.453
 9708POPC   D2A59980  26.038  40.010   6.753
 9708POPC   C3A59981  25.993  40.045   7.053
 9708POPC   C4A59982  26.065  40.029   7.353
 9708POPC   C1B59983  25.867  40.220   6.453
 9708POPC   C2B59984  25.847  40.229   6.753
 9708POPC   C3B59985  25.916  40.184   7.053
 9708POPC   C4B59986  25.853  40.160   7.353
 9709POPC   NC359987  38.455   6.640   5.553
 9709POPC   PO459988  38.482   6.662   5.853
 9709POPC   GL159989  38.482   6.659   6.153
 9709POPC   GL259990  38.618   6.581   6.153
 9709POPC   C1A59991  38.440   6.598   6.453
 9709POPC   D2A59992  38.407   6.610   6.753
 9709POPC   C3A59993  38.504   6.690   7.053
 9709POPC   C4A59994  38.425   6.670   7.353
 9709POPC   C1B59995  38.731   6.636   6.453
 9709POPC   C2B59996  38.708   6.555   6.753
 9709POPC   C3B59997  38.684   6.577   7.053
 9709POPC   C4B59998  38.680   6.591   7.353
 9710POPC   NC359999  24.466  18.258   5.553
 9710POPC   PO460000  24.519  18.289   5.853
 9710POPC   GL160001  24.505  18.263   6.153
 9710POPC   GL260002  24.397  18.242   6.153
 9710POPC   C1A60003  24.468  18.311   6.453
 9710POPC   D2A60004  24.445  18.237   6.753
 9710POPC   C3A60005  24.446  18.288   7.053
 9710POPC   C4A60006  24.459  18.276   7.353
 9710POPC   C1B60007  24.202  18.217   6.453
 9710POPC   C2B60008  24.273  18.213   6.753
 9710POPC   C3B60009  24.254  18.250   7.053
 9710POPC   C4B60010  24.214  18.253   7.353
 9711POPC   NC360011   8.186  35.371   5.553
 9711POPC   PO460012   8.163  35.343   5.853
 9711POPC   GL160013   8.232  35.390   6.153
 9711POPC   GL260014   8.136  35.229   6.153
 9711POPC   C1A60015   8.162  35.401   6.453
 9711POPC   D2A60016   8.171  35.357   6.753
 9711POPC   C3A60017   8.179  35.303   7.053
 9711POPC   C4A60018   8.214  35.358   7.353
 9711POPC   C1B60019   8.188  35.111   6.453
 9711POPC   C2B60020   8.161  35.108   6.753
 9711POPC   C3B60021   8.187  35.057   7.053
 9711POPC   C4B60022   8.190  35.104   7.353
 9712POPC   NC360023  24.466  20.604   5.553
 9712POPC   PO460024  24.507  20.651   5.853
 9712POPC   GL160025  24.528  20.654   6.153
 9712POPC   GL260026  24.522  20.681   6.153
 9712POPC   C1A60027  24.511  20.565   6.453
 9712POPC   D2A60028  24.468  20.562   6.753
 9712POPC   C3A60029  24.475  20.563   7.053
 9712POPC   C4A60030  24.470  20.575   7.353
 9712POPC   C1B60031  24.607  20.846   6.453
 9712POPC   C2B60032  24.578  20.800   6.753
 9712POPC   C3B60033  24.557  20.809   7.053
 9712POPC   C4B60034  24.617  20.844   7.353
 9713POPC   NC360035  22.951  24.525   5.553
 9713POPC   PO460036  22.960  24.525   5.853
 9713POPC   GL160037  22.917  24.497   6.153
 9713POPC   GL260038  22.886  24.553   6.153
 9713POPC   C1A60039  22.962  24.479   6.453
 9713POPC   D2A60040  22.922  24.469   6.753
 9713POPC   C3A60041  22.898  24.466   7.053
 9713POPC   C4A60042  22.913  24.537   7.353
 9713POPC   C1B60043  22.728  24.676   6.453
 9713POPC   C2B60044  22.782  24.623   6.753
 9713POPC   C3B60045  22.747  24.620   7.053
 9713POPC   C4B60046  22.723  24.675   7.353
 9714POPC   NC360047  15.221  27.556   5.553
 9714POPC   PO460048  15.208  27.570   5.853
 9714POPC   GL160049  15.167  27.555   6.153
 9714POPC   GL260050  15.231  27.737   6.153
 9714POPC   C1A60051  15.137  27.590   6.453
 9714POPC   D2A60052  15.212  27.609   6.753
 9714POPC   C3A60053  15.186  27.630   7.053
 9714POPC   C4A60054  15.206  27.554   7.353
 9714POPC   C1B60055  15.316  27.797   6.453
 9714POPC   C2B60056  15.365  27.788   6.753
 9714POPC   C3B60057  15.357  27.777   7.053
 9714POPC   C4B60058  15.291  27.751   7.353
 9715POPC   NC360059  11.303  31.522   5.553
 9715POPC   PO460060  11.291  31.459   5.853
 9715POPC   GL160061  11.293  31.506   6.153
 9715POPC   GL260062  11.371  31.569   6.153
 9715POPC   C1A60063  11.253  31.466   6.453
 9715POPC   D2A60064  11.263  31.468   6.753
 9715POPC   C3A60065  11.259  31.497   7.053
 9715POPC   C4A60066  11.295  31.467   7.353
 9715POPC   C1B60067  11.509  31.561   6.453
 9715POPC   C2B60068  11.538  31.564   6.753
 9715POPC   C3B60069  11.541  31.602   7.053
 9715POPC   C4B60070  11.570  31.537   7.353
 9716POPC   NC360071  26.853  12.820   5.553
 9716POPC   PO460072  26.834  12.889   5.853
 9716POPC   GL160073  26.849  12.874   6.153
 9716POPC   GL260074  26.804  12.739   6.153
 9716POPC   C1A60075  26.785  12.889   6.453
 9716POPC   D2A60076  26.790  12.835   6.753
 9716POPC   C3A60077  26.774  12.802   7.053
 9716POPC   C4A60078  26.782  12.818   7.353
 9716POPC   C1B60079  26.722  12.664   6.453
 9716POPC   C2B60080  26.752  12.602   6.753
 9716POPC   C3B60081  26.762  12.648   7.053
 9716POPC   C4B60082  26.722  12.617   7.353
 9717POPC   NC360083  44.633  13.581   5.553
 9717POPC   PO460084  44.621  13.593   5.853
 9717POPC   GL160085  44.658  13.665   6.153
 9717POPC   GL260086  44.726  13.668   6.153
 9717POPC   C1A60087  44.676  13.636   6.453
 9717POPC   D2A60088  44.614  13.637   6.753
 9717POPC   C3A60089  44.636  13.579   7.053
 9717POPC   C4A60090  44.709  13.669   7.353
 9717POPC   C1B60091  44.860  13.747   6.453
 9717POPC   C2B60092  44.834  13.836   6.753
 9717POPC   C3B60093  44.871  13.760   7.053
 9717POPC   C4B60094  44.829  13.755   7.353
 9718POPC   NC360095  29.937  19.808   5.553
 9718POPC   PO460096  29.889  19.840   5.853
 9718POPC   GL160097  29.966  19.830   6.153
 9718POPC   GL260098  29.844  19.779   6.153
 9718POPC   C1A60099  29.950  19.788   6.453
 9718POPC   D2A60100  29.929  19.861   6.753
 9718POPC   C3A60101  29.936  19.875   7.053
 9718POPC   C4A60102  29.910  19.876   7.353
 9718POPC   C1B60103  29.745  19.672   6.453
 9718POPC   C2B60104  29.728  19.664   6.753
 9718POPC   C3B60105  29.705  19.614   7.053
 9718POPC   C4B60106  29.731  19.611   7.353
 9719POPC   NC360107  20.572  29.125   5.553
 9719POPC   PO460108  20.572  29.140   5.853
 9719POPC   GL160109  20.600  29.102   6.153
 9719POPC   GL260110  20.519  29.181   6.153
 9719POPC   C1A60111  20.613  29.146   6.453
 9719POPC   D2A60112  20.654  29.173   6.753
 9719POPC   C3A60113  20.589  29.099   7.053
 9719POPC   C4A60114  20.650  29.180   7.353
 9719POPC   C1B60115  20.384  29.103   6.453
 9719POPC   C2B60116  20.378  29.094   6.753
 9719POPC   C3B60117  20.311  29.088   7.053
 9719POPC   C4B60118  20.390  29.108   7.353
 9720POPC   NC360119  13.641  12.041   5.553
 9720POPC   PO460120  13.651  12.086   5.853
 9720POPC   GL160121  13.663  12.077   6.153
 9720POPC   GL260122  13.558  11.931   6.153
 9720POPC   C1A60123  13.589  12.122   6.453
 9720POPC   D2A60124  13.643  12.120   6.753
 9720POPC   C3A60125  13.597  12.048   7.053
 9720POPC   C4A60126  13.617  12.045   7.353
 9720POPC   C1B60127  13.543  11.815   6.453
 9720POPC   C2B60128  13.527  11.879   6.753
 9720POPC   C3B60129  13.518  11.896   7.053
 9720POPC   C4B60130  13.528  11.806   7.353
 9721POPC   NC360131  43.110   4.342   5.553
 9721POPC   PO460132  43.116   4.359   5.853
 9721POPC   GL160133  43.137   4.274   6.153
 9721POPC   GL260134  43.056   4.425   6.153
 9721POPC   C1A60135  43.087   4.320   6.453
 9721POPC   D2A60136  43.149   4.366   6.753
 9721POPC   C3A60137  43.066   4.330   7.053
 9721POPC   C4A60138  43.110   4.277   7.353
 9721POPC   C1B60139  43.017   4.483   6.453
 9721POPC   C2B60140  43.013   4.501   6.753
 9721POPC   C3B60141  43.003   4.557   7.053
 9721POPC   C4B60142  43.007   4.544   7.353
 9722POPC   NC360143  43.085  28.398   5.553
 9722POPC   PO460144  43.150  28.391   5.853
 9722POPC   GL160145  43.062  28.391   6.153
 9722POPC   GL260146  42.970  28.397   6.153
 9722POPC   C1A60147  43.147  28.390   6.453
 9722POPC   D2A60148  43.103  28.381   6.753
 9722POPC   C3A60149  43.091  28.330   7.053
 9722POPC   C4A60150  43.079  28.352   7.353
 9722POPC   C1B60151  42.849  28.320   6.453
 9722POPC   C2B60152  42.871  28.314   6.753
 9722POPC   C3B60153  42.816  28.302   7.053
 9722POPC   C4B60154  42.842  28.289   7.353
 9723POPC   NC360155  33.814  26.070   5.553
 9723POPC   PO460156  33.785  26.073   5.853
 9723POPC   GL160157  33.825  25.994   6.153
 9723POPC   GL260158  33.929  26.051   6.153
 9723POPC   C1A60159  33.823  26.085   6.453
 9723POPC   D2A60160  33.839  26.080   6.753
 9723POPC   C3A60161  33.753  26.089   7.053
 9723POPC   C4A60162  33.838  26.011   7.353
 9723POPC   C1B60163  34.033  26.124   6.453
 9723POPC   C2B60164  34.017  26.090   6.753
 9723POPC   C3B60165  34.072  26.090   7.053
 9723POPC   C4B60166  34.088  26.163   7.353
 9724POPC   NC360167  36.889  38.458   5.553
 9724POPC   PO460168  36.877  38.446   5.853
 9724POPC   GL160169  36.927  38.487   6.153
 9724POPC   GL260170  36.938  38.575   6.153
 9724POPC   C1A60171  36.950  38.472   6.453
 9724POPC   D2A60172  36.927  38.433   6.753
 9724POPC   C3A60173  36.884  38.457   7.053
 9724POPC   C4A60174  36.929  38.436   7.353
 9724POPC   C1B60175  37.080  38.676   6.453
 9724POPC   C2B60176  37.033  38.627   6.753
 9724POPC   C3B60177  37.099  38.659   7.053
 9724POPC   C4B60178  37.086  38.689   7.353
 9725POPC   NC360179   5.077  20.631   5.553
 9725POPC   PO460180   5.129  20.633   5.853
 9725POPC   GL160181   5.051  20.566   6.153
 9725POPC   GL260182   5.145  20.701   6.153
 9725POPC   C1A60183   5.096  20.655   6.453
 9725POPC   D2A60184   5.063  20.596   6.753
 9725POPC   C3A60185   5.044  20.576   7.053
 9725POPC   C4A60186   5.089  20.638   7.353
 9725POPC   C1B60187   5.204  20.823   6.453
 9725POPC   C2B60188   5.166  20.803   6.753
 9725POPC   C3B60189   5.160  20.818   7.053
 9725POPC   C4B60190   5.124  20.875   7.353
 9726POPC   NC360191   7.467  15.976   5.553
 9726POPC   PO460192   7.464  15.955   5.853
 9726POPC   GL160193   7.445  15.933   6.153
 9726POPC   GL260194   7.362  16.027   6.153
 9726POPC   C1A60195   7.417  15.905   6.453
 9726POPC   D2A60196   7.433  15.944   6.753
 9726POPC   C3A60197   7.375  15.966   7.053
 9726POPC   C4A60198   7.443  16.003   7.353
 9726POPC   C1B60199   7.283  16.139   6.453
 9726POPC   C2B60200   7.244  16.209   6.753
 9726POPC   C3B60201   7.338  16.177   7.053
 9726POPC   C4B60202   7.269  16.177   7.353
 9727POPC   NC360203  26.838  13.628   5.553
 9727POPC   PO460204  26.790  13.663   5.853
 9727POPC   GL160205  26.855  13.585   6.153
 9727POPC   GL260206  26.769  13.493   6.153
 9727POPC   C1A60207  26.806  13.672   6.453
 9727POPC   D2A60208  26.798  13.659   6.753
 9727POPC   C3A60209  26.846  13.582   7.053
 9727POPC   C4A60210  26.781  13.624   7.353
 9727POPC   C1B60211  26.800  13.346   6.453
 9727POPC   C2B60212  26.752  13.350   6.753
 9727POPC   C3B60213  26.744  13.372   7.053
 9727POPC   C4B60214  26.804  13.403   7.353
 9728POPC   NC360215  31.448  39.980   5.553
 9728POPC   PO460216  31.471  40.018   5.853
 9728POPC   GL160217  31.432  40.022   6.153
 9728POPC   GL260218  31.564  39.948   6.153
 9728POPC   C1A60219  31.440  40.012   6.453
 9728POPC   D2A60220  31.486  40.000   6.753
 9728POPC   C3A60221  31.430  39.977   7.053
 9728POPC   C4A60222  31.500  39.983   7.353
 9728POPC   C1B60223  31.671  39.884   6.453
 9728POPC   C2B60224  31.736  39.920   6.753
 9728POPC   C3B60225  31.717  39.891   7.053
 9728POPC   C4B60226  31.668  39.851   7.353
 9729POPC   NC360227   9.776   2.774   5.553
 9729POPC   PO460228   9.794   2.807   5.853
 9729POPC   GL160229   9.756   2.773   6.153
 9729POPC   GL260230   9.872   2.891   6.153
 9729POPC   C1A60231   9.705   2.729   6.453
 9729POPC   D2A60232   9.731   2.720   6.753
 9729POPC   C3A60233   9.778   2.719   7.053
 9729POPC   C4A60234   9.743   2.731   7.353
 9729POPC   C1B60235   9.937   2.987   6.453
 9729POPC   C2B60236   9.954   2.966   6.753
 9729POPC   C3B60237   9.868   2.964   7.053
 9729POPC   C4B60238   9.859   2.939   7.353
 9730POPC   NC360239  19.108   1.944   5.553
 9730POPC   PO460240  19.071   1.969   5.853
 9730POPC   GL160241  19.069   1.967   6.153
 9730POPC   GL260242  18.956   1.872   6.153
 9730POPC   C1A60243  19.039   2.002   6.453
 9730POPC   D2A60244  19.094   1.963   6.753
 9730POPC   C3A60245  19.054   1.987   7.053
 9730POPC   C4A60246  19.078   1.977   7.353
 9730POPC   C1B60247  18.918   1.782   6.453
 9730POPC   C2B60248  18.837   1.804   6.753
 9730POPC   C3B60249  18.933   1.851   7.053
 9730POPC   C4B60250  18.873   1.804   7.353
 9731POPC   NC360251  35.364  44.654   5.553
 9731POPC   PO460252  35.380  44.702   5.853
 9731POPC   GL160253  35.381  44.678   6.153
 9731POPC   GL260254  35.435  44.809   6.153
 9731POPC   C1A60255  35.376  44.633   6.453
 9731POPC   D2A60256  35.363  44.711   6.753
 9731POPC   C3A60257  35.355  44.677   7.053
 9731POPC   C4A60258  35.310  44.682   7.353
 9731POPC   C1B60259  35.397  44.936   6.453
 9731POPC   C2B60260  35.418  44.899   6.753
 9731POPC   C3B60261  35.462  44.916   7.053
 9731POPC   C4B60262  35.473  44.908   7.353
 9732POPC   NC360263   1.947  19.052   5.553
 9732POPC   PO460264   1.941  19.052   5.853
 9732POPC   GL160265   2.030  19.046   6.153
 9732POPC   GL260266   1.987  18.969   6.153
 9732POPC   C1A60267   2.038  19.066   6.453
 9732POPC   D2A60268   1.952  19.084   6.753
 9732POPC   C3A60269   1.983  19.030   7.053
 9732POPC   C4A60270   2.021  19.024   7.353
 9732POPC   C1B60271   1.984  18.855   6.453
 9732POPC   C2B60272   1.939  18.829   6.753
 9732POPC   C3B60273   1.972  18.838   7.053
 9732POPC   C4B60274   1.973  18.768   7.353
 9733POPC   NC360275  32.297  29.165   5.553
 9733POPC   PO460276  32.207  29.146   5.853
 9733POPC   GL160277  32.236  29.114   6.153
 9733POPC   GL260278  32.218  29.232   6.153
 9733POPC   C1A60279  32.268  29.160   6.453
 9733POPC   D2A60280  32.232  29.186   6.753
 9733POPC   C3A60281  32.214  29.131   7.053
 9733POPC   C4A60282  32.293  29.115   7.353
 9733POPC   C1B60283  32.099  29.409   6.453
 9733POPC   C2B60284  32.130  29.329   6.753
 9733POPC   C3B60285  32.176  29.355   7.053
 9733POPC   C4B60286  32.133  29.345   7.353
 9734POPC   NC360287  41.520  23.688   5.553
 9734POPC   PO460288  41.600  23.763   5.853
 9734POPC   GL160289  41.531  23.701   6.153
 9734POPC   GL260290  41.584  23.575   6.153
 9734POPC   C1A60291  41.546  23.746   6.453
 9734POPC   D2A60292  41.594  23.683   6.753
 9734POPC   C3A60293  41.549  23.706   7.053
 9734POPC   C4A60294  41.511  23.680   7.353
 9734POPC   C1B60295  41.636  23.481   6.453
 9734POPC   C2B60296  41.670  23.528   6.753
 9734POPC   C3B60297  41.664  23.464   7.053
 9734POPC   C4B60298  41.690  23.501   7.353
 9735POPC   NC360299   9.789  33.799   5.553
 9735POPC   PO460300   9.763  33.767   5.853
 9735POPC   GL160301   9.747  33.804   6.153
 9735POPC   GL260302   9.842  33.775   6.153
 9735POPC   C1A60303   9.768  33.827   6.453
 9735POPC   D2A60304   9.727  33.763   6.753
 9735POPC   C3A60305   9.754  33.799   7.053
 9735POPC   C4A60306   9.713  33.753   7.353
 9735POPC   C1B60307   9.950  33.725   6.453
 9735POPC   C2B60308  10.028  33.723   6.753
 9735POPC   C3B60309  10.026  33.725   7.053
 9735POPC   C4B60310  10.010  33.718   7.353
 9736POPC   NC360311  21.403  14.371   5.553
 9736POPC   PO460312  21.372  14.431   5.853
 9736POPC   GL160313  21.362  14.422   6.153
 9736POPC   GL260314  21.336  14.478   6.153
 9736POPC   C1A60315  21.399  14.415   6.453
 9736POPC   D2A60316  21.405  14.357   6.753
 9736POPC   C3A60317  21.364  14.416   7.053
 9736POPC   C4A60318  21.348  14.435   7.353
 9736POPC   C1B60319  21.173  14.555   6.453
 9736POPC   C2B60320  21.219  14.549   6.753
 9736POPC   C3B60321  21.179  14.604   7.053
 9736POPC   C4B60322  21.198  14.591   7.353
 9737POPC   NC360323  25.244  26.825   5.553
 9737POPC   PO460324  25.302  26.847   5.853
 9737POPC   GL160325  25.253  26.780   6.153
 9737POPC   GL260326  25.362  26.788   6.153
 9737POPC   C1A60327  25.294  26.786   6.453
 9737POPC   D2A60328  25.273  26.847   6.753
 9737POPC   C3A60329  25.235  26.782   7.053
 9737POPC   C4A60330  25.254  26.866   7.353
 9737POPC   C1B60331  25.489  26.734   6.453
 9737POPC   C2B60332  25.531  26.725   6.753
 9737POPC   C3B60333  25.521  26.706   7.053
 9737POPC   C4B60334  25.499  26.697   7.353
 9738POPC   NC360335  41.585   5.126   5.553
 9738POPC   PO460336  41.519   5.117   5.853
 9738POPC   GL160337  41.567   5.094   6.153
 9738POPC   GL260338  41.509   5.159   6.153
 9738POPC   C1A60339  41.531   5.095   6.453
 9738POPC   D2A60340  41.585   5.134   6.753
 9738POPC   C3A60341  41.517   5.100   7.053
 9738POPC   C4A60342  41.528   5.098   7.353
 9738POPC   C1B60343  41.475   5.325   6.453
 9738POPC   C2B60344  41.423   5.328   6.753
 9738POPC   C3B60345  41.420   5.317   7.053
 9738POPC   C4B60346  41.433   5.304   7.353
 9739POPC   NC360347  37.692  26.776   5.553
 9739POPC   PO460348  37.652  26.809   5.853
 9739POPC   GL160349  37.708  26.852   6.153
 9739POPC   GL260350  37.641  26.739   6.153
 9739POPC   C1A60351  37.671  26.814   6.453
 9739POPC   D2A60352  37.659  26.840   6.753
 9739POPC   C3A60353  37.725  26.826   7.053
 9739POPC   C4A60354  37.672  26.792   7.353
 9739POPC   C1B60355  37.494  26.588   6.453
 9739POPC   C2B60356  37.486  26.647   6.753
 9739POPC   C3B60357  37.529  26.594   7.053
 9739POPC   C4B60358  37.529  26.647   7.353
 9740POPC   NC360359  32.251  39.985   5.553
 9740POPC   PO460360  32.235  40.012   5.853
 9740POPC   GL160361  32.244  40.029   6.153
 9740POPC   GL260362  32.201  40.110   6.153
 9740POPC   C1A60363  32.252  40.011   6.453
 9740POPC   D2A60364  32.297  39.981   6.753
 9740POPC   C3A60365  32.248  40.044   7.053
 9740POPC   C4A60366  32.264  39.968   7.353
 9740POPC   C1B60367  32.144  40.222   6.453
 9740POPC   C2B60368  32.203  40.213   6.753
 9740POPC   C3B60369  32.172  40.225   7.053
 9740POPC   C4B60370  32.211  40.272   7.353
 9741POPC   NC360371   8.184  29.180   5.553
 9741POPC   PO460372   8.153  29.172   5.853
 9741POPC   GL160373   8.180  29.120   6.153
 9741POPC   GL260374   8.323  29.203   6.153
 9741POPC   C1A60375   8.235  29.132   6.453
 9741POPC   D2A60376   8.208  29.183   6.753
 9741POPC   C3A60377   8.158  29.154   7.053
 9741POPC   C4A60378   8.227  29.141   7.353
 9741POPC   C1B60379   8.432  29.218   6.453
 9741POPC   C2B60380   8.392  29.203   6.753
 9741POPC   C3B60381   8.419  29.243   7.053
 9741POPC   C4B60382   8.463  29.274   7.353
 9742POPC   NC360383   0.389  23.669   5.553
 9742POPC   PO460384   0.484  23.731   5.853
 9742POPC   GL160385   0.429  23.728   6.153
 9742POPC   GL260386   0.311  23.637   6.153
 9742POPC   C1A60387   0.470  23.697   6.453
 9742POPC   D2A60388   0.419  23.702   6.753
 9742POPC   C3A60389   0.467  23.750   7.053
 9742POPC   C4A60390   0.424  23.759   7.353
 9742POPC   C1B60391   0.257  23.619   6.453
 9742POPC   C2B60392   0.190  23.566   6.753
 9742POPC   C3B60393   0.206  23.573   7.053
 9742POPC   C4B60394   0.274  23.536   7.353
 9743POPC   NC360395  27.598  32.267   5.553
 9743POPC   PO460396  27.580  32.229   5.853
 9743POPC   GL160397  27.582  32.281   6.153
 9743POPC   GL260398  27.509  32.186   6.153
 9743POPC   C1A60399  27.562  32.231   6.453
 9743POPC   D2A60400  27.567  32.227   6.753
 9743POPC   C3A60401  27.569  32.291   7.053
 9743POPC   C4A60402  27.556  32.293   7.353
 9743POPC   C1B60403  27.388  32.023   6.453
 9743POPC   C2B60404  27.461  32.014   6.753
 9743POPC   C3B60405  27.407  32.041   7.053
 9743POPC   C4B60406  27.383  32.041   7.353
 9744POPC   NC360407   1.940  21.355   5.553
 9744POPC   PO460408   1.963  21.383   5.853
 9744POPC   GL160409   2.007  21.372   6.153
 9744POPC   GL260410   2.022  21.281   6.153
 9744POPC   C1A60411   2.028  21.432   6.453
 9744POPC   D2A60412   2.001  21.358   6.753
 9744POPC   C3A60413   1.950  21.420   7.053
 9744POPC   C4A60414   2.039  21.372   7.353
 9744POPC   C1B60415   2.021  21.172   6.453
 9744POPC   C2B60416   1.980  21.138   6.753
 9744POPC   C3B60417   2.015  21.172   7.053
 9744POPC   C4B60418   1.966  21.090   7.353
 9745POPC   NC360419   1.193  12.836   5.553
 9745POPC   PO460420   1.213  12.857   5.853
 9745POPC   GL160421   1.215  12.843   6.153
 9745POPC   GL260422   1.052  12.857   6.153
 9745POPC   C1A60423   1.212  12.852   6.453
 9745POPC   D2A60424   1.173  12.871   6.753
 9745POPC   C3A60425   1.223  12.815   7.053
 9745POPC   C4A60426   1.233  12.830   7.353
 9745POPC   C1B60427   0.958  12.938   6.453
 9745POPC   C2B60428   0.936  12.931   6.753
 9745POPC   C3B60429   0.954  12.926   7.053
 9745POPC   C4B60430   0.958  12.866   7.353
 9746POPC   NC360431  30.706  33.797   5.553
 9746POPC   PO460432  30.708  33.803   5.853
 9746POPC   GL160433  30.652  33.755   6.153
 9746POPC   GL260434  30.815  33.740   6.153
 9746POPC   C1A60435  30.698  33.787   6.453
 9746POPC   D2A60436  30.710  33.845   6.753
 9746POPC   C3A60437  30.732  33.760   7.053
 9746POPC   C4A60438  30.655  33.784   7.353
 9746POPC   C1B60439  30.828  33.592   6.453
 9746POPC   C2B60440  30.888  33.590   6.753
 9746POPC   C3B60441  30.837  33.623   7.053
 9746POPC   C4B60442  30.881  33.629   7.353
 9747POPC   NC360443  15.202  22.176   5.553
 9747POPC   PO460444  15.211  22.114   5.853
 9747POPC   GL160445  15.193  22.126   6.153
 9747POPC   GL260446  15.170  22.244   6.153
 9747POPC   C1A60447  15.143  22.133   6.453
 9747POPC   D2A60448  15.161  22.205   6.753
 9747POPC   C3A60449  15.131  22.155   7.053
 9747POPC   C4A60450  15.165  22.205   7.353
 9747POPC   C1B60451  15.132  22.453   6.453
 9747POPC   C2B60452  15.216  22.445   6.753
 9747POPC   C3B60453  15.159  22.381   7.053
 9747POPC   C4B60454  15.188  22.419   7.353
 9748POPC   NC360455  15.966   5.871   5.553
 9748POPC   PO460456  15.952   5.862   5.853
 9748POPC   GL160457  15.934   5.875   6.153
 9748POPC   GL260458  15.797   5.894   6.153
 9748POPC   C1A60459  15.938   5.848   6.453
 9748POPC   D2A60460  15.967   5.864   6.753
 9748POPC   C3A60461  15.973   5.843   7.053
 9748POPC   C4A60462  15.973   5.838   7.353
 9748POPC   C1B60463  15.662   5.838   6.453
 9748POPC   C2B60464  15.729   5.837   6.753
 9748POPC   C3B60465  15.708   5.809   7.053
 9748POPC   C4B60466  15.750   5.876   7.353
 9749POPC   NC360467   6.693  31.463   5.553
 9749POPC   PO460468   6.620  31.476   5.853
 9749POPC   GL160469   6.663  31.504   6.153
 9749POPC   GL260470   6.638  31.608   6.153
 9749POPC   C1A60471   6.688  31.471   6.453
 9749POPC   D2A60472   6.656  31.481   6.753
 9749POPC   C3A60473   6.613  31.453   7.053
 9749POPC   C4A60474   6.603  31.506   7.353
 9749POPC   C1B60475   6.611  31.750   6.453
 9749POPC   C2B60476   6.638  31.770   6.753
 9749POPC   C3B60477   6.633  31.694   7.053
 9749POPC   C4B60478   6.595  31.755   7.353
 9750POPC   NC360479  26.801  15.911   5.553
 9750POPC   PO460480  26.847  15.947   5.853
 9750POPC   GL160481  26.813  15.978   6.153
 9750POPC   GL260482  26.883  16.035   6.153
 9750POPC   C1A60483  26.837  15.922   6.453
 9750POPC   D2A60484  26.773  15.993   6.753
 9750POPC   C3A60485  26.809  15.999   7.053
 9750POPC   C4A60486  26.772  15.950   7.353
 9750POPC   C1B60487  26.886  16.226   6.453
 9750POPC   C2B60488  26.966  16.198   6.753
 9750POPC   C3B60489  26.896  16.214   7.053
 9750POPC   C4B60490  26.931  16.135   7.353
 9751POPC   NC360491   8.227  34.532   5.553
 9751POPC   PO460492   8.196  34.598   5.853
 9751POPC   GL160493   8.235  34.541   6.153
 9751POPC   GL260494   8.253  34.708   6.153
 9751POPC   C1A60495   8.171  34.590   6.453
 9751POPC   D2A60496   8.234  34.604   6.753
 9751POPC   C3A60497   8.179  34.597   7.053
 9751POPC   C4A60498   8.170  34.601   7.353
 9751POPC   C1B60499   8.349  34.769   6.453
 9751POPC   C2B60500   8.291  34.740   6.753
 9751POPC   C3B60501   8.388  34.766   7.053
 9751POPC   C4B60502   8.291  34.804   7.353
 9752POPC   NC360503  29.180   5.142   5.553
 9752POPC   PO460504  29.129   5.112   5.853
 9752POPC   GL160505  29.183   5.131   6.153
 9752POPC   GL260506  29.066   4.995   6.153
 9752POPC   C1A60507  29.139   5.126   6.453
 9752POPC   D2A60508  29.162   5.109   6.753
 9752POPC   C3A60509  29.170   5.076   7.053
 9752POPC   C4A60510  29.139   5.067   7.353
 9752POPC   C1B60511  29.050   4.817   6.453
 9752POPC   C2B60512  29.092   4.843   6.753
 9752POPC   C3B60513  29.012   4.865   7.053
 9752POPC   C4B60514  29.047   4.826   7.353
 9753POPC   NC360515  42.354  34.586   5.553
 9753POPC   PO460516  42.364  34.580   5.853
 9753POPC   GL160517  42.297  34.611   6.153
 9753POPC   GL260518  42.387  34.687   6.153
 9753POPC   C1A60519  42.314  34.562   6.453
 9753POPC   D2A60520  42.374  34.618   6.753
 9753POPC   C3A60521  42.357  34.543   7.053
 9753POPC   C4A60522  42.374  34.584   7.353
 9753POPC   C1B60523  42.576  34.709   6.453
 9753POPC   C2B60524  42.488  34.716   6.753
 9753POPC   C3B60525  42.541  34.724   7.053
 9753POPC   C4B60526  42.519  34.691   7.353
 9754POPC   NC360527  40.815   1.243   5.553
 9754POPC   PO460528  40.824   1.186   5.853
 9754POPC   GL160529  40.818   1.230   6.153
 9754POPC   GL260530  40.797   1.112   6.153
 9754POPC   C1A60531  40.761   1.177   6.453
 9754POPC   D2A60532  40.782   1.176   6.753
 9754POPC   C3A60533  40.816   1.190   7.053
 9754POPC   C4A60534  40.735   1.190   7.353
 9754POPC   C1B60535  40.907   0.955   6.453
 9754POPC   C2B60536  40.885   0.957   6.753
 9754POPC   C3B60537  40.857   0.980   7.053
 9754POPC   C4B60538  40.849   0.994   7.353
 9755POPC   NC360539  12.087  17.469   5.553
 9755POPC   PO460540  12.044  17.505   5.853
 9755POPC   GL160541  12.037  17.536   6.153
 9755POPC   GL260542  12.174  17.356   6.153
 9755POPC   C1A60543  12.087  17.548   6.453
 9755POPC   D2A60544  12.112  17.547   6.753
 9755POPC   C3A60545  12.060  17.554   7.053
 9755POPC   C4A60546  12.099  17.501   7.353
 9755POPC   C1B60547  12.234  17.273   6.453
 9755POPC   C2B60548  12.203  17.254   6.753
 9755POPC   C3B60549  12.221  17.347   7.053
 9755POPC   C4B60550  12.171  17.299   7.353
 9756POPC   NC360551  44.653  20.591   5.553
 9756POPC   PO460552  44.614  20.572   5.853
 9756POPC   GL160553  44.672  20.578   6.153
 9756POPC   GL260554  44.689  20.444   6.153
 9756POPC   C1A60555  44.692  20.618   6.453
 9756POPC   D2A60556  44.614  20.570   6.753
 9756POPC   C3A60557  44.711  20.642   7.053
 9756POPC   C4A60558  44.680  20.604   7.353
 9756POPC   C1B60559  44.769  20.398   6.453
 9756POPC   C2B60560  44.695  20.362   6.753
 9756POPC   C3B60561  44.711  20.386   7.053
 9756POPC   C4B60562  44.779  20.352   7.353
 9757POPC   NC360563  19.094  40.788   5.553
 9757POPC   PO460564  19.046  40.753   5.853
 9757POPC   GL160565  19.067  40.762   6.153
 9757POPC   GL260566  19.195  40.737   6.153
 9757POPC   C1A60567  19.018  40.773   6.453
 9757POPC   D2A60568  19.079  40.830   6.753
 9757POPC   C3A60569  19.092  40.745   7.053
 9757POPC   C4A60570  19.067  40.800   7.353
 9757POPC   C1B60571  19.299  40.729   6.453
 9757POPC   C2B60572  19.339  40.727   6.753
 9757POPC   C3B60573  19.289  40.812   7.053
 9757POPC   C4B60574  19.354  40.731   7.353
 9758POPC   NC360575  36.128   5.852   5.553
 9758POPC   PO460576  36.099   5.868   5.853
 9758POPC   GL160577  36.117   5.841   6.153
 9758POPC   GL260578  36.268   5.885   6.153
 9758POPC   C1A60579  36.083   5.834   6.453
 9758POPC   D2A60580  36.132   5.840   6.753
 9758POPC   C3A60581  36.102   5.862   7.053
 9758POPC   C4A60582  36.098   5.881   7.353
 9758POPC   C1B60583  36.363   5.901   6.453
 9758POPC   C2B60584  36.427   5.886   6.753
 9758POPC   C3B60585  36.371   5.925   7.053
 9758POPC   C4B60586  36.409   5.887   7.353
 9759POPC   NC360587   1.219  10.561   5.553
 9759POPC   PO460588   1.218  10.516   5.853
 9759POPC   GL160589   1.241  10.525   6.153
 9759POPC   GL260590   1.320  10.511   6.153
 9759POPC   C1A60591   1.184  10.560   6.453
 9759POPC   D2A60592   1.262  10.532   6.753
 9759POPC   C3A60593   1.226  10.551   7.053
 9759POPC   C4A60594   1.177  10.487   7.353
 9759POPC   C1B60595   1.470  10.569   6.453
 9759POPC   C2B60596   1.467  10.582   6.753
 9759POPC   C3B60597   1.446  10.588   7.053
 9759POPC   C4B60598   1.478  10.589   7.353
 9760POPC   NC360599  40.790  43.133   5.553
 9760POPC   PO460600  40.758  43.082   5.853
 9760POPC   GL160601  40.809  43.143   6.153
 9760POPC   GL260602  40.804  43.015   6.153
 9760POPC   C1A60603  40.766  43.092   6.453
 9760POPC   D2A60604  40.753  43.090   6.753
 9760POPC   C3A60605  40.772  43.134   7.053
 9760POPC   C4A60606  40.753  43.060   7.353
 9760POPC   C1B60607  40.825  42.829   6.453
 9760POPC   C2B60608  40.758  42.885   6.753
 9760POPC   C3B60609  40.832  42.830   7.053
 9760POPC   C4B60610  40.837  42.817   7.353
 9761POPC   NC360611  39.227   2.010   5.553
 9761POPC   PO460612  39.260   2.037   5.853
 9761POPC   GL160613  39.277   1.983   6.153
 9761POPC   GL260614  39.299   2.071   6.153
 9761POPC   C1A60615  39.242   1.962   6.453
 9761POPC   D2A60616  39.248   1.982   6.753
 9761POPC   C3A60617  39.273   2.014   7.053
 9761POPC   C4A60618  39.223   2.022   7.353
 9761POPC   C1B60619  39.445   2.130   6.453
 9761POPC   C2B60620  39.452   2.120   6.753
 9761POPC   C3B60621  39.408   2.079   7.053
 9761POPC   C4B60622  39.479   2.153   7.353
 9762POPC   NC360623   9.781   7.395   5.553
 9762POPC   PO460624   9.723   7.427   5.853
 9762POPC   GL160625   9.770   7.429   6.153
 9762POPC   GL260626   9.758   7.586   6.153
 9762POPC   C1A60627   9.740   7.415   6.453
 9762POPC   D2A60628   9.741   7.400   6.753
 9762POPC   C3A60629   9.783   7.396   7.053
 9762POPC   C4A60630   9.774   7.428   7.353
 9762POPC   C1B60631   9.832   7.652   6.453
 9762POPC   C2B60632   9.819   7.683   6.753
 9762POPC   C3B60633   9.857   7.669   7.053
 9762POPC   C4B60634   9.851   7.689   7.353
 9763POPC   NC360635  12.042  27.546   5.553
 9763POPC   PO460636  12.080  27.586   5.853
 9763POPC   GL160637  12.092  27.604   6.153
 9763POPC   GL260638  12.155  27.734   6.153
 9763POPC   C1A60639  12.072  27.607   6.453
 9763POPC   D2A60640  12.065  27.544   6.753
 9763POPC   C3A60641  12.094  27.603   7.053
 9763POPC   C4A60642  12.104  27.609   7.353
 9763POPC   C1B60643  12.174  27.794   6.453
 9763POPC   C2B60644  12.225  27.771   6.753
 9763POPC   C3B60645  12.201  27.800   7.053
 9763POPC   C4B60646  12.209  27.838   7.353
 9764POPC   NC360647  23.711  44.630   5.553
 9764POPC   PO460648  23.701  44.681   5.853
 9764POPC   GL160649  23.672  44.658   6.153
 9764POPC   GL260650  23.845  44.611   6.153
 9764POPC   C1A60651  23.668  44.702   6.453
 9764POPC   D2A60652  23.725  44.666   6.753
 9764POPC   C3A60653  23.761  44.652   7.053
 9764POPC   C4A60654  23.736  44.639   7.353
 9764POPC   C1B60655  23.969  44.619   6.453
 9764POPC   C2B60656  23.958  44.619   6.753
 9764POPC   C3B60657  23.973  44.643   7.053
 9764POPC   C4B60658  23.923  44.632   7.353
 9765POPC   NC360659   4.276  15.973   5.553
 9765POPC   PO460660   4.277  15.912   5.853
 9765POPC   GL160661   4.315  15.941   6.153
 9765POPC   GL260662   4.207  16.011   6.153
 9765POPC   C1A60663   4.334  15.967   6.453
 9765POPC   D2A60664   4.297  16.004   6.753
 9765POPC   C3A60665   4.279  15.927   7.053
 9765POPC   C4A60666   4.268  15.967   7.353
 9765POPC   C1B60667   4.221  16.183   6.453
 9765POPC   C2B60668   4.215  16.154   6.753
 9765POPC   C3B60669   4.148  16.174   7.053
 9765POPC   C4B60670   4.127  16.165   7.353
 9766POPC   NC360671  29.930   6.669   5.553
 9766POPC   PO460672  29.914   6.597   5.853
 9766POPC   GL160673  29.909   6.693   6.153
 9766POPC   GL260674  29.940   6.784   6.153
 9766POPC   C1A60675  29.970   6.689   6.453
 9766POPC   D2A60676  29.898   6.671   6.753
 9766POPC   C3A60677  29.970   6.633   7.053
 9766POPC   C4A60678  29.915   6.692   7.353
 9766POPC   C1B60679  30.020   6.879   6.453
 9766POPC   C2B60680  29.949   6.913   6.753
 9766POPC   C3B60681  29.948   6.879   7.053
 9766POPC   C4B60682  30.023   6.865   7.353
 9767POPC   NC360683  37.636  21.427   5.553
 9767POPC   PO460684  37.709  21.413   5.853
 9767POPC   GL160685  37.634  21.417   6.153
 9767POPC   GL260686  37.532  21.304   6.153
 9767POPC   C1A60687  37.706  21.346   6.453
 9767POPC   D2A60688  37.638  21.337   6.753
 9767POPC   C3A60689  37.642  21.406   7.053
 9767POPC   C4A60690  37.643  21.340   7.353
 9767POPC   C1B60691  37.492  21.223   6.453
 9767POPC   C2B60692  37.524  21.214   6.753
 9767POPC   C3B60693  37.514  21.261   7.053
 9767POPC   C4B60694  37.516  21.252   7.353
 9768POPC   NC360695   7.388  15.141   5.553
 9768POPC   PO460696   7.442  15.153   5.853
 9768POPC   GL160697   7.390  15.141   6.153
 9768POPC   GL260698   7.345  15.309   6.153
 9768POPC   C1A60699   7.406  15.183   6.453
 9768POPC   D2A60700   7.453  15.211   6.753
 9768POPC   C3A60701   7.412  15.217   7.053
 9768POPC   C4A60702   7.446  15.170   7.353
 9768POPC   C1B60703   7.388  15.403   6.453
 9768POPC   C2B60704   7.319  15.459   6.753
 9768POPC   C3B60705   7.320  15.445   7.053
 9768POPC   C4B60706   7.350  15.395   7.353
 9769POPC   NC360707  36.143   8.981   5.553
 9769POPC   PO460708  36.177   9.011   5.853
 9769POPC   GL160709  36.141   8.978   6.153
 9769POPC   GL260710  36.258   8.970   6.153
 9769POPC   C1A60711  36.147   8.940   6.453
 9769POPC   D2A60712  36.173   8.982   6.753
 9769POPC   C3A60713  36.162   8.960   7.053
 9769POPC   C4A60714  36.163   8.951   7.353
 9769POPC   C1B60715  36.354   8.991   6.453
 9769POPC   C2B60716  36.337   9.000   6.753
 9769POPC   C3B60717  36.366   8.998   7.053
 9769POPC   C4B60718  36.423   8.968   7.353
 9770POPC   NC360719   2.782   5.828   5.553
 9770POPC   PO460720   2.766   5.827   5.853
 9770POPC   GL160721   2.790   5.819   6.153
 9770POPC   GL260722   2.861   5.941   6.153
 9770POPC   C1A60723   2.769   5.892   6.453
 9770POPC   D2A60724   2.775   5.824   6.753
 9770POPC   C3A60725   2.730   5.913   7.053
 9770POPC   C4A60726   2.721   5.820   7.353
 9770POPC   C1B60727   2.996   5.957   6.453
 9770POPC   C2B60728   3.025   6.013   6.753
 9770POPC   C3B60729   3.002   5.956   7.053
 9770POPC   C4B60730   2.975   6.020   7.353
 9771POPC   NC360731  33.827  32.278   5.553
 9771POPC   PO460732  33.752  32.209   5.853
 9771POPC   GL160733  33.778  32.264   6.153
 9771POPC   GL260734  33.933  32.212   6.153
 9771POPC   C1A60735  33.834  32.260   6.453
 9771POPC   D2A60736  33.813  32.254   6.753
 9771POPC   C3A60737  33.803  32.219   7.053
 9771POPC   C4A60738  33.821  32.206   7.353
 9771POPC   C1B60739  34.047  32.272   6.453
 9771POPC   C2B60740  34.081  32.293   6.753
 9771POPC   C3B60741  34.044  32.228   7.053
 9771POPC   C4B60742  34.034  32.214   7.353
 9772POPC   NC360743  33.794  36.887   5.553
 9772POPC   PO460744  33.779  36.878   5.853
 9772POPC   GL160745  33.768  36.940   6.153
 9772POPC   GL260746  33.727  36.974   6.153
 9772POPC   C1A60747  33.828  36.863   6.453
 9772POPC   D2A60748  33.785  36.858   6.753
 9772POPC   C3A60749  33.800  36.862   7.053
 9772POPC   C4A60750  33.771  36.897   7.353
 9772POPC   C1B60751  33.669  37.121   6.453
 9772POPC   C2B60752  33.704  37.154   6.753
 9772POPC   C3B60753  33.680  37.121   7.053
 9772POPC   C4B60754  33.721  37.178   7.353
 9773POPC   NC360755  29.957  23.686   5.553
 9773POPC   PO460756  29.897  23.686   5.853
 9773POPC   GL160757  29.947  23.686   6.153
 9773POPC   GL260758  29.913  23.827   6.153
 9773POPC   C1A60759  29.919  23.713   6.453
 9773POPC   D2A60760  29.872  23.725   6.753
 9773POPC   C3A60761  29.961  23.744   7.053
 9773POPC   C4A60762  29.891  23.758   7.353
 9773POPC   C1B60763  29.933  23.962   6.453
 9773POPC   C2B60764  29.860  24.012   6.753
 9773POPC   C3B60765  29.869  23.951   7.053
 9773POPC   C4B60766  29.944  23.990   7.353
 9774POPC   NC360767  28.379   2.775   5.553
 9774POPC   PO460768  28.399   2.717   5.853
 9774POPC   GL160769  28.399   2.765   6.153
 9774POPC   GL260770  28.480   2.766   6.153
 9774POPC   C1A60771  28.398   2.783   6.453
 9774POPC   D2A60772  28.370   2.740   6.753
 9774POPC   C3A60773  28.360   2.778   7.053
 9774POPC   C4A60774  28.358   2.794   7.353
 9774POPC   C1B60775  28.616   2.851   6.453
 9774POPC   C2B60776  28.587   2.850   6.753
 9774POPC   C3B60777  28.607   2.811   7.053
 9774POPC   C4B60778  28.646   2.882   7.353
 9775POPC   NC360779  37.634  12.076   5.553
 9775POPC   PO460780  37.693  12.028   5.853
 9775POPC   GL160781  37.669  12.118   6.153
 9775POPC   GL260782  37.752  12.189   6.153
 9775POPC   C1A60783  37.708  12.067   6.453
 9775POPC   D2A60784  37.678  12.088   6.753
 9775POPC   C3A60785  37.688  12.048   7.053
 9775POPC   C4A60786  37.636  12.078   7.353
 9775POPC   C1B60787  37.766  12.325   6.453
 9775POPC   C2B60788  37.773  12.254   6.753
 9775POPC   C3B60789  37.825  12.335   7.053
 9775POPC   C4B60790  37.774  12.322   7.353
 9776POPC   NC360791  26.777  43.910   5.553
 9776POPC   PO460792  26.863  43.909   5.853
 9776POPC   GL160793  26.812  43.858   6.153
 9776POPC   GL260794  26.977  43.940   6.153
 9776POPC   C1A60795  26.860  43.856   6.453
 9776POPC   D2A60796  26.799  43.866   6.753
 9776POPC   C3A60797  26.856  43.838   7.053
 9776POPC   C4A60798  26.855  43.915   7.353
 9776POPC   C1B60799  27.024  44.019   6.453
 9776POPC   C2B60800  27.059  44.004   6.753
 9776POPC   C3B60801  27.080  44.018   7.053
 9776POPC   C4B60802  26.991  43.984   7.353
 9777POPC   NC360803  15.131  24.516   5.553
 9777POPC   PO460804  15.229  24.527   5.853
 9777POPC   GL160805  15.195  24.515   6.153
 9777POPC   GL260806  15.297  24.561   6.153
 9777POPC   C1A60807  15.213  24.440   6.453
 9777POPC   D2A60808  15.140  24.539   6.753
 9777POPC   C3A60809  15.224  24.533   7.053
 9777POPC   C4A60810  15.178  24.530   7.353
 9777POPC   C1B60811  15.452  24.609   6.453
 9777POPC   C2B60812  15.396  24.566   6.753
 9777POPC   C3B60813  15.407  24.585   7.053
 9777POPC   C4B60814  15.440  24.572   7.353
 9778POPC   NC360815  43.924  37.714   5.553
 9778POPC   PO460816  43.867  37.650   5.853
 9778POPC   GL160817  43.917  37.650   6.153
 9778POPC   GL260818  43.857  37.797   6.153
 9778POPC   C1A60819  43.933  37.724   6.453
 9778POPC   D2A60820  43.852  37.666   6.753
 9778POPC   C3A60821  43.857  37.685   7.053
 9778POPC   C4A60822  43.932  37.700   7.353
 9778POPC   C1B60823  43.829  37.925   6.453
 9778POPC   C2B60824  43.802  37.959   6.753
 9778POPC   C3B60825  43.790  37.923   7.053
 9778POPC   C4B60826  43.793  37.947   7.353
 9779POPC   NC360827  22.956  20.639   5.553
 9779POPC   PO460828  22.908  20.646   5.853
 9779POPC   GL160829  22.987  20.562   6.153
 9779POPC   GL260830  23.045  20.604   6.153
 9779POPC   C1A60831  22.982  20.618   6.453
 9779POPC   D2A60832  22.943  20.603   6.753
 9779POPC   C3A60833  22.913  20.616   7.053
 9779POPC   C4A60834  22.913  20.656   7.353
 9779POPC   C1B60835  23.195  20.555   6.453
 9779POPC   C2B60836  23.205  20.521   6.753
 9779POPC   C3B60837  23.146  20.479   7.053
 9779POPC   C4B60838  23.156  20.511   7.353
 9780POPC   NC360839  33.073  36.152   5.553
 9780POPC   PO460840  33.025  36.163   5.853
 9780POPC   GL160841  33.007  36.166   6.153
 9780POPC   GL260842  32.901  36.127   6.153
 9780POPC   C1A60843  33.051  36.099   6.453
 9780POPC   D2A60844  33.033  36.175   6.753
 9780POPC   C3A60845  33.030  36.160   7.053
 9780POPC   C4A60846  33.050  36.104   7.353
 9780POPC   C1B60847  32.783  36.061   6.453
 9780POPC   C2B60848  32.784  36.001   6.753
 9780POPC   C3B60849  32.757  36.018   7.053
 9780POPC   C4B60850  32.792  36.092   7.353
 9781POPC   NC360851  20.588  33.048   5.553
 9781POPC   PO460852  20.565  33.022   5.853
 9781POPC   GL160853  20.637  33.053   6.153
 9781POPC   GL260854  20.691  33.094   6.153
 9781POPC   C1A60855  20.626  33.029   6.453
 9781POPC   D2A60856  20.633  33.012   6.753
 9781POPC   C3A60857  20.574  33.011   7.053
 9781POPC   C4A60858  20.584  33.060   7.353
 9781POPC   C1B60859  20.726  33.247   6.453
 9781POPC   C2B60860  20.679  33.310   6.753
 9781POPC   C3B60861  20.672  33.235   7.053
 9781POPC   C4B60862  20.700  33.215   7.353
 9782POPC   NC360863  24.482  10.573   5.553
 9782POPC   PO460864  24.507  10.560   5.853
 9782POPC   GL160865  24.515  10.511   6.153
 9782POPC   GL260866  24.448  10.379   6.153
 9782POPC   C1A60867  24.473  10.489   6.453
 9782POPC   D2A60868  24.463  10.545   6.753
 9782POPC   C3A60869  24.442  10.508   7.053
 9782POPC   C4A60870  24.487  10.520   7.353
 9782POPC   C1B60871  24.425  10.283   6.453
 9782POPC   C2B60872  24.427  10.277   6.753
 9782POPC   C3B60873  24.370  10.307   7.053
 9782POPC   C4B60874  24.329  10.270   7.353
 9783POPC   NC360875   7.428  12.824   5.553
 9783POPC   PO460876   7.381  12.854   5.853
 9783POPC   GL160877   7.442  12.850   6.153
 9783POPC   GL260878   7.530  12.867   6.153
 9783POPC   C1A60879   7.443  12.875   6.453
 9783POPC   D2A60880   7.387  12.873   6.753
 9783POPC   C3A60881   7.446  12.817   7.053
 9783POPC   C4A60882   7.377  12.821   7.353
 9783POPC   C1B60883   7.606  13.004   6.453
 9783POPC   C2B60884   7.606  13.008   6.753
 9783POPC   C3B60885   7.588  12.972   7.053
 9783POPC   C4B60886   7.648  12.992   7.353
 9784POPC   NC360887  13.610   8.208   5.553
 9784POPC   PO460888  13.591   8.215   5.853
 9784POPC   GL160889  13.594   8.193   6.153
 9784POPC   GL260890  13.493   8.279   6.153
 9784POPC   C1A60891  13.600   8.149   6.453
 9784POPC   D2A60892  13.653   8.192   6.753
 9784POPC   C3A60893  13.668   8.181   7.053
 9784POPC   C4A60894  13.624   8.182   7.353
 9784POPC   C1B60895  13.375   8.283   6.453
 9784POPC   C2B60896  13.435   8.354   6.753
 9784POPC   C3B60897  13.411   8.342   7.053
 9784POPC   C4B60898  13.461   8.343   7.353
 9785POPC   NC360899  42.288  26.824   5.553
 9785POPC   PO460900  42.364  26.833   5.853
 9785POPC   GL160901  42.374  26.782   6.153
 9785POPC   GL260902  42.408  26.778   6.153
 9785POPC   C1A60903  42.380  26.793   6.453
 9785POPC   D2A60904  42.321  26.807   6.753
 9785POPC   C3A60905  42.374  26.816   7.053
 9785POPC   C4A60906  42.381  26.782   7.353
 9785POPC   C1B60907  42.534  26.706   6.453
 9785POPC   C2B60908  42.565  26.734   6.753
 9785POPC   C3B60909  42.563  26.741   7.053
 9785POPC   C4B60910  42.540  26.683   7.353
 9786POPC   NC360911  18.258   8.924   5.553
 9786POPC   PO460912  18.289   8.944   5.853
 9786POPC   GL160913  18.292   9.011   6.153
 9786POPC   GL260914  18.156   8.966   6.153
 9786POPC   C1A60915  18.296   8.994   6.453
 9786POPC   D2A60916  18.326   9.021   6.753
 9786POPC   C3A60917  18.322   8.975   7.053
 9786POPC   C4A60918  18.277   8.978   7.353
 9786POPC   C1B60919  18.040   8.963   6.453
 9786POPC   C2B60920  18.050   8.897   6.753
 9786POPC   C3B60921  18.066   8.933   7.053
 9786POPC   C4B60922  18.067   8.890   7.353
 9787POPC   NC360923  40.003  43.127   5.553
 9787POPC   PO460924  39.998  43.126   5.853
 9787POPC   GL160925  40.029  43.111   6.153
 9787POPC   GL260926  39.895  43.021   6.153
 9787POPC   C1A60927  39.989  43.139   6.453
 9787POPC   D2A60928  39.987  43.102   6.753
 9787POPC   C3A60929  40.030  43.070   7.053
 9787POPC   C4A60930  39.991  43.121   7.353
 9787POPC   C1B60931  39.814  42.957   6.453
 9787POPC   C2B60932  39.810  42.890   6.753
 9787POPC   C3B60933  39.825  42.894   7.053
 9787POPC   C4B60934  39.795  42.947   7.353
 9788POPC   NC360935  21.337  42.345   5.553
 9788POPC   PO460936  21.410  42.290   5.853
 9788POPC   GL160937  21.357  42.292   6.153
 9788POPC   GL260938  21.297  42.292   6.153
 9788POPC   C1A60939  21.379  42.306   6.453
 9788POPC   D2A60940  21.422  42.357   6.753
 9788POPC   C3A60941  21.427  42.359   7.053
 9788POPC   C4A60942  21.433  42.293   7.353
 9788POPC   C1B60943  21.145  42.253   6.453
 9788POPC   C2B60944  21.133  42.273   6.753
 9788POPC   C3B60945  21.109  42.197   7.053
 9788POPC   C4B60946  21.146  42.215   7.353
 9789POPC   NC360947  30.664  26.836   5.553
 9789POPC   PO460948  30.680  26.774   5.853
 9789POPC   GL160949  30.691  26.793   6.153
 9789POPC   GL260950  30.641  26.721   6.153
 9789POPC   C1A60951  30.677  26.769   6.453
 9789POPC   D2A60952  30.684  26.779   6.753
 9789POPC   C3A60953  30.694  26.778   7.053
 9789POPC   C4A60954  30.708  26.825   7.353
 9789POPC   C1B60955  30.490  26.666   6.453
 9789POPC   C2B60956  30.584  26.627   6.753
 9789POPC   C3B60957  30.567  26.624   7.053
 9789POPC   C4B60958  30.584  26.603   7.353
 9790POPC   NC360959  21.377  44.644   5.553
 9790POPC   PO460960  21.424  44.696   5.853
 9790POPC   GL160961  21.399  44.690   6.153
 9790POPC   GL260962  21.226  44.647   6.153
 9790POPC   C1A60963  21.364  44.677   6.453
 9790POPC   D2A60964  21.368  44.633   6.753
 9790POPC   C3A60965  21.434  44.704   7.053
 9790POPC   C4A60966  21.396  44.678   7.353
 9790POPC   C1B60967  21.155  44.572   6.453
 9790POPC   C2B60968  21.154  44.560   6.753
 9790POPC   C3B60969  21.199  44.575   7.053
 9790POPC   C4B60970  21.114  44.576   7.353
 9791POPC   NC360971  19.846  30.743   5.553
 9791POPC   PO460972  19.860  30.685   5.853
 9791POPC   GL160973  19.827  30.687   6.153
 9791POPC   GL260974  19.919  30.710   6.153
 9791POPC   C1A60975  19.810  30.693   6.453
 9791POPC   D2A60976  19.850  30.669   6.753
 9791POPC   C3A60977  19.878  30.675   7.053
 9791POPC   C4A60978  19.859  30.706   7.353
 9791POPC   C1B60979  20.107  30.621   6.453
 9791POPC   C2B60980  20.070  30.629   6.753
 9791POPC   C3B60981  20.097  30.649   7.053
 9791POPC   C4B60982  20.124  30.617   7.353
 9792POPC   NC360983   8.229  25.279   5.553
 9792POPC   PO460984   8.246  25.314   5.853
 9792POPC   GL160985   8.156  25.279   6.153
 9792POPC   GL260986   8.217  25.428   6.153
 9792POPC   C1A60987   8.222  25.284   6.453
 9792POPC   D2A60988   8.232  25.287   6.753
 9792POPC   C3A60989   8.208  25.266   7.053
 9792POPC   C4A60990   8.162  25.239   7.353
 9792POPC   C1B60991   8.242  25.496   6.453
 9792POPC   C2B60992   8.235  25.511   6.753
 9792POPC   C3B60993   8.238  25.477   7.053
 9792POPC   C4B60994   8.262  25.472   7.353
 9793POPC   NC360995  27.620   4.355   5.553
 9793POPC   PO460996  27.631   4.347   5.853
 9793POPC   GL160997  27.576   4.336   6.153
 9793POPC   GL260998  27.700   4.347   6.153
 9793POPC   C1A60999  27.572   4.353   6.453
 9793POPC   D2A61000  27.593   4.314   6.753
 9793POPC   C3A61001  27.547   4.281   7.053
 9793POPC   C4A61002  27.620   4.347   7.353
 9793POPC   C1B61003  27.790   4.391   6.453
 9793POPC   C2B61004  27.856   4.439   6.753
 9793POPC   C3B61005  27.819   4.368   7.053
 9793POPC   C4B61006  27.808   4.385   7.353
 9794POPC   NC361007  11.314   2.797   5.553
 9794POPC   PO461008  11.285   2.814   5.853
 9794POPC   GL161009  11.304   2.736   6.153
 9794POPC   GL261010  11.321   2.682   6.153
 9794POPC   C1A61011  11.305   2.721   6.453
 9794POPC   D2A61012  11.323   2.736   6.753
 9794POPC   C3A61013  11.267   2.809   7.053
 9794POPC   C4A61014  11.326   2.788   7.353
 9794POPC   C1B61015  11.429   2.533   6.453
 9794POPC   C2B61016  11.399   2.526   6.753
 9794POPC   C3B61017  11.375   2.540   7.053
 9794POPC   C4B61018  11.423   2.524   7.353
 9795POPC   NC361019  26.018   3.569   5.553
 9795POPC   PO461020  26.088   3.523   5.853
 9795POPC   GL161021  26.074   3.591   6.153
 9795POPC   GL261022  26.197   3.533   6.153
 9795POPC   C1A61023  25.998   3.535   6.453
 9795POPC   D2A61024  26.033   3.579   6.753
 9795POPC   C3A61025  26.011   3.497   7.053
 9795POPC   C4A61026  26.042   3.561   7.353
 9795POPC   C1B61027  26.242   3.428   6.453
 9795POPC   C2B61028  26.237   3.450   6.753
 9795POPC   C3B61029  26.256   3.481   7.053
 9795POPC   C4B61030  26.312   3.508   7.353
 9796POPC   NC361031  33.020  31.423   5.553
 9796POPC   PO461032  33.027  31.515   5.853
 9796POPC   GL161033  33.040  31.435   6.153
 9796POPC   GL261034  33.103  31.526   6.153
 9796POPC   C1A61035  33.001  31.499   6.453
 9796POPC   D2A61036  33.054  31.497   6.753
 9796POPC   C3A61037  33.037  31.455   7.053
 9796POPC   C4A61038  33.067  31.431   7.353
 9796POPC   C1B61039  33.287  31.597   6.453
 9796POPC   C2B61040  33.220  31.514   6.753
 9796POPC   C3B61041  33.255  31.597   7.053
 9796POPC   C4B61042  33.294  31.557   7.353
 9797POPC   NC361043  16.694   3.511   5.553
 9797POPC   PO461044  16.692   3.505   5.853
 9797POPC   GL161045  16.720   3.582   6.153
 9797POPC   GL261046  16.782   3.461   6.153
 9797POPC   C1A61047  16.752   3.580   6.453
 9797POPC   D2A61048  16.694   3.555   6.753
 9797POPC   C3A61049  16.682   3.573   7.053
 9797POPC   C4A61050  16.696   3.509   7.353
 9797POPC   C1B61051  16.777   3.339   6.453
 9797POPC   C2B61052  16.806   3.255   6.753
 9797POPC   C3B61053  16.743   3.296   7.053
 9797POPC   C4B61054  16.762   3.325   7.353
 9798POPC   NC361055   8.930  26.813   5.553
 9798POPC   PO461056   8.979  26.825   5.853
 9798POPC   GL161057   8.999  26.788   6.153
 9798POPC   GL261058   9.055  26.979   6.153
 9798POPC   C1A61059   9.005  26.803   6.453
 9798POPC   D2A61060   8.940  26.847   6.753
 9798POPC   C3A61061   8.966  26.826   7.053
 9798POPC   C4A61062   8.958  26.858   7.353
 9798POPC   C1B61063   9.008  27.080   6.453
 9798POPC   C2B61064   9.073  27.056   6.753
 9798POPC   C3B61065   9.096  27.026   7.053
 9798POPC   C4B61066   9.014  27.092   7.353
 9799POPC   NC361067  26.797  21.430   5.553
 9799POPC   PO461068  26.830  21.394   5.853
 9799POPC   GL161069  26.803  21.412   6.153
 9799POPC   GL261070  26.822  21.274   6.153
 9799POPC   C1A61071  26.818  21.416   6.453
 9799POPC   D2A61072  26.853  21.386   6.753
 9799POPC   C3A61073  26.829  21.352   7.053
 9799POPC   C4A61074  26.840  21.422   7.353
 9799POPC   C1B61075  26.806  21.131   6.453
 9799POPC   C2B61076  26.802  21.115   6.753
 9799POPC   C3B61077  26.772  21.101   7.053
 9799POPC   C4B61078  26.844  21.108   7.353
 9800POPC   NC361079  33.022  26.051   5.553
 9800POPC   PO461080  33.005  26.072   5.853
 9800POPC   GL161081  32.996  26.043   6.153
 9800POPC   GL261082  32.932  25.965   6.153
 9800POPC   C1A61083  33.069  26.009   6.453
 9800POPC   D2A61084  33.001  25.995   6.753
 9800POPC   C3A61085  33.035  25.994   7.053
 9800POPC   C4A61086  33.067  26.046   7.353
 9800POPC   C1B61087  32.741  25.957   6.453
 9800POPC   C2B61088  32.827  25.913   6.753
 9800POPC   C3B61089  32.758  25.996   7.053
 9800POPC   C4B61090  32.806  25.973   7.353
 9801POPC   NC361091  30.734   7.385   5.553
 9801POPC   PO461092  30.718   7.417   5.853
 9801POPC   GL161093  30.710   7.394   6.153
 9801POPC   GL261094  30.809   7.351   6.153
 9801POPC   C1A61095  30.673   7.420   6.453
 9801POPC   D2A61096  30.678   7.376   6.753
 9801POPC   C3A61097  30.673   7.413   7.053
 9801POPC   C4A61098  30.667   7.373   7.353
 9801POPC   C1B61099  30.890   7.328   6.453
 9801POPC   C2B61100  30.930   7.337   6.753
 9801POPC   C3B61101  30.893   7.309   7.053
 9801POPC   C4B61102  30.914   7.325   7.353
 9802POPC   NC361103  15.914  22.923   5.553
 9802POPC   PO461104  15.977  22.898   5.853
 9802POPC   GL161105  15.910  22.930   6.153
 9802POPC   GL261106  16.040  22.825   6.153
 9802POPC   C1A61107  15.907  22.931   6.453
 9802POPC   D2A61108  15.950  22.944   6.753
 9802POPC   C3A61109  15.979  22.931   7.053
 9802POPC   C4A61110  15.910  22.961   7.353
 9802POPC   C1B61111  16.153  22.792   6.453
 9802POPC   C2B61112  16.197  22.835   6.753
 9802POPC   C3B61113  16.203  22.821   7.053
 9802POPC   C4B61114  16.195  22.765   7.353
 9803POPC   NC361115   0.414  19.883   5.553
 9803POPC   PO461116   0.484  19.829   5.853
 9803POPC   GL161117   0.421  19.857   6.153
 9803POPC   GL261118   0.369  19.938   6.153
 9803POPC   C1A61119   0.405  19.876   6.453
 9803POPC   D2A61120   0.466  19.788   6.753
 9803POPC   C3A61121   0.451  19.802   7.053
 9803POPC   C4A61122   0.435  19.799   7.353
 9803POPC   C1B61123   0.355  20.102   6.453
 9803POPC   C2B61124   0.371  20.127   6.753
 9803POPC   C3B61125   0.442  20.114   7.053
 9803POPC   C4B61126   0.398  20.077   7.353
 9804POPC   NC361127  35.383  15.925   5.553
 9804POPC   PO461128  35.329  15.929   5.853
 9804POPC   GL161129  35.343  15.970   6.153
 9804POPC   GL261130  35.313  15.812   6.153
 9804POPC   C1A61131  35.376  15.995   6.453
 9804POPC   D2A61132  35.384  15.919   6.753
 9804POPC   C3A61133  35.327  15.929   7.053
 9804POPC   C4A61134  35.374  15.988   7.353
 9804POPC   C1B61135  35.282  15.736   6.453
 9804POPC   C2B61136  35.324  15.705   6.753
 9804POPC   C3B61137  35.250  15.708   7.053
 9804POPC   C4B61138  35.246  15.754   7.353
 9805POPC   NC361139  33.061   8.984   5.553
 9805POPC   PO461140  33.060   8.953   5.853
 9805POPC   GL161141  33.069   8.977   6.153
 9805POPC   GL261142  32.892   9.059   6.153
 9805POPC   C1A61143  32.991   8.936   6.453
 9805POPC   D2A61144  33.039   8.950   6.753
 9805POPC   C3A61145  33.048   9.020   7.053
 9805POPC   C4A61146  33.014   9.007   7.353
 9805POPC   C1B61147  32.772   9.077   6.453
 9805POPC   C2B61148  32.793   9.020   6.753
 9805POPC   C3B61149  32.746   9.014   7.053
 9805POPC   C4B61150  32.813   9.082   7.353
 9806POPC   NC361151  29.095  30.718   5.553
 9806POPC   PO461152  29.141  30.732   5.853
 9806POPC   GL161153  29.147  30.688   6.153
 9806POPC   GL261154  29.289  30.669   6.153
 9806POPC   C1A61155  29.136  30.666   6.453
 9806POPC   D2A61156  29.113  30.713   6.753
 9806POPC   C3A61157  29.122  30.739   7.053
 9806POPC   C4A61158  29.146  30.686   7.353
 9806POPC   C1B61159  29.388  30.592   6.453
 9806POPC   C2B61160  29.395  30.553   6.753
 9806POPC   C3B61161  29.325  30.595   7.053
 9806POPC   C4B61162  29.348  30.573   7.353
 9807POPC   NC361163  36.124  36.164   5.553
 9807POPC   PO461164  36.158  36.165   5.853
 9807POPC   GL161165  36.086  36.111   6.153
 9807POPC   GL261166  36.205  36.274   6.153
 9807POPC   C1A61167  36.151  36.155   6.453
 9807POPC   D2A61168  36.130  36.087   6.753
 9807POPC   C3A61169  36.080  36.177   7.053
 9807POPC   C4A61170  36.097  36.158   7.353
 9807POPC   C1B61171  36.192  36.312   6.453
 9807POPC   C2B61172  36.200  36.378   6.753
 9807POPC   C3B61173  36.236  36.378   7.053
 9807POPC   C4B61174  36.254  36.358   7.353
 9808POPC   NC361175   6.668   6.645   5.553
 9808POPC   PO461176   6.640   6.668   5.853
 9808POPC   GL161177   6.676   6.652   6.153
 9808POPC   GL261178   6.536   6.656   6.153
 9808POPC   C1A61179   6.619   6.644   6.453
 9808POPC   D2A61180   6.646   6.622   6.753
 9808POPC   C3A61181   6.659   6.653   7.053
 9808POPC   C4A61182   6.689   6.694   7.353
 9808POPC   C1B61183   6.426   6.722   6.453
 9808POPC   C2B61184   6.355   6.666   6.753
 9808POPC   C3B61185   6.403   6.663   7.053
 9808POPC   C4B61186   6.437   6.653   7.353
 9809POPC   NC361187   8.211  30.651   5.553
 9809POPC   PO461188   8.217  30.740   5.853
 9809POPC   GL161189   8.178  30.679   6.153
 9809POPC   GL261190   8.254  30.575   6.153
 9809POPC   C1A61191   8.170  30.746   6.453
 9809POPC   D2A61192   8.194  30.735   6.753
 9809POPC   C3A61193   8.183  30.742   7.053
 9809POPC   C4A61194   8.156  30.684   7.353
 9809POPC   C1B61195   8.332  30.478   6.453
 9809POPC   C2B61196   8.328  30.465   6.753
 9809POPC   C3B61197   8.304  30.507   7.053
 9809POPC   C4B61198   8.371  30.528   7.353
 9810POPC   NC361199  12.090  31.446   5.553
 9810POPC   PO461200  12.031  31.510   5.853
 9810POPC   GL161201  12.100  31.519   6.153
 9810POPC   GL261202  12.140  31.438   6.153
 9810POPC   C1A61203  12.116  31.430   6.453
 9810POPC   D2A61204  12.054  31.429   6.753
 9810POPC   C3A61205  12.063  31.522   7.053
 9810POPC   C4A61206  12.080  31.472   7.353
 9810POPC   C1B61207  12.316  31.372   6.453
 9810POPC   C2B61208  12.264  31.391   6.753
 9810POPC   C3B61209  12.306  31.404   7.053
 9810POPC   C4B61210  12.347  31.322   7.353
 9811POPC   NC361211  17.512   8.998   5.553
 9811POPC   PO461212  17.476   8.955   5.853
 9811POPC   GL161213  17.496   8.940   6.153
 9811POPC   GL261214  17.491   9.096   6.153
 9811POPC   C1A61215  17.549   8.998   6.453
 9811POPC   D2A61216  17.547   9.014   6.753
 9811POPC   C3A61217  17.480   8.959   7.053
 9811POPC   C4A61218  17.538   9.004   7.353
 9811POPC   C1B61219  17.563   9.219   6.453
 9811POPC   C2B61220  17.507   9.238   6.753
 9811POPC   C3B61221  17.501   9.204   7.053
 9811POPC   C4B61222  17.526   9.259   7.353
 9812POPC   NC361223   9.761  26.808   5.553
 9812POPC   PO461224   9.751  26.774   5.853
 9812POPC   GL161225   9.699  26.843   6.153
 9812POPC   GL261226   9.608  26.706   6.153
 9812POPC   C1A61227   9.798  26.803   6.453
 9812POPC   D2A61228   9.796  26.776   6.753
 9812POPC   C3A61229   9.768  26.835   7.053
 9812POPC   C4A61230   9.711  26.776   7.353
 9812POPC   C1B61231   9.502  26.627   6.453
 9812POPC   C2B61232   9.538  26.666   6.753
 9812POPC   C3B61233   9.499  26.639   7.053
 9812POPC   C4B61234   9.496  26.650   7.353
 9813POPC   NC361235   2.773  43.869   5.553
 9813POPC   PO461236   2.728  43.881   5.853
 9813POPC   GL161237   2.743  43.892   6.153
 9813POPC   GL261238   2.852  43.940   6.153
 9813POPC   C1A61239   2.767  43.903   6.453
 9813POPC   D2A61240   2.777  43.909   6.753
 9813POPC   C3A61241   2.805  43.878   7.053
 9813POPC   C4A61242   2.769  43.899   7.353
 9813POPC   C1B61243   2.979  43.984   6.453
 9813POPC   C2B61244   3.010  43.912   6.753
 9813POPC   C3B61245   2.979  43.912   7.053
 9813POPC   C4B61246   2.963  43.967   7.353
 9814POPC   NC361247  39.244  22.211   5.553
 9814POPC   PO461248  39.278  22.151   5.853
 9814POPC   GL161249  39.234  22.157   6.153
 9814POPC   GL261250  39.308  22.067   6.153
 9814POPC   C1A61251  39.249  22.170   6.453
 9814POPC   D2A61252  39.236  22.179   6.753
 9814POPC   C3A61253  39.212  22.158   7.053
 9814POPC   C4A61254  39.186  22.151   7.353
 9814POPC   C1B61255  39.392  21.977   6.453
 9814POPC   C2B61256  39.329  21.918   6.753
 9814POPC   C3B61257  39.356  21.959   7.053
 9814POPC   C4B61258  39.392  21.990   7.353
 9815POPC   NC361259  40.782  24.475   5.553
 9815POPC   PO461260  40.779  24.473   5.853
 9815POPC   GL161261  40.756  24.529   6.153
 9815POPC   GL261262  40.899  24.465   6.153
 9815POPC   C1A61263  40.801  24.489   6.453
 9815POPC   D2A61264  40.751  24.505   6.753
 9815POPC   C3A61265  40.751  24.444   7.053
 9815POPC   C4A61266  40.831  24.496   7.353
 9815POPC   C1B61267  41.037  24.494   6.453
 9815POPC   C2B61268  41.073  24.487   6.753
 9815POPC   C3B61269  41.065  24.488   7.053
 9815POPC   C4B61270  41.069  24.471   7.353
 9816POPC   NC361271  28.359  35.335   5.553
 9816POPC   PO461272  28.344  35.374   5.853
 9816POPC   GL161273  28.399  35.351   6.153
 9816POPC   GL261274  28.326  35.224   6.153
 9816POPC   C1A61275  28.413  35.313   6.453
 9816POPC   D2A61276  28.377  35.367   6.753
 9816POPC   C3A61277  28.332  35.371   7.053
 9816POPC   C4A61278  28.355  35.303   7.353
 9816POPC   C1B61279  28.390  35.075   6.453
 9816POPC   C2B61280  28.364  35.065   6.753
 9816POPC   C3B61281  28.376  35.141   7.053
 9816POPC   C4B61282  28.400  35.059   7.353
 9817POPC   NC361283   0.471  26.776   5.553
 9817POPC   PO461284   0.430  26.859   5.853
 9817POPC   GL161285   0.472  26.805   6.153
 9817POPC   GL261286   0.449  26.678   6.153
 9817POPC   C1A61287   0.470  26.834   6.453
 9817POPC   D2A61288   0.405  26.823   6.753
 9817POPC   C3A61289   0.423  26.866   7.053
 9817POPC   C4A61290   0.472  26.786   7.353
 9817POPC   C1B61291   0.430  26.547   6.453
 9817POPC   C2B61292   0.395  26.573   6.753
 9817POPC   C3B61293   0.380  26.543   7.053
 9817POPC   C4B61294   0.413  26.554   7.353
 9818POPC   NC361295  30.722   5.117   5.553
 9818POPC   PO461296  30.725   5.081   5.853
 9818POPC   GL161297  30.669   5.119   6.153
 9818POPC   GL261298  30.627   5.037   6.153
 9818POPC   C1A61299  30.705   5.048   6.453
 9818POPC   D2A61300  30.733   5.079   6.753
 9818POPC   C3A61301  30.740   5.143   7.053
 9818POPC   C4A61302  30.672   5.075   7.353
 9818POPC   C1B61303  30.514   4.989   6.453
 9818POPC   C2B61304  30.455   4.979   6.753
 9818POPC   C3B61305  30.428   4.970   7.053
 9818POPC   C4B61306  30.488   4.963   7.353
 9819POPC   NC361307  22.133  37.662   5.553
 9819POPC   PO461308  22.173  37.662   5.853
 9819POPC   GL161309  22.202  37.640   6.153
 9819POPC   GL261310  22.041  37.621   6.153
 9819POPC   C1A61311  22.154  37.639   6.453
 9819POPC   D2A61312  22.162  37.653   6.753
 9819POPC   C3A61313  22.139  37.699   7.053
 9819POPC   C4A61314  22.144  37.703   7.353
 9819POPC   C1B61315  21.900  37.633   6.453
 9819POPC   C2B61316  21.941  37.639   6.753
 9819POPC   C3B61317  21.941  37.625   7.053
 9819POPC   C4B61318  21.910  37.610   7.353
 9820POPC   NC361319  40.827  34.532   5.553
 9820POPC   PO461320  40.807  34.590   5.853
 9820POPC   GL161321  40.822  34.623   6.153
 9820POPC   GL261322  40.687  34.546   6.153
 9820POPC   C1A61323  40.825  34.533   6.453
 9820POPC   D2A61324  40.794  34.583   6.753
 9820POPC   C3A61325  40.773  34.563   7.053
 9820POPC   C4A61326  40.815  34.603   7.353
 9820POPC   C1B61327  40.579  34.493   6.453
 9820POPC   C2B61328  40.534  34.467   6.753
 9820POPC   C3B61329  40.503  34.499   7.053
 9820POPC   C4B61330  40.580  34.462   7.353
 9821POPC   NC361331  40.015   6.619   5.553
 9821POPC   PO461332  39.995   6.639   5.853
 9821POPC   GL161333  40.036   6.694   6.153
 9821POPC   GL261334  40.138   6.635   6.153
 9821POPC   C1A61335  39.986   6.608   6.453
 9821POPC   D2A61336  40.015   6.694   6.753
 9821POPC   C3A61337  40.005   6.625   7.053
 9821POPC   C4A61338  39.968   6.626   7.353
 9821POPC   C1B61339  40.184   6.535   6.453
 9821POPC   C2B61340  40.208   6.515   6.753
 9821POPC   C3B61341  40.241   6.533   7.053
 9821POPC   C4B61342  40.218   6.567   7.353
 9822POPC   NC361343  14.359  25.230   5.553
 9822POPC   PO461344  14.386  25.216   5.853
 9822POPC   GL161345  14.357  25.269   6.153
 9822POPC   GL261346  14.263  25.366   6.153
 9822POPC   C1A61347  14.356  25.280   6.453
 9822POPC   D2A61348  14.443  25.274   6.753
 9822POPC   C3A61349  14.389  25.257   7.053
 9822POPC   C4A61350  14.379  25.260   7.353
 9822POPC   C1B61351  14.190  25.385   6.453
 9822POPC   C2B61352  14.261  25.418   6.753
 9822POPC   C3B61353  14.204  25.398   7.053
 9822POPC   C4B61354  14.197  25.402   7.353
 9823POPC   NC361355  29.879  44.685   5.553
 9823POPC   PO461356  29.904  44.707   5.853
 9823POPC   GL161357  29.969  44.667   6.153
 9823POPC   GL261358  29.938  44.763   6.153
 9823POPC   C1A61359  29.886  44.648   6.453
 9823POPC   D2A61360  29.875  44.705   6.753
 9823POPC   C3A61361  29.943  44.619   7.053
 9823POPC   C4A61362  29.914  44.665   7.353
 9823POPC   C1B61363  29.833  44.921   6.453
 9823POPC   C2B61364  29.866  44.929   6.753
 9823POPC   C3B61365  29.824  44.937   7.053
 9823POPC   C4B61366  29.893  44.920   7.353
 9824POPC   NC361367   5.045  18.325   5.553
 9824POPC   PO461368   5.084  18.240   5.853
 9824POPC   GL161369   5.138  18.268   6.153
 9824POPC   GL261370   5.052  18.385   6.153
 9824POPC   C1A61371   5.109  18.263   6.453
 9824POPC   D2A61372   5.059  18.304   6.753
 9824POPC   C3A61373   5.103  18.250   7.053
 9824POPC   C4A61374   5.086  18.286   7.353
 9824POPC   C1B61375   4.952  18.471   6.453
 9824POPC   C2B61376   5.012  18.510   6.753
 9824POPC   C3B61377   5.011  18.476   7.053
 9824POPC   C4B61378   4.980  18.456   7.353
 9825POPC   NC361379   4.285  21.359   5.553
 9825POPC   PO461380   4.299  21.433   5.853
 9825POPC   GL161381   4.274  21.413   6.153
 9825POPC   GL261382   4.390  21.314   6.153
 9825POPC   C1A61383   4.361  21.356   6.453
 9825POPC   D2A61384   4.271  21.435   6.753
 9825POPC   C3A61385   4.305  21.389   7.053
 9825POPC   C4A61386   4.361  21.395   7.353
 9825POPC   C1B61387   4.563  21.331   6.453
 9825POPC   C2B61388   4.595  21.270   6.753
 9825POPC   C3B61389   4.567  21.357   7.053
 9825POPC   C4B61390   4.537  21.343   7.353
 9826POPC   NC361391  44.661  44.628   5.553
 9826POPC   PO461392  44.700  44.662   5.853
 9826POPC   GL161393  44.677  44.702   6.153
 9826POPC   GL261394  44.583  44.698   6.153
 9826POPC   C1A61395  44.656  44.620   6.453
 9826POPC   D2A61396  44.676  44.641   6.753
 9826POPC   C3A61397  44.685  44.708   7.053
 9826POPC   C4A61398  44.636  44.637   7.353
 9826POPC   C1B61399  44.398  44.805   6.453
 9826POPC   C2B61400  44.455  44.773   6.753
 9826POPC   C3B61401  44.394  44.775   7.053
 9826POPC   C4B61402  44.403  44.781   7.353
 9827POPC   NC361403   4.311   6.692   5.553
 9827POPC   PO461404   4.325   6.646   5.853
 9827POPC   GL161405   4.353   6.621   6.153
 9827POPC   GL261406   4.212   6.543   6.153
 9827POPC   C1A61407   4.308   6.678   6.453
 9827POPC   D2A61408   4.354   6.669   6.753
 9827POPC   C3A61409   4.293   6.597   7.053
 9827POPC   C4A61410   4.351   6.630   7.353
 9827POPC   C1B61411   4.070   6.482   6.453
 9827POPC   C2B61412   4.081   6.575   6.753
 9827POPC   C3B61413   4.132   6.497   7.053
 9827POPC   C4B61414   4.077   6.513   7.353
 9828POPC   NC361415  26.862  40.748   5.553
 9828POPC   PO461416  26.787  40.742   5.853
 9828POPC   GL161417  26.791  40.789   6.153
 9828POPC   GL261418  26.966  40.843   6.153
 9828POPC   C1A61419  26.777  40.821   6.453
 9828POPC   D2A61420  26.827  40.830   6.753
 9828POPC   C3A61421  26.807  40.797   7.053
 9828POPC   C4A61422  26.780  40.778   7.353
 9828POPC   C1B61423  27.020  40.904   6.453
 9828POPC   C2B61424  27.008  40.944   6.753
 9828POPC   C3B61425  27.035  40.883   7.053
 9828POPC   C4B61426  27.031  40.935   7.353
 9829POPC   NC361427  22.939  19.029   5.553
 9829POPC   PO461428  22.955  19.035   5.853
 9829POPC   GL161429  22.911  19.099   6.153
 9829POPC   GL261430  23.064  19.134   6.153
 9829POPC   C1A61431  22.891  19.015   6.453
 9829POPC   D2A61432  22.948  19.015   6.753
 9829POPC   C3A61433  22.942  19.065   7.053
 9829POPC   C4A61434  22.890  19.054   7.353
 9829POPC   C1B61435  23.073  19.262   6.453
 9829POPC   C2B61436  23.090  19.280   6.753
 9829POPC   C3B61437  23.078  19.240   7.053
 9829POPC   C4B61438  23.158  19.186   7.353
 9830POPC   NC361439  25.306  33.765   5.553
 9830POPC   PO461440  25.259  33.836   5.853
 9830POPC   GL161441  25.237  33.751   6.153
 9830POPC   GL261442  25.261  33.946   6.153
 9830POPC   C1A61443  25.314  33.776   6.453
 9830POPC   D2A61444  25.257  33.828   6.753
 9830POPC   C3A61445  25.227  33.850   7.053
 9830POPC   C4A61446  25.305  33.817   7.353
 9830POPC   C1B61447  25.321  34.043   6.453
 9830POPC   C2B61448  25.323  34.093   6.753
 9830POPC   C3B61449  25.275  34.034   7.053
 9830POPC   C4B61450  25.293  34.066   7.353
 9831POPC   NC361451  22.956  43.884   5.553
 9831POPC   PO461452  22.900  43.857   5.853
 9831POPC   GL161453  22.926  43.902   6.153
 9831POPC   GL261454  22.990  43.770   6.153
 9831POPC   C1A61455  22.904  43.861   6.453
 9831POPC   D2A61456  22.949  43.857   6.753
 9831POPC   C3A61457  22.961  43.866   7.053
 9831POPC   C4A61458  22.909  43.842   7.353
 9831POPC   C1B61459  22.925  43.680   6.453
 9831POPC   C2B61460  22.985  43.597   6.753
 9831POPC   C3B61461  22.945  43.681   7.053
 9831POPC   C4B61462  22.977  43.677   7.353
 9832POPC   NC361463  12.080  12.079   5.553
 9832POPC   PO461464  12.105  12.085   5.853
 9832POPC   GL161465  12.069  12.060   6.153
 9832POPC   GL261466  12.189  12.192   6.153
 9832POPC   C1A61467  12.043  12.040   6.453
 9832POPC   D2A61468  12.027  12.099   6.753
 9832POPC   C3A61469  12.118  12.071   7.053
 9832POPC   C4A61470  12.087  12.110   7.353
 9832POPC   C1B61471  12.272  12.276   6.453
 9832POPC   C2B61472  12.275  12.278   6.753
 9832POPC   C3B61473  12.275  12.248   7.053
 9832POPC   C4B61474  12.195  12.248   7.353
 9833POPC   NC361475  42.342  41.533   5.553
 9833POPC   PO461476  42.328  41.569   5.853
 9833POPC   GL161477  42.312  41.585   6.153
 9833POPC   GL261478  42.448  41.510   6.153
 9833POPC   C1A61479  42.377  41.578   6.453
 9833POPC   D2A61480  42.314  41.598   6.753
 9833POPC   C3A61481  42.373  41.581   7.053
 9833POPC   C4A61482  42.335  41.582   7.353
 9833POPC   C1B61483  42.576  41.503   6.453
 9833POPC   C2B61484  42.565  41.474   6.753
 9833POPC   C3B61485  42.544  41.498   7.053
 9833POPC   C4B61486  42.618  41.550   7.353
 9834POPC   NC361487   6.631  19.059   5.553
 9834POPC   PO461488   6.680  19.098   5.853
 9834POPC   GL161489   6.650  19.075   6.153
 9834POPC   GL261490   6.471  19.057   6.153
 9834POPC   C1A61491   6.635  19.089   6.453
 9834POPC   D2A61492   6.643  19.078   6.753
 9834POPC   C3A61493   6.671  19.066   7.053
 9834POPC   C4A61494   6.631  19.099   7.353
 9834POPC   C1B61495   6.418  19.056   6.453
 9834POPC   C2B61496   6.413  19.086   6.753
 9834POPC   C3B61497   6.357  19.089   7.053
 9834POPC   C4B61498   6.375  19.108   7.353
 9835POPC   NC361499  13.583   5.132   5.553
 9835POPC   PO461500  13.670   5.134   5.853
 9835POPC   GL161501  13.664   5.054   6.153
 9835POPC   GL261502  13.586   5.028   6.153
 9835POPC   C1A61503  13.657   5.090   6.453
 9835POPC   D2A61504  13.583   5.063   6.753
 9835POPC   C3A61505  13.594   5.116   7.053
 9835POPC   C4A61506  13.593   5.081   7.353
 9835POPC   C1B61507  13.525   4.887   6.453
 9835POPC   C2B61508  13.510   4.916   6.753
 9835POPC   C3B61509  13.517   4.840   7.053
 9835POPC   C4B61510  13.507   4.897   7.353
 9836POPC   NC361511  39.204  33.000   5.553
 9836POPC   PO461512  39.263  32.997   5.853
 9836POPC   GL161513  39.257  32.991   6.153
 9836POPC   GL261514  39.243  33.165   6.153
 9836POPC   C1A61515  39.202  33.045   6.453
 9836POPC   D2A61516  39.197  32.986   6.753
 9836POPC   C3A61517  39.225  33.009   7.053
 9836POPC   C4A61518  39.239  32.979   7.353
 9836POPC   C1B61519  39.263  33.301   6.453
 9836POPC   C2B61520  39.208  33.293   6.753
 9836POPC   C3B61521  39.284  33.283   7.053
 9836POPC   C4B61522  39.211  33.308   7.353
 9837POPC   NC361523  20.627   8.934   5.553
 9837POPC   PO461524  20.593   8.930   5.853
 9837POPC   GL161525  20.660   9.010   6.153
 9837POPC   GL261526  20.452   9.004   6.153
 9837POPC   C1A61527  20.591   8.995   6.453
 9837POPC   D2A61528  20.611   8.957   6.753
 9837POPC   C3A61529  20.593   9.020   7.053
 9837POPC   C4A61530  20.570   8.973   7.353
 9837POPC   C1B61531  20.424   9.055   6.453
 9837POPC   C2B61532  20.404   9.058   6.753
 9837POPC   C3B61533  20.343   9.071   7.053
 9837POPC   C4B61534  20.391   9.051   7.353
 9838POPC   NC361535  22.123  31.516   5.553
 9838POPC   PO461536  22.161  31.433   5.853
 9838POPC   GL161537  22.136  31.437   6.153
 9838POPC   GL261538  22.211  31.600   6.153
 9838POPC   C1A61539  22.208  31.445   6.453
 9838POPC   D2A61540  22.200  31.442   6.753
 9838POPC   C3A61541  22.207  31.483   7.053
 9838POPC   C4A61542  22.174  31.477   7.353
 9838POPC   C1B61543  22.220  31.700   6.453
 9838POPC   C2B61544  22.164  31.716   6.753
 9838POPC   C3B61545  22.182  31.723   7.053
 9838POPC   C4B61546  22.230  31.738   7.353
 9839POPC   NC361547  31.504  25.241   5.553
 9839POPC   PO461548  31.434  25.286   5.853
 9839POPC   GL161549  31.470  25.308   6.153
 9839POPC   GL261550  31.466  25.403   6.153
 9839POPC   C1A61551  31.430  25.232   6.453
 9839POPC   D2A61552  31.498  25.216   6.753
 9839POPC   C3A61553  31.488  25.225   7.053
 9839POPC   C4A61554  31.424  25.262   7.353
 9839POPC   C1B61555  31.523  25.554   6.453
 9839POPC   C2B61556  31.490  25.504   6.753
 9839POPC   C3B61557  31.535  25.470   7.053
 9839POPC   C4B61558  31.494  25.494   7.353
 9840POPC   NC361559  42.290  21.368   5.553
 9840POPC   PO461560  42.333  21.404   5.853
 9840POPC   GL161561  42.369  21.384   6.153
 9840POPC   GL261562  42.392  21.520   6.153
 9840POPC   C1A61563  42.348  21.413   6.453
 9840POPC   D2A61564  42.331  21.394   6.753
 9840POPC   C3A61565  42.379  21.357   7.053
 9840POPC   C4A61566  42.353  21.343   7.353
 9840POPC   C1B61567  42.506  21.534   6.453
 9840POPC   C2B61568  42.489  21.561   6.753
 9840POPC   C3B61569  42.461  21.610   7.053
 9840POPC   C4B61570  42.515  21.545   7.353
 9841POPC   NC361571  11.264   2.031   5.553
 9841POPC   PO461572  11.289   1.969   5.853
 9841POPC   GL161573  11.318   2.009   6.153
 9841POPC   GL261574  11.288   1.886   6.153
 9841POPC   C1A61575  11.267   1.981   6.453
 9841POPC   D2A61576  11.262   2.018   6.753
 9841POPC   C3A61577  11.276   1.969   7.053
 9841POPC   C4A61578  11.262   2.027   7.353
 9841POPC   C1B61579  11.283   1.729   6.453
 9841POPC   C2B61580  11.275   1.796   6.753
 9841POPC   C3B61581  11.272   1.788   7.053
 9841POPC   C4B61582  11.220   1.752   7.353
 9842POPC   NC361583  25.294  21.379   5.553
 9842POPC   PO461584  25.223  21.357   5.853
 9842POPC   GL161585  25.305  21.352   6.153
 9842POPC   GL261586  25.149  21.449   6.153
 9842POPC   C1A61587  25.314  21.376   6.453
 9842POPC   D2A61588  25.220  21.405   6.753
 9842POPC   C3A61589  25.275  21.436   7.053
 9842POPC   C4A61590  25.239  21.355   7.353
 9842POPC   C1B61591  25.158  21.568   6.453
 9842POPC   C2B61592  25.097  21.620   6.753
 9842POPC   C3B61593  25.144  21.606   7.053
 9842POPC   C4B61594  25.151  21.557   7.353
 9843POPC   NC361595  33.023  15.982   5.553
 9843POPC   PO461596  32.992  15.909   5.853
 9843POPC   GL161597  33.011  15.956   6.153
 9843POPC   GL261598  32.967  15.820   6.153
 9843POPC   C1A61599  33.055  15.945   6.453
 9843POPC   D2A61600  33.056  15.930   6.753
 9843POPC   C3A61601  33.070  15.933   7.053
 9843POPC   C4A61602  32.983  15.952   7.353
 9843POPC   C1B61603  32.925  15.682   6.453
 9843POPC   C2B61604  32.909  15.760   6.753
 9843POPC   C3B61605  32.977  15.711   7.053
 9843POPC   C4B61606  32.983  15.732   7.353
 9844POPC   NC361607  42.377   0.463   5.553
 9844POPC   PO461608  42.381   0.472   5.853
 9844POPC   GL161609  42.329   0.480   6.153
 9844POPC   GL261610  42.260   0.279   6.153
 9844POPC   C1A61611  42.354   0.429   6.453
 9844POPC   D2A61612  42.301   0.474   6.753
 9844POPC   C3A61613  42.326   0.469   7.053
 9844POPC   C4A61614  42.377   0.435   7.353
 9844POPC   C1B61615  42.302   0.167   6.453
 9844POPC   C2B61616  42.262   0.237   6.753
 9844POPC   C3B61617  42.316   0.165   7.053
 9844POPC   C4B61618  42.238   0.163   7.353
 9845POPC   NC361619  12.883  17.487   5.553
 9845POPC   PO461620  12.809  17.491   5.853
 9845POPC   GL161621  12.859  17.484   6.153
 9845POPC   GL261622  12.759  17.389   6.153
 9845POPC   C1A61623  12.851  17.528   6.453
 9845POPC   D2A61624  12.842  17.511   6.753
 9845POPC   C3A61625  12.818  17.462   7.053
 9845POPC   C4A61626  12.831  17.526   7.353
 9845POPC   C1B61627  12.639  17.333   6.453
 9845POPC   C2B61628  12.649  17.355   6.753
 9845POPC   C3B61629  12.628  17.342   7.053
 9845POPC   C4B61630  12.627  17.367   7.353
 9846POPC   NC361631  20.568  10.544   5.553
 9846POPC   PO461632  20.656  10.551   5.853
 9846POPC   GL161633  20.654  10.520   6.153
 9846POPC   GL261634  20.471  10.573   6.153
 9846POPC   C1A61635  20.613  10.477   6.453
 9846POPC   D2A61636  20.607  10.520   6.753
 9846POPC   C3A61637  20.606  10.533   7.053
 9846POPC   C4A61638  20.617  10.559   7.353
 9846POPC   C1B61639  20.325  10.633   6.453
 9846POPC   C2B61640  20.399  10.582   6.753
 9846POPC   C3B61641  20.355  10.539   7.053
 9846POPC   C4B61642  20.340  10.597   7.353
 9847POPC   NC361643  22.910  26.020   5.553
 9847POPC   PO461644  22.959  26.031   5.853
 9847POPC   GL161645  22.915  26.084   6.153
 9847POPC   GL261646  22.833  26.003   6.153
 9847POPC   C1A61647  22.951  26.009   6.453
 9847POPC   D2A61648  22.918  26.067   6.753
 9847POPC   C3A61649  22.916  26.018   7.053
 9847POPC   C4A61650  22.972  26.004   7.353
 9847POPC   C1B61651  22.731  25.990   6.453
 9847POPC   C2B61652  22.718  25.944   6.753
 9847POPC   C3B61653  22.688  26.010   7.053
 9847POPC   C4B61654  22.703  25.960   7.353
 9848POPC   NC361655  36.162  22.911   5.553
 9848POPC   PO461656  36.139  22.974   5.853
 9848POPC   GL161657  36.155  22.923   6.153
 9848POPC   GL261658  36.199  23.019   6.153
 9848POPC   C1A61659  36.159  22.986   6.453
 9848POPC   D2A61660  36.109  22.948   6.753
 9848POPC   C3A61661  36.162  22.894   7.053
 9848POPC   C4A61662  36.083  22.909   7.353
 9848POPC   C1B61663  36.242  23.157   6.453
 9848POPC   C2B61664  36.232  23.200   6.753
 9848POPC   C3B61665  36.254  23.139   7.053
 9848POPC   C4B61666  36.175  23.208   7.353
 9849POPC   NC361667  29.111  27.562   5.553
 9849POPC   PO461668  29.126  27.608   5.853
 9849POPC   GL161669  29.096  27.553   6.153
 9849POPC   GL261670  29.071  27.476   6.153
 9849POPC   C1A61671  29.111  27.547   6.453
 9849POPC   D2A61672  29.152  27.569   6.753
 9849POPC   C3A61673  29.128  27.641   7.053
 9849POPC   C4A61674  29.182  27.606   7.353
 9849POPC   C1B61675  28.954  27.421   6.453
 9849POPC   C2B61676  28.999  27.349   6.753
 9849POPC   C3B61677  29.015  27.389   7.053
 9849POPC   C4B61678  28.947  27.410   7.353
 9850POPC   NC361679  17.535   2.790   5.553
 9850POPC   PO461680  17.477   2.805   5.853
 9850POPC   GL161681  17.504   2.777   6.153
 9850POPC   GL261682  17.607   2.675   6.153
 9850POPC   C1A61683  17.496   2.803   6.453
 9850POPC   D2A61684  17.487   2.805   6.753
 9850POPC   C3A61685  17.549   2.772   7.053
 9850POPC   C4A61686  17.507   2.747   7.353
 9850POPC   C1B61687  17.617   2.535   6.453
 9850POPC   C2B61688  17.672   2.600   6.753
 9850POPC   C3B61689  17.641   2.516   7.053
 9850POPC   C4B61690  17.634   2.581   7.353
 9851POPC   NC361691  36.143  37.669   5.553
 9851POPC   PO461692  36.140  37.653   5.853
 9851POPC   GL161693  36.109  37.649   6.153
 9851POPC   GL261694  36.049  37.565   6.153
 9851POPC   C1A61695  36.078  37.656   6.453
 9851POPC   D2A61696  36.166  37.631   6.753
 9851POPC   C3A61697  36.096  37.667   7.053
 9851POPC   C4A61698  36.177  37.688   7.353
 9851POPC   C1B61699  35.912  37.529   6.453
 9851POPC   C2B61700  36.000  37.534   6.753
 9851POPC   C3B61701  35.981  37.461   7.053
 9851POPC   C4B61702  35.947  37.499   7.353
 9852POPC   NC361703   8.984   5.877   5.553
 9852POPC   PO461704   8.932   5.843   5.853
 9852POPC   GL161705   8.980   5.913   6.153
 9852POPC   GL261706   8.953   5.770   6.153
 9852POPC   C1A61707   9.013   5.854   6.453
 9852POPC   D2A61708   8.999   5.866   6.753
 9852POPC   C3A61709   9.018   5.918   7.053
 9852POPC   C4A61710   8.977   5.830   7.353
 9852POPC   C1B61711   8.967   5.594   6.453
 9852POPC   C2B61712   8.899   5.583   6.753
 9852POPC   C3B61713   8.911   5.587   7.053
 9852POPC   C4B61714   8.961   5.658   7.353
 9853POPC   NC361715  22.137   0.390   5.553
 9853POPC   PO461716  22.196   0.420   5.853
 9853POPC   GL161717  22.130   0.432   6.153
 9853POPC   GL261718  22.164   0.577   6.153
 9853POPC   C1A61719  22.209   0.446   6.453
 9853POPC   D2A61720  22.172   0.462   6.753
 9853POPC   C3A61721  22.116   0.459   7.053
 9853POPC   C4A61722  22.162   0.412   7.353
 9853POPC   C1B61723  22.217   0.651   6.453
 9853POPC   C2B61724  22.170   0.657   6.753
 9853POPC   C3B61725  22.164   0.648   7.053
 9853POPC   C4B61726  22.141   0.679   7.353
 9854POPC   NC361727  13.626  40.825   5.553
 9854POPC   PO461728  13.580  40.773   5.853
 9854POPC   GL161729  13.600  40.818   6.153
 9854POPC   GL261730  13.555  40.873   6.153
 9854POPC   C1A61731  13.602  40.806   6.453
 9854POPC   D2A61732  13.586  40.759   6.753
 9854POPC   C3A61733  13.592  40.744   7.053
 9854POPC   C4A61734  13.643  40.788   7.353
 9854POPC   C1B61735  13.375  40.917   6.453
 9854POPC   C2B61736  13.368  40.827   6.753
 9854POPC   C3B61737  13.365  40.922   7.053
 9854POPC   C4B61738  13.421  40.859   7.353
 9855POPC   NC361739  10.480  35.386   5.553
 9855POPC   PO461740  10.485  35.367   5.853
 9855POPC   GL161741  10.555  35.359   6.153
 9855POPC   GL261742  10.632  35.423   6.153
 9855POPC   C1A61743  10.554  35.331   6.453
 9855POPC   D2A61744  10.523  35.345   6.753
 9855POPC   C3A61745  10.489  35.343   7.053
 9855POPC   C4A61746  10.522  35.347   7.353
 9855POPC   C1B61747  10.744  35.514   6.453
 9855POPC   C2B61748  10.760  35.477   6.753
 9855POPC   C3B61749  10.740  35.561   7.053
 9855POPC   C4B61750  10.744  35.487   7.353
 9856POPC   NC361751   2.026  20.622   5.553
 9856POPC   PO461752   2.015  20.646   5.853
 9856POPC   GL161753   1.949  20.605   6.153
 9856POPC   GL261754   1.961  20.740   6.153
 9856POPC   C1A61755   2.025  20.582   6.453
 9856POPC   D2A61756   2.020  20.574   6.753
 9856POPC   C3A61757   1.995  20.578   7.053
 9856POPC   C4A61758   1.986  20.660   7.353
 9856POPC   C1B61759   1.868  20.813   6.453
 9856POPC   C2B61760   1.900  20.819   6.753
 9856POPC   C3B61761   1.865  20.797   7.053
 9856POPC   C4B61762   1.947  20.855   7.353
 9857POPC   NC361763  22.972  12.851   5.553
 9857POPC   PO461764  22.942  12.846   5.853
 9857POPC   GL161765  22.933  12.824   6.153
 9857POPC   GL261766  22.866  12.934   6.153
 9857POPC   C1A61767  22.932  12.878   6.453
 9857POPC   D2A61768  22.974  12.879   6.753
 9857POPC   C3A61769  22.982  12.827   7.053
 9857POPC   C4A61770  22.915  12.868   7.353
 9857POPC   C1B61771  22.780  13.002   6.453
 9857POPC   C2B61772  22.742  13.010   6.753
 9857POPC   C3B61773  22.737  13.042   7.053
 9857POPC   C4B61774  22.779  13.032   7.353
 9858POPC   NC361775   2.013  18.245   5.553
 9858POPC   PO461776   1.942  18.289   5.853
 9858POPC   GL161777   2.019  18.284   6.153
 9858POPC   GL261778   2.077  18.303   6.153
 9858POPC   C1A61779   1.947  18.276   6.453
 9858POPC   D2A61780   2.016  18.296   6.753
 9858POPC   C3A61781   2.014  18.272   7.053
 9858POPC   C4A61782   2.025  18.312   7.353
 9858POPC   C1B61783   2.238  18.296   6.453
 9858POPC   C2B61784   2.203  18.273   6.753
 9858POPC   C3B61785   2.269  18.291   7.053
 9858POPC   C4B61786   2.271  18.308   7.353
 9859POPC   NC361787  35.356  25.262   5.553
 9859POPC   PO461788  35.397  25.270   5.853
 9859POPC   GL161789  35.372  25.277   6.153
 9859POPC   GL261790  35.366  25.391   6.153
 9859POPC   C1A61791  35.365  25.282   6.453
 9859POPC   D2A61792  35.308  25.275   6.753
 9859POPC   C3A61793  35.390  25.267   7.053
 9859POPC   C4A61794  35.338  25.221   7.353
 9859POPC   C1B61795  35.361  25.472   6.453
 9859POPC   C2B61796  35.313  25.511   6.753
 9859POPC   C3B61797  35.301  25.521   7.053
 9859POPC   C4B61798  35.311  25.544   7.353
 9860POPC   NC361799  26.833   3.581   5.553
 9860POPC   PO461800  26.839   3.579   5.853
 9860POPC   GL161801  26.853   3.520   6.153
 9860POPC   GL261802  26.678   3.560   6.153
 9860POPC   C1A61803  26.815   3.581   6.453
 9860POPC   D2A61804  26.826   3.511   6.753
 9860POPC   C3A61805  26.808   3.575   7.053
 9860POPC   C4A61806  26.834   3.524   7.353
 9860POPC   C1B61807  26.553   3.515   6.453
 9860POPC   C2B61808  26.551   3.461   6.753
 9860POPC   C3B61809  26.576   3.470   7.053
 9860POPC   C4B61810  26.612   3.457   7.353
 9861POPC   NC361811  29.190  16.740   5.553
 9861POPC   PO461812  29.176  16.780   5.853
 9861POPC   GL161813  29.119  16.765   6.153
 9861POPC   GL261814  29.215  16.785   6.153
 9861POPC   C1A61815  29.160  16.744   6.453
 9861POPC   D2A61816  29.160  16.757   6.753
 9861POPC   C3A61817  29.139  16.752   7.053
 9861POPC   C4A61818  29.142  16.708   7.353
 9861POPC   C1B61819  29.290  16.946   6.453
 9861POPC   C2B61820  29.289  16.889   6.753
 9861POPC   C3B61821  29.270  16.946   7.053
 9861POPC   C4B61822  29.295  16.945   7.353
 9862POPC   NC361823  43.126  43.864   5.553
 9862POPC   PO461824  43.120  43.856   5.853
 9862POPC   GL161825  43.159  43.839   6.153
 9862POPC   GL261826  43.229  43.871   6.153
 9862POPC   C1A61827  43.086  43.899   6.453
 9862POPC   D2A61828  43.112  43.909   6.753
 9862POPC   C3A61829  43.088  43.919   7.053
 9862POPC   C4A61830  43.104  43.858   7.353
 9862POPC   C1B61831  43.406  43.870   6.453
 9862POPC   C2B61832  43.365  43.858   6.753
 9862POPC   C3B61833  43.379  43.852   7.053
 9862POPC   C4B61834  43.315  43.870   7.353
 9863POPC   NC361835  16.720  19.866   5.553
 9863POPC   PO461836  16.774  19.810   5.853
 9863POPC   GL161837  16.761  19.866   6.153
 9863POPC   GL261838  16.818  19.758   6.153
 9863POPC   C1A61839  16.778  19.853   6.453
 9863POPC   D2A61840  16.767  19.823   6.753
 9863POPC   C3A61841  16.705  19.825   7.053
 9863POPC   C4A61842  16.728  19.804   7.353
 9863POPC   C1B61843  16.904  19.596   6.453
 9863POPC   C2B61844  16.812  19.580   6.753
 9863POPC   C3B61845  16.898  19.601   7.053
 9863POPC   C4B61846  16.842  19.596   7.353
 9864POPC   NC361847  40.019   8.960   5.553
 9864POPC   PO461848  40.036   8.968   5.853
 9864POPC   GL161849  40.026   8.953   6.153
 9864POPC   GL261850  40.007   8.836   6.153
 9864POPC   C1A61851  39.959   8.975   6.453
 9864POPC   D2A61852  40.034   8.953   6.753
 9864POPC   C3A61853  40.036   9.009   7.053
 9864POPC   C4A61854  39.990   8.982   7.353
 9864POPC   C1B61855  40.072   8.706   6.453
 9864POPC   C2B61856  40.042   8.676   6.753
 9864POPC   C3B61857  40.050   8.753   7.053
 9864POPC   C4B61858  40.041   8.719   7.353
 9865POPC   NC361859  19.823  25.232   5.553
 9865POPC   PO461860  19.827  25.311   5.853
 9865POPC   GL161861  19.840  25.231   6.153
 9865POPC   GL261862  19.871  25.371   6.153
 9865POPC   C1A61863  19.789  25.310   6.453
 9865POPC   D2A61864  19.799  25.222   6.753
 9865POPC   C3A61865  19.809  25.260   7.053
 9865POPC   C4A61866  19.788  25.301   7.353
 9865POPC   C1B61867  19.934  25.457   6.453
 9865POPC   C2B61868  19.960  25.465   6.753
 9865POPC   C3B61869  19.991  25.462   7.053
 9865POPC   C4B61870  20.030  25.453   7.353
 9866POPC   NC361871  21.421  31.442   5.553
 9866POPC   PO461872  21.433  31.510   5.853
 9866POPC   GL161873  21.421  31.470   6.153
 9866POPC   GL261874  21.288  31.415   6.153
 9866POPC   C1A61875  21.404  31.486   6.453
 9866POPC   D2A61876  21.362  31.520   6.753
 9866POPC   C3A61877  21.345  31.440   7.053
 9866POPC   C4A61878  21.413  31.446   7.353
 9866POPC   C1B61879  21.228  31.357   6.453
 9866POPC   C2B61880  21.198  31.315   6.753
 9866POPC   C3B61881  21.182  31.381   7.053
 9866POPC   C4B61882  21.191  31.365   7.353
 9867POPC   NC361883  43.869  16.751   5.553
 9867POPC   PO461884  43.847  16.754   5.853
 9867POPC   GL161885  43.859  16.702   6.153
 9867POPC   GL261886  44.007  16.740   6.153
 9867POPC   C1A61887  43.898  16.724   6.453
 9867POPC   D2A61888  43.839  16.689   6.753
 9867POPC   C3A61889  43.912  16.736   7.053
 9867POPC   C4A61890  43.890  16.697   7.353
 9867POPC   C1B61891  44.136  16.722   6.453
 9867POPC   C2B61892  44.091  16.774   6.753
 9867POPC   C3B61893  44.174  16.728   7.053
 9867POPC   C4B61894  44.161  16.764   7.353
 9868POPC   NC361895  33.768  31.474   5.553
 9868POPC   PO461896  33.798  31.466   5.853
 9868POPC   GL161897  33.807  31.431   6.153
 9868POPC   GL261898  33.885  31.414   6.153
 9868POPC   C1A61899  33.802  31.442   6.453
 9868POPC   D2A61900  33.822  31.502   6.753
 9868POPC   C3A61901  33.791  31.489   7.053
 9868POPC   C4A61902  33.762  31.491   7.353
 9868POPC   C1B61903  34.006  31.289   6.453
 9868POPC   C2B61904  34.005  31.355   6.753
 9868POPC   C3B61905  34.048  31.321   7.053
 9868POPC   C4B61906  34.027  31.308   7.353
 9869POPC   NC361907  19.013   5.871   5.553
 9869POPC   PO461908  19.080   5.840   5.853
 9869POPC   GL161909  19.015   5.864   6.153
 9869POPC   GL261910  18.953   5.964   6.153
 9869POPC   C1A61911  19.071   5.887   6.453
 9869POPC   D2A61912  19.036   5.852   6.753
 9869POPC   C3A61913  19.092   5.896   7.053
 9869POPC   C4A61914  19.032   5.856   7.353
 9869POPC   C1B61915  18.828   6.074   6.453
 9869POPC   C2B61916  18.882   6.002   6.753
 9869POPC   C3B61917  18.832   6.020   7.053
 9869POPC   C4B61918  18.875   6.062   7.353
 9870POPC   NC361919  12.879  12.098   5.553
 9870POPC   PO461920  12.897  12.093   5.853
 9870POPC   GL161921  12.882  12.044   6.153
 9870POPC   GL261922  12.757  12.028   6.153
 9870POPC   C1A61923  12.897  12.039   6.453
 9870POPC   D2A61924  12.817  12.112   6.753
 9870POPC   C3A61925  12.825  12.120   7.053
 9870POPC   C4A61926  12.803  12.108   7.353
 9870POPC   C1B61927  12.665  11.935   6.453
 9870POPC   C2B61928  12.671  11.982   6.753
 9870POPC   C3B61929  12.586  11.925   7.053
 9870POPC   C4B61930  12.603  11.918   7.353
 9871POPC   NC361931  16.726  42.327   5.553
 9871POPC   PO461932  16.727  42.378   5.853
 9871POPC   GL161933  16.727  42.326   6.153
 9871POPC   GL261934  16.691  42.258   6.153
 9871POPC   C1A61935  16.723  42.346   6.453
 9871POPC   D2A61936  16.773  42.338   6.753
 9871POPC   C3A61937  16.707  42.305   7.053
 9871POPC   C4A61938  16.750  42.304   7.353
 9871POPC   C1B61939  16.599  42.165   6.453
 9871POPC   C2B61940  16.573  42.114   6.753
 9871POPC   C3B61941  16.530  42.199   7.053
 9871POPC   C4B61942  16.575  42.158   7.353
 9872POPC   NC361943   0.459  12.869   5.553
 9872POPC   PO461944   0.448  12.847   5.853
 9872POPC   GL161945   0.486  12.868   6.153
 9872POPC   GL261946   0.272  12.861   6.153
 9872POPC   C1A61947   0.454  12.862   6.453
 9872POPC   D2A61948   0.415  12.856   6.753
 9872POPC   C3A61949   0.453  12.888   7.053
 9872POPC   C4A61950   0.419  12.834   7.353
 9872POPC   C1B61951   0.212  12.864   6.453
 9872POPC   C2B61952   0.173  12.822   6.753
 9872POPC   C3B61953   0.224  12.821   7.053
 9872POPC   C4B61954   0.171  12.827   7.353
 9873POPC   NC361955  29.877  38.464   5.553
 9873POPC   PO461956  29.911  38.475   5.853
 9873POPC   GL161957  29.905  38.434   6.153
 9873POPC   GL261958  29.860  38.337   6.153
 9873POPC   C1A61959  29.935  38.430   6.453
 9873POPC   D2A61960  29.938  38.431   6.753
 9873POPC   C3A61961  29.873  38.504   7.053
 9873POPC   C4A61962  29.922  38.438   7.353
 9873POPC   C1B61963  29.785  38.260   6.453
 9873POPC   C2B61964  29.772  38.210   6.753
 9873POPC   C3B61965  29.847  38.264   7.053
 9873POPC   C4B61966  29.833  38.244   7.353
 9874POPC   NC361967  12.897  43.884   5.553
 9874POPC   PO461968  12.894  43.928   5.853
 9874POPC   GL161969  12.884  43.935   6.153
 9874POPC   GL261970  12.917  43.843   6.153
 9874POPC   C1A61971  12.880  43.905   6.453
 9874POPC   D2A61972  12.845  43.935   6.753
 9874POPC   C3A61973  12.863  43.864   7.053
 9874POPC   C4A61974  12.824  43.865   7.353
 9874POPC   C1B61975  13.098  43.738   6.453
 9874POPC   C2B61976  13.050  43.793   6.753
 9874POPC   C3B61977  13.054  43.775   7.053
 9874POPC   C4B61978  13.053  43.720   7.353
 9875POPC   NC361979   6.675   4.362   5.553
 9875POPC   PO461980   6.640   4.273   5.853
 9875POPC   GL161981   6.685   4.324   6.153
 9875POPC   GL261982   6.796   4.368   6.153
 9875POPC   C1A61983   6.622   4.354   6.453
 9875POPC   D2A61984   6.632   4.292   6.753
 9875POPC   C3A61985   6.632   4.307   7.053
 9875POPC   C4A61986   6.611   4.290   7.353
 9875POPC   C1B61987   6.891   4.470   6.453
 9875POPC   C2B61988   6.823   4.449   6.753
 9875POPC   C3B61989   6.879   4.489   7.053
 9875POPC   C4B61990   6.882   4.426   7.353
 9876POPC   NC361991  25.298  25.272   5.553
 9876POPC   PO461992  25.261  25.313   5.853
 9876POPC   GL161993  25.247  25.256   6.153
 9876POPC   GL261994  25.316  25.134   6.153
 9876POPC   C1A61995  25.263  25.296   6.453
 9876POPC   D2A61996  25.295  25.257   6.753
 9876POPC   C3A61997  25.292  25.306   7.053
 9876POPC   C4A61998  25.273  25.292   7.353
 9876POPC   C1B61999  25.368  25.005   6.453
 9876POPC   C2B62000  25.360  25.055   6.753
 9876POPC   C3B62001  25.326  25.054   7.053
 9876POPC   C4B62002  25.337  24.989   7.353
 9877POPC   NC362003  12.047   1.249   5.553
 9877POPC   PO462004  12.084   1.165   5.853
 9877POPC   GL162005  12.107   1.202   6.153
 9877POPC   GL262006  12.163   1.251   6.153
 9877POPC   C1A62007  12.113   1.165   6.453
 9877POPC   D2A62008  12.084   1.241   6.753
 9877POPC   C3A62009  12.045   1.262   7.053
 9877POPC   C4A62010  12.093   1.263   7.353
 9877POPC   C1B62011  12.359   1.251   6.453
 9877POPC   C2B62012  12.341   1.258   6.753
 9877POPC   C3B62013  12.360   1.335   7.053
 9877POPC   C4B62014  12.282   1.327   7.353
 9878POPC   NC362015  10.526  10.552   5.553
 9878POPC   PO462016  10.566  10.557   5.853
 9878POPC   GL162017  10.491  10.538   6.153
 9878POPC   GL262018  10.632  10.630   6.153
 9878POPC   C1A62019  10.484  10.494   6.453
 9878POPC   D2A62020  10.548  10.518   6.753
 9878POPC   C3A62021  10.567  10.491   7.053
 9878POPC   C4A62022  10.546  10.529   7.353
 9878POPC   C1B62023  10.736  10.683   6.453
 9878POPC   C2B62024  10.751  10.690   6.753
 9878POPC   C3B62025  10.774  10.696   7.053
 9878POPC   C4B62026  10.691  10.632   7.353
 9879POPC   NC362027  34.607   8.171   5.553
 9879POPC   PO462028  34.553   8.150   5.853
 9879POPC   GL162029  34.593   8.246   6.153
 9879POPC   GL262030  34.570   8.072   6.153
 9879POPC   C1A62031  34.528   8.174   6.453
 9879POPC   D2A62032  34.558   8.199   6.753
 9879POPC   C3A62033  34.599   8.172   7.053
 9879POPC   C4A62034  34.577   8.155   7.353
 9879POPC   C1B62035  34.614   7.913   6.453
 9879POPC   C2B62036  34.632   7.937   6.753
 9879POPC   C3B62037  34.639   7.993   7.053
 9879POPC   C4B62038  34.691   7.965   7.353
 9880POPC   NC362039  22.916   0.450   5.553
 9880POPC   PO462040  22.981   0.471   5.853
 9880POPC   GL162041  22.904   0.407   6.153
 9880POPC   GL262042  22.853   0.316   6.153
 9880POPC   C1A62043  22.931   0.422   6.453
 9880POPC   D2A62044  22.904   0.481   6.753
 9880POPC   C3A62045  22.914   0.467   7.053
 9880POPC   C4A62046  22.980   0.443   7.353
 9880POPC   C1B62047  22.757   0.285   6.453
 9880POPC   C2B62048  22.796   0.265   6.753
 9880POPC   C3B62049  22.745   0.306   7.053
 9880POPC   C4B62050  22.787   0.276   7.353
 9881POPC   NC362051  32.231  17.532   5.553
 9881POPC   PO462052  32.243  17.545   5.853
 9881POPC   GL162053  32.283  17.518   6.153
 9881POPC   GL262054  32.361  17.356   6.153
 9881POPC   C1A62055  32.212  17.554   6.453
 9881POPC   D2A62056  32.274  17.537   6.753
 9881POPC   C3A62057  32.235  17.554   7.053
 9881POPC   C4A62058  32.250  17.509   7.353
 9881POPC   C1B62059  32.351  17.293   6.453
 9881POPC   C2B62060  32.373  17.302   6.753
 9881POPC   C3B62061  32.393  17.330   7.053
 9881POPC   C4B62062  32.393  17.293   7.353
 9882POPC   NC362063  40.748   8.958   5.553
 9882POPC   PO462064  40.806   8.981   5.853
 9882POPC   GL162065  40.753   8.930   6.153
 9882POPC   GL262066  40.868   9.043   6.153
 9882POPC   C1A62067  40.816   8.989   6.453
 9882POPC   D2A62068  40.761   8.967   6.753
 9882POPC   C3A62069  40.750   8.927   7.053
 9882POPC   C4A62070  40.758   8.971   7.353
 9882POPC   C1B62071  40.908   9.165   6.453
 9882POPC   C2B62072  40.898   9.138   6.753
 9882POPC   C3B62073  40.963   9.185   7.053
 9882POPC   C4B62074  40.944   9.212   7.353
 9883POPC   NC362075  44.642   2.750   5.553
 9883POPC   PO462076  44.663   2.768   5.853
 9883POPC   GL162077  44.641   2.766   6.153
 9883POPC   GL262078  44.566   2.660   6.153
 9883POPC   C1A62079  44.650   2.739   6.453
 9883POPC   D2A62080  44.637   2.789   6.753
 9883POPC   C3A62081  44.676   2.801   7.053
 9883POPC   C4A62082  44.620   2.730   7.353
 9883POPC   C1B62083  44.423   2.654   6.453
 9883POPC   C2B62084  44.451   2.624   6.753
 9883POPC   C3B62085  44.461   2.639   7.053
 9883POPC   C4B62086  44.433   2.594   7.353
 9884POPC   NC362087  34.569  35.322   5.553
 9884POPC   PO462088  34.529  35.387   5.853
 9884POPC   GL162089  34.574  35.308   6.153
 9884POPC   GL262090  34.684  35.370   6.153
 9884POPC   C1A62091  34.560  35.352   6.453
 9884POPC   D2A62092  34.582  35.354   6.753
 9884POPC   C3A62093  34.606  35.365   7.053
 9884POPC   C4A62094  34.554  35.370   7.353
 9884POPC   C1B62095  34.866  35.302   6.453
 9884POPC   C2B62096  34.799  35.366   6.753
 9884POPC   C3B62097  34.819  35.300   7.053
 9884POPC   C4B62098  34.859  35.299   7.353
 9885POPC   NC362099  18.331   3.492   5.553
 9885POPC   PO462100  18.321   3.588   5.853
 9885POPC   GL162101  18.236   3.525   6.153
 9885POPC   GL262102  18.430   3.504   6.153
 9885POPC   C1A62103  18.315   3.515   6.453
 9885POPC   D2A62104  18.316   3.550   6.753
 9885POPC   C3A62105  18.310   3.510   7.053
 9885POPC   C4A62106  18.322   3.537   7.353
 9885POPC   C1B62107  18.542   3.475   6.453
 9885POPC   C2B62108  18.488   3.424   6.753
 9885POPC   C3B62109  18.505   3.466   7.053
 9885POPC   C4B62110  18.546   3.423   7.353
 9886POPC   NC362111  12.826  18.277   5.553
 9886POPC   PO462112  12.833  18.256   5.853
 9886POPC   GL162113  12.815  18.308   6.153
 9886POPC   GL262114  12.758  18.186   6.153
 9886POPC   C1A62115  12.836  18.246   6.453
 9886POPC   D2A62116  12.824  18.290   6.753
 9886POPC   C3A62117  12.899  18.306   7.053
 9886POPC   C4A62118  12.897  18.258   7.353
 9886POPC   C1B62119  12.703  18.162   6.453
 9886POPC   C2B62120  12.646  18.078   6.753
 9886POPC   C3B62121  12.624  18.132   7.053
 9886POPC   C4B62122  12.715  18.135   7.353
 9887POPC   NC362123  34.538  29.914   5.553
 9887POPC   PO462124  34.552  29.939   5.853
 9887POPC   GL162125  34.624  29.905   6.153
 9887POPC   GL262126  34.520  29.775   6.153
 9887POPC   C1A62127  34.554  29.903   6.453
 9887POPC   D2A62128  34.606  29.912   6.753
 9887POPC   C3A62129  34.547  29.962   7.053
 9887POPC   C4A62130  34.586  29.893   7.353
 9887POPC   C1B62131  34.472  29.684   6.453
 9887POPC   C2B62132  34.417  29.707   6.753
 9887POPC   C3B62133  34.412  29.718   7.053
 9887POPC   C4B62134  34.449  29.715   7.353
 9888POPC   NC362135  25.286  22.901   5.553
 9888POPC   PO462136  25.245  22.966   5.853
 9888POPC   GL162137  25.288  22.969   6.153
 9888POPC   GL262138  25.244  23.100   6.153
 9888POPC   C1A62139  25.281  22.971   6.453
 9888POPC   D2A62140  25.229  22.922   6.753
 9888POPC   C3A62141  25.270  22.897   7.053
 9888POPC   C4A62142  25.223  22.934   7.353
 9888POPC   C1B62143  25.259  23.164   6.453
 9888POPC   C2B62144  25.226  23.147   6.753
 9888POPC   C3B62145  25.233  23.186   7.053
 9888POPC   C4B62146  25.270  23.178   7.353
 9889POPC   NC362147   9.711  15.205   5.553
 9889POPC   PO462148   9.723  15.163   5.853
 9889POPC   GL162149   9.744  15.137   6.153
 9889POPC   GL262150   9.917  15.223   6.153
 9889POPC   C1A62151   9.741  15.181   6.453
 9889POPC   D2A62152   9.768  15.130   6.753
 9889POPC   C3A62153   9.729  15.217   7.053
 9889POPC   C4A62154   9.724  15.211   7.353
 9889POPC   C1B62155  10.007  15.274   6.453
 9889POPC   C2B62156   9.971  15.264   6.753
 9889POPC   C3B62157   9.947  15.223   7.053
 9889POPC   C4B62158   9.950  15.207   7.353
 9890POPC   NC362159  23.666   2.805   5.553
 9890POPC   PO462160  23.752   2.778   5.853
 9890POPC   GL162161  23.727   2.742   6.153
 9890POPC   GL262162  23.812   2.739   6.153
 9890POPC   C1A62163  23.677   2.806   6.453
 9890POPC   D2A62164  23.744   2.769   6.753
 9890POPC   C3A62165  23.712   2.740   7.053
 9890POPC   C4A62166  23.685   2.742   7.353
 9890POPC   C1B62167  23.948   2.583   6.453
 9890POPC   C2B62168  23.940   2.648   6.753
 9890POPC   C3B62169  23.930   2.630   7.053
 9890POPC   C4B62170  23.894   2.578   7.353
 9891POPC   NC362171  15.165   2.756   5.553
 9891POPC   PO462172  15.193   2.742   5.853
 9891POPC   GL162173  15.188   2.764   6.153
 9891POPC   GL262174  15.282   2.651   6.153
 9891POPC   C1A62175  15.167   2.747   6.453
 9891POPC   D2A62176  15.223   2.803   6.753
 9891POPC   C3A62177  15.194   2.754   7.053
 9891POPC   C4A62178  15.229   2.796   7.353
 9891POPC   C1B62179  15.333   2.581   6.453
 9891POPC   C2B62180  15.384   2.652   6.753
 9891POPC   C3B62181  15.415   2.620   7.053
 9891POPC   C4B62182  15.399   2.600   7.353
 9892POPC   NC362183  22.145  27.569   5.553
 9892POPC   PO462184  22.139  27.603   5.853
 9892POPC   GL162185  22.159  27.634   6.153
 9892POPC   GL262186  22.290  27.533   6.153
 9892POPC   C1A62187  22.115  27.603   6.453
 9892POPC   D2A62188  22.140  27.574   6.753
 9892POPC   C3A62189  22.151  27.603   7.053
 9892POPC   C4A62190  22.149  27.601   7.353
 9892POPC   C1B62191  22.368  27.405   6.453
 9892POPC   C2B62192  22.340  27.443   6.753
 9892POPC   C3B62193  22.373  27.411   7.053
 9892POPC   C4B62194  22.337  27.420   7.353
 9893POPC   NC362195  33.061  24.529   5.553
 9893POPC   PO462196  33.055  24.472   5.853
 9893POPC   GL162197  33.065  24.506   6.153
 9893POPC   GL262198  33.118  24.506   6.153
 9893POPC   C1A62199  32.999  24.476   6.453
 9893POPC   D2A62200  33.066  24.510   6.753
 9893POPC   C3A62201  33.029  24.453   7.053
 9893POPC   C4A62202  33.020  24.443   7.353
 9893POPC   C1B62203  33.267  24.463   6.453
 9893POPC   C2B62204  33.282  24.441   6.753
 9893POPC   C3B62205  33.286  24.493   7.053
 9893POPC   C4B62206  33.254  24.511   7.353
 9894POPC   NC362207  26.089  30.668   5.553
 9894POPC   PO462208  26.039  30.721   5.853
 9894POPC   GL162209  26.088  30.732   6.153
 9894POPC   GL262210  26.092  30.572   6.153
 9894POPC   C1A62211  25.992  30.656   6.453
 9894POPC   D2A62212  26.005  30.701   6.753
 9894POPC   C3A62213  26.003  30.681   7.053
 9894POPC   C4A62214  26.051  30.724   7.353
 9894POPC   C1B62215  26.124  30.510   6.453
 9894POPC   C2B62216  26.162  30.445   6.753
 9894POPC   C3B62217  26.114  30.475   7.053
 9894POPC   C4B62218  26.174  30.504   7.353
 9895POPC   NC362219  34.543  34.607   5.553
 9895POPC   PO462220  34.597  34.623   5.853
 9895POPC   GL162221  34.603  34.569   6.153
 9895POPC   GL262222  34.648  34.625   6.153
 9895POPC   C1A62223  34.624  34.553   6.453
 9895POPC   D2A62224  34.543  34.548   6.753
 9895POPC   C3A62225  34.547  34.534   7.053
 9895POPC   C4A62226  34.588  34.531   7.353
 9895POPC   C1B62227  34.791  34.763   6.453
 9895POPC   C2B62228  34.726  34.778   6.753
 9895POPC   C3B62229  34.764  34.780   7.053
 9895POPC   C4B62230  34.791  34.800   7.353
 9896POPC   NC362231  20.594  20.605   5.553
 9896POPC   PO462232  20.581  20.565   5.853
 9896POPC   GL162233  20.572  20.642   6.153
 9896POPC   GL262234  20.606  20.523   6.153
 9896POPC   C1A62235  20.598  20.623   6.453
 9896POPC   D2A62236  20.642  20.563   6.753
 9896POPC   C3A62237  20.569  20.596   7.053
 9896POPC   C4A62238  20.603  20.652   7.353
 9896POPC   C1B62239  20.556  20.396   6.453
 9896POPC   C2B62240  20.533  20.359   6.753
 9896POPC   C3B62241  20.523  20.342   7.053
 9896POPC   C4B62242  20.515  20.362   7.353
 9897POPC   NC362243  31.443  19.868   5.553
 9897POPC   PO462244  31.434  19.842   5.853
 9897POPC   GL162245  31.494  19.867   6.153
 9897POPC   GL262246  31.605  19.780   6.153
 9897POPC   C1A62247  31.467  19.800   6.453
 9897POPC   D2A62248  31.424  19.836   6.753
 9897POPC   C3A62249  31.428  19.878   7.053
 9897POPC   C4A62250  31.495  19.884   7.353
 9897POPC   C1B62251  31.673  19.703   6.453
 9897POPC   C2B62252  31.702  19.659   6.753
 9897POPC   C3B62253  31.658  19.694   7.053
 9897POPC   C4B62254  31.658  19.726   7.353
 9898POPC   NC362255  24.443  38.457   5.553
 9898POPC   PO462256  24.499  38.415   5.853
 9898POPC   GL162257  24.455  38.490   6.153
 9898POPC   GL262258  24.488  38.358   6.153
 9898POPC   C1A62259  24.521  38.426   6.453
 9898POPC   D2A62260  24.532  38.461   6.753
 9898POPC   C3A62261  24.491  38.503   7.053
 9898POPC   C4A62262  24.535  38.454   7.353
 9898POPC   C1B62263  24.457  38.215   6.453
 9898POPC   C2B62264  24.411  38.235   6.753
 9898POPC   C3B62265  24.491  38.217   7.053
 9898POPC   C4B62266  24.434  38.203   7.353
 9899POPC   NC362267   5.883  17.541   5.553
 9899POPC   PO462268   5.856  17.508   5.853
 9899POPC   GL162269   5.897  17.483   6.153
 9899POPC   GL262270   5.889  17.385   6.153
 9899POPC   C1A62271   5.887  17.498   6.453
 9899POPC   D2A62272   5.870  17.491   6.753
 9899POPC   C3A62273   5.894  17.459   7.053
 9899POPC   C4A62274   5.821  17.529   7.353
 9899POPC   C1B62275   5.929  17.307   6.453
 9899POPC   C2B62276   5.917  17.296   6.753
 9899POPC   C3B62277   5.911  17.232   7.053
 9899POPC   C4B62278   5.955  17.322   7.353
 9900POPC   NC362279  12.890  19.848   5.553
 9900POPC   PO462280  12.851  19.859   5.853
 9900POPC   GL162281  12.880  19.816   6.153
 9900POPC   GL262282  12.939  19.815   6.153
 9900POPC   C1A62283  12.855  19.847   6.453
 9900POPC   D2A62284  12.874  19.799   6.753
 9900POPC   C3A62285  12.860  19.849   7.053
 9900POPC   C4A62286  12.804  19.788   7.353
 9900POPC   C1B62287  13.099  19.897   6.453
 9900POPC   C2B62288  13.086  19.918   6.753
 9900POPC   C3B62289  13.105  19.847   7.053
 9900POPC   C4B62290  13.123  19.901   7.353
 9901POPC   NC362291  37.647   2.801   5.553
 9901POPC   PO462292  37.642   2.788   5.853
 9901POPC   GL162293  37.697   2.762   6.153
 9901POPC   GL262294  37.517   2.723   6.153
 9901POPC   C1A62295  37.629   2.722   6.453
 9901POPC   D2A62296  37.675   2.774   6.753
 9901POPC   C3A62297  37.721   2.798   7.053
 9901POPC   C4A62298  37.632   2.806   7.353
 9901POPC   C1B62299  37.456   2.634   6.453
 9901POPC   C2B62300  37.443   2.669   6.753
 9901POPC   C3B62301  37.426   2.650   7.053
 9901POPC   C4B62302  37.414   2.719   7.353
 9902POPC   NC362303   7.383   0.479   5.553
 9902POPC   PO462304   7.449   0.394   5.853
 9902POPC   GL162305   7.456   0.443   6.153
 9902POPC   GL262306   7.508   0.355   6.153
 9902POPC   C1A62307   7.453   0.464   6.453
 9902POPC   D2A62308   7.420   0.446   6.753
 9902POPC   C3A62309   7.448   0.458   7.053
 9902POPC   C4A62310   7.417   0.408   7.353
 9902POPC   C1B62311   7.683   0.357   6.453
 9902POPC   C2B62312   7.666   0.351   6.753
 9902POPC   C3B62313   7.658   0.373   7.053
 9902POPC   C4B62314   7.680   0.316   7.353
 9903POPC   NC362315  15.227   7.422   5.553
 9903POPC   PO462316  15.192   7.452   5.853
 9903POPC   GL162317  15.223   7.461   6.153
 9903POPC   GL262318  15.133   7.524   6.153
 9903POPC   C1A62319  15.203   7.432   6.453
 9903POPC   D2A62320  15.227   7.383   6.753
 9903POPC   C3A62321  15.144   7.459   7.053
 9903POPC   C4A62322  15.190   7.372   7.353
 9903POPC   C1B62323  15.066   7.624   6.453
 9903POPC   C2B62324  15.052   7.630   6.753
 9903POPC   C3B62325  15.074   7.660   7.053
 9903POPC   C4B62326  15.097   7.628   7.353
 9904POPC   NC362327  12.084  42.328   5.553
 9904POPC   PO462328  12.041  42.368   5.853
 9904POPC   GL162329  12.062  42.314   6.153
 9904POPC   GL262330  12.049  42.169   6.153
 9904POPC   C1A62331  12.043  42.318   6.453
 9904POPC   D2A62332  12.031  42.376   6.753
 9904POPC   C3A62333  12.059  42.290   7.053
 9904POPC   C4A62334  12.084  42.354   7.353
 9904POPC   C1B62335  12.087  42.040   6.453
 9904POPC   C2B62336  12.104  42.123   6.753
 9904POPC   C3B62337  12.133  42.117   7.053
 9904POPC   C4B62338  12.135  42.118   7.353
 9905POPC   NC362339  32.226  33.760   5.553
 9905POPC   PO462340  32.210  33.760   5.853
 9905POPC   GL162341  32.295  33.808   6.153
 9905POPC   GL262342  32.197  33.704   6.153
 9905POPC   C1A62343  32.248  33.785   6.453
 9905POPC   D2A62344  32.287  33.822   6.753
 9905POPC   C3A62345  32.222  33.821   7.053
 9905POPC   C4A62346  32.214  33.816   7.353
 9905POPC   C1B62347  32.032  33.636   6.453
 9905POPC   C2B62348  32.086  33.574   6.753
 9905POPC   C3B62349  32.121  33.656   7.053
 9905POPC   C4B62350  32.082  33.623   7.353
 9906POPC   NC362351  40.043  19.089   5.553
 9906POPC   PO462352  40.021  19.018   5.853
 9906POPC   GL162353  40.011  19.090   6.153
 9906POPC   GL262354  40.108  19.100   6.153
 9906POPC   C1A62355  40.004  19.032   6.453
 9906POPC   D2A62356  39.975  19.066   6.753
 9906POPC   C3A62357  40.018  19.079   7.053
 9906POPC   C4A62358  39.973  19.084   7.353
 9906POPC   C1B62359  40.260  19.137   6.453
 9906POPC   C2B62360  40.287  19.153   6.753
 9906POPC   C3B62361  40.199  19.157   7.053
 9906POPC   C4B62362  40.271  19.119   7.353
 9907POPC   NC362363  43.876  42.328   5.553
 9907POPC   PO462364  43.899  42.355   5.853
 9907POPC   GL162365  43.876  42.329   6.153
 9907POPC   GL262366  44.048  42.243   6.153
 9907POPC   C1A62367  43.883  42.361   6.453
 9907POPC   D2A62368  43.860  42.288   6.753
 9907POPC   C3A62369  43.902  42.325   7.053
 9907POPC   C4A62370  43.922  42.318   7.353
 9907POPC   C1B62371  44.100  42.213   6.453
 9907POPC   C2B62372  44.119  42.239   6.753
 9907POPC   C3B62373  44.153  42.294   7.053
 9907POPC   C4B62374  44.088  42.220   7.353
 9908POPC   NC362375  33.000  37.693   5.553
 9908POPC   PO462376  33.001  37.698   5.853
 9908POPC   GL162377  33.068  37.691   6.153
 9908POPC   GL262378  33.148  37.659   6.153
 9908POPC   C1A62379  33.040  37.723   6.453
 9908POPC   D2A62380  33.038  37.726   6.753
 9908POPC   C3A62381  33.023  37.649   7.053
 9908POPC   C4A62382  33.059  37.711   7.353
 9908POPC   C1B62383  33.318  37.755   6.453
 9908POPC   C2B62384  33.275  37.717   6.753
 9908POPC   C3B62385  33.282  37.768   7.053
 9908POPC   C4B62386  33.268  37.703   7.353
 9909POPC   NC362387  41.578   2.733   5.553
 9909POPC   PO462388  41.551   2.767   5.853
 9909POPC   GL162389  41.608   2.737   6.153
 9909POPC   GL262390  41.715   2.794   6.153
 9909POPC   C1A62391  41.518   2.813   6.453
 9909POPC   D2A62392  41.521   2.758   6.753
 9909POPC   C3A62393  41.557   2.798   7.053
 9909POPC   C4A62394  41.514   2.815   7.353
 9909POPC   C1B62395  41.798   2.762   6.453
 9909POPC   C2B62396  41.858   2.743   6.753
 9909POPC   C3B62397  41.826   2.780   7.053
 9909POPC   C4B62398  41.812   2.795   7.353
 9910POPC   NC362399   3.512  28.336   5.553
 9910POPC   PO462400   3.559  28.329   5.853
 9910POPC   GL162401   3.503  28.385   6.153
 9910POPC   GL262402   3.634  28.387   6.153
 9910POPC   C1A62403   3.498  28.382   6.453
 9910POPC   D2A62404   3.552  28.335   6.753
 9910POPC   C3A62405   3.540  28.380   7.053
 9910POPC   C4A62406   3.580  28.355   7.353
 9910POPC   C1B62407   3.748  28.341   6.453
 9910POPC   C2B62408   3.777  28.316   6.753
 9910POPC   C3B62409   3.789  28.320   7.053
 9910POPC   C4B62410   3.747  28.351   7.353
 9911POPC   NC362411  23.707  11.347   5.553
 9911POPC   PO462412  23.664  11.338   5.853
 9911POPC   GL162413  23.675  11.334   6.153
 9911POPC   GL262414  23.602  11.347   6.153
 9911POPC   C1A62415  23.758  11.251   6.453
 9911POPC   D2A62416  23.667  11.304   6.753
 9911POPC   C3A62417  23.722  11.304   7.053
 9911POPC   C4A62418  23.721  11.339   7.353
 9911POPC   C1B62419  23.528  11.457   6.453
 9911POPC   C2B62420  23.552  11.450   6.753
 9911POPC   C3B62421  23.482  11.426   7.053
 9911POPC   C4B62422  23.468  11.494   7.353
 9912POPC   NC362423  11.300   5.115   5.553
 9912POPC   PO462424  11.332   5.068   5.853
 9912POPC   GL162425  11.308   5.098   6.153
 9912POPC   GL262426  11.223   4.986   6.153
 9912POPC   C1A62427  11.269   5.049   6.453
 9912POPC   D2A62428  11.251   5.129   6.753
 9912POPC   C3A62429  11.259   5.093   7.053
 9912POPC   C4A62430  11.280   5.070   7.353
 9912POPC   C1B62431  11.220   4.895   6.453
 9912POPC   C2B62432  11.277   4.846   6.753
 9912POPC   C3B62433  11.222   4.808   7.053
 9912POPC   C4B62434  11.211   4.901   7.353
 9913POPC   NC362435  19.806  12.088   5.553
 9913POPC   PO462436  19.857  12.033   5.853
 9913POPC   GL162437  19.819  12.064   6.153
 9913POPC   GL262438  19.714  12.119   6.153
 9913POPC   C1A62439  19.828  12.045   6.453
 9913POPC   D2A62440  19.793  12.059   6.753
 9913POPC   C3A62441  19.797  12.059   7.053
 9913POPC   C4A62442  19.787  12.068   7.353
 9913POPC   C1B62443  19.574  12.097   6.453
 9913POPC   C2B62444  19.607  12.121   6.753
 9913POPC   C3B62445  19.615  12.071   7.053
 9913POPC   C4B62446  19.562  12.077   7.353
 9914POPC   NC362447  19.086  37.642   5.553
 9914POPC   PO462448  19.065  37.728   5.853
 9914POPC   GL162449  19.065  37.656   6.153
 9914POPC   GL262450  19.156  37.647   6.153
 9914POPC   C1A62451  19.065  37.667   6.453
 9914POPC   D2A62452  19.010  37.650   6.753
 9914POPC   C3A62453  19.101  37.648   7.053
 9914POPC   C4A62454  19.069  37.678   7.353
 9914POPC   C1B62455  19.297  37.532   6.453
 9914POPC   C2B62456  19.220  37.512   6.753
 9914POPC   C3B62457  19.257  37.534   7.053
 9914POPC   C4B62458  19.237  37.589   7.353
 9915POPC   NC362459  25.252  11.323   5.553
 9915POPC   PO462460  25.227  11.263   5.853
 9915POPC   GL162461  25.294  11.287   6.153
 9915POPC   GL262462  25.149  11.348   6.153
 9915POPC   C1A62463  25.259  11.336   6.453
 9915POPC   D2A62464  25.282  11.284   6.753
 9915POPC   C3A62465  25.292  11.346   7.053
 9915POPC   C4A62466  25.246  11.257   7.353
 9915POPC   C1B62467  25.098  11.508   6.453
 9915POPC   C2B62468  25.049  11.432   6.753
 9915POPC   C3B62469  25.092  11.451   7.053
 9915POPC   C4B62470  25.086  11.457   7.353
 9916POPC   NC362471  40.832  21.354   5.553
 9916POPC   PO462472  40.823  21.397   5.853
 9916POPC   GL162473  40.775  21.337   6.153
 9916POPC   GL262474  40.646  21.413   6.153
 9916POPC   C1A62475  40.804  21.337   6.453
 9916POPC   D2A62476  40.752  21.357   6.753
 9916POPC   C3A62477  40.795  21.422   7.053
 9916POPC   C4A62478  40.751  21.392   7.353
 9916POPC   C1B62479  40.517  21.361   6.453
 9916POPC   C2B62480  40.494  21.330   6.753
 9916POPC   C3B62481  40.501  21.411   7.053
 9916POPC   C4B62482  40.546  21.381   7.353
 9917POPC   NC362483  19.075  42.347   5.553
 9917POPC   PO462484  19.096  42.367   5.853
 9917POPC   GL162485  19.030  42.378   6.153
 9917POPC   GL262486  19.126  42.281   6.153
 9917POPC   C1A62487  19.029  42.296   6.453
 9917POPC   D2A62488  19.028  42.374   6.753
 9917POPC   C3A62489  19.009  42.331   7.053
 9917POPC   C4A62490  19.070  42.366   7.353
 9917POPC   C1B62491  19.215  42.228   6.453
 9917POPC   C2B62492  19.243  42.201   6.753
 9917POPC   C3B62493  19.303  42.155   7.053
 9917POPC   C4B62494  19.212  42.169   7.353
 9918POPC   NC362495  11.304  10.516   5.553
 9918POPC   PO462496  11.281  10.563   5.853
 9918POPC   GL162497  11.332  10.502   6.153
 9918POPC   GL262498  11.392  10.443   6.153
 9918POPC   C1A62499  11.348  10.555   6.453
 9918POPC   D2A62500  11.301  10.529   6.753
 9918POPC   C3A62501  11.250  10.564   7.053
 9918POPC   C4A62502  11.310  10.549   7.353
 9918POPC   C1B62503  11.435  10.360   6.453
 9918POPC   C2B62504  11.441  10.322   6.753
 9918POPC   C3B62505  11.417  10.350   7.053
 9918POPC   C4B62506  11.464  10.345   7.353
 9919POPC   NC362507  29.142  36.893   5.553
 9919POPC   PO462508  29.192  36.875   5.853
 9919POPC   GL162509  29.119  36.941   6.153
 9919POPC   GL262510  29.049  36.793   6.153
 9919POPC   C1A62511  29.133  36.869   6.453
 9919POPC   D2A62512  29.153  36.899   6.753
 9919POPC   C3A62513  29.130  36.930   7.053
 9919POPC   C4A62514  29.102  36.925   7.353
 9919POPC   C1B62515  29.015  36.688   6.453
 9919POPC   C2B62516  28.965  36.668   6.753
 9919POPC   C3B62517  28.997  36.723   7.053
 9919POPC   C4B62518  28.967  36.667   7.353
 9920POPC   NC362519   8.942  23.701   5.553
 9920POPC   PO462520   8.926  23.699   5.853
 9920POPC   GL162521   8.938  23.762   6.153
 9920POPC   GL262522   9.128  23.678   6.153
 9920POPC   C1A62523   8.952  23.688   6.453
 9920POPC   D2A62524   8.948  23.712   6.753
 9920POPC   C3A62525   9.004  23.677   7.053
 9920POPC   C4A62526   8.955  23.672   7.353
 9920POPC   C1B62527   9.232  23.687   6.453
 9920POPC   C2B62528   9.263  23.743   6.753
 9920POPC   C3B62529   9.200  23.674   7.053
 9920POPC   C4B62530   9.193  23.675   7.353
 9921POPC   NC362531  23.699  25.239   5.553
 9921POPC   PO462532  23.707  25.277   5.853
 9921POPC   GL162533  23.763  25.256   6.153
 9921POPC   GL262534  23.676  25.382   6.153
 9921POPC   C1A62535  23.761  25.283   6.453
 9921POPC   D2A62536  23.682  25.229   6.753
 9921POPC   C3A62537  23.702  25.244   7.053
 9921POPC   C4A62538  23.686  25.307   7.353
 9921POPC   C1B62539  23.671  25.517   6.453
 9921POPC   C2B62540  23.690  25.499   6.753
 9921POPC   C3B62541  23.701  25.499   7.053
 9921POPC   C4B62542  23.678  25.491   7.353
 9922POPC   NC362543  28.358  40.736   5.553
 9922POPC   PO462544  28.325  40.742   5.853
 9922POPC   GL162545  28.409  40.818   6.153
 9922POPC   GL262546  28.463  40.869   6.153
 9922POPC   C1A62547  28.332  40.761   6.453
 9922POPC   D2A62548  28.383  40.755   6.753
 9922POPC   C3A62549  28.390  40.800   7.053
 9922POPC   C4A62550  28.400  40.789   7.353
 9922POPC   C1B62551  28.529  40.957   6.453
 9922POPC   C2B62552  28.541  40.903   6.753
 9922POPC   C3B62553  28.557  40.977   7.053
 9922POPC   C4B62554  28.588  40.908   7.353
 9923POPC   NC362555   6.681  43.148   5.553
 9923POPC   PO462556   6.599  43.160   5.853
 9923POPC   GL162557   6.644  43.105   6.153
 9923POPC   GL262558   6.772  43.102   6.153
 9923POPC   C1A62559   6.631  43.097   6.453
 9923POPC   D2A62560   6.637  43.122   6.753
 9923POPC   C3A62561   6.639  43.136   7.053
 9923POPC   C4A62562   6.680  43.157   7.353
 9923POPC   C1B62563   6.835  43.062   6.453
 9923POPC   C2B62564   6.849  42.971   6.753
 9923POPC   C3B62565   6.841  42.999   7.053
 9923POPC   C4B62566   6.887  43.013   7.353
 9924POPC   NC362567   1.200   9.782   5.553
 9924POPC   PO462568   1.227   9.759   5.853
 9924POPC   GL162569   1.189   9.746   6.153
 9924POPC   GL262570   1.195   9.575   6.153
 9924POPC   C1A62571   1.242   9.711   6.453
 9924POPC   D2A62572   1.194   9.700   6.753
 9924POPC   C3A62573   1.174   9.798   7.053
 9924POPC   C4A62574   1.228   9.770   7.353
 9924POPC   C1B62575   1.146   9.517   6.453
 9924POPC   C2B62576   1.227   9.539   6.753
 9924POPC   C3B62577   1.133   9.456   7.053
 9924POPC   C4B62578   1.158   9.460   7.353
 9925POPC   NC362579  10.538  26.014   5.553
 9925POPC   PO462580  10.497  26.059   5.853
 9925POPC   GL162581  10.536  26.089   6.153
 9925POPC   GL262582  10.479  25.998   6.153
 9925POPC   C1A62583  10.558  26.011   6.453
 9925POPC   D2A62584  10.554  26.012   6.753
 9925POPC   C3A62585  10.553  26.028   7.053
 9925POPC   C4A62586  10.519  26.088   7.353
 9925POPC   C1B62587  10.378  25.835   6.453
 9925POPC   C2B62588  10.324  25.906   6.753
 9925POPC   C3B62589  10.310  25.838   7.053
 9925POPC   C4B62590  10.285  25.836   7.353
 9926POPC   NC362591  42.370   8.972   5.553
 9926POPC   PO462592  42.350   8.944   5.853
 9926POPC   GL162593  42.356   9.017   6.153
 9926POPC   GL262594  42.241   8.977   6.153
 9926POPC   C1A62595  42.322   8.943   6.453
 9926POPC   D2A62596  42.330   8.981   6.753
 9926POPC   C3A62597  42.311   8.999   7.053
 9926POPC   C4A62598  42.348   9.021   7.353
 9926POPC   C1B62599  42.072   9.005   6.453
 9926POPC   C2B62600  42.076   9.013   6.753
 9926POPC   C3B62601  42.050   8.968   7.053
 9926POPC   C4B62602  42.074   9.006   7.353
 9927POPC   NC362603  33.792  16.700   5.553
 9927POPC   PO462604  33.780  16.702   5.853
 9927POPC   GL162605  33.763  16.708   6.153
 9927POPC   GL262606  33.907  16.772   6.153
 9927POPC   C1A62607  33.813  16.757   6.453
 9927POPC   D2A62608  33.795  16.689   6.753
 9927POPC   C3A62609  33.778  16.733   7.053
 9927POPC   C4A62610  33.834  16.712   7.353
 9927POPC   C1B62611  34.043  16.734   6.453
 9927POPC   C2B62612  34.078  16.762   6.753
 9927POPC   C3B62613  34.038  16.745   7.053
 9927POPC   C4B62614  34.020  16.756   7.353
 9928POPC   NC362615  29.192  29.157   5.553
 9928POPC   PO462616  29.138  29.113   5.853
 9928POPC   GL162617  29.143  29.164   6.153
 9928POPC   GL262618  29.175  28.989   6.153
 9928POPC   C1A62619  29.130  29.190   6.453
 9928POPC   D2A62620  29.119  29.114   6.753
 9928POPC   C3A62621  29.152  29.125   7.053
 9928POPC   C4A62622  29.100  29.107   7.353
 9928POPC   C1B62623  29.167  28.867   6.453
 9928POPC   C2B62624  29.224  28.929   6.753
 9928POPC   C3B62625  29.219  28.863   7.053
 9928POPC   C4B62626  29.163  28.886   7.353
 9929POPC   NC362627  36.103  10.531   5.553
 9929POPC   PO462628  36.085  10.546   5.853
 9929POPC   GL162629  36.151  10.561   6.153
 9929POPC   GL262630  36.141  10.688   6.153
 9929POPC   C1A62631  36.133  10.541   6.453
 9929POPC   D2A62632  36.108  10.491   6.753
 9929POPC   C3A62633  36.119  10.539   7.053
 9929POPC   C4A62634  36.143  10.519   7.353
 9929POPC   C1B62635  36.150  10.789   6.453
 9929POPC   C2B62636  36.163  10.720   6.753
 9929POPC   C3B62637  36.143  10.730   7.053
 9929POPC   C4B62638  36.214  10.789   7.353
 9930POPC   NC362639  38.499  22.179   5.553
 9930POPC   PO462640  38.501  22.164   5.853
 9930POPC   GL162641  38.494  22.125   6.153
 9930POPC   GL262642  38.620  22.185   6.153
 9930POPC   C1A62643  38.420  22.204   6.453
 9930POPC   D2A62644  38.412  22.157   6.753
 9930POPC   C3A62645  38.421  22.148   7.053
 9930POPC   C4A62646  38.467  22.159   7.353
 9930POPC   C1B62647  38.675  22.121   6.453
 9930POPC   C2B62648  38.730  22.130   6.753
 9930POPC   C3B62649  38.740  22.157   7.053
 9930POPC   C4B62650  38.724  22.122   7.353
 9931POPC   NC362651  20.610  24.509   5.553
 9931POPC   PO462652  20.613  24.482   5.853
 9931POPC   GL162653  20.622  24.490   6.153
 9931POPC   GL262654  20.559  24.590   6.153
 9931POPC   C1A62655  20.650  24.506   6.453
 9931POPC   D2A62656  20.613  24.467   6.753
 9931POPC   C3A62657  20.611  24.444   7.053
 9931POPC   C4A62658  20.591  24.514   7.353
 9931POPC   C1B62659  20.547  24.699   6.453
 9931POPC   C2B62660  20.512  24.769   6.753
 9931POPC   C3B62661  20.563  24.743   7.053
 9931POPC   C4B62662  20.504  24.695   7.353
 9932POPC   NC362663   1.211  12.071   5.553
 9932POPC   PO462664   1.244  12.059   5.853
 9932POPC   GL162665   1.220  12.053   6.153
 9932POPC   GL262666   1.372  12.118   6.153
 9932POPC   C1A62667   1.167  12.109   6.453
 9932POPC   D2A62668   1.248  12.049   6.753
 9932POPC   C3A62669   1.231  12.122   7.053
 9932POPC   C4A62670   1.168  12.103   7.353
 9932POPC   C1B62671   1.479  12.123   6.453
 9932POPC   C2B62672   1.412  12.126   6.753
 9932POPC   C3B62673   1.428  12.162   7.053
 9932POPC   C4B62674   1.489  12.086   7.353
 9933POPC   NC362675   8.215  16.699   5.553
 9933POPC   PO462676   8.176  16.733   5.853
 9933POPC   GL162677   8.175  16.738   6.153
 9933POPC   GL262678   8.269  16.592   6.153
 9933POPC   C1A62679   8.223  16.774   6.453
 9933POPC   D2A62680   8.199  16.761   6.753
 9933POPC   C3A62681   8.233  16.776   7.053
 9933POPC   C4A62682   8.194  16.754   7.353
 9933POPC   C1B62683   8.410  16.509   6.453
 9933POPC   C2B62684   8.411  16.545   6.753
 9933POPC   C3B62685   8.321  16.533   7.053
 9933POPC   C4B62686   8.348  16.498   7.353
 9934POPC   NC362687  29.958  25.252   5.553
 9934POPC   PO462688  29.933  25.272   5.853
 9934POPC   GL162689  29.934  25.257   6.153
 9934POPC   GL262690  29.921  25.176   6.153
 9934POPC   C1A62691  29.931  25.248   6.453
 9934POPC   D2A62692  29.967  25.296   6.753
 9934POPC   C3A62693  29.923  25.279   7.053
 9934POPC   C4A62694  29.880  25.245   7.353
 9934POPC   C1B62695  29.884  25.002   6.453
 9934POPC   C2B62696  29.825  24.987   6.753
 9934POPC   C3B62697  29.885  25.033   7.053
 9934POPC   C4B62698  29.837  25.067   7.353
 9935POPC   NC362699   6.689   9.791   5.553
 9935POPC   PO462700   6.676   9.726   5.853
 9935POPC   GL162701   6.678   9.729   6.153
 9935POPC   GL262702   6.620   9.825   6.153
 9935POPC   C1A62703   6.670   9.726   6.453
 9935POPC   D2A62704   6.646   9.708   6.753
 9935POPC   C3A62705   6.664   9.711   7.053
 9935POPC   C4A62706   6.639   9.789   7.353
 9935POPC   C1B62707   6.534   9.979   6.453
 9935POPC   C2B62708   6.499   9.908   6.753
 9935POPC   C3B62709   6.492   9.950   7.053
 9935POPC   C4B62710   6.493   9.930   7.353
 9936POPC   NC362711  14.370   2.771   5.553
 9936POPC   PO462712  14.428   2.749   5.853
 9936POPC   GL162713  14.394   2.775   6.153
 9936POPC   GL262714  14.441   2.855   6.153
 9936POPC   C1A62715  14.376   2.718   6.453
 9936POPC   D2A62716  14.376   2.799   6.753
 9936POPC   C3A62717  14.360   2.782   7.053
 9936POPC   C4A62718  14.403   2.733   7.353
 9936POPC   C1B62719  14.364   2.984   6.453
 9936POPC   C2B62720  14.365   3.015   6.753
 9936POPC   C3B62721  14.372   2.981   7.053
 9936POPC   C4B62722  14.445   2.973   7.353
 9937POPC   NC362723   3.551  17.466   5.553
 9937POPC   PO462724   3.541  17.513   5.853
 9937POPC   GL162725   3.588  17.550   6.153
 9937POPC   GL262726   3.574  17.649   6.153
 9937POPC   C1A62727   3.533  17.516   6.453
 9937POPC   D2A62728   3.546  17.541   6.753
 9937POPC   C3A62729   3.533  17.466   7.053
 9937POPC   C4A62730   3.527  17.536   7.353
 9937POPC   C1B62731   3.550  17.731   6.453
 9937POPC   C2B62732   3.518  17.745   6.753
 9937POPC   C3B62733   3.573  17.799   7.053
 9937POPC   C4B62734   3.613  17.749   7.353
 9938POPC   NC362735  34.557  25.277   5.553
 9938POPC   PO462736  34.580  25.311   5.853
 9938POPC   GL162737  34.586  25.314   6.153
 9938POPC   GL262738  34.537  25.340   6.153
 9938POPC   C1A62739  34.569  25.220   6.453
 9938POPC   D2A62740  34.538  25.268   6.753
 9938POPC   C3A62741  34.563  25.230   7.053
 9938POPC   C4A62742  34.593  25.225   7.353
 9938POPC   C1B62743  34.431  25.537   6.453
 9938POPC   C2B62744  34.460  25.462   6.753
 9938POPC   C3B62745  34.450  25.534   7.053
 9938POPC   C4B62746  34.495  25.495   7.353
 9939POPC   NC362747  40.760   3.574   5.553
 9939POPC   PO462748  40.757   3.499   5.853
 9939POPC   GL162749  40.822   3.505   6.153
 9939POPC   GL262750  40.805   3.451   6.153
 9939POPC   C1A62751  40.811   3.579   6.453
 9939POPC   D2A62752  40.785   3.563   6.753
 9939POPC   C3A62753  40.782   3.589   7.053
 9939POPC   C4A62754  40.804   3.503   7.353
 9939POPC   C1B62755  40.955   3.363   6.453
 9939POPC   C2B62756  40.960   3.323   6.753
 9939POPC   C3B62757  40.893   3.317   7.053
 9939POPC   C4B62758  40.905   3.354   7.353
 9940POPC   NC362759  31.481  26.812   5.553
 9940POPC   PO462760  31.508  26.811   5.853
 9940POPC   GL162761  31.472  26.851   6.153
 9940POPC   GL262762  31.498  26.984   6.153
 9940POPC   C1A62763  31.520  26.851   6.453
 9940POPC   D2A62764  31.514  26.807   6.753
 9940POPC   C3A62765  31.516  26.789   7.053
 9940POPC   C4A62766  31.451  26.814   7.353
 9940POPC   C1B62767  31.571  27.086   6.453
 9940POPC   C2B62768  31.552  27.065   6.753
 9940POPC   C3B62769  31.551  27.025   7.053
 9940POPC   C4B62770  31.503  27.071   7.353
 9941POPC   NC362771  41.586  25.299   5.553
 9941POPC   PO462772  41.602  25.276   5.853
 9941POPC   GL162773  41.553  25.290   6.153
 9941POPC   GL262774  41.460  25.318   6.153
 9941POPC   C1A62775  41.588  25.223   6.453
 9941POPC   D2A62776  41.518  25.314   6.753
 9941POPC   C3A62777  41.511  25.238   7.053
 9941POPC   C4A62778  41.537  25.280   7.353
 9941POPC   C1B62779  41.367  25.403   6.453
 9941POPC   C2B62780  41.307  25.342   6.753
 9941POPC   C3B62781  41.334  25.390   7.053
 9941POPC   C4B62782  41.331  25.426   7.353
 9942POPC   NC362783  38.481  43.874   5.553
 9942POPC   PO462784  38.413  43.925   5.853
 9942POPC   GL162785  38.420  43.934   6.153
 9942POPC   GL262786  38.538  43.741   6.153
 9942POPC   C1A62787  38.408  43.871   6.453
 9942POPC   D2A62788  38.463  43.863   6.753
 9942POPC   C3A62789  38.464  43.862   7.053
 9942POPC   C4A62790  38.449  43.868   7.353
 9942POPC   C1B62791  38.564  43.643   6.453
 9942POPC   C2B62792  38.533  43.662   6.753
 9942POPC   C3B62793  38.557  43.622   7.053
 9942POPC   C4B62794  38.576  43.638   7.353
 9943POPC   NC362795  29.916   5.853   5.553
 9943POPC   PO462796  29.922   5.854   5.853
 9943POPC   GL162797  29.961   5.831   6.153
 9943POPC   GL262798  29.981   5.754   6.153
 9943POPC   C1A62799  29.933   5.883   6.453
 9943POPC   D2A62800  29.957   5.899   6.753
 9943POPC   C3A62801  29.921   5.893   7.053
 9943POPC   C4A62802  29.937   5.831   7.353
 9943POPC   C1B62803  30.150   5.673   6.453
 9943POPC   C2B62804  30.144   5.742   6.753
 9943POPC   C3B62805  30.103   5.710   7.053
 9943POPC   C4B62806  30.133   5.708   7.353
 9944POPC   NC362807  35.325  29.172   5.553
 9944POPC   PO462808  35.355  29.146   5.853
 9944POPC   GL162809  35.392  29.183   6.153
 9944POPC   GL262810  35.468  29.112   6.153
 9944POPC   C1A62811  35.380  29.106   6.453
 9944POPC   D2A62812  35.343  29.116   6.753
 9944POPC   C3A62813  35.388  29.156   7.053
 9944POPC   C4A62814  35.343  29.183   7.353
 9944POPC   C1B62815  35.607  29.105   6.453
 9944POPC   C2B62816  35.602  29.057   6.753
 9944POPC   C3B62817  35.576  29.119   7.053
 9944POPC   C4B62818  35.554  29.068   7.353
 9945POPC   NC362819  15.138  17.470   5.553
 9945POPC   PO462820  15.199  17.502   5.853
 9945POPC   GL162821  15.157  17.463   6.153
 9945POPC   GL262822  15.057  17.537   6.153
 9945POPC   C1A62823  15.217  17.502   6.453
 9945POPC   D2A62824  15.134  17.510   6.753
 9945POPC   C3A62825  15.169  17.522   7.053
 9945POPC   C4A62826  15.225  17.519   7.353
 9945POPC   C1B62827  14.917  17.564   6.453
 9945POPC   C2B62828  14.950  17.527   6.753
 9945POPC   C3B62829  14.925  17.514   7.053
 9945POPC   C4B62830  14.903  17.568   7.353
 9946POPC   NC362831  16.756  25.288   5.553
 9946POPC   PO462832  16.710  25.237   5.853
 9946POPC   GL162833  16.776  25.278   6.153
 9946POPC   GL262834  16.885  25.240   6.153
 9946POPC   C1A62835  16.714  25.274   6.453
 9946POPC   D2A62836  16.705  25.250   6.753
 9946POPC   C3A62837  16.762  25.250   7.053
 9946POPC   C4A62838  16.722  25.299   7.353
 9946POPC   C1B62839  16.988  25.343   6.453
 9946POPC   C2B62840  17.019  25.262   6.753
 9946POPC   C3B62841  16.978  25.272   7.053
 9946POPC   C4B62842  16.964  25.304   7.353
 9947POPC   NC362843  25.243   8.224   5.553
 9947POPC   PO462844  25.273   8.186   5.853
 9947POPC   GL162845  25.238   8.178   6.153
 9947POPC   GL262846  25.207   8.149   6.153
 9947POPC   C1A62847  25.245   8.217   6.453
 9947POPC   D2A62848  25.279   8.193   6.753
 9947POPC   C3A62849  25.291   8.209   7.053
 9947POPC   C4A62850  25.270   8.159   7.353
 9947POPC   C1B62851  25.072   7.990   6.453
 9947POPC   C2B62852  25.104   7.982   6.753
 9947POPC   C3B62853  25.114   7.978   7.053
 9947POPC   C4B62854  25.080   8.056   7.353
 9948POPC   NC362855  11.338  29.097   5.553
 9948POPC   PO462856  11.306  29.118   5.853
 9948POPC   GL162857  11.333  29.177   6.153
 9948POPC   GL262858  11.410  29.261   6.153
 9948POPC   C1A62859  11.266  29.151   6.453
 9948POPC   D2A62860  11.344  29.127   6.753
 9948POPC   C3A62861  11.338  29.145   7.053
 9948POPC   C4A62862  11.302  29.112   7.353
 9948POPC   C1B62863  11.504  29.372   6.453
 9948POPC   C2B62864  11.427  29.357   6.753
 9948POPC   C3B62865  11.471  29.311   7.053
 9948POPC   C4B62866  11.438  29.343   7.353
 9949POPC   NC362867  39.986  36.079   5.553
 9949POPC   PO462868  39.974  36.128   5.853
 9949POPC   GL162869  40.008  36.087   6.153
 9949POPC   GL262870  40.112  36.025   6.153
 9949POPC   C1A62871  39.974  36.150   6.453
 9949POPC   D2A62872  39.961  36.099   6.753
 9949POPC   C3A62873  40.014  36.130   7.053
 9949POPC   C4A62874  40.020  36.177   7.353
 9949POPC   C1B62875  40.147  35.916   6.453
 9949POPC   C2B62876  40.186  35.998   6.753
 9949POPC   C3B62877  40.162  35.925   7.053
 9949POPC   C4B62878  40.166  35.957   7.353
 9950POPC   NC362879  20.601   9.726   5.553
 9950POPC   PO462880  20.564   9.771   5.853
 9950POPC   GL162881  20.609   9.731   6.153
 9950POPC   GL262882  20.620   9.863   6.153
 9950POPC   C1A62883  20.584   9.779   6.453
 9950POPC   D2A62884  20.602   9.699   6.753
 9950POPC   C3A62885  20.654   9.783   7.053
 9950POPC   C4A62886  20.602   9.710   7.353
 9950POPC   C1B62887  20.625   9.967   6.453
 9950POPC   C2B62888  20.628  10.003   6.753
 9950POPC   C3B62889  20.627   9.943   7.053
 9950POPC   C4B62890  20.712   9.965   7.353
 9951POPC   NC362891  43.142  19.032   5.553
 9951POPC   PO462892  43.085  19.103   5.853
 9951POPC   GL162893  43.094  19.061   6.153
 9951POPC   GL262894  43.168  19.140   6.153
 9951POPC   C1A62895  43.155  19.012   6.453
 9951POPC   D2A62896  43.087  19.103   6.753
 9951POPC   C3A62897  43.133  19.061   7.053
 9951POPC   C4A62898  43.062  19.019   7.353
 9951POPC   C1B62899  43.174  19.333   6.453
 9951POPC   C2B62900  43.143  19.309   6.753
 9951POPC   C3B62901  43.136  19.321   7.053
 9951POPC   C4B62902  43.127  19.300   7.353
 9952POPC   NC362903  12.808  15.979   5.553
 9952POPC   PO462904  12.883  15.929   5.853
 9952POPC   GL162905  12.880  15.979   6.153
 9952POPC   GL262906  12.808  15.834   6.153
 9952POPC   C1A62907  12.885  15.963   6.453
 9952POPC   D2A62908  12.811  15.913   6.753
 9952POPC   C3A62909  12.865  15.918   7.053
 9952POPC   C4A62910  12.820  15.980   7.353
 9952POPC   C1B62911  12.775  15.750   6.453
 9952POPC   C2B62912  12.764  15.710   6.753
 9952POPC   C3B62913  12.725  15.722   7.053
 9952POPC   C4B62914  12.729  15.702   7.353
 9953POPC   NC362915   8.965  31.463   5.553
 9953POPC   PO462916   8.936  31.509   5.853
 9953POPC   GL162917   8.938  31.454   6.153
 9953POPC   GL262918   8.848  31.484   6.153
 9953POPC   C1A62919   8.945  31.449   6.453
 9953POPC   D2A62920   8.986  31.441   6.753
 9953POPC   C3A62921   8.942  31.448   7.053
 9953POPC   C4A62922   8.996  31.442   7.353
 9953POPC   C1B62923   8.721  31.561   6.453
 9953POPC   C2B62924   8.737  31.537   6.753
 9953POPC   C3B62925   8.696  31.550   7.053
 9953POPC   C4B62926   8.752  31.483   7.353
 9954POPC   NC362927  37.690  24.487   5.553
 9954POPC   PO462928  37.683  24.477   5.853
 9954POPC   GL162929  37.699  24.539   6.153
 9954POPC   GL262930  37.693  24.410   6.153
 9954POPC   C1A62931  37.707  24.509   6.453
 9954POPC   D2A62932  37.706  24.476   6.753
 9954POPC   C3A62933  37.658  24.468   7.053
 9954POPC   C4A62934  37.635  24.517   7.353
 9954POPC   C1B62935  37.689  24.200   6.453
 9954POPC   C2B62936  37.703  24.198   6.753
 9954POPC   C3B62937  37.663  24.256   7.053
 9954POPC   C4B62938  37.689  24.283   7.353
 9955POPC   NC362939  18.242  35.379   5.553
 9955POPC   PO462940  18.268  35.347   5.853
 9955POPC   GL162941  18.244  35.331   6.153
 9955POPC   GL262942  18.205  35.405   6.153
 9955POPC   C1A62943  18.248  35.348   6.453
 9955POPC   D2A62944  18.276  35.384   6.753
 9955POPC   C3A62945  18.263  35.369   7.053
 9955POPC   C4A62946  18.330  35.350   7.353
 9955POPC   C1B62947  18.033  35.441   6.453
 9955POPC   C2B62948  18.014  35.487   6.753
 9955POPC   C3B62949  18.043  35.429   7.053
 9955POPC   C4B62950  18.083  35.459   7.353
 9956POPC   NC362951  30.653  44.697   5.553
 9956POPC   PO462952  30.740  44.698   5.853
 9956POPC   GL162953  30.729  44.709   6.153
 9956POPC   GL262954  30.814  44.670   6.153
 9956POPC   C1A62955  30.677  44.625   6.453
 9956POPC   D2A62956  30.729  44.624   6.753
 9956POPC   C3A62957  30.654  44.688   7.053
 9956POPC   C4A62958  30.661  44.654   7.353
 9956POPC   C1B62959  30.993  44.595   6.453
 9956POPC   C2B62960  30.920  44.611   6.753
 9956POPC   C3B62961  30.935  44.609   7.053
 9956POPC   C4B62962  30.982  44.592   7.353
 9957POPC   NC362963   2.013  38.476   5.553
 9957POPC   PO462964   2.028  38.504   5.853
 9957POPC   GL162965   1.972  38.497   6.153
 9957POPC   GL262966   2.002  38.352   6.153
 9957POPC   C1A62967   2.009  38.451   6.453
 9957POPC   D2A62968   1.985  38.476   6.753
 9957POPC   C3A62969   1.952  38.490   7.053
 9957POPC   C4A62970   2.031  38.470   7.353
 9957POPC   C1B62971   2.035  38.212   6.453
 9957POPC   C2B62972   2.037  38.252   6.753
 9957POPC   C3B62973   2.004  38.204   7.053
 9957POPC   C4B62974   2.061  38.235   7.353
 9958POPC   NC362975  11.278  40.804   5.553
 9958POPC   PO462976  11.264  40.797   5.853
 9958POPC   GL162977  11.304  40.734   6.153
 9958POPC   GL262978  11.211  40.784   6.153
 9958POPC   C1A62979  11.345  40.774   6.453
 9958POPC   D2A62980  11.303  40.793   6.753
 9958POPC   C3A62981  11.296  40.809   7.053
 9958POPC   C4A62982  11.284  40.827   7.353
 9958POPC   C1B62983  11.017  40.839   6.453
 9958POPC   C2B62984  11.083  40.812   6.753
 9958POPC   C3B62985  11.044  40.807   7.053
 9958POPC   C4B62986  11.042  40.879   7.353
 9959POPC   NC362987  37.644   8.974   5.553
 9959POPC   PO462988  37.702   8.958   5.853
 9959POPC   GL162989  37.676   8.935   6.153
 9959POPC   GL262990  37.737   9.051   6.153
 9959POPC   C1A62991  37.671   8.931   6.453
 9959POPC   D2A62992  37.678   8.981   6.753
 9959POPC   C3A62993  37.719   8.926   7.053
 9959POPC   C4A62994  37.712   8.944   7.353
 9959POPC   C1B62995  37.848   9.187   6.453
 9959POPC   C2B62996  37.803   9.162   6.753
 9959POPC   C3B62997  37.782   9.220   7.053
 9959POPC   C4B62998  37.841   9.210   7.353
 9960POPC   NC362999  29.118  33.051   5.553
 9960POPC   PO463000  29.169  32.983   5.853
 9960POPC   GL163001  29.146  33.073   6.153
 9960POPC   GL263002  29.136  33.100   6.153
 9960POPC   C1A63003  29.148  33.050   6.453
 9960POPC   D2A63004  29.114  33.016   6.753
 9960POPC   C3A63005  29.136  32.981   7.053
 9960POPC   C4A63006  29.141  33.060   7.353
 9960POPC   C1B63007  29.141  33.320   6.453
 9960POPC   C2B63008  29.115  33.262   6.753
 9960POPC   C3B63009  29.169  33.238   7.053
 9960POPC   C4B63010  29.134  33.293   7.353
 9961POPC   NC363011  10.500  30.706   5.553
 9961POPC   PO463012  10.555  30.741   5.853
 9961POPC   GL163013  10.571  30.670   6.153
 9961POPC   GL263014  10.576  30.751   6.153
 9961POPC   C1A63015  10.558  30.746   6.453
 9961POPC   D2A63016  10.515  30.725   6.753
 9961POPC   C3A63017  10.524  30.721   7.053
 9961POPC   C4A63018  10.503  30.682   7.353
 9961POPC   C1B63019  10.722  30.837   6.453
 9961POPC   C2B63020  10.674  30.880   6.753
 9961POPC   C3B63021  10.715  30.859   7.053
 9961POPC   C4B63022  10.651  30.922   7.353
 9962POPC   NC363023   0.407  29.097   5.553
 9962POPC   PO463024   0.478  29.156   5.853
 9962POPC   GL163025   0.456  29.155   6.153
 9962POPC   GL263026   0.559  29.117   6.153
 9962POPC   C1A63027   0.460  29.171   6.453
 9962POPC   D2A63028   0.449  29.107   6.753
 9962POPC   C3A63029   0.394  29.103   7.053
 9962POPC   C4A63030   0.446  29.123   7.353
 9962POPC   C1B63031   0.678  29.109   6.453
 9962POPC   C2B63032   0.647  29.132   6.753
 9962POPC   C3B63033   0.655  29.135   7.053
 9962POPC   C4B63034   0.736  29.114   7.353
 9963POPC   NC363035  20.601  26.024   5.553
 9963POPC   PO463036  20.575  26.020   5.853
 9963POPC   GL163037  20.658  26.050   6.153
 9963POPC   GL263038  20.666  25.908   6.153
 9963POPC   C1A63039  20.642  26.010   6.453
 9963POPC   D2A63040  20.560  26.012   6.753
 9963POPC   C3A63041  20.629  26.035   7.053
 9963POPC   C4A63042  20.569  26.090   7.353
 9963POPC   C1B63043  20.645  25.779   6.453
 9963POPC   C2B63044  20.647  25.773   6.753
 9963POPC   C3B63045  20.660  25.815   7.053
 9963POPC   C4B63046  20.723  25.752   7.353
 9964POPC   NC363047  41.540   7.449   5.553
 9964POPC   PO463048  41.522   7.420   5.853
 9964POPC   GL163049  41.554   7.420   6.153
 9964POPC   GL263050  41.694   7.552   6.153
 9964POPC   C1A63051  41.550   7.457   6.453
 9964POPC   D2A63052  41.544   7.442   6.753
 9964POPC   C3A63053  41.568   7.470   7.053
 9964POPC   C4A63054  41.525   7.443   7.353
 9964POPC   C1B63055  41.734   7.555   6.453
 9964POPC   C2B63056  41.765   7.620   6.753
 9964POPC   C3B63057  41.782   7.575   7.053
 9964POPC   C4B63058  41.744   7.616   7.353
 9965POPC   NC363059  12.079  37.701   5.553
 9965POPC   PO463060  12.059  37.648   5.853
 9965POPC   GL163061  12.033  37.684   6.153
 9965POPC   GL263062  12.022  37.586   6.153
 9965POPC   C1A63063  12.030  37.642   6.453
 9965POPC   D2A63064  12.113  37.717   6.753
 9965POPC   C3A63065  12.107  37.676   7.053
 9965POPC   C4A63066  12.033  37.686   7.353
 9965POPC   C1B63067  11.968  37.434   6.453
 9965POPC   C2B63068  11.982  37.424   6.753
 9965POPC   C3B63069  11.947  37.447   7.053
 9965POPC   C4B63070  11.981  37.410   7.353
 9966POPC   NC363071  43.096  26.023   5.553
 9966POPC   PO463072  43.114  26.027   5.853
 9966POPC   GL163073  43.084  26.058   6.153
 9966POPC   GL263074  43.280  26.101   6.153
 9966POPC   C1A63075  43.156  25.995   6.453
 9966POPC   D2A63076  43.159  26.044   6.753
 9966POPC   C3A63077  43.092  26.058   7.053
 9966POPC   C4A63078  43.121  26.077   7.353
 9966POPC   C1B63079  43.336  26.124   6.453
 9966POPC   C2B63080  43.353  26.111   6.753
 9966POPC   C3B63081  43.362  26.109   7.053
 9966POPC   C4B63082  43.350  26.108   7.353
 9967POPC   NC363083   5.899  19.011   5.553
 9967POPC   PO463084   5.907  19.086   5.853
 9967POPC   GL163085   5.851  19.093   6.153
 9967POPC   GL263086   5.885  18.949   6.153
 9967POPC   C1A63087   5.915  19.024   6.453
 9967POPC   D2A63088   5.896  19.047   6.753
 9967POPC   C3A63089   5.862  19.106   7.053
 9967POPC   C4A63090   5.859  19.058   7.353
 9967POPC   C1B63091   5.890  18.802   6.453
 9967POPC   C2B63092   5.813  18.802   6.753
 9967POPC   C3B63093   5.826  18.792   7.053
 9967POPC   C4B63094   5.837  18.790   7.353
 9968POPC   NC363095  32.226  40.777   5.553
 9968POPC   PO463096  32.200  40.788   5.853
 9968POPC   GL163097  32.233  40.789   6.153
 9968POPC   GL263098  32.206  40.660   6.153
 9968POPC   C1A63099  32.235  40.775   6.453
 9968POPC   D2A63100  32.274  40.796   6.753
 9968POPC   C3A63101  32.277  40.824   7.053
 9968POPC   C4A63102  32.230  40.741   7.353
 9968POPC   C1B63103  32.159  40.617   6.453
 9968POPC   C2B63104  32.154  40.535   6.753
 9968POPC   C3B63105  32.128  40.530   7.053
 9968POPC   C4B63106  32.155  40.562   7.353
 9969POPC   NC363107  19.053   2.812   5.553
 9969POPC   PO463108  19.103   2.744   5.853
 9969POPC   GL163109  19.086   2.801   6.153
 9969POPC   GL263110  19.006   2.677   6.153
 9969POPC   C1A63111  19.091   2.783   6.453
 9969POPC   D2A63112  19.103   2.754   6.753
 9969POPC   C3A63113  19.009   2.717   7.053
 9969POPC   C4A63114  19.090   2.770   7.353
 9969POPC   C1B63115  18.866   2.593   6.453
 9969POPC   C2B63116  18.957   2.535   6.753
 9969POPC   C3B63117  18.899   2.609   7.053
 9969POPC   C4B63118  18.953   2.526   7.353
 9970POPC   NC363119  11.332  35.338   5.553
 9970POPC   PO463120  11.336  35.398   5.853
 9970POPC   GL163121  11.284  35.315   6.153
 9970POPC   GL263122  11.392  35.463   6.153
 9970POPC   C1A63123  11.266  35.359   6.453
 9970POPC   D2A63124  11.305  35.378   6.753
 9970POPC   C3A63125  11.255  35.363   7.053
 9970POPC   C4A63126  11.349  35.389   7.353
 9970POPC   C1B63127  11.441  35.605   6.453
 9970POPC   C2B63128  11.410  35.614   6.753
 9970POPC   C3B63129  11.441  35.552   7.053
 9970POPC   C4B63130  11.376  35.549   7.353
 9971POPC   NC363131   8.165  33.017   5.553
 9971POPC   PO463132   8.222  33.049   5.853
 9971POPC   GL163133   8.204  33.022   6.153
 9971POPC   GL263134   8.307  33.089   6.153
 9971POPC   C1A63135   8.242  33.004   6.453
 9971POPC   D2A63136   8.209  33.047   6.753
 9971POPC   C3A63137   8.207  33.018   7.053
 9971POPC   C4A63138   8.177  33.024   7.353
 9971POPC   C1B63139   8.453  33.106   6.453
 9971POPC   C2B63140   8.409  33.167   6.753
 9971POPC   C3B63141   8.431  33.158   7.053
 9971POPC   C4B63142   8.441  33.128   7.353
 9972POPC   NC363143   8.980  11.286   5.553
 9972POPC   PO463144   8.995  11.286   5.853
 9972POPC   GL163145   8.957  11.279   6.153
 9972POPC   GL263146   9.098  11.361   6.153
 9972POPC   C1A63147   8.984  11.341   6.453
 9972POPC   D2A63148   9.010  11.291   6.753
 9972POPC   C3A63149   8.962  11.322   7.053
 9972POPC   C4A63150   8.969  11.301   7.353
 9972POPC   C1B63151   9.239  11.391   6.453
 9972POPC   C2B63152   9.200  11.385   6.753
 9972POPC   C3B63153   9.205  11.306   7.053
 9972POPC   C4B63154   9.223  11.341   7.353
 9973POPC   NC363155  28.394  41.590   5.553
 9973POPC   PO463156  28.386  41.516   5.853
 9973POPC   GL163157  28.367  41.602   6.153
 9973POPC   GL263158  28.515  41.536   6.153
 9973POPC   C1A63159  28.394  41.538   6.453
 9973POPC   D2A63160  28.377  41.563   6.753
 9973POPC   C3A63161  28.405  41.553   7.053
 9973POPC   C4A63162  28.401  41.546   7.353
 9973POPC   C1B63163  28.662  41.523   6.453
 9973POPC   C2B63164  28.622  41.560   6.753
 9973POPC   C3B63165  28.625  41.545   7.053
 9973POPC   C4B63166  28.588  41.585   7.353
 9974POPC   NC363167  11.302   9.022   5.553
 9974POPC   PO463168  11.285   8.932   5.853
 9974POPC   GL163169  11.342   8.959   6.153
 9974POPC   GL263170  11.209   8.946   6.153
 9974POPC   C1A63171  11.324   8.968   6.453
 9974POPC   D2A63172  11.298   9.015   6.753
 9974POPC   C3A63173  11.348   8.978   7.053
 9974POPC   C4A63174  11.250   8.985   7.353
 9974POPC   C1B63175  11.100   8.962   6.453
 9974POPC   C2B63176  11.060   8.911   6.753
 9974POPC   C3B63177  11.040   8.931   7.053
 9974POPC   C4B63178  11.039   8.988   7.353
 9975POPC   NC363179   0.408  37.674   5.553
 9975POPC   PO463180   0.408  37.688   5.853
 9975POPC   GL163181   0.439  37.646   6.153
 9975POPC   GL263182   0.338  37.624   6.153
 9975POPC   C1A63183   0.414  37.645   6.453
 9975POPC   D2A63184   0.425  37.701   6.753
 9975POPC   C3A63185   0.464  37.695   7.053
 9975POPC   C4A63186   0.454  37.655   7.353
 9975POPC   C1B63187   0.189  37.530   6.453
 9975POPC   C2B63188   0.213  37.534   6.753
 9975POPC   C3B63189   0.239  37.524   7.053
 9975POPC   C4B63190   0.179  37.543   7.353
 9976POPC   NC363191  36.877  36.135   5.553
 9976POPC   PO463192  36.936  36.173   5.853
 9976POPC   GL163193  36.888  36.131   6.153
 9976POPC   GL263194  36.809  36.027   6.153
 9976POPC   C1A63195  36.855  36.165   6.453
 9976POPC   D2A63196  36.913  36.140   6.753
 9976POPC   C3A63197  36.915  36.173   7.053
 9976POPC   C4A63198  36.903  36.117   7.353
 9976POPC   C1B63199  36.714  35.883   6.453
 9976POPC   C2B63200  36.723  35.906   6.753
 9976POPC   C3B63201  36.762  35.967   7.053
 9976POPC   C4B63202  36.788  35.914   7.353
 9977POPC   NC363203  11.324  29.906   5.553
 9977POPC   PO463204  11.254  29.954   5.853
 9977POPC   GL163205  11.340  29.971   6.153
 9977POPC   GL263206  11.393  30.077   6.153
 9977POPC   C1A63207  11.274  29.872   6.453
 9977POPC   D2A63208  11.345  29.943   6.753
 9977POPC   C3A63209  11.319  29.924   7.053
 9977POPC   C4A63210  11.291  29.878   7.353
 9977POPC   C1B63211  11.433  30.162   6.453
 9977POPC   C2B63212  11.408  30.147   6.753
 9977POPC   C3B63213  11.420  30.095   7.053
 9977POPC   C4B63214  11.443  30.178   7.353
 9978POPC   NC363215  41.512   3.507   5.553
 9978POPC   PO463216  41.512   3.522   5.853
 9978POPC   GL163217  41.573   3.545   6.153
 9978POPC   GL263218  41.535   3.690   6.153
 9978POPC   C1A63219  41.561   3.535   6.453
 9978POPC   D2A63220  41.587   3.502   6.753
 9978POPC   C3A63221  41.536   3.537   7.053
 9978POPC   C4A63222  41.523   3.531   7.353
 9978POPC   C1B63223  41.382   3.773   6.453
 9978POPC   C2B63224  41.395   3.764   6.753
 9978POPC   C3B63225  41.364   3.733   7.053
 9978POPC   C4B63226  41.364   3.725   7.353
 9979POPC   NC363227  38.458  36.860   5.553
 9979POPC   PO463228  38.425  36.953   5.853
 9979POPC   GL163229  38.499  36.907   6.153
 9979POPC   GL263230  38.353  36.883   6.153
 9979POPC   C1A63231  38.456  36.935   6.453
 9979POPC   D2A63232  38.420  36.884   6.753
 9979POPC   C3A63233  38.426  36.919   7.053
 9979POPC   C4A63234  38.447  36.879   7.353
 9979POPC   C1B63235  38.236  36.835   6.453
 9979POPC   C2B63236  38.227  36.792   6.753
 9979POPC   C3B63237  38.223  36.850   7.053
 9979POPC   C4B63238  38.169  36.862   7.353
 9980POPC   NC363239  18.315  40.809   5.553
 9980POPC   PO463240  18.307  40.749   5.853
 9980POPC   GL163241  18.249  40.802   6.153
 9980POPC   GL263242  18.174  40.876   6.153
 9980POPC   C1A63243  18.245  40.822   6.453
 9980POPC   D2A63244  18.283  40.759   6.753
 9980POPC   C3A63245  18.254  40.800   7.053
 9980POPC   C4A63246  18.237  40.742   7.353
 9980POPC   C1B63247  18.162  41.031   6.453
 9980POPC   C2B63248  18.104  40.960   6.753
 9980POPC   C3B63249  18.133  40.967   7.053
 9980POPC   C4B63250  18.102  40.986   7.353
 9981POPC   NC363251  32.235  15.938   5.553
 9981POPC   PO463252  32.199  16.005   5.853
 9981POPC   GL163253  32.209  15.954   6.153
 9981POPC   GL263254  32.263  16.076   6.153
 9981POPC   C1A63255  32.203  15.960   6.453
 9981POPC   D2A63256  32.221  16.002   6.753
 9981POPC   C3A63257  32.208  15.993   7.053
 9981POPC   C4A63258  32.233  15.943   7.353
 9981POPC   C1B63259  32.221  16.241   6.453
 9981POPC   C2B63260  32.300  16.171   6.753
 9981POPC   C3B63261  32.293  16.160   7.053
 9981POPC   C4B63262  32.241  16.182   7.353
 9982POPC   NC363263   2.720  22.185   5.553
 9982POPC   PO463264   2.797  22.202   5.853
 9982POPC   GL163265   2.748  22.192   6.153
 9982POPC   GL263266   2.742  22.078   6.153
 9982POPC   C1A63267   2.814  22.136   6.453
 9982POPC   D2A63268   2.723  22.188   6.753
 9982POPC   C3A63269   2.794  22.196   7.053
 9982POPC   C4A63270   2.772  22.161   7.353
 9982POPC   C1B63271   2.773  21.920   6.453
 9982POPC   C2B63272   2.701  21.916   6.753
 9982POPC   C3B63273   2.769  21.894   7.053
 9982POPC   C4B63274   2.790  21.956   7.353
 9983POPC   NC363275  13.607  36.859   5.553
 9983POPC   PO463276  13.610  36.932   5.853
 9983POPC   GL163277  13.578  36.947   6.153
 9983POPC   GL263278  13.560  37.033   6.153
 9983POPC   C1A63279  13.648  36.901   6.453
 9983POPC   D2A63280  13.584  36.920   6.753
 9983POPC   C3A63281  13.636  36.861   7.053
 9983POPC   C4A63282  13.640  36.931   7.353
 9983POPC   C1B63283  13.546  37.158   6.453
 9983POPC   C2B63284  13.605  37.185   6.753
 9983POPC   C3B63285  13.531  37.191   7.053
 9983POPC   C4B63286  13.573  37.125   7.353
 9984POPC   NC363287  43.859  35.312   5.553
 9984POPC   PO463288  43.924  35.359   5.853
 9984POPC   GL163289  43.923  35.339   6.153
 9984POPC   GL263290  43.783  35.325   6.153
 9984POPC   C1A63291  43.843  35.334   6.453
 9984POPC   D2A63292  43.908  35.368   6.753
 9984POPC   C3A63293  43.899  35.360   7.053
 9984POPC   C4A63294  43.903  35.401   7.353
 9984POPC   C1B63295  43.661  35.249   6.453
 9984POPC   C2B63296  43.601  35.280   6.753
 9984POPC   C3B63297  43.600  35.233   7.053
 9984POPC   C4B63298  43.675  35.321   7.353
 9985POPC   NC363299  29.132   8.974   5.553
 9985POPC   PO463300  29.194   9.018   5.853
 9985POPC   GL163301  29.183   8.941   6.153
 9985POPC   GL263302  29.242   9.087   6.153
 9985POPC   C1A63303  29.179   8.988   6.453
 9985POPC   D2A63304  29.160   9.007   6.753
 9985POPC   C3A63305  29.172   8.931   7.053
 9985POPC   C4A63306  29.186   8.977   7.353
 9985POPC   C1B63307  29.356   9.105   6.453
 9985POPC   C2B63308  29.335   9.176   6.753
 9985POPC   C3B63309  29.319   9.104   7.053
 9985POPC   C4B63310  29.313   9.155   7.353
 9986POPC   NC363311   4.320  35.396   5.553
 9986POPC   PO463312   4.325  35.395   5.853
 9986POPC   GL163313   4.317  35.327   6.153
 9986POPC   GL263314   4.346  35.257   6.153
 9986POPC   C1A63315   4.312  35.310   6.453
 9986POPC   D2A63316   4.304  35.389   6.753
 9986POPC   C3A63317   4.323  35.317   7.053
 9986POPC   C4A63318   4.352  35.359   7.353
 9986POPC   C1B63319   4.429  35.144   6.453
 9986POPC   C2B63320   4.394  35.128   6.753
 9986POPC   C3B63321   4.376  35.125   7.053
 9986POPC   C4B63322   4.420  35.094   7.353
 9987POPC   NC363323  29.152   3.561   5.553
 9987POPC   PO463324  29.106   3.527   5.853
 9987POPC   GL163325  29.110   3.575   6.153
 9987POPC   GL263326  28.995   3.599   6.153
 9987POPC   C1A63327  29.129   3.560   6.453
 9987POPC   D2A63328  29.176   3.590   6.753
 9987POPC   C3A63329  29.190   3.533   7.053
 9987POPC   C4A63330  29.151   3.583   7.353
 9987POPC   C1B63331  28.902   3.594   6.453
 9987POPC   C2B63332  28.950   3.583   6.753
 9987POPC   C3B63333  28.891   3.631   7.053
 9987POPC   C4B63334  28.881   3.560   7.353
 9988POPC   NC363335  31.517  22.194   5.553
 9988POPC   PO463336  31.441  22.138   5.853
 9988POPC   GL163337  31.449  22.172   6.153
 9988POPC   GL263338  31.397  22.022   6.153
 9988POPC   C1A63339  31.443  22.129   6.453
 9988POPC   D2A63340  31.432  22.180   6.753
 9988POPC   C3A63341  31.455  22.172   7.053
 9988POPC   C4A63342  31.497  22.129   7.353
 9988POPC   C1B63343  31.405  21.954   6.453
 9988POPC   C2B63344  31.396  21.908   6.753
 9988POPC   C3B63345  31.414  21.960   7.053
 9988POPC   C4B63346  31.356  21.952   7.353
 9989POPC   NC363347  36.855  24.510   5.553
 9989POPC   PO463348  36.890  24.513   5.853
 9989POPC   GL163349  36.907  24.511   6.153
 9989POPC   GL263350  36.866  24.347   6.153
 9989POPC   C1A63351  36.913  24.472   6.453
 9989POPC   D2A63352  36.943  24.466   6.753
 9989POPC   C3A63353  36.915  24.484   7.053
 9989POPC   C4A63354  36.884  24.515   7.353
 9989POPC   C1B63355  36.731  24.280   6.453
 9989POPC   C2B63356  36.750  24.279   6.753
 9989POPC   C3B63357  36.726  24.298   7.053
 9989POPC   C4B63358  36.756  24.313   7.353
 9990POPC   NC363359   9.760  26.065   5.553
 9990POPC   PO463360   9.702  26.026   5.853
 9990POPC   GL163361   9.762  26.048   6.153
 9990POPC   GL263362   9.730  25.942   6.153
 9990POPC   C1A63363   9.751  26.062   6.453
 9990POPC   D2A63364   9.790  25.996   6.753
 9990POPC   C3A63365   9.764  26.003   7.053
 9990POPC   C4A63366   9.723  26.053   7.353
 9990POPC   C1B63367   9.664  25.830   6.453
 9990POPC   C2B63368   9.675  25.844   6.753
 9990POPC   C3B63369   9.655  25.836   7.053
 9990POPC   C4B63370   9.673  25.793   7.353
 9991POPC   NC363371   3.512  16.773   5.553
 9991POPC   PO463372   3.503  16.699   5.853
 9991POPC   GL163373   3.587  16.701   6.153
 9991POPC   GL263374   3.477  16.752   6.153
 9991POPC   C1A63375   3.516  16.705   6.453
 9991POPC   D2A63376   3.505  16.707   6.753
 9991POPC   C3A63377   3.506  16.686   7.053
 9991POPC   C4A63378   3.576  16.732   7.353
 9991POPC   C1B63379   3.322  16.816   6.453
 9991POPC   C2B63380   3.318  16.839   6.753
 9991POPC   C3B63381   3.322  16.845   7.053
 9991POPC   C4B63382   3.342  16.791   7.353
 9992POPC   NC363383  38.437  10.483   5.553
 9992POPC   PO463384  38.471  10.487   5.853
 9992POPC   GL163385  38.494  10.553   6.153
 9992POPC   GL263386  38.539  10.495   6.153
 9992POPC   C1A63387  38.487  10.530   6.453
 9992POPC   D2A63388  38.468  10.515   6.753
 9992POPC   C3A63389  38.430  10.552   7.053
 9992POPC   C4A63390  38.500  10.497   7.353
 9992POPC   C1B63391  38.706  10.482   6.453
 9992POPC   C2B63392  38.749  10.544   6.753
 9992POPC   C3B63393  38.707  10.535   7.053
 9992POPC   C4B63394  38.701  10.543   7.353
 9993POPC   NC363395  12.112   2.006   5.553
 9993POPC   PO463396  12.104   2.031   5.853
 9993POPC   GL163397  12.030   2.025   6.153
 9993POPC   GL263398  12.186   2.081   6.153
 9993POPC   C1A63399  12.080   1.955   6.453
 9993POPC   D2A63400  12.093   1.942   6.753
 9993POPC   C3A63401  12.118   2.031   7.053
 9993POPC   C4A63402  12.068   1.998   7.353
 9993POPC   C1B63403  12.285   2.091   6.453
 9993POPC   C2B63404  12.244   2.165   6.753
 9993POPC   C3B63405  12.316   2.124   7.053
 9993POPC   C4B63406  12.315   2.121   7.353
 9994POPC   NC363407   9.021  12.887   5.553
 9994POPC   PO463408   8.930  12.826   5.853
 9994POPC   GL163409   8.937  12.888   6.153
 9994POPC   GL263410   8.827  12.924   6.153
 9994POPC   C1A63411   8.927  12.858   6.453
 9994POPC   D2A63412   9.005  12.819   6.753
 9994POPC   C3A63413   8.972  12.881   7.053
 9994POPC   C4A63414   9.004  12.877   7.353
 9994POPC   C1B63415   8.777  13.044   6.453
 9994POPC   C2B63416   8.748  13.021   6.753
 9994POPC   C3B63417   8.794  13.005   7.053
 9994POPC   C4B63418   8.745  13.007   7.353
 9995POPC   NC363419  36.150   9.713   5.553
 9995POPC   PO463420  36.118   9.727   5.853
 9995POPC   GL163421  36.169   9.768   6.153
 9995POPC   GL263422  36.018   9.681   6.153
 9995POPC   C1A63423  36.120   9.726   6.453
 9995POPC   D2A63424  36.156   9.753   6.753
 9995POPC   C3A63425  36.119   9.756   7.053
 9995POPC   C4A63426  36.089   9.755   7.353
 9995POPC   C1B63427  35.873   9.684   6.453
 9995POPC   C2B63428  35.853   9.642   6.753
 9995POPC   C3B63429  35.855   9.648   7.053
 9995POPC   C4B63430  35.852   9.655   7.353
 9996POPC   NC363431  27.590  41.578   5.553
 9996POPC   PO463432  27.561  41.539   5.853
 9996POPC   GL163433  27.626  41.566   6.153
 9996POPC   GL263434  27.682  41.614   6.153
 9996POPC   C1A63435  27.593  41.512   6.453
 9996POPC   D2A63436  27.615  41.591   6.753
 9996POPC   C3A63437  27.593  41.520   7.053
 9996POPC   C4A63438  27.581  41.582   7.353
 9996POPC   C1B63439  27.743  41.752   6.453
 9996POPC   C2B63440  27.734  41.746   6.753
 9996POPC   C3B63441  27.765  41.758   7.053
 9996POPC   C4B63442  27.771  41.708   7.353
 9997POPC   NC363443   0.468  43.917   5.553
 9997POPC   PO463444   0.406  43.893   5.853
 9997POPC   GL163445   0.424  43.901   6.153
 9997POPC   GL263446   0.591  43.877   6.153
 9997POPC   C1A63447   0.463  43.916   6.453
 9997POPC   D2A63448   0.437  43.924   6.753
 9997POPC   C3A63449   0.424  43.862   7.053
 9997POPC   C4A63450   0.403  43.853   7.353
 9997POPC   C1B63451   0.688  43.951   6.453
 9997POPC   C2B63452   0.702  43.924   6.753
 9997POPC   C3B63453   0.727  43.866   7.053
 9997POPC   C4B63454   0.650  43.884   7.353
 9998POPC   NC363455  13.674   9.777   5.553
 9998POPC   PO463456  13.627   9.751   5.853
 9998POPC   GL163457  13.613   9.766   6.153
 9998POPC   GL263458  13.627   9.597   6.153
 9998POPC   C1A63459  13.616   9.724   6.453
 9998POPC   D2A63460  13.584   9.782   6.753
 9998POPC   C3A63461  13.640   9.733   7.053
 9998POPC   C4A63462  13.655   9.738   7.353
 9998POPC   C1B63463  13.636   9.499   6.453
 9998POPC   C2B63464  13.652   9.504   6.753
 9998POPC   C3B63465  13.664   9.545   7.053
 9998POPC   C4B63466  13.612   9.532   7.353
 9999POPC   NC363467  39.216  18.300   5.553
 9999POPC   PO463468  39.253  18.256   5.853
 9999POPC   GL163469  39.268  18.310   6.153
 9999POPC   GL263470  39.158  18.212   6.153
 9999POPC   C1A63471  39.255  18.255   6.453
 9999POPC   D2A63472  39.232  18.248   6.753
 9999POPC   C3A63473  39.214  18.269   7.053
 9999POPC   C4A63474  39.235  18.308   7.353
 9999POPC   C1B63475  39.110  18.017   6.453
 9999POPC   C2B63476  39.116  18.082   6.753
 9999POPC   C3B63477  39.177  18.004   7.053
 9999POPC   C4B63478  39.164  18.047   7.353
10000POPC   NC363479  19.863  44.668   5.553
10000POPC   PO463480  19.803  44.649   5.853
10000POPC   GL163481  19.794  44.631   6.153
10000POPC   GL263482  19.729  44.734   6.153
10000POPC   C1A63483  19.856  44.617   6.453
10000POPC   D2A63484  19.863  44.663   6.753
10000POPC   C3A63485  19.808  44.653   7.053
10000POPC   C4A63486  19.855  44.682   7.353
10000POPC   C1B63487  19.598  44.731   6.453
10000POPC   C2B63488  19.569  44.773   6.753
10000POPC   C3B63489  19.593  44.781   7.053
10000POPC   C4B63490  19.580  44.723   7.353
10001POPC   NC363491  24.493  36.106   5.553
10001POPC   PO463492  24.468  36.150   5.853
10001POPC   GL163493  24.481  36.156   6.153
10001POPC   GL263494  24.338  36.045   6.153
10001POPC   C1A63495  24.469  36.098   6.453
10001POPC   D2A63496  24.474  36.165   6.753
10001POPC   C3A63497  24.478  36.170   7.053
10001POPC   C4A63498  24.525  36.128   7.353
10001POPC   C1B63499  24.240  36.045   6.453
10001POPC   C2B63500  24.286  36.039   6.753
10001POPC   C3B63501  24.231  36.001   7.053
10001POPC   C4B63502  24.285  36.057   7.353
10002POPC   NC363503  33.831  22.912   5.553
10002POPC   PO463504  33.821  22.911   5.853
10002POPC   GL163505  33.768  22.897   6.153
10002POPC   GL263506  33.765  22.833   6.153
10002POPC   C1A63507  33.808  22.956   6.453
10002POPC   D2A63508  33.816  22.932   6.753
10002POPC   C3A63509  33.750  22.904   7.053
10002POPC   C4A63510  33.754  22.923   7.353
10002POPC   C1B63511  33.652  22.720   6.453
10002POPC   C2B63512  33.668  22.704   6.753
10002POPC   C3B63513  33.662  22.740   7.053
10002POPC   C4B63514  33.674  22.690   7.353
10003POPC   NC363515  11.255  42.324   5.553
10003POPC   PO463516  11.322  42.376   5.853
10003POPC   GL163517  11.346  42.320   6.153
10003POPC   GL263518  11.238  42.286   6.153
10003POPC   C1A63519  11.280  42.375   6.453
10003POPC   D2A63520  11.350  42.323   6.753
10003POPC   C3A63521  11.315  42.380   7.053
10003POPC   C4A63522  11.294  42.290   7.353
10003POPC   C1B63523  11.045  42.157   6.453
10003POPC   C2B63524  11.064  42.218   6.753
10003POPC   C3B63525  11.125  42.166   7.053
10003POPC   C4B63526  11.081  42.150   7.353
10004POPC   NC363527   8.213   3.544   5.553
10004POPC   PO463528   8.230   3.538   5.853
10004POPC   GL163529   8.241   3.582   6.153
10004POPC   GL263530   8.154   3.640   6.153
10004POPC   C1A63531   8.202   3.503   6.453
10004POPC   D2A63532   8.238   3.577   6.753
10004POPC   C3A63533   8.171   3.551   7.053
10004POPC   C4A63534   8.236   3.555   7.353
10004POPC   C1B63535   8.076   3.731   6.453
10004POPC   C2B63536   8.125   3.809   6.753
10004POPC   C3B63537   8.151   3.808   7.053
10004POPC   C4B63538   8.122   3.764   7.353
10005POPC   NC363539  28.362   7.433   5.553
10005POPC   PO463540  28.337   7.422   5.853
10005POPC   GL163541  28.414   7.405   6.153
10005POPC   GL263542  28.327   7.364   6.153
10005POPC   C1A63543  28.372   7.452   6.453
10005POPC   D2A63544  28.361   7.412   6.753
10005POPC   C3A63545  28.359   7.468   7.053
10005POPC   C4A63546  28.417   7.460   7.353
10005POPC   C1B63547  28.216   7.228   6.453
10005POPC   C2B63548  28.223   7.210   6.753
10005POPC   C3B63549  28.214   7.230   7.053
10005POPC   C4B63550  28.192   7.270   7.353
10006POPC   NC363551  22.969  32.259   5.553
10006POPC   PO463552  22.937  32.260   5.853
10006POPC   GL163553  22.924  32.280   6.153
10006POPC   GL263554  22.861  32.349   6.153
10006POPC   C1A63555  22.927  32.266   6.453
10006POPC   D2A63556  22.956  32.274   6.753
10006POPC   C3A63557  22.969  32.294   7.053
10006POPC   C4A63558  22.940  32.270   7.353
10006POPC   C1B63559  22.788  32.433   6.453
10006POPC   C2B63560  22.811  32.473   6.753
10006POPC   C3B63561  22.762  32.459   7.053
10006POPC   C4B63562  22.727  32.397   7.353
10007POPC   NC363563  20.655  18.310   5.553
10007POPC   PO463564  20.605  18.266   5.853
10007POPC   GL163565  20.621  18.300   6.153
10007POPC   GL263566  20.684  18.188   6.153
10007POPC   C1A63567  20.638  18.278   6.453
10007POPC   D2A63568  20.634  18.257   6.753
10007POPC   C3A63569  20.606  18.280   7.053
10007POPC   C4A63570  20.639  18.327   7.353
10007POPC   C1B63571  20.849  18.157   6.453
10007POPC   C2B63572  20.846  18.137   6.753
10007POPC   C3B63573  20.818  18.151   7.053
10007POPC   C4B63574  20.824  18.124   7.353
10008POPC   NC363575  44.645  27.619   5.553
10008POPC   PO463576  44.689  27.585   5.853
10008POPC   GL163577  44.677  27.578   6.153
10008POPC   GL263578  44.671  27.688   6.153
10008POPC   C1A63579  44.702  27.559   6.453
10008POPC   D2A63580  44.626  27.578   6.753
10008POPC   C3A63581  44.635  27.596   7.053
10008POPC   C4A63582  44.681  27.627   7.353
10008POPC   C1B63583  44.594  27.865   6.453
10008POPC   C2B63584  44.594  27.827   6.753
10008POPC   C3B63585  44.606  27.792   7.053
10008POPC   C4B63586  44.598  27.833   7.353
10009POPC   NC363587   4.304   8.171   5.553
10009POPC   PO463588   4.269   8.208   5.853
10009POPC   GL163589   4.308   8.219   6.153
10009POPC   GL263590   4.257   8.121   6.153
10009POPC   C1A63591   4.333   8.181   6.453
10009POPC   D2A63592   4.309   8.170   6.753
10009POPC   C3A63593   4.344   8.196   7.053
10009POPC   C4A63594   4.326   8.206   7.353
10009POPC   C1B63595   4.074   8.010   6.453
10009POPC   C2B63596   4.135   8.072   6.753
10009POPC   C3B63597   4.119   8.057   7.053
10009POPC   C4B63598   4.141   8.070   7.353
10010POPC   NC363599  29.949  36.934   5.553
10010POPC   PO463600  29.917  36.867   5.853
10010POPC   GL163601  29.879  36.947   6.153
10010POPC   GL263602  29.907  37.010   6.153
10010POPC   C1A63603  29.926  36.924   6.453
10010POPC   D2A63604  29.893  36.900   6.753
10010POPC   C3A63605  29.944  36.885   7.053
10010POPC   C4A63606  29.896  36.912   7.353
10010POPC   C1B63607  29.964  37.115   6.453
10010POPC   C2B63608  29.956  37.115   6.753
10010POPC   C3B63609  29.947  37.117   7.053
10010POPC   C4B63610  29.945  37.180   7.353
10011POPC   NC363611   4.344  12.812   5.553
10011POPC   PO463612   4.333  12.841   5.853
10011POPC   GL163613   4.295  12.835   6.153
10011POPC   GL263614   4.305  12.768   6.153
10011POPC   C1A63615   4.284  12.865   6.453
10011POPC   D2A63616   4.268  12.815   6.753
10011POPC   C3A63617   4.351  12.884   7.053
10011POPC   C4A63618   4.294  12.882   7.353
10011POPC   C1B63619   4.227  12.630   6.453
10011POPC   C2B63620   4.233  12.613   6.753
10011POPC   C3B63621   4.245  12.640   7.053
10011POPC   C4B63622   4.162  12.668   7.353
10012POPC   NC363623  42.322  39.272   5.553
10012POPC   PO463624  42.351  39.212   5.853
10012POPC   GL163625  42.337  39.256   6.153
10012POPC   GL263626  42.408  39.189   6.153
10012POPC   C1A63627  42.299  39.226   6.453
10012POPC   D2A63628  42.381  39.251   6.753
10012POPC   C3A63629  42.325  39.195   7.053
10012POPC   C4A63630  42.372  39.186   7.353
10012POPC   C1B63631  42.582  39.085   6.453
10012POPC   C2B63632  42.566  39.111   6.753
10012POPC   C3B63633  42.551  39.131   7.053
10012POPC   C4B63634  42.530  39.055   7.353
10013POPC   NC363635  22.954  17.523   5.553
10013POPC   PO463636  22.971  17.514   5.853
10013POPC   GL163637  22.914  17.502   6.153
10013POPC   GL263638  23.000  17.385   6.153
10013POPC   C1A63639  22.947  17.509   6.453
10013POPC   D2A63640  22.964  17.468   6.753
10013POPC   C3A63641  22.985  17.491   7.053
10013POPC   C4A63642  22.984  17.548   7.353
10013POPC   C1B63643  22.960  17.255   6.453
10013POPC   C2B63644  22.919  17.280   6.753
10013POPC   C3B63645  22.939  17.232   7.053
10013POPC   C4B63646  22.931  17.240   7.353
10014POPC   NC363647  43.067   6.628   5.553
10014POPC   PO463648  43.140   6.607   5.853
10014POPC   GL163649  43.156   6.685   6.153
10014POPC   GL263650  43.165   6.798   6.153
10014POPC   C1A63651  43.144   6.676   6.453
10014POPC   D2A63652  43.133   6.599   6.753
10014POPC   C3A63653  43.131   6.648   7.053
10014POPC   C4A63654  43.132   6.646   7.353
10014POPC   C1B63655  43.091   6.941   6.453
10014POPC   C2B63656  43.084   6.908   6.753
10014POPC   C3B63657  43.177   6.879   7.053
10014POPC   C4B63658  43.098   6.928   7.353
10015POPC   NC363659  35.307  26.825   5.553
10015POPC   PO463660  35.330  26.863   5.853
10015POPC   GL163661  35.324  26.850   6.153
10015POPC   GL263662  35.329  26.959   6.153
10015POPC   C1A63663  35.378  26.853   6.453
10015POPC   D2A63664  35.348  26.863   6.753
10015POPC   C3A63665  35.364  26.850   7.053
10015POPC   C4A63666  35.360  26.772   7.353
10015POPC   C1B63667  35.393  27.030   6.453
10015POPC   C2B63668  35.347  27.108   6.753
10015POPC   C3B63669  35.328  27.117   7.053
10015POPC   C4B63670  35.334  27.032   7.353
10016POPC   NC363671  44.617  29.107   5.553
10016POPC   PO463672  44.703  29.106   5.853
10016POPC   GL163673  44.623  29.191   6.153
10016POPC   GL263674  44.754  29.055   6.153
10016POPC   C1A63675  44.673  29.106   6.453
10016POPC   D2A63676  44.675  29.123   6.753
10016POPC   C3A63677  44.708  29.174   7.053
10016POPC   C4A63678  44.707  29.104   7.353
10016POPC   C1B63679  44.738  28.881   6.453
10016POPC   C2B63680  44.794  28.874   6.753
10016POPC   C3B63681  44.728  28.915   7.053
10016POPC   C4B63682  44.753  28.907   7.353
10017POPC   NC363683  42.331  19.816   5.553
10017POPC   PO463684  42.369  19.867   5.853
10017POPC   GL163685  42.320  19.842   6.153
10017POPC   GL263686  42.464  19.800   6.153
10017POPC   C1A63687  42.368  19.880   6.453
10017POPC   D2A63688  42.326  19.793   6.753
10017POPC   C3A63689  42.290  19.842   7.053
10017POPC   C4A63690  42.286  19.812   7.353
10017POPC   C1B63691  42.510  19.689   6.453
10017POPC   C2B63692  42.559  19.637   6.753
10017POPC   C3B63693  42.499  19.682   7.053
10017POPC   C4B63694  42.570  19.630   7.353
10018POPC   NC363695  10.500  31.514   5.553
10018POPC   PO463696  10.510  31.511   5.853
10018POPC   GL163697  10.495  31.471   6.153
10018POPC   GL263698  10.484  31.568   6.153
10018POPC   C1A63699  10.545  31.439   6.453
10018POPC   D2A63700  10.513  31.423   6.753
10018POPC   C3A63701  10.492  31.508   7.053
10018POPC   C4A63702  10.547  31.485   7.353
10018POPC   C1B63703  10.457  31.692   6.453
10018POPC   C2B63704  10.490  31.698   6.753
10018POPC   C3B63705  10.504  31.689   7.053
10018POPC   C4B63706  10.482  31.747   7.353
10019POPC   NC363707  41.516  34.574   5.553
10019POPC   PO463708  41.552  34.541   5.853
10019POPC   GL163709  41.563  34.537   6.153
10019POPC   GL263710  41.578  34.706   6.153
10019POPC   C1A63711  41.539  34.625   6.453
10019POPC   D2A63712  41.557  34.623   6.753
10019POPC   C3A63713  41.585  34.535   7.053
10019POPC   C4A63714  41.601  34.528   7.353
10019POPC   C1B63715  41.478  34.778   6.453
10019POPC   C2B63716  41.546  34.846   6.753
10019POPC   C3B63717  41.485  34.778   7.053
10019POPC   C4B63718  41.461  34.847   7.353
10020POPC   NC363719  19.791  27.614   5.553
10020POPC   PO463720  19.874  27.638   5.853
10020POPC   GL163721  19.791  27.573   6.153
10020POPC   GL263722  19.689  27.599   6.153
10020POPC   C1A63723  19.791  27.590   6.453
10020POPC   D2A63724  19.793  27.578   6.753
10020POPC   C3A63725  19.822  27.569   7.053
10020POPC   C4A63726  19.853  27.596   7.353
10020POPC   C1B63727  19.565  27.636   6.453
10020POPC   C2B63728  19.547  27.661   6.753
10020POPC   C3B63729  19.583  27.652   7.053
10020POPC   C4B63730  19.587  27.670   7.353
10021POPC   NC363731  18.246  26.062   5.553
10021POPC   PO463732  18.245  26.044   5.853
10021POPC   GL163733  18.249  25.999   6.153
10021POPC   GL263734  18.417  26.070   6.153
10021POPC   C1A63735  18.308  26.060   6.453
10021POPC   D2A63736  18.292  26.032   6.753
10021POPC   C3A63737  18.319  26.055   7.053
10021POPC   C4A63738  18.260  26.090   7.353
10021POPC   C1B63739  18.491  26.003   6.453
10021POPC   C2B63740  18.533  26.049   6.753
10021POPC   C3B63741  18.503  25.971   7.053
10021POPC   C4B63742  18.575  25.980   7.353
10022POPC   NC363743  31.522  43.890   5.553
10022POPC   PO463744  31.423  43.865   5.853
10022POPC   GL163745  31.439  43.911   6.153
10022POPC   GL263746  31.541  43.991   6.153
10022POPC   C1A63747  31.451  43.875   6.453
10022POPC   D2A63748  31.521  43.902   6.753
10022POPC   C3A63749  31.492  43.922   7.053
10022POPC   C4A63750  31.468  43.870   7.353
10022POPC   C1B63751  31.672  44.046   6.453
10022POPC   C2B63752  31.665  43.983   6.753
10022POPC   C3B63753  31.686  43.961   7.053
10022POPC   C4B63754  31.669  44.041   7.353
10023POPC   NC363755  39.974   9.731   5.553
10023POPC   PO463756  40.011   9.783   5.853
10023POPC   GL163757  40.052   9.768   6.153
10023POPC   GL263758  39.961   9.857   6.153
10023POPC   C1A63759  39.980   9.699   6.453
10023POPC   D2A63760  40.002   9.747   6.753
10023POPC   C3A63761  40.038   9.730   7.053
10023POPC   C4A63762  40.014   9.789   7.353
10023POPC   C1B63763  39.996  10.024   6.453
10023POPC   C2B63764  39.974  10.010   6.753
10023POPC   C3B63765  40.007   9.994   7.053
10023POPC   C4B63766  40.005  10.004   7.353
10024POPC   NC363767   8.975  15.921   5.553
10024POPC   PO463768   8.923  15.988   5.853
10024POPC   GL163769   8.990  15.947   6.153
10024POPC   GL263770   8.810  15.982   6.153
10024POPC   C1A63771   8.939  15.955   6.453
10024POPC   D2A63772   8.982  15.990   6.753
10024POPC   C3A63773   8.989  15.972   7.053
10024POPC   C4A63774   8.929  16.002   7.353
10024POPC   C1B63775   8.767  15.991   6.453
10024POPC   C2B63776   8.721  15.965   6.753
10024POPC   C3B63777   8.773  15.938   7.053
10024POPC   C4B63778   8.766  16.000   7.353
10025POPC   NC363779  43.140  12.056   5.553
10025POPC   PO463780  43.140  12.097   5.853
10025POPC   GL163781  43.084  12.040   6.153
10025POPC   GL263782  43.084  12.225   6.153
10025POPC   C1A63783  43.100  12.105   6.453
10025POPC   D2A63784  43.112  12.100   6.753
10025POPC   C3A63785  43.153  12.087   7.053
10025POPC   C4A63786  43.089  12.106   7.353
10025POPC   C1B63787  42.953  12.271   6.453
10025POPC   C2B63788  42.975  12.298   6.753
10025POPC   C3B63789  43.004  12.295   7.053
10025POPC   C4B63790  42.988  12.340   7.353
10026POPC   NC363791  18.255  29.160   5.553
10026POPC   PO463792  18.292  29.102   5.853
10026POPC   GL163793  18.307  29.170   6.153
10026POPC   GL263794  18.323  29.267   6.153
10026POPC   C1A63795  18.252  29.187   6.453
10026POPC   D2A63796  18.286  29.163   6.753
10026POPC   C3A63797  18.322  29.120   7.053
10026POPC   C4A63798  18.279  29.155   7.353
10026POPC   C1B63799  18.428  29.329   6.453
10026POPC   C2B63800  18.426  29.403   6.753
10026POPC   C3B63801  18.434  29.315   7.053
10026POPC   C4B63802  18.383  29.351   7.353
10027POPC   NC363803  24.535  33.751   5.553
10027POPC   PO463804  24.483  33.816   5.853
10027POPC   GL163805  24.487  33.826   6.153
10027POPC   GL263806  24.387  33.907   6.153
10027POPC   C1A63807  24.530  33.828   6.453
10027POPC   D2A63808  24.539  33.756   6.753
10027POPC   C3A63809  24.452  33.788   7.053
10027POPC   C4A63810  24.512  33.823   7.353
10027POPC   C1B63811  24.360  34.004   6.453
10027POPC   C2B63812  24.355  33.983   6.753
10027POPC   C3B63813  24.290  33.951   7.053
10027POPC   C4B63814  24.283  34.031   7.353
10028POPC   NC363815  34.565  33.818   5.553
10028POPC   PO463816  34.600  33.825   5.853
10028POPC   GL163817  34.594  33.765   6.153
10028POPC   GL263818  34.651  33.858   6.153
10028POPC   C1A63819  34.600  33.764   6.453
10028POPC   D2A63820  34.537  33.780   6.753
10028POPC   C3A63821  34.611  33.808   7.053
10028POPC   C4A63822  34.598  33.846   7.353
10028POPC   C1B63823  34.668  33.996   6.453
10028POPC   C2B63824  34.695  34.002   6.753
10028POPC   C3B63825  34.669  34.005   7.053
10028POPC   C4B63826  34.763  34.042   7.353
10029POPC   NC363827   6.669  32.273   5.553
10029POPC   PO463828   6.659  32.291   5.853
10029POPC   GL163829   6.613  32.217   6.153
10029POPC   GL263830   6.549  32.167   6.153
10029POPC   C1A63831   6.656  32.235   6.453
10029POPC   D2A63832   6.611  32.287   6.753
10029POPC   C3A63833   6.684  32.241   7.053
10029POPC   C4A63834   6.661  32.258   7.353
10029POPC   C1B63835   6.415  32.127   6.453
10029POPC   C2B63836   6.407  32.102   6.753
10029POPC   C3B63837   6.440  32.127   7.053
10029POPC   C4B63838   6.425  32.175   7.353
10030POPC   NC363839   8.930   0.443   5.553
10030POPC   PO463840   9.009   0.462   5.853
10030POPC   GL163841   9.018   0.426   6.153
10030POPC   GL263842   9.104   0.452   6.153
10030POPC   C1A63843   8.978   0.415   6.453
10030POPC   D2A63844   8.992   0.470   6.753
10030POPC   C3A63845   8.987   0.405   7.053
10030POPC   C4A63846   8.987   0.396   7.353
10030POPC   C1B63847   9.216   0.462   6.453
10030POPC   C2B63848   9.184   0.451   6.753
10030POPC   C3B63849   9.234   0.393   7.053
10030POPC   C4B63850   9.179   0.480   7.353
10031POPC   NC363851  13.608   4.310   5.553
10031POPC   PO463852  13.626   4.300   5.853
10031POPC   GL163853  13.664   4.325   6.153
10031POPC   GL263854  13.631   4.195   6.153
10031POPC   C1A63855  13.657   4.306   6.453
10031POPC   D2A63856  13.668   4.274   6.753
10031POPC   C3A63857  13.597   4.347   7.053
10031POPC   C4A63858  13.630   4.329   7.353
10031POPC   C1B63859  13.679   4.057   6.453
10031POPC   C2B63860  13.642   4.105   6.753
10031POPC   C3B63861  13.712   4.079   7.053
10031POPC   C4B63862  13.692   4.114   7.353
10032POPC   NC363863  24.496  19.843   5.553
10032POPC   PO463864  24.503  19.861   5.853
10032POPC   GL163865  24.497  19.835   6.153
10032POPC   GL263866  24.362  19.857   6.153
10032POPC   C1A63867  24.455  19.800   6.453
10032POPC   D2A63868  24.456  19.849   6.753
10032POPC   C3A63869  24.442  19.863   7.053
10032POPC   C4A63870  24.518  19.883   7.353
10032POPC   C1B63871  24.278  19.975   6.453
10032POPC   C2B63872  24.290  19.935   6.753
10032POPC   C3B63873  24.234  19.955   7.053
10032POPC   C4B63874  24.256  19.910   7.353
10033POPC   NC363875  12.048  25.268   5.553
10033POPC   PO463876  12.034  25.301   5.853
10033POPC   GL163877  12.079  25.239   6.153
10033POPC   GL263878  11.957  25.153   6.153
10033POPC   C1A63879  12.032  25.275   6.453
10033POPC   D2A63880  12.123  25.252   6.753
10033POPC   C3A63881  12.092  25.304   7.053
10033POPC   C4A63882  12.083  25.233   7.353
10033POPC   C1B63883  11.873  25.153   6.453
10033POPC   C2B63884  11.845  25.136   6.753
10033POPC   C3B63885  11.890  25.153   7.053
10033POPC   C4B63886  11.892  25.090   7.353
10034POPC   NC363887   5.115  31.444   5.553
10034POPC   PO463888   5.122  31.455   5.853
10034POPC   GL163889   5.087  31.465   6.153
10034POPC   GL263890   5.131  31.614   6.153
10034POPC   C1A63891   5.106  31.494   6.453
10034POPC   D2A63892   5.063  31.495   6.753
10034POPC   C3A63893   5.054  31.499   7.053
10034POPC   C4A63894   5.100  31.444   7.353
10034POPC   C1B63895   5.176  31.683   6.453
10034POPC   C2B63896   5.168  31.736   6.753
10034POPC   C3B63897   5.142  31.736   7.053
10034POPC   C4B63898   5.125  31.667   7.353
10035POPC   NC363899   5.880  33.038   5.553
10035POPC   PO463900   5.919  33.055   5.853
10035POPC   GL163901   5.852  33.022   6.153
10035POPC   GL263902   6.028  33.048   6.153
10035POPC   C1A63903   5.885  33.052   6.453
10035POPC   D2A63904   5.831  33.017   6.753
10035POPC   C3A63905   5.843  32.997   7.053
10035POPC   C4A63906   5.843  33.061   7.353
10035POPC   C1B63907   6.139  33.103   6.453
10035POPC   C2B63908   6.094  33.116   6.753
10035POPC   C3B63909   6.117  33.155   7.053
10035POPC   C4B63910   6.046  33.141   7.353
10036POPC   NC363911  34.599   7.394   5.553
10036POPC   PO463912  34.557   7.428   5.853
10036POPC   GL163913  34.553   7.389   6.153
10036POPC   GL263914  34.494   7.394   6.153
10036POPC   C1A63915  34.561   7.407   6.453
10036POPC   D2A63916  34.577   7.456   6.753
10036POPC   C3A63917  34.552   7.372   7.053
10036POPC   C4A63918  34.626   7.396   7.353
10036POPC   C1B63919  34.306   7.328   6.453
10036POPC   C2B63920  34.312   7.397   6.753
10036POPC   C3B63921  34.320   7.376   7.053
10036POPC   C4B63922  34.370   7.400   7.353
10037POPC   NC363923  43.887  43.064   5.553
10037POPC   PO463924  43.845  43.145   5.853
10037POPC   GL163925  43.852  43.137   6.153
10037POPC   GL263926  43.903  43.225   6.153
10037POPC   C1A63927  43.847  43.129   6.453
10037POPC   D2A63928  43.839  43.062   6.753
10037POPC   C3A63929  43.920  43.141   7.053
10037POPC   C4A63930  43.847  43.089   7.353
10037POPC   C1B63931  43.885  43.330   6.453
10037POPC   C2B63932  43.873  43.334   6.753
10037POPC   C3B63933  43.884  43.404   7.053
10037POPC   C4B63934  43.913  43.352   7.353
10038POPC   NC363935  12.093  18.297   5.553
10038POPC   PO463936  12.055  18.293   5.853
10038POPC   GL163937  12.108  18.325   6.153
10038POPC   GL263938  11.993  18.180   6.153
10038POPC   C1A63939  12.072  18.311   6.453
10038POPC   D2A63940  12.040  18.267   6.753
10038POPC   C3A63941  12.075  18.271   7.053
10038POPC   C4A63942  12.099  18.320   7.353
10038POPC   C1B63943  11.913  18.051   6.453
10038POPC   C2B63944  11.918  18.136   6.753
10038POPC   C3B63945  11.906  18.109   7.053
10038POPC   C4B63946  11.956  18.131   7.353
10039POPC   NC363947  36.886  16.691   5.553
10039POPC   PO463948  36.907  16.694   5.853
10039POPC   GL163949  36.911  16.728   6.153
10039POPC   GL263950  36.825  16.872   6.153
10039POPC   C1A63951  36.854  16.704   6.453
10039POPC   D2A63952  36.893  16.749   6.753
10039POPC   C3A63953  36.933  16.718   7.053
10039POPC   C4A63954  36.918  16.696   7.353
10039POPC   C1B63955  36.764  16.930   6.453
10039POPC   C2B63956  36.733  16.908   6.753
10039POPC   C3B63957  36.711  16.956   7.053
10039POPC   C4B63958  36.796  16.969   7.353
10040POPC   NC363959   5.902   6.643   5.553
10040POPC   PO463960   5.840   6.603   5.853
10040POPC   GL163961   5.906   6.684   6.153
10040POPC   GL263962   5.985   6.545   6.153
10040POPC   C1A63963   5.855   6.596   6.453
10040POPC   D2A63964   5.898   6.597   6.753
10040POPC   C3A63965   5.910   6.692   7.053
10040POPC   C4A63966   5.917   6.658   7.353
10040POPC   C1B63967   6.000   6.457   6.453
10040POPC   C2B63968   6.088   6.455   6.753
10040POPC   C3B63969   6.085   6.479   7.053
10040POPC   C4B63970   6.058   6.496   7.353
10041POPC   NC363971  42.306  42.325   5.553
10041POPC   PO463972  42.337  42.383   5.853
10041POPC   GL163973  42.367  42.376   6.153
10041POPC   GL263974  42.314  42.251   6.153
10041POPC   C1A63975  42.334  42.290   6.453
10041POPC   D2A63976  42.373  42.383   6.753
10041POPC   C3A63977  42.384  42.297   7.053
10041POPC   C4A63978  42.310  42.342   7.353
10041POPC   C1B63979  42.416  42.092   6.453
10041POPC   C2B63980  42.368  42.111   6.753
10041POPC   C3B63981  42.364  42.052   7.053
10041POPC   C4B63982  42.403  42.041   7.353
10042POPC   NC363983  19.065  10.519   5.553
10042POPC   PO463984  19.088  10.535   5.853
10042POPC   GL163985  19.087  10.539   6.153
10042POPC   GL263986  18.908  10.472   6.153
10042POPC   C1A63987  19.018  10.491   6.453
10042POPC   D2A63988  19.065  10.481   6.753
10042POPC   C3A63989  19.019  10.474   7.053
10042POPC   C4A63990  19.061  10.549   7.353
10042POPC   C1B63991  18.865  10.475   6.453
10042POPC   C2B63992  18.835  10.488   6.753
10042POPC   C3B63993  18.824  10.422   7.053
10042POPC   C4B63994  18.856  10.490   7.353
10043POPC   NC363995   7.438  25.233   5.553
10043POPC   PO463996   7.392  25.250   5.853
10043POPC   GL163997   7.432  25.224   6.153
10043POPC   GL263998   7.564  25.305   6.153
10043POPC   C1A63999   7.457  25.309   6.453
10043POPC   D2A64000   7.427  25.219   6.753
10043POPC   C3A64001   7.455  25.251   7.053
10043POPC   C4A64002   7.420  25.226   7.353
10043POPC   C1B64003   7.589  25.390   6.453
10043POPC   C2B64004   7.604  25.448   6.753
10043POPC   C3B64005   7.611  25.384   7.053
10043POPC   C4B64006   7.614  25.380   7.353
10044POPC   NC364007   2.724  29.174   5.553
10044POPC   PO464008   2.789  29.165   5.853
10044POPC   GL164009   2.736  29.186   6.153
10044POPC   GL264010   2.931  29.144   6.153
10044POPC   C1A64011   2.777  29.132   6.453
10044POPC   D2A64012   2.810  29.169   6.753
10044POPC   C3A64013   2.777  29.109   7.053
10044POPC   C4A64014   2.759  29.157   7.353
10044POPC   C1B64015   3.010  29.097   6.453
10044POPC   C2B64016   3.033  29.090   6.753
10044POPC   C3B64017   2.984  29.064   7.053
10044POPC   C4B64018   3.053  29.100   7.353
10045POPC   NC364019  32.246  37.631   5.553
10045POPC   PO464020  32.282  37.683   5.853
10045POPC   GL164021  32.294  37.637   6.153
10045POPC   GL264022  32.391  37.758   6.153
10045POPC   C1A64023  32.235  37.673   6.453
10045POPC   D2A64024  32.228  37.722   6.753
10045POPC   C3A64025  32.202  37.688   7.053
10045POPC   C4A64026  32.221  37.687   7.353
10045POPC   C1B64027  32.406  37.794   6.453
10045POPC   C2B64028  32.463  37.838   6.753
10045POPC   C3B64029  32.432  37.870   7.053
10045POPC   C4B64030  32.463  37.828   7.353
10046POPC   NC364031  10.525  33.762   5.553
10046POPC   PO464032  10.490  33.799   5.853
10046POPC   GL164033  10.482  33.815   6.153
10046POPC   GL264034  10.502  33.899   6.153
10046POPC   C1A64035  10.476  33.812   6.453
10046POPC   D2A64036  10.505  33.821   6.753
10046POPC   C3A64037  10.562  33.769   7.053
10046POPC   C4A64038  10.561  33.843   7.353
10046POPC   C1B64039  10.550  34.047   6.453
10046POPC   C2B64040  10.601  34.027   6.753
10046POPC   C3B64041  10.534  34.034   7.053
10046POPC   C4B64042  10.514  34.015   7.353
10047POPC   NC364043  43.888  26.814   5.553
10047POPC   PO464044  43.897  26.830   5.853
10047POPC   GL164045  43.894  26.772   6.153
10047POPC   GL264046  43.780  26.716   6.153
10047POPC   C1A64047  43.883  26.799   6.453
10047POPC   D2A64048  43.871  26.833   6.753
10047POPC   C3A64049  43.848  26.816   7.053
10047POPC   C4A64050  43.909  26.861   7.353
10047POPC   C1B64051  43.699  26.676   6.453
10047POPC   C2B64052  43.713  26.749   6.753
10047POPC   C3B64053  43.668  26.668   7.053
10047POPC   C4B64054  43.644  26.713   7.353
10048POPC   NC364055  15.913  10.519   5.553
10048POPC   PO464056  15.942  10.515   5.853
10048POPC   GL164057  15.932  10.543   6.153
10048POPC   GL264058  16.019  10.616   6.153
10048POPC   C1A64059  15.923  10.511   6.453
10048POPC   D2A64060  15.908  10.568   6.753
10048POPC   C3A64061  15.923  10.521   7.053
10048POPC   C4A64062  15.957  10.565   7.353
10048POPC   C1B64063  16.130  10.763   6.453
10048POPC   C2B64064  16.044  10.776   6.753
10048POPC   C3B64065  16.083  10.694   7.053
10048POPC   C4B64066  16.049  10.748   7.353
10049POPC   NC364067  36.917  14.368   5.553
10049POPC   PO464068  36.862  14.435   5.853
10049POPC   GL164069  36.910  14.435   6.153
10049POPC   GL264070  36.805  14.469   6.153
10049POPC   C1A64071  36.871  14.408   6.453
10049POPC   D2A64072  36.874  14.367   6.753
10049POPC   C3A64073  36.944  14.370   7.053
10049POPC   C4A64074  36.921  14.410   7.353
10049POPC   C1B64075  36.676  14.548   6.453
10049POPC   C2B64076  36.734  14.578   6.753
10049POPC   C3B64077  36.704  14.525   7.053
10049POPC   C4B64078  36.708  14.599   7.353
10050POPC   NC364079  41.566   1.976   5.553
10050POPC   PO464080  41.538   1.962   5.853
10050POPC   GL164081  41.601   1.992   6.153
10050POPC   GL264082  41.525   2.088   6.153
10050POPC   C1A64083  41.593   1.951   6.453
10050POPC   D2A64084  41.544   2.001   6.753
10050POPC   C3A64085  41.529   2.009   7.053
10050POPC   C4A64086  41.592   2.001   7.353
10050POPC   C1B64087  41.461   2.202   6.453
10050POPC   C2B64088  41.418   2.180   6.753
10050POPC   C3B64089  41.465   2.238   7.053
10050POPC   C4B64090  41.425   2.195   7.353
10051POPC   NC364091  29.156  22.131   5.553
10051POPC   PO464092  29.135  22.157   5.853
10051POPC   GL164093  29.136  22.140   6.153
10051POPC   GL264094  29.095  22.237   6.153
10051POPC   C1A64095  29.117  22.183   6.453
10051POPC   D2A64096  29.155  22.181   6.753
10051POPC   C3A64097  29.161  22.164   7.053
10051POPC   C4A64098  29.181  22.154   7.353
10051POPC   C1B64099  29.067  22.367   6.453
10051POPC   C2B64100  29.024  22.408   6.753
10051POPC   C3B64101  29.065  22.391   7.053
10051POPC   C4B64102  28.983  22.423   7.353
10052POPC   NC364103  42.310  44.638   5.553
10052POPC   PO464104  42.324  44.617   5.853
10052POPC   GL164105  42.292  44.658   6.153
10052POPC   GL264106  42.313  44.526   6.153
10052POPC   C1A64107  42.341  44.675   6.453
10052POPC   D2A64108  42.329  44.688   6.753
10052POPC   C3A64109  42.348  44.647   7.053
10052POPC   C4A64110  42.362  44.632   7.353
10052POPC   C1B64111  42.176  44.407   6.453
10052POPC   C2B64112  42.209  44.458   6.753
10052POPC   C3B64113  42.215  44.409   7.053
10052POPC   C4B64114  42.266  44.451   7.353
10053POPC   NC364115  18.309  36.167   5.553
10053POPC   PO464116  18.239  36.172   5.853
10053POPC   GL164117  18.307  36.125   6.153
10053POPC   GL264118  18.261  36.060   6.153
10053POPC   C1A64119  18.308  36.161   6.453
10053POPC   D2A64120  18.264  36.142   6.753
10053POPC   C3A64121  18.296  36.135   7.053
10053POPC   C4A64122  18.312  36.093   7.353
10053POPC   C1B64123  18.111  35.948   6.453
10053POPC   C2B64124  18.149  35.969   6.753
10053POPC   C3B64125  18.169  35.910   7.053
10053POPC   C4B64126  18.136  35.881   7.353
10054POPC   NC364127  36.866  22.973   5.553
10054POPC   PO464128  36.879  22.904   5.853
10054POPC   GL164129  36.866  22.986   6.153
10054POPC   GL264130  36.834  22.816   6.153
10054POPC   C1A64131  36.866  22.929   6.453
10054POPC   D2A64132  36.889  22.944   6.753
10054POPC   C3A64133  36.886  22.928   7.053
10054POPC   C4A64134  36.913  22.963   7.353
10054POPC   C1B64135  36.739  22.751   6.453
10054POPC   C2B64136  36.755  22.770   6.753
10054POPC   C3B64137  36.713  22.770   7.053
10054POPC   C4B64138  36.718  22.763   7.353
10055POPC   NC364139  23.694  43.848   5.553
10055POPC   PO464140  23.668  43.903   5.853
10055POPC   GL164141  23.695  43.844   6.153
10055POPC   GL264142  23.645  43.755   6.153
10055POPC   C1A64143  23.671  43.911   6.453
10055POPC   D2A64144  23.748  43.866   6.753
10055POPC   C3A64145  23.667  43.865   7.053
10055POPC   C4A64146  23.731  43.839   7.353
10055POPC   C1B64147  23.641  43.633   6.453
10055POPC   C2B64148  23.628  43.677   6.753
10055POPC   C3B64149  23.634  43.698   7.053
10055POPC   C4B64150  23.651  43.630   7.353
10056POPC   NC364151  24.515  41.543   5.553
10056POPC   PO464152  24.455  41.599   5.853
10056POPC   GL164153  24.479  41.527   6.153
10056POPC   GL264154  24.565  41.698   6.153
10056POPC   C1A64155  24.497  41.555   6.453
10056POPC   D2A64156  24.483  41.529   6.753
10056POPC   C3A64157  24.537  41.559   7.053
10056POPC   C4A64158  24.450  41.554   7.353
10056POPC   C1B64159  24.597  41.799   6.453
10056POPC   C2B64160  24.608  41.791   6.753
10056POPC   C3B64161  24.647  41.738   7.053
10056POPC   C4B64162  24.662  41.741   7.353
10057POPC   NC364163  35.369  23.688   5.553
10057POPC   PO464164  35.345  23.733   5.853
10057POPC   GL164165  35.330  23.690   6.153
10057POPC   GL264166  35.308  23.815   6.153
10057POPC   C1A64167  35.314  23.698   6.453
10057POPC   D2A64168  35.311  23.709   6.753
10057POPC   C3A64169  35.317  23.668   7.053
10057POPC   C4A64170  35.318  23.736   7.353
10057POPC   C1B64171  35.339  23.993   6.453
10057POPC   C2B64172  35.331  24.000   6.753
10057POPC   C3B64173  35.245  23.985   7.053
10057POPC   C4B64174  35.323  24.005   7.353
10058POPC   NC364175  25.243  34.532   5.553
10058POPC   PO464176  25.273  34.536   5.853
10058POPC   GL164177  25.226  34.532   6.153
10058POPC   GL264178  25.241  34.704   6.153
10058POPC   C1A64179  25.259  34.580   6.453
10058POPC   D2A64180  25.291  34.625   6.753
10058POPC   C3A64181  25.296  34.620   7.053
10058POPC   C4A64182  25.217  34.572   7.353
10058POPC   C1B64183  25.352  34.808   6.453
10058POPC   C2B64184  25.280  34.824   6.753
10058POPC   C3B64185  25.287  34.774   7.053
10058POPC   C4B64186  25.261  34.795   7.353
10059POPC   NC364187  40.804  43.882   5.553
10059POPC   PO464188  40.823  43.875   5.853
10059POPC   GL164189  40.748  43.852   6.153
10059POPC   GL264190  40.902  43.994   6.153
10059POPC   C1A64191  40.733  43.878   6.453
10059POPC   D2A64192  40.825  43.920   6.753
10059POPC   C3A64193  40.740  43.911   7.053
10059POPC   C4A64194  40.750  43.930   7.353
10059POPC   C1B64195  41.001  44.017   6.453
10059POPC   C2B64196  40.955  44.093   6.753
10059POPC   C3B64197  40.979  44.085   7.053
10059POPC   C4B64198  41.005  44.096   7.353
10060POPC   NC364199  39.199  42.354   5.553
10060POPC   PO464200  39.208  42.373   5.853
10060POPC   GL164201  39.261  42.316   6.153
10060POPC   GL264202  39.116  42.470   6.153
10060POPC   C1A64203  39.207  42.313   6.453
10060POPC   D2A64204  39.270  42.345   6.753
10060POPC   C3A64205  39.235  42.289   7.053
10060POPC   C4A64206  39.281  42.321   7.353
10060POPC   C1B64207  39.096  42.506   6.453
10060POPC   C2B64208  39.108  42.527   6.753
10060POPC   C3B64209  39.135  42.518   7.053
10060POPC   C4B64210  39.123  42.592   7.353
10061POPC   NC364211   0.427  11.328   5.553
10061POPC   PO464212   0.453  11.268   5.853
10061POPC   GL164213   0.455  11.301   6.153
10061POPC   GL264214   0.448  11.134   6.153
10061POPC   C1A64215   0.426  11.284   6.453
10061POPC   D2A64216   0.454  11.278   6.753
10061POPC   C3A64217   0.406  11.289   7.053
10061POPC   C4A64218   0.449  11.276   7.353
10061POPC   C1B64219   0.537  11.048   6.453
10061POPC   C2B64220   0.475  11.090   6.753
10061POPC   C3B64221   0.470  11.098   7.053
10061POPC   C4B64222   0.455  11.095   7.353
10062POPC   NC364223  19.864   8.955   5.553
10062POPC   PO464224  19.869   8.983   5.853
10062POPC   GL164225  19.806   8.979   6.153
10062POPC   GL264226  19.919   9.117   6.153
10062POPC   C1A64227  19.791   8.994   6.453
10062POPC   D2A64228  19.835   8.983   6.753
10062POPC   C3A64229  19.790   8.947   7.053
10062POPC   C4A64230  19.874   8.948   7.353
10062POPC   C1B64231  19.933   9.169   6.453
10062POPC   C2B64232  19.910   9.198   6.753
10062POPC   C3B64233  19.951   9.252   7.053
10062POPC   C4B64234  19.901   9.200   7.353
10063POPC   NC364235  22.955  27.618   5.553
10063POPC   PO464236  22.954  27.554   5.853
10063POPC   GL164237  22.902  27.632   6.153
10063POPC   GL264238  22.872  27.662   6.153
10063POPC   C1A64239  22.902  27.564   6.453
10063POPC   D2A64240  22.896  27.629   6.753
10063POPC   C3A64241  22.914  27.603   7.053
10063POPC   C4A64242  22.974  27.577   7.353
10063POPC   C1B64243  22.778  27.852   6.453
10063POPC   C2B64244  22.791  27.826   6.753
10063POPC   C3B64245  22.815  27.769   7.053
10063POPC   C4B64246  22.781  27.794   7.353
10064POPC   NC364247  22.964  19.873   5.553
10064POPC   PO464248  22.960  19.882   5.853
10064POPC   GL164249  22.982  19.851   6.153
10064POPC   GL264250  22.846  19.905   6.153
10064POPC   C1A64251  22.915  19.840   6.453
10064POPC   D2A64252  22.962  19.856   6.753
10064POPC   C3A64253  22.926  19.846   7.053
10064POPC   C4A64254  22.988  19.802   7.353
10064POPC   C1B64255  22.840  19.995   6.453
10064POPC   C2B64256  22.787  20.003   6.753
10064POPC   C3B64257  22.784  19.996   7.053
10064POPC   C4B64258  22.788  20.062   7.353
10065POPC   NC364259  34.533  36.931   5.553
10065POPC   PO464260  34.606  36.881   5.853
10065POPC   GL164261  34.599  36.936   6.153
10065POPC   GL264262  34.489  36.933   6.153
10065POPC   C1A64263  34.580  36.869   6.453
10065POPC   D2A64264  34.580  36.920   6.753
10065POPC   C3A64265  34.561  36.860   7.053
10065POPC   C4A64266  34.598  36.917   7.353
10065POPC   C1B64267  34.329  37.051   6.453
10065POPC   C2B64268  34.333  37.093   6.753
10065POPC   C3B64269  34.403  37.086   7.053
10065POPC   C4B64270  34.371  37.052   7.353
10066POPC   NC364271  30.709  28.386   5.553
10066POPC   PO464272  30.745  28.340   5.853
10066POPC   GL164273  30.709  28.391   6.153
10066POPC   GL264274  30.577  28.459   6.153
10066POPC   C1A64275  30.688  28.357   6.453
10066POPC   D2A64276  30.713  28.331   6.753
10066POPC   C3A64277  30.745  28.415   7.053
10066POPC   C4A64278  30.663  28.342   7.353
10066POPC   C1B64279  30.504  28.442   6.453
10066POPC   C2B64280  30.470  28.458   6.753
10066POPC   C3B64281  30.498  28.469   7.053
10066POPC   C4B64282  30.466  28.503   7.353
10067POPC   NC364283  43.067  30.677   5.553
10067POPC   PO464284  43.095  30.652   5.853
10067POPC   GL164285  43.085  30.695   6.153
10067POPC   GL264286  43.077  30.549   6.153
10067POPC   C1A64287  43.144  30.721   6.453
10067POPC   D2A64288  43.153  30.651   6.753
10067POPC   C3A64289  43.154  30.659   7.053
10067POPC   C4A64290  43.073  30.727   7.353
10067POPC   C1B64291  42.989  30.511   6.453
10067POPC   C2B64292  43.004  30.470   6.753
10067POPC   C3B64293  42.976  30.465   7.053
10067POPC   C4B64294  42.972  30.523   7.353
10068POPC   NC364295  34.557  22.925   5.553
10068POPC   PO464296  34.540  22.988   5.853
10068POPC   GL164297  34.602  22.957   6.153
10068POPC   GL264298  34.468  22.994   6.153
10068POPC   C1A64299  34.589  22.922   6.453
10068POPC   D2A64300  34.621  22.945   6.753
10068POPC   C3A64301  34.619  22.903   7.053
10068POPC   C4A64302  34.578  22.912   7.353
10068POPC   C1B64303  34.311  22.969   6.453
10068POPC   C2B64304  34.288  22.980   6.753
10068POPC   C3B64305  34.361  22.961   7.053
10068POPC   C4B64306  34.286  22.985   7.353
10069POPC   NC364307  39.957   7.451   5.553
10069POPC   PO464308  40.046   7.386   5.853
10069POPC   GL164309  40.033   7.452   6.153
10069POPC   GL264310  40.087   7.360   6.153
10069POPC   C1A64311  39.983   7.374   6.453
10069POPC   D2A64312  40.049   7.420   6.753
10069POPC   C3A64313  39.979   7.457   7.053
10069POPC   C4A64314  40.027   7.402   7.353
10069POPC   C1B64315  40.224   7.342   6.453
10069POPC   C2B64316  40.210   7.301   6.753
10069POPC   C3B64317  40.257   7.360   7.053
10069POPC   C4B64318  40.215   7.302   7.353
10070POPC   NC364319  38.438   2.014   5.553
10070POPC   PO464320  38.438   2.012   5.853
10070POPC   GL164321  38.431   1.962   6.153
10070POPC   GL264322  38.434   2.070   6.153
10070POPC   C1A64323  38.432   1.951   6.453
10070POPC   D2A64324  38.408   2.011   6.753
10070POPC   C3A64325  38.504   1.958   7.053
10070POPC   C4A64326  38.501   2.036   7.353
10070POPC   C1B64327  38.537   2.254   6.453
10070POPC   C2B64328  38.471   2.285   6.753
10070POPC   C3B64329  38.467   2.200   7.053
10070POPC   C4B64330  38.477   2.231   7.353
10071POPC   NC364331   7.457  33.753   5.553
10071POPC   PO464332   7.389  33.835   5.853
10071POPC   GL164333   7.377  33.845   6.153
10071POPC   GL264334   7.502  33.958   6.153
10071POPC   C1A64335   7.448  33.778   6.453
10071POPC   D2A64336   7.449  33.809   6.753
10071POPC   C3A64337   7.389  33.827   7.053
10071POPC   C4A64338   7.382  33.809   7.353
10071POPC   C1B64339   7.547  33.989   6.453
10071POPC   C2B64340   7.541  34.054   6.753
10071POPC   C3B64341   7.558  33.999   7.053
10071POPC   C4B64342   7.500  34.033   7.353
10072POPC   NC364343  26.785  40.002   5.553
10072POPC   PO464344  26.777  39.980   5.853
10072POPC   GL164345  26.823  39.968   6.153
10072POPC   GL264346  26.854  40.137   6.153
10072POPC   C1A64347  26.864  39.981   6.453
10072POPC   D2A64348  26.827  39.960   6.753
10072POPC   C3A64349  26.808  39.971   7.053
10072POPC   C4A64350  26.833  40.019   7.353
10072POPC   C1B64351  26.853  40.218   6.453
10072POPC   C2B64352  26.800  40.245   6.753
10072POPC   C3B64353  26.829  40.239   7.053
10072POPC   C4B64354  26.856  40.217   7.353
10073POPC   NC364355   0.463  15.971   5.553
10073POPC   PO464356   0.419  15.934   5.853
10073POPC   GL164357   0.404  15.944   6.153
10073POPC   GL264358   0.398  15.798   6.153
10073POPC   C1A64359   0.419  15.995   6.453
10073POPC   D2A64360   0.476  15.966   6.753
10073POPC   C3A64361   0.459  15.930   7.053
10073POPC   C4A64362   0.433  15.920   7.353
10073POPC   C1B64363   0.399  15.710   6.453
10073POPC   C2B64364   0.342  15.730   6.753
10073POPC   C3B64365   0.412  15.706   7.053
10073POPC   C4B64366   0.377  15.670   7.353
10074POPC   NC364367  29.173  40.790   5.553
10074POPC   PO464368  29.132  40.740   5.853
10074POPC   GL164369  29.187  40.788   6.153
10074POPC   GL264370  29.199  40.882   6.153
10074POPC   C1A64371  29.177  40.776   6.453
10074POPC   D2A64372  29.152  40.783   6.753
10074POPC   C3A64373  29.129  40.754   7.053
10074POPC   C4A64374  29.117  40.794   7.353
10074POPC   C1B64375  29.318  41.008   6.453
10074POPC   C2B64376  29.253  40.945   6.753
10074POPC   C3B64377  29.245  40.951   7.053
10074POPC   C4B64378  29.240  41.033   7.353
10075POPC   NC364379  43.082  10.502   5.553
10075POPC   PO464380  43.157  10.499   5.853
10075POPC   GL164381  43.069  10.574   6.153
10075POPC   GL264382  43.193  10.436   6.153
10075POPC   C1A64383  43.069  10.474   6.453
10075POPC   D2A64384  43.121  10.536   6.753
10075POPC   C3A64385  43.143  10.487   7.053
10075POPC   C4A64386  43.070  10.538   7.353
10075POPC   C1B64387  43.213  10.279   6.453
10075POPC   C2B64388  43.235  10.315   6.753
10075POPC   C3B64389  43.264  10.334   7.053
10075POPC   C4B64390  43.234  10.336   7.353
10076POPC   NC364391   1.195   7.415   5.553
10076POPC   PO464392   1.230   7.371   5.853
10076POPC   GL164393   1.189   7.447   6.153
10076POPC   GL264394   1.299   7.267   6.153
10076POPC   C1A64395   1.210   7.458   6.453
10076POPC   D2A64396   1.213   7.375   6.753
10076POPC   C3A64397   1.228   7.463   7.053
10076POPC   C4A64398   1.217   7.452   7.353
10076POPC   C1B64399   1.272   7.241   6.453
10076POPC   C2B64400   1.277   7.165   6.753
10076POPC   C3B64401   1.352   7.207   7.053
10076POPC   C4B64402   1.290   7.223   7.353
10077POPC   NC364403  40.821  22.899   5.553
10077POPC   PO464404  40.772  22.979   5.853
10077POPC   GL164405  40.755  22.931   6.153
10077POPC   GL264406  40.701  22.890   6.153
10077POPC   C1A64407  40.807  22.971   6.453
10077POPC   D2A64408  40.762  22.970   6.753
10077POPC   C3A64409  40.829  22.889   7.053
10077POPC   C4A64410  40.760  22.965   7.353
10077POPC   C1B64411  40.633  22.715   6.453
10077POPC   C2B64412  40.656  22.771   6.753
10077POPC   C3B64413  40.607  22.760   7.053
10077POPC   C4B64414  40.599  22.734   7.353
10078POPC   NC364415  21.386  36.125   5.553
10078POPC   PO464416  21.405  36.092   5.853
10078POPC   GL164417  21.406  36.082   6.153
10078POPC   GL264418  21.421  36.032   6.153
10078POPC   C1A64419  21.396  36.158   6.453
10078POPC   D2A64420  21.350  36.166   6.753
10078POPC   C3A64421  21.408  36.151   7.053
10078POPC   C4A64422  21.342  36.130   7.353
10078POPC   C1B64423  21.533  35.940   6.453
10078POPC   C2B64424  21.535  35.911   6.753
10078POPC   C3B64425  21.465  35.886   7.053
10078POPC   C4B64426  21.560  35.921   7.353
10079POPC   NC364427  18.257  31.450   5.553
10079POPC   PO464428  18.266  31.454   5.853
10079POPC   GL164429  18.314  31.499   6.153
10079POPC   GL264430  18.273  31.598   6.153
10079POPC   C1A64431  18.300  31.482   6.453
10079POPC   D2A64432  18.254  31.473   6.753
10079POPC   C3A64433  18.288  31.456   7.053
10079POPC   C4A64434  18.263  31.444   7.353
10079POPC   C1B64435  18.364  31.761   6.453
10079POPC   C2B64436  18.283  31.739   6.753
10079POPC   C3B64437  18.352  31.745   7.053
10079POPC   C4B64438  18.291  31.690   7.353
10080POPC   NC364439   3.578  39.253   5.553
10080POPC   PO464440   3.563  39.243   5.853
10080POPC   GL164441   3.566  39.218   6.153
10080POPC   GL264442   3.438  39.086   6.153
10080POPC   C1A64443   3.497  39.237   6.453
10080POPC   D2A64444   3.582  39.263   6.753
10080POPC   C3A64445   3.506  39.228   7.053
10080POPC   C4A64446   3.528  39.207   7.353
10080POPC   C1B64447   3.359  39.040   6.453
10080POPC   C2B64448   3.404  39.060   6.753
10080POPC   C3B64449   3.431  39.015   7.053
10080POPC   C4B64450   3.344  39.003   7.353
10081POPC   NC364451  36.113  22.194   5.553
10081POPC   PO464452  36.151  22.145   5.853
10081POPC   GL164453  36.082  22.131   6.153
10081POPC   GL264454  36.056  22.061   6.153
10081POPC   C1A64455  36.099  22.134   6.453
10081POPC   D2A64456  36.080  22.172   6.753
10081POPC   C3A64457  36.130  22.184   7.053
10081POPC   C4A64458  36.095  22.201   7.353
10081POPC   C1B64459  36.003  21.977   6.453
10081POPC   C2B64460  36.072  21.934   6.753
10081POPC   C3B64461  36.023  21.922   7.053
10081POPC   C4B64462  36.026  21.921   7.353
10082POPC   NC364463  12.841  15.151   5.553
10082POPC   PO464464  12.881  15.208   5.853
10082POPC   GL164465  12.894  15.190   6.153
10082POPC   GL264466  12.795  15.086   6.153
10082POPC   C1A64467  12.856  15.169   6.453
10082POPC   D2A64468  12.826  15.197   6.753
10082POPC   C3A64469  12.802  15.170   7.053
10082POPC   C4A64470  12.835  15.196   7.353
10082POPC   C1B64471  12.769  14.943   6.453
10082POPC   C2B64472  12.835  14.982   6.753
10082POPC   C3B64473  12.781  14.902   7.053
10082POPC   C4B64474  12.777  14.956   7.353
10083POPC   NC364475  16.777  38.473   5.553
10083POPC   PO464476  16.753  38.482   5.853
10083POPC   GL164477  16.708  38.422   6.153
10083POPC   GL264478  16.812  38.533   6.153
10083POPC   C1A64479  16.710  38.481   6.453
10083POPC   D2A64480  16.729  38.445   6.753
10083POPC   C3A64481  16.683  38.472   7.053
10083POPC   C4A64482  16.697  38.474   7.353
10083POPC   C1B64483  16.921  38.577   6.453
10083POPC   C2B64484  16.956  38.585   6.753
10083POPC   C3B64485  16.921  38.590   7.053
10083POPC   C4B64486  16.919  38.583   7.353
10084POPC   NC364487  13.645   3.566   5.553
10084POPC   PO464488  13.596   3.532   5.853
10084POPC   GL164489  13.613   3.558   6.153
10084POPC   GL264490  13.557   3.531   6.153
10084POPC   C1A64491  13.622   3.572   6.453
10084POPC   D2A64492  13.606   3.546   6.753
10084POPC   C3A64493  13.594   3.548   7.053
10084POPC   C4A64494  13.676   3.531   7.353
10084POPC   C1B64495  13.384   3.449   6.453
10084POPC   C2B64496  13.430   3.478   6.753
10084POPC   C3B64497  13.354   3.488   7.053
10084POPC   C4B64498  13.358   3.420   7.353
10085POPC   NC364499  29.147  34.585   5.553
10085POPC   PO464500  29.124  34.606   5.853
10085POPC   GL164501  29.100  34.536   6.153
10085POPC   GL264502  29.219  34.538   6.153
10085POPC   C1A64503  29.170  34.530   6.453
10085POPC   D2A64504  29.111  34.592   6.753
10085POPC   C3A64505  29.095  34.536   7.053
10085POPC   C4A64506  29.127  34.581   7.353
10085POPC   C1B64507  29.329  34.494   6.453
10085POPC   C2B64508  29.402  34.490   6.753
10085POPC   C3B64509  29.405  34.407   7.053
10085POPC   C4B64510  29.342  34.493   7.353
10086POPC   NC364511  23.763  26.808   5.553
10086POPC   PO464512  23.683  26.849   5.853
10086POPC   GL164513  23.747  26.770   6.153
10086POPC   GL264514  23.564  26.747   6.153
10086POPC   C1A64515  23.700  26.798   6.453
10086POPC   D2A64516  23.756  26.791   6.753
10086POPC   C3A64517  23.670  26.814   7.053
10086POPC   C4A64518  23.731  26.838   7.353
10086POPC   C1B64519  23.526  26.703   6.453
10086POPC   C2B64520  23.498  26.756   6.753
10086POPC   C3B64521  23.518  26.705   7.053
10086POPC   C4B64522  23.433  26.780   7.353
10087POPC   NC364523  17.479  23.759   5.553
10087POPC   PO464524  17.507  23.725   5.853
10087POPC   GL164525  17.512  23.725   6.153
10087POPC   GL264526  17.613  23.804   6.153
10087POPC   C1A64527  17.516  23.756   6.453
10087POPC   D2A64528  17.546  23.717   6.753
10087POPC   C3A64529  17.495  23.673   7.053
10087POPC   C4A64530  17.460  23.686   7.353
10087POPC   C1B64531  17.673  23.900   6.453
10087POPC   C2B64532  17.684  23.847   6.753
10087POPC   C3B64533  17.718  23.895   7.053
10087POPC   C4B64534  17.747  23.844   7.353
10088POPC   NC364535   2.730  43.098   5.553
10088POPC   PO464536   2.731  43.074   5.853
10088POPC   GL164537   2.722  43.072   6.153
10088POPC   GL264538   2.903  43.043   6.153
10088POPC   C1A64539   2.769  43.092   6.453
10088POPC   D2A64540   2.718  43.064   6.753
10088POPC   C3A64541   2.795  43.096   7.053
10088POPC   C4A64542   2.788  43.093   7.353
10088POPC   C1B64543   3.002  42.983   6.453
10088POPC   C2B64544   2.911  42.967   6.753
10088POPC   C3B64545   2.915  42.920   7.053
10088POPC   C4B64546   2.982  42.911   7.353
10089POPC   NC364547   7.439  34.545   5.553
10089POPC   PO464548   7.398  34.619   5.853
10089POPC   GL164549   7.375  34.620   6.153
10089POPC   GL264550   7.545  34.509   6.153
10089POPC   C1A64551   7.422  34.565   6.453
10089POPC   D2A64552   7.425  34.556   6.753
10089POPC   C3A64553   7.392  34.617   7.053
10089POPC   C4A64554   7.414  34.588   7.353
10089POPC   C1B64555   7.640  34.422   6.453
10089POPC   C2B64556   7.660  34.448   6.753
10089POPC   C3B64557   7.667  34.409   7.053
10089POPC   C4B64558   7.651  34.446   7.353
10090POPC   NC364559  10.498  27.598   5.553
10090POPC   PO464560  10.500  27.587   5.853
10090POPC   GL164561  10.500  27.628   6.153
10090POPC   GL264562  10.669  27.499   6.153
10090POPC   C1A64563  10.544  27.631   6.453
10090POPC   D2A64564  10.528  27.563   6.753
10090POPC   C3A64565  10.522  27.618   7.053
10090POPC   C4A64566  10.514  27.568   7.353
10090POPC   C1B64567  10.688  27.413   6.453
10090POPC   C2B64568  10.764  27.449   6.753
10090POPC   C3B64569  10.717  27.468   7.053
10090POPC   C4B64570  10.754  27.491   7.353
10091POPC   NC364571  31.435   0.401   5.553
10091POPC   PO464572  31.479   0.436   5.853
10091POPC   GL164573  31.454   0.461   6.153
10091POPC   GL264574  31.549   0.524   6.153
10091POPC   C1A64575  31.428   0.450   6.453
10091POPC   D2A64576  31.515   0.407   6.753
10091POPC   C3A64577  31.452   0.453   7.053
10091POPC   C4A64578  31.519   0.483   7.353
10091POPC   C1B64579  31.583   0.664   6.453
10091POPC   C2B64580  31.634   0.616   6.753
10091POPC   C3B64581  31.555   0.631   7.053
10091POPC   C4B64582  31.559   0.615   7.353
10092POPC   NC364583   8.974  21.367   5.553
10092POPC   PO464584   9.021  21.375   5.853
10092POPC   GL164585   8.929  21.342   6.153
10092POPC   GL264586   8.949  21.510   6.153
10092POPC   C1A64587   8.960  21.431   6.453
10092POPC   D2A64588   8.963  21.409   6.753
10092POPC   C3A64589   8.934  21.377   7.053
10092POPC   C4A64590   8.952  21.413   7.353
10092POPC   C1B64591   8.860  21.552   6.453
10092POPC   C2B64592   8.850  21.608   6.753
10092POPC   C3B64593   8.838  21.591   7.053
10092POPC   C4B64594   8.831  21.552   7.353
10093POPC   NC364595  25.257  27.618   5.553
10093POPC   PO464596  25.283  27.615   5.853
10093POPC   GL164597  25.240  27.585   6.153
10093POPC   GL264598  25.340  27.544   6.153
10093POPC   C1A64599  25.224  27.618   6.453
10093POPC   D2A64600  25.270  27.606   6.753
10093POPC   C3A64601  25.216  27.639   7.053
10093POPC   C4A64602  25.298  27.593   7.353
10093POPC   C1B64603  25.444  27.462   6.453
10093POPC   C2B64604  25.478  27.461   6.753
10093POPC   C3B64605  25.473  27.475   7.053
10093POPC   C4B64606  25.501  27.448   7.353
10094POPC   NC364607  20.575  22.139   5.553
10094POPC   PO464608  20.568  22.130   5.853
10094POPC   GL164609  20.585  22.123   6.153
10094POPC   GL264610  20.560  22.273   6.153
10094POPC   C1A64611  20.624  22.116   6.453
10094POPC   D2A64612  20.634  22.207   6.753
10094POPC   C3A64613  20.644  22.212   7.053
10094POPC   C4A64614  20.573  22.161   7.353
10094POPC   C1B64615  20.593  22.378   6.453
10094POPC   C2B64616  20.590  22.398   6.753
10094POPC   C3B64617  20.518  22.404   7.053
10094POPC   C4B64618  20.521  22.427   7.353
10095POPC   NC364619  38.489  17.525   5.553
10095POPC   PO464620  38.453  17.476   5.853
10095POPC   GL164621  38.476  17.557   6.153
10095POPC   GL264622  38.455  17.606   6.153
10095POPC   C1A64623  38.444  17.521   6.453
10095POPC   D2A64624  38.420  17.492   6.753
10095POPC   C3A64625  38.484  17.546   7.053
10095POPC   C4A64626  38.415  17.538   7.353
10095POPC   C1B64627  38.409  17.775   6.453
10095POPC   C2B64628  38.447  17.776   6.753
10095POPC   C3B64629  38.383  17.796   7.053
10095POPC   C4B64630  38.374  17.716   7.353
10096POPC   NC364631  33.797  26.828   5.553
10096POPC   PO464632  33.805  26.862   5.853
10096POPC   GL164633  33.795  26.829   6.153
10096POPC   GL264634  33.685  26.918   6.153
10096POPC   C1A64635  33.764  26.812   6.453
10096POPC   D2A64636  33.789  26.778   6.753
10096POPC   C3A64637  33.792  26.786   7.053
10096POPC   C4A64638  33.781  26.782   7.353
10096POPC   C1B64639  33.622  26.975   6.453
10096POPC   C2B64640  33.619  26.953   6.753
10096POPC   C3B64641  33.566  26.937   7.053
10096POPC   C4B64642  33.655  26.978   7.353
10097POPC   NC364643  26.788  10.538   5.553
10097POPC   PO464644  26.793  10.485   5.853
10097POPC   GL164645  26.773  10.557   6.153
10097POPC   GL264646  26.785  10.596   6.153
10097POPC   C1A64647  26.864  10.483   6.453
10097POPC   D2A64648  26.852  10.531   6.753
10097POPC   C3A64649  26.804  10.527   7.053
10097POPC   C4A64650  26.778  10.482   7.353
10097POPC   C1B64651  26.671  10.718   6.453
10097POPC   C2B64652  26.730  10.769   6.753
10097POPC   C3B64653  26.741  10.772   7.053
10097POPC   C4B64654  26.719  10.790   7.353
10098POPC   NC364655  43.874  33.845   5.553
10098POPC   PO464656  43.874  33.832   5.853
10098POPC   GL164657  43.863  33.751   6.153
10098POPC   GL264658  43.852  33.903   6.153
10098POPC   C1A64659  43.901  33.800   6.453
10098POPC   D2A64660  43.893  33.795   6.753
10098POPC   C3A64661  43.839  33.751   7.053
10098POPC   C4A64662  43.837  33.772   7.353
10098POPC   C1B64663  43.826  34.074   6.453
10098POPC   C2B64664  43.908  34.087   6.753
10098POPC   C3B64665  43.900  34.013   7.053
10098POPC   C4B64666  43.909  34.063   7.353
10099POPC   NC364667  15.948  20.620   5.553
10099POPC   PO464668  15.919  20.635   5.853
10099POPC   GL164669  15.928  20.628   6.153
10099POPC   GL264670  16.019  20.562   6.153
10099POPC   C1A64671  15.923  20.599   6.453
10099POPC   D2A64672  15.977  20.647   6.753
10099POPC   C3A64673  15.955  20.569   7.053
10099POPC   C4A64674  16.004  20.646   7.353
10099POPC   C1B64675  16.161  20.474   6.453
10099POPC   C2B64676  16.184  20.457   6.753
10099POPC   C3B64677  16.186  20.529   7.053
10099POPC   C4B64678  16.163  20.488   7.353
10100POPC   NC364679  34.528  18.261   5.553
10100POPC   PO464680  34.569  18.270   5.853
10100POPC   GL164681  34.532  18.253   6.153
10100POPC   GL264682  34.696  18.259   6.153
10100POPC   C1A64683  34.566  18.295   6.453
10100POPC   D2A64684  34.552  18.292   6.753
10100POPC   C3A64685  34.600  18.278   7.053
10100POPC   C4A64686  34.607  18.301   7.353
10100POPC   C1B64687  34.772  18.188   6.453
10100POPC   C2B64688  34.789  18.239   6.753
10100POPC   C3B64689  34.773  18.236   7.053
10100POPC   C4B64690  34.800  18.174   7.353
10101POPC   NC364691  17.465  20.639   5.553
10101POPC   PO464692  17.473  20.604   5.853
10101POPC   GL164693  17.556  20.588   6.153
10101POPC   GL264694  17.430  20.644   6.153
10101POPC   C1A64695  17.539  20.603   6.453
10101POPC   D2A64696  17.474  20.582   6.753
10101POPC   C3A64697  17.528  20.648   7.053
10101POPC   C4A64698  17.545  20.636   7.353
10101POPC   C1B64699  17.263  20.605   6.453
10101POPC   C2B64700  17.247  20.584   6.753
10101POPC   C3B64701  17.302  20.622   7.053
10101POPC   C4B64702  17.216  20.567   7.353
10102POPC   NC364703  41.540  22.127   5.553
10102POPC   PO464704  41.583  22.172   5.853
10102POPC   GL164705  41.511  22.145   6.153
10102POPC   GL264706  41.642  22.261   6.153
10102POPC   C1A64707  41.526  22.184   6.453
10102POPC   D2A64708  41.590  22.189   6.753
10102POPC   C3A64709  41.569  22.176   7.053
10102POPC   C4A64710  41.607  22.188   7.353
10102POPC   C1B64711  41.717  22.398   6.453
10102POPC   C2B64712  41.656  22.344   6.753
10102POPC   C3B64713  41.682  22.359   7.053
10102POPC   C4B64714  41.704  22.338   7.353
10103POPC   NC364715  44.642  21.385   5.553
10103POPC   PO464716  44.615  21.396   5.853
10103POPC   GL164717  44.699  21.399   6.153
10103POPC   GL264718  44.723  21.293   6.153
10103POPC   C1A64719  44.689  21.381   6.453
10103POPC   D2A64720  44.645  21.410   6.753
10103POPC   C3A64721  44.623  21.373   7.053
10103POPC   C4A64722  44.677  21.393   7.353
10103POPC   C1B64723  44.810  21.193   6.453
10103POPC   C2B64724  44.768  21.124   6.753
10103POPC   C3B64725  44.771  21.150   7.053
10103POPC   C4B64726  44.790  21.195   7.353
10104POPC   NC364727  29.172  29.962   5.553
10104POPC   PO464728  29.115  29.885   5.853
10104POPC   GL164729  29.190  29.872   6.153
10104POPC   GL264730  29.243  29.903   6.153
10104POPC   C1A64731  29.161  29.958   6.453
10104POPC   D2A64732  29.183  29.876   6.753
10104POPC   C3A64733  29.191  29.960   7.053
10104POPC   C4A64734  29.146  29.943   7.353
10104POPC   C1B64735  29.348  29.905   6.453
10104POPC   C2B64736  29.421  29.895   6.753
10104POPC   C3B64737  29.397  29.846   7.053
10104POPC   C4B64738  29.373  29.899   7.353
10105POPC   NC364739  40.027  39.266   5.553
10105POPC   PO464740  40.005  39.230   5.853
10105POPC   GL164741  40.051  39.229   6.153
10105POPC   GL264742  40.136  39.155   6.153
10105POPC   C1A64743  40.040  39.183   6.453
10105POPC   D2A64744  40.003  39.223   6.753
10105POPC   C3A64745  40.011  39.263   7.053
10105POPC   C4A64746  39.971  39.223   7.353
10105POPC   C1B64747  40.209  39.050   6.453
10105POPC   C2B64748  40.233  39.060   6.753
10105POPC   C3B64749  40.243  39.072   7.053
10105POPC   C4B64750  40.174  39.091   7.353
10106POPC   NC364751  16.739   2.779   5.553
10106POPC   PO464752  16.709   2.792   5.853
10106POPC   GL164753  16.693   2.797   6.153
10106POPC   GL264754  16.748   2.892   6.153
10106POPC   C1A64755  16.754   2.750   6.453
10106POPC   D2A64756  16.769   2.756   6.753
10106POPC   C3A64757  16.734   2.736   7.053
10106POPC   C4A64758  16.728   2.734   7.353
10106POPC   C1B64759  16.859   2.956   6.453
10106POPC   C2B64760  16.784   3.041   6.753
10106POPC   C3B64761  16.846   2.977   7.053
10106POPC   C4B64762  16.816   3.008   7.353
10107POPC   NC364763  33.774   8.239   5.553
10107POPC   PO464764  33.845   8.174   5.853
10107POPC   GL164765  33.846   8.193   6.153
10107POPC   GL264766  33.805   8.066   6.153
10107POPC   C1A64767  33.816   8.163   6.453
10107POPC   D2A64768  33.819   8.188   6.753
10107POPC   C3A64769  33.785   8.198   7.053
10107POPC   C4A64770  33.820   8.192   7.353
10107POPC   C1B64771  33.770   7.982   6.453
10107POPC   C2B64772  33.820   7.972   6.753
10107POPC   C3B64773  33.737   7.923   7.053
10107POPC   C4B64774  33.820   7.913   7.353
10108POPC   NC364775  21.380  29.937   5.553
10108POPC   PO464776  21.427  29.967   5.853
10108POPC   GL164777  21.388  29.892   6.153
10108POPC   GL264778  21.303  29.850   6.153
10108POPC   C1A64779  21.357  29.945   6.453
10108POPC   D2A64780  21.369  29.940   6.753
10108POPC   C3A64781  21.352  29.894   7.053
10108POPC   C4A64782  21.365  29.894   7.353
10108POPC   C1B64783  21.138  29.851   6.453
10108POPC   C2B64784  21.151  29.874   6.753
10108POPC   C3B64785  21.099  29.835   7.053
10108POPC   C4B64786  21.184  29.835   7.353
10109POPC   NC364787  27.561   9.732   5.553
10109POPC   PO464788  27.641   9.792   5.853
10109POPC   GL164789  27.577   9.775   6.153
10109POPC   GL264790  27.452   9.655   6.153
10109POPC   C1A64791  27.599   9.769   6.453
10109POPC   D2A64792  27.584   9.748   6.753
10109POPC   C3A64793  27.628   9.710   7.053
10109POPC   C4A64794  27.602   9.722   7.353
10109POPC   C1B64795  27.381   9.691   6.453
10109POPC   C2B64796  27.331   9.660   6.753
10109POPC   C3B64797  27.366   9.669   7.053
10109POPC   C4B64798  27.402   9.653   7.353
10110POPC   NC364799  29.159  18.275   5.553
10110POPC   PO464800  29.146  18.279   5.853
10110POPC   GL164801  29.153  18.248   6.153
10110POPC   GL264802  29.057  18.398   6.153
10110POPC   C1A64803  29.125  18.274   6.453
10110POPC   D2A64804  29.185  18.332   6.753
10110POPC   C3A64805  29.128  18.246   7.053
10110POPC   C4A64806  29.176  18.316   7.353
10110POPC   C1B64807  29.052  18.550   6.453
10110POPC   C2B64808  29.015  18.522   6.753
10110POPC   C3B64809  29.049  18.504   7.053
10110POPC   C4B64810  29.093  18.470   7.353
10111POPC   NC364811   7.409  19.855   5.553
10111POPC   PO464812   7.423  19.802   5.853
10111POPC   GL164813   7.459  19.829   6.153
10111POPC   GL264814   7.453  19.961   6.153
10111POPC   C1A64815   7.457  19.844   6.453
10111POPC   D2A64816   7.403  19.849   6.753
10111POPC   C3A64817   7.418  19.833   7.053
10111POPC   C4A64818   7.380  19.791   7.353
10111POPC   C1B64819   7.439  20.063   6.453
10111POPC   C2B64820   7.491  20.053   6.753
10111POPC   C3B64821   7.473  20.104   7.053
10111POPC   C4B64822   7.414  20.105   7.353
10112POPC   NC364823  12.900  37.644   5.553
10112POPC   PO464824  12.839  37.696   5.853
10112POPC   GL164825  12.868  37.642   6.153
10112POPC   GL264826  13.007  37.628   6.153
10112POPC   C1A64827  12.804  37.642   6.453
10112POPC   D2A64828  12.898  37.719   6.753
10112POPC   C3A64829  12.804  37.649   7.053
10112POPC   C4A64830  12.815  37.694   7.353
10112POPC   C1B64831  13.096  37.664   6.453
10112POPC   C2B64832  13.138  37.668   6.753
10112POPC   C3B64833  13.114  37.645   7.053
10112POPC   C4B64834  13.074  37.666   7.353
10113POPC   NC364835  25.272  20.631   5.553
10113POPC   PO464836  25.216  20.643   5.853
10113POPC   GL164837  25.287  20.584   6.153
10113POPC   GL264838  25.271  20.729   6.153
10113POPC   C1A64839  25.278  20.629   6.453
10113POPC   D2A64840  25.301  20.565   6.753
10113POPC   C3A64841  25.252  20.638   7.053
10113POPC   C4A64842  25.230  20.626   7.353
10113POPC   C1B64843  25.247  20.856   6.453
10113POPC   C2B64844  25.233  20.840   6.753
10113POPC   C3B64845  25.232  20.874   7.053
10113POPC   C4B64846  25.235  20.879   7.353
10114POPC   NC364847  21.363  26.087   5.553
10114POPC   PO464848  21.370  26.067   5.853
10114POPC   GL164849  21.355  26.047   6.153
10114POPC   GL264850  21.392  26.131   6.153
10114POPC   C1A64851  21.357  26.090   6.453
10114POPC   D2A64852  21.433  26.081   6.753
10114POPC   C3A64853  21.355  26.032   7.053
10114POPC   C4A64854  21.415  26.019   7.353
10114POPC   C1B64855  21.468  26.272   6.453
10114POPC   C2B64856  21.454  26.303   6.753
10114POPC   C3B64857  21.406  26.326   7.053
10114POPC   C4B64858  21.488  26.300   7.353
10115POPC   NC364859  21.371  23.704   5.553
10115POPC   PO464860  21.408  23.720   5.853
10115POPC   GL164861  21.358  23.724   6.153
10115POPC   GL264862  21.346  23.874   6.153
10115POPC   C1A64863  21.350  23.751   6.453
10115POPC   D2A64864  21.388  23.718   6.753
10115POPC   C3A64865  21.395  23.680   7.053
10115POPC   C4A64866  21.358  23.715   7.353
10115POPC   C1B64867  21.406  23.998   6.453
10115POPC   C2B64868  21.413  23.952   6.753
10115POPC   C3B64869  21.323  23.979   7.053
10115POPC   C4B64870  21.409  23.917   7.353
10116POPC   NC364871  40.011  21.426   5.553
10116POPC   PO464872  40.030  21.397   5.853
10116POPC   GL164873  40.045  21.422   6.153
10116POPC   GL264874  39.921  21.294   6.153
10116POPC   C1A64875  39.983  21.407   6.453
10116POPC   D2A64876  40.050  21.419   6.753
10116POPC   C3A64877  39.982  21.378   7.053
10116POPC   C4A64878  40.001  21.431   7.353
10116POPC   C1B64879  39.805  21.245   6.453
10116POPC   C2B64880  39.850  21.187   6.753
10116POPC   C3B64881  39.817  21.185   7.053
10116POPC   C4B64882  39.803  21.252   7.353
10117POPC   NC364883  15.916   1.194   5.553
10117POPC   PO464884  15.916   1.262   5.853
10117POPC   GL164885  15.996   1.210   6.153
10117POPC   GL264886  15.874   1.232   6.153
10117POPC   C1A64887  15.936   1.229   6.453
10117POPC   D2A64888  15.906   1.181   6.753
10117POPC   C3A64889  15.933   1.194   7.053
10117POPC   C4A64890  15.994   1.184   7.353
10117POPC   C1B64891  15.721   1.303   6.453
10117POPC   C2B64892  15.764   1.358   6.753
10117POPC   C3B64893  15.732   1.277   7.053
10117POPC   C4B64894  15.728   1.331   7.353
10118POPC   NC364895  22.978  10.517   5.553
10118POPC   PO464896  22.903  10.478   5.853
10118POPC   GL164897  22.913  10.561   6.153
10118POPC   GL264898  23.064  10.510   6.153
10118POPC   C1A64899  22.919  10.521   6.453
10118POPC   D2A64900  22.923  10.547   6.753
10118POPC   C3A64901  22.930  10.501   7.053
10118POPC   C4A64902  22.982  10.480   7.353
10118POPC   C1B64903  23.181  10.497   6.453
10118POPC   C2B64904  23.197  10.456   6.753
10118POPC   C3B64905  23.220  10.465   7.053
10118POPC   C4B64906  23.216  10.464   7.353
10119POPC   NC364907  22.144  32.239   5.553
10119POPC   PO464908  22.172  32.216   5.853
10119POPC   GL164909  22.208  32.206   6.153
10119POPC   GL264910  22.292  32.261   6.153
10119POPC   C1A64911  22.153  32.258   6.453
10119POPC   D2A64912  22.131  32.225   6.753
10119POPC   C3A64913  22.201  32.275   7.053
10119POPC   C4A64914  22.133  32.221   7.353
10119POPC   C1B64915  22.348  32.393   6.453
10119POPC   C2B64916  22.366  32.323   6.753
10119POPC   C3B64917  22.369  32.352   7.053
10119POPC   C4B64918  22.381  32.337   7.353
10120POPC   NC364919  21.391  19.079   5.553
10120POPC   PO464920  21.383  19.094   5.853
10120POPC   GL164921  21.371  19.056   6.153
10120POPC   GL264922  21.343  18.974   6.153
10120POPC   C1A64923  21.402  19.036   6.453
10120POPC   D2A64924  21.366  19.082   6.753
10120POPC   C3A64925  21.352  19.099   7.053
10120POPC   C4A64926  21.385  19.012   7.353
10120POPC   C1B64927  21.315  18.814   6.453
10120POPC   C2B64928  21.383  18.790   6.753
10120POPC   C3B64929  21.336  18.858   7.053
10120POPC   C4B64930  21.334  18.765   7.353
10121POPC   NC364931  15.186  26.833   5.553
10121POPC   PO464932  15.167  26.835   5.853
10121POPC   GL164933  15.213  26.831   6.153
10121POPC   GL264934  15.181  26.741   6.153
10121POPC   C1A64935  15.142  26.849   6.453
10121POPC   D2A64936  15.225  26.776   6.753
10121POPC   C3A64937  15.175  26.861   7.053
10121POPC   C4A64938  15.206  26.794   7.353
10121POPC   C1B64939  15.206  26.602   6.453
10121POPC   C2B64940  15.128  26.518   6.753
10121POPC   C3B64941  15.198  26.527   7.053
10121POPC   C4B64942  15.183  26.586   7.353
10122POPC   NC364943  34.537  12.124   5.553
10122POPC   PO464944  34.584  12.037   5.853
10122POPC   GL164945  34.618  12.026   6.153
10122POPC   GL264946  34.706  12.078   6.153
10122POPC   C1A64947  34.570  12.109   6.453
10122POPC   D2A64948  34.615  12.041   6.753
10122POPC   C3A64949  34.610  12.105   7.053
10122POPC   C4A64950  34.593  12.093   7.353
10122POPC   C1B64951  34.811  12.109   6.453
10122POPC   C2B64952  34.794  12.143   6.753
10122POPC   C3B64953  34.815  12.143   7.053
10122POPC   C4B64954  34.791  12.166   7.353
10123POPC   NC364955  41.532  36.079   5.553
10123POPC   PO464956  41.516  36.082   5.853
10123POPC   GL164957  41.521  36.123   6.153
10123POPC   GL264958  41.604  36.053   6.153
10123POPC   C1A64959  41.603  36.122   6.453
10123POPC   D2A64960  41.513  36.107   6.753
10123POPC   C3A64961  41.574  36.094   7.053
10123POPC   C4A64962  41.578  36.119   7.353
10123POPC   C1B64963  41.598  35.861   6.453
10123POPC   C2B64964  41.581  35.831   6.753
10123POPC   C3B64965  41.540  35.901   7.053
10123POPC   C4B64966  41.567  35.855   7.353
10124POPC   NC364967  20.569  35.390   5.553
10124POPC   PO464968  20.587  35.375   5.853
10124POPC   GL164969  20.651  35.356   6.153
10124POPC   GL264970  20.757  35.368   6.153
10124POPC   C1A64971  20.601  35.363   6.453
10124POPC   D2A64972  20.599  35.364   6.753
10124POPC   C3A64973  20.642  35.333   7.053
10124POPC   C4A64974  20.569  35.372   7.353
10124POPC   C1B64975  20.799  35.509   6.453
10124POPC   C2B64976  20.875  35.426   6.753
10124POPC   C3B64977  20.832  35.499   7.053
10124POPC   C4B64978  20.807  35.492   7.353
10125POPC   NC364979   1.263  15.923   5.553
10125POPC   PO464980   1.198  15.913   5.853
10125POPC   GL164981   1.257  15.965   6.153
10125POPC   GL264982   1.137  15.954   6.153
10125POPC   C1A64983   1.260  15.972   6.453
10125POPC   D2A64984   1.246  15.995   6.753
10125POPC   C3A64985   1.184  15.976   7.053
10125POPC   C4A64986   1.172  15.922   7.353
10125POPC   C1B64987   0.987  15.931   6.453
10125POPC   C2B64988   0.931  15.858   6.753
10125POPC   C3B64989   0.955  15.900   7.053
10125POPC   C4B64990   1.008  15.943   7.353
10126POPC   NC364991  12.893   5.056   5.553
10126POPC   PO464992  12.864   5.090   5.853
10126POPC   GL164993  12.895   5.099   6.153
10126POPC   GL264994  12.722   5.190   6.153
10126POPC   C1A64995  12.840   5.092   6.453
10126POPC   D2A64996  12.864   5.131   6.753
10126POPC   C3A64997  12.808   5.050   7.053
10126POPC   C4A64998  12.847   5.139   7.353
10126POPC   C1B64999  12.661   5.206   6.453
10126POPC   C2B65000  12.679   5.264   6.753
10126POPC   C3B65001  12.667   5.250   7.053
10126POPC   C4B65002  12.619   5.276   7.353
10127POPC   NC365003  17.468   3.557   5.553
10127POPC   PO465004  17.549   3.571   5.853
10127POPC   GL165005  17.496   3.528   6.153
10127POPC   GL265006  17.477   3.631   6.153
10127POPC   C1A65007  17.495   3.542   6.453
10127POPC   D2A65008  17.531   3.521   6.753
10127POPC   C3A65009  17.542   3.521   7.053
10127POPC   C4A65010  17.551   3.519   7.353
10127POPC   C1B65011  17.465   3.752   6.453
10127POPC   C2B65012  17.470   3.811   6.753
10127POPC   C3B65013  17.388   3.748   7.053
10127POPC   C4B65014  17.459   3.747   7.353
10128POPC   NC365015  10.478   2.736   5.553
10128POPC   PO465016  10.516   2.719   5.853
10128POPC   GL165017  10.571   2.741   6.153
10128POPC   GL265018  10.480   2.923   6.153
10128POPC   C1A65019  10.478   2.765   6.453
10128POPC   D2A65020  10.552   2.762   6.753
10128POPC   C3A65021  10.554   2.733   7.053
10128POPC   C4A65022  10.524   2.776   7.353
10128POPC   C1B65023  10.447   3.012   6.453
10128POPC   C2B65024  10.485   2.997   6.753
10128POPC   C3B65025  10.499   3.040   7.053
10128POPC   C4B65026  10.482   3.036   7.353
10129POPC   NC365027  24.478  40.810   5.553
10129POPC   PO465028  24.456  40.761   5.853
10129POPC   GL165029  24.450  40.789   6.153
10129POPC   GL265030  24.623  40.818   6.153
10129POPC   C1A65031  24.486  40.764   6.453
10129POPC   D2A65032  24.457  40.767   6.753
10129POPC   C3A65033  24.516  40.790   7.053
10129POPC   C4A65034  24.444  40.822   7.353
10129POPC   C1B65035  24.748  40.860   6.453
10129POPC   C2B65036  24.772  40.797   6.753
10129POPC   C3B65037  24.720  40.833   7.053
10129POPC   C4B65038  24.691  40.843   7.353
10130POPC   NC365039   0.460   9.796   5.553
10130POPC   PO465040   0.421   9.783   5.853
10130POPC   GL165041   0.402   9.794   6.153
10130POPC   GL265042   0.391   9.891   6.153
10130POPC   C1A65043   0.426   9.768   6.453
10130POPC   D2A65044   0.399   9.774   6.753
10130POPC   C3A65045   0.420   9.782   7.053
10130POPC   C4A65046   0.419   9.743   7.353
10130POPC   C1B65047   0.340   9.975   6.453
10130POPC   C2B65048   0.355   9.987   6.753
10130POPC   C3B65049   0.363  10.000   7.053
10130POPC   C4B65050   0.380   9.966   7.353
10131POPC   NC365051  24.483  43.875   5.553
10131POPC   PO465052  24.464  43.921   5.853
10131POPC   GL165053  24.449  43.903   6.153
10131POPC   GL265054  24.414  43.888   6.153
10131POPC   C1A65055  24.499  43.841   6.453
10131POPC   D2A65056  24.459  43.848   6.753
10131POPC   C3A65057  24.505  43.931   7.053
10131POPC   C4A65058  24.504  43.850   7.353
10131POPC   C1B65059  24.211  43.932   6.453
10131POPC   C2B65060  24.281  43.964   6.753
10131POPC   C3B65061  24.200  43.888   7.053
10131POPC   C4B65062  24.210  43.935   7.353
10132POPC   NC365063  31.445   5.862   5.553
10132POPC   PO465064  31.501   5.826   5.853
10132POPC   GL165065  31.458   5.885   6.153
10132POPC   GL265066  31.613   5.848   6.153
10132POPC   C1A65067  31.499   5.824   6.453
10132POPC   D2A65068  31.494   5.904   6.753
10132POPC   C3A65069  31.424   5.888   7.053
10132POPC   C4A65070  31.433   5.858   7.353
10132POPC   C1B65071  31.753   5.777   6.453
10132POPC   C2B65072  31.711   5.875   6.753
10132POPC   C3B65073  31.694   5.857   7.053
10132POPC   C4B65074  31.684   5.844   7.353
10133POPC   NC365075   2.024  44.619   5.553
10133POPC   PO465076   1.954  44.617   5.853
10133POPC   GL165077   2.002  44.662   6.153
10133POPC   GL265078   1.838  44.656   6.153
10133POPC   C1A65079   2.040  44.618   6.453
10133POPC   D2A65080   2.025  44.621   6.753
10133POPC   C3A65081   2.026  44.622   7.053
10133POPC   C4A65082   2.008  44.672   7.353
10133POPC   C1B65083   1.772  44.588   6.453
10133POPC   C2B65084   1.718  44.599   6.753
10133POPC   C3B65085   1.739  44.571   7.053
10133POPC   C4B65086   1.762  44.598   7.353
10134POPC   NC365087   5.059   6.637   5.553
10134POPC   PO465088   5.080   6.666   5.853
10134POPC   GL165089   5.057   6.596   6.153
10134POPC   GL265090   5.021   6.740   6.153
10134POPC   C1A65091   5.090   6.597   6.453
10134POPC   D2A65092   5.091   6.691   6.753
10134POPC   C3A65093   5.066   6.604   7.053
10134POPC   C4A65094   5.047   6.643   7.353
10134POPC   C1B65095   4.976   6.843   6.453
10134POPC   C2B65096   5.016   6.880   6.753
10134POPC   C3B65097   5.034   6.922   7.053
10134POPC   C4B65098   4.991   6.862   7.353
10135POPC   NC365099  36.171  18.233   5.553
10135POPC   PO465100  36.143  18.247   5.853
10135POPC   GL165101  36.160  18.295   6.153
10135POPC   GL265102  36.161  18.441   6.153
10135POPC   C1A65103  36.140  18.269   6.453
10135POPC   D2A65104  36.128  18.236   6.753
10135POPC   C3A65105  36.167  18.235   7.053
10135POPC   C4A65106  36.123  18.285   7.353
10135POPC   C1B65107  36.169  18.540   6.453
10135POPC   C2B65108  36.137  18.564   6.753
10135POPC   C3B65109  36.187  18.553   7.053
10135POPC   C4B65110  36.190  18.515   7.353
10136POPC   NC365111  17.481   1.235   5.553
10136POPC   PO465112  17.518   1.219   5.853
10136POPC   GL165113  17.546   1.261   6.153
10136POPC   GL265114  17.506   1.374   6.153
10136POPC   C1A65115  17.487   1.200   6.453
10136POPC   D2A65116  17.489   1.244   6.753
10136POPC   C3A65117  17.550   1.223   7.053
10136POPC   C4A65118  17.540   1.217   7.353
10136POPC   C1B65119  17.452   1.446   6.453
10136POPC   C2B65120  17.524   1.470   6.753
10136POPC   C3B65121  17.471   1.486   7.053
10136POPC   C4B65122  17.475   1.465   7.353
10137POPC   NC365123  30.691  40.789   5.553
10137POPC   PO465124  30.746  40.808   5.853
10137POPC   GL165125  30.723  40.742   6.153
10137POPC   GL265126  30.777  40.806   6.153
10137POPC   C1A65127  30.699  40.819   6.453
10137POPC   D2A65128  30.681  40.762   6.753
10137POPC   C3A65129  30.723  40.741   7.053
10137POPC   C4A65130  30.729  40.782   7.353
10137POPC   C1B65131  30.888  40.853   6.453
10137POPC   C2B65132  30.890  40.937   6.753
10137POPC   C3B65133  30.878  40.900   7.053
10137POPC   C4B65134  30.967  40.881   7.353
10138POPC   NC365135  18.333  37.651   5.553
10138POPC   PO465136  18.259  37.717   5.853
10138POPC   GL165137  18.279  37.647   6.153
10138POPC   GL265138  18.275  37.603   6.153
10138POPC   C1A65139  18.279  37.667   6.453
10138POPC   D2A65140  18.330  37.644   6.753
10138POPC   C3A65141  18.317  37.705   7.053
10138POPC   C4A65142  18.284  37.718   7.353
10138POPC   C1B65143  18.292  37.418   6.453
10138POPC   C2B65144  18.240  37.464   6.753
10138POPC   C3B65145  18.224  37.472   7.053
10138POPC   C4B65146  18.240  37.448   7.353
10139POPC   NC365147  36.922   7.430   5.553
10139POPC   PO465148  36.914   7.443   5.853
10139POPC   GL165149  36.931   7.431   6.153
10139POPC   GL265150  37.032   7.305   6.153
10139POPC   C1A65151  36.877   7.389   6.453
10139POPC   D2A65152  36.884   7.462   6.753
10139POPC   C3A65153  36.898   7.467   7.053
10139POPC   C4A65154  36.895   7.469   7.353
10139POPC   C1B65155  37.092   7.264   6.453
10139POPC   C2B65156  37.159   7.270   6.753
10139POPC   C3B65157  37.157   7.279   7.053
10139POPC   C4B65158  37.099   7.318   7.353
10140POPC   NC365159  28.394  33.068   5.553
10140POPC   PO465160  28.324  33.045   5.853
10140POPC   GL165161  28.372  33.011   6.153
10140POPC   GL265162  28.527  33.066   6.153
10140POPC   C1A65163  28.341  33.011   6.453
10140POPC   D2A65164  28.391  32.995   6.753
10140POPC   C3A65165  28.411  32.984   7.053
10140POPC   C4A65166  28.350  33.065   7.353
10140POPC   C1B65167  28.604  33.072   6.453
10140POPC   C2B65168  28.651  33.074   6.753
10140POPC   C3B65169  28.655  33.061   7.053
10140POPC   C4B65170  28.640  33.041   7.353
10141POPC   NC365171  16.752   9.703   5.553
10141POPC   PO465172  16.776   9.778   5.853
10141POPC   GL165173  16.753   9.731   6.153
10141POPC   GL265174  16.829   9.688   6.153
10141POPC   C1A65175  16.717   9.726   6.453
10141POPC   D2A65176  16.705   9.788   6.753
10141POPC   C3A65177  16.689   9.701   7.053
10141POPC   C4A65178  16.733   9.751   7.353
10141POPC   C1B65179  16.976   9.671   6.453
10141POPC   C2B65180  16.999   9.656   6.753
10141POPC   C3B65181  16.941   9.693   7.053
10141POPC   C4B65182  16.954   9.739   7.353
10142POPC   NC365183  44.628  42.357   5.553
10142POPC   PO465184  44.652  42.347   5.853
10142POPC   GL165185  44.664  42.354   6.153
10142POPC   GL265186  44.522  42.339   6.153
10142POPC   C1A65187  44.618  42.348   6.453
10142POPC   D2A65188  44.681  42.371   6.753
10142POPC   C3A65189  44.648  42.347   7.053
10142POPC   C4A65190  44.702  42.340   7.353
10142POPC   C1B65191  44.419  42.411   6.453
10142POPC   C2B65192  44.402  42.428   6.753
10142POPC   C3B65193  44.462  42.434   7.053
10142POPC   C4B65194  44.464  42.373   7.353
10143POPC   NC365195   2.810  12.040   5.553
10143POPC   PO465196   2.719  12.088   5.853
10143POPC   GL165197   2.778  12.112   6.153
10143POPC   GL265198   2.912  12.141   6.153
10143POPC   C1A65199   2.790  12.120   6.453
10143POPC   D2A65200   2.795  12.027   6.753
10143POPC   C3A65201   2.777  12.119   7.053
10143POPC   C4A65202   2.736  12.039   7.353
10143POPC   C1B65203   3.009  12.222   6.453
10143POPC   C2B65204   2.996  12.223   6.753
10143POPC   C3B65205   3.010  12.145   7.053
10143POPC   C4B65206   3.009  12.144   7.353
10144POPC   NC365207  26.080   2.754   5.553
10144POPC   PO465208  26.065   2.723   5.853
10144POPC   GL165209  26.041   2.813   6.153
10144POPC   GL265210  25.946   2.912   6.153
10144POPC   C1A65211  26.068   2.722   6.453
10144POPC   D2A65212  26.059   2.736   6.753
10144POPC   C3A65213  26.085   2.811   7.053
10144POPC   C4A65214  26.083   2.757   7.353
10144POPC   C1B65215  25.968   2.951   6.453
10144POPC   C2B65216  25.957   2.979   6.753
10144POPC   C3B65217  25.888   3.003   7.053
10144POPC   C4B65218  25.919   2.992   7.353
10145POPC   NC365219  10.484  26.863   5.553
10145POPC   PO465220  10.569  26.791   5.853
10145POPC   GL165221  10.517  26.788   6.153
10145POPC   GL265222  10.480  26.736   6.153
10145POPC   C1A65223  10.482  26.768   6.453
10145POPC   D2A65224  10.488  26.835   6.753
10145POPC   C3A65225  10.538  26.768   7.053
10145POPC   C4A65226  10.474  26.860   7.353
10145POPC   C1B65227  10.512  26.605   6.453
10145POPC   C2B65228  10.521  26.553   6.753
10145POPC   C3B65229  10.542  26.558   7.053
10145POPC   C4B65230  10.484  26.570   7.353
10146POPC   NC365231  39.972  35.337   5.553
10146POPC   PO465232  39.992  35.312   5.853
10146POPC   GL165233  40.044  35.334   6.153
10146POPC   GL265234  39.947  35.212   6.153
10146POPC   C1A65235  40.023  35.372   6.453
10146POPC   D2A65236  40.006  35.382   6.753
10146POPC   C3A65237  40.046  35.345   7.053
10146POPC   C4A65238  40.030  35.373   7.353
10146POPC   C1B65239  39.926  35.123   6.453
10146POPC   C2B65240  39.987  35.072   6.753
10146POPC   C3B65241  39.945  35.115   7.053
10146POPC   C4B65242  39.899  35.120   7.353
10147POPC   NC365243  19.099   1.196   5.553
10147POPC   PO465244  19.025   1.239   5.853
10147POPC   GL165245  19.021   1.237   6.153
10147POPC   GL265246  19.100   1.293   6.153
10147POPC   C1A65247  19.010   1.175   6.453
10147POPC   D2A65248  19.017   1.253   6.753
10147POPC   C3A65249  19.079   1.237   7.053
10147POPC   C4A65250  19.106   1.188   7.353
10147POPC   C1B65251  19.167   1.488   6.453
10147POPC   C2B65252  19.182   1.465   6.753
10147POPC   C3B65253  19.134   1.472   7.053
10147POPC   C4B65254  19.161   1.457   7.353
10148POPC   NC365255  14.437   7.426   5.553
10148POPC   PO465256  14.408   7.443   5.853
10148POPC   GL165257  14.375   7.445   6.153
10148POPC   GL265258  14.507   7.541   6.153
10148POPC   C1A65259  14.421   7.429   6.453
10148POPC   D2A65260  14.404   7.408   6.753
10148POPC   C3A65261  14.436   7.374   7.053
10148POPC   C4A65262  14.405   7.381   7.353
10148POPC   C1B65263  14.643   7.623   6.453
10148POPC   C2B65264  14.639   7.567   6.753
10148POPC   C3B65265  14.601   7.587   7.053
10148POPC   C4B65266  14.596   7.528   7.353
10149POPC   NC365267  12.878  34.592   5.553
10149POPC   PO465268  12.819  34.598   5.853
10149POPC   GL165269  12.895  34.592   6.153
10149POPC   GL265270  12.868  34.682   6.153
10149POPC   C1A65271  12.843  34.602   6.453
10149POPC   D2A65272  12.894  34.595   6.753
10149POPC   C3A65273  12.847  34.619   7.053
10149POPC   C4A65274  12.845  34.586   7.353
10149POPC   C1B65275  12.823  34.791   6.453
10149POPC   C2B65276  12.847  34.837   6.753
10149POPC   C3B65277  12.874  34.855   7.053
10149POPC   C4B65278  12.856  34.823   7.353
10150POPC   NC365279  30.732  27.615   5.553
10150POPC   PO465280  30.743  27.598   5.853
10150POPC   GL165281  30.729  27.588   6.153
10150POPC   GL265282  30.596  27.544   6.153
10150POPC   C1A65283  30.743  27.622   6.453
10150POPC   D2A65284  30.658  27.628   6.753
10150POPC   C3A65285  30.675  27.599   7.053
10150POPC   C4A65286  30.742  27.636   7.353
10150POPC   C1B65287  30.456  27.457   6.453
10150POPC   C2B65288  30.437  27.439   6.753
10150POPC   C3B65289  30.478  27.479   7.053
10150POPC   C4B65290  30.500  27.472   7.353
10151POPC   NC365291  19.054  39.990   5.553
10151POPC   PO465292  19.048  40.047   5.853
10151POPC   GL165293  19.065  40.031   6.153
10151POPC   GL265294  18.951  39.993   6.153
10151POPC   C1A65295  19.079  40.053   6.453
10151POPC   D2A65296  19.076  39.962   6.753
10151POPC   C3A65297  19.018  39.986   7.053
10151POPC   C4A65298  19.057  39.958   7.353
10151POPC   C1B65299  18.786  39.980   6.453
10151POPC   C2B65300  18.787  40.006   6.753
10151POPC   C3B65301  18.792  39.986   7.053
10151POPC   C4B65302  18.850  40.060   7.353
10152POPC   NC365303  29.108  24.535   5.553
10152POPC   PO465304  29.108  24.449   5.853
10152POPC   GL165305  29.154  24.497   6.153
10152POPC   GL265306  29.172  24.583   6.153
10152POPC   C1A65307  29.122  24.487   6.453
10152POPC   D2A65308  29.143  24.498   6.753
10152POPC   C3A65309  29.109  24.451   7.053
10152POPC   C4A65310  29.142  24.513   7.353
10152POPC   C1B65311  29.102  24.742   6.453
10152POPC   C2B65312  29.061  24.701   6.753
10152POPC   C3B65313  29.102  24.742   7.053
10152POPC   C4B65314  29.053  24.740   7.353
10153POPC   NC365315  40.032  26.783   5.553
10153POPC   PO465316  40.001  26.837   5.853
10153POPC   GL165317  39.959  26.819   6.153
10153POPC   GL265318  39.969  26.954   6.153
10153POPC   C1A65319  40.036  26.775   6.453
10153POPC   D2A65320  39.979  26.798   6.753
10153POPC   C3A65321  40.019  26.836   7.053
10153POPC   C4A65322  39.985  26.814   7.353
10153POPC   C1B65323  39.925  27.088   6.453
10153POPC   C2B65324  39.990  27.064   6.753
10153POPC   C3B65325  39.920  27.019   7.053
10153POPC   C4B65326  39.958  27.065   7.353
10154POPC   NC365327  13.579  34.552   5.553
10154POPC   PO465328  13.621  34.568   5.853
10154POPC   GL165329  13.608  34.539   6.153
10154POPC   GL265330  13.723  34.558   6.153
10154POPC   C1A65331  13.667  34.536   6.453
10154POPC   D2A65332  13.608  34.614   6.753
10154POPC   C3A65333  13.650  34.601   7.053
10154POPC   C4A65334  13.603  34.610   7.353
10154POPC   C1B65335  13.894  34.625   6.453
10154POPC   C2B65336  13.877  34.635   6.753
10154POPC   C3B65337  13.924  34.647   7.053
10154POPC   C4B65338  13.923  34.605   7.353
10155POPC   NC365339  35.326  24.492   5.553
10155POPC   PO465340  35.341  24.452   5.853
10155POPC   GL165341  35.349  24.455   6.153
10155POPC   GL265342  35.276  24.624   6.153
10155POPC   C1A65343  35.400  24.498   6.453
10155POPC   D2A65344  35.385  24.484   6.753
10155POPC   C3A65345  35.341  24.519   7.053
10155POPC   C4A65346  35.310  24.459   7.353
10155POPC   C1B65347  35.217  24.741   6.453
10155POPC   C2B65348  35.239  24.729   6.753
10155POPC   C3B65349  35.163  24.684   7.053
10155POPC   C4B65350  35.227  24.648   7.353
10156POPC   NC365351  12.048  36.937   5.553
10156POPC   PO465352  12.107  36.881   5.853
10156POPC   GL165353  12.039  36.887   6.153
10156POPC   GL265354  12.028  36.979   6.153
10156POPC   C1A65355  12.088  36.951   6.453
10156POPC   D2A65356  12.122  36.930   6.753
10156POPC   C3A65357  12.026  36.883   7.053
10156POPC   C4A65358  12.091  36.882   7.353
10156POPC   C1B65359  11.860  37.093   6.453
10156POPC   C2B65360  11.841  37.067   6.753
10156POPC   C3B65361  11.896  37.073   7.053
10156POPC   C4B65362  11.868  37.044   7.353
10157POPC   NC365363   9.008  35.360   5.553
10157POPC   PO465364   9.003  35.302   5.853
10157POPC   GL165365   8.992  35.373   6.153
10157POPC   GL265366   8.936  35.256   6.153
10157POPC   C1A65367   8.996  35.369   6.453
10157POPC   D2A65368   8.956  35.397   6.753
10157POPC   C3A65369   8.998  35.393   7.053
10157POPC   C4A65370   8.998  35.364   7.353
10157POPC   C1B65371   8.916  35.114   6.453
10157POPC   C2B65372   8.841  35.154   6.753
10157POPC   C3B65373   8.880  35.069   7.053
10157POPC   C4B65374   8.926  35.090   7.353
10158POPC   NC365375   0.412   5.080   5.553
10158POPC   PO465376   0.471   5.101   5.853
10158POPC   GL165377   0.414   5.114   6.153
10158POPC   GL265378   0.520   5.140   6.153
10158POPC   C1A65379   0.447   5.073   6.453
10158POPC   D2A65380   0.414   5.118   6.753
10158POPC   C3A65381   0.421   5.114   7.053
10158POPC   C4A65382   0.409   5.045   7.353
10158POPC   C1B65383   0.706   5.220   6.453
10158POPC   C2B65384   0.696   5.163   6.753
10158POPC   C3B65385   0.612   5.157   7.053
10158POPC   C4B65386   0.682   5.243   7.353
10159POPC   NC365387  19.067  26.056   5.553
10159POPC   PO465388  19.081  26.076   5.853
10159POPC   GL165389  19.089  26.043   6.153
10159POPC   GL265390  19.103  25.914   6.153
10159POPC   C1A65391  19.014  25.999   6.453
10159POPC   D2A65392  19.100  26.023   6.753
10159POPC   C3A65393  19.101  26.072   7.053
10159POPC   C4A65394  19.028  26.065   7.353
10159POPC   C1B65395  19.068  25.838   6.453
10159POPC   C2B65396  19.084  25.801   6.753
10159POPC   C3B65397  19.096  25.779   7.053
10159POPC   C4B65398  19.054  25.751   7.353
10160POPC   NC365399  16.721  18.314   5.553
10160POPC   PO465400  16.773  18.296   5.853
10160POPC   GL165401  16.732  18.300   6.153
10160POPC   GL265402  16.815  18.327   6.153
10160POPC   C1A65403  16.756  18.267   6.453
10160POPC   D2A65404  16.735  18.306   6.753
10160POPC   C3A65405  16.688  18.314   7.053
10160POPC   C4A65406  16.776  18.297   7.353
10160POPC   C1B65407  16.935  18.357   6.453
10160POPC   C2B65408  16.960  18.356   6.753
10160POPC   C3B65409  16.958  18.405   7.053
10160POPC   C4B65410  16.966  18.373   7.353
10161POPC   NC365411  22.945  28.348   5.553
10161POPC   PO465412  22.905  28.405   5.853
10161POPC   GL165413  22.895  28.357   6.153
10161POPC   GL265414  22.958  28.477   6.153
10161POPC   C1A65415  22.890  28.386   6.453
10161POPC   D2A65416  22.904  28.400   6.753
10161POPC   C3A65417  22.913  28.356   7.053
10161POPC   C4A65418  22.907  28.377   7.353
10161POPC   C1B65419  22.947  28.589   6.453
10161POPC   C2B65420  23.011  28.624   6.753
10161POPC   C3B65421  22.984  28.584   7.053
10161POPC   C4B65422  23.005  28.665   7.353
10162POPC   NC365423  35.381  18.242   5.553
10162POPC   PO465424  35.341  18.267   5.853
10162POPC   GL165425  35.304  18.243   6.153
10162POPC   GL265426  35.281  18.119   6.153
10162POPC   C1A65427  35.325  18.248   6.453
10162POPC   D2A65428  35.329  18.257   6.753
10162POPC   C3A65429  35.348  18.315   7.053
10162POPC   C4A65430  35.316  18.246   7.353
10162POPC   C1B65431  35.313  18.062   6.453
10162POPC   C2B65432  35.319  18.056   6.753
10162POPC   C3B65433  35.294  18.003   7.053
10162POPC   C4B65434  35.314  18.028   7.353
10163POPC   NC365435  29.149  33.787   5.553
10163POPC   PO465436  29.105  33.830   5.853
10163POPC   GL165437  29.139  33.759   6.153
10163POPC   GL265438  29.025  33.681   6.153
10163POPC   C1A65439  29.191  33.843   6.453
10163POPC   D2A65440  29.179  33.826   6.753
10163POPC   C3A65441  29.150  33.809   7.053
10163POPC   C4A65442  29.191  33.844   7.353
10163POPC   C1B65443  28.977  33.669   6.453
10163POPC   C2B65444  28.944  33.628   6.753
10163POPC   C3B65445  28.924  33.666   7.053
10163POPC   C4B65446  28.939  33.606   7.353
10164POPC   NC365447  15.915   1.968   5.553
10164POPC   PO465448  15.936   1.968   5.853
10164POPC   GL165449  15.976   1.985   6.153
10164POPC   GL265450  15.847   2.006   6.153
10164POPC   C1A65451  15.998   1.976   6.453
10164POPC   D2A65452  15.942   2.007   6.753
10164POPC   C3A65453  15.977   2.023   7.053
10164POPC   C4A65454  15.963   2.020   7.353
10164POPC   C1B65455  15.693   2.111   6.453
10164POPC   C2B65456  15.761   2.073   6.753
10164POPC   C3B65457  15.709   2.121   7.053
10164POPC   C4B65458  15.712   2.074   7.353
10165POPC   NC365459  15.909   8.976   5.553
10165POPC   PO465460  15.917   9.017   5.853
10165POPC   GL165461  15.992   8.932   6.153
10165POPC   GL265462  16.024   9.125   6.153
10165POPC   C1A65463  15.991   8.929   6.453
10165POPC   D2A65464  15.996   9.002   6.753
10165POPC   C3A65465  15.962   9.016   7.053
10165POPC   C4A65466  15.905   9.017   7.353
10165POPC   C1B65467  16.062   9.151   6.453
10165POPC   C2B65468  16.072   9.216   6.753
10165POPC   C3B65469  16.083   9.224   7.053
10165POPC   C4B65470  16.071   9.170   7.353
10166POPC   NC365471   8.932   7.410   5.553
10166POPC   PO465472   8.938   7.461   5.853
10166POPC   GL165473   8.961   7.410   6.153
10166POPC   GL265474   9.067   7.463   6.153
10166POPC   C1A65475   8.926   7.451   6.453
10166POPC   D2A65476   8.966   7.390   6.753
10166POPC   C3A65477   8.925   7.454   7.053
10166POPC   C4A65478   8.972   7.432   7.353
10166POPC   C1B65479   9.235   7.503   6.453
10166POPC   C2B65480   9.171   7.578   6.753
10166POPC   C3B65481   9.215   7.562   7.053
10166POPC   C4B65482   9.163   7.493   7.353
10167POPC   NC365483  27.625  26.803   5.553
10167POPC   PO465484  27.633  26.770   5.853
10167POPC   GL165485  27.608  26.834   6.153
10167POPC   GL265486  27.623  26.928   6.153
10167POPC   C1A65487  27.604  26.805   6.453
10167POPC   D2A65488  27.604  26.808   6.753
10167POPC   C3A65489  27.561  26.861   7.053
10167POPC   C4A65490  27.550  26.833   7.353
10167POPC   C1B65491  27.577  27.054   6.453
10167POPC   C2B65492  27.587  27.113   6.753
10167POPC   C3B65493  27.585  27.088   7.053
10167POPC   C4B65494  27.622  27.097   7.353
10168POPC   NC365495  15.144  35.355   5.553
10168POPC   PO465496  15.166  35.306   5.853
10168POPC   GL165497  15.208  35.352   6.153
10168POPC   GL265498  15.247  35.321   6.153
10168POPC   C1A65499  15.179  35.318   6.453
10168POPC   D2A65500  15.221  35.388   6.753
10168POPC   C3A65501  15.197  35.399   7.053
10168POPC   C4A65502  15.135  35.315   7.353
10168POPC   C1B65503  15.434  35.268   6.453
10168POPC   C2B65504  15.431  35.295   6.753
10168POPC   C3B65505  15.421  35.281   7.053
10168POPC   C4B65506  15.395  35.272   7.353
10169POPC   NC365507  15.193   3.553   5.553
10169POPC   PO465508  15.225   3.517   5.853
10169POPC   GL165509  15.130   3.553   6.153
10169POPC   GL265510  15.118   3.430   6.153
10169POPC   C1A65511  15.208   3.558   6.453
10169POPC   D2A65512  15.219   3.494   6.753
10169POPC   C3A65513  15.189   3.527   7.053
10169POPC   C4A65514  15.174   3.513   7.353
10169POPC   C1B65515  15.147   3.312   6.453
10169POPC   C2B65516  15.093   3.273   6.753
10169POPC   C3B65517  15.097   3.262   7.053
10169POPC   C4B65518  15.137   3.330   7.353
10170POPC   NC365519  12.855  43.137   5.553
10170POPC   PO465520  12.826  43.128   5.853
10170POPC   GL165521  12.850  43.102   6.153
10170POPC   GL265522  12.988  43.066   6.153
10170POPC   C1A65523  12.894  43.143   6.453
10170POPC   D2A65524  12.854  43.095   6.753
10170POPC   C3A65525  12.890  43.083   7.053
10170POPC   C4A65526  12.885  43.153   7.353
10170POPC   C1B65527  13.062  43.087   6.453
10170POPC   C2B65528  13.060  43.120   6.753
10170POPC   C3B65529  13.141  43.108   7.053
10170POPC   C4B65530  13.104  43.063   7.353
10171POPC   NC365531   7.383  26.780   5.553
10171POPC   PO465532   7.377  26.798   5.853
10171POPC   GL165533   7.377  26.769   6.153
10171POPC   GL265534   7.555  26.695   6.153
10171POPC   C1A65535   7.384  26.854   6.453
10171POPC   D2A65536   7.464  26.808   6.753
10171POPC   C3A65537   7.455  26.835   7.053
10171POPC   C4A65538   7.377  26.823   7.353
10171POPC   C1B65539   7.638  26.669   6.453
10171POPC   C2B65540   7.664  26.714   6.753
10171POPC   C3B65541   7.607  26.708   7.053
10171POPC   C4B65542   7.603  26.659   7.353
10172POPC   NC365543  20.574   0.390   5.553
10172POPC   PO465544  20.646   0.474   5.853
10172POPC   GL165545  20.601   0.468   6.153
10172POPC   GL265546  20.666   0.515   6.153
10172POPC   C1A65547  20.599   0.408   6.453
10172POPC   D2A65548  20.574   0.478   6.753
10172POPC   C3A65549  20.611   0.482   7.053
10172POPC   C4A65550  20.650   0.404   7.353
10172POPC   C1B65551  20.690   0.640   6.453
10172POPC   C2B65552  20.721   0.676   6.753
10172POPC   C3B65553  20.688   0.720   7.053
10172POPC   C4B65554  20.666   0.665   7.353
10173POPC   NC365555  13.674  23.704   5.553
10173POPC   PO465556  13.671  23.673   5.853
10173POPC   GL165557  13.635  23.759   6.153
10173POPC   GL265558  13.599  23.563   6.153
10173POPC   C1A65559  13.646  23.689   6.453
10173POPC   D2A65560  13.663  23.756   6.753
10173POPC   C3A65561  13.626  23.693   7.053
10173POPC   C4A65562  13.579  23.697   7.353
10173POPC   C1B65563  13.485  23.470   6.453
10173POPC   C2B65564  13.537  23.496   6.753
10173POPC   C3B65565  13.547  23.453   7.053
10173POPC   C4B65566  13.468  23.507   7.353
10174POPC   NC365567  30.681  40.055   5.553
10174POPC   PO465568  30.703  40.049   5.853
10174POPC   GL165569  30.656  40.015   6.153
10174POPC   GL265570  30.692  40.126   6.153
10174POPC   C1A65571  30.717  40.044   6.453
10174POPC   D2A65572  30.671  40.053   6.753
10174POPC   C3A65573  30.658  40.022   7.053
10174POPC   C4A65574  30.740  40.040   7.353
10174POPC   C1B65575  30.653  40.260   6.453
10174POPC   C2B65576  30.666  40.266   6.753
10174POPC   C3B65577  30.659  40.270   7.053
10174POPC   C4B65578  30.713  40.243   7.353
10175POPC   NC365579  20.590  23.692   5.553
10175POPC   PO465580  20.595  23.723   5.853
10175POPC   GL165581  20.597  23.729   6.153
10175POPC   GL265582  20.594  23.543   6.153
10175POPC   C1A65583  20.659  23.759   6.453
10175POPC   D2A65584  20.654  23.759   6.753
10175POPC   C3A65585  20.658  23.746   7.053
10175POPC   C4A65586  20.631  23.710   7.353
10175POPC   C1B65587  20.573  23.448   6.453
10175POPC   C2B65588  20.646  23.503   6.753
10175POPC   C3B65589  20.571  23.459   7.053
10175POPC   C4B65590  20.651  23.507   7.353
10176POPC   NC365591  37.711  30.672   5.553
10176POPC   PO465592  37.655  30.677   5.853
10176POPC   GL165593  37.701  30.670   6.153
10176POPC   GL265594  37.736  30.568   6.153
10176POPC   C1A65595  37.649  30.688   6.453
10176POPC   D2A65596  37.651  30.675   6.753
10176POPC   C3A65597  37.645  30.712   7.053
10176POPC   C4A65598  37.650  30.697   7.353
10176POPC   C1B65599  37.785  30.514   6.453
10176POPC   C2B65600  37.805  30.494   6.753
10176POPC   C3B65601  37.851  30.497   7.053
10176POPC   C4B65602  37.752  30.486   7.353
10177POPC   NC365603  25.237   1.187   5.553
10177POPC   PO465604  25.289   1.232   5.853
10177POPC   GL165605  25.250   1.177   6.153
10177POPC   GL265606  25.159   1.247   6.153
10177POPC   C1A65607  25.259   1.253   6.453
10177POPC   D2A65608  25.275   1.182   6.753
10177POPC   C3A65609  25.291   1.165   7.053
10177POPC   C4A65610  25.304   1.210   7.353
10177POPC   C1B65611  25.050   1.185   6.453
10177POPC   C2B65612  24.973   1.198   6.753
10177POPC   C3B65613  25.048   1.169   7.053
10177POPC   C4B65614  25.022   1.167   7.353
10178POPC   NC365615  11.283  36.879   5.553
10178POPC   PO465616  11.252  36.882   5.853
10178POPC   GL165617  11.262  36.929   6.153
10178POPC   GL265618  11.393  36.956   6.153
10178POPC   C1A65619  11.319  36.879   6.453
10178POPC   D2A65620  11.263  36.857   6.753
10178POPC   C3A65621  11.267  36.926   7.053
10178POPC   C4A65622  11.341  36.894   7.353
10178POPC   C1B65623  11.412  37.126   6.453
10178POPC   C2B65624  11.452  37.133   6.753
10178POPC   C3B65625  11.454  37.068   7.053
10178POPC   C4B65626  11.430  37.115   7.353
10179POPC   NC365627  31.505  30.662   5.553
10179POPC   PO465628  31.448  30.674   5.853
10179POPC   GL165629  31.465  30.731   6.153
10179POPC   GL265630  31.347  30.599   6.153
10179POPC   C1A65631  31.427  30.704   6.453
10179POPC   D2A65632  31.476  30.734   6.753
10179POPC   C3A65633  31.489  30.681   7.053
10179POPC   C4A65634  31.512  30.700   7.353
10179POPC   C1B65635  31.325  30.513   6.453
10179POPC   C2B65636  31.285  30.517   6.753
10179POPC   C3B65637  31.277  30.555   7.053
10179POPC   C4B65638  31.267  30.487   7.353
10180POPC   NC365639  39.237  29.130   5.553
10180POPC   PO465640  39.266  29.147   5.853
10180POPC   GL165641  39.268  29.134   6.153
10180POPC   GL265642  39.180  29.255   6.153
10180POPC   C1A65643  39.222  29.154   6.453
10180POPC   D2A65644  39.240  29.145   6.753
10180POPC   C3A65645  39.280  29.128   7.053
10180POPC   C4A65646  39.272  29.108   7.353
10180POPC   C1B65647  39.146  29.413   6.453
10180POPC   C2B65648  39.172  29.413   6.753
10180POPC   C3B65649  39.185  29.400   7.053
10180POPC   C4B65650  39.195  29.350   7.353
10181POPC   NC365651  39.218   3.507   5.553
10181POPC   PO465652  39.230   3.502   5.853
10181POPC   GL165653  39.205   3.560   6.153
10181POPC   GL265654  39.290   3.604   6.153
10181POPC   C1A65655  39.191   3.541   6.453
10181POPC   D2A65656  39.207   3.529   6.753
10181POPC   C3A65657  39.247   3.542   7.053
10181POPC   C4A65658  39.253   3.512   7.353
10181POPC   C1B65659  39.369   3.680   6.453
10181POPC   C2B65660  39.457   3.756   6.753
10181POPC   C3B65661  39.376   3.701   7.053
10181POPC   C4B65662  39.424   3.712   7.353
10182POPC   NC365663  44.621  26.082   5.553
10182POPC   PO465664  44.650  26.068   5.853
10182POPC   GL165665  44.662  26.002   6.153
10182POPC   GL265666  44.657  26.140   6.153
10182POPC   C1A65667  44.675  26.064   6.453
10182POPC   D2A65668  44.709  26.015   6.753
10182POPC   C3A65669  44.648  26.077   7.053
10182POPC   C4A65670  44.634  26.007   7.353
10182POPC   C1B65671  44.666  26.326   6.453
10182POPC   C2B65672  44.593  26.274   6.753
10182POPC   C3B65673  44.654  26.319   7.053
10182POPC   C4B65674  44.666  26.280   7.353
10183POPC   NC365675  34.551  15.999   5.553
10183POPC   PO465676  34.577  15.992   5.853
10183POPC   GL165677  34.554  15.967   6.153
10183POPC   GL265678  34.671  15.919   6.153
10183POPC   C1A65679  34.569  15.999   6.453
10183POPC   D2A65680  34.571  15.995   6.753
10183POPC   C3A65681  34.527  15.996   7.053
10183POPC   C4A65682  34.579  16.000   7.353
10183POPC   C1B65683  34.795  15.956   6.453
10183POPC   C2B65684  34.856  15.921   6.753
10183POPC   C3B65685  34.832  15.925   7.053
10183POPC   C4B65686  34.792  15.951   7.353
10184POPC   NC365687  27.639  34.575   5.553
10184POPC   PO465688  27.567  34.615   5.853
10184POPC   GL165689  27.584  34.548   6.153
10184POPC   GL265690  27.644  34.479   6.153
10184POPC   C1A65691  27.583  34.600   6.453
10184POPC   D2A65692  27.545  34.621   6.753
10184POPC   C3A65693  27.630  34.579   7.053
10184POPC   C4A65694  27.612  34.580   7.353
10184POPC   C1B65695  27.610  34.342   6.453
10184POPC   C2B65696  27.698  34.380   6.753
10184POPC   C3B65697  27.668  34.327   7.053
10184POPC   C4B65698  27.635  34.372   7.353
10185POPC   NC365699  37.729  39.205   5.553
10185POPC   PO465700  37.691  39.258   5.853
10185POPC   GL165701  37.639  39.231   6.153
10185POPC   GL265702  37.638  39.102   6.153
10185POPC   C1A65703  37.642  39.205   6.453
10185POPC   D2A65704  37.696  39.234   6.753
10185POPC   C3A65705  37.714  39.276   7.053
10185POPC   C4A65706  37.721  39.193   7.353
10185POPC   C1B65707  37.690  38.979   6.453
10185POPC   C2B65708  37.686  38.939   6.753
10185POPC   C3B65709  37.635  39.023   7.053
10185POPC   C4B65710  37.683  39.015   7.353
10186POPC   NC365711   8.963  18.284   5.553
10186POPC   PO465712   8.970  18.259   5.853
10186POPC   GL165713   8.970  18.273   6.153
10186POPC   GL265714   8.882  18.273   6.153
10186POPC   C1A65715   8.963  18.261   6.453
10186POPC   D2A65716   8.932  18.324   6.753
10186POPC   C3A65717   9.006  18.257   7.053
10186POPC   C4A65718   8.994  18.234   7.353
10186POPC   C1B65719   8.701  18.294   6.453
10186POPC   C2B65720   8.756  18.265   6.753
10186POPC   C3B65721   8.733  18.233   7.053
10186POPC   C4B65722   8.732  18.221   7.353
10187POPC   NC365723  40.048  29.909   5.553
10187POPC   PO465724  39.998  29.923   5.853
10187POPC   GL165725  40.046  29.944   6.153
10187POPC   GL265726  40.034  30.042   6.153
10187POPC   C1A65727  40.029  29.968   6.453
10187POPC   D2A65728  40.036  29.921   6.753
10187POPC   C3A65729  40.040  29.902   7.053
10187POPC   C4A65730  40.040  29.897   7.353
10187POPC   C1B65731  40.130  30.136   6.453
10187POPC   C2B65732  40.058  30.195   6.753
10187POPC   C3B65733  40.070  30.206   7.053
10187POPC   C4B65734  40.117  30.123   7.353
10188POPC   NC365735   4.287  19.790   5.553
10188POPC   PO465736   4.318  19.791   5.853
10188POPC   GL165737   4.340  19.855   6.153
10188POPC   GL265738   4.254  19.688   6.153
10188POPC   C1A65739   4.322  19.858   6.453
10188POPC   D2A65740   4.274  19.884   6.753
10188POPC   C3A65741   4.268  19.822   7.053
10188POPC   C4A65742   4.362  19.793   7.353
10188POPC   C1B65743   4.216  19.660   6.453
10188POPC   C2B65744   4.170  19.573   6.753
10188POPC   C3B65745   4.205  19.591   7.053
10188POPC   C4B65746   4.220  19.619   7.353
10189POPC   NC365747  19.800   2.010   5.553
10189POPC   PO465748  19.843   2.026   5.853
10189POPC   GL165749  19.847   1.972   6.153
10189POPC   GL265750  19.714   1.964   6.153
10189POPC   C1A65751  19.822   2.034   6.453
10189POPC   D2A65752  19.801   1.953   6.753
10189POPC   C3A65753  19.800   1.979   7.053
10189POPC   C4A65754  19.855   2.024   7.353
10189POPC   C1B65755  19.566   1.954   6.453
10189POPC   C2B65756  19.618   1.937   6.753
10189POPC   C3B65757  19.616   2.004   7.053
10189POPC   C4B65758  19.538   1.928   7.353
10190POPC   NC365759  27.551  23.727   5.553
10190POPC   PO465760  27.610  23.685   5.853
10190POPC   GL165761  27.590  23.713   6.153
10190POPC   GL265762  27.621  23.614   6.153
10190POPC   C1A65763  27.554  23.673   6.453
10190POPC   D2A65764  27.601  23.665   6.753
10190POPC   C3A65765  27.545  23.753   7.053
10190POPC   C4A65766  27.548  23.707   7.353
10190POPC   C1B65767  27.552  23.513   6.453
10190POPC   C2B65768  27.638  23.468   6.753
10190POPC   C3B65769  27.582  23.480   7.053
10190POPC   C4B65770  27.604  23.471   7.353
10191POPC   NC365771  30.738  29.144   5.553
10191POPC   PO465772  30.679  29.182   5.853
10191POPC   GL165773  30.678  29.107   6.153
10191POPC   GL265774  30.782  29.257   6.153
10191POPC   C1A65775  30.746  29.160   6.453
10191POPC   D2A65776  30.736  29.186   6.753
10191POPC   C3A65777  30.745  29.151   7.053
10191POPC   C4A65778  30.706  29.169   7.353
10191POPC   C1B65779  30.781  29.402   6.453
10191POPC   C2B65780  30.776  29.401   6.753
10191POPC   C3B65781  30.808  29.343   7.053
10191POPC   C4B65782  30.821  29.333   7.353
10192POPC   NC365783  22.913  42.321   5.553
10192POPC   PO465784  22.903  42.310   5.853
10192POPC   GL165785  22.985  42.288   6.153
10192POPC   GL265786  22.854  42.205   6.153
10192POPC   C1A65787  22.950  42.325   6.453
10192POPC   D2A65788  22.893  42.301   6.753
10192POPC   C3A65789  22.891  42.331   7.053
10192POPC   C4A65790  22.972  42.293   7.353
10192POPC   C1B65791  22.827  42.072   6.453
10192POPC   C2B65792  22.861  42.109   6.753
10192POPC   C3B65793  22.832  42.148   7.053
10192POPC   C4B65794  22.889  42.070   7.353
10193POPC   NC365795   1.981  41.597   5.553
10193POPC   PO465796   1.980  41.548   5.853
10193POPC   GL165797   1.974  41.596   6.153
10193POPC   GL265798   1.877  41.441   6.153
10193POPC   C1A65799   2.006  41.522   6.453
10193POPC   D2A65800   2.012  41.517   6.753
10193POPC   C3A65801   2.019  41.526   7.053
10193POPC   C4A65802   1.954  41.596   7.353
10193POPC   C1B65803   1.876  41.407   6.453
10193POPC   C2B65804   1.815  41.364   6.753
10193POPC   C3B65805   1.840  41.359   7.053
10193POPC   C4B65806   1.806  41.364   7.353
10194POPC   NC365807  17.506  19.014   5.553
10194POPC   PO465808  17.540  19.054   5.853
10194POPC   GL165809  17.510  19.102   6.153
10194POPC   GL265810  17.489  19.181   6.153
10194POPC   C1A65811  17.526  19.045   6.453
10194POPC   D2A65812  17.480  19.038   6.753
10194POPC   C3A65813  17.473  19.055   7.053
10194POPC   C4A65814  17.513  19.069   7.353
10194POPC   C1B65815  17.489  19.287   6.453
10194POPC   C2B65816  17.475  19.326   6.753
10194POPC   C3B65817  17.423  19.265   7.053
10194POPC   C4B65818  17.419  19.326   7.353
10195POPC   NC365819  39.975  41.523   5.553
10195POPC   PO465820  39.971  41.584   5.853
10195POPC   GL165821  39.993  41.575   6.153
10195POPC   GL265822  39.931  41.469   6.153
10195POPC   C1A65823  39.990  41.580   6.453
10195POPC   D2A65824  39.983  41.582   6.753
10195POPC   C3A65825  39.987  41.594   7.053
10195POPC   C4A65826  39.967  41.540   7.353
10195POPC   C1B65827  39.831  41.307   6.453
10195POPC   C2B65828  39.840  41.319   6.753
10195POPC   C3B65829  39.892  41.393   7.053
10195POPC   C4B65830  39.810  41.368   7.353
10196POPC   NC365831  43.847  36.868   5.553
10196POPC   PO465832  43.923  36.866   5.853
10196POPC   GL165833  43.836  36.920   6.153
10196POPC   GL265834  44.024  36.821   6.153
10196POPC   C1A65835  43.894  36.902   6.453
10196POPC   D2A65836  43.868  36.912   6.753
10196POPC   C3A65837  43.921  36.922   7.053
10196POPC   C4A65838  43.908  36.874   7.353
10196POPC   C1B65839  44.131  36.725   6.453
10196POPC   C2B65840  44.058  36.806   6.753
10196POPC   C3B65841  44.050  36.801   7.053
10196POPC   C4B65842  44.136  36.812   7.353
10197POPC   NC365843  32.990   5.915   5.553
10197POPC   PO465844  32.991   5.905   5.853
10197POPC   GL165845  33.069   5.826   6.153
10197POPC   GL265846  33.173   5.834   6.153
10197POPC   C1A65847  33.068   5.831   6.453
10197POPC   D2A65848  32.986   5.837   6.753
10197POPC   C3A65849  33.074   5.893   7.053
10197POPC   C4A65850  33.004   5.905   7.353
10197POPC   C1B65851  33.223   5.870   6.453
10197POPC   C2B65852  33.314   5.816   6.753
10197POPC   C3B65853  33.284   5.809   7.053
10197POPC   C4B65854  33.263   5.871   7.353
10198POPC   NC365855  16.769  40.742   5.553
10198POPC   PO465856  16.746  40.754   5.853
10198POPC   GL165857  16.681  40.759   6.153
10198POPC   GL265858  16.571  40.822   6.153
10198POPC   C1A65859  16.715  40.802   6.453
10198POPC   D2A65860  16.722  40.801   6.753
10198POPC   C3A65861  16.737  40.746   7.053
10198POPC   C4A65862  16.704  40.811   7.353
10198POPC   C1B65863  16.450  40.886   6.453
10198POPC   C2B65864  16.443  40.838   6.753
10198POPC   C3B65865  16.493  40.861   7.053
10198POPC   C4B65866  16.449  40.840   7.353
10199POPC   NC365867  43.842  40.818   5.553
10199POPC   PO465868  43.898  40.806   5.853
10199POPC   GL165869  43.928  40.774   6.153
10199POPC   GL265870  43.860  40.863   6.153
10199POPC   C1A65871  43.901  40.754   6.453
10199POPC   D2A65872  43.910  40.784   6.753
10199POPC   C3A65873  43.889  40.822   7.053
10199POPC   C4A65874  43.920  40.806   7.353
10199POPC   C1B65875  43.784  41.041   6.453
10199POPC   C2B65876  43.820  41.034   6.753
10199POPC   C3B65877  43.806  40.979   7.053
10199POPC   C4B65878  43.799  41.010   7.353
10200POPC   NC365879  26.852  12.036   5.553
10200POPC   PO465880  26.833  12.071   5.853
10200POPC   GL165881  26.821  12.029   6.153
10200POPC   GL265882  26.786  12.000   6.153
10200POPC   C1A65883  26.846  12.073   6.453
10200POPC   D2A65884  26.782  12.086   6.753
10200POPC   C3A65885  26.824  12.112   7.053
10200POPC   C4A65886  26.832  12.097   7.353
10200POPC   C1B65887  26.668  11.891   6.453
10200POPC   C2B65888  26.675  11.882   6.753
10200POPC   C3B65889  26.639  11.901   7.053
10200POPC   C4B65890  26.662  11.828   7.353
10201POPC   NC365891  43.901   6.603   5.553
10201POPC   PO465892  43.924   6.635   5.853
10201POPC   GL165893  43.916   6.651   6.153
10201POPC   GL265894  43.923   6.474   6.153
10201POPC   C1A65895  43.873   6.637   6.453
10201POPC   D2A65896  43.861   6.681   6.753
10201POPC   C3A65897  43.908   6.604   7.053
10201POPC   C4A65898  43.892   6.602   7.353
10201POPC   C1B65899  43.899   6.364   6.453
10201POPC   C2B65900  43.930   6.399   6.753
10201POPC   C3B65901  43.917   6.443   7.053
10201POPC   C4B65902  43.879   6.403   7.353
10202POPC   NC365903  42.291   3.522   5.553
10202POPC   PO465904  42.291   3.582   5.853
10202POPC   GL165905  42.299   3.580   6.153
10202POPC   GL265906  42.486   3.597   6.153
10202POPC   C1A65907  42.330   3.521   6.453
10202POPC   D2A65908  42.384   3.495   6.753
10202POPC   C3A65909  42.304   3.537   7.053
10202POPC   C4A65910  42.337   3.568   7.353
10202POPC   C1B65911  42.593   3.670   6.453
10202POPC   C2B65912  42.533   3.682   6.753
10202POPC   C3B65913  42.564   3.718   7.053
10202POPC   C4B65914  42.554   3.650   7.353
10203POPC   NC365915  29.894  43.909   5.553
10203POPC   PO465916  29.950  43.893   5.853
10203POPC   GL165917  29.879  43.923   6.153
10203POPC   GL265918  29.988  44.051   6.153
10203POPC   C1A65919  29.888  43.889   6.453
10203POPC   D2A65920  29.884  43.878   6.753
10203POPC   C3A65921  29.947  43.875   7.053
10203POPC   C4A65922  29.878  43.893   7.353
10203POPC   C1B65923  29.969  44.118   6.453
10203POPC   C2B65924  29.961  44.155   6.753
10203POPC   C3B65925  29.947  44.085   7.053
10203POPC   C4B65926  30.011  44.110   7.353
10204POPC   NC365927  12.879  23.715   5.553
10204POPC   PO465928  12.819  23.690   5.853
10204POPC   GL165929  12.809  23.682   6.153
10204POPC   GL265930  12.785  23.760   6.153
10204POPC   C1A65931  12.803  23.755   6.453
10204POPC   D2A65932  12.814  23.717   6.753
10204POPC   C3A65933  12.828  23.747   7.053
10204POPC   C4A65934  12.838  23.737   7.353
10204POPC   C1B65935  12.662  23.865   6.453
10204POPC   C2B65936  12.634  23.845   6.753
10204POPC   C3B65937  12.600  23.832   7.053
10204POPC   C4B65938  12.628  23.815   7.353
10205POPC   NC365939  22.207   2.035   5.553
10205POPC   PO465940  22.178   1.963   5.853
10205POPC   GL165941  22.146   1.993   6.153
10205POPC   GL265942  22.022   2.063   6.153
10205POPC   C1A65943  22.133   1.961   6.453
10205POPC   D2A65944  22.173   2.005   6.753
10205POPC   C3A65945  22.161   1.949   7.053
10205POPC   C4A65946  22.146   1.970   7.353
10205POPC   C1B65947  21.987   2.189   6.453
10205POPC   C2B65948  21.984   2.154   6.753
10205POPC   C3B65949  22.013   2.167   7.053
10205POPC   C4B65950  22.002   2.161   7.353
10206POPC   NC365951  15.934  27.556   5.553
10206POPC   PO465952  16.002  27.566   5.853
10206POPC   GL165953  15.994  27.592   6.153
10206POPC   GL265954  16.067  27.615   6.153
10206POPC   C1A65955  15.952  27.589   6.453
10206POPC   D2A65956  15.945  27.614   6.753
10206POPC   C3A65957  15.913  27.631   7.053
10206POPC   C4A65958  15.909  27.634   7.353
10206POPC   C1B65959  16.150  27.723   6.453
10206POPC   C2B65960  16.163  27.708   6.753
10206POPC   C3B65961  16.122  27.685   7.053
10206POPC   C4B65962  16.214  27.678   7.353
10207POPC   NC365963  30.658  26.089   5.553
10207POPC   PO465964  30.723  26.052   5.853
10207POPC   GL165965  30.723  25.998   6.153
10207POPC   GL265966  30.670  25.930   6.153
10207POPC   C1A65967  30.720  26.045   6.453
10207POPC   D2A65968  30.693  25.998   6.753
10207POPC   C3A65969  30.675  26.006   7.053
10207POPC   C4A65970  30.736  26.090   7.353
10207POPC   C1B65971  30.561  25.793   6.453
10207POPC   C2B65972  30.584  25.816   6.753
10207POPC   C3B65973  30.564  25.789   7.053
10207POPC   C4B65974  30.594  25.825   7.353
10208POPC   NC365975   5.054  29.138   5.553
10208POPC   PO465976   5.143  29.126   5.853
10208POPC   GL165977   5.078  29.149   6.153
10208POPC   GL265978   5.179  29.022   6.153
10208POPC   C1A65979   5.047  29.187   6.453
10208POPC   D2A65980   5.044  29.166   6.753
10208POPC   C3A65981   5.064  29.192   7.053
10208POPC   C4A65982   5.047  29.179   7.353
10208POPC   C1B65983   5.234  28.923   6.453
10208POPC   C2B65984   5.175  28.951   6.753
10208POPC   C3B65985   5.251  28.879   7.053
10208POPC   C4B65986   5.254  28.959   7.353
10209POPC   NC365987  17.544  29.191   5.553
10209POPC   PO465988  17.488  29.167   5.853
10209POPC   GL165989  17.506  29.169   6.153
10209POPC   GL265990  17.525  29.053   6.153
10209POPC   C1A65991  17.466  29.144   6.453
10209POPC   D2A65992  17.478  29.159   6.753
10209POPC   C3A65993  17.464  29.181   7.053
10209POPC   C4A65994  17.512  29.144   7.353
10209POPC   C1B65995  17.452  28.919   6.453
10209POPC   C2B65996  17.476  28.874   6.753
10209POPC   C3B65997  17.467  28.931   7.053
10209POPC   C4B65998  17.508  28.854   7.353
10210POPC   NC365999  43.080  11.257   5.553
10210POPC   PO466000  43.131  11.346   5.853
10210POPC   GL166001  43.065  11.329   6.153
10210POPC   GL266002  43.069  11.156   6.153
10210POPC   C1A66003  43.092  11.253   6.453
10210POPC   D2A66004  43.138  11.272   6.753
10210POPC   C3A66005  43.061  11.348   7.053
10210POPC   C4A66006  43.125  11.282   7.353
10210POPC   C1B66007  42.955  11.129   6.453
10210POPC   C2B66008  42.994  11.130   6.753
10210POPC   C3B66009  42.939  11.038   7.053
10210POPC   C4B66010  42.998  11.122   7.353
10211POPC   NC366011  25.998  22.940   5.553
10211POPC   PO466012  26.026  22.929   5.853
10211POPC   GL166013  26.023  22.960   6.153
10211POPC   GL266014  26.008  23.085   6.153
10211POPC   C1A66015  26.017  22.925   6.453
10211POPC   D2A66016  25.997  22.935   6.753
10211POPC   C3A66017  26.036  22.914   7.053
10211POPC   C4A66018  26.052  22.943   7.353
10211POPC   C1B66019  25.922  23.188   6.453
10211POPC   C2B66020  25.885  23.133   6.753
10211POPC   C3B66021  25.947  23.159   7.053
10211POPC   C4B66022  25.970  23.133   7.353
10212POPC   NC366023  13.645  37.664   5.553
10212POPC   PO466024  13.602  37.696   5.853
10212POPC   GL166025  13.631  37.644   6.153
10212POPC   GL266026  13.731  37.759   6.153
10212POPC   C1A66027  13.609  37.672   6.453
10212POPC   D2A66028  13.655  37.705   6.753
10212POPC   C3A66029  13.585  37.656   7.053
10212POPC   C4A66030  13.589  37.697   7.353
10212POPC   C1B66031  13.783  37.862   6.453
10212POPC   C2B66032  13.754  37.882   6.753
10212POPC   C3B66033  13.697  37.886   7.053
10212POPC   C4B66034  13.777  37.931   7.353
10213POPC   NC366035  44.645   3.510   5.553
10213POPC   PO466036  44.642   3.503   5.853
10213POPC   GL166037  44.632   3.580   6.153
10213POPC   GL266038  44.752   3.655   6.153
10213POPC   C1A66039  44.690   3.534   6.453
10213POPC   D2A66040  44.657   3.520   6.753
10213POPC   C3A66041  44.637   3.572   7.053
10213POPC   C4A66042  44.642   3.561   7.353
10213POPC   C1B66043  44.837   3.714   6.453
10213POPC   C2B66044  44.784   3.738   6.753
10213POPC   C3B66045  44.798   3.774   7.053
10213POPC   C4B66046  44.804   3.748   7.353
10214POPC   NC366047  20.629   2.036   5.553
10214POPC   PO466048  20.619   1.956   5.853
10214POPC   GL166049  20.641   2.027   6.153
10214POPC   GL266050  20.458   1.935   6.153
10214POPC   C1A66051  20.633   1.983   6.453
10214POPC   D2A66052  20.655   2.015   6.753
10214POPC   C3A66053  20.584   1.991   7.053
10214POPC   C4A66054  20.612   1.953   7.353
10214POPC   C1B66055  20.354   1.831   6.453
10214POPC   C2B66056  20.405   1.913   6.753
10214POPC   C3B66057  20.388   1.831   7.053
10214POPC   C4B66058  20.423   1.912   7.353
10215POPC   NC366059  36.894  25.260   5.553
10215POPC   PO466060  36.924  25.266   5.853
10215POPC   GL166061  36.895  25.235   6.153
10215POPC   GL266062  36.904  25.425   6.153
10215POPC   C1A66063  36.917  25.253   6.453
10215POPC   D2A66064  36.905  25.255   6.753
10215POPC   C3A66065  36.944  25.300   7.053
10215POPC   C4A66066  36.912  25.231   7.353
10215POPC   C1B66067  36.854  25.500   6.453
10215POPC   C2B66068  36.846  25.500   6.753
10215POPC   C3B66069  36.824  25.538   7.053
10215POPC   C4B66070  36.804  25.472   7.353
10216POPC   NC366071  44.670  11.317   5.553
10216POPC   PO466072  44.700  11.324   5.853
10216POPC   GL166073  44.624  11.284   6.153
10216POPC   GL266074  44.804  11.429   6.153
10216POPC   C1A66075  44.700  11.326   6.453
10216POPC   D2A66076  44.654  11.326   6.753
10216POPC   C3A66077  44.614  11.287   7.053
10216POPC   C4A66078  44.706  11.304   7.353
10216POPC   C1B66079  44.811  11.443   6.453
10216POPC   C2B66080  44.833  11.478   6.753
10216POPC   C3B66081  44.875  11.437   7.053
10216POPC   C4B66082  44.888  11.448   7.353
10217POPC   NC366083  26.001  39.191   5.553
10217POPC   PO466084  26.046  39.263   5.853
10217POPC   GL166085  26.016  39.189   6.153
10217POPC   GL266086  26.108  39.283   6.153
10217POPC   C1A66087  26.030  39.184   6.453
10217POPC   D2A66088  26.089  39.227   6.753
10217POPC   C3A66089  26.062  39.278   7.053
10217POPC   C4A66090  26.062  39.218   7.353
10217POPC   C1B66091  26.254  39.303   6.453
10217POPC   C2B66092  26.266  39.283   6.753
10217POPC   C3B66093  26.277  39.355   7.053
10217POPC   C4B66094  26.311  39.337   7.353
10218POPC   NC366095  39.234  26.810   5.553
10218POPC   PO466096  39.225  26.805   5.853
10218POPC   GL166097  39.246  26.796   6.153
10218POPC   GL266098  39.277  26.726   6.153
10218POPC   C1A66099  39.184  26.828   6.453
10218POPC   D2A66100  39.185  26.810   6.753
10218POPC   C3A66101  39.223  26.827   7.053
10218POPC   C4A66102  39.198  26.789   7.353
10218POPC   C1B66103  39.371  26.619   6.453
10218POPC   C2B66104  39.395  26.615   6.753
10218POPC   C3B66105  39.377  26.559   7.053
10218POPC   C4B66106  39.393  26.579   7.353
10219POPC   NC366107  43.154  29.193   5.553
10219POPC   PO466108  43.061  29.178   5.853
10219POPC   GL166109  43.072  29.169   6.153
10219POPC   GL266110  43.186  29.202   6.153
10219POPC   C1A66111  43.135  29.152   6.453
10219POPC   D2A66112  43.102  29.178   6.753
10219POPC   C3A66113  43.115  29.158   7.053
10219POPC   C4A66114  43.112  29.118   7.353
10219POPC   C1B66115  43.294  29.356   6.453
10219POPC   C2B66116  43.335  29.295   6.753
10219POPC   C3B66117  43.305  29.289   7.053
10219POPC   C4B66118  43.277  29.305   7.353
10220POPC   NC366119  14.453   3.585   5.553
10220POPC   PO466120  14.400   3.547   5.853
10220POPC   GL166121  14.357   3.548   6.153
10220POPC   GL266122  14.485   3.504   6.153
10220POPC   C1A66123  14.433   3.525   6.453
10220POPC   D2A66124  14.388   3.504   6.753
10220POPC   C3A66125  14.369   3.525   7.053
10220POPC   C4A66126  14.433   3.589   7.353
10220POPC   C1B66127  14.678   3.578   6.453
10220POPC   C2B66128  14.657   3.607   6.753
10220POPC   C3B66129  14.649   3.584   7.053
10220POPC   C4B66130  14.634   3.542   7.353
10221POPC   NC366131  39.970  44.682   5.553
10221POPC   PO466132  40.024  44.637   5.853
10221POPC   GL166133  40.054  44.702   6.153
10221POPC   GL266134  40.129  44.572   6.153
10221POPC   C1A66135  39.983  44.643   6.453
10221POPC   D2A66136  40.031  44.708   6.753
10221POPC   C3A66137  40.013  44.638   7.053
10221POPC   C4A66138  39.990  44.628   7.353
10221POPC   C1B66139  40.195  44.585   6.453
10221POPC   C2B66140  40.181  44.507   6.753
10221POPC   C3B66141  40.180  44.533   7.053
10221POPC   C4B66142  40.188  44.582   7.353
10222POPC   NC366143   2.002  39.186   5.553
10222POPC   PO466144   2.012  39.243   5.853
10222POPC   GL166145   1.954  39.256   6.153
10222POPC   GL266146   2.052  39.356   6.153
10222POPC   C1A66147   2.018  39.209   6.453
10222POPC   D2A66148   2.002  39.181   6.753
10222POPC   C3A66149   1.962  39.190   7.053
10222POPC   C4A66150   1.970  39.205   7.353
10222POPC   C1B66151   2.145  39.469   6.453
10222POPC   C2B66152   2.154  39.406   6.753
10222POPC   C3B66153   2.108  39.412   7.053
10222POPC   C4B66154   2.083  39.419   7.353
10223POPC   NC366155   1.970  12.075   5.553
10223POPC   PO466156   2.030  12.055   5.853
10223POPC   GL166157   1.992  12.074   6.153
10223POPC   GL266158   1.927  12.220   6.153
10223POPC   C1A66159   1.941  12.104   6.453
10223POPC   D2A66160   1.994  12.057   6.753
10223POPC   C3A66161   1.994  12.031   7.053
10223POPC   C4A66162   1.995  12.040   7.353
10223POPC   C1B66163   1.938  12.347   6.453
10223POPC   C2B66164   1.894  12.314   6.753
10223POPC   C3B66165   1.913  12.320   7.053
10223POPC   C4B66166   1.956  12.371   7.353
10224POPC   NC366167  38.505   7.374   5.553
10224POPC   PO466168  38.432   7.421   5.853
10224POPC   GL166169  38.429   7.377   6.153
10224POPC   GL266170  38.575   7.371   6.153
10224POPC   C1A66171  38.465   7.414   6.453
10224POPC   D2A66172  38.425   7.448   6.753
10224POPC   C3A66173  38.412   7.372   7.053
10224POPC   C4A66174  38.453   7.443   7.353
10224POPC   C1B66175  38.684   7.309   6.453
10224POPC   C2B66176  38.673   7.228   6.753
10224POPC   C3B66177  38.616   7.311   7.053
10224POPC   C4B66178  38.704   7.266   7.353
10225POPC   NC366179  26.775  28.347   5.553
10225POPC   PO466180  26.795  28.379   5.853
10225POPC   GL166181  26.768  28.359   6.153
10225POPC   GL266182  26.938  28.358   6.153
10225POPC   C1A66183  26.831  28.328   6.453
10225POPC   D2A66184  26.849  28.411   6.753
10225POPC   C3A66185  26.830  28.390   7.053
10225POPC   C4A66186  26.836  28.345   7.353
10225POPC   C1B66187  27.099  28.423   6.453
10225POPC   C2B66188  27.082  28.381   6.753
10225POPC   C3B66189  27.031  28.367   7.053
10225POPC   C4B66190  27.026  28.360   7.353
10226POPC   NC366191  15.942  25.302   5.553
10226POPC   PO466192  16.002  25.314   5.853
10226POPC   GL166193  15.917  25.300   6.153
10226POPC   GL266194  15.825  25.165   6.153
10226POPC   C1A66195  15.917  25.297   6.453
10226POPC   D2A66196  15.966  25.292   6.753
10226POPC   C3A66197  15.942  25.229   7.053
10226POPC   C4A66198  15.929  25.227   7.353
10226POPC   C1B66199  15.753  25.090   6.453
10226POPC   C2B66200  15.747  25.115   6.753
10226POPC   C3B66201  15.819  25.092   7.053
10226POPC   C4B66202  15.729  25.121   7.353
10227POPC   NC366203   3.499  14.354   5.553
10227POPC   PO466204   3.505  14.427   5.853
10227POPC   GL166205   3.526  14.382   6.153
10227POPC   GL266206   3.471  14.520   6.153
10227POPC   C1A66207   3.578  14.401   6.453
10227POPC   D2A66208   3.532  14.391   6.753
10227POPC   C3A66209   3.526  14.375   7.053
10227POPC   C4A66210   3.569  14.433   7.353
10227POPC   C1B66211   3.499  14.643   6.453
10227POPC   C2B66212   3.513  14.655   6.753
10227POPC   C3B66213   3.426  14.670   7.053
10227POPC   C4B66214   3.484  14.673   7.353
10228POPC   NC366215  13.620  15.214   5.553
10228POPC   PO466216  13.580  15.159   5.853
10228POPC   GL166217  13.581  15.199   6.153
10228POPC   GL266218  13.685  15.022   6.153
10228POPC   C1A66219  13.629  15.194   6.453
10228POPC   D2A66220  13.620  15.189   6.753
10228POPC   C3A66221  13.596  15.136   7.053
10228POPC   C4A66222  13.653  15.175   7.353
10228POPC   C1B66223  13.683  14.896   6.453
10228POPC   C2B66224  13.700  14.919   6.753
10228POPC   C3B66225  13.630  14.916   7.053
10228POPC   C4B66226  13.634  14.946   7.353
10229POPC   NC366227  27.592  39.258   5.553
10229POPC   PO466228  27.587  39.280   5.853
10229POPC   GL166229  27.552  39.245   6.153
10229POPC   GL266230  27.429  39.219   6.153
10229POPC   C1A66231  27.562  39.247   6.453
10229POPC   D2A66232  27.631  39.249   6.753
10229POPC   C3A66233  27.627  39.274   7.053
10229POPC   C4A66234  27.597  39.197   7.353
10229POPC   C1B66235  27.384  39.256   6.453
10229POPC   C2B66236  27.362  39.208   6.753
10229POPC   C3B66237  27.360  39.194   7.053
10229POPC   C4B66238  27.389  39.242   7.353
10230POPC   NC366239  26.022   4.351   5.553
10230POPC   PO466240  26.033   4.310   5.853
10230POPC   GL166241  26.040   4.316   6.153
10230POPC   GL266242  25.953   4.371   6.153
10230POPC   C1A66243  26.045   4.279   6.453
10230POPC   D2A66244  26.054   4.327   6.753
10230POPC   C3A66245  26.048   4.352   7.053
10230POPC   C4A66246  25.994   4.295   7.353
10230POPC   C1B66247  25.783   4.416   6.453
10230POPC   C2B66248  25.832   4.425   6.753
10230POPC   C3B66249  25.814   4.414   7.053
10230POPC   C4B66250  25.771   4.396   7.353
10231POPC   NC366251   7.382   4.331   5.553
10231POPC   PO466252   7.454   4.367   5.853
10231POPC   GL166253   7.421   4.352   6.153
10231POPC   GL266254   7.354   4.179   6.153
10231POPC   C1A66255   7.412   4.325   6.453
10231POPC   D2A66256   7.442   4.365   6.753
10231POPC   C3A66257   7.443   4.278   7.053
10231POPC   C4A66258   7.469   4.277   7.353
10231POPC   C1B66259   7.237   4.150   6.453
10231POPC   C2B66260   7.258   4.128   6.753
10231POPC   C3B66261   7.237   4.104   7.053
10231POPC   C4B66262   7.328   4.110   7.353
10232POPC   NC366263  17.466  34.543   5.553
10232POPC   PO466264  17.505  34.566   5.853
10232POPC   GL166265  17.553  34.559   6.153
10232POPC   GL266266  17.442  34.505   6.153
10232POPC   C1A66267  17.545  34.588   6.453
10232POPC   D2A66268  17.532  34.558   6.753
10232POPC   C3A66269  17.486  34.579   7.053
10232POPC   C4A66270  17.520  34.622   7.353
10232POPC   C1B66271  17.245  34.417   6.453
10232POPC   C2B66272  17.296  34.504   6.753
10232POPC   C3B66273  17.275  34.478   7.053
10232POPC   C4B66274  17.236  34.481   7.353
10233POPC   NC366275  28.398  33.828   5.553
10233POPC   PO466276  28.340  33.794   5.853
10233POPC   GL166277  28.378  33.816   6.153
10233POPC   GL266278  28.335  33.900   6.153
10233POPC   C1A66279  28.385  33.844   6.453
10233POPC   D2A66280  28.410  33.830   6.753
10233POPC   C3A66281  28.381  33.779   7.053
10233POPC   C4A66282  28.390  33.802   7.353
10233POPC   C1B66283  28.432  34.075   6.453
10233POPC   C2B66284  28.421  34.094   6.753
10233POPC   C3B66285  28.364  34.059   7.053
10233POPC   C4B66286  28.425  34.014   7.353
10234POPC   NC366287  13.605  36.165   5.553
10234POPC   PO466288  13.603  36.149   5.853
10234POPC   GL166289  13.642  36.128   6.153
10234POPC   GL266290  13.547  36.270   6.153
10234POPC   C1A66291  13.624  36.130   6.453
10234POPC   D2A66292  13.634  36.104   6.753
10234POPC   C3A66293  13.620  36.132   7.053
10234POPC   C4A66294  13.607  36.099   7.353
10234POPC   C1B66295  13.530  36.333   6.453
10234POPC   C2B66296  13.556  36.384   6.753
10234POPC   C3B66297  13.492  36.308   7.053
10234POPC   C4B66298  13.478  36.395   7.353
10235POPC   NC366299   1.946  13.641   5.553
10235POPC   PO466300   2.016  13.592   5.853
10235POPC   GL166301   1.957  13.631   6.153
10235POPC   GL266302   2.067  13.625   6.153
10235POPC   C1A66303   2.037  13.605   6.453
10235POPC   D2A66304   1.959  13.612   6.753
10235POPC   C3A66305   2.003  13.674   7.053
10235POPC   C4A66306   2.000  13.624   7.353
10235POPC   C1B66307   2.278  13.626   6.453
10235POPC   C2B66308   2.263  13.700   6.753
10235POPC   C3B66309   2.261  13.659   7.053
10235POPC   C4B66310   2.259  13.620   7.353
10236POPC   NC366311  26.798  44.620   5.553
10236POPC   PO466312  26.863  44.638   5.853
10236POPC   GL166313  26.866  44.655   6.153
10236POPC   GL266314  26.883  44.500   6.153
10236POPC   C1A66315  26.787  44.704   6.453
10236POPC   D2A66316  26.844  44.674   6.753
10236POPC   C3A66317  26.779  44.687   7.053
10236POPC   C4A66318  26.856  44.646   7.353
10236POPC   C1B66319  26.920  44.425   6.453
10236POPC   C2B66320  26.906  44.412   6.753
10236POPC   C3B66321  26.868  44.453   7.053
10236POPC   C4B66322  26.867  44.434   7.353
10237POPC   NC366323   7.417  28.324   5.553
10237POPC   PO466324   7.423  28.363   5.853
10237POPC   GL166325   7.405  28.392   6.153
10237POPC   GL266326   7.463  28.483   6.153
10237POPC   C1A66327   7.409  28.387   6.453
10237POPC   D2A66328   7.459  28.335   6.753
10237POPC   C3A66329   7.421  28.337   7.053
10237POPC   C4A66330   7.447  28.374   7.353
10237POPC   C1B66331   7.602  28.558   6.453
10237POPC   C2B66332   7.582  28.597   6.753
10237POPC   C3B66333   7.593  28.531   7.053
10237POPC   C4B66334   7.538  28.535   7.353
10238POPC   NC366335  31.426  38.406   5.553
10238POPC   PO466336  31.455  38.418   5.853
10238POPC   GL166337  31.519  38.424   6.153
10238POPC   GL266338  31.568  38.567   6.153
10238POPC   C1A66339  31.466  38.466   6.453
10238POPC   D2A66340  31.467  38.426   6.753
10238POPC   C3A66341  31.508  38.468   7.053
10238POPC   C4A66342  31.439  38.462   7.353
10238POPC   C1B66343  31.692  38.597   6.453
10238POPC   C2B66344  31.639  38.644   6.753
10238POPC   C3B66345  31.678  38.617   7.053
10238POPC   C4B66346  31.621  38.676   7.353
10239POPC   NC366347  15.948  12.802   5.553
10239POPC   PO466348  15.998  12.842   5.853
10239POPC   GL166349  15.915  12.804   6.153
10239POPC   GL266350  16.116  12.795   6.153
10239POPC   C1A66351  15.948  12.890   6.453
10239POPC   D2A66352  15.999  12.855   6.753
10239POPC   C3A66353  15.999  12.825   7.053
10239POPC   C4A66354  15.944  12.874   7.353
10239POPC   C1B66355  16.158  12.769   6.453
10239POPC   C2B66356  16.226  12.790   6.753
10239POPC   C3B66357  16.238  12.750   7.053
10239POPC   C4B66358  16.206  12.814   7.353
10240POPC   NC366359   1.979  12.846   5.553
10240POPC   PO466360   2.012  12.856   5.853
10240POPC   GL166361   2.025  12.838   6.153
10240POPC   GL266362   1.857  12.845   6.153
10240POPC   C1A66363   1.991  12.825   6.453
10240POPC   D2A66364   1.976  12.876   6.753
10240POPC   C3A66365   1.970  12.877   7.053
10240POPC   C4A66366   1.993  12.862   7.353
10240POPC   C1B66367   1.763  12.913   6.453
10240POPC   C2B66368   1.721  12.878   6.753
10240POPC   C3B66369   1.742  12.886   7.053
10240POPC   C4B66370   1.692  12.914   7.353
10241POPC   NC366371  12.803   4.319   5.553
10241POPC   PO466372  12.896   4.309   5.853
10241POPC   GL166373  12.836   4.346   6.153
10241POPC   GL266374  12.689   4.393   6.153
10241POPC   C1A66375  12.861   4.288   6.453
10241POPC   D2A66376  12.860   4.315   6.753
10241POPC   C3A66377  12.842   4.334   7.053
10241POPC   C4A66378  12.808   4.335   7.353
10241POPC   C1B66379  12.652   4.375   6.453
10241POPC   C2B66380  12.582   4.388   6.753
10241POPC   C3B66381  12.657   4.403   7.053
10241POPC   C4B66382  12.630   4.407   7.353
10242POPC   NC366383  39.198  44.679   5.553
10242POPC   PO466384  39.278  44.638   5.853
10242POPC   GL166385  39.187  44.630   6.153
10242POPC   GL266386  39.190  44.592   6.153
10242POPC   C1A66387  39.245  44.669   6.453
10242POPC   D2A66388  39.276  44.626   6.753
10242POPC   C3A66389  39.203  44.669   7.053
10242POPC   C4A66390  39.189  44.682   7.353
10242POPC   C1B66391  39.175  44.444   6.453
10242POPC   C2B66392  39.117  44.464   6.753
10242POPC   C3B66393  39.158  44.474   7.053
10242POPC   C4B66394  39.168  44.472   7.353
10243POPC   NC366395  19.879  32.985   5.553
10243POPC   PO466396  19.817  32.979   5.853
10243POPC   GL166397  19.839  32.998   6.153
10243POPC   GL266398  19.799  33.108   6.153
10243POPC   C1A66399  19.879  32.977   6.453
10243POPC   D2A66400  19.863  33.058   6.753
10243POPC   C3A66401  19.847  33.000   7.053
10243POPC   C4A66402  19.794  33.049   7.353
10243POPC   C1B66403  19.755  33.311   6.453
10243POPC   C2B66404  19.736  33.265   6.753
10243POPC   C3B66405  19.812  33.298   7.053
10243POPC   C4B66406  19.760  33.225   7.353
10244POPC   NC366407  36.174  44.682   5.553
10244POPC   PO466408  36.081  44.660   5.853
10244POPC   GL166409  36.144  44.632   6.153
10244POPC   GL266410  36.181  44.522   6.153
10244POPC   C1A66411  36.086  44.694   6.453
10244POPC   D2A66412  36.142  44.630   6.753
10244POPC   C3A66413  36.129  44.639   7.053
10244POPC   C4A66414  36.155  44.671   7.353
10244POPC   C1B66415  36.287  44.486   6.453
10244POPC   C2B66416  36.269  44.478   6.753
10244POPC   C3B66417  36.238  44.477   7.053
10244POPC   C4B66418  36.308  44.484   7.353
10245POPC   NC366419   5.043  12.844   5.553
10245POPC   PO466420   5.087  12.873   5.853
10245POPC   GL166421   5.106  12.837   6.153
10245POPC   GL266422   5.243  12.913   6.153
10245POPC   C1A66423   5.085  12.832   6.453
10245POPC   D2A66424   5.050  12.885   6.753
10245POPC   C3A66425   5.125  12.803   7.053
10245POPC   C4A66426   5.055  12.808   7.353
10245POPC   C1B66427   5.302  12.991   6.453
10245POPC   C2B66428   5.262  13.011   6.753
10245POPC   C3B66429   5.261  13.008   7.053
10245POPC   C4B66430   5.273  12.970   7.353
10246POPC   NC366431  22.896  38.409   5.553
10246POPC   PO466432  22.949  38.409   5.853
10246POPC   GL166433  22.924  38.494   6.153
10246POPC   GL266434  22.862  38.500   6.153
10246POPC   C1A66435  22.953  38.456   6.453
10246POPC   D2A66436  22.965  38.422   6.753
10246POPC   C3A66437  22.947  38.417   7.053
10246POPC   C4A66438  22.962  38.472   7.353
10246POPC   C1B66439  22.708  38.516   6.453
10246POPC   C2B66440  22.731  38.566   6.753
10246POPC   C3B66441  22.733  38.590   7.053
10246POPC   C4B66442  22.729  38.612   7.353
10247POPC   NC366443   1.233  37.641   5.553
10247POPC   PO466444   1.175  37.645   5.853
10247POPC   GL166445   1.214  37.656   6.153
10247POPC   GL266446   1.234  37.547   6.153
10247POPC   C1A66447   1.228  37.669   6.453
10247POPC   D2A66448   1.238  37.718   6.753
10247POPC   C3A66449   1.248  37.674   7.053
10247POPC   C4A66450   1.191  37.635   7.353
10247POPC   C1B66451   1.251  37.469   6.453
10247POPC   C2B66452   1.273  37.397   6.753
10247POPC   C3B66453   1.289  37.474   7.053
10247POPC   C4B66454   1.232  37.393   7.353
10248POPC   NC366455  12.868   7.412   5.553
10248POPC   PO466456  12.864   7.376   5.853
10248POPC   GL166457  12.878   7.444   6.153
10248POPC   GL266458  12.731   7.561   6.153
10248POPC   C1A66459  12.826   7.386   6.453
10248POPC   D2A66460  12.809   7.462   6.753
10248POPC   C3A66461  12.862   7.406   7.053
10248POPC   C4A66462  12.853   7.435   7.353
10248POPC   C1B66463  12.716   7.642   6.453
10248POPC   C2B66464  12.678   7.664   6.753
10248POPC   C3B66465  12.685   7.618   7.053
10248POPC   C4B66466  12.688   7.669   7.353
10249POPC   NC366467  38.449   9.731   5.553
10249POPC   PO466468  38.496   9.767   5.853
10249POPC   GL166469  38.469   9.706   6.153
10249POPC   GL266470  38.496   9.610   6.153
10249POPC   C1A66471  38.415   9.699   6.453
10249POPC   D2A66472  38.430   9.780   6.753
10249POPC   C3A66473  38.455   9.722   7.053
10249POPC   C4A66474  38.422   9.708   7.353
10249POPC   C1B66475  38.470   9.505   6.453
10249POPC   C2B66476  38.527   9.524   6.753
10249POPC   C3B66477  38.494   9.483   7.053
10249POPC   C4B66478  38.500   9.528   7.353
10250POPC   NC366479   0.474  36.106   5.553
10250POPC   PO466480   0.391  36.135   5.853
10250POPC   GL166481   0.459  36.145   6.153
10250POPC   GL266482   0.436  35.988   6.153
10250POPC   C1A66483   0.424  36.090   6.453
10250POPC   D2A66484   0.474  36.109   6.753
10250POPC   C3A66485   0.418  36.160   7.053
10250POPC   C4A66486   0.474  36.162   7.353
10250POPC   C1B66487   0.443  35.851   6.453
10250POPC   C2B66488   0.452  35.857   6.753
10250POPC   C3B66489   0.402  35.839   7.053
10250POPC   C4B66490   0.409  35.907   7.353
10251POPC   NC366491  12.114   6.622   5.553
10251POPC   PO466492  12.029   6.599   5.853
10251POPC   GL166493  12.054   6.635   6.153
10251POPC   GL266494  12.221   6.602   6.153
10251POPC   C1A66495  12.110   6.629   6.453
10251POPC   D2A66496  12.036   6.600   6.753
10251POPC   C3A66497  12.038   6.633   7.053
10251POPC   C4A66498  12.111   6.603   7.353
10251POPC   C1B66499  12.316   6.481   6.453
10251POPC   C2B66500  12.298   6.528   6.753
10251POPC   C3B66501  12.257   6.538   7.053
10251POPC   C4B66502  12.243   6.497   7.353
10252POPC   NC366503  32.208  16.759   5.553
10252POPC   PO466504  32.249  16.773   5.853
10252POPC   GL166505  32.278  16.702   6.153
10252POPC   GL266506  32.287  16.861   6.153
10252POPC   C1A66507  32.237  16.701   6.453
10252POPC   D2A66508  32.201  16.724   6.753
10252POPC   C3A66509  32.261  16.723   7.053
10252POPC   C4A66510  32.295  16.714   7.353
10252POPC   C1B66511  32.344  16.913   6.453
10252POPC   C2B66512  32.404  16.979   6.753
10252POPC   C3B66513  32.348  16.945   7.053
10252POPC   C4B66514  32.384  16.950   7.353
10253POPC   NC366515   8.940  33.806   5.553
10253POPC   PO466516   8.999  33.821   5.853
10253POPC   GL166517   8.984  33.775   6.153
10253POPC   GL266518   8.903  33.914   6.153
10253POPC   C1A66519   9.001  33.774   6.453
10253POPC   D2A66520   8.957  33.827   6.753
10253POPC   C3A66521   8.984  33.795   7.053
10253POPC   C4A66522   9.009  33.820   7.353
10253POPC   C1B66523   8.902  33.984   6.453
10253POPC   C2B66524   8.832  33.996   6.753
10253POPC   C3B66525   8.885  34.059   7.053
10253POPC   C4B66526   8.885  34.044   7.353
10254POPC   NC366527  12.878  24.528   5.553
10254POPC   PO466528  12.843  24.535   5.853
10254POPC   GL166529  12.897  24.520   6.153
10254POPC   GL266530  12.908  24.351   6.153
10254POPC   C1A66531  12.815  24.504   6.453
10254POPC   D2A66532  12.866  24.457   6.753
10254POPC   C3A66533  12.889  24.440   7.053
10254POPC   C4A66534  12.900  24.521   7.353
10254POPC   C1B66535  12.970  24.264   6.453
10254POPC   C2B66536  12.968  24.251   6.753
10254POPC   C3B66537  12.968  24.220   7.053
10254POPC   C4B66538  12.939  24.222   7.353
10255POPC   NC366539  40.045  28.350   5.553
10255POPC   PO466540  40.038  28.340   5.853
10255POPC   GL166541  39.979  28.396   6.153
10255POPC   GL266542  40.167  28.358   6.153
10255POPC   C1A66543  40.048  28.324   6.453
10255POPC   D2A66544  39.981  28.409   6.753
10255POPC   C3A66545  39.985  28.393   7.053
10255POPC   C4A66546  39.984  28.407   7.353
10255POPC   C1B66547  40.251  28.354   6.453
10255POPC   C2B66548  40.239  28.397   6.753
10255POPC   C3B66549  40.254  28.399   7.053
10255POPC   C4B66550  40.302  28.424   7.353
10256POPC   NC366551   7.437  27.579   5.553
10256POPC   PO466552   7.378  27.551   5.853
10256POPC   GL166553   7.396  27.575   6.153
10256POPC   GL266554   7.381  27.740   6.153
10256POPC   C1A66555   7.434  27.593   6.453
10256POPC   D2A66556   7.421  27.595   6.753
10256POPC   C3A66557   7.380  27.596   7.053
10256POPC   C4A66558   7.415  27.635   7.353
10256POPC   C1B66559   7.457  27.869   6.453
10256POPC   C2B66560   7.462  27.808   6.753
10256POPC   C3B66561   7.422  27.869   7.053
10256POPC   C4B66562   7.414  27.812   7.353
10257POPC   NC366563   0.422  20.635   5.553
10257POPC   PO466564   0.390  20.616   5.853
10257POPC   GL166565   0.404  20.571   6.153
10257POPC   GL266566   0.488  20.482   6.153
10257POPC   C1A66567   0.452  20.602   6.453
10257POPC   D2A66568   0.447  20.620   6.753
10257POPC   C3A66569   0.459  20.613   7.053
10257POPC   C4A66570   0.466  20.612   7.353
10257POPC   C1B66571   0.451  20.316   6.453
10257POPC   C2B66572   0.458  20.338   6.753
10257POPC   C3B66573   0.484  20.379   7.053
10257POPC   C4B66574   0.466  20.396   7.353
10258POPC   NC366575  18.242  25.262   5.553
10258POPC   PO466576  18.300  25.254   5.853
10258POPC   GL166577  18.317  25.303   6.153
10258POPC   GL266578  18.218  25.159   6.153
10258POPC   C1A66579  18.260  25.295   6.453
10258POPC   D2A66580  18.244  25.263   6.753
10258POPC   C3A66581  18.329  25.245   7.053
10258POPC   C4A66582  18.281  25.235   7.353
10258POPC   C1B66583  18.087  25.143   6.453
10258POPC   C2B66584  18.064  25.078   6.753
10258POPC   C3B66585  18.116  25.128   7.053
10258POPC   C4B66586  18.051  25.129   7.353
10259POPC   NC366587   1.213  40.012   5.553
10259POPC   PO466588   1.223  40.036   5.853
10259POPC   GL166589   1.229  40.002   6.153
10259POPC   GL266590   1.077  40.097   6.153
10259POPC   C1A66591   1.222  39.986   6.453
10259POPC   D2A66592   1.201  40.000   6.753
10259POPC   C3A66593   1.218  40.043   7.053
10259POPC   C4A66594   1.169  40.013   7.353
10259POPC   C1B66595   0.988  40.068   6.453
10259POPC   C2B66596   0.978  40.065   6.753
10259POPC   C3B66597   0.936  40.065   7.053
10259POPC   C4B66598   0.982  40.083   7.353
10260POPC   NC366599   5.091  34.625   5.553
10260POPC   PO466600   5.047  34.527   5.853
10260POPC   GL166601   5.123  34.616   6.153
10260POPC   GL266602   5.011  34.498   6.153
10260POPC   C1A66603   5.104  34.545   6.453
10260POPC   D2A66604   5.115  34.612   6.753
10260POPC   C3A66605   5.072  34.546   7.053
10260POPC   C4A66606   5.137  34.582   7.353
10260POPC   C1B66607   4.950  34.374   6.453
10260POPC   C2B66608   4.910  34.359   6.753
10260POPC   C3B66609   4.944  34.363   7.053
10260POPC   C4B66610   4.958  34.389   7.353
10261POPC   NC366611  26.059  34.550   5.553
10261POPC   PO466612  26.072  34.531   5.853
10261POPC   GL166613  26.039  34.527   6.153
10261POPC   GL266614  25.972  34.695   6.153
10261POPC   C1A66615  26.012  34.536   6.453
10261POPC   D2A66616  26.087  34.537   6.753
10261POPC   C3A66617  26.065  34.563   7.053
10261POPC   C4A66618  26.025  34.594   7.353
10261POPC   C1B66619  26.005  34.808   6.453
10261POPC   C2B66620  25.966  34.857   6.753
10261POPC   C3B66621  26.023  34.813   7.053
10261POPC   C4B66622  25.939  34.785   7.353
10262POPC   NC366623  29.924  32.230   5.553
10262POPC   PO466624  29.899  32.275   5.853
10262POPC   GL166625  29.959  32.210   6.153
10262POPC   GL266626  29.875  32.122   6.153
10262POPC   C1A66627  29.933  32.215   6.453
10262POPC   D2A66628  29.895  32.280   6.753
10262POPC   C3A66629  29.929  32.230   7.053
10262POPC   C4A66630  29.883  32.235   7.353
10262POPC   C1B66631  29.935  31.982   6.453
10262POPC   C2B66632  29.896  31.984   6.753
10262POPC   C3B66633  29.897  31.963   7.053
10262POPC   C4B66634  29.878  32.036   7.353
10263POPC   NC366635  34.563  13.621   5.553
10263POPC   PO466636  34.540  13.651   5.853
10263POPC   GL166637  34.623  13.622   6.153
10263POPC   GL266638  34.620  13.740   6.153
10263POPC   C1A66639  34.562  13.674   6.453
10263POPC   D2A66640  34.589  13.644   6.753
10263POPC   C3A66641  34.623  13.655   7.053
10263POPC   C4A66642  34.625  13.633   7.353
10263POPC   C1B66643  34.707  13.865   6.453
10263POPC   C2B66644  34.700  13.873   6.753
10263POPC   C3B66645  34.683  13.880   7.053
10263POPC   C4B66646  34.713  13.823   7.353
10264POPC   NC366647  34.563  21.362   5.553
10264POPC   PO466648  34.595  21.426   5.853
10264POPC   GL166649  34.552  21.358   6.153
10264POPC   GL266650  34.432  21.422   6.153
10264POPC   C1A66651  34.547  21.416   6.453
10264POPC   D2A66652  34.613  21.345   6.753
10264POPC   C3A66653  34.584  21.393   7.053
10264POPC   C4A66654  34.547  21.381   7.353
10264POPC   C1B66655  34.298  21.417   6.453
10264POPC   C2B66656  34.371  21.359   6.753
10264POPC   C3B66657  34.322  21.415   7.053
10264POPC   C4B66658  34.280  21.411   7.353
10265POPC   NC366659  17.537  24.485   5.553
10265POPC   PO466660  17.467  24.460   5.853
10265POPC   GL166661  17.478  24.470   6.153
10265POPC   GL266662  17.439  24.531   6.153
10265POPC   C1A66663  17.491  24.482   6.453
10265POPC   D2A66664  17.511  24.497   6.753
10265POPC   C3A66665  17.530  24.465   7.053
10265POPC   C4A66666  17.483  24.488   7.353
10265POPC   C1B66667  17.259  24.614   6.453
10265POPC   C2B66668  17.227  24.579   6.753
10265POPC   C3B66669  17.314  24.585   7.053
10265POPC   C4B66670  17.288  24.564   7.353
10266POPC   NC366671  19.065  41.588   5.553
10266POPC   PO466672  19.107  41.544   5.853
10266POPC   GL166673  19.015  41.526   6.153
10266POPC   GL266674  19.138  41.607   6.153
10266POPC   C1A66675  19.041  41.563   6.453
10266POPC   D2A66676  19.020  41.509   6.753
10266POPC   C3A66677  19.038  41.567   7.053
10266POPC   C4A66678  19.095  41.606   7.353
10266POPC   C1B66679  19.253  41.620   6.453
10266POPC   C2B66680  19.246  41.680   6.753
10266POPC   C3B66681  19.315  41.608   7.053
10266POPC   C4B66682  19.332  41.623   7.353
10267POPC   NC366683  22.906  44.646   5.553
10267POPC   PO466684  22.953  44.633   5.853
10267POPC   GL166685  22.947  44.633   6.153
10267POPC   GL266686  23.050  44.613   6.153
10267POPC   C1A66687  22.977  44.614   6.453
10267POPC   D2A66688  22.942  44.637   6.753
10267POPC   C3A66689  22.924  44.671   7.053
10267POPC   C4A66690  22.980  44.681   7.353
10267POPC   C1B66691  23.071  44.460   6.453
10267POPC   C2B66692  23.082  44.466   6.753
10267POPC   C3B66693  23.079  44.478   7.053
10267POPC   C4B66694  23.142  44.488   7.353
10268POPC   NC366695  44.659  40.826   5.553
10268POPC   PO466696  44.631  40.793   5.853
10268POPC   GL166697  44.693  40.818   6.153
10268POPC   GL266698  44.789  40.874   6.153
10268POPC   C1A66699  44.691  40.746   6.453
10268POPC   D2A66700  44.645  40.794   6.753
10268POPC   C3A66701  44.617  40.796   7.053
10268POPC   C4A66702  44.710  40.799   7.353
10268POPC   C1B66703  44.837  40.891   6.453
10268POPC   C2B66704  44.872  40.944   6.753
10268POPC   C3B66705  44.893  40.921   7.053
10268POPC   C4B66706  44.846  40.919   7.353
10269POPC   NC366707  26.788  43.063   5.553
10269POPC   PO466708  26.773  43.117   5.853
10269POPC   GL166709  26.814  43.120   6.153
10269POPC   GL266710  26.739  42.997   6.153
10269POPC   C1A66711  26.851  43.079   6.453
10269POPC   D2A66712  26.817  43.133   6.753
10269POPC   C3A66713  26.833  43.080   7.053
10269POPC   C4A66714  26.769  43.074   7.353
10269POPC   C1B66715  26.681  42.967   6.453
10269POPC   C2B66716  26.616  42.886   6.753
10269POPC   C3B66717  26.614  42.975   7.053
10269POPC   C4B66718  26.672  42.881   7.353
10270POPC   NC366719  21.414  40.764   5.553
10270POPC   PO466720  21.424  40.750   5.853
10270POPC   GL166721  21.341  40.755   6.153
10270POPC   GL266722  21.408  40.710   6.153
10270POPC   C1A66723  21.360  40.811   6.453
10270POPC   D2A66724  21.410  40.812   6.753
10270POPC   C3A66725  21.428  40.763   7.053
10270POPC   C4A66726  21.338  40.820   7.353
10270POPC   C1B66727  21.419  40.534   6.453
10270POPC   C2B66728  21.443  40.577   6.753
10270POPC   C3B66729  21.464  40.564   7.053
10270POPC   C4B66730  21.399  40.576   7.353
10271POPC   NC366731  17.540  43.138   5.553
10271POPC   PO466732  17.515  43.126   5.853
10271POPC   GL166733  17.521  43.063   6.153
10271POPC   GL266734  17.392  42.963   6.153
10271POPC   C1A66735  17.512  43.113   6.453
10271POPC   D2A66736  17.491  43.108   6.753
10271POPC   C3A66737  17.545  43.091   7.053
10271POPC   C4A66738  17.553  43.160   7.353
10271POPC   C1B66739  17.346  42.905   6.453
10271POPC   C2B66740  17.403  42.876   6.753
10271POPC   C3B66741  17.380  42.880   7.053
10271POPC   C4B66742  17.334  42.870   7.353
10272POPC   NC366743  15.215  19.009   5.553
10272POPC   PO466744  15.155  19.010   5.853
10272POPC   GL166745  15.136  19.052   6.153
10272POPC   GL266746  15.039  18.984   6.153
10272POPC   C1A66747  15.202  19.025   6.453
10272POPC   D2A66748  15.178  19.093   6.753
10272POPC   C3A66749  15.226  19.057   7.053
10272POPC   C4A66750  15.217  19.062   7.353
10272POPC   C1B66751  14.956  18.926   6.453
10272POPC   C2B66752  14.914  18.964   6.753
10272POPC   C3B66753  14.951  18.950   7.053
10272POPC   C4B66754  14.897  19.007   7.353
10273POPC   NC366755  40.780  18.290   5.553
10273POPC   PO466756  40.750  18.246   5.853
10273POPC   GL166757  40.749  18.296   6.153
10273POPC   GL266758  40.647  18.223   6.153
10273POPC   C1A66759  40.745  18.240   6.453
10273POPC   D2A66760  40.803  18.279   6.753
10273POPC   C3A66761  40.796  18.238   7.053
10273POPC   C4A66762  40.735  18.259   7.353
10273POPC   C1B66763  40.533  18.123   6.453
10273POPC   C2B66764  40.574  18.113   6.753
10273POPC   C3B66765  40.549  18.133   7.053
10273POPC   C4B66766  40.550  18.178   7.353
10274POPC   NC366767  42.292  37.702   5.553
10274POPC   PO466768  42.379  37.635   5.853
10274POPC   GL166769  42.347  37.724   6.153
10274POPC   GL266770  42.422  37.659   6.153
10274POPC   C1A66771  42.325  37.679   6.453
10274POPC   D2A66772  42.339  37.725   6.753
10274POPC   C3A66773  42.314  37.640   7.053
10274POPC   C4A66774  42.383  37.723   7.353
10274POPC   C1B66775  42.617  37.638   6.453
10274POPC   C2B66776  42.580  37.653   6.753
10274POPC   C3B66777  42.608  37.647   7.053
10274POPC   C4B66778  42.626  37.573   7.353
10275POPC   NC366779   5.857  43.908   5.553
10275POPC   PO466780   5.873  43.886   5.853
10275POPC   GL166781   5.864  43.911   6.153
10275POPC   GL266782   5.965  44.031   6.153
10275POPC   C1A66783   5.851  43.929   6.453
10275POPC   D2A66784   5.892  43.878   6.753
10275POPC   C3A66785   5.823  43.876   7.053
10275POPC   C4A66786   5.835  43.849   7.353
10275POPC   C1B66787   5.989  44.123   6.453
10275POPC   C2B66788   6.004  44.083   6.753
10275POPC   C3B66789   6.022  44.127   7.053
10275POPC   C4B66790   6.007  44.129   7.353
10276POPC   NC366791  30.680  18.243   5.553
10276POPC   PO466792  30.670  18.312   5.853
10276POPC   GL166793  30.660  18.328   6.153
10276POPC   GL266794  30.782  18.290   6.153
10276POPC   C1A66795  30.714  18.241   6.453
10276POPC   D2A66796  30.681  18.242   6.753
10276POPC   C3A66797  30.684  18.307   7.053
10276POPC   C4A66798  30.741  18.273   7.353
10276POPC   C1B66799  30.972  18.298   6.453
10276POPC   C2B66800  30.971  18.365   6.753
10276POPC   C3B66801  30.976  18.320   7.053
10276POPC   C4B66802  30.938  18.290   7.353
10277POPC   NC366803  12.097  19.064   5.553
10277POPC   PO466804  12.045  19.046   5.853
10277POPC   GL166805  12.119  19.029   6.153
10277POPC   GL266806  12.068  18.901   6.153
10277POPC   C1A66807  12.116  19.095   6.453
10277POPC   D2A66808  12.082  19.075   6.753
10277POPC   C3A66809  12.045  19.020   7.053
10277POPC   C4A66810  12.117  19.106   7.353
10277POPC   C1B66811  12.027  18.837   6.453
10277POPC   C2B66812  12.068  18.813   6.753
10277POPC   C3B66813  12.017  18.803   7.053
10277POPC   C4B66814  11.976  18.788   7.353
10278POPC   NC366815  29.175  20.616   5.553
10278POPC   PO466816  29.118  20.584   5.853
10278POPC   GL166817  29.109  20.607   6.153
10278POPC   GL266818  29.046  20.651   6.153
10278POPC   C1A66819  29.136  20.656   6.453
10278POPC   D2A66820  29.161  20.620   6.753
10278POPC   C3A66821  29.156  20.645   7.053
10278POPC   C4A66822  29.190  20.630   7.353
10278POPC   C1B66823  28.992  20.735   6.453
10278POPC   C2B66824  28.981  20.827   6.753
10278POPC   C3B66825  29.000  20.739   7.053
10278POPC   C4B66826  28.919  20.749   7.353
10279POPC   NC366827   1.190  16.748   5.553
10279POPC   PO466828   1.190  16.746   5.853
10279POPC   GL166829   1.176  16.727   6.153
10279POPC   GL266830   1.224  16.880   6.153
10279POPC   C1A66831   1.241  16.716   6.453
10279POPC   D2A66832   1.189  16.772   6.753
10279POPC   C3A66833   1.251  16.698   7.053
10279POPC   C4A66834   1.195  16.722   7.353
10279POPC   C1B66835   1.200  16.953   6.453
10279POPC   C2B66836   1.229  16.977   6.753
10279POPC   C3B66837   1.219  16.968   7.053
10279POPC   C4B66838   1.225  17.027   7.353
10280POPC   NC366839  18.234  43.893   5.553
10280POPC   PO466840  18.305  43.892   5.853
10280POPC   GL166841  18.282  43.848   6.153
10280POPC   GL266842  18.448  43.875   6.153
10280POPC   C1A66843  18.287  43.935   6.453
10280POPC   D2A66844  18.287  43.861   6.753
10280POPC   C3A66845  18.302  43.843   7.053
10280POPC   C4A66846  18.296  43.856   7.353
10280POPC   C1B66847  18.542  43.780   6.453
10280POPC   C2B66848  18.517  43.742   6.753
10280POPC   C3B66849  18.554  43.750   7.053
10280POPC   C4B66850  18.475  43.787   7.353
10281POPC   NC366851  22.972  31.449   5.553
10281POPC   PO466852  22.891  31.493   5.853
10281POPC   GL166853  22.970  31.440   6.153
10281POPC   GL266854  23.032  31.500   6.153
10281POPC   C1A66855  22.988  31.520   6.453
10281POPC   D2A66856  22.890  31.428   6.753
10281POPC   C3A66857  22.895  31.446   7.053
10281POPC   C4A66858  22.958  31.515   7.353
10281POPC   C1B66859  23.221  31.458   6.453
10281POPC   C2B66860  23.139  31.482   6.753
10281POPC   C3B66861  23.180  31.504   7.053
10281POPC   C4B66862  23.170  31.432   7.353
10282POPC   NC366863  14.357  38.424   5.553
10282POPC   PO466864  14.417  38.423   5.853
10282POPC   GL166865  14.422  38.419   6.153
10282POPC   GL266866  14.442  38.579   6.153
10282POPC   C1A66867  14.383  38.413   6.453
10282POPC   D2A66868  14.384  38.431   6.753
10282POPC   C3A66869  14.394  38.488   7.053
10282POPC   C4A66870  14.382  38.427   7.353
10282POPC   C1B66871  14.393  38.745   6.453
10282POPC   C2B66872  14.378  38.660   6.753
10282POPC   C3B66873  14.388  38.669   7.053
10282POPC   C4B66874  14.437  38.678   7.353
10283POPC   NC366875   8.225  21.388   5.553
10283POPC   PO466876   8.193  21.429   5.853
10283POPC   GL166877   8.174  21.400   6.153
10283POPC   GL266878   8.163  21.283   6.153
10283POPC   C1A66879   8.193  21.362   6.453
10283POPC   D2A66880   8.207  21.429   6.753
10283POPC   C3A66881   8.162  21.386   7.053
10283POPC   C4A66882   8.207  21.386   7.353
10283POPC   C1B66883   8.202  21.116   6.453
10283POPC   C2B66884   8.199  21.094   6.753
10283POPC   C3B66885   8.148  21.090   7.053
10283POPC   C4B66886   8.154  21.167   7.353
10284POPC   NC366887  39.273  25.303   5.553
10284POPC   PO466888  39.239  25.222   5.853
10284POPC   GL166889  39.280  25.221   6.153
10284POPC   GL266890  39.153  25.140   6.153
10284POPC   C1A66891  39.220  25.231   6.453
10284POPC   D2A66892  39.264  25.311   6.753
10284POPC   C3A66893  39.250  25.276   7.053
10284POPC   C4A66894  39.253  25.242   7.353
10284POPC   C1B66895  39.017  25.093   6.453
10284POPC   C2B66896  39.056  25.075   6.753
10284POPC   C3B66897  39.031  25.116   7.053
10284POPC   C4B66898  39.086  25.138   7.353
10285POPC   NC366899  19.011  22.976   5.553
10285POPC   PO466900  19.078  22.893   5.853
10285POPC   GL166901  19.027  22.962   6.153
10285POPC   GL266902  19.031  23.088   6.153
10285POPC   C1A66903  19.046  22.961   6.453
10285POPC   D2A66904  19.057  22.917   6.753
10285POPC   C3A66905  19.026  22.913   7.053
10285POPC   C4A66906  19.103  22.917   7.353
10285POPC   C1B66907  19.054  23.192   6.453
10285POPC   C2B66908  19.042  23.152   6.753
10285POPC   C3B66909  19.091  23.147   7.053
10285POPC   C4B66910  19.094  23.217   7.353
10286POPC   NC366911  15.187  43.071   5.553
10286POPC   PO466912  15.165  43.080   5.853
10286POPC   GL166913  15.224  43.065   6.153
10286POPC   GL266914  15.341  43.088   6.153
10286POPC   C1A66915  15.144  43.140   6.453
10286POPC   D2A66916  15.216  43.132   6.753
10286POPC   C3A66917  15.142  43.078   7.053
10286POPC   C4A66918  15.199  43.141   7.353
10286POPC   C1B66919  15.443  43.167   6.453
10286POPC   C2B66920  15.418  43.181   6.753
10286POPC   C3B66921  15.404  43.160   7.053
10286POPC   C4B66922  15.434  43.167   7.353
10287POPC   NC366923  20.602  19.832   5.553
10287POPC   PO466924  20.645  19.856   5.853
10287POPC   GL166925  20.628  19.810   6.153
10287POPC   GL266926  20.655  19.891   6.153
10287POPC   C1A66927  20.611  19.826   6.453
10287POPC   D2A66928  20.607  19.845   6.753
10287POPC   C3A66929  20.657  19.857   7.053
10287POPC   C4A66930  20.637  19.882   7.353
10287POPC   C1B66931  20.749  20.053   6.453
10287POPC   C2B66932  20.820  19.983   6.753
10287POPC   C3B66933  20.820  19.974   7.053
10287POPC   C4B66934  20.788  20.025   7.353
10288POPC   NC366935  42.289  35.343   5.553
10288POPC   PO466936  42.338  35.376   5.853
10288POPC   GL166937  42.315  35.348   6.153
10288POPC   GL266938  42.216  35.319   6.153
10288POPC   C1A66939  42.301  35.344   6.453
10288POPC   D2A66940  42.326  35.308   6.753
10288POPC   C3A66941  42.336  35.319   7.053
10288POPC   C4A66942  42.324  35.342   7.353
10288POPC   C1B66943  42.083  35.232   6.453
10288POPC   C2B66944  42.126  35.306   6.753
10288POPC   C3B66945  42.061  35.314   7.053
10288POPC   C4B66946  42.140  35.245   7.353
10289POPC   NC366947   8.931   9.737   5.553
10289POPC   PO466948   8.990   9.759   5.853
10289POPC   GL166949   8.982   9.718   6.153
10289POPC   GL266950   8.903   9.905   6.153
10289POPC   C1A66951   8.962   9.773   6.453
10289POPC   D2A66952   8.949   9.740   6.753
10289POPC   C3A66953   9.002   9.783   7.053
10289POPC   C4A66954   9.017   9.760   7.353
10289POPC   C1B66955   8.867   9.970   6.453
10289POPC   C2B66956   8.889   9.960   6.753
10289POPC   C3B66957   8.929  10.001   7.053
10289POPC   C4B66958   8.909   9.939   7.353
10290POPC   NC366959  19.799  24.460   5.553
10290POPC   PO466960  19.834  24.450   5.853
10290POPC   GL166961  19.845  24.485   6.153
10290POPC   GL266962  19.850  24.617   6.153
10290POPC   C1A66963  19.828  24.454   6.453
10290POPC   D2A66964  19.815  24.460   6.753
10290POPC   C3A66965  19.884  24.501   7.053
10290POPC   C4A66966  19.820  24.502   7.353
10290POPC   C1B66967  19.749  24.692   6.453
10290POPC   C2B66968  19.804  24.718   6.753
10290POPC   C3B66969  19.798  24.697   7.053
10290POPC   C4B66970  19.792  24.740   7.353
10291POPC   NC366971  27.583   0.425   5.553
10291POPC   PO466972  27.548   0.477   5.853
10291POPC   GL166973  27.630   0.463   6.153
10291POPC   GL266974  27.644   0.323   6.153
10291POPC   C1A66975  27.553   0.399   6.453
10291POPC   D2A66976  27.633   0.441   6.753
10291POPC   C3A66977  27.620   0.425   7.053
10291POPC   C4A66978  27.605   0.476   7.353
10291POPC   C1B66979  27.713   0.200   6.453
10291POPC   C2B66980  27.746   0.199   6.753
10291POPC   C3B66981  27.780   0.207   7.053
10291POPC   C4B66982  27.698   0.251   7.353
10292POPC   NC366983  37.637  36.083   5.553
10292POPC   PO466984  37.697  36.162   5.853
10292POPC   GL166985  37.639  36.116   6.153
10292POPC   GL266986  37.561  36.149   6.153
10292POPC   C1A66987  37.712  36.163   6.453
10292POPC   D2A66988  37.689  36.122   6.753
10292POPC   C3A66989  37.689  36.102   7.053
10292POPC   C4A66990  37.689  36.125   7.353
10292POPC   C1B66991  37.447  36.030   6.453
10292POPC   C2B66992  37.424  36.061   6.753
10292POPC   C3B66993  37.450  36.116   7.053
10292POPC   C4B66994  37.436  36.096   7.353
10293POPC   NC366995  15.217   9.019   5.553
10293POPC   PO466996  15.206   8.942   5.853
10293POPC   GL166997  15.224   8.973   6.153
10293POPC   GL266998  15.114   8.907   6.153
10293POPC   C1A66999  15.177   8.982   6.453
10293POPC   D2A67000  15.227   9.018   6.753
10293POPC   C3A67001  15.212   8.977   7.053
10293POPC   C4A67002  15.209   8.992   7.353
10293POPC   C1B67003  14.999   8.796   6.453
10293POPC   C2B67004  15.013   8.795   6.753
10293POPC   C3B67005  15.079   8.776   7.053
10293POPC   C4B67006  15.014   8.754   7.353
10294POPC   NC367007  17.465  12.029   5.553
10294POPC   PO467008  17.468  12.073   5.853
10294POPC   GL167009  17.506  12.109   6.153
10294POPC   GL267010  17.389  12.091   6.153
10294POPC   C1A67011  17.492  12.101   6.453
10294POPC   D2A67012  17.511  12.086   6.753
10294POPC   C3A67013  17.508  12.073   7.053
10294POPC   C4A67014  17.524  12.056   7.353
10294POPC   C1B67015  17.237  12.045   6.453
10294POPC   C2B67016  17.299  12.055   6.753
10294POPC   C3B67017  17.225  12.049   7.053
10294POPC   C4B67018  17.219  12.081   7.353
10295POPC   NC367019  26.802  19.048   5.553
10295POPC   PO467020  26.841  19.108   5.853
10295POPC   GL167021  26.772  19.020   6.153
10295POPC   GL267022  26.725  19.046   6.153
10295POPC   C1A67023  26.797  19.023   6.453
10295POPC   D2A67024  26.844  19.082   6.753
10295POPC   C3A67025  26.829  19.100   7.053
10295POPC   C4A67026  26.825  19.057   7.353
10295POPC   C1B67027  26.534  19.169   6.453
10295POPC   C2B67028  26.580  19.095   6.753
10295POPC   C3B67029  26.571  19.101   7.053
10295POPC   C4B67030  26.583  19.131   7.353
10296POPC   NC367031  41.568  33.780   5.553
10296POPC   PO467032  41.544  33.786   5.853
10296POPC   GL167033  41.517  33.811   6.153
10296POPC   GL267034  41.586  33.919   6.153
10296POPC   C1A67035  41.535  33.838   6.453
10296POPC   D2A67036  41.579  33.756   6.753
10296POPC   C3A67037  41.543  33.791   7.053
10296POPC   C4A67038  41.582  33.814   7.353
10296POPC   C1B67039  41.700  34.008   6.453
10296POPC   C2B67040  41.662  34.040   6.753
10296POPC   C3B67041  41.685  34.048   7.053
10296POPC   C4B67042  41.667  34.060   7.353
10297POPC   NC367043  10.559  16.763   5.553
10297POPC   PO467044  10.493  16.769   5.853
10297POPC   GL167045  10.487  16.763   6.153
10297POPC   GL267046  10.418  16.609   6.153
10297POPC   C1A67047  10.553  16.716   6.453
10297POPC   D2A67048  10.517  16.719   6.753
10297POPC   C3A67049  10.475  16.729   7.053
10297POPC   C4A67050  10.547  16.721   7.353
10297POPC   C1B67051  10.390  16.495   6.453
10297POPC   C2B67052  10.401  16.563   6.753
10297POPC   C3B67053  10.388  16.493   7.053
10297POPC   C4B67054  10.423  16.470   7.353
10298POPC   NC367055  34.557  20.631   5.553
10298POPC   PO467056  34.550  20.624   5.853
10298POPC   GL167057  34.551  20.589   6.153
10298POPC   GL267058  34.681  20.695   6.153
10298POPC   C1A67059  34.618  20.633   6.453
10298POPC   D2A67060  34.535  20.596   6.753
10298POPC   C3A67061  34.544  20.652   7.053
10298POPC   C4A67062  34.613  20.566   7.353
10298POPC   C1B67063  34.770  20.742   6.453
10298POPC   C2B67064  34.843  20.688   6.753
10298POPC   C3B67065  34.784  20.737   7.053
10298POPC   C4B67066  34.833  20.767   7.353
10299POPC   NC367067  16.730  34.526   5.553
10299POPC   PO467068  16.758  34.561   5.853
10299POPC   GL167069  16.779  34.552   6.153
10299POPC   GL267070  16.790  34.614   6.153
10299POPC   C1A67071  16.734  34.599   6.453
10299POPC   D2A67072  16.708  34.563   6.753
10299POPC   C3A67073  16.751  34.594   7.053
10299POPC   C4A67074  16.737  34.540   7.353
10299POPC   C1B67075  16.919  34.738   6.453
10299POPC   C2B67076  16.881  34.785   6.753
10299POPC   C3B67077  16.907  34.761   7.053
10299POPC   C4B67078  16.946  34.787   7.353
10300POPC   NC367079  19.846  37.641   5.553
10300POPC   PO467080  19.833  37.641   5.853
10300POPC   GL167081  19.826  37.700   6.153
10300POPC   GL267082  19.956  37.748   6.153
10300POPC   C1A67083  19.789  37.679   6.453
10300POPC   D2A67084  19.794  37.686   6.753
10300POPC   C3A67085  19.877  37.693   7.053
10300POPC   C4A67086  19.872  37.630   7.353
10300POPC   C1B67087  19.981  37.835   6.453
10300POPC   C2B67088  20.071  37.826   6.753
10300POPC   C3B67089  20.071  37.851   7.053
10300POPC   C4B67090  20.049  37.839   7.353
10301POPC   NC367091  12.868  27.576   5.553
10301POPC   PO467092  12.867  27.546   5.853
10301POPC   GL167093  12.839  27.612   6.153
10301POPC   GL267094  13.001  27.594   6.153
10301POPC   C1A67095  12.844  27.545   6.453
10301POPC   D2A67096  12.884  27.604   6.753
10301POPC   C3A67097  12.865  27.640   7.053
10301POPC   C4A67098  12.858  27.636   7.353
10301POPC   C1B67099  13.106  27.615   6.453
10301POPC   C2B67100  13.076  27.588   6.753
10301POPC   C3B67101  13.139  27.589   7.053
10301POPC   C4B67102  13.063  27.620   7.353
10302POPC   NC367103  32.998  22.170   5.553
10302POPC   PO467104  33.033  22.122   5.853
10302POPC   GL167105  33.031  22.173   6.153
10302POPC   GL267106  32.981  22.053   6.153
10302POPC   C1A67107  33.027  22.194   6.453
10302POPC   D2A67108  33.074  22.198   6.753
10302POPC   C3A67109  32.986  22.156   7.053
10302POPC   C4A67110  33.047  22.141   7.353
10302POPC   C1B67111  32.865  21.940   6.453
10302POPC   C2B67112  32.911  21.921   6.753
10302POPC   C3B67113  32.836  21.913   7.053
10302POPC   C4B67114  32.834  21.954   7.353
10303POPC   NC367115  12.036   0.399   5.553
10303POPC   PO467116  12.121   0.409   5.853
10303POPC   GL167117  12.031   0.415   6.153
10303POPC   GL267118  12.140   0.344   6.153
10303POPC   C1A67119  12.120   0.476   6.453
10303POPC   D2A67120  12.109   0.477   6.753
10303POPC   C3A67121  12.072   0.457   7.053
10303POPC   C4A67122  12.037   0.393   7.353
10303POPC   C1B67123  12.171   0.173   6.453
10303POPC   C2B67124  12.175   0.210   6.753
10303POPC   C3B67125  12.142   0.203   7.053
10303POPC   C4B67126  12.152   0.216   7.353
10304POPC   NC367127   8.962   2.814   5.553
10304POPC   PO467128   9.018   2.738   5.853
10304POPC   GL167129   8.969   2.742   6.153
10304POPC   GL267130   9.058   2.808   6.153
10304POPC   C1A67131   9.003   2.739   6.453
10304POPC   D2A67132   8.983   2.789   6.753
10304POPC   C3A67133   8.937   2.782   7.053
10304POPC   C4A67134   8.977   2.803   7.353
10304POPC   C1B67135   9.099   2.979   6.453
10304POPC   C2B67136   9.159   2.992   6.753
10304POPC   C3B67137   9.159   2.910   7.053
10304POPC   C4B67138   9.120   2.948   7.353
10305POPC   NC367139  35.397  26.016   5.553
10305POPC   PO467140  35.358  26.005   5.853
10305POPC   GL167141  35.303  26.011   6.153
10305POPC   GL267142  35.309  26.177   6.153
10305POPC   C1A67143  35.326  26.040   6.453
10305POPC   D2A67144  35.366  26.040   6.753
10305POPC   C3A67145  35.382  26.084   7.053
10305POPC   C4A67146  35.376  26.086   7.353
10305POPC   C1B67147  35.189  26.218   6.453
10305POPC   C2B67148  35.153  26.250   6.753
10305POPC   C3B67149  35.135  26.216   7.053
10305POPC   C4B67150  35.201  26.185   7.353
10306POPC   NC367151  17.546  22.161   5.553
10306POPC   PO467152  17.487  22.200   5.853
10306POPC   GL167153  17.500  22.141   6.153
10306POPC   GL267154  17.661  22.150   6.153
10306POPC   C1A67155  17.530  22.140   6.453
10306POPC   D2A67156  17.531  22.152   6.753
10306POPC   C3A67157  17.554  22.187   7.053
10306POPC   C4A67158  17.490  22.196   7.353
10306POPC   C1B67159  17.792  22.200   6.453
10306POPC   C2B67160  17.716  22.208   6.753
10306POPC   C3B67161  17.753  22.202   7.053
10306POPC   C4B67162  17.723  22.213   7.353
10307POPC   NC367163  24.454  36.918   5.553
10307POPC   PO467164  24.453  36.929   5.853
10307POPC   GL167165  24.452  36.889   6.153
10307POPC   GL267166  24.592  36.853   6.153
10307POPC   C1A67167  24.502  36.889   6.453
10307POPC   D2A67168  24.471  36.905   6.753
10307POPC   C3A67169  24.511  36.947   7.053
10307POPC   C4A67170  24.484  36.911   7.353
10307POPC   C1B67171  24.747  36.844   6.453
10307POPC   C2B67172  24.715  36.911   6.753
10307POPC   C3B67173  24.776  36.890   7.053
10307POPC   C4B67174  24.717  36.919   7.353
10308POPC   NC367175  19.079   8.958   5.553
10308POPC   PO467176  19.076   8.986   5.853
10308POPC   GL167177  19.027   8.967   6.153
10308POPC   GL267178  18.893   8.932   6.153
10308POPC   C1A67179  19.023   8.938   6.453
10308POPC   D2A67180  19.024   8.996   6.753
10308POPC   C3A67181  19.054   8.963   7.053
10308POPC   C4A67182  19.085   8.977   7.353
10308POPC   C1B67183  18.768   8.881   6.453
10308POPC   C2B67184  18.793   8.889   6.753
10308POPC   C3B67185  18.829   8.882   7.053
10308POPC   C4B67186  18.820   8.918   7.353
10309POPC   NC367187  29.194  31.483   5.553
10309POPC   PO467188  29.102  31.493   5.853
10309POPC   GL167189  29.155  31.449   6.153
10309POPC   GL267190  29.211  31.353   6.153
10309POPC   C1A67191  29.190  31.459   6.453
10309POPC   D2A67192  29.134  31.502   6.753
10309POPC   C3A67193  29.176  31.432   7.053
10309POPC   C4A67194  29.119  31.444   7.353
10309POPC   C1B67195  29.265  31.284   6.453
10309POPC   C2B67196  29.234  31.234   6.753
10309POPC   C3B67197  29.300  31.271   7.053
10309POPC   C4B67198  29.290  31.213   7.353
10310POPC   NC367199  19.050  26.814   5.553
10310POPC   PO467200  19.060  26.837   5.853
10310POPC   GL167201  19.063  26.830   6.153
10310POPC   GL267202  19.054  26.734   6.153
10310POPC   C1A67203  19.099  26.853   6.453
10310POPC   D2A67204  19.074  26.806   6.753
10310POPC   C3A67205  19.057  26.847   7.053
10310POPC   C4A67206  19.044  26.847   7.353
10310POPC   C1B67207  19.044  26.610   6.453
10310POPC   C2B67208  19.076  26.572   6.753
10310POPC   C3B67209  19.113  26.586   7.053
10310POPC   C4B67210  19.068  26.600   7.353
10311POPC   NC367211  44.643  33.788   5.553
10311POPC   PO467212  44.624  33.798   5.853
10311POPC   GL167213  44.681  33.750   6.153
10311POPC   GL267214  44.783  33.866   6.153
10311POPC   C1A67215  44.630  33.832   6.453
10311POPC   D2A67216  44.699  33.811   6.753
10311POPC   C3A67217  44.629  33.763   7.053
10311POPC   C4A67218  44.687  33.836   7.353
10311POPC   C1B67219  44.807  33.962   6.453
10311POPC   C2B67220  44.855  33.944   6.753
10311POPC   C3B67221  44.802  34.030   7.053
10311POPC   C4B67222  44.810  33.971   7.353
10312POPC   NC367223  23.751  10.508   5.553
10312POPC   PO467224  23.727  10.555   5.853
10312POPC   GL167225  23.734  10.551   6.153
10312POPC   GL267226  23.673  10.485   6.153
10312POPC   C1A67227  23.700  10.494   6.453
10312POPC   D2A67228  23.676  10.532   6.753
10312POPC   C3A67229  23.723  10.489   7.053
10312POPC   C4A67230  23.679  10.543   7.353
10312POPC   C1B67231  23.559  10.331   6.453
10312POPC   C2B67232  23.513  10.324   6.753
10312POPC   C3B67233  23.563  10.366   7.053
10312POPC   C4B67234  23.555  10.302   7.353
10313POPC   NC367235  24.487  33.025   5.553
10313POPC   PO467236  24.497  33.027   5.853
10313POPC   GL167237  24.511  33.020   6.153
10313POPC   GL267238  24.348  33.064   6.153
10313POPC   C1A67239  24.515  33.037   6.453
10313POPC   D2A67240  24.510  33.036   6.753
10313POPC   C3A67241  24.441  32.983   7.053
10313POPC   C4A67242  24.518  33.048   7.353
10313POPC   C1B67243  24.254  32.987   6.453
10313POPC   C2B67244  24.202  32.978   6.753
10313POPC   C3B67245  24.214  33.020   7.053
10313POPC   C4B67246  24.216  32.969   7.353
10314POPC   NC367247  16.002  22.141   5.553
10314POPC   PO467248  15.988  22.169   5.853
10314POPC   GL167249  15.994  22.121   6.153
10314POPC   GL267250  16.028  22.081   6.153
10314POPC   C1A67251  15.920  22.170   6.453
10314POPC   D2A67252  15.993  22.130   6.753
10314POPC   C3A67253  15.998  22.210   7.053
10314POPC   C4A67254  16.001  22.182   7.353
10314POPC   C1B67255  16.217  22.081   6.453
10314POPC   C2B67256  16.157  22.039   6.753
10314POPC   C3B67257  16.211  22.037   7.053
10314POPC   C4B67258  16.183  22.053   7.353
10315POPC   NC367259  22.203  34.582   5.553
10315POPC   PO467260  22.112  34.558   5.853
10315POPC   GL167261  22.125  34.558   6.153
10315POPC   GL267262  22.140  34.644   6.153
10315POPC   C1A67263  22.191  34.540   6.453
10315POPC   D2A67264  22.123  34.556   6.753
10315POPC   C3A67265  22.171  34.556   7.053
10315POPC   C4A67266  22.114  34.551   7.353
10315POPC   C1B67267  22.128  34.769   6.453
10315POPC   C2B67268  22.060  34.861   6.753
10315POPC   C3B67269  22.090  34.855   7.053
10315POPC   C4B67270  22.092  34.831   7.353
10316POPC   NC367271  26.015  19.060   5.553
10316POPC   PO467272  26.050  19.019   5.853
10316POPC   GL167273  26.027  19.101   6.153
10316POPC   GL267274  26.014  19.220   6.153
10316POPC   C1A67275  26.027  19.050   6.453
10316POPC   D2A67276  26.055  19.097   6.753
10316POPC   C3A67277  26.077  19.056   7.053
10316POPC   C4A67278  26.049  19.086   7.353
10316POPC   C1B67279  26.028  19.274   6.453
10316POPC   C2B67280  26.038  19.265   6.753
10316POPC   C3B67281  26.072  19.319   7.053
10316POPC   C4B67282  26.032  19.313   7.353
10317POPC   NC367283  38.487  40.823   5.553
10317POPC   PO467284  38.444  40.790   5.853
10317POPC   GL167285  38.482  40.810   6.153
10317POPC   GL267286  38.544  40.744   6.153
10317POPC   C1A67287  38.495  40.740   6.453
10317POPC   D2A67288  38.465  40.780   6.753
10317POPC   C3A67289  38.413  40.780   7.053
10317POPC   C4A67290  38.487  40.828   7.353
10317POPC   C1B67291  38.669  40.674   6.453
10317POPC   C2B67292  38.743  40.745   6.753
10317POPC   C3B67293  38.732  40.708   7.053
10317POPC   C4B67294  38.700  40.741   7.353
10318POPC   NC367295   6.634   8.190   5.553
10318POPC   PO467296   6.644   8.163   5.853
10318POPC   GL167297   6.631   8.154   6.153
10318POPC   GL267298   6.572   8.326   6.153
10318POPC   C1A67299   6.690   8.155   6.453
10318POPC   D2A67300   6.664   8.162   6.753
10318POPC   C3A67301   6.673   8.181   7.053
10318POPC   C4A67302   6.652   8.170   7.353
10318POPC   C1B67303   6.483   8.363   6.453
10318POPC   C2B67304   6.430   8.387   6.753
10318POPC   C3B67305   6.486   8.374   7.053
10318POPC   C4B67306   6.429   8.404   7.353
10319POPC   NC367307  12.111  23.718   5.553
10319POPC   PO467308  12.027  23.714   5.853
10319POPC   GL167309  12.078  23.726   6.153
10319POPC   GL267310  12.215  23.626   6.153
10319POPC   C1A67311  12.041  23.683   6.453
10319POPC   D2A67312  12.098  23.753   6.753
10319POPC   C3A67313  12.105  23.736   7.053
10319POPC   C4A67314  12.039  23.724   7.353
10319POPC   C1B67315  12.320  23.640   6.453
10319POPC   C2B67316  12.323  23.591   6.753
10319POPC   C3B67317  12.313  23.658   7.053
10319POPC   C4B67318  12.323  23.632   7.353
10320POPC   NC367319  26.774  16.717   5.553
10320POPC   PO467320  26.808  16.767   5.853
10320POPC   GL167321  26.864  16.711   6.153
10320POPC   GL267322  26.900  16.849   6.153
10320POPC   C1A67323  26.849  16.775   6.453
10320POPC   D2A67324  26.823  16.766   6.753
10320POPC   C3A67325  26.856  16.739   7.053
10320POPC   C4A67326  26.853  16.772   7.353
10320POPC   C1B67327  26.977  16.963   6.453
10320POPC   C2B67328  26.984  16.886   6.753
10320POPC   C3B67329  26.972  16.917   7.053
10320POPC   C4B67330  26.959  16.950   7.353
10321POPC   NC367331  39.983   5.822   5.553
10321POPC   PO467332  39.975   5.842   5.853
10321POPC   GL167333  39.980   5.832   6.153
10321POPC   GL267334  39.850   5.956   6.153
10321POPC   C1A67335  39.965   5.858   6.453
10321POPC   D2A67336  40.056   5.919   6.753
10321POPC   C3A67337  40.004   5.902   7.053
10321POPC   C4A67338  40.052   5.902   7.353
10321POPC   C1B67339  39.747   5.952   6.453
10321POPC   C2B67340  39.778   5.981   6.753
10321POPC   C3B67341  39.834   5.989   7.053
10321POPC   C4B67342  39.775   5.972   7.353
10322POPC   NC367343  35.325  40.746   5.553
10322POPC   PO467344  35.377  40.780   5.853
10322POPC   GL167345  35.334  40.796   6.153
10322POPC   GL267346  35.345  40.952   6.153
10322POPC   C1A67347  35.326  40.749   6.453
10322POPC   D2A67348  35.302  40.753   6.753
10322POPC   C3A67349  35.383  40.762   7.053
10322POPC   C4A67350  35.336  40.784   7.353
10322POPC   C1B67351  35.349  41.010   6.453
10322POPC   C2B67352  35.351  41.063   6.753
10322POPC   C3B67353  35.300  41.059   7.053
10322POPC   C4B67354  35.262  40.991   7.353
10323POPC   NC367355  30.723   4.293   5.553
10323POPC   PO467356  30.714   4.317   5.853
10323POPC   GL167357  30.649   4.289   6.153
10323POPC   GL267358  30.685   4.183   6.153
10323POPC   C1A67359  30.740   4.308   6.453
10323POPC   D2A67360  30.707   4.363   6.753
10323POPC   C3A67361  30.701   4.298   7.053
10323POPC   C4A67362  30.732   4.315   7.353
10323POPC   C1B67363  30.588   4.036   6.453
10323POPC   C2B67364  30.583   4.040   6.753
10323POPC   C3B67365  30.622   4.084   7.053
10323POPC   C4B67366  30.609   4.083   7.353
10324POPC   NC367367   4.349  40.797   5.553
10324POPC   PO467368   4.364  40.735   5.853
10324POPC   GL167369   4.288  40.781   6.153
10324POPC   GL267370   4.461  40.686   6.153
10324POPC   C1A67371   4.349  40.736   6.453
10324POPC   D2A67372   4.290  40.777   6.753
10324POPC   C3A67373   4.313  40.798   7.053
10324POPC   C4A67374   4.308  40.795   7.353
10324POPC   C1B67375   4.552  40.673   6.453
10324POPC   C2B67376   4.523  40.681   6.753
10324POPC   C3B67377   4.536  40.623   7.053
10324POPC   C4B67378   4.505  40.616   7.353
10325POPC   NC367379  40.824  33.006   5.553
10325POPC   PO467380  40.741  33.037   5.853
10325POPC   GL167381  40.757  33.024   6.153
10325POPC   GL267382  40.688  33.039   6.153
10325POPC   C1A67383  40.760  33.035   6.453
10325POPC   D2A67384  40.741  33.013   6.753
10325POPC   C3A67385  40.745  32.980   7.053
10325POPC   C4A67386  40.822  33.019   7.353
10325POPC   C1B67387  40.544  33.150   6.453
10325POPC   C2B67388  40.558  33.073   6.753
10325POPC   C3B67389  40.519  33.156   7.053
10325POPC   C4B67390  40.534  33.132   7.353
10326POPC   NC367391  41.571  40.832   5.553
10326POPC   PO467392  41.532  40.799   5.853
10326POPC   GL167393  41.538  40.738   6.153
10326POPC   GL267394  41.700  40.905   6.153
10326POPC   C1A67395  41.591  40.751   6.453
10326POPC   D2A67396  41.530  40.818   6.753
10326POPC   C3A67397  41.553  40.814   7.053
10326POPC   C4A67398  41.566  40.795   7.353
10326POPC   C1B67399  41.787  40.922   6.453
10326POPC   C2B67400  41.717  40.987   6.753
10326POPC   C3B67401  41.763  40.904   7.053
10326POPC   C4B67402  41.722  40.988   7.353
10327POPC   NC367403   9.740  13.639   5.553
10327POPC   PO467404   9.791  13.609   5.853
10327POPC   GL167405   9.773  13.668   6.153
10327POPC   GL267406   9.714  13.784   6.153
10327POPC   C1A67407   9.762  13.589   6.453
10327POPC   D2A67408   9.731  13.667   6.753
10327POPC   C3A67409   9.768  13.619   7.053
10327POPC   C4A67410   9.715  13.616   7.353
10327POPC   C1B67411   9.734  13.864   6.453
10327POPC   C2B67412   9.777  13.850   6.753
10327POPC   C3B67413   9.708  13.848   7.053
10327POPC   C4B67414   9.756  13.898   7.353
10328POPC   NC367415  36.949  41.592   5.553
10328POPC   PO467416  36.877  41.585   5.853
10328POPC   GL167417  36.938  41.606   6.153
10328POPC   GL267418  36.889  41.468   6.153
10328POPC   C1A67419  36.933  41.529   6.453
10328POPC   D2A67420  36.910  41.578   6.753
10328POPC   C3A67421  36.932  41.564   7.053
10328POPC   C4A67422  36.919  41.512   7.353
10328POPC   C1B67423  36.835  41.348   6.453
10328POPC   C2B67424  36.839  41.295   6.753
10328POPC   C3B67425  36.834  41.303   7.053
10328POPC   C4B67426  36.837  41.377   7.353
10329POPC   NC367427   6.690  35.329   5.553
10329POPC   PO467428   6.597  35.391   5.853
10329POPC   GL167429   6.598  35.346   6.153
10329POPC   GL267430   6.686  35.207   6.153
10329POPC   C1A67431   6.666  35.329   6.453
10329POPC   D2A67432   6.660  35.354   6.753
10329POPC   C3A67433   6.687  35.359   7.053
10329POPC   C4A67434   6.596  35.363   7.353
10329POPC   C1B67435   6.687  35.138   6.453
10329POPC   C2B67436   6.694  35.054   6.753
10329POPC   C3B67437   6.708  35.060   7.053
10329POPC   C4B67438   6.624  35.087   7.353
10330POPC   NC367439  38.487  34.580   5.553
10330POPC   PO467440  38.416  34.576   5.853
10330POPC   GL167441  38.463  34.554   6.153
10330POPC   GL267442  38.423  34.675   6.153
10330POPC   C1A67443  38.484  34.600   6.453
10330POPC   D2A67444  38.423  34.575   6.753
10330POPC   C3A67445  38.456  34.594   7.053
10330POPC   C4A67446  38.465  34.556   7.353
10330POPC   C1B67447  38.377  34.771   6.453
10330POPC   C2B67448  38.357  34.760   6.753
10330POPC   C3B67449  38.299  34.751   7.053
10330POPC   C4B67450  38.331  34.822   7.353
10331POPC   NC367451  17.470   8.215   5.553
10331POPC   PO467452  17.499   8.164   5.853
10331POPC   GL167453  17.500   8.218   6.153
10331POPC   GL267454  17.386   8.122   6.153
10331POPC   C1A67455  17.523   8.235   6.453
10331POPC   D2A67456  17.519   8.182   6.753
10331POPC   C3A67457  17.460   8.207   7.053
10331POPC   C4A67458  17.546   8.206   7.353
10331POPC   C1B67459  17.305   8.037   6.453
10331POPC   C2B67460  17.333   7.988   6.753
10331POPC   C3B67461  17.286   7.985   7.053
10331POPC   C4B67462  17.301   8.000   7.353
10332POPC   NC367463  41.537  38.417   5.553
10332POPC   PO467464  41.537  38.484   5.853
10332POPC   GL167465  41.574  38.482   6.153
10332POPC   GL267466  41.693  38.482   6.153
10332POPC   C1A67467  41.601  38.443   6.453
10332POPC   D2A67468  41.584  38.476   6.753
10332POPC   C3A67469  41.571  38.479   7.053
10332POPC   C4A67470  41.591  38.415   7.353
10332POPC   C1B67471  41.807  38.483   6.453
10332POPC   C2B67472  41.828  38.395   6.753
10332POPC   C3B67473  41.777  38.432   7.053
10332POPC   C4B67474  41.853  38.390   7.353
10333POPC   NC367475   0.474   8.234   5.553
10333POPC   PO467476   0.442   8.195   5.853
10333POPC   GL167477   0.421   8.215   6.153
10333POPC   GL267478   0.353   8.207   6.153
10333POPC   C1A67479   0.485   8.169   6.453
10333POPC   D2A67480   0.470   8.219   6.753
10333POPC   C3A67481   0.455   8.223   7.053
10333POPC   C4A67482   0.418   8.227   7.353
10333POPC   C1B67483   0.178   8.237   6.453
10333POPC   C2B67484   0.181   8.175   6.753
10333POPC   C3B67485   0.178   8.219   7.053
10333POPC   C4B67486   0.200   8.170   7.353
10334POPC   NC367487   7.397  16.751   5.553
10334POPC   PO467488   7.419  16.690   5.853
10334POPC   GL167489   7.384  16.778   6.153
10334POPC   GL267490   7.287  16.797   6.153
10334POPC   C1A67491   7.410  16.692   6.453
10334POPC   D2A67492   7.405  16.768   6.753
10334POPC   C3A67493   7.387  16.716   7.053
10334POPC   C4A67494   7.466  16.718   7.353
10334POPC   C1B67495   7.225  16.932   6.453
10334POPC   C2B67496   7.189  16.858   6.753
10334POPC   C3B67497   7.242  16.916   7.053
10334POPC   C4B67498   7.268  16.935   7.353
10335POPC   NC367499  36.108  40.734   5.553
10335POPC   PO467500  36.148  40.817   5.853
10335POPC   GL167501  36.123  40.759   6.153
10335POPC   GL267502  36.000  40.758   6.153
10335POPC   C1A67503  36.103  40.742   6.453
10335POPC   D2A67504  36.149  40.771   6.753
10335POPC   C3A67505  36.117  40.831   7.053
10335POPC   C4A67506  36.105  40.775   7.353
10335POPC   C1B67507  35.878  40.688   6.453
10335POPC   C2B67508  35.894  40.724   6.753
10335POPC   C3B67509  35.946  40.646   7.053
10335POPC   C4B67510  35.865  40.703   7.353
10336POPC   NC367511  15.924  11.343   5.553
10336POPC   PO467512  15.910  11.250   5.853
10336POPC   GL167513  15.988  11.346   6.153
10336POPC   GL267514  15.996  11.170   6.153
10336POPC   C1A67515  15.985  11.348   6.453
10336POPC   D2A67516  15.976  11.267   6.753
10336POPC   C3A67517  15.997  11.286   7.053
10336POPC   C4A67518  15.921  11.289   7.353
10336POPC   C1B67519  16.104  11.074   6.453
10336POPC   C2B67520  16.117  11.065   6.753
10336POPC   C3B67521  16.116  11.093   7.053
10336POPC   C4B67522  16.091  11.133   7.353
10337POPC   NC367523  41.578  18.235   5.553
10337POPC   PO467524  41.543  18.332   5.853
10337POPC   GL167525  41.510  18.321   6.153
10337POPC   GL267526  41.454  18.296   6.153
10337POPC   C1A67527  41.552  18.285   6.453
10337POPC   D2A67528  41.540  18.294   6.753
10337POPC   C3A67529  41.608  18.324   7.053
10337POPC   C4A67530  41.591  18.287   7.353
10337POPC   C1B67531  41.295  18.375   6.453
10337POPC   C2B67532  41.338  18.380   6.753
10337POPC   C3B67533  41.304  18.388   7.053
10337POPC   C4B67534  41.342  18.388   7.353
10338POPC   NC367535  24.467  15.995   5.553
10338POPC   PO467536  24.445  15.932   5.853
10338POPC   GL167537  24.442  15.918   6.153
10338POPC   GL267538  24.593  15.923   6.153
10338POPC   C1A67539  24.495  15.910   6.453
10338POPC   D2A67540  24.517  16.005   6.753
10338POPC   C3A67541  24.512  15.926   7.053
10338POPC   C4A67542  24.499  15.943   7.353
10338POPC   C1B67543  24.727  15.918   6.453
10338POPC   C2B67544  24.687  15.857   6.753
10338POPC   C3B67545  24.762  15.840   7.053
10338POPC   C4B67546  24.689  15.916   7.353
10339POPC   NC367547  19.870  29.104   5.553
10339POPC   PO467548  19.883  29.186   5.853
10339POPC   GL167549  19.835  29.117   6.153
10339POPC   GL267550  19.837  29.296   6.153
10339POPC   C1A67551  19.857  29.118   6.453
10339POPC   D2A67552  19.839  29.117   6.753
10339POPC   C3A67553  19.880  29.150   7.053
10339POPC   C4A67554  19.810  29.179   7.353
10339POPC   C1B67555  19.762  29.381   6.453
10339POPC   C2B67556  19.797  29.374   6.753
10339POPC   C3B67557  19.787  29.421   7.053
10339POPC   C4B67558  19.768  29.421   7.353
10340POPC   NC367559  10.490  12.838   5.553
10340POPC   PO467560  10.510  12.803   5.853
10340POPC   GL167561  10.492  12.811   6.153
10340POPC   GL267562  10.589  12.726   6.153
10340POPC   C1A67563  10.478  12.841   6.453
10340POPC   D2A67564  10.476  12.899   6.753
10340POPC   C3A67565  10.557  12.821   7.053
10340POPC   C4A67566  10.531  12.814   7.353
10340POPC   C1B67567  10.651  12.618   6.453
10340POPC   C2B67568  10.691  12.613   6.753
10340POPC   C3B67569  10.611  12.665   7.053
10340POPC   C4B67570  10.631  12.619   7.353
10341POPC   NC367571  14.419  18.251   5.553
10341POPC   PO467572  14.431  18.256   5.853
10341POPC   GL167573  14.403  18.333   6.153
10341POPC   GL267574  14.406  18.418   6.153
10341POPC   C1A67575  14.363  18.332   6.453
10341POPC   D2A67576  14.363  18.308   6.753
10341POPC   C3A67577  14.438  18.275   7.053
10341POPC   C4A67578  14.446  18.276   7.353
10341POPC   C1B67579  14.471  18.535   6.453
10341POPC   C2B67580  14.413  18.484   6.753
10341POPC   C3B67581  14.451  18.492   7.053
10341POPC   C4B67582  14.417  18.573   7.353
10342POPC   NC367583  35.386  29.884   5.553
10342POPC   PO467584  35.328  29.947   5.853
10342POPC   GL167585  35.341  29.923   6.153
10342POPC   GL267586  35.248  30.078   6.153
10342POPC   C1A67587  35.376  29.961   6.453
10342POPC   D2A67588  35.306  29.928   6.753
10342POPC   C3A67589  35.337  29.908   7.053
10342POPC   C4A67590  35.308  29.903   7.353
10342POPC   C1B67591  35.229  30.177   6.453
10342POPC   C2B67592  35.199  30.118   6.753
10342POPC   C3B67593  35.274  30.154   7.053
10342POPC   C4B67594  35.249  30.138   7.353
10343POPC   NC367595  41.552  30.691   5.553
10343POPC   PO467596  41.518  30.653   5.853
10343POPC   GL167597  41.598  30.705   6.153
10343POPC   GL267598  41.568  30.566   6.153
10343POPC   C1A67599  41.590  30.660   6.453
10343POPC   D2A67600  41.575  30.714   6.753
10343POPC   C3A67601  41.607  30.676   7.053
10343POPC   C4A67602  41.542  30.659   7.353
10343POPC   C1B67603  41.534  30.422   6.453
10343POPC   C2B67604  41.512  30.435   6.753
10343POPC   C3B67605  41.501  30.454   7.053
10343POPC   C4B67606  41.480  30.440   7.353
10344POPC   NC367607  37.667  26.070   5.553
10344POPC   PO467608  37.728  26.037   5.853
10344POPC   GL167609  37.713  26.043   6.153
10344POPC   GL267610  37.753  25.965   6.153
10344POPC   C1A67611  37.647  25.997   6.453
10344POPC   D2A67612  37.701  26.072   6.753
10344POPC   C3A67613  37.671  26.061   7.053
10344POPC   C4A67614  37.630  26.081   7.353
10344POPC   C1B67615  37.900  25.843   6.453
10344POPC   C2B67616  37.903  25.875   6.753
10344POPC   C3B67617  37.845  25.897   7.053
10344POPC   C4B67618  37.912  25.918   7.353
10345POPC   NC367619  34.535  23.734   5.553
10345POPC   PO467620  34.591  23.725   5.853
10345POPC   GL167621  34.602  23.747   6.153
10345POPC   GL267622  34.613  23.636   6.153
10345POPC   C1A67623  34.541  23.723   6.453
10345POPC   D2A67624  34.545  23.761   6.753
10345POPC   C3A67625  34.589  23.747   7.053
10345POPC   C4A67626  34.583  23.679   7.353
10345POPC   C1B67627  34.699  23.461   6.453
10345POPC   C2B67628  34.670  23.523   6.753
10345POPC   C3B67629  34.692  23.476   7.053
10345POPC   C4B67630  34.710  23.480   7.353
10346POPC   NC367631  19.865  36.162   5.553
10346POPC   PO467632  19.831  36.176   5.853
10346POPC   GL167633  19.849  36.149   6.153
10346POPC   GL267634  19.859  36.211   6.153
10346POPC   C1A67635  19.841  36.121   6.453
10346POPC   D2A67636  19.811  36.112   6.753
10346POPC   C3A67637  19.851  36.083   7.053
10346POPC   C4A67638  19.874  36.120   7.353
10346POPC   C1B67639  19.789  36.332   6.453
10346POPC   C2B67640  19.852  36.362   6.753
10346POPC   C3B67641  19.795  36.422   7.053
10346POPC   C4B67642  19.812  36.404   7.353
10347POPC   NC367643  37.664  33.011   5.553
10347POPC   PO467644  37.673  33.010   5.853
10347POPC   GL167645  37.680  33.034   6.153
10347POPC   GL267646  37.678  32.883   6.153
10347POPC   C1A67647  37.643  32.990   6.453
10347POPC   D2A67648  37.670  33.039   6.753
10347POPC   C3A67649  37.670  32.996   7.053
10347POPC   C4A67650  37.687  32.990   7.353
10347POPC   C1B67651  37.646  32.814   6.453
10347POPC   C2B67652  37.674  32.735   6.753
10347POPC   C3B67653  37.596  32.731   7.053
10347POPC   C4B67654  37.661  32.827   7.353
10348POPC   NC367655   0.481   1.187   5.553
10348POPC   PO467656   0.406   1.191   5.853
10348POPC   GL167657   0.459   1.193   6.153
10348POPC   GL267658   0.572   1.234   6.153
10348POPC   C1A67659   0.413   1.236   6.453
10348POPC   D2A67660   0.434   1.246   6.753
10348POPC   C3A67661   0.468   1.236   7.053
10348POPC   C4A67662   0.405   1.255   7.353
10348POPC   C1B67663   0.649   1.244   6.453
10348POPC   C2B67664   0.687   1.241   6.753
10348POPC   C3B67665   0.708   1.217   7.053
10348POPC   C4B67666   0.668   1.289   7.353
10349POPC   NC367667  19.830  31.442   5.553
10349POPC   PO467668  19.822  31.450   5.853
10349POPC   GL167669  19.833  31.447   6.153
10349POPC   GL267670  19.806  31.347   6.153
10349POPC   C1A67671  19.870  31.498   6.453
10349POPC   D2A67672  19.846  31.432   6.753
10349POPC   C3A67673  19.854  31.467   7.053
10349POPC   C4A67674  19.844  31.510   7.353
10349POPC   C1B67675  19.683  31.213   6.453
10349POPC   C2B67676  19.716  31.228   6.753
10349POPC   C3B67677  19.668  31.271   7.053
10349POPC   C4B67678  19.714  31.251   7.353
10350POPC   NC367679  36.889  34.595   5.553
10350POPC   PO467680  36.920  34.606   5.853
10350POPC   GL167681  36.862  34.606   6.153
10350POPC   GL267682  36.958  34.679   6.153
10350POPC   C1A67683  36.871  34.606   6.453
10350POPC   D2A67684  36.907  34.530   6.753
10350POPC   C3A67685  36.856  34.588   7.053
10350POPC   C4A67686  36.936  34.589   7.353
10350POPC   C1B67687  37.075  34.715   6.453
10350POPC   C2B67688  37.082  34.681   6.753
10350POPC   C3B67689  37.078  34.735   7.053
10350POPC   C4B67690  37.075  34.729   7.353
10351POPC   NC367691  16.004  43.884   5.553
10351POPC   PO467692  15.918  43.910   5.853
10351POPC   GL167693  15.964  43.867   6.153
10351POPC   GL267694  16.040  43.919   6.153
10351POPC   C1A67695  15.907  43.844   6.453
10351POPC   D2A67696  15.954  43.841   6.753
10351POPC   C3A67697  15.987  43.917   7.053
10351POPC   C4A67698  15.958  43.913   7.353
10351POPC   C1B67699  16.158  43.899   6.453
10351POPC   C2B67700  16.249  43.877   6.753
10351POPC   C3B67701  16.218  43.833   7.053
10351POPC   C4B67702  16.192  43.810   7.353
10352POPC   NC367703  20.570  17.513   5.553
10352POPC   PO467704  20.569  17.518   5.853
10352POPC   GL167705  20.587  17.557   6.153
10352POPC   GL267706  20.715  17.478   6.153
10352POPC   C1A67707  20.619  17.553   6.453
10352POPC   D2A67708  20.622  17.500   6.753
10352POPC   C3A67709  20.644  17.509   7.053
10352POPC   C4A67710  20.650  17.548   7.353
10352POPC   C1B67711  20.849  17.362   6.453
10352POPC   C2B67712  20.846  17.371   6.753
10352POPC   C3B67713  20.854  17.396   7.053
10352POPC   C4B67714  20.876  17.431   7.353
10353POPC   NC367715  36.904  36.895   5.553
10353POPC   PO467716  36.860  36.904   5.853
10353POPC   GL167717  36.860  36.894   6.153
10353POPC   GL267718  36.783  36.857   6.153
10353POPC   C1A67719  36.920  36.953   6.453
10353POPC   D2A67720  36.906  36.859   6.753
10353POPC   C3A67721  36.884  36.868   7.053
10353POPC   C4A67722  36.901  36.883   7.353
10353POPC   C1B67723  36.728  36.828   6.453
10353POPC   C2B67724  36.646  36.815   6.753
10353POPC   C3B67725  36.668  36.819   7.053
10353POPC   C4B67726  36.631  36.785   7.353
10354POPC   NC367727  23.700  33.808   5.553
10354POPC   PO467728  23.761  33.785   5.853
10354POPC   GL167729  23.721  33.755   6.153
10354POPC   GL267730  23.646  33.911   6.153
10354POPC   C1A67731  23.735  33.781   6.453
10354POPC   D2A67732  23.673  33.753   6.753
10354POPC   C3A67733  23.760  33.754   7.053
10354POPC   C4A67734  23.729  33.840   7.353
10354POPC   C1B67735  23.494  33.963   6.453
10354POPC   C2B67736  23.513  33.981   6.753
10354POPC   C3B67737  23.508  34.001   7.053
10354POPC   C4B67738  23.530  34.009   7.353
10355POPC   NC367739  23.686   1.255   5.553
10355POPC   PO467740  23.727   1.175   5.853
10355POPC   GL167741  23.720   1.183   6.153
10355POPC   GL267742  23.748   1.059   6.153
10355POPC   C1A67743  23.737   1.247   6.453
10355POPC   D2A67744  23.749   1.237   6.753
10355POPC   C3A67745  23.671   1.240   7.053
10355POPC   C4A67746  23.681   1.222   7.353
10355POPC   C1B67747  23.711   1.001   6.453
10355POPC   C2B67748  23.692   0.914   6.753
10355POPC   C3B67749  23.766   0.925   7.053
10355POPC   C4B67750  23.749   1.002   7.353
10356POPC   NC367751   5.865  14.448   5.553
10356POPC   PO467752   5.857  14.408   5.853
10356POPC   GL167753   5.865  14.363   6.153
10356POPC   GL267754   5.973  14.370   6.153
10356POPC   C1A67755   5.901  14.416   6.453
10356POPC   D2A67756   5.842  14.408   6.753
10356POPC   C3A67757   5.841  14.437   7.053
10356POPC   C4A67758   5.893  14.397   7.353
10356POPC   C1B67759   6.091  14.260   6.453
10356POPC   C2B67760   6.105  14.229   6.753
10356POPC   C3B67761   6.060  14.220   7.053
10356POPC   C4B67762   6.015  14.223   7.353
10357POPC   NC367763  23.682  34.576   5.553
10357POPC   PO467764  23.746  34.570   5.853
10357POPC   GL167765  23.739  34.528   6.153
10357POPC   GL267766  23.769  34.473   6.153
10357POPC   C1A67767  23.734  34.561   6.453
10357POPC   D2A67768  23.750  34.601   6.753
10357POPC   C3A67769  23.723  34.618   7.053
10357POPC   C4A67770  23.698  34.542   7.353
10357POPC   C1B67771  23.772  34.391   6.453
10357POPC   C2B67772  23.806  34.302   6.753
10357POPC   C3B67773  23.837  34.359   7.053
10357POPC   C4B67774  23.761  34.378   7.353
10358POPC   NC367775  41.540  24.448   5.553
10358POPC   PO467776  41.590  24.504   5.853
10358POPC   GL167777  41.586  24.446   6.153
10358POPC   GL267778  41.458  24.538   6.153
10358POPC   C1A67779  41.568  24.482   6.453
10358POPC   D2A67780  41.603  24.451   6.753
10358POPC   C3A67781  41.533  24.448   7.053
10358POPC   C4A67782  41.530  24.511   7.353
10358POPC   C1B67783  41.391  24.609   6.453
10358POPC   C2B67784  41.319  24.650   6.753
10358POPC   C3B67785  41.377  24.651   7.053
10358POPC   C4B67786  41.331  24.617   7.353
10359POPC   NC367787  12.826  28.418   5.553
10359POPC   PO467788  12.899  28.376   5.853
10359POPC   GL167789  12.827  28.326   6.153
10359POPC   GL267790  13.021  28.349   6.153
10359POPC   C1A67791  12.900  28.338   6.453
10359POPC   D2A67792  12.813  28.370   6.753
10359POPC   C3A67793  12.838  28.404   7.053
10359POPC   C4A67794  12.899  28.359   7.353
10359POPC   C1B67795  13.078  28.379   6.453
10359POPC   C2B67796  13.072  28.379   6.753
10359POPC   C3B67797  13.119  28.408   7.053
10359POPC   C4B67798  13.106  28.413   7.353
10360POPC   NC367799  35.342  41.577   5.553
10360POPC   PO467800  35.339  41.576   5.853
10360POPC   GL167801  35.363  41.592   6.153
10360POPC   GL267802  35.290  41.461   6.153
10360POPC   C1A67803  35.342  41.553   6.453
10360POPC   D2A67804  35.379  41.510   6.753
10360POPC   C3A67805  35.399  41.550   7.053
10360POPC   C4A67806  35.401  41.596   7.353
10360POPC   C1B67807  35.175  41.301   6.453
10360POPC   C2B67808  35.254  41.387   6.753
10360POPC   C3B67809  35.244  41.303   7.053
10360POPC   C4B67810  35.219  41.349   7.353
10361POPC   NC367811  19.822  10.478   5.553
10361POPC   PO467812  19.857  10.559   5.853
10361POPC   GL167813  19.845  10.533   6.153
10361POPC   GL267814  19.984  10.459   6.153
10361POPC   C1A67815  19.849  10.565   6.453
10361POPC   D2A67816  19.807  10.548   6.753
10361POPC   C3A67817  19.861  10.557   7.053
10361POPC   C4A67818  19.882  10.517   7.353
10361POPC   C1B67819  20.046  10.472   6.453
10361POPC   C2B67820  20.101  10.487   6.753
10361POPC   C3B67821  20.101  10.530   7.053
10361POPC   C4B67822  20.089  10.469   7.353
10362POPC   NC367823  15.212  42.383   5.553
10362POPC   PO467824  15.193  42.344   5.853
10362POPC   GL167825  15.145  42.295   6.153
10362POPC   GL267826  15.084  42.257   6.153
10362POPC   C1A67827  15.134  42.333   6.453
10362POPC   D2A67828  15.194  42.384   6.753
10362POPC   C3A67829  15.200  42.331   7.053
10362POPC   C4A67830  15.226  42.329   7.353
10362POPC   C1B67831  14.956  42.218   6.453
10362POPC   C2B67832  14.996  42.180   6.753
10362POPC   C3B67833  15.020  42.182   7.053
10362POPC   C4B67834  14.995  42.163   7.353
10363POPC   NC367835   3.579  37.721   5.553
10363POPC   PO467836   3.535  37.635   5.853
10363POPC   GL167837   3.521  37.643   6.153
10363POPC   GL267838   3.459  37.631   6.153
10363POPC   C1A67839   3.571  37.673   6.453
10363POPC   D2A67840   3.523  37.711   6.753
10363POPC   C3A67841   3.573  37.670   7.053
10363POPC   C4A67842   3.524  37.703   7.353
10363POPC   C1B67843   3.264  37.602   6.453
10363POPC   C2B67844   3.338  37.667   6.753
10363POPC   C3B67845   3.257  37.632   7.053
10363POPC   C4B67846   3.272  37.690   7.353
10364POPC   NC367847  20.624  16.751   5.553
10364POPC   PO467848  20.657  16.768   5.853
10364POPC   GL167849  20.566  16.688   6.153
10364POPC   GL267850  20.464  16.768   6.153
10364POPC   C1A67851  20.571  16.737   6.453
10364POPC   D2A67852  20.616  16.718   6.753
10364POPC   C3A67853  20.576  16.777   7.053
10364POPC   C4A67854  20.635  16.719   7.353
10364POPC   C1B67855  20.365  16.711   6.453
10364POPC   C2B67856  20.363  16.726   6.753
10364POPC   C3B67857  20.347  16.755   7.053
10364POPC   C4B67858  20.318  16.740   7.353
10365POPC   NC367859  31.426   5.055   5.553
10365POPC   PO467860  31.494   5.086   5.853
10365POPC   GL167861  31.454   5.063   6.153
10365POPC   GL267862  31.465   5.173   6.153
10365POPC   C1A67863  31.488   5.140   6.453
10365POPC   D2A67864  31.485   5.048   6.753
10365POPC   C3A67865  31.450   5.140   7.053
10365POPC   C4A67866  31.458   5.121   7.353
10365POPC   C1B67867  31.468   5.297   6.453
10365POPC   C2B67868  31.475   5.316   6.753
10365POPC   C3B67869  31.420   5.292   7.053
10365POPC   C4B67870  31.403   5.316   7.353
10366POPC   NC367871   9.720   1.968   5.553
10366POPC   PO467872   9.748   2.004   5.853
10366POPC   GL167873   9.790   1.984   6.153
10366POPC   GL267874   9.885   1.899   6.153
10366POPC   C1A67875   9.794   2.017   6.453
10366POPC   D2A67876   9.700   2.033   6.753
10366POPC   C3A67877   9.779   1.979   7.053
10366POPC   C4A67878   9.729   2.012   7.353
10366POPC   C1B67879   9.991   1.872   6.453
10366POPC   C2B67880   9.940   1.838   6.753
10366POPC   C3B67881   9.903   1.824   7.053
10366POPC   C4B67882   9.982   1.841   7.353
10367POPC   NC367883  44.653  34.559   5.553
10367POPC   PO467884  44.662  34.584   5.853
10367POPC   GL167885  44.639  34.624   6.153
10367POPC   GL267886  44.753  34.451   6.153
10367POPC   C1A67887  44.654  34.577   6.453
10367POPC   D2A67888  44.684  34.568   6.753
10367POPC   C3A67889  44.645  34.542   7.053
10367POPC   C4A67890  44.642  34.573   7.353
10367POPC   C1B67891  44.781  34.354   6.453
10367POPC   C2B67892  44.787  34.364   6.753
10367POPC   C3B67893  44.830  34.379   7.053
10367POPC   C4B67894  44.789  34.376   7.353
10368POPC   NC367895   3.496   9.741   5.553
10368POPC   PO467896   3.543   9.786   5.853
10368POPC   GL167897   3.512   9.730   6.153
10368POPC   GL267898   3.485   9.588   6.153
10368POPC   C1A67899   3.515   9.741   6.453
10368POPC   D2A67900   3.492   9.705   6.753
10368POPC   C3A67901   3.531   9.793   7.053
10368POPC   C4A67902   3.518   9.715   7.353
10368POPC   C1B67903   3.571   9.457   6.453
10368POPC   C2B67904   3.545   9.466   6.753
10368POPC   C3B67905   3.499   9.526   7.053
10368POPC   C4B67906   3.553   9.459   7.353
10369POPC   NC367907  27.567  36.138   5.553
10369POPC   PO467908  27.592  36.160   5.853
10369POPC   GL167909  27.639  36.103   6.153
10369POPC   GL267910  27.514  36.230   6.153
10369POPC   C1A67911  27.565  36.165   6.453
10369POPC   D2A67912  27.595  36.111   6.753
10369POPC   C3A67913  27.639  36.095   7.053
10369POPC   C4A67914  27.640  36.139   7.353
10369POPC   C1B67915  27.514  36.371   6.453
10369POPC   C2B67916  27.451  36.347   6.753
10369POPC   C3B67917  27.438  36.358   7.053
10369POPC   C4B67918  27.483  36.340   7.353
10370POPC   NC367919  40.810  40.042   5.553
10370POPC   PO467920  40.762  40.037   5.853
10370POPC   GL167921  40.743  40.053   6.153
10370POPC   GL267922  40.821  40.164   6.153
10370POPC   C1A67923  40.779  40.053   6.453
10370POPC   D2A67924  40.796  40.001   6.753
10370POPC   C3A67925  40.803  39.982   7.053
10370POPC   C4A67926  40.743  40.034   7.353
10370POPC   C1B67927  40.868  40.249   6.453
10370POPC   C2B67928  40.885  40.255   6.753
10370POPC   C3B67929  40.879  40.271   7.053
10370POPC   C4B67930  40.933  40.213   7.353
10371POPC   NC367931   0.415  39.259   5.553
10371POPC   PO467932   0.401  39.192   5.853
10371POPC   GL167933   0.428  39.215   6.153
10371POPC   GL267934   0.396  39.300   6.153
10371POPC   C1A67935   0.398  39.257   6.453
10371POPC   D2A67936   0.458  39.207   6.753
10371POPC   C3A67937   0.418  39.204   7.053
10371POPC   C4A67938   0.440  39.203   7.353
10371POPC   C1B67939   0.325  39.464   6.453
10371POPC   C2B67940   0.313  39.497   6.753
10371POPC   C3B67941   0.333  39.480   7.053
10371POPC   C4B67942   0.300  39.422   7.353
10372POPC   NC367943  21.380  35.353   5.553
10372POPC   PO467944  21.413  35.324   5.853
10372POPC   GL167945  21.338  35.380   6.153
10372POPC   GL267946  21.455  35.448   6.153
10372POPC   C1A67947  21.388  35.315   6.453
10372POPC   D2A67948  21.346  35.374   6.753
10372POPC   C3A67949  21.356  35.309   7.053
10372POPC   C4A67950  21.431  35.362   7.353
10372POPC   C1B67951  21.489  35.545   6.453
10372POPC   C2B67952  21.479  35.573   6.753
10372POPC   C3B67953  21.502  35.621   7.053
10372POPC   C4B67954  21.447  35.619   7.353
10373POPC   NC367955  40.790   7.451   5.553
10373POPC   PO467956  40.779   7.421   5.853
10373POPC   GL167957  40.761   7.452   6.153
10373POPC   GL267958  40.662   7.488   6.153
10373POPC   C1A67959  40.769   7.453   6.453
10373POPC   D2A67960  40.749   7.397   6.753
10373POPC   C3A67961  40.820   7.438   7.053
10373POPC   C4A67962  40.755   7.449   7.353
10373POPC   C1B67963  40.547   7.455   6.453
10373POPC   C2B67964  40.522   7.426   6.753
10373POPC   C3B67965  40.495   7.492   7.053
10373POPC   C4B67966  40.494   7.437   7.353
10374POPC   NC367967  15.217   0.407   5.553
10374POPC   PO467968  15.218   0.392   5.853
10374POPC   GL167969  15.165   0.421   6.153
10374POPC   GL267970  15.170   0.512   6.153
10374POPC   C1A67971  15.228   0.443   6.453
10374POPC   D2A67972  15.180   0.446   6.753
10374POPC   C3A67973  15.218   0.390   7.053
10374POPC   C4A67974  15.207   0.470   7.353
10374POPC   C1B67975  15.188   0.661   6.453
10374POPC   C2B67976  15.213   0.707   6.753
10374POPC   C3B67977  15.225   0.656   7.053
10374POPC   C4B67978  15.269   0.665   7.353
10375POPC   NC367979   2.720   5.108   5.553
10375POPC   PO467980   2.791   5.133   5.853
10375POPC   GL167981   2.798   5.128   6.153
10375POPC   GL267982   2.878   5.040   6.153
10375POPC   C1A67983   2.734   5.139   6.453
10375POPC   D2A67984   2.774   5.127   6.753
10375POPC   C3A67985   2.784   5.112   7.053
10375POPC   C4A67986   2.730   5.121   7.353
10375POPC   C1B67987   2.979   5.093   6.453
10375POPC   C2B67988   2.983   5.093   6.753
10375POPC   C3B67989   3.017   5.102   7.053
10375POPC   C4B67990   3.008   5.058   7.353
10376POPC   NC367991  12.071  11.326   5.553
10376POPC   PO467992  12.089  11.344   5.853
10376POPC   GL167993  12.080  11.340   6.153
10376POPC   GL267994  12.041  11.182   6.153
10376POPC   C1A67995  12.086  11.349   6.453
10376POPC   D2A67996  12.080  11.274   6.753
10376POPC   C3A67997  12.078  11.290   7.053
10376POPC   C4A67998  12.121  11.288   7.353
10376POPC   C1B67999  12.062  11.092   6.453
10376POPC   C2B68000  12.020  11.062   6.753
10376POPC   C3B68001  12.101  11.087   7.053
10376POPC   C4B68002  12.105  11.050   7.353
10377POPC   NC368003  38.410  25.240   5.553
10377POPC   PO468004  38.479  25.230   5.853
10377POPC   GL168005  38.475  25.309   6.153
10377POPC   GL268006  38.401  25.367   6.153
10377POPC   C1A68007  38.419  25.296   6.453
10377POPC   D2A68008  38.410  25.235   6.753
10377POPC   C3A68009  38.488  25.277   7.053
10377POPC   C4A68010  38.410  25.216   7.353
10377POPC   C1B68011  38.292  25.440   6.453
10377POPC   C2B68012  38.279  25.473   6.753
10377POPC   C3B68013  38.264  25.481   7.053
10377POPC   C4B68014  38.266  25.459   7.353
10378POPC   NC368015  25.249  35.336   5.553
10378POPC   PO468016  25.221  35.349   5.853
10378POPC   GL168017  25.314  35.397   6.153
10378POPC   GL268018  25.407  35.423   6.153
10378POPC   C1A68019  25.286  35.369   6.453
10378POPC   D2A68020  25.303  35.350   6.753
10378POPC   C3A68021  25.307  35.314   7.053
10378POPC   C4A68022  25.303  35.323   7.353
10378POPC   C1B68023  25.447  35.544   6.453
10378POPC   C2B68024  25.492  35.534   6.753
10378POPC   C3B68025  25.499  35.531   7.053
10378POPC   C4B68026  25.482  35.500   7.353
10379POPC   NC368027  32.996  18.325   5.553
10379POPC   PO468028  33.037  18.311   5.853
10379POPC   GL168029  33.066  18.247   6.153
10379POPC   GL268030  32.941  18.227   6.153
10379POPC   C1A68031  33.054  18.323   6.453
10379POPC   D2A68032  32.986  18.326   6.753
10379POPC   C3A68033  32.975  18.296   7.053
10379POPC   C4A68034  33.006  18.283   7.353
10379POPC   C1B68035  32.911  18.115   6.453
10379POPC   C2B68036  32.837  18.052   6.753
10379POPC   C3B68037  32.892  18.097   7.053
10379POPC   C4B68038  32.930  18.091   7.353
10380POPC   NC368039  26.074  36.914   5.553
10380POPC   PO468040  26.078  36.947   5.853
10380POPC   GL168041  25.997  36.926   6.153
10380POPC   GL268042  25.967  36.759   6.153
10380POPC   C1A68043  26.004  36.910   6.453
10380POPC   D2A68044  26.056  36.911   6.753
10380POPC   C3A68045  25.993  36.856   7.053
10380POPC   C4A68046  26.018  36.927   7.353
10380POPC   C1B68047  25.941  36.664   6.453
10380POPC   C2B68048  25.904  36.704   6.753
10380POPC   C3B68049  25.908  36.660   7.053
10380POPC   C4B68050  25.939  36.711   7.353
10381POPC   NC368051  13.664  25.291   5.553
10381POPC   PO468052  13.603  25.216   5.853
10381POPC   GL168053  13.639  25.278   6.153
10381POPC   GL268054  13.742  25.299   6.153
10381POPC   C1A68055  13.634  25.229   6.453
10381POPC   D2A68056  13.580  25.222   6.753
10381POPC   C3A68057  13.604  25.281   7.053
10381POPC   C4A68058  13.589  25.244   7.353
10381POPC   C1B68059  13.882  25.242   6.453
10381POPC   C2B68060  13.884  25.289   6.753
10381POPC   C3B68061  13.854  25.269   7.053
10381POPC   C4B68062  13.873  25.269   7.353
10382POPC   NC368063  18.255  33.752   5.553
10382POPC   PO468064  18.306  33.828   5.853
10382POPC   GL168065  18.264  33.841   6.153
10382POPC   GL268066  18.312  33.945   6.153
10382POPC   C1A68067  18.312  33.815   6.453
10382POPC   D2A68068  18.299  33.779   6.753
10382POPC   C3A68069  18.258  33.771   7.053
10382POPC   C4A68070  18.323  33.836   7.353
10382POPC   C1B68071  18.451  33.967   6.453
10382POPC   C2B68072  18.412  34.038   6.753
10382POPC   C3B68073  18.401  34.041   7.053
10382POPC   C4B68074  18.391  33.982   7.353
10383POPC   NC368075  14.364  42.359   5.553
10383POPC   PO468076  14.358  42.381   5.853
10383POPC   GL168077  14.399  42.342   6.153
10383POPC   GL268078  14.375  42.189   6.153
10383POPC   C1A68079  14.419  42.303   6.453
10383POPC   D2A68080  14.379  42.316   6.753
10383POPC   C3A68081  14.401  42.380   7.053
10383POPC   C4A68082  14.387  42.285   7.353
10383POPC   C1B68083  14.331  42.043   6.453
10383POPC   C2B68084  14.338  42.092   6.753
10383POPC   C3B68085  14.345  42.109   7.053
10383POPC   C4B68086  14.351  42.101   7.353
10384POPC   NC368087  17.486   5.845   5.553
10384POPC   PO468088  17.523   5.908   5.853
10384POPC   GL168089  17.463   5.852   6.153
10384POPC   GL268090  17.494   5.786   6.153
10384POPC   C1A68091  17.485   5.857   6.453
10384POPC   D2A68092  17.547   5.913   6.753
10384POPC   C3A68093  17.541   5.828   7.053
10384POPC   C4A68094  17.523   5.915   7.353
10384POPC   C1B68095  17.344   5.612   6.453
10384POPC   C2B68096  17.376   5.666   6.753
10384POPC   C3B68097  17.438   5.613   7.053
10384POPC   C4B68098  17.410   5.612   7.353
10385POPC   NC368099   7.412   5.844   5.553
10385POPC   PO468100   7.400   5.890   5.853
10385POPC   GL168101   7.433   5.917   6.153
10385POPC   GL268102   7.452   5.965   6.153
10385POPC   C1A68103   7.393   5.912   6.453
10385POPC   D2A68104   7.425   5.871   6.753
10385POPC   C3A68105   7.459   5.905   7.053
10385POPC   C4A68106   7.396   5.821   7.353
10385POPC   C1B68107   7.487   6.144   6.453
10385POPC   C2B68108   7.532   6.099   6.753
10385POPC   C3B68109   7.565   6.076   7.053
10385POPC   C4B68110   7.537   6.062   7.353
10386POPC   NC368111  21.345  43.861   5.553
10386POPC   PO468112  21.382  43.882   5.853
10386POPC   GL168113  21.384  43.842   6.153
10386POPC   GL268114  21.507  43.822   6.153
10386POPC   C1A68115  21.381  43.861   6.453
10386POPC   D2A68116  21.387  43.855   6.753
10386POPC   C3A68117  21.394  43.870   7.053
10386POPC   C4A68118  21.411  43.859   7.353
10386POPC   C1B68119  21.614  43.751   6.453
10386POPC   C2B68120  21.599  43.729   6.753
10386POPC   C3B68121  21.597  43.758   7.053
10386POPC   C4B68122  21.549  43.750   7.353
10387POPC   NC368123  24.453  39.996   5.553
10387POPC   PO468124  24.510  40.034   5.853
10387POPC   GL168125  24.513  39.979   6.153
10387POPC   GL268126  24.566  40.080   6.153
10387POPC   C1A68127  24.514  39.974   6.453
10387POPC   D2A68128  24.532  39.959   6.753
10387POPC   C3A68129  24.445  40.011   7.053
10387POPC   C4A68130  24.449  39.997   7.353
10387POPC   C1B68131  24.649  40.232   6.453
10387POPC   C2B68132  24.636  40.215   6.753
10387POPC   C3B68133  24.627  40.147   7.053
10387POPC   C4B68134  24.691  40.218   7.353
10388POPC   NC368135   2.814  14.409   5.553
10388POPC   PO468136   2.766  14.375   5.853
10388POPC   GL168137   2.748  14.410   6.153
10388POPC   GL268138   2.904  14.509   6.153
10388POPC   C1A68139   2.730  14.397   6.453
10388POPC   D2A68140   2.787  14.418   6.753
10388POPC   C3A68141   2.756  14.418   7.053
10388POPC   C4A68142   2.751  14.417   7.353
10388POPC   C1B68143   2.959  14.531   6.453
10388POPC   C2B68144   2.965  14.595   6.753
10388POPC   C3B68145   2.946  14.541   7.053
10388POPC   C4B68146   2.925  14.621   7.353
10389POPC   NC368147  29.182  15.939   5.553
10389POPC   PO468148  29.115  15.926   5.853
10389POPC   GL168149  29.150  15.935   6.153
10389POPC   GL268150  29.182  15.856   6.153
10389POPC   C1A68151  29.177  15.920   6.453
10389POPC   D2A68152  29.161  15.975   6.753
10389POPC   C3A68153  29.109  15.908   7.053
10389POPC   C4A68154  29.146  15.927   7.353
10389POPC   C1B68155  29.191  15.680   6.453
10389POPC   C2B68156  29.183  15.667   6.753
10389POPC   C3B68157  29.154  15.672   7.053
10389POPC   C4B68158  29.171  15.694   7.353
10390POPC   NC368159   1.975  10.503   5.553
10390POPC   PO468160   2.030  10.488   5.853
10390POPC   GL168161   1.950  10.515   6.153
10390POPC   GL268162   1.979  10.448   6.153
10390POPC   C1A68163   1.988  10.475   6.453
10390POPC   D2A68164   1.943  10.574   6.753
10390POPC   C3A68165   1.960  10.495   7.053
10390POPC   C4A68166   1.999  10.560   7.353
10390POPC   C1B68167   2.020  10.252   6.453
10390POPC   C2B68168   2.004  10.319   6.753
10390POPC   C3B68169   2.051  10.323   7.053
10390POPC   C4B68170   2.082  10.270   7.353
10391POPC   NC368171  44.616   5.902   5.553
10391POPC   PO468172  44.623   5.915   5.853
10391POPC   GL168173  44.640   5.895   6.153
10391POPC   GL268174  44.586   5.847   6.153
10391POPC   C1A68175  44.642   5.830   6.453
10391POPC   D2A68176  44.659   5.919   6.753
10391POPC   C3A68177  44.620   5.855   7.053
10391POPC   C4A68178  44.638   5.844   7.353
10391POPC   C1B68179  44.480   5.705   6.453
10391POPC   C2B68180  44.428   5.781   6.753
10391POPC   C3B68181  44.430   5.721   7.053
10391POPC   C4B68182  44.425   5.790   7.353
10392POPC   NC368183  36.132  30.658   5.553
10392POPC   PO468184  36.161  30.738   5.853
10392POPC   GL168185  36.167  30.709   6.153
10392POPC   GL268186  35.957  30.717   6.153
10392POPC   C1A68187  36.173  30.711   6.453
10392POPC   D2A68188  36.150  30.727   6.753
10392POPC   C3A68189  36.157  30.657   7.053
10392POPC   C4A68190  36.101  30.737   7.353
10392POPC   C1B68191  35.914  30.662   6.453
10392POPC   C2B68192  35.916  30.697   6.753
10392POPC   C3B68193  35.900  30.744   7.053
10392POPC   C4B68194  35.902  30.702   7.353
10393POPC   NC368195  36.916  33.801   5.553
10393POPC   PO468196  36.920  33.810   5.853
10393POPC   GL168197  36.875  33.846   6.153
10393POPC   GL268198  36.855  33.892   6.153
10393POPC   C1A68199  36.893  33.758   6.453
10393POPC   D2A68200  36.882  33.819   6.753
10393POPC   C3A68201  36.866  33.783   7.053
10393POPC   C4A68202  36.921  33.820   7.353
10393POPC   C1B68203  36.839  34.029   6.453
10393POPC   C2B68204  36.876  34.079   6.753
10393POPC   C3B68205  36.842  34.054   7.053
10393POPC   C4B68206  36.880  34.016   7.353
10394POPC   NC368207  15.165   6.659   5.553
10394POPC   PO468208  15.162   6.648   5.853
10394POPC   GL168209  15.172   6.619   6.153
10394POPC   GL268210  15.223   6.585   6.153
10394POPC   C1A68211  15.141   6.652   6.453
10394POPC   D2A68212  15.164   6.615   6.753
10394POPC   C3A68213  15.194   6.677   7.053
10394POPC   C4A68214  15.175   6.599   7.353
10394POPC   C1B68215  15.282   6.427   6.453
10394POPC   C2B68216  15.341   6.454   6.753
10394POPC   C3B68217  15.282   6.416   7.053
10394POPC   C4B68218  15.355   6.428   7.353
10395POPC   NC368219  34.622  40.756   5.553
10395POPC   PO468220  34.616  40.757   5.853
10395POPC   GL168221  34.594  40.765   6.153
10395POPC   GL268222  34.700  40.712   6.153
10395POPC   C1A68223  34.619  40.822   6.453
10395POPC   D2A68224  34.538  40.815   6.753
10395POPC   C3A68225  34.578  40.832   7.053
10395POPC   C4A68226  34.564  40.803   7.353
10395POPC   C1B68227  34.814  40.586   6.453
10395POPC   C2B68228  34.814  40.651   6.753
10395POPC   C3B68229  34.759  40.622   7.053
10395POPC   C4B68230  34.726  40.629   7.353
10396POPC   NC368231  44.625  30.687   5.553
10396POPC   PO468232  44.624  30.741   5.853
10396POPC   GL168233  44.697  30.682   6.153
10396POPC   GL268234  44.649  30.854   6.153
10396POPC   C1A68235  44.654  30.716   6.453
10396POPC   D2A68236  44.709  30.744   6.753
10396POPC   C3A68237  44.651  30.728   7.053
10396POPC   C4A68238  44.614  30.745   7.353
10396POPC   C1B68239  44.574  30.941   6.453
10396POPC   C2B68240  44.607  30.923   6.753
10396POPC   C3B68241  44.509  30.881   7.053
10396POPC   C4B68242  44.535  30.917   7.353
10397POPC   NC368243  42.334  36.143   5.553
10397POPC   PO468244  42.375  36.138   5.853
10397POPC   GL168245  42.347  36.171   6.153
10397POPC   GL268246  42.398  36.215   6.153
10397POPC   C1A68247  42.369  36.094   6.453
10397POPC   D2A68248  42.311  36.151   6.753
10397POPC   C3A68249  42.366  36.121   7.053
10397POPC   C4A68250  42.376  36.111   7.353
10397POPC   C1B68251  42.439  36.359   6.453
10397POPC   C2B68252  42.496  36.365   6.753
10397POPC   C3B68253  42.426  36.355   7.053
10397POPC   C4B68254  42.435  36.365   7.353
10398POPC   NC368255  33.836  43.143   5.553
10398POPC   PO468256  33.816  43.149   5.853
10398POPC   GL168257  33.837  43.130   6.153
10398POPC   GL268258  33.846  43.233   6.153
10398POPC   C1A68259  33.788  43.132   6.453
10398POPC   D2A68260  33.811  43.101   6.753
10398POPC   C3A68261  33.833  43.122   7.053
10398POPC   C4A68262  33.841  43.088   7.353
10398POPC   C1B68263  33.977  43.237   6.453
10398POPC   C2B68264  33.936  43.260   6.753
10398POPC   C3B68265  34.032  43.275   7.053
10398POPC   C4B68266  34.028  43.264   7.353
10399POPC   NC368267  39.273  29.924   5.553
10399POPC   PO468268  39.272  29.937   5.853
10399POPC   GL168269  39.267  29.929   6.153
10399POPC   GL268270  39.284  30.067   6.153
10399POPC   C1A68271  39.278  29.959   6.453
10399POPC   D2A68272  39.183  29.894   6.753
10399POPC   C3A68273  39.216  29.909   7.053
10399POPC   C4A68274  39.274  29.946   7.353
10399POPC   C1B68275  39.328  30.186   6.453
10399POPC   C2B68276  39.306  30.136   6.753
10399POPC   C3B68277  39.379  30.171   7.053
10399POPC   C4B68278  39.387  30.147   7.353
10400POPC   NC368279   9.705  11.271   5.553
10400POPC   PO468280   9.777  11.270   5.853
10400POPC   GL168281   9.764  11.339   6.153
10400POPC   GL268282   9.859  11.230   6.153
10400POPC   C1A68283   9.716  11.304   6.453
10400POPC   D2A68284   9.789  11.332   6.753
10400POPC   C3A68285   9.748  11.292   7.053
10400POPC   C4A68286   9.716  11.305   7.353
10400POPC   C1B68287   9.929  11.238   6.453
10400POPC   C2B68288  10.016  11.206   6.753
10400POPC   C3B68289   9.981  11.177   7.053
10400POPC   C4B68290   9.932  11.228   7.353
10401POPC   NC368291  17.513  42.300   5.553
10401POPC   PO468292  17.511  42.371   5.853
10401POPC   GL168293  17.504  42.352   6.153
10401POPC   GL268294  17.591  42.399   6.153
10401POPC   C1A68295  17.475  42.327   6.453
10401POPC   D2A68296  17.460  42.380   6.753
10401POPC   C3A68297  17.489  42.305   7.053
10401POPC   C4A68298  17.475  42.350   7.353
10401POPC   C1B68299  17.621  42.554   6.453
10401POPC   C2B68300  17.583  42.539   6.753
10401POPC   C3B68301  17.626  42.558   7.053
10401POPC   C4B68302  17.571  42.584   7.353
10402POPC   NC368303  43.089  42.381   5.553
10402POPC   PO468304  43.079  42.367   5.853
10402POPC   GL168305  43.081  42.357   6.153
10402POPC   GL268306  43.016  42.342   6.153
10402POPC   C1A68307  43.140  42.287   6.453
10402POPC   D2A68308  43.066  42.294   6.753
10402POPC   C3A68309  43.158  42.377   7.053
10402POPC   C4A68310  43.102  42.369   7.353
10402POPC   C1B68311  42.880  42.329   6.453
10402POPC   C2B68312  42.871  42.320   6.753
10402POPC   C3B68313  42.864  42.264   7.053
10402POPC   C4B68314  42.846  42.310   7.353
10403POPC   NC368315  16.730  17.464   5.553
10403POPC   PO468316  16.710  17.551   5.853
10403POPC   GL168317  16.769  17.523   6.153
10403POPC   GL268318  16.649  17.571   6.153
10403POPC   C1A68319  16.778  17.512   6.453
10403POPC   D2A68320  16.738  17.493   6.753
10403POPC   C3A68321  16.727  17.479   7.053
10403POPC   C4A68322  16.693  17.499   7.353
10403POPC   C1B68323  16.489  17.572   6.453
10403POPC   C2B68324  16.487  17.524   6.753
10403POPC   C3B68325  16.531  17.564   7.053
10403POPC   C4B68326  16.456  17.518   7.353
10404POPC   NC368327  29.111   9.768   5.553
10404POPC   PO468328  29.167   9.702   5.853
10404POPC   GL168329  29.124   9.755   6.153
10404POPC   GL268330  29.228   9.689   6.153
10404POPC   C1A68331  29.115   9.771   6.453
10404POPC   D2A68332  29.138   9.766   6.753
10404POPC   C3A68333  29.167   9.722   7.053
10404POPC   C4A68334  29.118   9.733   7.353
10404POPC   C1B68335  29.337   9.648   6.453
10404POPC   C2B68336  29.411   9.671   6.753
10404POPC   C3B68337  29.414   9.716   7.053
10404POPC   C4B68338  29.417   9.698   7.353
10405POPC   NC368339  28.363  39.963   5.553
10405POPC   PO468340  28.411  40.026   5.853
10405POPC   GL168341  28.367  40.033   6.153
10405POPC   GL268342  28.350  40.132   6.153
10405POPC   C1A68343  28.395  39.968   6.453
10405POPC   D2A68344  28.394  39.983   6.753
10405POPC   C3A68345  28.352  40.009   7.053
10405POPC   C4A68346  28.408  39.958   7.353
10405POPC   C1B68347  28.295  40.265   6.453
10405POPC   C2B68348  28.272  40.281   6.753
10405POPC   C3B68349  28.324  40.207   7.053
10405POPC   C4B68350  28.325  40.280   7.353
10406POPC   NC368351  25.282  37.654   5.553
10406POPC   PO468352  25.229  37.716   5.853
10406POPC   GL168353  25.266  37.645   6.153
10406POPC   GL268354  25.259  37.788   6.153
10406POPC   C1A68355  25.274  37.661   6.453
10406POPC   D2A68356  25.224  37.639   6.753
10406POPC   C3A68357  25.315  37.694   7.053
10406POPC   C4A68358  25.248  37.685   7.353
10406POPC   C1B68359  25.372  37.912   6.453
10406POPC   C2B68360  25.356  37.932   6.753
10406POPC   C3B68361  25.329  37.931   7.053
10406POPC   C4B68362  25.367  37.902   7.353
10407POPC   NC368363  41.591  29.928   5.553
10407POPC   PO468364  41.557  29.953   5.853
10407POPC   GL168365  41.564  29.949   6.153
10407POPC   GL268366  41.509  29.978   6.153
10407POPC   C1A68367  41.510  29.898   6.453
10407POPC   D2A68368  41.551  29.914   6.753
10407POPC   C3A68369  41.600  29.874   7.053
10407POPC   C4A68370  41.530  29.951   7.353
10407POPC   C1B68371  41.346  30.073   6.453
10407POPC   C2B68372  41.371  30.133   6.753
10407POPC   C3B68373  41.399  30.086   7.053
10407POPC   C4B68374  41.402  30.114   7.353
10408POPC   NC368375  26.066  33.011   5.553
10408POPC   PO468376  26.018  33.039   5.853
10408POPC   GL168377  26.031  32.986   6.153
10408POPC   GL268378  25.924  33.067   6.153
10408POPC   C1A68379  26.085  33.059   6.453
10408POPC   D2A68380  26.053  33.013   6.753
10408POPC   C3A68381  26.079  32.977   7.053
10408POPC   C4A68382  26.016  32.983   7.353
10408POPC   C1B68383  25.792  33.073   6.453
10408POPC   C2B68384  25.764  33.045   6.753
10408POPC   C3B68385  25.831  32.997   7.053
10408POPC   C4B68386  25.811  33.019   7.353
10409POPC   NC368387  14.403  15.183   5.553
10409POPC   PO468388  14.433  15.201   5.853
10409POPC   GL168389  14.409  15.226   6.153
10409POPC   GL268390  14.533  15.114   6.153
10409POPC   C1A68391  14.441  15.168   6.453
10409POPC   D2A68392  14.399  15.228   6.753
10409POPC   C3A68393  14.402  15.139   7.053
10409POPC   C4A68394  14.385  15.210   7.353
10409POPC   C1B68395  14.565  15.011   6.453
10409POPC   C2B68396  14.609  15.017   6.753
10409POPC   C3B68397  14.566  14.989   7.053
10409POPC   C4B68398  14.555  14.982   7.353
10410POPC   NC368399   2.744  42.329   5.553
10410POPC   PO468400   2.810  42.343   5.853
10410POPC   GL168401   2.736  42.300   6.153
10410POPC   GL268402   2.754  42.438   6.153
10410POPC   C1A68403   2.726  42.381   6.453
10410POPC   D2A68404   2.793  42.382   6.753
10410POPC   C3A68405   2.809  42.309   7.053
10410POPC   C4A68406   2.785  42.326   7.353
10410POPC   C1B68407   2.770  42.625   6.453
10410POPC   C2B68408   2.715  42.621   6.753
10410POPC   C3B68409   2.754  42.614   7.053
10410POPC   C4B68410   2.787  42.580   7.353
10411POPC   NC368411   7.446  29.946   5.553
10411POPC   PO468412   7.392  29.956   5.853
10411POPC   GL168413   7.373  29.888   6.153
10411POPC   GL268414   7.553  29.842   6.153
10411POPC   C1A68415   7.386  29.906   6.453
10411POPC   D2A68416   7.429  29.946   6.753
10411POPC   C3A68417   7.404  29.895   7.053
10411POPC   C4A68418   7.451  29.953   7.353
10411POPC   C1B68419   7.669  29.793   6.453
10411POPC   C2B68420   7.651  29.785   6.753
10411POPC   C3B68421   7.580  29.757   7.053
10411POPC   C4B68422   7.668  29.730   7.353
10412POPC   NC368423  15.937  38.440   5.553
10412POPC   PO468424  15.986  38.435   5.853
10412POPC   GL168425  15.928  38.475   6.153
10412POPC   GL268426  15.803  38.487   6.153
10412POPC   C1A68427  15.924  38.420   6.453
10412POPC   D2A68428  15.965  38.422   6.753
10412POPC   C3A68429  15.919  38.424   7.053
10412POPC   C4A68430  15.949  38.493   7.353
10412POPC   C1B68431  15.728  38.483   6.453
10412POPC   C2B68432  15.706  38.427   6.753
10412POPC   C3B68433  15.657  38.451   7.053
10412POPC   C4B68434  15.706  38.463   7.353
10413POPC   NC368435  13.640  19.791   5.553
10413POPC   PO468436  13.599  19.808   5.853
10413POPC   GL168437  13.654  19.874   6.153
10413POPC   GL268438  13.580  19.667   6.153
10413POPC   C1A68439  13.648  19.796   6.453
10413POPC   D2A68440  13.647  19.838   6.753
10413POPC   C3A68441  13.608  19.791   7.053
10413POPC   C4A68442  13.672  19.880   7.353
10413POPC   C1B68443  13.657  19.620   6.453
10413POPC   C2B68444  13.658  19.610   6.753
10413POPC   C3B68445  13.600  19.569   7.053
10413POPC   C4B68446  13.648  19.587   7.353
10414POPC   NC368447   0.477  44.614   5.553
10414POPC   PO468448   0.403  44.708   5.853
10414POPC   GL168449   0.466  44.662   6.153
10414POPC   GL268450   0.511  44.677   6.153
10414POPC   C1A68451   0.487  44.636   6.453
10414POPC   D2A68452   0.399  44.692   6.753
10414POPC   C3A68453   0.437  44.712   7.053
10414POPC   C4A68454   0.400  44.634   7.353
10414POPC   C1B68455   0.717  44.788   6.453
10414POPC   C2B68456   0.684  44.722   6.753
10414POPC   C3B68457   0.697  44.726   7.053
10414POPC   C4B68458   0.625  44.736   7.353
10415POPC   NC368459  12.104  39.191   5.553
10415POPC   PO468460  12.054  39.275   5.853
10415POPC   GL168461  12.114  39.264   6.153
10415POPC   GL268462  12.047  39.079   6.153
10415POPC   C1A68463  12.033  39.278   6.453
10415POPC   D2A68464  12.101  39.184   6.753
10415POPC   C3A68465  12.115  39.253   7.053
10415POPC   C4A68466  12.103  39.233   7.353
10415POPC   C1B68467  12.062  38.938   6.453
10415POPC   C2B68468  12.034  38.944   6.753
10415POPC   C3B68469  12.023  38.940   7.053
10415POPC   C4B68470  12.110  39.016   7.353
10416POPC   NC368471  33.815  41.578   5.553
10416POPC   PO468472  33.799  41.531   5.853
10416POPC   GL168473  33.844  41.519   6.153
10416POPC   GL268474  33.791  41.462   6.153
10416POPC   C1A68475  33.835  41.545   6.453
10416POPC   D2A68476  33.825  41.568   6.753
10416POPC   C3A68477  33.836  41.521   7.053
10416POPC   C4A68478  33.795  41.535   7.353
10416POPC   C1B68479  33.839  41.273   6.453
10416POPC   C2B68480  33.910  41.313   6.753
10416POPC   C3B68481  33.921  41.295   7.053
10416POPC   C4B68482  33.836  41.277   7.353
10417POPC   NC368483  33.753  23.754   5.553
10417POPC   PO468484  33.803  23.763   5.853
10417POPC   GL168485  33.823  23.702   6.153
10417POPC   GL268486  33.683  23.735   6.153
10417POPC   C1A68487  33.772  23.729   6.453
10417POPC   D2A68488  33.769  23.712   6.753
10417POPC   C3A68489  33.792  23.686   7.053
10417POPC   C4A68490  33.780  23.671   7.353
10417POPC   C1B68491  33.561  23.699   6.453
10417POPC   C2B68492  33.590  23.721   6.753
10417POPC   C3B68493  33.507  23.669   7.053
10417POPC   C4B68494  33.595  23.696   7.353
10418POPC   NC368495  13.609  42.317   5.553
10418POPC   PO468496  13.620  42.357   5.853
10418POPC   GL168497  13.578  42.351   6.153
10418POPC   GL268498  13.467  42.374   6.153
10418POPC   C1A68499  13.667  42.339   6.453
10418POPC   D2A68500  13.618  42.298   6.753
10418POPC   C3A68501  13.587  42.322   7.053
10418POPC   C4A68502  13.648  42.287   7.353
10418POPC   C1B68503  13.350  42.321   6.453
10418POPC   C2B68504  13.422  42.388   6.753
10418POPC   C3B68505  13.349  42.407   7.053
10418POPC   C4B68506  13.372  42.350   7.353
10419POPC   NC368507  36.950  15.986   5.553
10419POPC   PO468508  36.942  15.979   5.853
10419POPC   GL168509  36.858  15.941   6.153
10419POPC   GL268510  36.779  15.888   6.153
10419POPC   C1A68511  36.949  15.927   6.453
10419POPC   D2A68512  36.949  15.922   6.753
10419POPC   C3A68513  36.900  15.949   7.053
10419POPC   C4A68514  36.945  16.002   7.353
10419POPC   C1B68515  36.693  15.839   6.453
10419POPC   C2B68516  36.699  15.754   6.753
10419POPC   C3B68517  36.671  15.794   7.053
10419POPC   C4B68518  36.707  15.781   7.353
10420POPC   NC368519   9.018  29.184   5.553
10420POPC   PO468520   9.003  29.157   5.853
10420POPC   GL168521   9.020  29.134   6.153
10420POPC   GL268522   8.967  29.015   6.153
10420POPC   C1A68523   8.923  29.120   6.453
10420POPC   D2A68524   9.022  29.150   6.753
10420POPC   C3A68525   8.937  29.138   7.053
10420POPC   C4A68526   8.963  29.156   7.353
10420POPC   C1B68527   9.041  28.868   6.453
10420POPC   C2B68528   8.992  28.863   6.753
10420POPC   C3B68529   8.985  28.886   7.053
10420POPC   C4B68530   9.021  28.934   7.353
10421POPC   NC368531   4.341  20.640   5.553
10421POPC   PO468532   4.275  20.649   5.853
10421POPC   GL168533   4.328  20.626   6.153
10421POPC   GL268534   4.443  20.581   6.153
10421POPC   C1A68535   4.362  20.563   6.453
10421POPC   D2A68536   4.352  20.624   6.753
10421POPC   C3A68537   4.350  20.565   7.053
10421POPC   C4A68538   4.311  20.581   7.353
10421POPC   C1B68539   4.529  20.571   6.453
10421POPC   C2B68540   4.534  20.504   6.753
10421POPC   C3B68541   4.535  20.556   7.053
10421POPC   C4B68542   4.548  20.548   7.353
10422POPC   NC368543   9.784  24.480   5.553
10422POPC   PO468544   9.768  24.463   5.853
10422POPC   GL168545   9.748  24.502   6.153
10422POPC   GL268546   9.689  24.351   6.153
10422POPC   C1A68547   9.725  24.524   6.453
10422POPC   D2A68548   9.742  24.482   6.753
10422POPC   C3A68549   9.700  24.453   7.053
10422POPC   C4A68550   9.784  24.471   7.353
10422POPC   C1B68551   9.561  24.326   6.453
10422POPC   C2B68552   9.624  24.318   6.753
10422POPC   C3B68553   9.595  24.353   7.053
10422POPC   C4B68554   9.550  24.283   7.353
10423POPC   NC368555  11.297  26.085   5.553
10423POPC   PO468556  11.268  26.016   5.853
10423POPC   GL168557  11.347  26.022   6.153
10423POPC   GL268558  11.252  26.163   6.153
10423POPC   C1A68559  11.305  26.085   6.453
10423POPC   D2A68560  11.342  26.006   6.753
10423POPC   C3A68561  11.307  26.025   7.053
10423POPC   C4A68562  11.260  26.006   7.353
10423POPC   C1B68563  11.115  26.238   6.453
10423POPC   C2B68564  11.138  26.191   6.753
10423POPC   C3B68565  11.121  26.236   7.053
10423POPC   C4B68566  11.183  26.279   7.353
10424POPC   NC368567  41.511  44.662   5.553
10424POPC   PO468568  41.528  44.684   5.853
10424POPC   GL168569  41.539  44.636   6.153
10424POPC   GL268570  41.580  44.545   6.153
10424POPC   C1A68571  41.558  44.646   6.453
10424POPC   D2A68572  41.562  44.650   6.753
10424POPC   C3A68573  41.563  44.670   7.053
10424POPC   C4A68574  41.572  44.637   7.353
10424POPC   C1B68575  41.661  44.393   6.453
10424POPC   C2B68576  41.634  44.440   6.753
10424POPC   C3B68577  41.639  44.470   7.053
10424POPC   C4B68578  41.629  44.474   7.353
10425POPC   NC368579  18.240  26.775   5.553
10425POPC   PO468580  18.315  26.841   5.853
10425POPC   GL168581  18.238  26.787   6.153
10425POPC   GL268582  18.414  26.831   6.153
10425POPC   C1A68583  18.315  26.848   6.453
10425POPC   D2A68584  18.313  26.821   6.753
10425POPC   C3A68585  18.251  26.835   7.053
10425POPC   C4A68586  18.261  26.827   7.353
10425POPC   C1B68587  18.549  26.763   6.453
10425POPC   C2B68588  18.517  26.760   6.753
10425POPC   C3B68589  18.536  26.730   7.053
10425POPC   C4B68590  18.526  26.744   7.353
10426POPC   NC368591   8.242   9.009   5.553
10426POPC   PO468592   8.204   8.932   5.853
10426POPC   GL168593   8.151   9.017   6.153
10426POPC   GL268594   8.302   8.976   6.153
10426POPC   C1A68595   8.234   8.956   6.453
10426POPC   D2A68596   8.244   8.935   6.753
10426POPC   C3A68597   8.186   9.020   7.053
10426POPC   C4A68598   8.166   8.961   7.353
10426POPC   C1B68599   8.401   9.028   6.453
10426POPC   C2B68600   8.392   9.066   6.753
10426POPC   C3B68601   8.464   9.090   7.053
10426POPC   C4B68602   8.438   9.033   7.353
10427POPC   NC368603  18.256  28.334   5.553
10427POPC   PO468604  18.302  28.362   5.853
10427POPC   GL168605  18.305  28.392   6.153
10427POPC   GL268606  18.369  28.226   6.153
10427POPC   C1A68607  18.284  28.398   6.453
10427POPC   D2A68608  18.281  28.325   6.753
10427POPC   C3A68609  18.271  28.416   7.053
10427POPC   C4A68610  18.325  28.362   7.353
10427POPC   C1B68611  18.373  28.120   6.453
10427POPC   C2B68612  18.356  28.106   6.753
10427POPC   C3B68613  18.375  28.171   7.053
10427POPC   C4B68614  18.369  28.120   7.353
10428POPC   NC368615  42.292  33.789   5.553
10428POPC   PO468616  42.363  33.752   5.853
10428POPC   GL168617  42.306  33.758   6.153
10428POPC   GL268618  42.240  33.864   6.153
10428POPC   C1A68619  42.338  33.825   6.453
10428POPC   D2A68620  42.362  33.796   6.753
10428POPC   C3A68621  42.376  33.762   7.053
10428POPC   C4A68622  42.359  33.798   7.353
10428POPC   C1B68623  42.277  34.030   6.453
10428POPC   C2B68624  42.198  33.997   6.753
10428POPC   C3B68625  42.247  34.068   7.053
10428POPC   C4B68626  42.188  34.020   7.353
10429POPC   NC368627  28.401  22.927   5.553
10429POPC   PO468628  28.325  22.906   5.853
10429POPC   GL168629  28.382  22.897   6.153
10429POPC   GL268630  28.303  23.023   6.153
10429POPC   C1A68631  28.325  22.914   6.453
10429POPC   D2A68632  28.381  22.928   6.753
10429POPC   C3A68633  28.372  22.961   7.053
10429POPC   C4A68634  28.332  22.988   7.353
10429POPC   C1B68635  28.171  23.161   6.453
10429POPC   C2B68636  28.184  23.174   6.753
10429POPC   C3B68637  28.222  23.163   7.053
10429POPC   C4B68638  28.229  23.145   7.353
10430POPC   NC368639  18.279  27.557   5.553
10430POPC   PO468640  18.259  27.642   5.853
10430POPC   GL168641  18.262  27.564   6.153
10430POPC   GL268642  18.418  27.628   6.153
10430POPC   C1A68643  18.249  27.570   6.453
10430POPC   D2A68644  18.282  27.620   6.753
10430POPC   C3A68645  18.247  27.641   7.053
10430POPC   C4A68646  18.298  27.618   7.353
10430POPC   C1B68647  18.477  27.756   6.453
10430POPC   C2B68648  18.469  27.718   6.753
10430POPC   C3B68649  18.431  27.774   7.053
10430POPC   C4B68650  18.523  27.713   7.353
10431POPC   NC368651  11.286  23.736   5.553
10431POPC   PO468652  11.296  23.723   5.853
10431POPC   GL168653  11.272  23.720   6.153
10431POPC   GL268654  11.444  23.760   6.153
10431POPC   C1A68655  11.347  23.701   6.453
10431POPC   D2A68656  11.318  23.674   6.753
10431POPC   C3A68657  11.273  23.730   7.053
10431POPC   C4A68658  11.330  23.708   7.353
10431POPC   C1B68659  11.531  23.782   6.453
10431POPC   C2B68660  11.544  23.739   6.753
10431POPC   C3B68661  11.571  23.792   7.053
10431POPC   C4B68662  11.571  23.725   7.353
10432POPC   NC368663  41.542   1.263   5.553
10432POPC   PO468664  41.512   1.246   5.853
10432POPC   GL168665  41.526   1.169   6.153
10432POPC   GL268666  41.539   1.366   6.153
10432POPC   C1A68667  41.519   1.171   6.453
10432POPC   D2A68668  41.600   1.171   6.753
10432POPC   C3A68669  41.603   1.226   7.053
10432POPC   C4A68670  41.590   1.261   7.353
10432POPC   C1B68671  41.461   1.434   6.453
10432POPC   C2B68672  41.488   1.449   6.753
10432POPC   C3B68673  41.484   1.410   7.053
10432POPC   C4B68674  41.470   1.463   7.353
10433POPC   NC368675  14.405  12.046   5.553
10433POPC   PO468676  14.378  12.111   5.853
10433POPC   GL168677  14.356  12.113   6.153
10433POPC   GL268678  14.533  12.050   6.153
10433POPC   C1A68679  14.452  12.065   6.453
10433POPC   D2A68680  14.392  12.071   6.753
10433POPC   C3A68681  14.420  12.042   7.053
10433POPC   C4A68682  14.426  12.079   7.353
10433POPC   C1B68683  14.639  12.086   6.453
10433POPC   C2B68684  14.626  12.080   6.753
10433POPC   C3B68685  14.659  12.048   7.053
10433POPC   C4B68686  14.682  12.089   7.353
10434POPC   NC368687  36.096  41.523   5.553
10434POPC   PO468688  36.119  41.517   5.853
10434POPC   GL168689  36.123  41.607   6.153
10434POPC   GL268690  36.138  41.689   6.153
10434POPC   C1A68691  36.099  41.605   6.453
10434POPC   D2A68692  36.147  41.525   6.753
10434POPC   C3A68693  36.162  41.556   7.053
10434POPC   C4A68694  36.139  41.549   7.353
10434POPC   C1B68695  36.150  41.847   6.453
10434POPC   C2B68696  36.171  41.856   6.753
10434POPC   C3B68697  36.185  41.775   7.053
10434POPC   C4B68698  36.107  41.854   7.353
10435POPC   NC368699  10.509  15.162   5.553
10435POPC   PO468700  10.543  15.140   5.853
10435POPC   GL168701  10.547  15.177   6.153
10435POPC   GL268702  10.603  15.076   6.153
10435POPC   C1A68703  10.558  15.175   6.453
10435POPC   D2A68704  10.510  15.132   6.753
10435POPC   C3A68705  10.525  15.197   7.053
10435POPC   C4A68706  10.531  15.182   7.353
10435POPC   C1B68707  10.574  14.941   6.453
10435POPC   C2B68708  10.614  14.909   6.753
10435POPC   C3B68709  10.667  14.990   7.053
10435POPC   C4B68710  10.629  14.945   7.353
10436POPC   NC368711   8.183   4.322   5.553
10436POPC   PO468712   8.190   4.322   5.853
10436POPC   GL168713   8.170   4.303   6.153
10436POPC   GL268714   8.180   4.433   6.153
10436POPC   C1A68715   8.234   4.366   6.453
10436POPC   D2A68716   8.171   4.315   6.753
10436POPC   C3A68717   8.209   4.322   7.053
10436POPC   C4A68718   8.214   4.314   7.353
10436POPC   C1B68719   8.206   4.605   6.453
10436POPC   C2B68720   8.243   4.567   6.753
10436POPC   C3B68721   8.244   4.518   7.053
10436POPC   C4B68722   8.279   4.577   7.353
10437POPC   NC368723   8.973   8.963   5.553
10437POPC   PO468724   8.981   8.928   5.853
10437POPC   GL168725   8.999   9.019   6.153
10437POPC   GL268726   8.957   8.823   6.153
10437POPC   C1A68727   8.932   8.970   6.453
10437POPC   D2A68728   8.928   8.942   6.753
10437POPC   C3A68729   9.010   8.953   7.053
10437POPC   C4A68730   9.011   8.944   7.353
10437POPC   C1B68731   9.008   8.766   6.453
10437POPC   C2B68732   9.064   8.768   6.753
10437POPC   C3B68733   9.007   8.722   7.053
10437POPC   C4B68734   9.048   8.726   7.353
10438POPC   NC368735  31.439  34.602   5.553
10438POPC   PO468736  31.496  34.604   5.853
10438POPC   GL168737  31.442  34.618   6.153
10438POPC   GL268738  31.339  34.635   6.153
10438POPC   C1A68739  31.457  34.553   6.453
10438POPC   D2A68740  31.467  34.617   6.753
10438POPC   C3A68741  31.519  34.528   7.053
10438POPC   C4A68742  31.508  34.590   7.353
10438POPC   C1B68743  31.214  34.610   6.453
10438POPC   C2B68744  31.219  34.614   6.753
10438POPC   C3B68745  31.244  34.613   7.053
10438POPC   C4B68746  31.269  34.574   7.353
10439POPC   NC368747   6.624  11.322   5.553
10439POPC   PO468748   6.641  11.328   5.853
10439POPC   GL168749   6.639  11.302   6.153
10439POPC   GL268750   6.498  11.393   6.153
10439POPC   C1A68751   6.671  11.310   6.453
10439POPC   D2A68752   6.681  11.258   6.753
10439POPC   C3A68753   6.686  11.294   7.053
10439POPC   C4A68754   6.682  11.269   7.353
10439POPC   C1B68755   6.410  11.362   6.453
10439POPC   C2B68756   6.443  11.373   6.753
10439POPC   C3B68757   6.401  11.394   7.053
10439POPC   C4B68758   6.388  11.363   7.353
10440POPC   NC368759  36.907  26.858   5.553
10440POPC   PO468760  36.864  26.859   5.853
10440POPC   GL168761  36.861  26.778   6.153
10440POPC   GL268762  36.970  26.760   6.153
10440POPC   C1A68763  36.869  26.774   6.453
10440POPC   D2A68764  36.917  26.853   6.753
10440POPC   C3A68765  36.907  26.852   7.053
10440POPC   C4A68766  36.867  26.855   7.353
10440POPC   C1B68767  37.057  26.612   6.453
10440POPC   C2B68768  37.137  26.615   6.753
10440POPC   C3B68769  37.126  26.663   7.053
10440POPC   C4B68770  37.077  26.605   7.353
10441POPC   NC368771  39.215  35.384   5.553
10441POPC   PO468772  39.206  35.386   5.853
10441POPC   GL168773  39.247  35.339   6.153
10441POPC   GL268774  39.333  35.453   6.153
10441POPC   C1A68775  39.213  35.311   6.453
10441POPC   D2A68776  39.194  35.354   6.753
10441POPC   C3A68777  39.228  35.357   7.053
10441POPC   C4A68778  39.273  35.382   7.353
10441POPC   C1B68779  39.484  35.427   6.453
10441POPC   C2B68780  39.451  35.454   6.753
10441POPC   C3B68781  39.410  35.460   7.053
10441POPC   C4B68782  39.465  35.509   7.353
10442POPC   NC368783  34.541   6.682   5.553
10442POPC   PO468784  34.547   6.617   5.853
10442POPC   GL168785  34.569   6.595   6.153
10442POPC   GL268786  34.473   6.538   6.153
10442POPC   C1A68787  34.537   6.611   6.453
10442POPC   D2A68788  34.575   6.631   6.753
10442POPC   C3A68789  34.613   6.654   7.053
10442POPC   C4A68790  34.534   6.606   7.353
10442POPC   C1B68791  34.431   6.433   6.453
10442POPC   C2B68792  34.431   6.381   6.753
10442POPC   C3B68793  34.488   6.403   7.053
10442POPC   C4B68794  34.477   6.383   7.353
10443POPC   NC368795  26.827  27.566   5.553
10443POPC   PO468796  26.854  27.621   5.853
10443POPC   GL168797  26.771  27.598   6.153
10443POPC   GL268798  26.764  27.660   6.153
10443POPC   C1A68799  26.837  27.619   6.453
10443POPC   D2A68800  26.851  27.628   6.753
10443POPC   C3A68801  26.806  27.593   7.053
10443POPC   C4A68802  26.792  27.557   7.353
10443POPC   C1B68803  26.699  27.768   6.453
10443POPC   C2B68804  26.640  27.831   6.753
10443POPC   C3B68805  26.652  27.837   7.053
10443POPC   C4B68806  26.627  27.827   7.353
10444POPC   NC368807  42.313   1.196   5.553
10444POPC   PO468808  42.313   1.181   5.853
10444POPC   GL168809  42.300   1.243   6.153
10444POPC   GL268810  42.419   1.236   6.153
10444POPC   C1A68811  42.372   1.246   6.453
10444POPC   D2A68812  42.356   1.233   6.753
10444POPC   C3A68813  42.356   1.214   7.053
10444POPC   C4A68814  42.300   1.225   7.353
10444POPC   C1B68815  42.554   1.348   6.453
10444POPC   C2B68816  42.500   1.389   6.753
10444POPC   C3B68817  42.581   1.333   7.053
10444POPC   C4B68818  42.501   1.396   7.353
10445POPC   NC368819  34.575  10.506   5.553
10445POPC   PO468820  34.615  10.505   5.853
10445POPC   GL168821  34.602  10.522   6.153
10445POPC   GL268822  34.646  10.661   6.153
10445POPC   C1A68823  34.526  10.566   6.453
10445POPC   D2A68824  34.558  10.537   6.753
10445POPC   C3A68825  34.578  10.545   7.053
10445POPC   C4A68826  34.528  10.566   7.353
10445POPC   C1B68827  34.803  10.712   6.453
10445POPC   C2B68828  34.733  10.652   6.753
10445POPC   C3B68829  34.741  10.709   7.053
10445POPC   C4B68830  34.797  10.697   7.353
10446POPC   NC368831  22.153  40.028   5.553
10446POPC   PO468832  22.115  40.001   5.853
10446POPC   GL168833  22.152  39.970   6.153
10446POPC   GL268834  22.052  39.931   6.153
10446POPC   C1A68835  22.138  40.038   6.453
10446POPC   D2A68836  22.146  40.051   6.753
10446POPC   C3A68837  22.173  39.997   7.053
10446POPC   C4A68838  22.119  40.009   7.353
10446POPC   C1B68839  21.884  39.891   6.453
10446POPC   C2B68840  21.917  39.869   6.753
10446POPC   C3B68841  21.949  39.882   7.053
10446POPC   C4B68842  21.928  39.893   7.353
10447POPC   NC368843  42.354  20.640   5.553
10447POPC   PO468844  42.369  20.651   5.853
10447POPC   GL168845  42.337  20.576   6.153
10447POPC   GL268846  42.194  20.704   6.153
10447POPC   C1A68847  42.377  20.639   6.453
10447POPC   D2A68848  42.315  20.582   6.753
10447POPC   C3A68849  42.379  20.561   7.053
10447POPC   C4A68850  42.334  20.563   7.353
10447POPC   C1B68851  42.140  20.737   6.453
10447POPC   C2B68852  42.124  20.736   6.753
10447POPC   C3B68853  42.112  20.724   7.053
10447POPC   C4B68854  42.118  20.700   7.353
10448POPC   NC368855  24.498  22.119   5.553
10448POPC   PO468856  24.513  22.153   5.853
10448POPC   GL168857  24.510  22.123   6.153
10448POPC   GL268858  24.592  22.212   6.153
10448POPC   C1A68859  24.519  22.144   6.453
10448POPC   D2A68860  24.518  22.209   6.753
10448POPC   C3A68861  24.463  22.173   7.053
10448POPC   C4A68862  24.453  22.169   7.353
10448POPC   C1B68863  24.771  22.273   6.453
10448POPC   C2B68864  24.692  22.261   6.753
10448POPC   C3B68865  24.750  22.246   7.053
10448POPC   C4B68866  24.699  22.256   7.353
10449POPC   NC368867   1.255  21.410   5.553
10449POPC   PO468868   1.168  21.388   5.853
10449POPC   GL168869   1.244  21.413   6.153
10449POPC   GL268870   1.130  21.375   6.153
10449POPC   C1A68871   1.211  21.396   6.453
10449POPC   D2A68872   1.230  21.403   6.753
10449POPC   C3A68873   1.251  21.406   7.053
10449POPC   C4A68874   1.174  21.402   7.353
10449POPC   C1B68875   0.995  21.397   6.453
10449POPC   C2B68876   0.958  21.439   6.753
10449POPC   C3B68877   0.982  21.437   7.053
10449POPC   C4B68878   0.931  21.471   7.353
10450POPC   NC368879  10.557   1.177   5.553
10450POPC   PO468880  10.559   1.252   5.853
10450POPC   GL168881  10.481   1.174   6.153
10450POPC   GL268882  10.684   1.126   6.153
10450POPC   C1A68883  10.498   1.242   6.453
10450POPC   D2A68884  10.508   1.223   6.753
10450POPC   C3A68885  10.508   1.222   7.053
10450POPC   C4A68886  10.563   1.263   7.353
10450POPC   C1B68887  10.803   1.143   6.453
10450POPC   C2B68888  10.729   1.126   6.753
10450POPC   C3B68889  10.803   1.154   7.053
10450POPC   C4B68890  10.769   1.183   7.353
10451POPC   NC368891  42.372  22.889   5.553
10451POPC   PO468892  42.314  22.902   5.853
10451POPC   GL168893  42.292  22.942   6.153
10451POPC   GL268894  42.410  23.060   6.153
10451POPC   C1A68895  42.355  22.893   6.453
10451POPC   D2A68896  42.339  22.920   6.753
10451POPC   C3A68897  42.324  22.978   7.053
10451POPC   C4A68898  42.330  22.898   7.353
10451POPC   C1B68899  42.478  23.099   6.453
10451POPC   C2B68900  42.460  23.177   6.753
10451POPC   C3B68901  42.435  23.155   7.053
10451POPC   C4B68902  42.497  23.097   7.353
10452POPC   NC368903   9.792   8.949   5.553
10452POPC   PO468904   9.755   9.008   5.853
10452POPC   GL168905   9.700   8.934   6.153
10452POPC   GL268906   9.834   9.039   6.153
10452POPC   C1A68907   9.758   8.956   6.453
10452POPC   D2A68908   9.727   8.995   6.753
10452POPC   C3A68909   9.760   9.016   7.053
10452POPC   C4A68910   9.781   9.011   7.353
10452POPC   C1B68911  10.008   8.980   6.453
10452POPC   C2B68912  10.037   8.975   6.753
10452POPC   C3B68913   9.978   8.975   7.053
10452POPC   C4B68914   9.950   9.038   7.353
10453POPC   NC368915  15.915  39.220   5.553
10453POPC   PO468916  15.935  39.254   5.853
10453POPC   GL168917  15.926  39.218   6.153
10453POPC   GL268918  16.053  39.180   6.153
10453POPC   C1A68919  15.956  39.211   6.453
10453POPC   D2A68920  15.964  39.230   6.753
10453POPC   C3A68921  16.003  39.263   7.053
10453POPC   C4A68922  15.938  39.259   7.353
10453POPC   C1B68923  16.131  39.076   6.453
10453POPC   C2B68924  16.123  39.057   6.753
10453POPC   C3B68925  16.176  39.075   7.053
10453POPC   C4B68926  16.146  39.038   7.353
10454POPC   NC368927  26.038  12.889   5.553
10454POPC   PO468928  26.027  12.850   5.853
10454POPC   GL168929  26.044  12.878   6.153
10454POPC   GL268930  25.897  12.811   6.153
10454POPC   C1A68931  26.006  12.886   6.453
10454POPC   D2A68932  26.084  12.843   6.753
10454POPC   C3A68933  26.022  12.823   7.053
10454POPC   C4A68934  26.037  12.878   7.353
10454POPC   C1B68935  25.759  12.818   6.453
10454POPC   C2B68936  25.800  12.797   6.753
10454POPC   C3B68937  25.821  12.777   7.053
10454POPC   C4B68938  25.824  12.734   7.353
10455POPC   NC368939  30.699  31.489   5.553
10455POPC   PO468940  30.657  31.453   5.853
10455POPC   GL168941  30.729  31.467   6.153
10455POPC   GL268942  30.779  31.511   6.153
10455POPC   C1A68943  30.717  31.495   6.453
10455POPC   D2A68944  30.717  31.482   6.753
10455POPC   C3A68945  30.649  31.518   7.053
10455POPC   C4A68946  30.703  31.513   7.353
10455POPC   C1B68947  30.929  31.634   6.453
10455POPC   C2B68948  30.899  31.601   6.753
10455POPC   C3B68949  30.918  31.616   7.053
10455POPC   C4B68950  30.896  31.646   7.353
10456POPC   NC368951  29.954  43.100   5.553
10456POPC   PO468952  29.882  43.090   5.853
10456POPC   GL168953  29.918  43.159   6.153
10456POPC   GL268954  29.760  43.116   6.153
10456POPC   C1A68955  29.888  43.076   6.453
10456POPC   D2A68956  29.925  43.155   6.753
10456POPC   C3A68957  29.886  43.137   7.053
10456POPC   C4A68958  29.961  43.146   7.353
10456POPC   C1B68959  29.710  43.084   6.453
10456POPC   C2B68960  29.624  43.134   6.753
10456POPC   C3B68961  29.714  43.105   7.053
10456POPC   C4B68962  29.694  43.137   7.353
10457POPC   NC368963  25.248  15.963   5.553
10457POPC   PO468964  25.234  15.959   5.853
10457POPC   GL168965  25.297  16.000   6.153
10457POPC   GL268966  25.187  16.040   6.153
10457POPC   C1A68967  25.233  15.975   6.453
10457POPC   D2A68968  25.242  15.939   6.753
10457POPC   C3A68969  25.313  15.947   7.053
10457POPC   C4A68970  25.285  15.995   7.353
10457POPC   C1B68971  25.242  16.160   6.453
10457POPC   C2B68972  25.164  16.208   6.753
10457POPC   C3B68973  25.231  16.224   7.053
10457POPC   C4B68974  25.204  16.204   7.353
10458POPC   NC368975  25.308  19.816   5.553
10458POPC   PO468976  25.223  19.805   5.853
10458POPC   GL168977  25.224  19.817   6.153
10458POPC   GL268978  25.418  19.792   6.153
10458POPC   C1A68979  25.222  19.844   6.453
10458POPC   D2A68980  25.228  19.800   6.753
10458POPC   C3A68981  25.286  19.833   7.053
10458POPC   C4A68982  25.313  19.807   7.353
10458POPC   C1B68983  25.524  19.840   6.453
10458POPC   C2B68984  25.493  19.885   6.753
10458POPC   C3B68985  25.486  19.826   7.053
10458POPC   C4B68986  25.480  19.852   7.353
10459POPC   NC368987  10.489  19.047   5.553
10459POPC   PO468988  10.487  19.043   5.853
10459POPC   GL168989  10.518  19.071   6.153
10459POPC   GL268990  10.661  19.063   6.153
10459POPC   C1A68991  10.553  19.061   6.453
10459POPC   D2A68992  10.540  19.063   6.753
10459POPC   C3A68993  10.505  19.055   7.053
10459POPC   C4A68994  10.508  19.039   7.353
10459POPC   C1B68995  10.757  19.132   6.453
10459POPC   C2B68996  10.798  19.107   6.753
10459POPC   C3B68997  10.792  19.118   7.053
10459POPC   C4B68998  10.770  19.161   7.353
10460POPC   NC368999  32.982  20.645   5.553
10460POPC   PO469000  33.019  20.656   5.853
10460POPC   GL169001  32.992  20.570   6.153
10460POPC   GL269002  32.878  20.667   6.153
10460POPC   C1A69003  33.037  20.620   6.453
10460POPC   D2A69004  32.988  20.608   6.753
10460POPC   C3A69005  33.052  20.651   7.053
10460POPC   C4A69006  33.060  20.592   7.353
10460POPC   C1B69007  32.811  20.710   6.453
10460POPC   C2B69008  32.808  20.738   6.753
10460POPC   C3B69009  32.799  20.751   7.053
10460POPC   C4B69010  32.757  20.667   7.353
10461POPC   NC369011  10.574  13.639   5.553
10461POPC   PO469012  10.535  13.610   5.853
10461POPC   GL169013  10.481  13.623   6.153
10461POPC   GL269014  10.640  13.511   6.153
10461POPC   C1A69015  10.476  13.646   6.453
10461POPC   D2A69016  10.514  13.665   6.753
10461POPC   C3A69017  10.556  13.606   7.053
10461POPC   C4A69018  10.559  13.635   7.353
10461POPC   C1B69019  10.738  13.428   6.453
10461POPC   C2B69020  10.664  13.422   6.753
10461POPC   C3B69021  10.688  13.414   7.053
10461POPC   C4B69022  10.737  13.406   7.353
10462POPC   NC369023   9.005  19.031   5.553
10462POPC   PO469024   8.944  19.060   5.853
10462POPC   GL169025   8.985  19.017   6.153
10462POPC   GL269026   9.051  19.183   6.153
10462POPC   C1A69027   8.937  19.068   6.453
10462POPC   D2A69028   8.954  19.067   6.753
10462POPC   C3A69029   8.972  19.010   7.053
10462POPC   C4A69030   8.939  19.062   7.353
10462POPC   C1B69031   9.157  19.203   6.453
10462POPC   C2B69032   9.130  19.231   6.753
10462POPC   C3B69033   9.174  19.256   7.053
10462POPC   C4B69034   9.121  19.263   7.353
10463POPC   NC369035  36.944  27.549   5.553
10463POPC   PO469036  36.874  27.611   5.853
10463POPC   GL169037  36.859  27.577   6.153
10463POPC   GL269038  36.783  27.662   6.153
10463POPC   C1A69039  36.902  27.603   6.453
10463POPC   D2A69040  36.953  27.609   6.753
10463POPC   C3A69041  36.874  27.587   7.053
10463POPC   C4A69042  36.876  27.573   7.353
10463POPC   C1B69043  36.620  27.680   6.453
10463POPC   C2B69044  36.614  27.669   6.753
10463POPC   C3B69045  36.625  27.652   7.053
10463POPC   C4B69046  36.616  27.650   7.353
10464POPC   NC369047  10.512  24.465   5.553
10464POPC   PO469048  10.541  24.508   5.853
10464POPC   GL169049  10.525  24.447   6.153
10464POPC   GL269050  10.652  24.596   6.153
10464POPC   C1A69051  10.525  24.476   6.453
10464POPC   D2A69052  10.523  24.525   6.753
10464POPC   C3A69053  10.512  24.502   7.053
10464POPC   C4A69054  10.544  24.531   7.353
10464POPC   C1B69055  10.690  24.657   6.453
10464POPC   C2B69056  10.742  24.682   6.753
10464POPC   C3B69057  10.709  24.651   7.053
10464POPC   C4B69058  10.757  24.667   7.353
10465POPC   NC369059   4.313  37.721   5.553
10465POPC   PO469060   4.310  37.702   5.853
10465POPC   GL169061   4.367  37.710   6.153
10465POPC   GL269062   4.234  37.659   6.153
10465POPC   C1A69063   4.293  37.700   6.453
10465POPC   D2A69064   4.327  37.672   6.753
10465POPC   C3A69065   4.301  37.687   7.053
10465POPC   C4A69066   4.268  37.652   7.353
10465POPC   C1B69067   4.076  37.732   6.453
10465POPC   C2B69068   4.046  37.751   6.753
10465POPC   C3B69069   4.114  37.690   7.053
10465POPC   C4B69070   4.071  37.743   7.353
10466POPC   NC369071  33.785  33.068   5.553
10466POPC   PO469072  33.750  33.019   5.853
10466POPC   GL169073  33.845  32.999   6.153
10466POPC   GL269074  33.739  33.115   6.153
10466POPC   C1A69075  33.752  33.016   6.453
10466POPC   D2A69076  33.759  32.984   6.753
10466POPC   C3A69077  33.841  33.018   7.053
10466POPC   C4A69078  33.801  33.036   7.353
10466POPC   C1B69079  33.795  33.267   6.453
10466POPC   C2B69080  33.714  33.312   6.753
10466POPC   C3B69081  33.775  33.241   7.053
10466POPC   C4B69082  33.751  33.247   7.353
10467POPC   NC369083  15.157  10.547   5.553
10467POPC   PO469084  15.154  10.565   5.853
10467POPC   GL169085  15.135  10.480   6.153
10467POPC   GL269086  15.149  10.426   6.153
10467POPC   C1A69087  15.149  10.484   6.453
10467POPC   D2A69088  15.140  10.538   6.753
10467POPC   C3A69089  15.197  10.570   7.053
10467POPC   C4A69090  15.136  10.548   7.353
10467POPC   C1B69091  15.061  10.251   6.453
10467POPC   C2B69092  15.106  10.334   6.753
10467POPC   C3B69093  15.080  10.239   7.053
10467POPC   C4B69094  15.125  10.333   7.353
10468POPC   NC369095  35.392   7.389   5.553
10468POPC   PO469096  35.376   7.400   5.853
10468POPC   GL169097  35.333   7.413   6.153
10468POPC   GL269098  35.516   7.367   6.153
10468POPC   C1A69099  35.333   7.438   6.453
10468POPC   D2A69100  35.331   7.464   6.753
10468POPC   C3A69101  35.396   7.376   7.053
10468POPC   C4A69102  35.362   7.418   7.353
10468POPC   C1B69103  35.599   7.405   6.453
10468POPC   C2B69104  35.615   7.404   6.753
10468POPC   C3B69105  35.594   7.426   7.053
10468POPC   C4B69106  35.584   7.417   7.353
10469POPC   NC369107  25.307  36.944   5.553
10469POPC   PO469108  25.227  36.859   5.853
10469POPC   GL169109  25.307  36.871   6.153
10469POPC   GL269110  25.224  36.815   6.153
10469POPC   C1A69111  25.251  36.942   6.453
10469POPC   D2A69112  25.254  36.938   6.753
10469POPC   C3A69113  25.283  36.881   7.053
10469POPC   C4A69114  25.228  36.917   7.353
10469POPC   C1B69115  25.124  36.705   6.453
10469POPC   C2B69116  25.119  36.698   6.753
10469POPC   C3B69117  25.133  36.705   7.053
10469POPC   C4B69118  25.093  36.722   7.353
10470POPC   NC369119  26.035  41.524   5.553
10470POPC   PO469120  26.017  41.550   5.853
10470POPC   GL169121  25.995  41.578   6.153
10470POPC   GL269122  26.169  41.466   6.153
10470POPC   C1A69123  26.018  41.529   6.453
10470POPC   D2A69124  26.088  41.603   6.753
10470POPC   C3A69125  26.047  41.552   7.053
10470POPC   C4A69126  26.007  41.599   7.353
10470POPC   C1B69127  26.243  41.416   6.453
10470POPC   C2B69128  26.295  41.474   6.753
10470POPC   C3B69129  26.229  41.419   7.053
10470POPC   C4B69130  26.213  41.449   7.353
10471POPC   NC369131   9.782  35.334   5.553
10471POPC   PO469132   9.770  35.360   5.853
10471POPC   GL169133   9.779  35.330   6.153
10471POPC   GL269134   9.860  35.351   6.153
10471POPC   C1A69135   9.717  35.325   6.453
10471POPC   D2A69136   9.698  35.397   6.753
10471POPC   C3A69137   9.754  35.367   7.053
10471POPC   C4A69138   9.788  35.336   7.353
10471POPC   C1B69139   9.961  35.293   6.453
10471POPC   C2B69140  10.031  35.266   6.753
10471POPC   C3B69141   9.952  35.324   7.053
10471POPC   C4B69142  10.016  35.350   7.353
10472POPC   NC369143  34.593  19.087   5.553
10472POPC   PO469144  34.534  19.058   5.853
10472POPC   GL169145  34.550  19.106   6.153
10472POPC   GL269146  34.747  19.071   6.153
10472POPC   C1A69147  34.555  19.029   6.453
10472POPC   D2A69148  34.573  19.096   6.753
10472POPC   C3A69149  34.596  19.044   7.053
10472POPC   C4A69150  34.559  19.039   7.353
10472POPC   C1B69151  34.781  19.059   6.453
10472POPC   C2B69152  34.788  19.011   6.753
10472POPC   C3B69153  34.788  19.047   7.053
10472POPC   C4B69154  34.832  19.026   7.353
10473POPC   NC369155   0.467  24.526   5.553
10473POPC   PO469156   0.421  24.532   5.853
10473POPC   GL169157   0.425  24.517   6.153
10473POPC   GL269158   0.411  24.621   6.153
10473POPC   C1A69159   0.456  24.444   6.453
10473POPC   D2A69160   0.394  24.502   6.753
10473POPC   C3A69161   0.434  24.531   7.053
10473POPC   C4A69162   0.404  24.525   7.353
10473POPC   C1B69163   0.433  24.721   6.453
10473POPC   C2B69164   0.435  24.699   6.753
10473POPC   C3B69165   0.398  24.720   7.053
10473POPC   C4B69166   0.395  24.715   7.353
10474POPC   NC369167  17.547  18.252   5.553
10474POPC   PO469168  17.486  18.273   5.853
10474POPC   GL169169  17.539  18.263   6.153
10474POPC   GL269170  17.661  18.220   6.153
10474POPC   C1A69171  17.482  18.286   6.453
10474POPC   D2A69172  17.496  18.248   6.753
10474POPC   C3A69173  17.526  18.257   7.053
10474POPC   C4A69174  17.463  18.258   7.353
10474POPC   C1B69175  17.727  18.155   6.453
10474POPC   C2B69176  17.758  18.143   6.753
10474POPC   C3B69177  17.701  18.225   7.053
10474POPC   C4B69178  17.722  18.216   7.353
10475POPC   NC369179  44.650   1.242   5.553
10475POPC   PO469180  44.680   1.203   5.853
10475POPC   GL169181  44.687   1.222   6.153
10475POPC   GL269182  44.725   1.332   6.153
10475POPC   C1A69183  44.675   1.219   6.453
10475POPC   D2A69184  44.684   1.194   6.753
10475POPC   C3A69185  44.629   1.187   7.053
10475POPC   C4A69186  44.677   1.195   7.353
10475POPC   C1B69187  44.727   1.407   6.453
10475POPC   C2B69188  44.723   1.453   6.753
10475POPC   C3B69189  44.716   1.459   7.053
10475POPC   C4B69190  44.726   1.434   7.353
10476POPC   NC369191   2.764  16.704   5.553
10476POPC   PO469192   2.775  16.765   5.853
10476POPC   GL169193   2.741  16.777   6.153
10476POPC   GL269194   2.715  16.594   6.153
10476POPC   C1A69195   2.730  16.763   6.453
10476POPC   D2A69196   2.807  16.686   6.753
10476POPC   C3A69197   2.811  16.722   7.053
10476POPC   C4A69198   2.738  16.692   7.353
10476POPC   C1B69199   2.677  16.506   6.453
10476POPC   C2B69200   2.696  16.463   6.753
10476POPC   C3B69201   2.671  16.527   7.053
10476POPC   C4B69202   2.713  16.501   7.353
10477POPC   NC369203  14.388  14.431   5.553
10477POPC   PO469204  14.389  14.444   5.853
10477POPC   GL169205  14.423  14.420   6.153
10477POPC   GL269206  14.323  14.523   6.153
10477POPC   C1A69207  14.360  14.360   6.453
10477POPC   D2A69208  14.439  14.402   6.753
10477POPC   C3A69209  14.370  14.356   7.053
10477POPC   C4A69210  14.427  14.419   7.353
10477POPC   C1B69211  14.383  14.692   6.453
10477POPC   C2B69212  14.313  14.676   6.753
10477POPC   C3B69213  14.309  14.624   7.053
10477POPC   C4B69214  14.383  14.687   7.353
10478POPC   NC369215  17.507  37.702   5.553
10478POPC   PO469216  17.550  37.648   5.853
10478POPC   GL169217  17.503  37.699   6.153
10478POPC   GL269218  17.442  37.811   6.153
10478POPC   C1A69219  17.515  37.672   6.453
10478POPC   D2A69220  17.458  37.702   6.753
10478POPC   C3A69221  17.469  37.701   7.053
10478POPC   C4A69222  17.524  37.697   7.353
10478POPC   C1B69223  17.394  37.941   6.453
10478POPC   C2B69224  17.432  37.917   6.753
10478POPC   C3B69225  17.378  37.951   7.053
10478POPC   C4B69226  17.440  37.925   7.353
10479POPC   NC369227  29.102  22.967   5.553
10479POPC   PO469228  29.178  22.949   5.853
10479POPC   GL169229  29.110  22.900   6.153
10479POPC   GL269230  29.056  22.993   6.153
10479POPC   C1A69231  29.109  22.976   6.453
10479POPC   D2A69232  29.129  22.932   6.753
10479POPC   C3A69233  29.177  22.972   7.053
10479POPC   C4A69234  29.120  22.932   7.353
10479POPC   C1B69235  28.905  23.073   6.453
10479POPC   C2B69236  28.952  22.984   6.753
10479POPC   C3B69237  28.882  23.002   7.053
10479POPC   C4B69238  28.912  23.035   7.353
10480POPC   NC369239  12.881   9.016   5.553
10480POPC   PO469240  12.832   8.952   5.853
10480POPC   GL169241  12.899   8.990   6.153
10480POPC   GL269242  12.740   8.976   6.153
10480POPC   C1A69243  12.833   8.945   6.453
10480POPC   D2A69244  12.830   8.985   6.753
10480POPC   C3A69245  12.853   9.020   7.053
10480POPC   C4A69246  12.849   8.999   7.353
10480POPC   C1B69247  12.557   8.991   6.453
10480POPC   C2B69248  12.604   8.976   6.753
10480POPC   C3B69249  12.642   9.044   7.053
10480POPC   C4B69250  12.613   9.026   7.353
10481POPC   NC369251   1.242  13.600   5.553
10481POPC   PO469252   1.194  13.626   5.853
10481POPC   GL169253   1.212  13.644   6.153
10481POPC   GL269254   1.203  13.552   6.153
10481POPC   C1A69255   1.217  13.580   6.453
10481POPC   D2A69256   1.237  13.640   6.753
10481POPC   C3A69257   1.247  13.677   7.053
10481POPC   C4A69258   1.181  13.630   7.353
10481POPC   C1B69259   1.282  13.403   6.453
10481POPC   C2B69260   1.217  13.367   6.753
10481POPC   C3B69261   1.223  13.405   7.053
10481POPC   C4B69262   1.213  13.370   7.353
10482POPC   NC369263  36.878  42.355   5.553
10482POPC   PO469264  36.923  42.308   5.853
10482POPC   GL169265  36.879  42.312   6.153
10482POPC   GL269266  36.918  42.180   6.153
10482POPC   C1A69267  36.884  42.309   6.453
10482POPC   D2A69268  36.918  42.331   6.753
10482POPC   C3A69269  36.926  42.342   7.053
10482POPC   C4A69270  36.882  42.371   7.353
10482POPC   C1B69271  37.014  42.101   6.453
10482POPC   C2B69272  36.984  42.141   6.753
10482POPC   C3B69273  36.971  42.075   7.053
10482POPC   C4B69274  37.016  42.124   7.353
10483POPC   NC369275  44.638  19.857   5.553
10483POPC   PO469276  44.709  19.841   5.853
10483POPC   GL169277  44.662  19.846   6.153
10483POPC   GL269278  44.688  19.708   6.153
10483POPC   C1A69279  44.668  19.815   6.453
10483POPC   D2A69280  44.706  19.852   6.753
10483POPC   C3A69281  44.696  19.870   7.053
10483POPC   C4A69282  44.709  19.883   7.353
10483POPC   C1B69283  44.812  19.581   6.453
10483POPC   C2B69284  44.770  19.650   6.753
10483POPC   C3B69285  44.742  19.600   7.053
10483POPC   C4B69286  44.726  19.628   7.353
10484POPC   NC369287  34.538  16.750   5.553
10484POPC   PO469288  34.616  16.763   5.853
10484POPC   GL169289  34.603  16.766   6.153
10484POPC   GL269290  34.453  16.824   6.153
10484POPC   C1A69291  34.533  16.779   6.453
10484POPC   D2A69292  34.584  16.693   6.753
10484POPC   C3A69293  34.599  16.717   7.053
10484POPC   C4A69294  34.554  16.698   7.353
10484POPC   C1B69295  34.401  16.857   6.453
10484POPC   C2B69296  34.320  16.794   6.753
10484POPC   C3B69297  34.307  16.848   7.053
10484POPC   C4B69298  34.370  16.876   7.353
10485POPC   NC369299   5.905   7.414   5.553
10485POPC   PO469300   5.872   7.451   5.853
10485POPC   GL169301   5.844   7.393   6.153
10485POPC   GL269302   5.999   7.333   6.153
10485POPC   C1A69303   5.884   7.436   6.453
10485POPC   D2A69304   5.868   7.396   6.753
10485POPC   C3A69305   5.891   7.440   7.053
10485POPC   C4A69306   5.899   7.432   7.353
10485POPC   C1B69307   6.006   7.269   6.453
10485POPC   C2B69308   6.047   7.294   6.753
10485POPC   C3B69309   6.018   7.261   7.053
10485POPC   C4B69310   6.001   7.296   7.353
10486POPC   NC369311  40.809  29.190   5.553
10486POPC   PO469312  40.769  29.181   5.853
10486POPC   GL169313  40.765  29.161   6.153
10486POPC   GL269314  40.709  29.220   6.153
10486POPC   C1A69315  40.758  29.191   6.453
10486POPC   D2A69316  40.787  29.137   6.753
10486POPC   C3A69317  40.783  29.128   7.053
10486POPC   C4A69318  40.745  29.129   7.353
10486POPC   C1B69319  40.656  29.380   6.453
10486POPC   C2B69320  40.642  29.367   6.753
10486POPC   C3B69321  40.656  29.345   7.053
10486POPC   C4B69322  40.646  29.328   7.353
10487POPC   NC369323  35.330  39.200   5.553
10487POPC   PO469324  35.318  39.263   5.853
10487POPC   GL169325  35.398  39.223   6.153
10487POPC   GL269326  35.491  39.194   6.153
10487POPC   C1A69327  35.391  39.194   6.453
10487POPC   D2A69328  35.380  39.249   6.753
10487POPC   C3A69329  35.342  39.223   7.053
10487POPC   C4A69330  35.323  39.267   7.353
10487POPC   C1B69331  35.582  39.166   6.453
10487POPC   C2B69332  35.562  39.106   6.753
10487POPC   C3B69333  35.580  39.102   7.053
10487POPC   C4B69334  35.536  39.137   7.353
10488POPC   NC369335  40.792  29.961   5.553
10488POPC   PO469336  40.809  29.929   5.853
10488POPC   GL169337  40.740  29.907   6.153
10488POPC   GL269338  40.857  29.969   6.153
10488POPC   C1A69339  40.745  29.919   6.453
10488POPC   D2A69340  40.824  29.920   6.753
10488POPC   C3A69341  40.791  29.924   7.053
10488POPC   C4A69342  40.759  29.919   7.353
10488POPC   C1B69343  40.977  30.071   6.453
10488POPC   C2B69344  40.906  30.145   6.753
10488POPC   C3B69345  40.964  30.122   7.053
10488POPC   C4B69346  40.931  30.067   7.353
10489POPC   NC369347   1.997  43.142   5.553
10489POPC   PO469348   1.983  43.104   5.853
10489POPC   GL169349   1.962  43.066   6.153
10489POPC   GL269350   1.846  43.132   6.153
10489POPC   C1A69351   2.005  43.064   6.453
10489POPC   D2A69352   2.031  43.124   6.753
10489POPC   C3A69353   1.970  43.087   7.053
10489POPC   C4A69354   1.988  43.111   7.353
10489POPC   C1B69355   1.777  43.241   6.453
10489POPC   C2B69356   1.761  43.284   6.753
10489POPC   C3B69357   1.798  43.274   7.053
10489POPC   C4B69358   1.821  43.296   7.353
10490POPC   NC369359  19.840  32.228   5.553
10490POPC   PO469360  19.827  32.231   5.853
10490POPC   GL169361  19.839  32.272   6.153
10490POPC   GL269362  19.735  32.215   6.153
10490POPC   C1A69363  19.830  32.296   6.453
10490POPC   D2A69364  19.881  32.221   6.753
10490POPC   C3A69365  19.824  32.278   7.053
10490POPC   C4A69366  19.858  32.229   7.353
10490POPC   C1B69367  19.600  32.119   6.453
10490POPC   C2B69368  19.616  32.128   6.753
10490POPC   C3B69369  19.626  32.086   7.053
10490POPC   C4B69370  19.653  32.097   7.353
10491POPC   NC369371  40.734  32.295   5.553
10491POPC   PO469372  40.777  32.240   5.853
10491POPC   GL169373  40.814  32.279   6.153
10491POPC   GL269374  40.774  32.132   6.153
10491POPC   C1A69375  40.827  32.205   6.453
10491POPC   D2A69376  40.805  32.270   6.753
10491POPC   C3A69377  40.759  32.264   7.053
10491POPC   C4A69378  40.759  32.201   7.353
10491POPC   C1B69379  40.766  32.026   6.453
10491POPC   C2B69380  40.801  32.024   6.753
10491POPC   C3B69381  40.824  31.952   7.053
10491POPC   C4B69382  40.822  31.977   7.353
10492POPC   NC369383  22.191  33.825   5.553
10492POPC   PO469384  22.143  33.792   5.853
10492POPC   GL169385  22.128  33.796   6.153
10492POPC   GL269386  22.167  33.960   6.153
10492POPC   C1A69387  22.182  33.839   6.453
10492POPC   D2A69388  22.151  33.770   6.753
10492POPC   C3A69389  22.122  33.837   7.053
10492POPC   C4A69390  22.125  33.811   7.353
10492POPC   C1B69391  22.299  34.020   6.453
10492POPC   C2B69392  22.280  33.994   6.753
10492POPC   C3B69393  22.291  34.001   7.053
10492POPC   C4B69394  22.321  34.036   7.353
10493POPC   NC369395  16.687  39.997   5.553
10493POPC   PO469396  16.726  40.048   5.853
10493POPC   GL169397  16.699  39.977   6.153
10493POPC   GL269398  16.732  40.109   6.153
10493POPC   C1A69399  16.702  40.027   6.453
10493POPC   D2A69400  16.709  39.976   6.753
10493POPC   C3A69401  16.686  39.996   7.053
10493POPC   C4A69402  16.736  40.015   7.353
10493POPC   C1B69403  16.735  40.251   6.453
10493POPC   C2B69404  16.676  40.282   6.753
10493POPC   C3B69405  16.766  40.296   7.053
10493POPC   C4B69406  16.705  40.282   7.353
10494POPC   NC369407  41.553  17.496   5.553
10494POPC   PO469408  41.519  17.508   5.853
10494POPC   GL169409  41.530  17.529   6.153
10494POPC   GL269410  41.486  17.517   6.153
10494POPC   C1A69411  41.524  17.498   6.453
10494POPC   D2A69412  41.598  17.550   6.753
10494POPC   C3A69413  41.542  17.471   7.053
10494POPC   C4A69414  41.603  17.473   7.353
10494POPC   C1B69415  41.350  17.601   6.453
10494POPC   C2B69416  41.371  17.669   6.753
10494POPC   C3B69417  41.292  17.653   7.053
10494POPC   C4B69418  41.315  17.589   7.353
10495POPC   NC369419  29.151  40.014   5.553
10495POPC   PO469420  29.159  40.051   5.853
10495POPC   GL169421  29.149  39.997   6.153
10495POPC   GL269422  29.133  39.926   6.153
10495POPC   C1A69423  29.134  39.983   6.453
10495POPC   D2A69424  29.178  40.004   6.753
10495POPC   C3A69425  29.188  40.032   7.053
10495POPC   C4A69426  29.143  40.044   7.353
10495POPC   C1B69427  29.201  39.782   6.453
10495POPC   C2B69428  29.187  39.764   6.753
10495POPC   C3B69429  29.158  39.755   7.053
10495POPC   C4B69430  29.177  39.757   7.353
10496POPC   NC369431  31.466  22.953   5.553
10496POPC   PO469432  31.476  22.953   5.853
10496POPC   GL169433  31.484  22.903   6.153
10496POPC   GL269434  31.568  22.938   6.153
10496POPC   C1A69435  31.494  22.893   6.453
10496POPC   D2A69436  31.498  22.963   6.753
10496POPC   C3A69437  31.506  22.942   7.053
10496POPC   C4A69438  31.521  22.909   7.353
10496POPC   C1B69439  31.675  22.966   6.453
10496POPC   C2B69440  31.714  22.934   6.753
10496POPC   C3B69441  31.757  22.942   7.053
10496POPC   C4B69442  31.693  22.932   7.353
10497POPC   NC369443  26.066  16.723   5.553
10497POPC   PO469444  25.999  16.698   5.853
10497POPC   GL169445  26.021  16.685   6.153
10497POPC   GL269446  25.904  16.824   6.153
10497POPC   C1A69447  26.068  16.702   6.453
10497POPC   D2A69448  25.997  16.755   6.753
10497POPC   C3A69449  25.998  16.718   7.053
10497POPC   C4A69450  25.997  16.772   7.353
10497POPC   C1B69451  25.797  16.830   6.453
10497POPC   C2B69452  25.864  16.813   6.753
10497POPC   C3B69453  25.865  16.821   7.053
10497POPC   C4B69454  25.838  16.822   7.353
10498POPC   NC369455  21.403   2.811   5.553
10498POPC   PO469456  21.387   2.815   5.853
10498POPC   GL169457  21.339   2.762   6.153
10498POPC   GL269458  21.544   2.702   6.153
10498POPC   C1A69459  21.354   2.743   6.453
10498POPC   D2A69460  21.370   2.802   6.753
10498POPC   C3A69461  21.396   2.781   7.053
10498POPC   C4A69462  21.376   2.815   7.353
10498POPC   C1B69463  21.628   2.643   6.453
10498POPC   C2B69464  21.616   2.603   6.753
10498POPC   C3B69465  21.586   2.617   7.053
10498POPC   C4B69466  21.627   2.681   7.353
10499POPC   NC369467  16.727  44.709   5.553
10499POPC   PO469468  16.763  44.688   5.853
10499POPC   GL169469  16.737  44.644   6.153
10499POPC   GL269470  16.849  44.701   6.153
10499POPC   C1A69471  16.754  44.643   6.453
10499POPC   D2A69472  16.740  44.641   6.753
10499POPC   C3A69473  16.767  44.687   7.053
10499POPC   C4A69474  16.768  44.684   7.353
10499POPC   C1B69475  16.961  44.807   6.453
10499POPC   C2B69476  16.969  44.811   6.753
10499POPC   C3B69477  16.965  44.804   7.053
10499POPC   C4B69478  16.889  44.780   7.353
10500POPC   NC369479  14.421  36.915   5.553
10500POPC   PO469480  14.403  36.871   5.853
10500POPC   GL169481  14.451  36.874   6.153
10500POPC   GL269482  14.479  36.971   6.153
10500POPC   C1A69483  14.452  36.860   6.453
10500POPC   D2A69484  14.415  36.859   6.753
10500POPC   C3A69485  14.420  36.890   7.053
10500POPC   C4A69486  14.403  36.890   7.353
10500POPC   C1B69487  14.650  36.972   6.453
10500POPC   C2B69488  14.617  37.028   6.753
10500POPC   C3B69489  14.671  37.037   7.053
10500POPC   C4B69490  14.671  37.020   7.353
10501POPC   NC369491   6.598  12.095   5.553
10501POPC   PO469492   6.598  12.040   5.853
10501POPC   GL169493   6.652  12.061   6.153
10501POPC   GL269494   6.580  12.126   6.153
10501POPC   C1A69495   6.659  12.070   6.453
10501POPC   D2A69496   6.598  12.032   6.753
10501POPC   C3A69497   6.606  12.098   7.053
10501POPC   C4A69498   6.653  12.026   7.353
10501POPC   C1B69499   6.391  12.219   6.453
10501POPC   C2B69500   6.475  12.242   6.753
10501POPC   C3B69501   6.445  12.225   7.053
10501POPC   C4B69502   6.428  12.190   7.353
10502POPC   NC369503  43.084   2.718   5.553
10502POPC   PO469504  43.078   2.807   5.853
10502POPC   GL169505  43.136   2.724   6.153
10502POPC   GL269506  43.261   2.789   6.153
10502POPC   C1A69507  43.126   2.811   6.453
10502POPC   D2A69508  43.151   2.809   6.753
10502POPC   C3A69509  43.136   2.785   7.053
10502POPC   C4A69510  43.087   2.798   7.353
10502POPC   C1B69511  43.287   2.951   6.453
10502POPC   C2B69512  43.273   2.861   6.753
10502POPC   C3B69513  43.300   2.953   7.053
10502POPC   C4B69514  43.303   2.954   7.353
10503POPC   NC369515  13.590   1.994   5.553
10503POPC   PO469516  13.591   1.965   5.853
10503POPC   GL169517  13.628   1.977   6.153
10503POPC   GL269518  13.735   2.025   6.153
10503POPC   C1A69519  13.579   1.990   6.453
10503POPC   D2A69520  13.602   1.994   6.753
10503POPC   C3A69521  13.603   1.974   7.053
10503POPC   C4A69522  13.587   1.963   7.353
10503POPC   C1B69523  13.827   2.055   6.453
10503POPC   C2B69524  13.861   2.032   6.753
10503POPC   C3B69525  13.862   2.077   7.053
10503POPC   C4B69526  13.861   2.107   7.353
10504POPC   NC369527  32.288  43.917   5.553
10504POPC   PO469528  32.212  43.849   5.853
10504POPC   GL169529  32.266  43.908   6.153
10504POPC   GL269530  32.142  43.843   6.153
10504POPC   C1A69531  32.229  43.931   6.453
10504POPC   D2A69532  32.230  43.930   6.753
10504POPC   C3A69533  32.238  43.858   7.053
10504POPC   C4A69534  32.295  43.899   7.353
10504POPC   C1B69535  32.029  43.859   6.453
10504POPC   C2B69536  31.961  43.844   6.753
10504POPC   C3B69537  31.953  43.865   7.053
10504POPC   C4B69538  32.015  43.907   7.353
10505POPC   NC369539  10.517  21.337   5.553
10505POPC   PO469540  10.551  21.361   5.853
10505POPC   GL169541  10.511  21.407   6.153
10505POPC   GL269542  10.450  21.355   6.153
10505POPC   C1A69543  10.502  21.353   6.453
10505POPC   D2A69544  10.523  21.376   6.753
10505POPC   C3A69545  10.522  21.380   7.053
10505POPC   C4A69546  10.508  21.337   7.353
10505POPC   C1B69547  10.318  21.215   6.453
10505POPC   C2B69548  10.369  21.292   6.753
10505POPC   C3B69549  10.319  21.208   7.053
10505POPC   C4B69550  10.355  21.280   7.353
10506POPC   NC369551  37.677  37.698   5.553
10506POPC   PO469552  37.700  37.638   5.853
10506POPC   GL169553  37.674  37.646   6.153
10506POPC   GL269554  37.729  37.593   6.153
10506POPC   C1A69555  37.684  37.704   6.453
10506POPC   D2A69556  37.696  37.669   6.753
10506POPC   C3A69557  37.643  37.711   7.053
10506POPC   C4A69558  37.703  37.658   7.353
10506POPC   C1B69559  37.815  37.489   6.453
10506POPC   C2B69560  37.878  37.546   6.753
10506POPC   C3B69561  37.895  37.527   7.053
10506POPC   C4B69562  37.902  37.466   7.353
10507POPC   NC369563  21.371  25.290   5.553
10507POPC   PO469564  21.418  25.290   5.853
10507POPC   GL169565  21.357  25.298   6.153
10507POPC   GL269566  21.492  25.275   6.153
10507POPC   C1A69567  21.356  25.267   6.453
10507POPC   D2A69568  21.361  25.287   6.753
10507POPC   C3A69569  21.411  25.247   7.053
10507POPC   C4A69570  21.397  25.236   7.353
10507POPC   C1B69571  21.659  25.228   6.453
10507POPC   C2B69572  21.653  25.202   6.753
10507POPC   C3B69573  21.666  25.203   7.053
10507POPC   C4B69574  21.636  25.224   7.353
10508POPC   NC369575  44.693  39.249   5.553
10508POPC   PO469576  44.631  39.251   5.853
10508POPC   GL169577  44.697  39.220   6.153
10508POPC   GL269578  44.592  39.087   6.153
10508POPC   C1A69579  44.690  39.185   6.453
10508POPC   D2A69580  44.687  39.237   6.753
10508POPC   C3A69581  44.673  39.234   7.053
10508POPC   C4A69582  44.628  39.261   7.353
10508POPC   C1B69583  44.458  39.003   6.453
10508POPC   C2B69584  44.518  39.031   6.753
10508POPC   C3B69585  44.508  39.078   7.053
10508POPC   C4B69586  44.515  39.049   7.353
10509POPC   NC369587  41.530   8.237   5.553
10509POPC   PO469588  41.533   8.167   5.853
10509POPC   GL169589  41.572   8.207   6.153
10509POPC   GL269590  41.558   8.081   6.153
10509POPC   C1A69591  41.521   8.155   6.453
10509POPC   D2A69592  41.577   8.198   6.753
10509POPC   C3A69593  41.538   8.149   7.053
10509POPC   C4A69594  41.539   8.152   7.353
10509POPC   C1B69595  41.539   7.953   6.453
10509POPC   C2B69596  41.475   7.916   6.753
10509POPC   C3B69597  41.519   7.916   7.053
10509POPC   C4B69598  41.442   7.982   7.353
10510POPC   NC369599  29.944  30.721   5.553
10510POPC   PO469600  29.960  30.721   5.853
10510POPC   GL169601  29.876  30.744   6.153
10510POPC   GL269602  29.838  30.793   6.153
10510POPC   C1A69603  29.904  30.731   6.453
10510POPC   D2A69604  29.936  30.657   6.753
10510POPC   C3A69605  29.947  30.714   7.053
10510POPC   C4A69606  29.960  30.687   7.353
10510POPC   C1B69607  29.805  30.936   6.453
10510POPC   C2B69608  29.777  30.933   6.753
10510POPC   C3B69609  29.853  30.948   7.053
10510POPC   C4B69610  29.796  30.933   7.353
10511POPC   NC369611  29.961  34.527   5.553
10511POPC   PO469612  29.968  34.601   5.853
10511POPC   GL169613  29.969  34.549   6.153
10511POPC   GL269614  29.972  34.424   6.153
10511POPC   C1A69615  29.892  34.561   6.453
10511POPC   D2A69616  29.968  34.612   6.753
10511POPC   C3A69617  29.894  34.606   7.053
10511POPC   C4A69618  29.891  34.546   7.353
10511POPC   C1B69619  30.014  34.289   6.453
10511POPC   C2B69620  29.989  34.284   6.753
10511POPC   C3B69621  30.009  34.300   7.053
10511POPC   C4B69622  29.979  34.337   7.353
10512POPC   NC369623  11.344  22.925   5.553
10512POPC   PO469624  11.263  22.926   5.853
10512POPC   GL169625  11.297  22.910   6.153
10512POPC   GL269626  11.315  22.787   6.153
10512POPC   C1A69627  11.337  22.979   6.453
10512POPC   D2A69628  11.294  22.923   6.753
10512POPC   C3A69629  11.304  22.924   7.053
10512POPC   C4A69630  11.283  22.909   7.353
10512POPC   C1B69631  11.342  22.655   6.453
10512POPC   C2B69632  11.368  22.676   6.753
10512POPC   C3B69633  11.320  22.691   7.053
10512POPC   C4B69634  11.321  22.662   7.353
10513POPC   NC369635  19.842  22.205   5.553
10513POPC   PO469636  19.800  22.192   5.853
10513POPC   GL169637  19.820  22.166   6.153
10513POPC   GL269638  19.863  22.010   6.153
10513POPC   C1A69639  19.866  22.135   6.453
10513POPC   D2A69640  19.801  22.131   6.753
10513POPC   C3A69641  19.787  22.151   7.053
10513POPC   C4A69642  19.788  22.145   7.353
10513POPC   C1B69643  19.945  21.889   6.453
10513POPC   C2B69644  19.932  21.911   6.753
10513POPC   C3B69645  19.894  21.964   7.053
10513POPC   C4B69646  19.903  21.948   7.353
10514POPC   NC369647  22.191  22.950   5.553
10514POPC   PO469648  22.167  22.982   5.853
10514POPC   GL169649  22.140  22.936   6.153
10514POPC   GL269650  22.034  22.873   6.153
10514POPC   C1A69651  22.162  22.985   6.453
10514POPC   D2A69652  22.189  22.944   6.753
10514POPC   C3A69653  22.155  22.892   7.053
10514POPC   C4A69654  22.117  22.967   7.353
10514POPC   C1B69655  21.907  22.902   6.453
10514POPC   C2B69656  21.955  22.863   6.753
10514POPC   C3B69657  21.961  22.891   7.053
10514POPC   C4B69658  21.965  22.872   7.353
10515POPC   NC369659  33.003  16.760   5.553
10515POPC   PO469660  33.050  16.746   5.853
10515POPC   GL169661  32.992  16.728   6.153
10515POPC   GL269662  33.119  16.801   6.153
10515POPC   C1A69663  33.069  16.736   6.453
10515POPC   D2A69664  33.033  16.695   6.753
10515POPC   C3A69665  32.981  16.729   7.053
10515POPC   C4A69666  32.988  16.736   7.353
10515POPC   C1B69667  33.263  16.903   6.453
10515POPC   C2B69668  33.187  16.914   6.753
10515POPC   C3B69669  33.177  16.840   7.053
10515POPC   C4B69670  33.185  16.878   7.353
10516POPC   NC369671  23.668  24.441   5.553
10516POPC   PO469672  23.670  24.519   5.853
10516POPC   GL169673  23.710  24.444   6.153
10516POPC   GL269674  23.831  24.453   6.153
10516POPC   C1A69675  23.665  24.441   6.453
10516POPC   D2A69676  23.707  24.526   6.753
10516POPC   C3A69677  23.740  24.473   7.053
10516POPC   C4A69678  23.689  24.527   7.353
10516POPC   C1B69679  23.950  24.542   6.453
10516POPC   C2B69680  23.989  24.515   6.753
10516POPC   C3B69681  23.930  24.545   7.053
10516POPC   C4B69682  23.986  24.466   7.353
10517POPC   NC369683  43.144   8.932   5.553
10517POPC   PO469684  43.073   8.944   5.853
10517POPC   GL169685  43.066   8.932   6.153
10517POPC   GL269686  43.204   9.089   6.153
10517POPC   C1A69687  43.110   8.942   6.453
10517POPC   D2A69688  43.159   8.994   6.753
10517POPC   C3A69689  43.088   8.974   7.053
10517POPC   C4A69690  43.069   8.950   7.353
10517POPC   C1B69691  43.268   9.079   6.453
10517POPC   C2B69692  43.266   9.073   6.753
10517POPC   C3B69693  43.320   9.082   7.053
10517POPC   C4B69694  43.311   9.103   7.353
10518POPC   NC369695   2.036   2.717   5.553
10518POPC   PO469696   2.017   2.716   5.853
10518POPC   GL169697   1.959   2.736   6.153
10518POPC   GL269698   2.080   2.775   6.153
10518POPC   C1A69699   2.020   2.769   6.453
10518POPC   D2A69700   1.946   2.777   6.753
10518POPC   C3A69701   1.956   2.765   7.053
10518POPC   C4A69702   2.039   2.814   7.353
10518POPC   C1B69703   2.250   2.782   6.453
10518POPC   C2B69704   2.276   2.784   6.753
10518POPC   C3B69705   2.239   2.780   7.053
10518POPC   C4B69706   2.189   2.765   7.353
10519POPC   NC369707  40.767  36.139   5.553
10519POPC   PO469708  40.811  36.106   5.853
10519POPC   GL169709  40.738  36.146   6.153
10519POPC   GL269710  40.683  36.100   6.153
10519POPC   C1A69711  40.769  36.086   6.453
10519POPC   D2A69712  40.808  36.130   6.753
10519POPC   C3A69713  40.742  36.086   7.053
10519POPC   C4A69714  40.781  36.121   7.353
10519POPC   C1B69715  40.517  36.007   6.453
10519POPC   C2B69716  40.561  36.036   6.753
10519POPC   C3B69717  40.505  36.011   7.053
10519POPC   C4B69718  40.541  36.058   7.353
10520POPC   NC369719  10.523  43.848   5.553
10520POPC   PO469720  10.487  43.884   5.853
10520POPC   GL169721  10.510  43.890   6.153
10520POPC   GL269722  10.389  43.907   6.153
10520POPC   C1A69723  10.550  43.851   6.453
10520POPC   D2A69724  10.504  43.879   6.753
10520POPC   C3A69725  10.490  43.853   7.053
10520POPC   C4A69726  10.503  43.837   7.353
10520POPC   C1B69727  10.262  43.923   6.453
10520POPC   C2B69728  10.247  43.938   6.753
10520POPC   C3B69729  10.230  43.931   7.053
10520POPC   C4B69730  10.273  43.900   7.353
10521POPC   NC369731  12.120  28.358   5.553
10521POPC   PO469732  12.059  28.406   5.853
10521POPC   GL169733  12.032  28.404   6.153
10521POPC   GL269734  11.992  28.392   6.153
10521POPC   C1A69735  12.032  28.391   6.453
10521POPC   D2A69736  12.104  28.362   6.753
10521POPC   C3A69737  12.030  28.401   7.053
10521POPC   C4A69738  12.072  28.376   7.353
10521POPC   C1B69739  11.787  28.390   6.453
10521POPC   C2B69740  11.804  28.429   6.753
10521POPC   C3B69741  11.832  28.420   7.053
10521POPC   C4B69742  11.851  28.410   7.353
10522POPC   NC369743  11.305  17.492   5.553
10522POPC   PO469744  11.320  17.513   5.853
10522POPC   GL169745  11.263  17.523   6.153
10522POPC   GL269746  11.218  17.619   6.153
10522POPC   C1A69747  11.346  17.495   6.453
10522POPC   D2A69748  11.345  17.483   6.753
10522POPC   C3A69749  11.339  17.533   7.053
10522POPC   C4A69750  11.331  17.482   7.353
10522POPC   C1B69751  11.177  17.714   6.453
10522POPC   C2B69752  11.171  17.683   6.753
10522POPC   C3B69753  11.170  17.734   7.053
10522POPC   C4B69754  11.208  17.743   7.353
10523POPC   NC369755  12.865  22.144   5.553
10523POPC   PO469756  12.893  22.152   5.853
10523POPC   GL169757  12.840  22.135   6.153
10523POPC   GL269758  12.714  22.065   6.153
10523POPC   C1A69759  12.824  22.165   6.453
10523POPC   D2A69760  12.847  22.158   6.753
10523POPC   C3A69761  12.862  22.131   7.053
10523POPC   C4A69762  12.854  22.185   7.353
10523POPC   C1B69763  12.670  22.032   6.453
10523POPC   C2B69764  12.664  22.056   6.753
10523POPC   C3B69765  12.629  22.031   7.053
10523POPC   C4B69766  12.650  22.019   7.353
10524POPC   NC369767   6.654  43.889   5.553
10524POPC   PO469768   6.633  43.876   5.853
10524POPC   GL169769   6.656  43.918   6.153
10524POPC   GL269770   6.661  43.797   6.153
10524POPC   C1A69771   6.609  43.838   6.453
10524POPC   D2A69772   6.597  43.924   6.753
10524POPC   C3A69773   6.614  43.895   7.053
10524POPC   C4A69774   6.622  43.906   7.353
10524POPC   C1B69775   6.623  43.603   6.453
10524POPC   C2B69776   6.628  43.617   6.753
10524POPC   C3B69777   6.636  43.635   7.053
10524POPC   C4B69778   6.577  43.628   7.353
10525POPC   NC369779  33.752   4.367   5.553
10525POPC   PO469780  33.762   4.312   5.853
10525POPC   GL169781  33.838   4.319   6.153
10525POPC   GL269782  33.697   4.256   6.153
10525POPC   C1A69783  33.792   4.330   6.453
10525POPC   D2A69784  33.782   4.309   6.753
10525POPC   C3A69785  33.805   4.345   7.053
10525POPC   C4A69786  33.770   4.357   7.353
10525POPC   C1B69787  33.597   4.244   6.453
10525POPC   C2B69788  33.552   4.208   6.753
10525POPC   C3B69789  33.597   4.259   7.053
10525POPC   C4B69790  33.564   4.209   7.353
10526POPC   NC369791  31.501  32.227   5.553
10526POPC   PO469792  31.509  32.268   5.853
10526POPC   GL169793  31.453  32.261   6.153
10526POPC   GL269794  31.523  32.095   6.153
10526POPC   C1A69795  31.451  32.228   6.453
10526POPC   D2A69796  31.514  32.218   6.753
10526POPC   C3A69797  31.489  32.253   7.053
10526POPC   C4A69798  31.432  32.295   7.353
10526POPC   C1B69799  31.521  32.000   6.453
10526POPC   C2B69800  31.550  31.988   6.753
10526POPC   C3B69801  31.539  32.024   7.053
10526POPC   C4B69802  31.482  32.007   7.353
10527POPC   NC369803   6.629  15.162   5.553
10527POPC   PO469804   6.622  15.181   5.853
10527POPC   GL169805   6.642  15.156   6.153
10527POPC   GL269806   6.627  15.045   6.153
10527POPC   C1A69807   6.673  15.185   6.453
10527POPC   D2A69808   6.629  15.180   6.753
10527POPC   C3A69809   6.665  15.152   7.053
10527POPC   C4A69810   6.692  15.143   7.353
10527POPC   C1B69811   6.660  14.891   6.453
10527POPC   C2B69812   6.689  14.943   6.753
10527POPC   C3B69813   6.610  14.973   7.053
10527POPC   C4B69814   6.624  14.917   7.353
10528POPC   NC369815  35.318  38.410   5.553
10528POPC   PO469816  35.330  38.481   5.853
10528POPC   GL169817  35.343  38.497   6.153
10528POPC   GL269818  35.352  38.335   6.153
10528POPC   C1A69819  35.389  38.496   6.453
10528POPC   D2A69820  35.338  38.415   6.753
10528POPC   C3A69821  35.367  38.460   7.053
10528POPC   C4A69822  35.337  38.424   7.353
10528POPC   C1B69823  35.265  38.217   6.453
10528POPC   C2B69824  35.328  38.215   6.753
10528POPC   C3B69825  35.293  38.204   7.053
10528POPC   C4B69826  35.283  38.190   7.353
10529POPC   NC369827  26.069  32.225   5.553
10529POPC   PO469828  26.012  32.273   5.853
10529POPC   GL169829  26.029  32.274   6.153
10529POPC   GL269830  26.118  32.225   6.153
10529POPC   C1A69831  26.034  32.255   6.453
10529POPC   D2A69832  26.088  32.207   6.753
10529POPC   C3A69833  26.008  32.276   7.053
10529POPC   C4A69834  26.037  32.230   7.353
10529POPC   C1B69835  26.238  32.140   6.453
10529POPC   C2B69836  26.273  32.133   6.753
10529POPC   C3B69837  26.265  32.111   7.053
10529POPC   C4B69838  26.295  32.096   7.353
10530POPC   NC369839  22.951  43.146   5.553
10530POPC   PO469840  22.945  43.074   5.853
10530POPC   GL169841  22.962  43.159   6.153
10530POPC   GL269842  22.819  43.161   6.153
10530POPC   C1A69843  22.945  43.103   6.453
10530POPC   D2A69844  22.894  43.081   6.753
10530POPC   C3A69845  22.903  43.072   7.053
10530POPC   C4A69846  22.931  43.142   7.353
10530POPC   C1B69847  22.712  43.136   6.453
10530POPC   C2B69848  22.700  43.219   6.753
10530POPC   C3B69849  22.718  43.167   7.053
10530POPC   C4B69850  22.697  43.143   7.353
10531POPC   NC369851   2.032  40.046   5.553
10531POPC   PO469852   2.002  40.019   5.853
10531POPC   GL169853   1.986  40.037   6.153
10531POPC   GL269854   2.104  39.876   6.153
10531POPC   C1A69855   2.027  39.984   6.453
10531POPC   D2A69856   1.985  40.002   6.753
10531POPC   C3A69857   2.009  39.996   7.053
10531POPC   C4A69858   1.989  39.987   7.353
10531POPC   C1B69859   2.105  39.795   6.453
10531POPC   C2B69860   2.163  39.818   6.753
10531POPC   C3B69861   2.143  39.781   7.053
10531POPC   C4B69862   2.163  39.783   7.353
10532POPC   NC369863  15.943  44.630   5.553
10532POPC   PO469864  15.971  44.690   5.853
10532POPC   GL169865  15.948  44.671   6.153
10532POPC   GL269866  16.088  44.708   6.153
10532POPC   C1A69867  16.003  44.690   6.453
10532POPC   D2A69868  15.943  44.684   6.753
10532POPC   C3A69869  15.921  44.650   7.053
10532POPC   C4A69870  15.983  44.696   7.353
10532POPC   C1B69871  16.087  44.886   6.453
10532POPC   C2B69872  16.122  44.797   6.753
10532POPC   C3B69873  16.089  44.810   7.053
10532POPC   C4B69874  16.135  44.800   7.353
10533POPC   NC369875  36.123  17.548   5.553
10533POPC   PO469876  36.147  17.495   5.853
10533POPC   GL169877  36.133  17.482   6.153
10533POPC   GL269878  36.141  17.639   6.153
10533POPC   C1A69879  36.117  17.489   6.453
10533POPC   D2A69880  36.168  17.515   6.753
10533POPC   C3A69881  36.177  17.499   7.053
10533POPC   C4A69882  36.154  17.557   7.353
10533POPC   C1B69883  36.181  17.785   6.453
10533POPC   C2B69884  36.183  17.781   6.753
10533POPC   C3B69885  36.243  17.733   7.053
10533POPC   C4B69886  36.224  17.711   7.353
10534POPC   NC369887  43.869   2.798   5.553
10534POPC   PO469888  43.857   2.804   5.853
10534POPC   GL169889  43.857   2.735   6.153
10534POPC   GL269890  43.806   2.839   6.153
10534POPC   C1A69891  43.914   2.766   6.453
10534POPC   D2A69892  43.900   2.799   6.753
10534POPC   C3A69893  43.857   2.795   7.053
10534POPC   C4A69894  43.839   2.717   7.353
10534POPC   C1B69895  43.716   2.912   6.453
10534POPC   C2B69896  43.691   2.933   6.753
10534POPC   C3B69897  43.695   2.910   7.053
10534POPC   C4B69898  43.766   3.001   7.353
10535POPC   NC369899  40.057  34.527   5.553
10535POPC   PO469900  39.959  34.619   5.853
10535POPC   GL169901  39.958  34.554   6.153
10535POPC   GL269902  39.998  34.491   6.153
10535POPC   C1A69903  39.991  34.569   6.453
10535POPC   D2A69904  39.996  34.545   6.753
10535POPC   C3A69905  39.962  34.567   7.053
10535POPC   C4A69906  39.981  34.532   7.353
10535POPC   C1B69907  39.958  34.359   6.453
10535POPC   C2B69908  39.938  34.356   6.753
10535POPC   C3B69909  39.943  34.343   7.053
10535POPC   C4B69910  39.891  34.326   7.353
10536POPC   NC369911  26.829  15.162   5.553
10536POPC   PO469912  26.843  15.167   5.853
10536POPC   GL169913  26.835  15.145   6.153
10536POPC   GL269914  26.731  15.321   6.153
10536POPC   C1A69915  26.808  15.155   6.453
10536POPC   D2A69916  26.794  15.167   6.753
10536POPC   C3A69917  26.835  15.215   7.053
10536POPC   C4A69918  26.827  15.177   7.353
10536POPC   C1B69919  26.736  15.460   6.453
10536POPC   C2B69920  26.731  15.448   6.753
10536POPC   C3B69921  26.713  15.444   7.053
10536POPC   C4B69922  26.724  15.415   7.353
10537POPC   NC369923  38.430   5.838   5.553
10537POPC   PO469924  38.501   5.825   5.853
10537POPC   GL169925  38.496   5.831   6.153
10537POPC   GL269926  38.484   6.011   6.153
10537POPC   C1A69927  38.452   5.867   6.453
10537POPC   D2A69928  38.437   5.897   6.753
10537POPC   C3A69929  38.439   5.871   7.053
10537POPC   C4A69930  38.417   5.843   7.353
10537POPC   C1B69931  38.535   6.124   6.453
10537POPC   C2B69932  38.538   6.136   6.753
10537POPC   C3B69933  38.541   6.109   7.053
10537POPC   C4B69934  38.579   6.132   7.353
10538POPC   NC369935   0.454  41.607   5.553
10538POPC   PO469936   0.453  41.521   5.853
10538POPC   GL169937   0.445  41.534   6.153
10538POPC   GL269938   0.337  41.558   6.153
10538POPC   C1A69939   0.434  41.604   6.453
10538POPC   D2A69940   0.402  41.558   6.753
10538POPC   C3A69941   0.455  41.585   7.053
10538POPC   C4A69942   0.396  41.518   7.353
10538POPC   C1B69943   0.203  41.691   6.453
10538POPC   C2B69944   0.211  41.651   6.753
10538POPC   C3B69945   0.246  41.665   7.053
10538POPC   C4B69946   0.178  41.671   7.353
10539POPC   NC369947  35.390  34.575   5.553
10539POPC   PO469948  35.388  34.538   5.853
10539POPC   GL169949  35.308  34.571   6.153
10539POPC   GL269950  35.357  34.667   6.153
10539POPC   C1A69951  35.395  34.576   6.453
10539POPC   D2A69952  35.350  34.552   6.753
10539POPC   C3A69953  35.324  34.606   7.053
10539POPC   C4A69954  35.303  34.545   7.353
10539POPC   C1B69955  35.321  34.790   6.453
10539POPC   C2B69956  35.331  34.846   6.753
10539POPC   C3B69957  35.355  34.875   7.053
10539POPC   C4B69958  35.336  34.869   7.353
10540POPC   NC369959   5.825  13.646   5.553
10540POPC   PO469960   5.900  13.673   5.853
10540POPC   GL169961   5.860  13.667   6.153
10540POPC   GL269962   5.890  13.511   6.153
10540POPC   C1A69963   5.843  13.656   6.453
10540POPC   D2A69964   5.855  13.590   6.753
10540POPC   C3A69965   5.904  13.648   7.053
10540POPC   C4A69966   5.867  13.606   7.353
10540POPC   C1B69967   5.914  13.394   6.453
10540POPC   C2B69968   5.918  13.372   6.753
10540POPC   C3B69969   5.874  13.334   7.053
10540POPC   C4B69970   5.907  13.335   7.353
10541POPC   NC369971  15.200  18.316   5.553
10541POPC   PO469972  15.132  18.332   5.853
10541POPC   GL169973  15.149  18.317   6.153
10541POPC   GL269974  15.137  18.403   6.153
10541POPC   C1A69975  15.193  18.304   6.453
10541POPC   D2A69976  15.197  18.257   6.753
10541POPC   C3A69977  15.170  18.278   7.053
10541POPC   C4A69978  15.176  18.248   7.353
10541POPC   C1B69979  15.090  18.510   6.453
10541POPC   C2B69980  15.038  18.515   6.753
10541POPC   C3B69981  15.012  18.479   7.053
10541POPC   C4B69982  15.028  18.493   7.353
10542POPC   NC369983   5.903  29.111   5.553
10542POPC   PO469984   5.846  29.106   5.853
10542POPC   GL169985   5.903  29.117   6.153
10542POPC   GL269986   5.766  29.103   6.153
10542POPC   C1A69987   5.860  29.118   6.453
10542POPC   D2A69988   5.846  29.110   6.753
10542POPC   C3A69989   5.917  29.155   7.053
10542POPC   C4A69990   5.919  29.127   7.353
10542POPC   C1B69991   5.626  29.017   6.453
10542POPC   C2B69992   5.620  28.984   6.753
10542POPC   C3B69993   5.695  28.990   7.053
10542POPC   C4B69994   5.687  29.078   7.353
10543POPC   NC369995  19.832  19.069   5.553
10543POPC   PO469996  19.869  19.064   5.853
10543POPC   GL169997  19.882  19.090   6.153
10543POPC   GL269998  19.889  19.154   6.153
10543POPC   C1A69999  19.802  19.078   6.453
10543POPC   D2A70000  19.866  19.087   6.753
10543POPC   C3A70001  19.797  19.098   7.053
10543POPC   C4A70002  19.812  19.061   7.353
10543POPC   C1B70003  19.973  19.319   6.453
10543POPC   C2B70004  19.976  19.291   6.753
10543POPC   C3B70005  19.894  19.336   7.053
10543POPC   C4B70006  19.965  19.243   7.353
10544POPC   NC370007  32.283  25.277   5.553
10544POPC   PO470008  32.215  25.256   5.853
10544POPC   GL170009  32.287  25.218   6.153
10544POPC   GL270010  32.246  25.182   6.153
10544POPC   C1A70011  32.230  25.273   6.453
10544POPC   D2A70012  32.247  25.288   6.753
10544POPC   C3A70013  32.271  25.306   7.053
10544POPC   C4A70014  32.289  25.268   7.353
10544POPC   C1B70015  32.264  24.991   6.453
10544POPC   C2B70016  32.262  25.000   6.753
10544POPC   C3B70017  32.288  25.040   7.053
10544POPC   C4B70018  32.268  25.062   7.353
10545POPC   NC370019  19.103  19.104   5.553
10545POPC   PO470020  19.096  19.093   5.853
10545POPC   GL170021  19.041  19.016   6.153
10545POPC   GL270022  18.985  19.060   6.153
10545POPC   C1A70023  19.107  19.083   6.453
10545POPC   D2A70024  19.106  19.046   6.753
10545POPC   C3A70025  19.029  19.055   7.053
10545POPC   C4A70026  19.104  19.076   7.353
10545POPC   C1B70027  18.785  19.093   6.453
10545POPC   C2B70028  18.856  19.160   6.753
10545POPC   C3B70029  18.783  19.157   7.053
10545POPC   C4B70030  18.849  19.116   7.353
10546POPC   NC370031   7.371   7.406   5.553
10546POPC   PO470032   7.411   7.446   5.853
10546POPC   GL170033   7.416   7.414   6.153
10546POPC   GL270034   7.560   7.367   6.153
10546POPC   C1A70035   7.456   7.412   6.453
10546POPC   D2A70036   7.394   7.407   6.753
10546POPC   C3A70037   7.413   7.413   7.053
10546POPC   C4A70038   7.456   7.386   7.353
10546POPC   C1B70039   7.683   7.408   6.453
10546POPC   C2B70040   7.641   7.421   6.753
10546POPC   C3B70041   7.674   7.415   7.053
10546POPC   C4B70042   7.663   7.372   7.353
10547POPC   NC370043  43.935   4.271   5.553
10547POPC   PO470044  43.882   4.298   5.853
10547POPC   GL170045  43.936   4.346   6.153
10547POPC   GL270046  43.955   4.270   6.153
10547POPC   C1A70047  43.922   4.301   6.453
10547POPC   D2A70048  43.878   4.344   6.753
10547POPC   C3A70049  43.837   4.367   7.053
10547POPC   C4A70050  43.899   4.309   7.353
10547POPC   C1B70051  44.141   4.205   6.453
10547POPC   C2B70052  44.143   4.208   6.753
10547POPC   C3B70053  44.129   4.214   7.053
10547POPC   C4B70054  44.118   4.231   7.353
10548POPC   NC370055  25.298  12.857   5.553
10548POPC   PO470056  25.262  12.824   5.853
10548POPC   GL170057  25.259  12.836   6.153
10548POPC   GL270058  25.368  12.945   6.153
10548POPC   C1A70059  25.296  12.830   6.453
10548POPC   D2A70060  25.292  12.897   6.753
10548POPC   C3A70061  25.232  12.822   7.053
10548POPC   C4A70062  25.304  12.877   7.353
10548POPC   C1B70063  25.504  13.035   6.453
10548POPC   C2B70064  25.449  12.976   6.753
10548POPC   C3B70065  25.510  12.983   7.053
10548POPC   C4B70066  25.459  12.977   7.353
10549POPC   NC370067  25.294   3.521   5.553
10549POPC   PO470068  25.277   3.526   5.853
10549POPC   GL170069  25.236   3.588   6.153
10549POPC   GL270070  25.384   3.589   6.153
10549POPC   C1A70071  25.272   3.565   6.453
10549POPC   D2A70072  25.258   3.586   6.753
10549POPC   C3A70073  25.223   3.493   7.053
10549POPC   C4A70074  25.287   3.570   7.353
10549POPC   C1B70075  25.470   3.666   6.453
10549POPC   C2B70076  25.425   3.748   6.753
10549POPC   C3B70077  25.488   3.667   7.053
10549POPC   C4B70078  25.489   3.669   7.353
10550POPC   NC370079   5.055  41.600   5.553
10550POPC   PO470080   5.127  41.557   5.853
10550POPC   GL170081   5.135  41.600   6.153
10550POPC   GL270082   5.081  41.693   6.153
10550POPC   C1A70083   5.119  41.583   6.453
10550POPC   D2A70084   5.061  41.573   6.753
10550POPC   C3A70085   5.102  41.599   7.053
10550POPC   C4A70086   5.095  41.556   7.353
10550POPC   C1B70087   5.096  41.810   6.453
10550POPC   C2B70088   5.190  41.803   6.753
10550POPC   C3B70089   5.105  41.790   7.053
10550POPC   C4B70090   5.150  41.773   7.353
10551POPC   NC370091  19.813  36.880   5.553
10551POPC   PO470092  19.785  36.920   5.853
10551POPC   GL170093  19.798  36.918   6.153
10551POPC   GL270094  19.715  36.810   6.153
10551POPC   C1A70095  19.875  36.953   6.453
10551POPC   D2A70096  19.866  36.871   6.753
10551POPC   C3A70097  19.843  36.920   7.053
10551POPC   C4A70098  19.829  36.880   7.353
10551POPC   C1B70099  19.707  36.750   6.453
10551POPC   C2B70100  19.662  36.754   6.753
10551POPC   C3B70101  19.694  36.662   7.053
10551POPC   C4B70102  19.706  36.693   7.353
10552POPC   NC370103   8.974  22.942   5.553
10552POPC   PO470104   9.022  22.966   5.853
10552POPC   GL170105   9.018  22.964   6.153
10552POPC   GL270106   8.872  22.939   6.153
10552POPC   C1A70107   8.966  22.924   6.453
10552POPC   D2A70108   8.982  22.977   6.753
10552POPC   C3A70109   8.963  22.914   7.053
10552POPC   C4A70110   9.022  22.945   7.353
10552POPC   C1B70111   8.748  22.863   6.453
10552POPC   C2B70112   8.683  22.878   6.753
10552POPC   C3B70113   8.765  22.909   7.053
10552POPC   C4B70114   8.714  22.907   7.353
10553POPC   NC370115  39.193   5.861   5.553
10553POPC   PO470116  39.240   5.888   5.853
10553POPC   GL170117  39.248   5.875   6.153
10553POPC   GL270118  39.153   5.896   6.153
10553POPC   C1A70119  39.206   5.834   6.453
10553POPC   D2A70120  39.276   5.916   6.753
10553POPC   C3A70121  39.184   5.833   7.053
10553POPC   C4A70122  39.210   5.854   7.353
10553POPC   C1B70123  39.010   5.843   6.453
10553POPC   C2B70124  38.997   5.810   6.753
10553POPC   C3B70125  38.944   5.899   7.053
10553POPC   C4B70126  38.976   5.823   7.353
10554POPC   NC370127  11.264  12.808   5.553
10554POPC   PO470128  11.329  12.833   5.853
10554POPC   GL170129  11.299  12.833   6.153
10554POPC   GL270130  11.260  12.944   6.153
10554POPC   C1A70131  11.345  12.814   6.453
10554POPC   D2A70132  11.288  12.806   6.753
10554POPC   C3A70133  11.252  12.865   7.053
10554POPC   C4A70134  11.258  12.866   7.353
10554POPC   C1B70135  11.208  13.045   6.453
10554POPC   C2B70136  11.196  13.087   6.753
10554POPC   C3B70137  11.193  13.076   7.053
10554POPC   C4B70138  11.201  13.057   7.353
10555POPC   NC370139   9.749  20.621   5.553
10555POPC   PO470140   9.716  20.588   5.853
10555POPC   GL170141   9.796  20.573   6.153
10555POPC   GL270142   9.826  20.680   6.153
10555POPC   C1A70143   9.739  20.587   6.453
10555POPC   D2A70144   9.778  20.616   6.753
10555POPC   C3A70145   9.761  20.653   7.053
10555POPC   C4A70146   9.747  20.564   7.353
10555POPC   C1B70147   9.988  20.698   6.453
10555POPC   C2B70148   9.997  20.683   6.753
10555POPC   C3B70149   9.986  20.695   7.053
10555POPC   C4B70150   9.986  20.691   7.353
10556POPC   NC370151   8.990  43.132   5.553
10556POPC   PO470152   8.966  43.148   5.853
10556POPC   GL170153   8.937  43.152   6.153
10556POPC   GL270154   8.885  42.995   6.153
10556POPC   C1A70155   8.978  43.150   6.453
10556POPC   D2A70156   8.962  43.093   6.753
10556POPC   C3A70157   8.952  43.094   7.053
10556POPC   C4A70158   8.940  43.102   7.353
10556POPC   C1B70159   8.860  42.921   6.453
10556POPC   C2B70160   8.823  42.896   6.753
10556POPC   C3B70161   8.872  42.886   7.053
10556POPC   C4B70162   8.868  42.878   7.353
10557POPC   NC370163  40.052  33.051   5.553
10557POPC   PO470164  40.055  33.055   5.853
10557POPC   GL170165  40.020  33.031   6.153
10557POPC   GL270166  40.016  33.145   6.153
10557POPC   C1A70167  39.991  33.027   6.453
10557POPC   D2A70168  40.044  33.028   6.753
10557POPC   C3A70169  39.991  33.069   7.053
10557POPC   C4A70170  40.041  33.038   7.353
10557POPC   C1B70171  40.043  33.279   6.453
10557POPC   C2B70172  40.031  33.292   6.753
10557POPC   C3B70173  40.055  33.246   7.053
10557POPC   C4B70174  40.040  33.268   7.353
10558POPC   NC370175   5.054  10.524   5.553
10558POPC   PO470176   5.105  10.507   5.853
10558POPC   GL170177   5.066  10.520   6.153
10558POPC   GL270178   5.151  10.639   6.153
10558POPC   C1A70179   5.128  10.481   6.453
10558POPC   D2A70180   5.102  10.476   6.753
10558POPC   C3A70181   5.115  10.555   7.053
10558POPC   C4A70182   5.119  10.491   7.353
10558POPC   C1B70183   5.258  10.757   6.453
10558POPC   C2B70184   5.235  10.705   6.753
10558POPC   C3B70185   5.243  10.714   7.053
10558POPC   C4B70186   5.208  10.760   7.353
10559POPC   NC370187  36.148  32.997   5.553
10559POPC   PO470188  36.116  33.038   5.853
10559POPC   GL170189  36.083  32.995   6.153
10559POPC   GL270190  36.130  33.156   6.153
10559POPC   C1A70191  36.119  33.067   6.453
10559POPC   D2A70192  36.161  33.024   6.753
10559POPC   C3A70193  36.171  33.052   7.053
10559POPC   C4A70194  36.104  33.007   7.353
10559POPC   C1B70195  36.187  33.229   6.453
10559POPC   C2B70196  36.196  33.253   6.753
10559POPC   C3B70197  36.170  33.319   7.053
10559POPC   C4B70198  36.183  33.272   7.353
10560POPC   NC370199   7.413  30.741   5.553
10560POPC   PO470200   7.423  30.737   5.853
10560POPC   GL170201   7.430  30.700   6.153
10560POPC   GL270202   7.262  30.648   6.153
10560POPC   C1A70203   7.426  30.667   6.453
10560POPC   D2A70204   7.380  30.718   6.753
10560POPC   C3A70205   7.408  30.722   7.053
10560POPC   C4A70206   7.467  30.716   7.353
10560POPC   C1B70207   7.225  30.609   6.453
10560POPC   C2B70208   7.241  30.611   6.753
10560POPC   C3B70209   7.182  30.582   7.053
10560POPC   C4B70210   7.166  30.548   7.353
10561POPC   NC370211  33.827  15.187   5.553
10561POPC   PO470212  33.757  15.130   5.853
10561POPC   GL170213  33.763  15.171   6.153
10561POPC   GL270214  33.952  15.114   6.153
10561POPC   C1A70215  33.819  15.153   6.453
10561POPC   D2A70216  33.804  15.197   6.753
10561POPC   C3A70217  33.772  15.210   7.053
10561POPC   C4A70218  33.797  15.140   7.353
10561POPC   C1B70219  34.046  15.043   6.453
10561POPC   C2B70220  34.023  15.071   6.753
10561POPC   C3B70221  34.050  15.055   7.053
10561POPC   C4B70222  34.024  15.009   7.353
10562POPC   NC370223  14.397   4.340   5.553
10562POPC   PO470224  14.378   4.282   5.853
10562POPC   GL170225  14.407   4.339   6.153
10562POPC   GL270226  14.560   4.370   6.153
10562POPC   C1A70227  14.425   4.362   6.453
10562POPC   D2A70228  14.370   4.354   6.753
10562POPC   C3A70229  14.406   4.281   7.053
10562POPC   C4A70230  14.425   4.342   7.353
10562POPC   C1B70231  14.668   4.363   6.453
10562POPC   C2B70232  14.667   4.431   6.753
10562POPC   C3B70233  14.602   4.363   7.053
10562POPC   C4B70234  14.683   4.411   7.353
10563POPC   NC370235  29.145  23.727   5.553
10563POPC   PO470236  29.185  23.759   5.853
10563POPC   GL170237  29.125  23.680   6.153
10563POPC   GL270238  29.215  23.655   6.153
10563POPC   C1A70239  29.133  23.691   6.453
10563POPC   D2A70240  29.166  23.699   6.753
10563POPC   C3A70241  29.176  23.752   7.053
10563POPC   C4A70242  29.164  23.668   7.353
10563POPC   C1B70243  29.251  23.552   6.453
10563POPC   C2B70244  29.335  23.463   6.753
10563POPC   C3B70245  29.282  23.544   7.053
10563POPC   C4B70246  29.302  23.488   7.353
10564POPC   NC370247  19.083  38.498   5.553
10564POPC   PO470248  19.045  38.433   5.853
10564POPC   GL170249  19.088  38.500   6.153
10564POPC   GL270250  18.916  38.472   6.153
10564POPC   C1A70251  19.016  38.452   6.453
10564POPC   D2A70252  19.089  38.421   6.753
10564POPC   C3A70253  19.104  38.416   7.053
10564POPC   C4A70254  19.094  38.435   7.353
10564POPC   C1B70255  18.763  38.533   6.453
10564POPC   C2B70256  18.810  38.462   6.753
10564POPC   C3B70257  18.846  38.501   7.053
10564POPC   C4B70258  18.818  38.510   7.353
10565POPC   NC370259  38.446  27.638   5.553
10565POPC   PO470260  38.491  27.557   5.853
10565POPC   GL170261  38.453  27.641   6.153
10565POPC   GL270262  38.587  27.625   6.153
10565POPC   C1A70263  38.472  27.597   6.453
10565POPC   D2A70264  38.459  27.621   6.753
10565POPC   C3A70265  38.479  27.605   7.053
10565POPC   C4A70266  38.442  27.590   7.353
10565POPC   C1B70267  38.659  27.780   6.453
10565POPC   C2B70268  38.673  27.728   6.753
10565POPC   C3B70269  38.668  27.717   7.053
10565POPC   C4B70270  38.662  27.752   7.353
10566POPC   NC370271  26.056  43.080   5.553
10566POPC   PO470272  26.011  43.133   5.853
10566POPC   GL170273  26.033  43.099   6.153
10566POPC   GL270274  26.022  43.194   6.153
10566POPC   C1A70275  26.025  43.138   6.453
10566POPC   D2A70276  26.019  43.109   6.753
10566POPC   C3A70277  26.067  43.130   7.053
10566POPC   C4A70278  25.994  43.117   7.353
10566POPC   C1B70279  26.014  43.311   6.453
10566POPC   C2B70280  26.011  43.359   6.753
10566POPC   C3B70281  26.061  43.344   7.053
10566POPC   C4B70282  26.072  43.399   7.353
10567POPC   NC370283  44.629  38.464   5.553
10567POPC   PO470284  44.620  38.460   5.853
10567POPC   GL170285  44.654  38.477   6.153
10567POPC   GL270286  44.766  38.320   6.153
10567POPC   C1A70287  44.631  38.433   6.453
10567POPC   D2A70288  44.707  38.501   6.753
10567POPC   C3A70289  44.711  38.407   7.053
10567POPC   C4A70290  44.651  38.425   7.353
10567POPC   C1B70291  44.840  38.288   6.453
10567POPC   C2B70292  44.774  38.272   6.753
10567POPC   C3B70293  44.761  38.232   7.053
10567POPC   C4B70294  44.812  38.215   7.353
10568POPC   NC370295  18.247  33.068   5.553
10568POPC   PO470296  18.326  33.065   5.853
10568POPC   GL170297  18.256  32.986   6.153
10568POPC   GL270298  18.427  33.082   6.153
10568POPC   C1A70299  18.298  33.001   6.453
10568POPC   D2A70300  18.274  33.011   6.753
10568POPC   C3A70301  18.238  33.044   7.053
10568POPC   C4A70302  18.281  33.008   7.353
10568POPC   C1B70303  18.516  33.101   6.453
10568POPC   C2B70304  18.516  33.107   6.753
10568POPC   C3B70305  18.485  33.149   7.053
10568POPC   C4B70306  18.487  33.151   7.353
10569POPC   NC370307  36.918  22.159   5.553
10569POPC   PO470308  36.943  22.138   5.853
10569POPC   GL170309  36.855  22.126   6.153
10569POPC   GL270310  36.841  22.048   6.153
10569POPC   C1A70311  36.891  22.138   6.453
10569POPC   D2A70312  36.920  22.200   6.753
10569POPC   C3A70313  36.904  22.174   7.053
10569POPC   C4A70314  36.903  22.193   7.353
10569POPC   C1B70315  36.784  21.954   6.453
10569POPC   C2B70316  36.828  21.955   6.753
10569POPC   C3B70317  36.842  21.896   7.053
10569POPC   C4B70318  36.803  21.977   7.353
10570POPC   NC370319  29.921   5.096   5.553
10570POPC   PO470320  29.875   5.106   5.853
10570POPC   GL170321  29.965   5.055   6.153
10570POPC   GL270322  29.846   4.972   6.153
10570POPC   C1A70323  29.872   5.057   6.453
10570POPC   D2A70324  29.927   5.136   6.753
10570POPC   C3A70325  29.874   5.113   7.053
10570POPC   C4A70326  29.934   5.097   7.353
10570POPC   C1B70327  29.785   4.868   6.453
10570POPC   C2B70328  29.822   4.820   6.753
10570POPC   C3B70329  29.840   4.862   7.053
10570POPC   C4B70330  29.859   4.834   7.353
10571POPC   NC370331  35.312  14.365   5.553
10571POPC   PO470332  35.340  14.390   5.853
10571POPC   GL170333  35.320  14.410   6.153
10571POPC   GL270334  35.389  14.324   6.153
10571POPC   C1A70335  35.319  14.385   6.453
10571POPC   D2A70336  35.362  14.431   6.753
10571POPC   C3A70337  35.374  14.401   7.053
10571POPC   C4A70338  35.307  14.437   7.353
10571POPC   C1B70339  35.499  14.219   6.453
10571POPC   C2B70340  35.492  14.226   6.753
10571POPC   C3B70341  35.462  14.247   7.053
10571POPC   C4B70342  35.539  14.159   7.353
10572POPC   NC370343  38.422  35.364   5.553
10572POPC   PO470344  38.475  35.365   5.853
10572POPC   GL170345  38.488  35.374   6.153
10572POPC   GL270346  38.554  35.220   6.153
10572POPC   C1A70347  38.484  35.386   6.453
10572POPC   D2A70348  38.440  35.314   6.753
10572POPC   C3A70349  38.421  35.304   7.053
10572POPC   C4A70350  38.451  35.310   7.353
10572POPC   C1B70351  38.603  35.222   6.453
10572POPC   C2B70352  38.597  35.137   6.753
10572POPC   C3B70353  38.686  35.148   7.053
10572POPC   C4B70354  38.672  35.137   7.353
10573POPC   NC370355  28.336  37.632   5.553
10573POPC   PO470356  28.377  37.644   5.853
10573POPC   GL170357  28.408  37.635   6.153
10573POPC   GL270358  28.204  37.756   6.153
10573POPC   C1A70359  28.323  37.638   6.453
10573POPC   D2A70360  28.389  37.669   6.753
10573POPC   C3A70361  28.324  37.701   7.053
10573POPC   C4A70362  28.416  37.710   7.353
10573POPC   C1B70363  28.168  37.788   6.453
10573POPC   C2B70364  28.156  37.727   6.753
10573POPC   C3B70365  28.095  37.770   7.053
10573POPC   C4B70366  28.174  37.768   7.353
10574POPC   NC370367  25.248  18.319   5.553
10574POPC   PO470368  25.300  18.290   5.853
10574POPC   GL170369  25.254  18.283   6.153
10574POPC   GL270370  25.397  18.267   6.153
10574POPC   C1A70371  25.236  18.281   6.453
10574POPC   D2A70372  25.237  18.255   6.753
10574POPC   C3A70373  25.266  18.244   7.053
10574POPC   C4A70374  25.267  18.292   7.353
10574POPC   C1B70375  25.442  18.145   6.453
10574POPC   C2B70376  25.532  18.202   6.753
10574POPC   C3B70377  25.495  18.160   7.053
10574POPC   C4B70378  25.470  18.145   7.353
10575POPC   NC370379  15.167  23.678   5.553
10575POPC   PO470380  15.172  23.698   5.853
10575POPC   GL170381  15.140  23.732   6.153
10575POPC   GL270382  15.101  23.756   6.153
10575POPC   C1A70383  15.137  23.729   6.453
10575POPC   D2A70384  15.229  23.758   6.753
10575POPC   C3A70385  15.202  23.694   7.053
10575POPC   C4A70386  15.149  23.697   7.353
10575POPC   C1B70387  14.987  23.847   6.453
10575POPC   C2B70388  14.916  23.766   6.753
10575POPC   C3B70389  14.947  23.797   7.053
10575POPC   C4B70390  14.998  23.861   7.353
10576POPC   NC370391   0.422  17.480   5.553
10576POPC   PO470392   0.485  17.479   5.853
10576POPC   GL170393   0.397  17.489   6.153
10576POPC   GL270394   0.270  17.498   6.153
10576POPC   C1A70395   0.431  17.492   6.453
10576POPC   D2A70396   0.427  17.516   6.753
10576POPC   C3A70397   0.448  17.492   7.053
10576POPC   C4A70398   0.477  17.482   7.353
10576POPC   C1B70399   0.217  17.414   6.453
10576POPC   C2B70400   0.158  17.468   6.753
10576POPC   C3B70401   0.149  17.462   7.053
10576POPC   C4B70402   0.211  17.415   7.353
10577POPC   NC370403  16.731  24.456   5.553
10577POPC   PO470404  16.763  24.463   5.853
10577POPC   GL170405  16.754  24.515   6.153
10577POPC   GL270406  16.705  24.562   6.153
10577POPC   C1A70407  16.741  24.492   6.453
10577POPC   D2A70408  16.731  24.539   6.753
10577POPC   C3A70409  16.689  24.446   7.053
10577POPC   C4A70410  16.682  24.455   7.353
10577POPC   C1B70411  16.551  24.699   6.453
10577POPC   C2B70412  16.613  24.654   6.753
10577POPC   C3B70413  16.581  24.648   7.053
10577POPC   C4B70414  16.580  24.730   7.353
10578POPC   NC370415   6.658  29.178   5.553
10578POPC   PO470416   6.688  29.156   5.853
10578POPC   GL170417   6.665  29.173   6.153
10578POPC   GL270418   6.565  29.032   6.153
10578POPC   C1A70419   6.671  29.133   6.453
10578POPC   D2A70420   6.682  29.157   6.753
10578POPC   C3A70421   6.682  29.136   7.053
10578POPC   C4A70422   6.622  29.143   7.353
10578POPC   C1B70423   6.510  28.885   6.453
10578POPC   C2B70424   6.477  28.960   6.753
10578POPC   C3B70425   6.542  28.917   7.053
10578POPC   C4B70426   6.514  28.981   7.353
10579POPC   NC370427  28.416  12.120   5.553
10579POPC   PO470428  28.336  12.072   5.853
10579POPC   GL170429  28.408  12.040   6.153
10579POPC   GL270430  28.406  12.150   6.153
10579POPC   C1A70431  28.359  12.066   6.453
10579POPC   D2A70432  28.393  12.037   6.753
10579POPC   C3A70433  28.330  12.123   7.053
10579POPC   C4A70434  28.344  12.040   7.353
10579POPC   C1B70435  28.499  12.272   6.453
10579POPC   C2B70436  28.447  12.307   6.753
10579POPC   C3B70437  28.465  12.311   7.053
10579POPC   C4B70438  28.457  12.276   7.353
10580POPC   NC370439  34.570  43.097   5.553
10580POPC   PO470440  34.531  43.148   5.853
10580POPC   GL170441  34.539  43.084   6.153
10580POPC   GL270442  34.692  43.151   6.153
10580POPC   C1A70443  34.585  43.066   6.453
10580POPC   D2A70444  34.570  43.114   6.753
10580POPC   C3A70445  34.596  43.142   7.053
10580POPC   C4A70446  34.607  43.084   7.353
10580POPC   C1B70447  34.801  43.288   6.453
10580POPC   C2B70448  34.743  43.214   6.753
10580POPC   C3B70449  34.758  43.291   7.053
10580POPC   C4B70450  34.762  43.256   7.353
10581POPC   NC370451  44.709   9.763   5.553
10581POPC   PO470452  44.677   9.757   5.853
10581POPC   GL170453  44.650   9.771   6.153
10581POPC   GL270454  44.780   9.816   6.153
10581POPC   C1A70455  44.630   9.787   6.453
10581POPC   D2A70456  44.673   9.753   6.753
10581POPC   C3A70457  44.644   9.702   7.053
10581POPC   C4A70458  44.654   9.790   7.353
10581POPC   C1B70459  44.917   9.763   6.453
10581POPC   C2B70460  44.862   9.811   6.753
10581POPC   C3B70461  44.882   9.778   7.053
10581POPC   C4B70462  44.859   9.814   7.353
10582POPC   NC370463  39.196  41.589   5.553
10582POPC   PO470464  39.270  41.541   5.853
10582POPC   GL170465  39.221  41.557   6.153
10582POPC   GL270466  39.278  41.630   6.153
10582POPC   C1A70467  39.215  41.582   6.453
10582POPC   D2A70468  39.246  41.608   6.753
10582POPC   C3A70469  39.264  41.543   7.053
10582POPC   C4A70470  39.238  41.556   7.353
10582POPC   C1B70471  39.358  41.772   6.453
10582POPC   C2B70472  39.379  41.726   6.753
10582POPC   C3B70473  39.367  41.780   7.053
10582POPC   C4B70474  39.405  41.726   7.353
10583POPC   NC370475   0.444   5.838   5.553
10583POPC   PO470476   0.431   5.826   5.853
10583POPC   GL170477   0.450   5.911   6.153
10583POPC   GL270478   0.375   5.960   6.153
10583POPC   C1A70479   0.392   5.898   6.453
10583POPC   D2A70480   0.442   5.890   6.753
10583POPC   C3A70481   0.469   5.872   7.053
10583POPC   C4A70482   0.461   5.822   7.353
10583POPC   C1B70483   0.252   6.081   6.453
10583POPC   C2B70484   0.269   5.992   6.753
10583POPC   C3B70485   0.286   6.007   7.053
10583POPC   C4B70486   0.257   6.043   7.353
10584POPC   NC370487  36.139  13.630   5.553
10584POPC   PO470488  36.092  13.661   5.853
10584POPC   GL170489  36.167  13.592   6.153
10584POPC   GL270490  36.155  13.756   6.153
10584POPC   C1A70491  36.161  13.675   6.453
10584POPC   D2A70492  36.140  13.643   6.753
10584POPC   C3A70493  36.111  13.596   7.053
10584POPC   C4A70494  36.163  13.677   7.353
10584POPC   C1B70495  36.185  13.869   6.453
10584POPC   C2B70496  36.177  13.862   6.753
10584POPC   C3B70497  36.219  13.890   7.053
10584POPC   C4B70498  36.210  13.838   7.353
10585POPC   NC370499   8.941  32.235   5.553
10585POPC   PO470500   8.925  32.217   5.853
10585POPC   GL170501   9.010  32.255   6.153
10585POPC   GL270502   8.917  32.164   6.153
10585POPC   C1A70503   8.970  32.284   6.453
10585POPC   D2A70504   8.937  32.297   6.753
10585POPC   C3A70505   9.008  32.262   7.053
10585POPC   C4A70506   8.948  32.295   7.353
10585POPC   C1B70507   8.818  32.068   6.453
10585POPC   C2B70508   8.730  32.128   6.753
10585POPC   C3B70509   8.757  32.143   7.053
10585POPC   C4B70510   8.819  32.070   7.353
10586POPC   NC370511  40.783   5.117   5.553
10586POPC   PO470512  40.783   5.078   5.853
10586POPC   GL170513  40.775   5.076   6.153
10586POPC   GL270514  40.659   5.121   6.153
10586POPC   C1A70515  40.821   5.082   6.453
10586POPC   D2A70516  40.751   5.069   6.753
10586POPC   C3A70517  40.773   5.074   7.053
10586POPC   C4A70518  40.822   5.127   7.353
10586POPC   C1B70519  40.528   5.109   6.453
10586POPC   C2B70520  40.554   5.103   6.753
10586POPC   C3B70521  40.554   5.118   7.053
10586POPC   C4B70522  40.545   5.114   7.353
10587POPC   NC370523  42.288   2.790   5.553
10587POPC   PO470524  42.332   2.805   5.853
10587POPC   GL170525  42.362   2.749   6.153
10587POPC   GL270526  42.395   2.886   6.153
10587POPC   C1A70527  42.290   2.770   6.453
10587POPC   D2A70528  42.338   2.807   6.753
10587POPC   C3A70529  42.331   2.726   7.053
10587POPC   C4A70530  42.360   2.721   7.353
10587POPC   C1B70531  42.531   2.938   6.453
10587POPC   C2B70532  42.570   2.947   6.753
10587POPC   C3B70533  42.477   2.944   7.053
10587POPC   C4B70534  42.563   2.881   7.353
10588POPC   NC370535  30.722  24.467   5.553
10588POPC   PO470536  30.683  24.456   5.853
10588POPC   GL170537  30.741  24.475   6.153
10588POPC   GL270538  30.785  24.576   6.153
10588POPC   C1A70539  30.706  24.451   6.453
10588POPC   D2A70540  30.706  24.493   6.753
10588POPC   C3A70541  30.682  24.494   7.053
10588POPC   C4A70542  30.662  24.464   7.353
10588POPC   C1B70543  30.790  24.757   6.453
10588POPC   C2B70544  30.809  24.708   6.753
10588POPC   C3B70545  30.743  24.679   7.053
10588POPC   C4B70546  30.746  24.685   7.353
10589POPC   NC370547  17.486  11.278   5.553
10589POPC   PO470548  17.474  11.282   5.853
10589POPC   GL170549  17.498  11.277   6.153
10589POPC   GL270550  17.351  11.290   6.153
10589POPC   C1A70551  17.493  11.302   6.453
10589POPC   D2A70552  17.516  11.268   6.753
10589POPC   C3A70553  17.481  11.302   7.053
10589POPC   C4A70554  17.535  11.285   7.353
10589POPC   C1B70555  17.287  11.223   6.453
10589POPC   C2B70556  17.236  11.218   6.753
10589POPC   C3B70557  17.274  11.190   7.053
10589POPC   C4B70558  17.275  11.177   7.353
10590POPC   NC370559   0.482   7.444   5.553
10590POPC   PO470560   0.476   7.414   5.853
10590POPC   GL170561   0.391   7.395   6.153
10590POPC   GL270562   0.368   7.519   6.153
10590POPC   C1A70563   0.398   7.403   6.453
10590POPC   D2A70564   0.436   7.392   6.753
10590POPC   C3A70565   0.428   7.419   7.053
10590POPC   C4A70566   0.388   7.465   7.353
10590POPC   C1B70567   0.364   7.613   6.453
10590POPC   C2B70568   0.269   7.636   6.753
10590POPC   C3B70569   0.320   7.642   7.053
10590POPC   C4B70570   0.274   7.663   7.353
10591POPC   NC370571  43.905   7.457   5.553
10591POPC   PO470572  43.933   7.446   5.853
10591POPC   GL170573  43.916   7.415   6.153
10591POPC   GL270574  43.938   7.308   6.153
10591POPC   C1A70575  43.871   7.422   6.453
10591POPC   D2A70576  43.900   7.466   6.753
10591POPC   C3A70577  43.868   7.442   7.053
10591POPC   C4A70578  43.866   7.468   7.353
10591POPC   C1B70579  44.092   7.259   6.453
10591POPC   C2B70580  44.037   7.183   6.753
10591POPC   C3B70581  44.032   7.185   7.053
10591POPC   C4B70582  44.079   7.227   7.353
10592POPC   NC370583  19.089   9.741   5.553
10592POPC   PO470584  19.096   9.756   5.853
10592POPC   GL170585  19.043   9.787   6.153
10592POPC   GL270586  18.991   9.631   6.153
10592POPC   C1A70587  19.068   9.791   6.453
10592POPC   D2A70588  19.045   9.755   6.753
10592POPC   C3A70589  19.014   9.747   7.053
10592POPC   C4A70590  19.047   9.752   7.353
10592POPC   C1B70591  18.926   9.522   6.453
10592POPC   C2B70592  18.951   9.499   6.753
10592POPC   C3B70593  18.891   9.533   7.053
10592POPC   C4B70594  18.916   9.486   7.353
10593POPC   NC370595  40.816  28.413   5.553
10593POPC   PO470596  40.748  28.326   5.853
10593POPC   GL170597  40.739  28.417   6.153
10593POPC   GL270598  40.881  28.490   6.153
10593POPC   C1A70599  40.767  28.410   6.453
10593POPC   D2A70600  40.832  28.322   6.753
10593POPC   C3A70601  40.739  28.347   7.053
10593POPC   C4A70602  40.794  28.330   7.353
10593POPC   C1B70603  40.909  28.551   6.453
10593POPC   C2B70604  40.942  28.585   6.753
10593POPC   C3B70605  40.971  28.602   7.053
10593POPC   C4B70606  40.962  28.576   7.353
10594POPC   NC370607  43.069  34.580   5.553
10594POPC   PO470608  43.101  34.533   5.853
10594POPC   GL170609  43.091  34.592   6.153
10594POPC   GL270610  43.235  34.506   6.153
10594POPC   C1A70611  43.150  34.549   6.453
10594POPC   D2A70612  43.144  34.584   6.753
10594POPC   C3A70613  43.110  34.602   7.053
10594POPC   C4A70614  43.094  34.581   7.353
10594POPC   C1B70615  43.290  34.425   6.453
10594POPC   C2B70616  43.313  34.435   6.753
10594POPC   C3B70617  43.267  34.455   7.053
10594POPC   C4B70618  43.281  34.442   7.353
10595POPC   NC370619  21.358  34.587   5.553
10595POPC   PO470620  21.362  34.604   5.853
10595POPC   GL170621  21.345  34.568   6.153
10595POPC   GL270622  21.527  34.601   6.153
10595POPC   C1A70623  21.364  34.602   6.453
10595POPC   D2A70624  21.344  34.568   6.753
10595POPC   C3A70625  21.433  34.600   7.053
10595POPC   C4A70626  21.424  34.573   7.353
10595POPC   C1B70627  21.650  34.600   6.453
10595POPC   C2B70628  21.645  34.607   6.753
10595POPC   C3B70629  21.589  34.578   7.053
10595POPC   C4B70630  21.600  34.613   7.353
10596POPC   NC370631  36.098  15.963   5.553
10596POPC   PO470632  36.118  15.947   5.853
10596POPC   GL170633  36.174  15.973   6.153
10596POPC   GL270634  35.992  16.074   6.153
10596POPC   C1A70635  36.085  15.974   6.453
10596POPC   D2A70636  36.173  15.953   6.753
10596POPC   C3A70637  36.104  15.928   7.053
10596POPC   C4A70638  36.123  15.941   7.353
10596POPC   C1B70639  35.967  16.052   6.453
10596POPC   C2B70640  35.923  16.063   6.753
10596POPC   C3B70641  35.920  16.092   7.053
10596POPC   C4B70642  35.925  16.128   7.353
10597POPC   NC370643  14.452  43.844   5.553
10597POPC   PO470644  14.405  43.886   5.853
10597POPC   GL170645  14.445  43.893   6.153
10597POPC   GL270646  14.371  44.059   6.153
10597POPC   C1A70647  14.394  43.841   6.453
10597POPC   D2A70648  14.396  43.885   6.753
10597POPC   C3A70649  14.370  43.873   7.053
10597POPC   C4A70650  14.447  43.884   7.353
10597POPC   C1B70651  14.422  44.090   6.453
10597POPC   C2B70652  14.418  44.105   6.753
10597POPC   C3B70653  14.411  44.177   7.053
10597POPC   C4B70654  14.365  44.179   7.353
10598POPC   NC370655  13.673   0.430   5.553
10598POPC   PO470656  13.665   0.458   5.853
10598POPC   GL170657  13.658   0.458   6.153
10598POPC   GL270658  13.564   0.575   6.153
10598POPC   C1A70659  13.642   0.406   6.453
10598POPC   D2A70660  13.580   0.481   6.753
10598POPC   C3A70661  13.661   0.467   7.053
10598POPC   C4A70662  13.669   0.391   7.353
10598POPC   C1B70663  13.611   0.656   6.453
10598POPC   C2B70664  13.553   0.684   6.753
10598POPC   C3B70665  13.583   0.693   7.053
10598POPC   C4B70666  13.567   0.683   7.353
10599POPC   NC370667  30.673   8.212   5.553
10599POPC   PO470668  30.667   8.155   5.853
10599POPC   GL170669  30.708   8.226   6.153
10599POPC   GL270670  30.543   8.177   6.153
10599POPC   C1A70671  30.689   8.173   6.453
10599POPC   D2A70672  30.670   8.208   6.753
10599POPC   C3A70673  30.673   8.170   7.053
10599POPC   C4A70674  30.664   8.226   7.353
10599POPC   C1B70675  30.432   8.278   6.453
10599POPC   C2B70676  30.411   8.266   6.753
10599POPC   C3B70677  30.416   8.284   7.053
10599POPC   C4B70678  30.426   8.249   7.353
10600POPC   NC370679  32.273   8.980   5.553
10600POPC   PO470680  32.298   8.974   5.853
10600POPC   GL170681  32.273   8.982   6.153
10600POPC   GL270682  32.084   8.994   6.153
10600POPC   C1A70683  32.214   9.020   6.453
10600POPC   D2A70684  32.249   8.952   6.753
10600POPC   C3A70685  32.234   8.978   7.053
10600POPC   C4A70686  32.277   8.927   7.353
10600POPC   C1B70687  31.981   9.025   6.453
10600POPC   C2B70688  31.989   9.037   6.753
10600POPC   C3B70689  31.975   8.996   7.053
10600POPC   C4B70690  31.968   9.072   7.353
10601POPC   NC370691   8.986  30.667   5.553
10601POPC   PO470692   8.973  30.718   5.853
10601POPC   GL170693   8.958  30.668   6.153
10601POPC   GL270694   8.805  30.619   6.153
10601POPC   C1A70695   8.933  30.666   6.453
10601POPC   D2A70696   8.979  30.663   6.753
10601POPC   C3A70697   8.950  30.727   7.053
10601POPC   C4A70698   9.004  30.731   7.353
10601POPC   C1B70699   8.765  30.619   6.453
10601POPC   C2B70700   8.762  30.649   6.753
10601POPC   C3B70701   8.703  30.584   7.053
10601POPC   C4B70702   8.711  30.598   7.353
10602POPC   NC370703  37.639  18.291   5.553
10602POPC   PO470704  37.648  18.333   5.853
10602POPC   GL170705  37.650  18.314   6.153
10602POPC   GL270706  37.525  18.316   6.153
10602POPC   C1A70707  37.678  18.240   6.453
10602POPC   D2A70708  37.643  18.259   6.753
10602POPC   C3A70709  37.729  18.295   7.053
10602POPC   C4A70710  37.650  18.251   7.353
10602POPC   C1B70711  37.446  18.294   6.453
10602POPC   C2B70712  37.391  18.256   6.753
10602POPC   C3B70713  37.452  18.244   7.053
10602POPC   C4B70714  37.437  18.266   7.353
10603POPC   NC370715  33.837   9.014   5.553
10603POPC   PO470716  33.831   9.006   5.853
10603POPC   GL170717  33.774   8.980   6.153
10603POPC   GL270718  33.682   8.955   6.153
10603POPC   C1A70719  33.779   8.995   6.453
10603POPC   D2A70720  33.791   9.012   6.753
10603POPC   C3A70721  33.799   8.946   7.053
10603POPC   C4A70722  33.849   8.955   7.353
10603POPC   C1B70723  33.616   8.805   6.453
10603POPC   C2B70724  33.589   8.827   6.753
10603POPC   C3B70725  33.584   8.828   7.053
10603POPC   C4B70726  33.582   8.813   7.353
10604POPC   NC370727  13.610  17.462   5.553
10604POPC   PO470728  13.616  17.515   5.853
10604POPC   GL170729  13.625  17.462   6.153
10604POPC   GL270730  13.677  17.422   6.153
10604POPC   C1A70731  13.645  17.531   6.453
10604POPC   D2A70732  13.670  17.549   6.753
10604POPC   C3A70733  13.645  17.485   7.053
10604POPC   C4A70734  13.622  17.500   7.353
10604POPC   C1B70735  13.665  17.295   6.453
10604POPC   C2B70736  13.754  17.266   6.753
10604POPC   C3B70737  13.717  17.252   7.053
10604POPC   C4B70738  13.727  17.235   7.353
10605POPC   NC370739  32.239  38.487   5.553
10605POPC   PO470740  32.259  38.453   5.853
10605POPC   GL170741  32.201  38.491   6.153
10605POPC   GL270742  32.125  38.441   6.153
10605POPC   C1A70743  32.275  38.433   6.453
10605POPC   D2A70744  32.220  38.410   6.753
10605POPC   C3A70745  32.245  38.469   7.053
10605POPC   C4A70746  32.210  38.485   7.353
10605POPC   C1B70747  32.027  38.509   6.453
10605POPC   C2B70748  31.985  38.495   6.753
10605POPC   C3B70749  32.002  38.448   7.053
10605POPC   C4B70750  32.016  38.456   7.353
10606POPC   NC370751  26.850  37.664   5.553
10606POPC   PO470752  26.862  37.713   5.853
10606POPC   GL170753  26.861  37.698   6.153
10606POPC   GL270754  26.762  37.830   6.153
10606POPC   C1A70755  26.774  37.705   6.453
10606POPC   D2A70756  26.823  37.635   6.753
10606POPC   C3A70757  26.819  37.718   7.053
10606POPC   C4A70758  26.802  37.678   7.353
10606POPC   C1B70759  26.723  37.968   6.453
10606POPC   C2B70760  26.792  37.935   6.753
10606POPC   C3B70761  26.813  37.910   7.053
10606POPC   C4B70762  26.754  37.906   7.353
10607POPC   NC370763  31.511   8.986   5.553
10607POPC   PO470764  31.501   8.936   5.853
10607POPC   GL170765  31.501   8.944   6.153
10607POPC   GL270766  31.433   9.038   6.153
10607POPC   C1A70767  31.504   8.965   6.453
10607POPC   D2A70768  31.455   8.978   6.753
10607POPC   C3A70769  31.486   8.963   7.053
10607POPC   C4A70770  31.428   9.003   7.353
10607POPC   C1B70771  31.382   9.197   6.453
10607POPC   C2B70772  31.386   9.238   6.753
10607POPC   C3B70773  31.312   9.223   7.053
10607POPC   C4B70774  31.308   9.218   7.353
10608POPC   NC370775   7.422  18.326   5.553
10608POPC   PO470776   7.468  18.266   5.853
10608POPC   GL170777   7.454  18.284   6.153
10608POPC   GL270778   7.355  18.414   6.153
10608POPC   C1A70779   7.469  18.248   6.453
10608POPC   D2A70780   7.414  18.265   6.753
10608POPC   C3A70781   7.412  18.267   7.053
10608POPC   C4A70782   7.453  18.247   7.353
10608POPC   C1B70783   7.259  18.471   6.453
10608POPC   C2B70784   7.303  18.513   6.753
10608POPC   C3B70785   7.317  18.448   7.053
10608POPC   C4B70786   7.308  18.519   7.353
10609POPC   NC370787  33.750  28.369   5.553
10609POPC   PO470788  33.751  28.345   5.853
10609POPC   GL170789  33.806  28.414   6.153
10609POPC   GL270790  33.721  28.357   6.153
10609POPC   C1A70791  33.814  28.398   6.453
10609POPC   D2A70792  33.757  28.410   6.753
10609POPC   C3A70793  33.758  28.326   7.053
10609POPC   C4A70794  33.820  28.357   7.353
10609POPC   C1B70795  33.624  28.257   6.453
10609POPC   C2B70796  33.580  28.272   6.753
10609POPC   C3B70797  33.544  28.214   7.053
10609POPC   C4B70798  33.570  28.235   7.353
10610POPC   NC370799   2.000   5.844   5.553
10610POPC   PO470800   1.943   5.865   5.853
10610POPC   GL170801   1.968   5.878   6.153
10610POPC   GL270802   2.145   5.923   6.153
10610POPC   C1A70803   1.947   5.887   6.453
10610POPC   D2A70804   1.997   5.901   6.753
10610POPC   C3A70805   2.020   5.836   7.053
10610POPC   C4A70806   1.990   5.900   7.353
10610POPC   C1B70807   2.245   5.896   6.453
10610POPC   C2B70808   2.257   5.870   6.753
10610POPC   C3B70809   2.246   5.900   7.053
10610POPC   C4B70810   2.257   5.930   7.353
10611POPC   NC370811   9.014  14.429   5.553
10611POPC   PO470812   8.953  14.424   5.853
10611POPC   GL170813   8.940  14.425   6.153
10611POPC   GL270814   8.948  14.525   6.153
10611POPC   C1A70815   8.952  14.396   6.453
10611POPC   D2A70816   8.964  14.404   6.753
10611POPC   C3A70817   8.973  14.401   7.053
10611POPC   C4A70818   8.934  14.432   7.353
10611POPC   C1B70819   8.905  14.633   6.453
10611POPC   C2B70820   8.950  14.628   6.753
10611POPC   C3B70821   8.939  14.648   7.053
10611POPC   C4B70822   8.949  14.631   7.353
10612POPC   NC370823  35.393  36.123   5.553
10612POPC   PO470824  35.395  36.166   5.853
10612POPC   GL170825  35.325  36.123   6.153
10612POPC   GL270826  35.251  36.144   6.153
10612POPC   C1A70827  35.334  36.168   6.453
10612POPC   D2A70828  35.311  36.165   6.753
10612POPC   C3A70829  35.363  36.136   7.053
10612POPC   C4A70830  35.327  36.091   7.353
10612POPC   C1B70831  35.057  36.085   6.453
10612POPC   C2B70832  35.061  36.135   6.753
10612POPC   C3B70833  35.067  36.179   7.053
10612POPC   C4B70834  35.091  36.170   7.353
10613POPC   NC370835  39.200  32.242   5.553
10613POPC   PO470836  39.192  32.248   5.853
10613POPC   GL170837  39.200  32.213   6.153
10613POPC   GL270838  39.235  32.353   6.153
10613POPC   C1A70839  39.219  32.215   6.453
10613POPC   D2A70840  39.273  32.207   6.753
10613POPC   C3A70841  39.236  32.267   7.053
10613POPC   C4A70842  39.208  32.232   7.353
10613POPC   C1B70843  39.321  32.479   6.453
10613POPC   C2B70844  39.326  32.493   6.753
10613POPC   C3B70845  39.352  32.495   7.053
10613POPC   C4B70846  39.283  32.500   7.353
10614POPC   NC370847  26.823  39.278   5.553
10614POPC   PO470848  26.810  39.186   5.853
10614POPC   GL170849  26.780  39.237   6.153
10614POPC   GL270850  26.883  39.351   6.153
10614POPC   C1A70851  26.786  39.231   6.453
10614POPC   D2A70852  26.849  39.195   6.753
10614POPC   C3A70853  26.867  39.255   7.053
10614POPC   C4A70854  26.779  39.246   7.353
10614POPC   C1B70855  26.899  39.434   6.453
10614POPC   C2B70856  26.919  39.425   6.753
10614POPC   C3B70857  26.887  39.431   7.053
10614POPC   C4B70858  26.848  39.465   7.353
10615POPC   NC370859  24.527  25.257   5.553
10615POPC   PO470860  24.451  25.226   5.853
10615POPC   GL170861  24.504  25.251   6.153
10615POPC   GL270862  24.352  25.232   6.153
10615POPC   C1A70863  24.470  25.237   6.453
10615POPC   D2A70864  24.471  25.265   6.753
10615POPC   C3A70865  24.519  25.235   7.053
10615POPC   C4A70866  24.524  25.245   7.353
10615POPC   C1B70867  24.211  25.247   6.453
10615POPC   C2B70868  24.276  25.259   6.753
10615POPC   C3B70869  24.271  25.274   7.053
10615POPC   C4B70870  24.262  25.236   7.353
10616POPC   NC370871   8.229  26.060   5.553
10616POPC   PO470872   8.227  26.047   5.853
10616POPC   GL170873   8.196  26.022   6.153
10616POPC   GL270874   8.040  25.951   6.153
10616POPC   C1A70875   8.156  26.014   6.453
10616POPC   D2A70876   8.212  26.015   6.753
10616POPC   C3A70877   8.235  26.078   7.053
10616POPC   C4A70878   8.163  26.009   7.353
10616POPC   C1B70879   8.001  25.918   6.453
10616POPC   C2B70880   7.924  25.955   6.753
10616POPC   C3B70881   8.012  25.980   7.053
10616POPC   C4B70882   7.933  25.893   7.353
10617POPC   NC370883   4.302  39.219   5.553
10617POPC   PO470884   4.348  39.195   5.853
10617POPC   GL170885   4.321  39.280   6.153
10617POPC   GL270886   4.483  39.245   6.153
10617POPC   C1A70887   4.271  39.273   6.453
10617POPC   D2A70888   4.279  39.228   6.753
10617POPC   C3A70889   4.282  39.184   7.053
10617POPC   C4A70890   4.365  39.276   7.353
10617POPC   C1B70891   4.607  39.244   6.453
10617POPC   C2B70892   4.563  39.206   6.753
10617POPC   C3B70893   4.603  39.234   7.053
10617POPC   C4B70894   4.584  39.176   7.353
10618POPC   NC370895  23.696  22.179   5.553
10618POPC   PO470896  23.729  22.151   5.853
10618POPC   GL170897  23.693  22.183   6.153
10618POPC   GL270898  23.582  22.089   6.153
10618POPC   C1A70899  23.698  22.203   6.453
10618POPC   D2A70900  23.704  22.154   6.753
10618POPC   C3A70901  23.683  22.154   7.053
10618POPC   C4A70902  23.667  22.145   7.353
10618POPC   C1B70903  23.538  21.983   6.453
10618POPC   C2B70904  23.581  22.003   6.753
10618POPC   C3B70905  23.572  21.959   7.053
10618POPC   C4B70906  23.516  21.924   7.353
10619POPC   NC370907  27.563   5.824   5.553
10619POPC   PO470908  27.597   5.848   5.853
10619POPC   GL170909  27.579   5.910   6.153
10619POPC   GL270910  27.605   5.994   6.153
10619POPC   C1A70911  27.569   5.852   6.453
10619POPC   D2A70912  27.624   5.862   6.753
10619POPC   C3A70913  27.613   5.881   7.053
10619POPC   C4A70914  27.571   5.892   7.353
10619POPC   C1B70915  27.653   6.087   6.453
10619POPC   C2B70916  27.597   6.144   6.753
10619POPC   C3B70917  27.646   6.117   7.053
10619POPC   C4B70918  27.606   6.109   7.353
10620POPC   NC370919  19.052  36.099   5.553
10620POPC   PO470920  19.086  36.114   5.853
10620POPC   GL170921  19.106  36.158   6.153
10620POPC   GL270922  19.007  36.227   6.153
10620POPC   C1A70923  19.085  36.130   6.453
10620POPC   D2A70924  19.015  36.169   6.753
10620POPC   C3A70925  19.109  36.146   7.053
10620POPC   C4A70926  19.039  36.143   7.353
10620POPC   C1B70927  18.837  36.355   6.453
10620POPC   C2B70928  18.896  36.297   6.753
10620POPC   C3B70929  18.845  36.314   7.053
10620POPC   C4B70930  18.867  36.287   7.353
10621POPC   NC370931  41.545  10.540   5.553
10621POPC   PO470932  41.582  10.538   5.853
10621POPC   GL170933  41.558  10.526   6.153
10621POPC   GL270934  41.510  10.420   6.153
10621POPC   C1A70935  41.562  10.548   6.453
10621POPC   D2A70936  41.525  10.481   6.753
10621POPC   C3A70937  41.535  10.545   7.053
10621POPC   C4A70938  41.580  10.489   7.353
10621POPC   C1B70939  41.520  10.281   6.453
10621POPC   C2B70940  41.487  10.302   6.753
10621POPC   C3B70941  41.520  10.322   7.053
10621POPC   C4B70942  41.551  10.283   7.353
10622POPC   NC370943  26.091  28.346   5.553
10622POPC   PO470944  26.056  28.366   5.853
10622POPC   GL170945  26.069  28.393   6.153
10622POPC   GL270946  26.089  28.433   6.153
10622POPC   C1A70947  26.076  28.332   6.453
10622POPC   D2A70948  26.054  28.367   6.753
10622POPC   C3A70949  26.000  28.372   7.053
10622POPC   C4A70950  26.091  28.388   7.353
10622POPC   C1B70951  26.232  28.504   6.453
10622POPC   C2B70952  26.229  28.533   6.753
10622POPC   C3B70953  26.267  28.535   7.053
10622POPC   C4B70954  26.276  28.528   7.353
10623POPC   NC370955  12.851  21.366   5.553
10623POPC   PO470956  12.818  21.404   5.853
10623POPC   GL170957  12.810  21.390   6.153
10623POPC   GL270958  12.820  21.296   6.153
10623POPC   C1A70959  12.847  21.372   6.453
10623POPC   D2A70960  12.883  21.344   6.753
10623POPC   C3A70961  12.811  21.422   7.053
10623POPC   C4A70962  12.854  21.409   7.353
10623POPC   C1B70963  12.860  21.096   6.453
10623POPC   C2B70964  12.833  21.149   6.753
10623POPC   C3B70965  12.871  21.143   7.053
10623POPC   C4B70966  12.853  21.165   7.353
10624POPC   NC370967   4.365  29.963   5.553
10624POPC   PO470968   4.321  29.886   5.853
10624POPC   GL170969   4.285  29.947   6.153
10624POPC   GL270970   4.446  29.977   6.153
10624POPC   C1A70971   4.293  29.930   6.453
10624POPC   D2A70972   4.315  29.925   6.753
10624POPC   C3A70973   4.276  29.917   7.053
10624POPC   C4A70974   4.290  29.887   7.353
10624POPC   C1B70975   4.566  30.057   6.453
10624POPC   C2B70976   4.514  30.021   6.753
10624POPC   C3B70977   4.547  30.039   7.053
10624POPC   C4B70978   4.480  30.072   7.353
10625POPC   NC370979  12.867  42.356   5.553
10625POPC   PO470980  12.838  42.370   5.853
10625POPC   GL170981  12.842  42.291   6.153
10625POPC   GL270982  12.962  42.432   6.153
10625POPC   C1A70983  12.807  42.353   6.453
10625POPC   D2A70984  12.821  42.306   6.753
10625POPC   C3A70985  12.823  42.362   7.053
10625POPC   C4A70986  12.872  42.371   7.353
10625POPC   C1B70987  13.108  42.431   6.453
10625POPC   C2B70988  13.037  42.495   6.753
10625POPC   C3B70989  13.120  42.494   7.053
10625POPC   C4B70990  13.123  42.420   7.353
10626POPC   NC370991  28.397   5.839   5.553
10626POPC   PO470992  28.355   5.851   5.853
10626POPC   GL170993  28.381   5.885   6.153
10626POPC   GL270994  28.334   5.965   6.153
10626POPC   C1A70995  28.379   5.888   6.453
10626POPC   D2A70996  28.355   5.866   6.753
10626POPC   C3A70997  28.332   5.866   7.053
10626POPC   C4A70998  28.339   5.832   7.353
10626POPC   C1B70999  28.266   6.125   6.453
10626POPC   C2B71000  28.294   6.086   6.753
10626POPC   C3B71001  28.254   6.080   7.053
10626POPC   C4B71002  28.235   6.055   7.353
10627POPC   NC371003  31.448   6.672   5.553
10627POPC   PO471004  31.487   6.603   5.853
10627POPC   GL171005  31.457   6.638   6.153
10627POPC   GL271006  31.490   6.548   6.153
10627POPC   C1A71007  31.481   6.655   6.453
10627POPC   D2A71008  31.425   6.661   6.753
10627POPC   C3A71009  31.443   6.657   7.053
10627POPC   C4A71010  31.495   6.613   7.353
10627POPC   C1B71011  31.612   6.416   6.453
10627POPC   C2B71012  31.566   6.465   6.753
10627POPC   C3B71013  31.616   6.386   7.053
10627POPC   C4B71014  31.613   6.446   7.353
10628POPC   NC371015  33.056  34.562   5.553
10628POPC   PO471016  33.053  34.597   5.853
10628POPC   GL171017  33.061  34.578   6.153
10628POPC   GL271018  33.025  34.415   6.153
10628POPC   C1A71019  33.070  34.540   6.453
10628POPC   D2A71020  33.005  34.623   6.753
10628POPC   C3A71021  33.006  34.562   7.053
10628POPC   C4A71022  33.067  34.604   7.353
10628POPC   C1B71023  33.052  34.319   6.453
10628POPC   C2B71024  33.035  34.344   6.753
10628POPC   C3B71025  32.969  34.358   7.053
10628POPC   C4B71026  33.008  34.280   7.353
10629POPC   NC371027  11.276  36.114   5.553
10629POPC   PO471028  11.342  36.145   5.853
10629POPC   GL171029  11.329  36.153   6.153
10629POPC   GL271030  11.333  36.240   6.153
10629POPC   C1A71031  11.332  36.147   6.453
10629POPC   D2A71032  11.295  36.124   6.753
10629POPC   C3A71033  11.311  36.172   7.053
10629POPC   C4A71034  11.325  36.110   7.353
10629POPC   C1B71035  11.493  36.326   6.453
10629POPC   C2B71036  11.469  36.300   6.753
10629POPC   C3B71037  11.480  36.291   7.053
10629POPC   C4B71038  11.501  36.294   7.353
10630POPC   NC371039  15.146   1.214   5.553
10630POPC   PO471040  15.131   1.241   5.853
10630POPC   GL171041  15.156   1.187   6.153
10630POPC   GL271042  15.222   1.110   6.153
10630POPC   C1A71043  15.210   1.195   6.453
10630POPC   D2A71044  15.203   1.200   6.753
10630POPC   C3A71045  15.173   1.254   7.053
10630POPC   C4A71046  15.216   1.192   7.353
10630POPC   C1B71047  15.234   1.024   6.453
10630POPC   C2B71048  15.220   1.007   6.753
10630POPC   C3B71049  15.286   1.014   7.053
10630POPC   C4B71050  15.284   1.010   7.353
10631POPC   NC371051  24.532  12.900   5.553
10631POPC   PO471052  24.481  12.832   5.853
10631POPC   GL171053  24.480  12.830   6.153
10631POPC   GL271054  24.444  12.991   6.153
10631POPC   C1A71055  24.537  12.834   6.453
10631POPC   D2A71056  24.461  12.896   6.753
10631POPC   C3A71057  24.534  12.849   7.053
10631POPC   C4A71058  24.532  12.870   7.353
10631POPC   C1B71059  24.358  13.086   6.453
10631POPC   C2B71060  24.348  13.055   6.753
10631POPC   C3B71061  24.382  13.023   7.053
10631POPC   C4B71062  24.347  12.999   7.353
10632POPC   NC371063  16.774  35.381   5.553
10632POPC   PO471064  16.687  35.395   5.853
10632POPC   GL171065  16.767  35.328   6.153
10632POPC   GL271066  16.690  35.268   6.153
10632POPC   C1A71067  16.707  35.323   6.453
10632POPC   D2A71068  16.720  35.320   6.753
10632POPC   C3A71069  16.780  35.360   7.053
10632POPC   C4A71070  16.744  35.304   7.353
10632POPC   C1B71071  16.668  35.072   6.453
10632POPC   C2B71072  16.613  35.110   6.753
10632POPC   C3B71073  16.643  35.148   7.053
10632POPC   C4B71074  16.619  35.139   7.353
10633POPC   NC371075  41.605  40.037   5.553
10633POPC   PO471076  41.584  39.996   5.853
10633POPC   GL171077  41.532  40.054   6.153
10633POPC   GL271078  41.666  40.069   6.153
10633POPC   C1A71079  41.556  39.977   6.453
10633POPC   D2A71080  41.535  40.035   6.753
10633POPC   C3A71081  41.528  39.981   7.053
10633POPC   C4A71082  41.545  40.035   7.353
10633POPC   C1B71083  41.759  40.013   6.453
10633POPC   C2B71084  41.778  39.990   6.753
10633POPC   C3B71085  41.839  40.060   7.053
10633POPC   C4B71086  41.841  40.018   7.353
10634POPC   NC371087  29.138  19.102   5.553
10634POPC   PO471088  29.142  19.096   5.853
10634POPC   GL171089  29.177  19.013   6.153
10634POPC   GL271090  29.113  18.906   6.153
10634POPC   C1A71091  29.122  19.100   6.453
10634POPC   D2A71092  29.107  19.050   6.753
10634POPC   C3A71093  29.101  19.017   7.053
10634POPC   C4A71094  29.172  19.063   7.353
10634POPC   C1B71095  29.156  18.772   6.453
10634POPC   C2B71096  29.140  18.801   6.753
10634POPC   C3B71097  29.155  18.827   7.053
10634POPC   C4B71098  29.168  18.819   7.353
10635POPC   NC371099  43.882  36.142   5.553
10635POPC   PO471100  43.911  36.110   5.853
10635POPC   GL171101  43.926  36.086   6.153
10635POPC   GL271102  43.994  36.231   6.153
10635POPC   C1A71103  43.924  36.113   6.453
10635POPC   D2A71104  43.841  36.173   6.753
10635POPC   C3A71105  43.923  36.101   7.053
10635POPC   C4A71106  43.883  36.118   7.353
10635POPC   C1B71107  44.114  36.241   6.453
10635POPC   C2B71108  44.087  36.261   6.753
10635POPC   C3B71109  44.050  36.239   7.053
10635POPC   C4B71110  44.133  36.224   7.353
10636POPC   NC371111  32.209  19.821   5.553
10636POPC   PO471112  32.243  19.805   5.853
10636POPC   GL171113  32.251  19.791   6.153
10636POPC   GL271114  32.312  19.914   6.153
10636POPC   C1A71115  32.257  19.835   6.453
10636POPC   D2A71116  32.239  19.800   6.753
10636POPC   C3A71117  32.297  19.798   7.053
10636POPC   C4A71118  32.202  19.833   7.353
10636POPC   C1B71119  32.358  20.026   6.453
10636POPC   C2B71120  32.360  20.038   6.753
10636POPC   C3B71121  32.388  20.000   7.053
10636POPC   C4B71122  32.354  20.000   7.353
10637POPC   NC371123  19.033  32.243   5.553
10637POPC   PO471124  19.099  32.283   5.853
10637POPC   GL171125  19.054  32.209   6.153
10637POPC   GL271126  18.955  32.245   6.153
10637POPC   C1A71127  19.015  32.220   6.453
10637POPC   D2A71128  19.089  32.275   6.753
10637POPC   C3A71129  19.026  32.258   7.053
10637POPC   C4A71130  19.035  32.220   7.353
10637POPC   C1B71131  18.779  32.371   6.453
10637POPC   C2B71132  18.817  32.307   6.753
10637POPC   C3B71133  18.772  32.278   7.053
10637POPC   C4B71134  18.803  32.309   7.353
10638POPC   NC371135  14.405  10.495   5.553
10638POPC   PO471136  14.402  10.567   5.853
10638POPC   GL171137  14.361  10.506   6.153
10638POPC   GL271138  14.477  10.607   6.153
10638POPC   C1A71139  14.378  10.513   6.453
10638POPC   D2A71140  14.385  10.547   6.753
10638POPC   C3A71141  14.409  10.537   7.053
10638POPC   C4A71142  14.363  10.573   7.353
10638POPC   C1B71143  14.466  10.790   6.453
10638POPC   C2B71144  14.470  10.759   6.753
10638POPC   C3B71145  14.490  10.771   7.053
10638POPC   C4B71146  14.474  10.748   7.353
10639POPC   NC371147  19.072   7.447   5.553
10639POPC   PO471148  19.062   7.428   5.853
10639POPC   GL171149  19.097   7.401   6.153
10639POPC   GL271150  18.929   7.415   6.153
10639POPC   C1A71151  19.105   7.411   6.453
10639POPC   D2A71152  19.033   7.426   6.753
10639POPC   C3A71153  19.051   7.407   7.053
10639POPC   C4A71154  19.104   7.399   7.353
10639POPC   C1B71155  18.855   7.414   6.453
10639POPC   C2B71156  18.827   7.430   6.753
10639POPC   C3B71157  18.807   7.475   7.053
10639POPC   C4B71158  18.852   7.431   7.353
10640POPC   NC371159  41.535  19.048   5.553
10640POPC   PO471160  41.509  19.035   5.853
10640POPC   GL171161  41.543  19.015   6.153
10640POPC   GL271162  41.603  18.984   6.153
10640POPC   C1A71163  41.519  19.035   6.453
10640POPC   D2A71164  41.600  19.065   6.753
10640POPC   C3A71165  41.600  19.049   7.053
10640POPC   C4A71166  41.529  19.069   7.353
10640POPC   C1B71167  41.530  18.827   6.453
10640POPC   C2B71168  41.567  18.812   6.753
10640POPC   C3B71169  41.574  18.780   7.053
10640POPC   C4B71170  41.586  18.772   7.353
10641POPC   NC371171  37.642  36.878   5.553
10641POPC   PO471172  37.699  36.887   5.853
10641POPC   GL171173  37.675  36.951   6.153
10641POPC   GL271174  37.605  36.788   6.153
10641POPC   C1A71175  37.724  36.887   6.453
10641POPC   D2A71176  37.650  36.926   6.753
10641POPC   C3A71177  37.692  36.921   7.053
10641POPC   C4A71178  37.687  36.905   7.353
10641POPC   C1B71179  37.526  36.784   6.453
10641POPC   C2B71180  37.494  36.761   6.753
10641POPC   C3B71181  37.466  36.738   7.053
10641POPC   C4B71182  37.507  36.780   7.353
10642POPC   NC371183  40.804   9.796   5.553
10642POPC   PO471184  40.744   9.753   5.853
10642POPC   GL171185  40.779   9.794   6.153
10642POPC   GL271186  40.921   9.830   6.153
10642POPC   C1A71187  40.773   9.740   6.453
10642POPC   D2A71188  40.797   9.720   6.753
10642POPC   C3A71189  40.756   9.778   7.053
10642POPC   C4A71190  40.807   9.729   7.353
10642POPC   C1B71191  40.992   9.824   6.453
10642POPC   C2B71192  40.986   9.861   6.753
10642POPC   C3B71193  41.000   9.835   7.053
10642POPC   C4B71194  41.005   9.875   7.353
10643POPC   NC371195   2.764  36.949   5.553
10643POPC   PO471196   2.815  36.902   5.853
10643POPC   GL171197   2.716  36.885   6.153
10643POPC   GL271198   2.656  36.990   6.153
10643POPC   C1A71199   2.807  36.909   6.453
10643POPC   D2A71200   2.719  36.886   6.753
10643POPC   C3A71201   2.791  36.908   7.053
10643POPC   C4A71202   2.722  36.880   7.353
10643POPC   C1B71203   2.550  37.019   6.453
10643POPC   C2B71204   2.611  37.066   6.753
10643POPC   C3B71205   2.621  37.077   7.053
10643POPC   C4B71206   2.623  37.047   7.353
10644POPC   NC371207   2.038  17.494   5.553
10644POPC   PO471208   2.010  17.464   5.853
10644POPC   GL171209   2.007  17.495   6.153
10644POPC   GL271210   1.983  17.432   6.153
10644POPC   C1A71211   2.019  17.533   6.453
10644POPC   D2A71212   2.036  17.496   6.753
10644POPC   C3A71213   1.992  17.514   7.053
10644POPC   C4A71214   2.032  17.470   7.353
10644POPC   C1B71215   1.998  17.233   6.453
10644POPC   C2B71216   2.050  17.221   6.753
10644POPC   C3B71217   2.080  17.277   7.053
10644POPC   C4B71218   2.038  17.258   7.353
10645POPC   NC371219   8.939  26.066   5.553
10645POPC   PO471220   8.994  26.044   5.853
10645POPC   GL171221   9.011  26.000   6.153
10645POPC   GL271222   9.061  25.983   6.153
10645POPC   C1A71223   8.979  25.995   6.453
10645POPC   D2A71224   8.961  26.041   6.753
10645POPC   C3A71225   8.950  26.025   7.053
10645POPC   C4A71226   8.950  26.089   7.353
10645POPC   C1B71227   9.236  25.897   6.453
10645POPC   C2B71228   9.165  25.934   6.753
10645POPC   C3B71229   9.241  25.890   7.053
10645POPC   C4B71230   9.216  25.941   7.353
10646POPC   NC371231  40.803  35.381   5.553
10646POPC   PO471232  40.770  35.346   5.853
10646POPC   GL171233  40.814  35.383   6.153
10646POPC   GL271234  40.636  35.368   6.153
10646POPC   C1A71235  40.750  35.328   6.453
10646POPC   D2A71236  40.823  35.395   6.753
10646POPC   C3A71237  40.769  35.395   7.053
10646POPC   C4A71238  40.799  35.356   7.353
10646POPC   C1B71239  40.487  35.353   6.453
10646POPC   C2B71240  40.577  35.331   6.753
10646POPC   C3B71241  40.551  35.327   7.053
10646POPC   C4B71242  40.526  35.380   7.353
10647POPC   NC371243  36.147  15.207   5.553
10647POPC   PO471244  36.149  15.184   5.853
10647POPC   GL171245  36.113  15.171   6.153
10647POPC   GL271246  36.082  15.305   6.153
10647POPC   C1A71247  36.094  15.134   6.453
10647POPC   D2A71248  36.104  15.132   6.753
10647POPC   C3A71249  36.085  15.206   7.053
10647POPC   C4A71250  36.084  15.208   7.353
10647POPC   C1B71251  35.977  15.332   6.453
10647POPC   C2B71252  35.916  15.375   6.753
10647POPC   C3B71253  36.004  15.396   7.053
10647POPC   C4B71254  35.942  15.330   7.353
10648POPC   NC371255  25.294  14.416   5.553
10648POPC   PO471256  25.278  14.392   5.853
10648POPC   GL171257  25.229  14.377   6.153
10648POPC   GL271258  25.297  14.306   6.153
10648POPC   C1A71259  25.260  14.412   6.453
10648POPC   D2A71260  25.301  14.391   6.753
10648POPC   C3A71261  25.307  14.359   7.053
10648POPC   C4A71262  25.220  14.375   7.353
10648POPC   C1B71263  25.370  14.141   6.453
10648POPC   C2B71264  25.355  14.229   6.753
10648POPC   C3B71265  25.399  14.174   7.053
10648POPC   C4B71266  25.415  14.141   7.353
10649POPC   NC371267  20.626  38.504   5.553
10649POPC   PO471268  20.597  38.452   5.853
10649POPC   GL171269  20.638  38.474   6.153
10649POPC   GL271270  20.562  38.559   6.153
10649POPC   C1A71271  20.644  38.480   6.453
10649POPC   D2A71272  20.618  38.497   6.753
10649POPC   C3A71273  20.622  38.504   7.053
10649POPC   C4A71274  20.649  38.499   7.353
10649POPC   C1B71275  20.595  38.666   6.453
10649POPC   C2B71276  20.620  38.713   6.753
10649POPC   C3B71277  20.619  38.672   7.053
10649POPC   C4B71278  20.633  38.739   7.353
10650POPC   NC371279  36.115  24.493   5.553
10650POPC   PO471280  36.099  24.445   5.853
10650POPC   GL171281  36.138  24.485   6.153
10650POPC   GL271282  36.154  24.619   6.153
10650POPC   C1A71283  36.084  24.455   6.453
10650POPC   D2A71284  36.163  24.500   6.753
10650POPC   C3A71285  36.175  24.449   7.053
10650POPC   C4A71286  36.140  24.498   7.353
10650POPC   C1B71287  36.123  24.751   6.453
10650POPC   C2B71288  36.129  24.756   6.753
10650POPC   C3B71289  36.094  24.769   7.053
10650POPC   C4B71290  36.061  24.757   7.353
10651POPC   NC371291  14.418  20.597   5.553
10651POPC   PO471292  14.355  20.561   5.853
10651POPC   GL171293  14.446  20.579   6.153
10651POPC   GL271294  14.474  20.457   6.153
10651POPC   C1A71295  14.419  20.597   6.453
10651POPC   D2A71296  14.423  20.622   6.753
10651POPC   C3A71297  14.402  20.575   7.053
10651POPC   C4A71298  14.407  20.606   7.353
10651POPC   C1B71299  14.453  20.421   6.453
10651POPC   C2B71300  14.466  20.419   6.753
10651POPC   C3B71301  14.530  20.360   7.053
10651POPC   C4B71302  14.525  20.347   7.353
10652POPC   NC371303   8.246  12.087   5.553
10652POPC   PO471304   8.170  12.092   5.853
10652POPC   GL171305   8.234  12.095   6.153
10652POPC   GL271306   8.179  11.920   6.153
10652POPC   C1A71307   8.154  12.074   6.453
10652POPC   D2A71308   8.232  12.086   6.753
10652POPC   C3A71309   8.174  12.092   7.053
10652POPC   C4A71310   8.246  12.109   7.353
10652POPC   C1B71311   8.110  11.806   6.453
10652POPC   C2B71312   8.168  11.827   6.753
10652POPC   C3B71313   8.146  11.786   7.053
10652POPC   C4B71314   8.192  11.846   7.353
10653POPC   NC371315  14.391  39.993   5.553
10653POPC   PO471316  14.385  39.991   5.853
10653POPC   GL171317  14.384  39.976   6.153
10653POPC   GL271318  14.538  39.939   6.153
10653POPC   C1A71319  14.415  40.007   6.453
10653POPC   D2A71320  14.410  40.040   6.753
10653POPC   C3A71321  14.391  40.022   7.053
10653POPC   C4A71322  14.432  39.996   7.353
10653POPC   C1B71323  14.645  39.864   6.453
10653POPC   C2B71324  14.637  39.873   6.753
10653POPC   C3B71325  14.631  39.893   7.053
10653POPC   C4B71326  14.632  39.858   7.353
10654POPC   NC371327  42.351  43.102   5.553
10654POPC   PO471328  42.292  43.095   5.853
10654POPC   GL171329  42.303  43.094   6.153
10654POPC   GL271330  42.241  43.206   6.153
10654POPC   C1A71331  42.366  43.149   6.453
10654POPC   D2A71332  42.365  43.124   6.753
10654POPC   C3A71333  42.299  43.121   7.053
10654POPC   C4A71334  42.351  43.071   7.353
10654POPC   C1B71335  42.150  43.309   6.453
10654POPC   C2B71336  42.204  43.286   6.753
10654POPC   C3B71337  42.192  43.369   7.053
10654POPC   C4B71338  42.224  43.364   7.353
10655POPC   NC371339   2.771  17.535   5.553
10655POPC   PO471340   2.778  17.478   5.853
10655POPC   GL171341   2.799  17.487   6.153
10655POPC   GL271342   2.595  17.487   6.153
10655POPC   C1A71343   2.794  17.516   6.453
10655POPC   D2A71344   2.747  17.516   6.753
10655POPC   C3A71345   2.793  17.520   7.053
10655POPC   C4A71346   2.724  17.533   7.353
10655POPC   C1B71347   2.540  17.472   6.453
10655POPC   C2B71348   2.524  17.463   6.753
10655POPC   C3B71349   2.541  17.439   7.053
10655POPC   C4B71350   2.567  17.415   7.353
10656POPC   NC371351  38.433  38.490   5.553
10656POPC   PO471352  38.465  38.460   5.853
10656POPC   GL171353  38.456  38.482   6.153
10656POPC   GL271354  38.478  38.362   6.153
10656POPC   C1A71355  38.490  38.468   6.453
10656POPC   D2A71356  38.461  38.426   6.753
10656POPC   C3A71357  38.493  38.493   7.053
10656POPC   C4A71358  38.478  38.502   7.353
10656POPC   C1B71359  38.544  38.272   6.453
10656POPC   C2B71360  38.546  38.201   6.753
10656POPC   C3B71361  38.611  38.227   7.053
10656POPC   C4B71362  38.615  38.218   7.353
10657POPC   NC371363   2.725  20.619   5.553
10657POPC   PO471364   2.814  20.651   5.853
10657POPC   GL171365   2.801  20.595   6.153
10657POPC   GL271366   2.606  20.655   6.153
10657POPC   C1A71367   2.727  20.602   6.453
10657POPC   D2A71368   2.764  20.646   6.753
10657POPC   C3A71369   2.733  20.648   7.053
10657POPC   C4A71370   2.808  20.647   7.353
10657POPC   C1B71371   2.502  20.569   6.453
10657POPC   C2B71372   2.559  20.564   6.753
10657POPC   C3B71373   2.524  20.569   7.053
10657POPC   C4B71374   2.519  20.638   7.353
10658POPC   NC371375  25.309  41.594   5.553
10658POPC   PO471376  25.298  41.569   5.853
10658POPC   GL171377  25.272  41.605   6.153
10658POPC   GL271378  25.168  41.418   6.153
10658POPC   C1A71379  25.254  41.608   6.453
10658POPC   D2A71380  25.269  41.596   6.753
10658POPC   C3A71381  25.274  41.546   7.053
10658POPC   C4A71382  25.274  41.579   7.353
10658POPC   C1B71383  25.149  41.317   6.453
10658POPC   C2B71384  25.094  41.385   6.753
10658POPC   C3B71385  25.067  41.331   7.053
10658POPC   C4B71386  25.087  41.370   7.353
10659POPC   NC371387  40.813   2.018   5.553
10659POPC   PO471388  40.763   2.002   5.853
10659POPC   GL171389  40.743   2.021   6.153
10659POPC   GL271390  40.674   2.086   6.153
10659POPC   C1A71391  40.805   1.975   6.453
10659POPC   D2A71392  40.749   2.016   6.753
10659POPC   C3A71393  40.774   1.987   7.053
10659POPC   C4A71394  40.771   1.965   7.353
10659POPC   C1B71395  40.605   2.207   6.453
10659POPC   C2B71396  40.573   2.142   6.753
10659POPC   C3B71397  40.602   2.156   7.053
10659POPC   C4B71398  40.640   2.205   7.353
10660POPC   NC371399  14.374   5.854   5.553
10660POPC   PO471400  14.364   5.888   5.853
10660POPC   GL171401  14.440   5.834   6.153
10660POPC   GL271402  14.493   5.863   6.153
10660POPC   C1A71403  14.360   5.867   6.453
10660POPC   D2A71404  14.376   5.906   6.753
10660POPC   C3A71405  14.452   5.835   7.053
10660POPC   C4A71406  14.414   5.901   7.353
10660POPC   C1B71407  14.694   5.945   6.453
10660POPC   C2B71408  14.643   5.905   6.753
10660POPC   C3B71409  14.681   5.932   7.053
10660POPC   C4B71410  14.606   5.946   7.353
10661POPC   NC371411  29.888   1.213   5.553
10661POPC   PO471412  29.880   1.208   5.853
10661POPC   GL171413  29.886   1.252   6.153
10661POPC   GL271414  30.071   1.150   6.153
10661POPC   C1A71415  29.907   1.175   6.453
10661POPC   D2A71416  29.872   1.195   6.753
10661POPC   C3A71417  29.930   1.225   7.053
10661POPC   C4A71418  29.907   1.190   7.353
10661POPC   C1B71419  30.190   1.084   6.453
10661POPC   C2B71420  30.191   1.156   6.753
10661POPC   C3B71421  30.154   1.139   7.053
10661POPC   C4B71422  30.170   1.061   7.353
10662POPC   NC371423  36.940  11.302   5.553
10662POPC   PO471424  36.940  11.253   5.853
10662POPC   GL171425  36.914  11.325   6.153
10662POPC   GL271426  36.751  11.288   6.153
10662POPC   C1A71427  36.952  11.314   6.453
10662POPC   D2A71428  36.893  11.301   6.753
10662POPC   C3A71429  36.945  11.315   7.053
10662POPC   C4A71430  36.894  11.303   7.353
10662POPC   C1B71431  36.669  11.301   6.453
10662POPC   C2B71432  36.648  11.315   6.753
10662POPC   C3B71433  36.668  11.245   7.053
10662POPC   C4B71434  36.669  11.297   7.353
10663POPC   NC371435  38.446   8.998   5.553
10663POPC   PO471436  38.464   8.952   5.853
10663POPC   GL171437  38.458   9.016   6.153
10663POPC   GL271438  38.488   9.094   6.153
10663POPC   C1A71439  38.456   8.949   6.453
10663POPC   D2A71440  38.465   8.925   6.753
10663POPC   C3A71441  38.468   8.987   7.053
10663POPC   C4A71442  38.479   8.950   7.353
10663POPC   C1B71443  38.430   9.188   6.453
10663POPC   C2B71444  38.476   9.210   6.753
10663POPC   C3B71445  38.438   9.235   7.053
10663POPC   C4B71446  38.387   9.258   7.353
10664POPC   NC371447  43.853   8.977   5.553
10664POPC   PO471448  43.842   8.949   5.853
10664POPC   GL171449  43.918   9.018   6.153
10664POPC   GL271450  43.953   9.057   6.153
10664POPC   C1A71451  43.905   8.951   6.453
10664POPC   D2A71452  43.899   8.962   6.753
10664POPC   C3A71453  43.898   9.006   7.053
10664POPC   C4A71454  43.846   8.991   7.353
10664POPC   C1B71455  44.077   9.027   6.453
10664POPC   C2B71456  44.102   9.102   6.753
10664POPC   C3B71457  44.124   9.064   7.053
10664POPC   C4B71458  44.144   9.030   7.353
10665POPC   NC371459  33.774  21.365   5.553
10665POPC   PO471460  33.829  21.340   5.853
10665POPC   GL171461  33.827  21.408   6.153
10665POPC   GL271462  33.850  21.421   6.153
10665POPC   C1A71463  33.832  21.397   6.453
10665POPC   D2A71464  33.771  21.403   6.753
10665POPC   C3A71465  33.775  21.400   7.053
10665POPC   C4A71466  33.815  21.358   7.353
10665POPC   C1B71467  33.946  21.563   6.453
10665POPC   C2B71468  34.014  21.514   6.753
10665POPC   C3B71469  34.021  21.533   7.053
10665POPC   C4B71470  34.037  21.584   7.353
10666POPC   NC371471  10.552  25.275   5.553
10666POPC   PO471472  10.482  25.267   5.853
10666POPC   GL171473  10.510  25.298   6.153
10666POPC   GL271474  10.438  25.318   6.153
10666POPC   C1A71475  10.560  25.276   6.453
10666POPC   D2A71476  10.502  25.225   6.753
10666POPC   C3A71477  10.562  25.293   7.053
10666POPC   C4A71478  10.539  25.312   7.353
10666POPC   C1B71479  10.361  25.412   6.453
10666POPC   C2B71480  10.341  25.445   6.753
10666POPC   C3B71481  10.317  25.480   7.053
10666POPC   C4B71482  10.325  25.410   7.353
10667POPC   NC371483  36.094  35.397   5.553
10667POPC   PO471484  36.128  35.381   5.853
10667POPC   GL171485  36.156  35.356   6.153
10667POPC   GL271486  36.214  35.347   6.153
10667POPC   C1A71487  36.120  35.322   6.453
10667POPC   D2A71488  36.130  35.326   6.753
10667POPC   C3A71489  36.126  35.357   7.053
10667POPC   C4A71490  36.150  35.365   7.353
10667POPC   C1B71491  36.415  35.430   6.453
10667POPC   C2B71492  36.373  35.408   6.753
10667POPC   C3B71493  36.392  35.441   7.053
10667POPC   C4B71494  36.368  35.476   7.353
10668POPC   NC371495  24.511   8.947   5.553
10668POPC   PO471496  24.473   8.929   5.853
10668POPC   GL171497  24.456   9.017   6.153
10668POPC   GL271498  24.362   8.911   6.153
10668POPC   C1A71499  24.467   8.936   6.453
10668POPC   D2A71500  24.451   9.009   6.753
10668POPC   C3A71501  24.494   8.969   7.053
10668POPC   C4A71502  24.484   8.994   7.353
10668POPC   C1B71503  24.289   8.910   6.453
10668POPC   C2B71504  24.211   8.881   6.753
10668POPC   C3B71505  24.261   8.950   7.053
10668POPC   C4B71506  24.261   8.967   7.353
10669POPC   NC371507   2.003  40.816   5.553
10669POPC   PO471508   2.021  40.795   5.853
10669POPC   GL171509   2.010  40.769   6.153
10669POPC   GL271510   2.119  40.754   6.153
10669POPC   C1A71511   1.963  40.753   6.453
10669POPC   D2A71512   1.996  40.807   6.753
10669POPC   C3A71513   1.994  40.822   7.053
10669POPC   C4A71514   1.993  40.772   7.353
10669POPC   C1B71515   2.194  40.690   6.453
10669POPC   C2B71516   2.179  40.676   6.753
10669POPC   C3B71517   2.236  40.730   7.053
10669POPC   C4B71518   2.242  40.651   7.353
10670POPC   NC371519  33.000   9.735   5.553
10670POPC   PO471520  33.000   9.767   5.853
10670POPC   GL171521  33.039   9.789   6.153
10670POPC   GL271522  32.884   9.723   6.153
10670POPC   C1A71523  33.070   9.728   6.453
10670POPC   D2A71524  32.980   9.716   6.753
10670POPC   C3A71525  33.018   9.730   7.053
10670POPC   C4A71526  33.012   9.729   7.353
10670POPC   C1B71527  32.748   9.657   6.453
10670POPC   C2B71528  32.815   9.699   6.753
10670POPC   C3B71529  32.804   9.680   7.053
10670POPC   C4B71530  32.773   9.672   7.353
10671POPC   NC371531  36.883  12.849   5.553
10671POPC   PO471532  36.947  12.808   5.853
10671POPC   GL171533  36.862  12.861   6.153
10671POPC   GL271534  37.052  12.814   6.153
10671POPC   C1A71535  36.912  12.802   6.453
10671POPC   D2A71536  36.933  12.835   6.753
10671POPC   C3A71537  36.915  12.890   7.053
10671POPC   C4A71538  36.860  12.822   7.353
10671POPC   C1B71539  37.086  12.723   6.453
10671POPC   C2B71540  37.169  12.770   6.753
10671POPC   C3B71541  37.090  12.771   7.053
10671POPC   C4B71542  37.172  12.782   7.353
10672POPC   NC371543  27.575  21.388   5.553
10672POPC   PO471544  27.571  21.382   5.853
10672POPC   GL171545  27.641  21.411   6.153
10672POPC   GL271546  27.694  21.406   6.153
10672POPC   C1A71547  27.632  21.358   6.453
10672POPC   D2A71548  27.633  21.382   6.753
10672POPC   C3A71549  27.587  21.395   7.053
10672POPC   C4A71550  27.638  21.375   7.353
10672POPC   C1B71551  27.799  21.496   6.453
10672POPC   C2B71552  27.862  21.506   6.753
10672POPC   C3B71553  27.798  21.499   7.053
10672POPC   C4B71554  27.804  21.511   7.353
10673POPC   NC371555   5.871  16.723   5.553
10673POPC   PO471556   5.842  16.773   5.853
10673POPC   GL171557   5.895  16.764   6.153
10673POPC   GL271558   5.938  16.892   6.153
10673POPC   C1A71559   5.902  16.740   6.453
10673POPC   D2A71560   5.825  16.726   6.753
10673POPC   C3A71561   5.873  16.757   7.053
10673POPC   C4A71562   5.841  16.759   7.353
10673POPC   C1B71563   5.938  16.952   6.453
10673POPC   C2B71564   5.990  16.983   6.753
10673POPC   C3B71565   5.915  16.944   7.053
10673POPC   C4B71566   5.963  16.965   7.353
10674POPC   NC371567   8.189  22.138   5.553
10674POPC   PO471568   8.220  22.149   5.853
10674POPC   GL171569   8.198  22.187   6.153
10674POPC   GL271570   8.249  22.287   6.153
10674POPC   C1A71571   8.221  22.176   6.453
10674POPC   D2A71572   8.238  22.125   6.753
10674POPC   C3A71573   8.167  22.165   7.053
10674POPC   C4A71574   8.221  22.123   7.353
10674POPC   C1B71575   8.346  22.333   6.453
10674POPC   C2B71576   8.429  22.279   6.753
10674POPC   C3B71577   8.369  22.328   7.053
10674POPC   C4B71578   8.418  22.370   7.353
10675POPC   NC371579  11.337  14.376   5.553
10675POPC   PO471580  11.328  14.403   5.853
10675POPC   GL171581  11.324  14.379   6.153
10675POPC   GL271582  11.385  14.471   6.153
10675POPC   C1A71583  11.299  14.385   6.453
10675POPC   D2A71584  11.319  14.420   6.753
10675POPC   C3A71585  11.283  14.438   7.053
10675POPC   C4A71586  11.348  14.405   7.353
10675POPC   C1B71587  11.561  14.498   6.453
10675POPC   C2B71588  11.501  14.464   6.753
10675POPC   C3B71589  11.551  14.560   7.053
10675POPC   C4B71590  11.528  14.470   7.353
10676POPC   NC371591  24.517  27.567   5.553
10676POPC   PO471592  24.534  27.558   5.853
10676POPC   GL171593  24.499  27.604   6.153
10676POPC   GL271594  24.571  27.494   6.153
10676POPC   C1A71595  24.465  27.577   6.453
10676POPC   D2A71596  24.516  27.595   6.753
10676POPC   C3A71597  24.517  27.589   7.053
10676POPC   C4A71598  24.495  27.593   7.353
10676POPC   C1B71599  24.684  27.478   6.453
10676POPC   C2B71600  24.736  27.528   6.753
10676POPC   C3B71601  24.766  27.496   7.053
10676POPC   C4B71602  24.766  27.492   7.353
10677POPC   NC371603  35.378  17.459   5.553
10677POPC   PO471604  35.384  17.488   5.853
10677POPC   GL171605  35.383  17.557   6.153
10677POPC   GL271606  35.343  17.410   6.153
10677POPC   C1A71607  35.342  17.527   6.453
10677POPC   D2A71608  35.329  17.524   6.753
10677POPC   C3A71609  35.402  17.537   7.053
10677POPC   C4A71610  35.382  17.549   7.353
10677POPC   C1B71611  35.354  17.220   6.453
10677POPC   C2B71612  35.283  17.257   6.753
10677POPC   C3B71613  35.346  17.221   7.053
10677POPC   C4B71614  35.318  17.243   7.353
10678POPC   NC371615  42.356  31.440   5.553
10678POPC   PO471616  42.383  31.515   5.853
10678POPC   GL171617  42.375  31.440   6.153
10678POPC   GL271618  42.463  31.570   6.153
10678POPC   C1A71619  42.323  31.480   6.453
10678POPC   D2A71620  42.307  31.498   6.753
10678POPC   C3A71621  42.375  31.490   7.053
10678POPC   C4A71622  42.329  31.502   7.353
10678POPC   C1B71623  42.592  31.623   6.453
10678POPC   C2B71624  42.553  31.620   6.753
10678POPC   C3B71625  42.561  31.611   7.053
10678POPC   C4B71626  42.592  31.590   7.353
10679POPC   NC371627  44.641  22.976   5.553
10679POPC   PO471628  44.619  22.968   5.853
10679POPC   GL171629  44.645  22.927   6.153
10679POPC   GL271630  44.682  23.087   6.153
10679POPC   C1A71631  44.622  22.921   6.453
10679POPC   D2A71632  44.667  22.914   6.753
10679POPC   C3A71633  44.699  22.908   7.053
10679POPC   C4A71634  44.637  22.966   7.353
10679POPC   C1B71635  44.659  23.228   6.453
10679POPC   C2B71636  44.668  23.229   6.753
10679POPC   C3B71637  44.683  23.217   7.053
10679POPC   C4B71638  44.664  23.194   7.353
10680POPC   NC371639  40.738  25.257   5.553
10680POPC   PO471640  40.735  25.285   5.853
10680POPC   GL171641  40.832  25.229   6.153
10680POPC   GL271642  40.890  25.328   6.153
10680POPC   C1A71643  40.813  25.283   6.453
10680POPC   D2A71644  40.740  25.238   6.753
10680POPC   C3A71645  40.831  25.312   7.053
10680POPC   C4A71646  40.782  25.304   7.353
10680POPC   C1B71647  40.981  25.351   6.453
10680POPC   C2B71648  41.036  25.311   6.753
10680POPC   C3B71649  40.998  25.303   7.053
10680POPC   C4B71650  41.019  25.305   7.353
10681POPC   NC371651   4.352  39.998   5.553
10681POPC   PO471652   4.300  40.006   5.853
10681POPC   GL171653   4.321  39.966   6.153
10681POPC   GL271654   4.386  40.038   6.153
10681POPC   C1A71655   4.303  40.031   6.453
10681POPC   D2A71656   4.285  40.003   6.753
10681POPC   C3A71657   4.284  39.976   7.053
10681POPC   C4A71658   4.291  39.970   7.353
10681POPC   C1B71659   4.506  40.177   6.453
10681POPC   C2B71660   4.529  40.158   6.753
10681POPC   C3B71661   4.508  40.152   7.053
10681POPC   C4B71662   4.501  40.146   7.353
10682POPC   NC371663   8.962  16.723   5.553
10682POPC   PO471664   8.979  16.730   5.853
10682POPC   GL171665   8.955  16.731   6.153
10682POPC   GL271666   9.022  16.641   6.153
10682POPC   C1A71667   8.955  16.703   6.453
10682POPC   D2A71668   8.979  16.691   6.753
10682POPC   C3A71669   8.966  16.748   7.053
10682POPC   C4A71670   8.995  16.683   7.353
10682POPC   C1B71671   9.156  16.511   6.453
10682POPC   C2B71672   9.126  16.579   6.753
10682POPC   C3B71673   9.154  16.529   7.053
10682POPC   C4B71674   9.144  16.511   7.353
10683POPC   NC371675  21.358  37.646   5.553
10683POPC   PO471676  21.349  37.722   5.853
10683POPC   GL171677  21.404  37.675   6.153
10683POPC   GL271678  21.480  37.751   6.153
10683POPC   C1A71679  21.381  37.669   6.453
10683POPC   D2A71680  21.392  37.681   6.753
10683POPC   C3A71681  21.368  37.659   7.053
10683POPC   C4A71682  21.338  37.634   7.353
10683POPC   C1B71683  21.636  37.773   6.453
10683POPC   C2B71684  21.557  37.801   6.753
10683POPC   C3B71685  21.555  37.832   7.053
10683POPC   C4B71686  21.557  37.817   7.353
10684POPC   NC371687  32.985  29.118   5.553
10684POPC   PO471688  33.022  29.138   5.853
10684POPC   GL171689  33.049  29.136   6.153
10684POPC   GL271690  33.148  29.088   6.153
10684POPC   C1A71691  33.031  29.114   6.453
10684POPC   D2A71692  32.980  29.192   6.753
10684POPC   C3A71693  33.046  29.163   7.053
10684POPC   C4A71694  33.050  29.112   7.353
10684POPC   C1B71695  33.236  29.006   6.453
10684POPC   C2B71696  33.272  28.955   6.753
10684POPC   C3B71697  33.259  28.994   7.053
10684POPC   C4B71698  33.277  29.045   7.353
10685POPC   NC371699   9.700  14.434   5.553
10685POPC   PO471700   9.767  14.448   5.853
10685POPC   GL171701   9.718  14.411   6.153
10685POPC   GL271702   9.691  14.321   6.153
10685POPC   C1A71703   9.766  14.392   6.453
10685POPC   D2A71704   9.766  14.357   6.753
10685POPC   C3A71705   9.700  14.442   7.053
10685POPC   C4A71706   9.751  14.367   7.353
10685POPC   C1B71707   9.669  14.183   6.453
10685POPC   C2B71708   9.685  14.143   6.753
10685POPC   C3B71709   9.655  14.188   7.053
10685POPC   C4B71710   9.673  14.187   7.353
10686POPC   NC371711  17.472  35.378   5.553
10686POPC   PO471712  17.473  35.374   5.853
10686POPC   GL171713  17.505  35.358   6.153
10686POPC   GL271714  17.633  35.324   6.153
10686POPC   C1A71715  17.488  35.308   6.453
10686POPC   D2A71716  17.534  35.310   6.753
10686POPC   C3A71717  17.478  35.374   7.053
10686POPC   C4A71718  17.469  35.361   7.353
10686POPC   C1B71719  17.711  35.326   6.453
10686POPC   C2B71720  17.781  35.262   6.753
10686POPC   C3B71721  17.720  35.261   7.053
10686POPC   C4B71722  17.742  35.311   7.353
10687POPC   NC371723  30.702  43.149   5.553
10687POPC   PO471724  30.706  43.072   5.853
10687POPC   GL171725  30.709  43.122   6.153
10687POPC   GL271726  30.840  43.167   6.153
10687POPC   C1A71727  30.660  43.107   6.453
10687POPC   D2A71728  30.647  43.110   6.753
10687POPC   C3A71729  30.721  43.133   7.053
10687POPC   C4A71730  30.660  43.102   7.353
10687POPC   C1B71731  30.895  43.215   6.453
10687POPC   C2B71732  30.947  43.260   6.753
10687POPC   C3B71733  30.902  43.231   7.053
10687POPC   C4B71734  30.930  43.217   7.353
10688POPC   NC371735  10.550   5.884   5.553
10688POPC   PO471736  10.540   5.897   5.853
10688POPC   GL171737  10.564   5.826   6.153
10688POPC   GL271738  10.449   5.892   6.153
10688POPC   C1A71739  10.477   5.847   6.453
10688POPC   D2A71740  10.500   5.842   6.753
10688POPC   C3A71741  10.493   5.848   7.053
10688POPC   C4A71742  10.553   5.886   7.353
10688POPC   C1B71743  10.251   5.840   6.453
10688POPC   C2B71744  10.312   5.907   6.753
10688POPC   C3B71745  10.263   5.862   7.053
10688POPC   C4B71746  10.255   5.901   7.353
10689POPC   NC371747  43.876   1.998   5.553
10689POPC   PO471748  43.856   1.952   5.853
10689POPC   GL171749  43.906   1.992   6.153
10689POPC   GL271750  43.905   1.928   6.153
10689POPC   C1A71751  43.872   1.990   6.453
10689POPC   D2A71752  43.866   2.014   6.753
10689POPC   C3A71753  43.902   2.011   7.053
10689POPC   C4A71754  43.865   2.028   7.353
10689POPC   C1B71755  44.039   1.768   6.453
10689POPC   C2B71756  44.011   1.770   6.753
10689POPC   C3B71757  44.012   1.791   7.053
10689POPC   C4B71758  43.987   1.789   7.353
10690POPC   NC371759   5.078  17.464   5.553
10690POPC   PO471760   5.049  17.539   5.853
10690POPC   GL171761   5.117  17.505   6.153
10690POPC   GL271762   5.178  17.394   6.153
10690POPC   C1A71763   5.076  17.512   6.453
10690POPC   D2A71764   5.142  17.510   6.753
10690POPC   C3A71765   5.140  17.513   7.053
10690POPC   C4A71766   5.134  17.553   7.353
10690POPC   C1B71767   5.250  17.260   6.453
10690POPC   C2B71768   5.275  17.254   6.753
10690POPC   C3B71769   5.188  17.307   7.053
10690POPC   C4B71770   5.265  17.325   7.353
10691POPC   NC371771  26.802  36.098   5.553
10691POPC   PO471772  26.805  36.091   5.853
10691POPC   GL171773  26.788  36.082   6.153
10691POPC   GL271774  26.731  36.146   6.153
10691POPC   C1A71775  26.786  36.147   6.453
10691POPC   D2A71776  26.851  36.171   6.753
10691POPC   C3A71777  26.808  36.116   7.053
10691POPC   C4A71778  26.800  36.146   7.353
10691POPC   C1B71779  26.595  36.183   6.453
10691POPC   C2B71780  26.607  36.212   6.753
10691POPC   C3B71781  26.617  36.194   7.053
10691POPC   C4B71782  26.592  36.209   7.353
10692POPC   NC371783  13.599  26.020   5.553
10692POPC   PO471784  13.594  26.081   5.853
10692POPC   GL171785  13.634  26.017   6.153
10692POPC   GL271786  13.677  25.935   6.153
10692POPC   C1A71787  13.653  26.014   6.453
10692POPC   D2A71788  13.608  26.005   6.753
10692POPC   C3A71789  13.654  26.051   7.053
10692POPC   C4A71790  13.605  26.045   7.353
10692POPC   C1B71791  13.685  25.816   6.453
10692POPC   C2B71792  13.713  25.812   6.753
10692POPC   C3B71793  13.695  25.772   7.053
10692POPC   C4B71794  13.692  25.786   7.353
10693POPC   NC371795   6.687  22.172   5.553
10693POPC   PO471796   6.692  22.202   5.853
10693POPC   GL171797   6.657  22.180   6.153
10693POPC   GL271798   6.482  22.115   6.153
10693POPC   C1A71799   6.646  22.149   6.453
10693POPC   D2A71800   6.681  22.148   6.753
10693POPC   C3A71801   6.673  22.123   7.053
10693POPC   C4A71802   6.620  22.181   7.353
10693POPC   C1B71803   6.381  22.113   6.453
10693POPC   C2B71804   6.408  22.144   6.753
10693POPC   C3B71805   6.366  22.113   7.053
10693POPC   C4B71806   6.436  22.095   7.353
10694POPC   NC371807   4.272  42.298   5.553
10694POPC   PO471808   4.268  42.322   5.853
10694POPC   GL171809   4.308  42.380   6.153
10694POPC   GL271810   4.231  42.429   6.153
10694POPC   C1A71811   4.323  42.298   6.453
10694POPC   D2A71812   4.287  42.378   6.753
10694POPC   C3A71813   4.303  42.372   7.053
10694POPC   C4A71814   4.294  42.328   7.353
10694POPC   C1B71815   4.098  42.493   6.453
10694POPC   C2B71816   4.170  42.512   6.753
10694POPC   C3B71817   4.156  42.484   7.053
10694POPC   C4B71818   4.142  42.523   7.353
10695POPC   NC371819   1.238  26.827   5.553
10695POPC   PO471820   1.244  26.795   5.853
10695POPC   GL171821   1.248  26.798   6.153
10695POPC   GL271822   1.202  26.897   6.153
10695POPC   C1A71823   1.234  26.770   6.453
10695POPC   D2A71824   1.231  26.814   6.753
10695POPC   C3A71825   1.257  26.798   7.053
10695POPC   C4A71826   1.238  26.798   7.353
10695POPC   C1B71827   1.235  27.052   6.453
10695POPC   C2B71828   1.210  27.076   6.753
10695POPC   C3B71829   1.242  27.096   7.053
10695POPC   C4B71830   1.238  27.079   7.353
10696POPC   NC371831  27.594  18.312   5.553
10696POPC   PO471832  27.639  18.253   5.853
10696POPC   GL171833  27.636  18.301   6.153
10696POPC   GL271834  27.431  18.318   6.153
10696POPC   C1A71835  27.615  18.265   6.453
10696POPC   D2A71836  27.595  18.237   6.753
10696POPC   C3A71837  27.640  18.314   7.053
10696POPC   C4A71838  27.546  18.264   7.353
10696POPC   C1B71839  27.338  18.310   6.453
10696POPC   C2B71840  27.338  18.361   6.753
10696POPC   C3B71841  27.300  18.318   7.053
10696POPC   C4B71842  27.355  18.290   7.353
10697POPC   NC371843  19.871  39.182   5.553
10697POPC   PO471844  19.877  39.274   5.853
10697POPC   GL171845  19.869  39.247   6.153
10697POPC   GL271846  19.878  39.405   6.153
10697POPC   C1A71847  19.809  39.207   6.453
10697POPC   D2A71848  19.849  39.273   6.753
10697POPC   C3A71849  19.852  39.243   7.053
10697POPC   C4A71850  19.818  39.276   7.353
10697POPC   C1B71851  19.863  39.531   6.453
10697POPC   C2B71852  19.855  39.500   6.753
10697POPC   C3B71853  19.802  39.465   7.053
10697POPC   C4B71854  19.859  39.466   7.353
10698POPC   NC371855  39.219  40.745   5.553
10698POPC   PO471856  39.190  40.781   5.853
10698POPC   GL171857  39.259  40.821   6.153
10698POPC   GL271858  39.276  40.673   6.153
10698POPC   C1A71859  39.274  40.818   6.453
10698POPC   D2A71860  39.236  40.831   6.753
10698POPC   C3A71861  39.245  40.820   7.053
10698POPC   C4A71862  39.211  40.768   7.353
10698POPC   C1B71863  39.310  40.520   6.453
10698POPC   C2B71864  39.304  40.562   6.753
10698POPC   C3B71865  39.318  40.560   7.053
10698POPC   C4B71866  39.270  40.550   7.353
10699POPC   NC371867  39.273   9.010   5.553
10699POPC   PO471868  39.234   8.947   5.853
10699POPC   GL171869  39.233   8.929   6.153
10699POPC   GL271870  39.096   9.008   6.153
10699POPC   C1A71871  39.257   8.970   6.453
10699POPC   D2A71872  39.249   8.987   6.753
10699POPC   C3A71873  39.226   8.953   7.053
10699POPC   C4A71874  39.190   8.998   7.353
10699POPC   C1B71875  38.942   9.000   6.453
10699POPC   C2B71876  39.019   8.923   6.753
10699POPC   C3B71877  39.030   8.993   7.053
10699POPC   C4B71878  38.987   8.978   7.353
10700POPC   NC371879  37.705  19.854   5.553
10700POPC   PO471880  37.678  19.849   5.853
10700POPC   GL171881  37.685  19.883   6.153
10700POPC   GL271882  37.735  19.930   6.153
10700POPC   C1A71883  37.706  19.816   6.453
10700POPC   D2A71884  37.682  19.853   6.753
10700POPC   C3A71885  37.694  19.791   7.053
10700POPC   C4A71886  37.713  19.850   7.353
10700POPC   C1B71887  37.745  20.035   6.453
10700POPC   C2B71888  37.747  20.093   6.753
10700POPC   C3B71889  37.754  20.084   7.053
10700POPC   C4B71890  37.764  20.109   7.353
10701POPC   NC371891   7.392  35.304   5.553
10701POPC   PO471892   7.396  35.348   5.853
10701POPC   GL171893   7.374  35.363   6.153
10701POPC   GL271894   7.497  35.444   6.153
10701POPC   C1A71895   7.445  35.311   6.453
10701POPC   D2A71896   7.397  35.351   6.753
10701POPC   C3A71897   7.440  35.334   7.053
10701POPC   C4A71898   7.437  35.355   7.353
10701POPC   C1B71899   7.546  35.569   6.453
10701POPC   C2B71900   7.554  35.567   6.753
10701POPC   C3B71901   7.569  35.596   7.053
10701POPC   C4B71902   7.575  35.591   7.353
10702POPC   NC371903  38.428  37.662   5.553
10702POPC   PO471904  38.471  37.652   5.853
10702POPC   GL171905  38.502  37.635   6.153
10702POPC   GL271906  38.379  37.719   6.153
10702POPC   C1A71907  38.461  37.657   6.453
10702POPC   D2A71908  38.415  37.706   6.753
10702POPC   C3A71909  38.481  37.725   7.053
10702POPC   C4A71910  38.499  37.655   7.353
10702POPC   C1B71911  38.255  37.660   6.453
10702POPC   C2B71912  38.217  37.703   6.753
10702POPC   C3B71913  38.190  37.754   7.053
10702POPC   C4B71914  38.165  37.691   7.353
10703POPC   NC371915   8.979  27.550   5.553
10703POPC   PO471916   8.976  27.553   5.853
10703POPC   GL171917   8.922  27.615   6.153
10703POPC   GL271918   9.058  27.526   6.153
10703POPC   C1A71919   8.958  27.617   6.453
10703POPC   D2A71920   9.000  27.561   6.753
10703POPC   C3A71921   8.952  27.601   7.053
10703POPC   C4A71922   8.969  27.592   7.353
10703POPC   C1B71923   9.256  27.534   6.453
10703POPC   C2B71924   9.223  27.564   6.753
10703POPC   C3B71925   9.241  27.556   7.053
10703POPC   C4B71926   9.247  27.484   7.353
10704POPC   NC371927  27.562  36.926   5.553
10704POPC   PO471928  27.621  36.932   5.853
10704POPC   GL171929  27.596  36.927   6.153
10704POPC   GL271930  27.623  36.802   6.153
10704POPC   C1A71931  27.633  36.902   6.453
10704POPC   D2A71932  27.639  36.874   6.753
10704POPC   C3A71933  27.583  36.883   7.053
10704POPC   C4A71934  27.600  36.929   7.353
10704POPC   C1B71935  27.684  36.674   6.453
10704POPC   C2B71936  27.602  36.687   6.753
10704POPC   C3B71937  27.649  36.627   7.053
10704POPC   C4B71938  27.649  36.633   7.353
10705POPC   NC371939  25.275  42.377   5.553
10705POPC   PO471940  25.261  42.372   5.853
10705POPC   GL171941  25.239  42.305   6.153
10705POPC   GL271942  25.363  42.234   6.153
10705POPC   C1A71943  25.227  42.352   6.453
10705POPC   D2A71944  25.273  42.297   6.753
10705POPC   C3A71945  25.292  42.376   7.053
10705POPC   C4A71946  25.239  42.367   7.353
10705POPC   C1B71947  25.400  42.088   6.453
10705POPC   C2B71948  25.437  42.114   6.753
10705POPC   C3B71949  25.411  42.072   7.053
10705POPC   C4B71950  25.360  42.083   7.353
10706POPC   NC371951  43.102   1.217   5.553
10706POPC   PO471952  43.079   1.214   5.853
10706POPC   GL171953  43.125   1.207   6.153
10706POPC   GL271954  43.027   1.293   6.153
10706POPC   C1A71955  43.103   1.185   6.453
10706POPC   D2A71956  43.116   1.249   6.753
10706POPC   C3A71957  43.138   1.211   7.053
10706POPC   C4A71958  43.155   1.258   7.353
10706POPC   C1B71959  42.932   1.312   6.453
10706POPC   C2B71960  42.848   1.290   6.753
10706POPC   C3B71961  42.924   1.330   7.053
10706POPC   C4B71962  42.879   1.372   7.353
10707POPC   NC371963  36.114  21.338   5.553
10707POPC   PO471964  36.157  21.350   5.853
10707POPC   GL171965  36.138  21.378   6.153
10707POPC   GL271966  36.214  21.405   6.153
10707POPC   C1A71967  36.094  21.342   6.453
10707POPC   D2A71968  36.138  21.413   6.753
10707POPC   C3A71969  36.166  21.342   7.053
10707POPC   C4A71970  36.121  21.409   7.353
10707POPC   C1B71971  36.388  21.513   6.453
10707POPC   C2B71972  36.399  21.440   6.753
10707POPC   C3B71973  36.345  21.465   7.053
10707POPC   C4B71974  36.353  21.467   7.353
10708POPC   NC371975  34.559  26.862   5.553
10708POPC   PO471976  34.552  26.832   5.853
10708POPC   GL171977  34.586  26.853   6.153
10708POPC   GL271978  34.637  26.863   6.153
10708POPC   C1A71979  34.563  26.782   6.453
10708POPC   D2A71980  34.623  26.825   6.753
10708POPC   C3A71981  34.581  26.771   7.053
10708POPC   C4A71982  34.569  26.798   7.353
10708POPC   C1B71983  34.741  26.997   6.453
10708POPC   C2B71984  34.764  27.022   6.753
10708POPC   C3B71985  34.765  26.979   7.053
10708POPC   C4B71986  34.712  27.035   7.353
10709POPC   NC371987   2.039  15.906   5.553
10709POPC   PO471988   1.961  15.992   5.853
10709POPC   GL171989   2.022  16.002   6.153
10709POPC   GL271990   1.903  16.005   6.153
10709POPC   C1A71991   1.945  15.997   6.453
10709POPC   D2A71992   1.960  15.983   6.753
10709POPC   C3A71993   1.999  15.932   7.053
10709POPC   C4A71994   2.028  15.963   7.353
10709POPC   C1B71995   1.791  16.030   6.453
10709POPC   C2B71996   1.730  16.094   6.753
10709POPC   C3B71997   1.815  16.023   7.053
10709POPC   C4B71998   1.803  16.084   7.353
10710POPC   NC371999  40.776  37.695   5.553
10710POPC   PO472000  40.802  37.713   5.853
10710POPC   GL172001  40.780  37.726   6.153
10710POPC   GL272002  40.933  37.585   6.153
10710POPC   C1A72003  40.761  37.719   6.453
10710POPC   D2A72004  40.759  37.719   6.753
10710POPC   C3A72005  40.828  37.633   7.053
10710POPC   C4A72006  40.739  37.665   7.353
10710POPC   C1B72007  41.010  37.532   6.453
10710POPC   C2B72008  40.983  37.573   6.753
10710POPC   C3B72009  41.008  37.565   7.053
10710POPC   C4B72010  41.042  37.528   7.353
10711POPC   NC372011  40.771  42.289   5.553
10711POPC   PO472012  40.737  42.375   5.853
10711POPC   GL172013  40.771  42.313   6.153
10711POPC   GL272014  40.769  42.439   6.153
10711POPC   C1A72015  40.811  42.315   6.453
10711POPC   D2A72016  40.775  42.381   6.753
10711POPC   C3A72017  40.791  42.309   7.053
10711POPC   C4A72018  40.827  42.354   7.353
10711POPC   C1B72019  40.688  42.580   6.453
10711POPC   C2B72020  40.715  42.569   6.753
10711POPC   C3B72021  40.781  42.605   7.053
10711POPC   C4B72022  40.770  42.567   7.353
10712POPC   NC372023  38.501  30.736   5.553
10712POPC   PO472024  38.502  30.672   5.853
10712POPC   GL172025  38.441  30.740   6.153
10712POPC   GL272026  38.319  30.690   6.153
10712POPC   C1A72027  38.423  30.725   6.453
10712POPC   D2A72028  38.453  30.672   6.753
10712POPC   C3A72029  38.463  30.729   7.053
10712POPC   C4A72030  38.482  30.674   7.353
10712POPC   C1B72031  38.215  30.792   6.453
10712POPC   C2B72032  38.196  30.752   6.753
10712POPC   C3B72033  38.206  30.780   7.053
10712POPC   C4B72034  38.230  30.769   7.353
10713POPC   NC372035  26.081  20.654   5.553
10713POPC   PO472036  26.067  20.639   5.853
10713POPC   GL172037  26.028  20.636   6.153
10713POPC   GL272038  26.134  20.591   6.153
10713POPC   C1A72039  26.029  20.637   6.453
10713POPC   D2A72040  26.026  20.646   6.753
10713POPC   C3A72041  26.019  20.574   7.053
10713POPC   C4A72042  26.045  20.565   7.353
10713POPC   C1B72043  26.296  20.540   6.453
10713POPC   C2B72044  26.245  20.544   6.753
10713POPC   C3B72045  26.252  20.586   7.053
10713POPC   C4B72046  26.332  20.505   7.353
10714POPC   NC372047  11.346  19.871   5.553
10714POPC   PO472048  11.271  19.846   5.853
10714POPC   GL172049  11.344  19.787   6.153
10714POPC   GL272050  11.233  19.899   6.153
10714POPC   C1A72051  11.320  19.853   6.453
10714POPC   D2A72052  11.323  19.828   6.753
10714POPC   C3A72053  11.259  19.795   7.053
10714POPC   C4A72054  11.252  19.875   7.353
10714POPC   C1B72055  11.133  20.000   6.453
10714POPC   C2B72056  11.155  20.026   6.753
10714POPC   C3B72057  11.173  20.061   7.053
10714POPC   C4B72058  11.117  20.031   7.353
10715POPC   NC372059  25.310  15.137   5.553
10715POPC   PO472060  25.232  15.208   5.853
10715POPC   GL172061  25.293  15.185   6.153
10715POPC   GL272062  25.213  15.269   6.153
10715POPC   C1A72063  25.251  15.202   6.453
10715POPC   D2A72064  25.235  15.206   6.753
10715POPC   C3A72065  25.305  15.221   7.053
10715POPC   C4A72066  25.288  15.137   7.353
10715POPC   C1B72067  25.199  15.401   6.453
10715POPC   C2B72068  25.207  15.420   6.753
10715POPC   C3B72069  25.183  15.421   7.053
10715POPC   C4B72070  25.264  15.449   7.353
10716POPC   NC372071  22.117  43.067   5.553
10716POPC   PO472072  22.133  43.145   5.853
10716POPC   GL172073  22.162  43.145   6.153
10716POPC   GL272074  22.264  43.017   6.153
10716POPC   C1A72075  22.161  43.136   6.453
10716POPC   D2A72076  22.138  43.109   6.753
10716POPC   C3A72077  22.178  43.145   7.053
10716POPC   C4A72078  22.207  43.138   7.353
10716POPC   C1B72079  22.342  42.938   6.453
10716POPC   C2B72080  22.339  42.950   6.753
10716POPC   C3B72081  22.378  42.954   7.053
10716POPC   C4B72082  22.318  42.945   7.353
10717POPC   NC372083  32.991   8.229   5.553
10717POPC   PO472084  33.014   8.211   5.853
10717POPC   GL172085  33.054   8.160   6.153
10717POPC   GL272086  32.969   8.312   6.153
10717POPC   C1A72087  33.073   8.176   6.453
10717POPC   D2A72088  33.050   8.166   6.753
10717POPC   C3A72089  33.033   8.200   7.053
10717POPC   C4A72090  33.000   8.209   7.353
10717POPC   C1B72091  32.944   8.401   6.453
10717POPC   C2B72092  32.965   8.404   6.753
10717POPC   C3B72093  32.953   8.447   7.053
10717POPC   C4B72094  32.932   8.437   7.353
10718POPC   NC372095  31.507  36.890   5.553
10718POPC   PO472096  31.509  36.868   5.853
10718POPC   GL172097  31.436  36.884   6.153
10718POPC   GL272098  31.393  36.781   6.153
10718POPC   C1A72099  31.429  36.912   6.453
10718POPC   D2A72100  31.437  36.925   6.753
10718POPC   C3A72101  31.475  36.940   7.053
10718POPC   C4A72102  31.512  36.945   7.353
10718POPC   C1B72103  31.326  36.719   6.453
10718POPC   C2B72104  31.404  36.670   6.753
10718POPC   C3B72105  31.396  36.663   7.053
10718POPC   C4B72106  31.401  36.728   7.353
10719POPC   NC372107  30.744  35.348   5.553
10719POPC   PO472108  30.670  35.303   5.853
10719POPC   GL172109  30.654  35.375   6.153
10719POPC   GL272110  30.779  35.289   6.153
10719POPC   C1A72111  30.721  35.399   6.453
10719POPC   D2A72112  30.703  35.368   6.753
10719POPC   C3A72113  30.726  35.316   7.053
10719POPC   C4A72114  30.675  35.311   7.353
10719POPC   C1B72115  30.862  35.109   6.453
10719POPC   C2B72116  30.880  35.114   6.753
10719POPC   C3B72117  30.894  35.182   7.053
10719POPC   C4B72118  30.822  35.134   7.353
10720POPC   NC372119  32.998  41.573   5.553
10720POPC   PO472120  33.021  41.598   5.853
10720POPC   GL172121  33.060  41.518   6.153
10720POPC   GL272122  32.927  41.431   6.153
10720POPC   C1A72123  32.978  41.602   6.453
10720POPC   D2A72124  32.988  41.574   6.753
10720POPC   C3A72125  33.049  41.559   7.053
10720POPC   C4A72126  33.033  41.585   7.353
10720POPC   C1B72127  32.921  41.327   6.453
10720POPC   C2B72128  32.869  41.298   6.753
10720POPC   C3B72129  32.949  41.358   7.053
10720POPC   C4B72130  32.898  41.333   7.353
10721POPC   NC372131  35.332  12.086   5.553
10721POPC   PO472132  35.341  12.090   5.853
10721POPC   GL172133  35.329  12.100   6.153
10721POPC   GL272134  35.322  11.955   6.153
10721POPC   C1A72135  35.351  12.041   6.453
10721POPC   D2A72136  35.336  12.068   6.753
10721POPC   C3A72137  35.314  12.047   7.053
10721POPC   C4A72138  35.345  12.045   7.353
10721POPC   C1B72139  35.303  11.833   6.453
10721POPC   C2B72140  35.256  11.832   6.753
10721POPC   C3B72141  35.240  11.861   7.053
10721POPC   C4B72142  35.251  11.821   7.353
10722W        W72143   2.401  21.211  10.553
10723W        W72144  11.676  28.957  14.306
10724W        W72145  26.190  20.641  12.460
10725W        W72146   3.247   8.236   3.812
10726W        W72147  33.625  37.361   4.773
10727W        W72148   6.885  29.479  14.933
10728W        W72149  17.648  35.457  11.532
10729W        W72150  13.241  20.685   0.341
10730W        W72151  29.074  23.011  11.502
10731W        W72152  38.936  26.585  12.499
10732W        W72153   7.897   4.357   4.659
10733W        W72154  40.948  35.876  14.007
10734W        W72155  34.581  11.348  11.544
10735W        W72156  26.053  13.178  13.357
10736W        W72157  29.046  35.570   0.438
10737W        W72158  20.174  20.686   4.283
10738W        W72159  27.174  41.970   2.275
10739W        W72160  16.709  44.473  11.482
10740W        W72161  14.161  29.016   0.324
10741W        W72162  40.401   2.777   4.135
10742W        W72163  23.157  17.788   4.207
10743W        W72164  14.720  14.765  11.381
10744W        W72165  33.420  14.187   0.851
10745W        W72166  11.316  10.244  14.295
10746W        W72167   2.932  11.852   4.140
10747W        W72168   4.222  41.892   0.951
10748W        W72169  40.832  19.633   0.429
10749W        W72170  31.982  13.330  13.344
10750W        W72171   1.366  10.252   4.749
10751W        W72172  21.065  34.495  12.556
10752W        W72173   8.351   3.405  10.591
10753W        W72174  20.137  28.140  14.365
10754W        W72175  38.477  17.623   3.839
10755W        W72176  25.615  40.459   0.421
10756W        W72177  42.955  41.991  12.029
10757W        W72178  26.142   2.746   2.718
10758W        W72179  30.629  36.988  14.374
10759W        W72180  14.616  14.147  14.935
10760W        W72181   9.230  39.510  11.589
10761W        W72182  29.978  35.392   0.820
10762W        W72183  34.518  13.664   0.357
10763W        W72184   8.361   6.357   3.648
10764W        W72185  39.972  16.700  14.468
10765W        W72186  32.442   0.316  12.529
10766W        W72187  32.470  18.578   3.749
10767W        W72188   8.772  14.758  11.959
10768W        W72189  10.221  37.876   1.826
10769W        W72190  31.980  26.619   5.154
10770W        W72191  15.145   5.412   1.892
10771W        W72192  20.094  29.642   0.953
10772W        W72193   6.687  25.565  12.050
10773W        W72194  28.478   4.737  14.793
10774W        W72195  33.988  21.211   4.177
10775W        W72196  34.604  32.483  14.468
10776W        W72197  44.822  15.664  11.085
10777W        W72198  19.643  11.330  10.457
10778W        W72199  25.560  40.865  14.505
10779W        W72200  31.495   1.444  13.039
10780W        W72201  14.645  15.243  10.900
10781W        W72202  21.022  42.342  11.857
10782W        W72203  11.239  19.047   2.418
10783W        W72204  21.662   9.223   3.769
10784W        W72205   7.406  31.413  13.461
10785W        W72206  10.154   4.913   2.852
10786W        W72207  10.331  30.585   4.720
10787W        W72208  24.104  38.361   1.912
10788W        W72209  18.651  41.965  12.975
10789W        W72210  34.924  13.746  12.041
10790W        W72211  37.534  30.570  11.576
10791W        W72212  24.198  31.143   1.350
10792W        W72213  11.372  32.456  13.925
10793W        W72214   6.890  40.484  14.457
10794W        W72215   0.377   8.674  11.549
10795W        W72216  26.984  42.483  10.555
10796W        W72217  29.149  33.542  14.976
10797W        W72218   1.914  26.536   4.205
10798W        W72219  19.073  29.591  12.879
10799W        W72220  16.658  32.391  12.875
10800W        W72221   3.399  15.123  11.407
10801W        W72222   6.334  37.532  11.038
10802W        W72223  22.199  42.957  12.529
10803W        W72224  18.253   2.943  13.512
10804W        W72225  14.336  29.427   4.662
10805W        W72226   9.753   6.756   1.758
10806W        W72227  11.769   9.215  10.453
10807W        W72228  19.753  13.661   1.902
10808W        W72229   0.866  16.193   2.844
10809W        W72230  42.382  20.591  14.334
10810W        W72231  25.061  42.827  13.362
10811W        W72232  28.159  26.592   0.825
10812W        W72233  31.579   8.818  12.008
10813W        W72234  31.608  28.130  14.884
10814W        W72235  14.627  22.154  12.513
10815W        W72236  16.574   2.821  14.393
10816W        W72237  17.099  40.350  14.419
10817W        W72238   3.820  28.148   4.765
10818W        W72239  24.169  12.321   2.310
10819W        W72240   8.230  11.777   0.907
10820W        W72241   5.362  31.943  12.951
10821W        W72242  38.074  14.109   2.396
10822W        W72243  32.133   7.784   4.190
10823W        W72244  44.311  18.077   4.169
10824W        W72245  36.559  21.109   2.805
10825W        W72246  30.520  25.065  12.933
10826W        W72247   5.865  43.863  10.463
10827W        W72248  28.585  12.343   4.711
10828W        W72249  20.637   7.802   3.767
10829W        W72250  32.468   9.782  10.928
10830W        W72251  14.707  41.845  13.955
10831W        W72252  29.078  22.731   3.829
10832W        W72253  20.526  32.058  13.447
10833W        W72254  39.940  35.584   3.739
10834W        W72255  32.475  15.778   4.819
10835W        W72256   1.914  21.125   0.440
10836W        W72257  40.544  24.155   3.859
10837W        W72258   2.260   8.861   2.395
10838W        W72259  13.717   6.230   2.414
10839W        W72260  41.822  39.421  13.803
10840W        W72261   1.464  26.580   1.747
10841W        W72262  15.709  29.949   4.269
10842W        W72263  28.506  23.206  11.466
10843W        W72264   1.953  28.160  10.478
10844W        W72265  38.418  28.031  10.960
10845W        W72266  34.093  10.682  12.460
10846W        W72267   9.818  40.022   0.468
10847W        W72268  27.151   3.714  13.048
10848W        W72269  34.120  35.398  12.983
10849W        W72270   5.932  25.702  13.959
10850W        W72271   6.851  23.562   4.768
10851W        W72272   7.695  22.525  11.518
10852W        W72273   7.760  37.477  14.987
10853W        W72274  28.019  14.600  14.503
10854W        W72275   9.199  43.889   0.460
10855W        W72276  42.965   9.287  13.940
10856W        W72277  13.641  29.098  11.372
10857W        W72278   7.856  37.970  10.464
10858W        W72279   7.666  41.475  13.980
10859W        W72280  19.630  19.042  14.807
10860W        W72281   3.793   7.715  11.948
10861W        W72282   7.263  20.747  13.906
10862W        W72283  16.728  37.487   5.217
10863W        W72284  14.200  40.339   0.293
10864W        W72285  24.980   5.362   5.799
10865W        W72286   8.209  19.700  14.286
10866W        W72287   1.876  30.118   5.203
10867W        W72288  16.661  41.394   3.632
10868W        W72289  25.966  37.435   2.795
10869W        W72290   5.242  41.375  10.141
10870W        W72291  15.159   7.200   1.920
10871W        W72292  15.750  39.534   1.844
10872W        W72293   4.237  44.860  12.508
10873W        W72294  26.578  34.977  13.009
10874W        W72295  26.962  26.983   3.858
10875W        W72296   9.861  24.117   3.753
10876W        W72297  36.919  42.473   2.318
10877W        W72298  40.303  31.581   0.366
10878W        W72299  36.494  16.631  13.530
10879W        W72300  41.014  11.284  10.473
10880W        W72301   0.306   6.816   0.445
10881W        W72302  17.782  16.748   2.370
10882W        W72303  33.403  32.966   0.359
10883W        W72304  10.819  12.353  14.788
10884W        W72305  37.515  10.275   2.217
10885W        W72306  14.740  22.591   0.757
10886W        W72307  35.065  36.572   1.724
10887W        W72308  44.952  20.241   3.630
10888W        W72309  19.618   8.838  11.041
10889W        W72310   5.920  27.651  14.367
10890W        W72311   2.302   4.277  13.390
10891W        W72312  16.298  23.706  14.315
10892W        W72313  44.301   9.387  13.477
10893W        W72314  35.040  44.846  10.505
10894W        W72315  41.801   5.196   1.318
10895W        W72316   3.946   8.169   0.867
10896W        W72317   0.464  41.429  11.947
10897W        W72318  32.124  13.621   2.792
10898W        W72319  21.623  10.767   0.753
10899W        W72320   2.242  44.924   1.887
10900W        W72321   1.483  22.565  11.434
10901W        W72322  37.961   1.448   1.824
10902W        W72323  15.646   9.856  10.943
10903W        W72324   5.837   3.711   0.335
10904W        W72325  13.320   0.807   4.331
10905W        W72326  12.771  13.670  14.408
10906W        W72327   8.716  35.382   2.723
10907W        W72328   7.385  23.653  12.512
10908W        W72329  14.623  22.583  11.469
10909W        W72330  12.721  12.223  14.828
10910W        W72331  33.079  23.590   0.396
10911W        W72332  30.953  17.174   2.785
10912W        W72333  27.528  10.757  13.937
10913W        W72334  22.236  22.148  13.411
10914W        W72335  29.077  39.402   4.757
10915W        W72336  30.062  11.134   4.660
10916W        W72337  11.256  36.451   0.956
10917W        W72338   3.423  13.688   2.273
10918W        W72339   8.332   1.376   1.352
10919W        W72340  15.822  28.665   2.242
10920W        W72341  32.020   6.199   0.766
10921W        W72342  12.631  23.061  10.428
10922W        W72343  34.026   9.350   4.699
10923W        W72344   9.683  35.891   0.763
10924W        W72345   1.454   5.323  14.374
10925W        W72346  10.835  36.958  14.395
10926W        W72347  26.976  44.378  11.865
10927W        W72348  39.414  23.529   4.351
10928W        W72349   1.941  22.174   3.299
10929W        W72350  19.656  14.658  11.376
10930W        W72351  42.372  44.815   1.311
10931W        W72352  29.491  42.426   1.713
10932W        W72353   2.829  22.518  13.936
10933W        W72354  18.612  29.648   1.384
10934W        W72355  33.389  43.486  13.519
10935W        W72356  12.150  36.557   3.771
10936W        W72357  44.971  27.610   1.388
10937W        W72358  41.333  23.642  11.584
10938W        W72359  28.443  31.430  11.020
10939W        W72360  35.014  27.123   0.862
10940W        W72361  11.768   1.395  14.496
10941W        W72362  14.635  23.489  11.386
10942W        W72363   4.795  27.614   3.711
10943W        W72364  15.121  27.496   4.338
10944W        W72365   7.321  15.629   0.415
10945W        W72366  35.975  23.629  13.888
10946W        W72367  25.618  17.696   3.346
10947W        W72368  30.910  32.036   1.437
10948W        W72369  20.252  21.671   3.242
10949W        W72370  39.407  30.623  11.987
10950W        W72371   3.885  22.067  14.989
10951W        W72372  33.567  18.755  13.998
10952W        W72373  16.148  11.780   2.778
10953W        W72374  32.039  31.074   4.662
10954W        W72375  37.039   7.768  11.007
10955W        W72376  30.458  36.070  10.632
10956W        W72377   3.785  35.872  13.958
10957W        W72378  29.919  10.281  10.637
10958W        W72379  35.938   8.337   0.863
10959W        W72380  12.724   4.249  10.607
10960W        W72381  32.102  12.311  13.901
10961W        W72382  28.503   0.463   4.611
10962W        W72383  12.766  42.010   1.779
10963W        W72384  32.107  37.901  13.348
10964W        W72385  42.425   0.777  13.982
10965W        W72386  27.614  40.426   2.858
10966W        W72387  39.351  16.248   3.691
10967W        W72388   0.395   7.668  12.942
10968W        W72389  29.596   2.807  11.985
10969W        W72390   4.213   7.899  10.520
10970W        W72391  21.250  20.694   1.814
10971W        W72392  41.492  17.588   3.728
10972W        W72393   2.753  13.163  10.495
10973W        W72394   2.964  17.693  10.984
10974W        W72395  20.270  24.117   4.270
10975W        W72396  40.320  38.881   1.778
10976W        W72397  40.906  22.059  11.451
10977W        W72398   0.758  10.309   0.248
10978W        W72399   5.817  34.897  14.379
10979W        W72400   6.755  35.026  12.993
10980W        W72401  12.147  38.330  13.026
10981W        W72402  14.634  17.256   4.818
10982W        W72403   3.377  33.447   3.701
10983W        W72404  19.111   9.282  11.010
10984W        W72405  40.411  11.191   3.708
10985W        W72406  37.425  38.349  14.998
10986W        W72407  35.956  18.054   1.934
10987W        W72408  17.798   7.258   4.811
10988W        W72409  28.018   4.374   1.934
10989W        W72410  24.991  22.146  12.012
10990W        W72411  18.113  26.019  10.570
10991W        W72412  40.895  28.134   4.824
10992W        W72413  28.051  28.967  13.991
10993W        W72414  11.306   6.265  14.395
10994W        W72415  32.024  41.532  13.336
10995W        W72416  37.523  32.095   2.372
10996W        W72417  44.753  25.578   0.799
10997W        W72418  21.664  30.459   1.872
10998W        W72419   0.907  35.905   9.998
10999W        W72420   3.261  24.203   4.712
11000W        W72421  26.613  26.112   1.388
11001W        W72422  19.662  42.842   0.784
11002W        W72423  32.603  22.014   4.317
11003W        W72424   2.404  15.265  10.469
11004W        W72425  38.415  18.652   1.445
11005W        W72426  35.043   4.422   0.342
11006W        W72427  30.576   5.345   0.865
11007W        W72428  13.769  10.149   4.155
11008W        W72429  28.121  30.577  14.779
11009W        W72430  42.416  20.552  11.400
11010W        W72431  24.194   1.736   4.666
11011W        W72432   1.960  44.931   3.152
11012W        W72433   3.287  41.915  13.924
11013W        W72434  28.060  12.681  13.970
11014W        W72435   9.224  41.959  12.570
11015W        W72436  40.425  17.172  11.861
11016W        W72437  32.002  36.972  11.454
11017W        W72438   2.320  18.678  11.008
11018W        W72439  10.700   9.186  12.348
11019W        W72440   1.947  14.788  11.545
11020W        W72441  44.273  30.120   1.890
11021W        W72442  33.050  28.441   0.418
11022W        W72443  16.811  28.536   3.687
11023W        W72444   9.197  36.420   4.120
11024W        W72445  16.738  23.666  12.354
11025W        W72446   7.196  26.163  11.862
11026W        W72447  16.716  39.868   2.785
11027W        W72448  40.462  23.156  12.389
11028W        W72449  42.883  13.175  12.016
11029W        W72450  28.068  29.639   1.865
11030W        W72451   0.974  21.051  13.930
11031W        W72452  31.506  13.165  14.452
11032W        W72453   7.675  25.211   4.183
11033W        W72454  30.053   1.275   1.282
11034W        W72455  26.095   6.700   1.325
11035W        W72456  42.995   4.878  14.320
11036W        W72457  39.831  22.697  11.428
11037W        W72458  34.003  37.525   2.888
11038W        W72459  43.810  43.441  12.085
11039W        W72460  17.565  22.069  10.422
11040W        W72461  16.255  25.607   1.343
11041W        W72462  40.536  25.201  11.474
11042W        W72463  30.637  42.999   0.777
11043W        W72464  26.139  23.666   0.374
11044W        W72465  25.598  40.888  13.816
11045W        W72466  22.697  42.944   1.834
11046W        W72467   5.318  34.549  14.758
11047W        W72468   4.245  38.421   1.237
11048W        W72469  39.003  19.600   9.991
11049W        W72470  21.200   1.246   0.766
11050W        W72471  32.908  20.065  10.567
11051W        W72472  26.006   4.368  13.361
11052W        W72473   6.384   5.395  13.929
11053W        W72474  18.134  16.616   3.863
11054W        W72475  38.524  41.419  14.369
11055W        W72476   0.288  31.492  14.963
11056W        W72477  29.071  27.611   3.753
11057W        W72478   8.800  12.754  13.372
11058W        W72479   1.883  22.187  13.019
11059W        W72480  15.183  22.698   2.333
11060W        W72481  16.206  32.983   0.895
11061W        W72482  42.810  21.051  12.907
11062W        W72483  44.258  21.675  14.491
11063W        W72484   5.209   4.409   1.915
11064W        W72485  19.126  32.053  13.518
11065W        W72486  36.509  43.846  14.894
11066W        W72487  36.963  36.949   0.857
11067W        W72488  39.822  13.206   0.741
11068W        W72489  35.015  31.561  14.944
11069W        W72490  16.299   4.379  11.444
11070W        W72491  40.990  17.642   2.787
11071W        W72492  39.979  17.258   5.243
11072W        W72493  27.661  20.208  11.948
11073W        W72494  15.219  25.484  11.050
11074W        W72495  30.153  30.955   1.928
11075W        W72496   4.838  12.314  10.558
11076W        W72497  34.510   2.927   3.827
11077W        W72498  33.611  39.828  11.411
11078W        W72499  26.022  19.669   1.814
11079W        W72500  22.572  28.096   2.877
11080W        W72501   1.816   5.729   4.224
11081W        W72502   2.952  20.229  12.997
11082W        W72503  32.084  22.035  11.452
11083W        W72504   1.446  44.974   1.696
11084W        W72505  17.299   3.303  14.809
11085W        W72506  28.117  18.694   1.414
11086W        W72507   3.738  26.521  11.527
11087W        W72508  14.640  40.873  13.458
11088W        W72509  13.189  17.247  13.310
11089W        W72510   5.921  43.512  10.455
11090W        W72511  16.215  30.134   3.192
11091W        W72512  19.743  39.854   3.833
11092W        W72513   4.306  36.454  10.568
11093W        W72514  28.097   4.828  12.375
11094W        W72515  19.232  41.403   0.899
11095W        W72516  22.675  15.775   0.858
11096W        W72517  40.521   7.208  11.387
11097W        W72518  13.154  22.581   0.478
11098W        W72519  30.496  24.216   1.935
11099W        W72520  17.661  36.026  14.459
11100W        W72521  25.645   9.735   0.849
11101W        W72522  24.601  17.273   1.261
11102W        W72523  12.707  32.889   0.452
11103W        W72524  12.129  24.228  11.436
11104W        W72525  33.540  30.030  11.448
11105W        W72526  29.561   3.730  13.526
11106W        W72527  33.529  12.124  13.471
11107W        W72528  39.868  20.551   4.801
11108W        W72529  21.548  25.484   1.746
11109W        W72530  44.294  10.814   2.820
11110W        W72531  10.312  11.294  12.074
11111W        W72532  20.587  10.708   0.257
11112W        W72533  39.459  13.120   0.463
11113W        W72534   3.385  40.931   4.675
11114W        W72535  13.338   9.190   0.292
11115W        W72536   7.247   0.387  11.473
11116W        W72537  24.678  22.096  13.529
11117W        W72538  37.463  39.861   3.669
11118W        W72539  26.553  23.556  14.997
11119W        W72540  10.248  29.658   0.341
11120W        W72541   9.294   0.946  13.937
11121W        W72542   7.770  36.481   5.271
11122W        W72543   7.794  32.015   0.900
11123W        W72544  35.549   8.876  12.994
11124W        W72545  15.250   4.924  11.017
11125W        W72546  30.490  22.578  12.030
11126W        W72547  20.198  23.198  11.901
11127W        W72548  20.553   5.405  13.407
11128W        W72549  44.872  31.139   3.666
11129W        W72550  42.337  28.103   3.756
11130W        W72551  19.683  31.961   1.229
11131W        W72552  25.999  39.518   4.755
11132W        W72553   9.368  21.660  13.510
11133W        W72554  17.257  37.963  12.041
11134W        W72555   7.901   3.311   1.278
11135W        W72556  12.786  35.502   4.752
11136W        W72557  38.517  35.531  12.964
11137W        W72558  25.186   8.364   2.208
11138W        W72559   7.839  22.012  14.498
11139W        W72560  32.493  16.201  13.988
11140W        W72561  38.913   4.380  12.870
11141W        W72562  13.731  37.045  11.391
11142W        W72563  32.531  23.594  14.454
11143W        W72564  11.622  29.666   5.263
11144W        W72565  30.619  42.366  11.532
11145W        W72566  10.753   1.475  14.900
11146W        W72567  37.082  12.240  14.939
11147W        W72568  16.581  14.730  10.073
11148W        W72569  34.603   9.886   1.377
11149W        W72570  17.217  11.206  12.459
11150W        W72571   6.346  20.678  14.305
11151W        W72572   4.370  34.016   2.249
11152W        W72573   1.257  12.640  11.111
11153W        W72574  35.452  25.643  12.873
11154W        W72575  21.670   9.811   0.268
11155W        W72576  14.214  34.403   0.889
11156W        W72577  20.201  18.717  13.822
11157W        W72578  14.707  39.447  10.581
11158W        W72579  14.648  28.620  11.918
11159W        W72580  39.035  23.532  14.511
11160W        W72581  36.004  14.120  14.820
11161W        W72582  21.632   9.867   3.161
11162W        W72583  35.512  19.589  13.452
11163W        W72584  20.730   4.297  14.003
11164W        W72585  32.110   1.883   4.670
11165W        W72586  31.548  36.465  11.425
11166W        W72587  19.734  32.526   4.187
11167W        W72588  39.556  32.512  13.483
11168W        W72589   4.313  41.384  14.437
11169W        W72590   8.884  42.921   3.662
11170W        W72591  35.461   2.335   0.450
11171W        W72592  18.140  33.038  12.570
11172W        W72593  10.647  40.871  12.997
11173W        W72594   0.894  34.001   3.196
11174W        W72595   2.775  21.751   3.318
11175W        W72596  30.431   2.296   3.230
11176W        W72597  32.567  22.670   3.225
11177W        W72598   2.746  12.260   0.766
11178W        W72599  38.912  17.800  13.495
11179W        W72600   6.368  27.008   1.244
11180W        W72601  40.307   3.867   4.170
11181W        W72602  28.536  32.566   2.187
11182W        W72603  33.395  25.120  12.082
11183W        W72604  27.113  32.419  12.424
11184W        W72605  28.590  34.018  12.499
11185W        W72606  16.220   6.779   2.855
11186W        W72607  28.064   2.441  12.851
11187W        W72608  40.516   4.861   2.209
11188W        W72609  38.916  12.129   2.850
11189W        W72610  31.122   5.720  14.882
11190W        W72611  20.090  16.642   2.889
11191W        W72612  12.681  24.051  12.994
11192W        W72613  41.384  32.117   5.270
11193W        W72614   4.423  17.294   1.215
11194W        W72615   0.904  18.779  12.976
11195W        W72616  29.660  26.578  12.891
11196W        W72617  26.107   0.816  14.396
11197W        W72618   8.888   9.172   1.750
11198W        W72619   5.752  27.576  12.944
11199W        W72620  25.164  19.563   4.268
11200W        W72621  39.448  24.007   2.809
11201W        W72622  17.115   4.781   3.856
11202W        W72623  34.950  38.041  11.445
11203W        W72624  17.144  32.922  12.419
11204W        W72625   3.291  29.652  11.530
11205W        W72626  31.625   8.686   4.250
11206W        W72627  29.023  15.757   0.744
11207W        W72628  11.183   8.348  11.947
11208W        W72629  17.255   1.804  11.547
11209W        W72630  24.670   2.440   4.712
11210W        W72631  11.846  41.797  11.442
11211W        W72632  34.538  27.649  10.629
11212W        W72633  31.598  40.914  13.516
11213W        W72634  32.031  35.942   1.425
11214W        W72635  10.800  33.940   4.265
11215W        W72636  29.048   6.869   3.155
11216W        W72637  40.807  22.114  11.103
11217W        W72638   1.285   6.266   1.277
11218W        W72639   2.234  43.982  13.858
11219W        W72640  44.774  38.489  14.319
11220W        W72641  38.486  32.483  12.981
11221W        W72642  17.752  29.591  11.576
11222W        W72643  19.062  21.020  13.466
11223W        W72644  42.869  29.620   1.325
11224W        W72645  33.968  32.492  13.005
11225W        W72646  13.222  29.509   1.699
11226W        W72647   2.363   4.904   0.959
11227W        W72648  16.304  38.425   0.827
11228W        W72649  24.015  24.984   5.129
11229W        W72650  35.422   0.839   2.815
11230W        W72651   5.292  23.237   3.638
11231W        W72652  31.018  17.076  11.049
11232W        W72653  38.024  13.324  13.490
11233W        W72654  15.127   2.312  12.567
11234W        W72655  19.536  15.579   0.472
11235W        W72656  16.176   1.436   3.850
11236W        W72657  31.138  37.848   4.277
11237W        W72658  16.670  39.373   3.744
11238W        W72659  33.486   4.715  14.763
11239W        W72660  32.458  22.137  11.438
11240W        W72661  36.032  31.492   2.796
11241W        W72662  22.519   4.701   5.219
11242W        W72663  23.105  31.038  13.002
11243W        W72664   1.271  31.638   1.780
11244W        W72665  20.571  15.290   5.568
11245W        W72666  44.823  29.534   0.935
11246W        W72667   4.369  39.513  12.891
11247W        W72668  28.072   3.215   4.778
11248W        W72669   8.388  23.708  11.393
11249W        W72670  11.284  42.886   3.778
11250W        W72671  30.978  26.983   0.927
11251W        W72672  27.497  44.805   3.849
11252W        W72673  14.283  11.630  14.019
11253W        W72674  23.109  38.070   0.816
11254W        W72675   1.837  20.637   1.426
11255W        W72676  30.954  27.010  11.019
11256W        W72677  43.272   3.800   1.851
11257W        W72678  25.144  28.532  10.636
11258W        W72679  22.553  22.585   2.870
11259W        W72680   6.360   3.392  14.504
11260W        W72681   4.886  23.515   5.307
11261W        W72682   6.724  19.746  13.338
11262W        W72683  19.184  28.012  11.093
11263W        W72684  14.135  31.580  14.796
11264W        W72685  13.713  40.026  14.311
11265W        W72686  31.920  10.736   2.384
11266W        W72687  18.098   9.290   4.693
11267W        W72688  30.118  31.615   2.355
11268W        W72689  38.068  31.476   4.292
11269W        W72690  27.034   3.240  11.499
11270W        W72691  11.844  10.246   5.097
11271W        W72692  35.598  26.162   4.711
11272W        W72693  30.078  36.026   1.780
11273W        W72694   2.940  13.678   4.646
11274W        W72695  18.101   6.254  11.484
11275W        W72696  24.611  35.488   0.864
11276W        W72697  11.756  33.982  13.441
11277W        W72698  12.661  21.235   2.399
11278W        W72699  24.657  13.203   1.316
11279W        W72700  32.998  22.044   0.931
11280W        W72701  26.171  11.634   4.241
11281W        W72702  27.086  43.373  13.392
11282W        W72703   5.404   9.152  13.975
11283W        W72704  12.235  29.643  13.856
11284W        W72705  24.619   7.263  10.898
11285W        W72706  34.986   7.804  11.601
11286W        W72707  27.048   2.864  11.457
11287W        W72708   6.338  41.429   2.245
11288W        W72709   8.880  12.217   0.900
11289W        W72710  15.158   3.414   0.404
11290W        W72711  21.061  44.464   5.163
11291W        W72712  35.925   8.317  12.398
11292W        W72713  30.447  12.298  12.393
11293W        W72714  30.015  23.128  13.045
11294W        W72715   7.763  37.998  13.361
11295W        W72716  40.374  43.399   4.791
11296W        W72717  19.696  41.380  11.117
11297W        W72718  12.693   7.887   0.247
11298W        W72719  26.611  23.007  12.899
11299W        W72720  17.581  17.732   9.595
11300W        W72721  41.494  31.415   3.277
11301W        W72722  43.798   1.369  11.089
11302W        W72723  17.126  10.257  13.418
11303W        W72724  33.929  44.405  10.578
11304W        W72725   9.278  34.449   3.187
11305W        W72726  33.396   9.369  13.831
11306W        W72727   7.335  43.480   1.427
11307W        W72728  12.168  23.010   1.792
11308W        W72729  30.145  41.872  14.799
11309W        W72730   1.465  42.359  12.454
11310W        W72731  29.028   1.917  13.904
11311W        W72732  43.916   5.766  11.441
11312W        W72733   6.418  34.578  13.935
11313W        W72734  32.967   9.656   4.240
11314W        W72735  38.504   2.759   4.599
11315W        W72736   4.402  23.675   9.657
11316W        W72737  18.146  28.177   2.724
11317W        W72738  27.070  34.931   3.668
11318W        W72739  33.623  36.348  14.408
11319W        W72740  22.712  38.850   4.695
11320W        W72741  34.923  29.558   2.239
11321W        W72742  23.656  14.116  11.897
11322W        W72743  22.235  18.062  10.961
11323W        W72744  32.494  38.980   2.780
11324W        W72745   1.467  12.855  11.912
11325W        W72746  31.951   2.893  12.070
11326W        W72747  19.689  11.641   1.700
11327W        W72748  32.035   4.365  12.434
11328W        W72749  42.930  31.406  12.523
11329W        W72750  34.557  11.321  13.809
11330W        W72751  29.125  28.069  12.443
11331W        W72752  30.486  21.607  11.581
11332W        W72753  27.113  32.023  14.325
11333W        W72754   1.356   3.915   3.238
11334W        W72755   0.826  41.818  14.510
11335W        W72756  26.131   0.492   3.778
11336W        W72757  25.162  27.546   4.740
11337W        W72758  10.291   6.735  12.825
11338W        W72759  37.010   6.736  12.471
11339W        W72760  40.981  20.710  10.971
11340W        W72761  12.827  28.100   4.833
11341W        W72762  26.674   6.910   3.864
11342W        W72763  26.971  39.965   4.189
11343W        W72764  27.056   2.414  13.024
11344W        W72765   2.822   9.261   3.632
11345W        W72766  18.209  34.083  13.057
11346W        W72767  14.202  22.607  11.405
11347W        W72768  27.042   5.846  12.574
11348W        W72769  24.697  38.445   1.778
11349W        W72770  30.542  27.133  14.812
11350W        W72771  41.348  37.383  13.491
11351W        W72772  13.690   8.669  10.573
11352W        W72773  24.532  29.596   4.684
11353W        W72774  10.271  40.937  13.057
11354W        W72775  30.643  27.628  12.553
11355W        W72776  12.287   3.396  14.901
11356W        W72777  22.224  25.507  13.801
11357W        W72778  38.064  41.484   2.901
11358W        W72779   5.312   4.426   4.282
11359W        W72780   1.333  32.612   2.414
11360W        W72781  34.505  35.428   4.196
11361W        W72782  33.462  27.193   0.417
11362W        W72783  22.506  37.451   1.273
11363W        W72784  44.794   3.367   0.792
11364W        W72785  33.437  30.446  11.591
11365W        W72786  37.053  13.287   2.804
11366W        W72787  33.515  39.017  11.058
11367W        W72788  17.607  26.125  14.285
11368W        W72789   4.896   4.917   5.191
11369W        W72790  26.018   7.395   1.744
11370W        W72791  15.705  28.444  12.898
11371W        W72792   6.200  22.534   4.622
11372W        W72793  30.057  32.097   1.809
11373W        W72794  23.537  26.982  11.471
11374W        W72795  16.177   2.361   4.676
11375W        W72796  23.509  44.878  13.894
11376W        W72797   2.807  34.975   5.227
11377W        W72798   3.272  40.928   4.136
11378W        W72799  32.559  27.545   0.886
11379W        W72800  28.591  43.796   0.748
11380W        W72801   6.419   6.855  11.445
11381W        W72802   4.393  13.195  12.839
11382W        W72803   4.289  14.625   2.878
11383W        W72804  13.760  41.921   0.398
11384W        W72805  13.825  20.161   4.749
11385W        W72806  11.808  13.717   4.729
11386W        W72807  12.799  31.032   3.643
11387W        W72808  38.962  16.784   0.376
11388W        W72809  31.958  23.064  11.461
11389W        W72810  42.348  26.660  10.992
11390W        W72811  34.558   4.795   3.715
11391W        W72812  10.844  29.154   3.705
11392W        W72813  17.189   4.251   2.663
11393W        W72814  16.134   6.294   1.801
11394W        W72815  41.986  35.581  12.455
11395W        W72816  28.931  22.128   0.327
11396W        W72817  15.804  41.513   5.085
11397W        W72818  13.139   4.726   5.159
11398W        W72819  41.981  11.257   4.807
11399W        W72820  24.109   1.752   5.159
11400W        W72821  22.709  42.790  10.955
11401W        W72822   5.868  42.029   4.247
11402W        W72823   9.240  44.963  12.060
11403W        W72824  32.131  25.582   4.353
11404W        W72825  24.569   7.239  12.904
11405W        W72826  16.105   9.251  10.607
11406W        W72827  19.605  35.893   1.749
11407W        W72828  18.715  41.538   5.281
11408W        W72829  28.080  25.168  12.964
11409W        W72830  16.709  35.501   1.263
11410W        W72831  34.079  33.976   2.830
11411W        W72832   0.761  34.541  12.503
11412W        W72833  44.834  30.984   1.896
11413W        W72834  23.192  20.034   3.272
11414W        W72835   8.664  34.887  13.417
11415W        W72836   3.273  21.537  12.966
11416W        W72837   5.881  17.591   1.896
11417W        W72838  40.869  27.687  11.895
11418W        W72839   5.792  17.209  10.904
11419W        W72840   3.223  16.214   0.919
11420W        W72841  34.947   7.403   1.912
11421W        W72842  32.499  36.034  13.853
11422W        W72843  33.550  39.520   3.296
11423W        W72844  41.969  15.113  14.370
11424W        W72845   4.938  11.848   4.126
11425W        W72846  10.819  21.734   2.327
11426W        W72847   7.394   5.779   0.254
11427W        W72848   3.458  31.096  11.901
11428W        W72849   6.910  21.164   1.369
11429W        W72850  24.120  31.143  13.326
11430W        W72851  12.681  40.844   3.731
11431W        W72852  34.611  43.008  13.921
11432W        W72853   2.437  17.205  13.045
11433W        W72854  15.115  30.432  10.605
11434W        W72855  37.939  26.046   2.275
11435W        W72856  31.530  38.019  14.317
11436W        W72857  43.279   7.417  12.486
11437W        W72858   9.151  22.252  11.010
11438W        W72859  17.591  29.025  13.991
11439W        W72860  39.559  38.551   3.853
11440W        W72861   2.837  22.138   1.823
11441W        W72862   2.356  42.313  13.938
11442W        W72863  18.232  41.518  10.516
11443W        W72864  30.943  43.768   0.314
11444W        W72865  15.757  29.013   5.309
11445W        W72866  37.945  20.650   0.853
11446W        W72867  21.692  41.945  10.520
11447W        W72868  26.570  24.511   1.444
11448W        W72869   0.758  13.343   1.379
11449W        W72870   5.252   4.304  12.953
11450W        W72871  27.547  14.176   0.304
11451W        W72872   6.777  11.845   4.773
11452W        W72873  38.862  14.635  12.422
11453W        W72874  29.541  33.893   2.681
11454W        W72875  37.344  32.453   0.939
11455W        W72876  36.517  30.164  12.369
11456W        W72877  33.897  21.085  11.008
11457W        W72878  33.904   7.335  11.551
11458W        W72879  32.966  24.062  12.033
11459W        W72880   9.152  33.497  11.497
11460W        W72881  37.398  22.577  13.918
11461W        W72882  44.927   2.854  10.409
11462W        W72883  14.801  21.664  13.990
11463W        W72884  21.106  16.263  11.386
11464W        W72885   6.813  14.807   0.861
11465W        W72886   1.333  41.384  13.379
11466W        W72887   7.325  35.433   0.401
11467W        W72888  11.282  12.299  11.023
11468W        W72889  17.188  17.233   1.400
11469W        W72890  32.473   4.819   0.242
11470W        W72891  24.129   8.298   2.235
11471W        W72892  25.521  36.017   4.827
11472W        W72893  20.129  35.565  13.857
11473W        W72894  21.628  17.789   5.231
11474W        W72895  18.285  11.349   1.430
11475W        W72896  19.284  24.553  12.961
11476W        W72897   1.776  17.743  14.917
11477W        W72898  19.674  17.579   0.939
11478W        W72899  39.015  25.042  10.914
11479W        W72900  22.168  36.045  12.548
11480W        W72901  16.569  27.445   4.716
11481W        W72902   4.351  26.207   4.273
11482W        W72903  17.688  23.614  11.916
11483W        W72904  23.612  10.852   3.195
11484W        W72905   6.807  10.815  11.504
11485W        W72906  38.032  36.048   4.767
11486W        W72907  11.805  15.658  11.876
11487W        W72908  10.358  34.401   3.697
11488W        W72909   9.682  15.618  14.827
11489W        W72910  41.519  36.472   2.774
11490W        W72911   9.187  13.826   4.272
11491W        W72912  22.213  40.345  10.548
11492W        W72913  36.888  13.272  13.809
11493W        W72914   4.889  39.357   0.474
11494W        W72915  14.184  44.287   2.694
11495W        W72916  21.239  38.992   2.711
11496W        W72917  41.822  42.476   4.706
11497W        W72918  40.337  35.041  10.984
11498W        W72919   5.695  41.307   1.312
11499W        W72920  41.473  16.258  11.087
11500W        W72921  25.694   1.915  10.918
11501W        W72922  26.526  29.931  12.565
11502W        W72923   5.208  25.135  12.051
11503W        W72924   1.370  15.632  12.878
11504W        W72925  40.809  11.133  12.430
11505W        W72926  41.905  33.954   2.819
11506W        W72927  28.158  38.998   0.902
11507W        W72928  34.565   9.765   2.782
11508W        W72929  14.622  23.098   0.962
11509W        W72930  39.470  43.843   4.774
11510W        W72931  26.964   3.455  13.443
11511W        W72932  29.124   4.382   4.704
11512W        W72933   4.901  35.940   3.183
11513W        W72934  23.543  11.737   2.839
11514W        W72935   4.352  11.172  11.033
11515W        W72936   2.354  27.514  13.331
11516W        W72937  28.449  27.949   1.787
11517W        W72938  12.347  43.501  12.952
11518W        W72939   4.755   6.285  12.462
11519W        W72940  43.397  33.944   4.739
11520W        W72941   2.293   3.388   2.402
11521W        W72942  37.065  35.548  12.455
11522W        W72943  34.119   3.337  11.515
11523W        W72944  36.938  40.338   2.194
11524W        W72945  12.143  17.761   0.863
11525W        W72946  15.283  43.793  14.939
11526W        W72947  26.079  11.656   0.289
11527W        W72948  37.004  11.704  14.945
11528W        W72949  23.191   5.879  11.523
11529W        W72950  15.263  38.853   3.170
11530W        W72951  27.068  44.330  12.473
11531W        W72952   5.285   6.823   3.340
11532W        W72953   4.366   3.858  14.846
11533W        W72954  10.256  14.142   0.470
11534W        W72955   3.925  25.511  12.469
11535W        W72956   2.895  20.223  14.826
11536W        W72957   8.264   5.903  11.040
11537W        W72958   5.371   0.919   4.200
11538W        W72959  43.340  27.502   3.299
11539W        W72960  16.794  30.444   1.255
11540W        W72961  30.582  37.373   3.712
11541W        W72962   4.255  21.620  12.999
11542W        W72963   9.742  40.813   4.168
11543W        W72964  31.631  19.561   1.223
11544W        W72965   8.699  24.226   0.406
11545W        W72966  19.134   6.833  14.314
11546W        W72967  20.089   7.390   4.336
11547W        W72968  38.331  10.362  11.488
11548W        W72969  27.021  28.647  13.342
11549W        W72970   1.440  42.843   3.253
11550W        W72971  16.746   3.768  12.068
11551W        W72972   0.269  10.722   0.355
11552W        W72973  39.411   4.239  14.997
11553W        W72974  26.596  38.011  12.478
11554W        W72975  25.993   5.912   3.780
11555W        W72976  27.186  11.139  14.974
11556W        W72977  30.416   9.797  13.522
11557W        W72978  18.262  35.992  12.375
11558W        W72979  43.832  25.568   0.397
11559W        W72980  22.541  19.650  14.932
11560W        W72981  19.090  29.139   4.274
11561W        W72982   8.308  34.005  13.541
11562W        W72983  15.299  38.375   2.786
11563W        W72984   2.812  44.476  14.009
11564W        W72985  29.169  25.218  14.452
11565W        W72986  36.498  24.162   0.800
11566W        W72987  14.321   5.793   3.373
11567W        W72988  29.431   8.274   4.342
11568W        W72989  27.465   6.791   3.689
11569W        W72990  13.769  44.807  14.366
11570W        W72991   2.813  16.759   4.598
11571W        W72992   3.952   1.909  14.330
11572W        W72993  29.637  13.189   3.815
11573W        W72994  21.711   2.352  13.866
11574W        W72995   9.277  35.577  10.527
11575W        W72996  11.215  29.116  11.041
11576W        W72997  36.463  20.171   4.798
11577W        W72998  26.657  19.231   2.690
11578W        W72999  30.148  20.733   2.892
11579W        W73000  10.216  27.677   4.628
11580W        W73001  25.087  37.915   0.832
11581W        W73002  19.103  44.996  13.540
11582W        W73003  12.636  12.204   2.900
11583W        W73004  14.308  29.937  14.879
11584W        W73005  41.975  29.598   4.223
11585W        W73006  19.571  26.077  10.894
11586W        W73007  20.184   8.694   3.255
11587W        W73008   0.786   1.387   1.808
11588W        W73009  36.383  39.856   4.145
11589W        W73010  26.094  42.831   1.714
11590W        W73011  41.948  43.813  12.056
11591W        W73012  14.270  35.484  14.816
11592W        W73013   9.252   1.873  13.837
11593W        W73014  28.119  18.131   3.746
11594W        W73015  29.439  42.850   0.354
11595W        W73016  14.707   8.700  10.572
11596W        W73017  32.915  42.908   1.299
11597W        W73018  38.468  12.836  12.837
11598W        W73019  33.449  31.907  10.007
11599W        W73020  42.851  41.870   3.179
11600W        W73021   8.170  25.964   2.753
11601W        W73022  30.090   9.191  13.044
11602W        W73023  43.487  20.236   3.758
11603W        W73024   7.409  42.812   2.310
11604W        W73025   8.867  10.317   1.229
11605W        W73026  20.162  23.186  14.350
11606W        W73027   8.783  39.999  12.559
11607W        W73028  26.505   0.890   3.344
11608W        W73029  25.093   3.949  13.988
11609W        W73030   0.908  29.086   4.733
11610W        W73031   2.837  37.526   0.313
11611W        W73032  38.877   8.840   0.741
11612W        W73033   3.825  14.685  12.837
11613W        W73034   7.877  26.007   2.780
11614W        W73035  42.779  27.491  11.056
11615W        W73036   2.266  25.619  13.968
11616W        W73037  26.182  42.881   0.868
11617W        W73038   6.686  33.379  12.423
11618W        W73039  16.219  33.071   3.659
11619W        W73040   8.362  19.147   2.238
11620W        W73041   0.820  23.186   3.649
11621W        W73042  35.379  28.014   1.283
11622W        W73043  16.288  27.004  13.353
11623W        W73044   1.322  37.424   3.152
11624W        W73045  43.014  23.138  14.292
11625W        W73046  20.669  33.918   3.363
11626W        W73047  31.418  22.248   4.279
11627W        W73048  21.024  41.460   3.269
11628W        W73049  36.065  39.409   1.223
11629W        W73050  38.889  38.013   1.405
11630W        W73051  26.492  19.175  12.977
11631W        W73052  10.687  22.165  11.892
11632W        W73053  23.694  11.286   1.372
11633W        W73054  30.450   2.269  11.924
11634W        W73055  38.883  10.376   0.746
11635W        W73056  37.965  12.616   3.146
11636W        W73057  16.232   7.865   3.664
11637W        W73058  40.941  42.412  12.033
11638W        W73059  36.507  16.754   1.388
11639W        W73060   7.808   5.846  10.442
11640W        W73061   7.313  16.795   3.241
11641W        W73062  24.211  22.221   0.951
11642W        W73063  19.237  44.793  11.470
11643W        W73064  33.054  24.536   4.277
11644W        W73065  36.390  40.026   1.933
11645W        W73066  21.134  27.535  13.430
11646W        W73067  19.653  17.114   4.652
11647W        W73068   8.391  14.710  12.454
11648W        W73069  33.586  34.382   3.350
11649W        W73070  16.205  35.876   3.692
11650W        W73071  37.082  23.154   0.474
11651W        W73072   9.389   3.218  12.910
11652W        W73073   6.794  44.004   2.804
11653W        W73074   2.258  32.934  12.445
11654W        W73075  16.630  40.954  14.377
11655W        W73076  44.454  16.590  13.058
11656W        W73077  12.223  31.941  14.761
11657W        W73078  18.271  41.974   3.830
11658W        W73079  13.819  10.235  10.640
11659W        W73080  30.088  13.186  12.828
11660W        W73081  32.536  25.084  13.524
11661W        W73082  35.047  15.818   4.178
11662W        W73083  22.185   6.385   2.207
11663W        W73084  43.861   1.331  13.862
11664W        W73085   0.309   0.822  10.411
11665W        W73086   9.216  38.009  11.090
11666W        W73087  13.616  33.568   4.208
11667W        W73088  27.594  12.658  11.037
11668W        W73089  15.602  39.357   0.390
11669W        W73090  42.986  32.011  14.935
11670W        W73091  35.449   1.308   1.257
11671W        W73092  42.419   9.689   4.272
11672W        W73093  23.643  20.666   2.892
11673W        W73094  44.478  30.940  11.104
11674W        W73095  33.567  27.534  10.997
11675W        W73096  33.070  37.486   3.357
11676W        W73097  39.038   5.898   0.800
11677W        W73098  13.259   1.311   3.773
11678W        W73099   7.295  16.639  14.320
11679W        W73100  38.944   2.250   0.839
11680W        W73101  41.907  26.012   0.832
11681W        W73102   7.818   9.773  11.607
11682W        W73103  25.032  15.213   4.667
11683W        W73104  23.163  38.331   2.677
11684W        W73105  28.013  27.129   4.232
11685W        W73106  26.139   9.805   2.842
11686W        W73107  36.554   5.818  13.812
11687W        W73108  40.033  38.870  14.825
11688W        W73109  27.034  38.957  14.780
11689W        W73110  18.760   7.200   0.424
11690W        W73111  44.944  43.970  11.385
11691W        W73112  41.967  42.430   3.292
11692W        W73113  36.404  17.588  12.548
11693W        W73114  34.883   8.871   3.643
11694W        W73115  40.968  14.187  14.000
11695W        W73116  36.843  25.668  13.825
11696W        W73117   9.810  41.928  11.892
11697W        W73118  16.625  33.923   2.889
11698W        W73119  18.183  34.505   4.119
11699W        W73120  18.078  22.075   4.147
11700W        W73121  12.275  34.586   2.381
11701W        W73122   1.324  13.334  11.510
11702W        W73123  40.432  26.000   0.919
11703W        W73124  27.066  13.134  11.870
11704W        W73125  42.460  43.269   3.746
11705W        W73126   9.671   2.849   0.393
11706W        W73127  43.360  40.013  11.090
11707W        W73128  19.214  32.025   2.846
11708W        W73129  26.091   4.786  13.520
11709W        W73130  27.126  34.565  11.463
11710W        W73131   8.284   8.297   3.712
11711W        W73132  27.448  31.959   1.898
11712W        W73133  34.939  18.583  11.483
11713W        W73134  13.188  15.816   2.340
11714W        W73135  19.654  31.438  14.924
11715W        W73136  23.711  33.961  11.464
11716W        W73137  42.511  12.638   0.368
11717W        W73138  22.109  32.515   2.369
11718W        W73139  41.399  25.593  11.383
11719W        W73140  21.047  41.516   0.870
11720W        W73141  34.611   6.259   1.352
11721W        W73142  14.825  35.058  10.037
11722W        W73143   9.309  28.482   3.678
11723W        W73144   0.489   8.895   0.922
11724W        W73145  14.769  29.159  14.010
11725W        W73146  39.022  39.363   1.259
11726W        W73147   8.341   2.888  11.515
11727W        W73148  29.126  31.631  12.579
11728W        W73149  42.969  35.359   4.177
11729W        W73150  11.317  35.857  13.419
11730W        W73151  31.991  23.533  10.579
11731W        W73152  24.524  29.607  12.355
11732W        W73153   0.953   2.406  11.878
11733W        W73154  30.111  37.380  13.052
11734W        W73155  24.197  22.525   1.227
11735W        W73156  13.799  20.582  13.366
11736W        W73157  26.487   9.262   5.237
11737W        W73158  42.014  24.162   2.215
11738W        W73159  27.157  19.539   2.823
11739W        W73160  42.883  15.710  10.530
11740W        W73161  26.499  38.980   1.713
11741W        W73162  17.691  33.458   2.286
11742W        W73163  12.614  27.533   3.858
11743W        W73164  19.157  34.877  10.968
11744W        W73165  16.796  44.870   4.606
11745W        W73166  30.479  29.100  11.377
11746W        W73167   3.914   1.279   9.586
11747W        W73168  13.794  14.598   1.395
11748W        W73169  14.246  40.385   2.212
11749W        W73170   1.466  11.818  12.942
11750W        W73171  30.051   0.893   2.317
11751W        W73172  42.013  14.590   0.381
11752W        W73173  23.193   9.241  11.585
11753W        W73174  27.961  43.913   4.720
11754W        W73175  12.692  44.346   3.646
11755W        W73176  11.856  43.833   1.708
11756W        W73177  23.072  15.173  11.121
11757W        W73178  36.485  22.172   1.918
11758W        W73179  42.462  35.014  12.940
11759W        W73180  19.591  23.143  14.975
11760W        W73181  23.211  25.508  11.954
11761W        W73182  33.026  21.240   4.319
11762W        W73183   4.312  37.947  10.997
11763W        W73184  22.208   6.909  14.357
11764W        W73185  29.661  41.495   2.350
11765W        W73186  16.779  13.106   1.924
11766W        W73187  25.010  34.431   1.916
11767W        W73188  40.004  43.823  12.434
11768W        W73189  29.137  21.100   3.317
11769W        W73190   0.490  38.025   0.291
11770W        W73191  29.034   3.316   1.853
11771W        W73192  36.040  19.164  13.982
11772W        W73193  27.475  18.072   2.735
11773W        W73194   8.374  37.885   2.313
11774W        W73195  37.034  21.243  13.397
11775W        W73196   3.256  42.928   2.868
11776W        W73197  38.945  21.152   0.789
11777W        W73198  42.781  18.173  11.003
11778W        W73199  19.140  10.764  14.490
11779W        W73200   5.699  27.191   3.673
11780W        W73201  19.197   4.418   3.735
11781W        W73202  15.126  25.126  13.373
11782W        W73203  25.499  14.131   0.397
11783W        W73204  19.229  22.041   0.261
11784W        W73205  29.040  11.134   2.297
11785W        W73206   7.814  18.160  12.495
11786W        W73207  21.196  36.887  14.942
11787W        W73208  28.675  15.764  12.401
11788W        W73209  21.697  38.427  11.963
11789W        W73210   4.902   2.264  12.540
11790W        W73211   9.367  24.121   3.712
11791W        W73212  20.104   6.715   3.180
11792W        W73213   8.769  14.732   0.278
11793W        W73214  23.568  35.980   2.379
11794W        W73215  24.064   6.226  11.576
11795W        W73216  18.265  39.869   3.705
11796W        W73217   8.808  10.365   1.698
11797W        W73218  28.439  12.190  10.470
11798W        W73219   9.340  39.511   2.852
11799W        W73220   0.841   7.747   0.449
11800W        W73221   1.299  29.602  10.496
11801W        W73222  32.614  24.017  13.849
11802W        W73223  30.586  43.878  11.519
11803W        W73224   7.783  34.395  10.966
11804W        W73225  41.996   7.837   0.903
11805W        W73226  17.243   0.451   4.823
11806W        W73227   5.437  36.485  12.059
11807W        W73228  31.012  27.653  11.855
11808W        W73229  39.543  34.116  13.012
11809W        W73230   2.247  39.031  10.104
11810W        W73231  38.911  44.288   3.221
11811W        W73232  16.300  29.649   4.196
11812W        W73233   1.787  26.621   2.368
11813W        W73234   9.263  10.702  12.362
11814W        W73235  15.626   7.851   2.368
11815W        W73236  36.498   4.766   4.618
11816W        W73237  35.892  44.971   4.715
11817W        W73238   7.857  10.143   3.366
11818W        W73239  19.695  19.663  14.489
11819W        W73240   7.397   3.316   0.329
11820W        W73241  18.169  33.092  11.026
11821W        W73242  19.222  12.843   9.648
11822W        W73243   8.668  18.159  13.440
11823W        W73244  24.619  12.704  12.093
11824W        W73245  42.777  33.572   1.765
11825W        W73246  24.203   0.962  10.555
11826W        W73247  40.962  42.305   0.273
11827W        W73248  35.400  21.119  12.567
11828W        W73249  37.541  26.063  10.570
11829W        W73250  37.046  24.526   3.330
11830W        W73251  28.660  43.409   4.206
11831W        W73252  35.369   7.695  12.392
11832W        W73253   8.389   4.925  10.591
11833W        W73254  24.569  42.393   1.416
11834W        W73255  23.105  21.128  11.060
11835W        W73256  14.669  10.278   3.749
11836W        W73257  12.328  16.626   0.891
11837W        W73258  40.340  13.720   3.157
11838W        W73259  29.075  16.277  14.827
11839W        W73260  30.568  24.085   1.224
11840W        W73261  41.988   4.411  13.507
11841W        W73262  21.207   5.889   0.776
11842W        W73263  25.480  22.734  12.497
11843W        W73264  39.476  17.790  14.978
11844W        W73265   5.405  28.455  11.129
11845W        W73266  40.538  33.490  11.607
11846W        W73267  13.670   2.739  10.986
11847W        W73268  21.530  36.045   4.733
11848W        W73269  20.588  37.018  13.454
11849W        W73270  34.566  42.885   3.347
11850W        W73271  18.601  37.503   0.802
11851W        W73272  37.974  43.364  12.038
11852W        W73273  17.065  20.115   1.910
11853W        W73274  14.609  27.196  11.468
11854W        W73275   2.835  36.912   3.255
11855W        W73276   4.351  17.171  10.494
11856W        W73277  24.560   9.805   2.393
11857W        W73278  13.119  28.953   4.173
11858W        W73279  27.011  24.725  14.889
11859W        W73280  41.525  10.723   1.765
11860W        W73281  37.016  44.945   2.277
11861W        W73282  44.474  13.279   3.632
11862W        W73283  17.148  22.673   3.277
11863W        W73284  22.019  44.476  12.366
11864W        W73285  16.605  42.796  10.509
11865W        W73286  20.134  44.474   3.802
11866W        W73287  43.272  26.482   0.370
11867W        W73288  42.813  10.786  11.464
11868W        W73289  13.679  10.828   4.777
11869W        W73290  18.653  34.943  13.815
11870W        W73291  42.354  38.044   2.351
11871W        W73292   4.237   2.799   1.255
11872W        W73293  12.232  11.140   2.757
11873W        W73294  30.549  24.494  11.482
11874W        W73295   4.224  37.946   2.879
11875W        W73296  10.378  32.553   3.318
11876W        W73297  25.538   7.666  14.479
11877W        W73298   2.811  26.066   2.773
11878W        W73299   7.280  19.268  12.004
11879W        W73300  27.007  23.152  13.863
11880W        W73301  29.976  32.563  14.026
11881W        W73302  13.122   7.348  11.554
11882W        W73303   9.314  11.342  11.046
11883W        W73304   4.821  35.402   2.397
11884W        W73305  19.167  26.586  11.867
11885W        W73306  15.188  36.900   0.456
11886W        W73307  20.241   8.882  11.469
11887W        W73308   7.799   3.878   0.411
11888W        W73309   1.249  23.523  12.964
11889W        W73310  41.917  33.480  13.400
11890W        W73311  31.035  34.388   3.736
11891W        W73312  14.231  34.937  11.107
11892W        W73313   6.254   8.355   0.320
11893W        W73314  13.178  20.682   2.198
11894W        W73315  24.648   1.736  10.544
11895W        W73316  40.428  12.651  11.959
11896W        W73317  32.421   2.862  13.862
11897W        W73318  29.054  12.233   0.393
11898W        W73319  28.555   9.225   1.766
11899W        W73320  43.997  20.646   3.252
11900W        W73321  18.657   0.852  13.338
11901W        W73322  10.864   6.769  12.482
11902W        W73323  34.529  14.278   0.369
11903W        W73324  35.029   7.854   0.932
11904W        W73325  37.579  27.584  14.416
11905W        W73326  21.095   3.254  10.535
11906W        W73327  16.810  22.548  11.505
11907W        W73328  33.896   9.389  14.276
11908W        W73329  40.809  20.605  12.858
11909W        W73330  39.938   7.846   2.852
11910W        W73331  18.561  34.917   0.463
11911W        W73332  12.747  18.198  10.624
11912W        W73333  10.173  12.343  14.893
11913W        W73334  25.661  38.849  11.968
11914W        W73335  26.136  40.543   0.414
11915W        W73336  44.346  22.094   0.881
11916W        W73337  41.012  23.071   4.332
11917W        W73338  37.422   8.374   4.341
11918W        W73339  13.310  26.491  11.561
11919W        W73340  17.582  24.208   0.295
11920W        W73341  35.478  26.204   0.957
11921W        W73342  36.576  22.068  13.356
11922W        W73343  42.980  32.047  11.442
11923W        W73344  11.265  23.242   2.248
11924W        W73345  34.606  24.481   1.767
11925W        W73346  32.629   0.453   0.453
11926W        W73347  22.629  35.401  11.495
11927W        W73348   4.446  17.225  13.849
11928W        W73349  40.805  27.665  14.829
11929W        W73350  27.609  16.148  14.476
11930W        W73351  19.201   5.377   9.963
11931W        W73352  30.450  42.934  12.951
11932W        W73353  33.508  15.623  10.960
11933W        W73354  36.932  43.431  14.459
11934W        W73355  40.830  35.601  13.471
11935W        W73356   4.817  13.838  10.954
11936W        W73357  28.026  32.451  13.351
11937W        W73358  26.029  39.032   0.370
11938W        W73359  17.094  27.020   4.714
11939W        W73360  10.266  17.253   3.838
11940W        W73361  23.657   8.778   2.732
11941W        W73362   0.491  10.663   1.800
11942W        W73363   0.774  26.064   3.280
11943W        W73364  41.921  29.173  12.410
11944W        W73365   5.315  21.703   1.433
11945W        W73366  43.897  17.711   4.302
11946W        W73367   0.836  40.807   4.317
11947W        W73368  43.339  23.715   1.774
11948W        W73369  42.484   9.867  11.569
11949W        W73370  44.332  34.459   4.802
11950W        W73371   8.229  22.196   1.319
11951W        W73372   1.275  30.589   4.737
11952W        W73373   5.316  31.013   0.244
11953W        W73374  12.784   3.375  10.985
11954W        W73375  19.278   7.750   2.856
11955W        W73376  43.794  35.098   2.739
11956W        W73377   6.419  12.705  11.101
11957W        W73378  20.091  39.548   1.316
11958W        W73379  12.686  37.477   1.284
11959W        W73380  30.572   1.847   2.671
11960W        W73381  30.575   3.777   9.984
11961W        W73382  22.091  25.627  13.316
11962W        W73383  32.895  14.306  12.359
11963W        W73384  16.207  18.266  10.955
11964W        W73385  14.132  16.245  12.060
11965W        W73386   7.803  40.536  12.372
11966W        W73387  19.171  37.851  13.795
11967W        W73388  32.468   5.741  14.815
11968W        W73389  34.970  34.978   2.195
11969W        W73390   7.236  28.950  11.020
11970W        W73391  11.768   9.675  14.876
11971W        W73392   5.909  31.919  13.853
11972W        W73393  28.940  21.647   2.293
11973W        W73394  33.462  21.666  10.512
11974W        W73395  15.116   3.235  13.411
11975W        W73396  31.113   0.931   0.908
11976W        W73397  24.011  43.843   2.800
11977W        W73398  10.771   7.188   4.345
11978W        W73399  19.702  10.866  12.509
11979W        W73400  20.672  17.215  14.409
11980W        W73401  35.499  20.621  11.906
11981W        W73402  22.030  32.964   4.694
11982W        W73403  17.235  20.525  14.454
11983W        W73404  39.822  34.381   1.430
11984W        W73405  14.617  32.571  10.412
11985W        W73406   3.455  13.731   0.349
11986W        W73407   6.885   6.719   3.814
11987W        W73408  19.192  32.482   0.451
11988W        W73409  24.650  44.448   0.788
11989W        W73410  25.083   4.249   3.333
11990W        W73411  20.535  41.984  12.496
11991W        W73412  13.655   8.167   2.838
11992W        W73413  32.911  18.668  14.002
11993W        W73414  11.346  38.552   4.619
11994W        W73415  26.618  26.543  12.872
11995W        W73416  39.811   7.209  11.537
11996W        W73417  24.571  10.847   3.374
11997W        W73418   6.279   7.214   0.924
11998W        W73419  17.688  26.593   2.676
11999W        W73420  29.175   5.389   0.842
12000W        W73421  14.689  25.993   1.762
12001W        W73422  37.967  11.275  11.989
12002W        W73423  23.667  24.611   1.449
12003W        W73424   5.933  39.854   3.829
12004W        W73425   6.848   1.408   1.395
12005W        W73426  14.094  19.730   0.334
12006W        W73427  40.349  10.213   3.385
12007W        W73428  23.203  38.508   1.788
12008W        W73429  27.960  23.051  11.883
12009W        W73430  26.456  39.343   1.343
12010W        W73431  18.054  18.693  10.566
12011W        W73432  33.507  41.937   3.367
12012W        W73433  33.444  40.433   4.162
12013W        W73434  36.387  16.803   2.763
12014W        W73435  11.848  10.305  11.108
12015W        W73436   4.855  39.485   4.326
12016W        W73437  12.827  17.626   3.676
12017W        W73438  43.478  39.838  14.288
12018W        W73439  42.028  31.128  13.835
12019W        W73440  29.425   9.837  14.855
12020W        W73441  42.947  42.011   0.727
12021W        W73442  14.631  24.135   4.304
12022W        W73443  40.381  31.096  11.921
12023W        W73444   3.866  27.503  11.412
12024W        W73445  39.954  19.094  12.019
12025W        W73446  28.480   1.284  13.985
12026W        W73447  17.247  22.635  13.899
12027W        W73448  29.532  27.597   3.168
12028W        W73449   1.429  10.138   2.824
12029W        W73450  12.622  41.398   2.720
12030W        W73451  11.737  21.559   0.268
12031W        W73452  40.977  20.667   4.597
12032W        W73453  16.674  37.994   3.865
12033W        W73454  31.095  39.043  13.954
12034W        W73455  14.160  19.743  12.047
12035W        W73456  39.452  34.104  13.972
12036W        W73457  11.635  30.030   0.799
12037W        W73458  27.941   0.960  10.634
12038W        W73459  25.566   1.945   9.967
12039W        W73460  36.058  42.422   0.869
12040W        W73461  13.770  25.180   0.251
12041W        W73462  37.029  33.921  14.993
12042W        W73463  12.270  10.274  11.968
12043W        W73464  24.057  36.008   0.766
12044W        W73465  35.583   0.401  11.464
12045W        W73466  30.141   1.388   4.795
12046W        W73467  20.236  18.118  10.619
12047W        W73468  23.722  29.019   1.713
12048W        W73469   9.719  42.284   0.433
12049W        W73470   2.325  25.631  14.768
12050W        W73471  37.471  16.077  11.883
12051W        W73472  17.266  33.032  10.535
12052W        W73473   9.775  24.583  10.558
12053W        W73474  30.479  41.519  10.453
12054W        W73475  40.892   4.350  11.076
12055W        W73476  26.182   6.253  11.021
12056W        W73477  34.005  24.491  14.792
12057W        W73478  15.300  25.610  11.451
12058W        W73479  21.581  32.469  14.885
12059W        W73480  40.960  30.089  14.492
12060W        W73481  21.202   2.451  13.826
12061W        W73482  19.557   8.677   3.338
12062W        W73483  42.304  18.252  12.945
12063W        W73484  37.057   1.749  14.892
12064W        W73485  17.688   4.874   1.342
12065W        W73486  43.963  40.929  10.901
12066W        W73487  14.643  25.114  13.355
12067W        W73488  15.760   7.211  12.565
12068W        W73489  26.580  12.268  11.942
12069W        W73490  17.090   6.403   2.663
12070W        W73491  14.794  19.724  11.511
12071W        W73492  40.352  28.996  13.925
12072W        W73493   9.666  24.226  11.507
12073W        W73494  12.265  30.642   1.379
12074W        W73495  27.048  22.207   0.728
12075W        W73496  36.021  29.497   4.311
12076W        W73497  32.415  35.041  14.320
12077W        W73498   4.815   7.891   4.623
12078W        W73499  10.175  36.561  12.955
12079W        W73500  30.495   9.166  14.440
12080W        W73501  19.552  10.225  14.373
12081W        W73502   8.895  42.796   5.294
12082W        W73503  36.962  19.056   4.268
12083W        W73504  12.155  36.495   1.758
12084W        W73505  35.504  33.971   4.135
12085W        W73506   4.837   3.222   2.845
12086W        W73507   0.287  26.007  10.966
12087W        W73508  21.144  39.458  12.065
12088W        W73509  14.299  23.196   4.759
12089W        W73510  38.948  33.452   0.314
12090W        W73511  14.804  17.119  10.473
12091W        W73512  12.702  28.991   4.260
12092W        W73513  28.563  34.947  13.544
12093W        W73514   8.857  32.455   2.825
12094W        W73515   5.355  20.102   2.854
12095W        W73516   8.300  18.704   2.670
12096W        W73517  26.077  40.011   0.853
12097W        W73518   4.774  44.899   0.335
12098W        W73519  13.305  25.523  14.828
12099W        W73520  34.880  20.715   0.304
12100W        W73521  22.036  31.632  11.600
12101W        W73522  16.668  41.811   3.328
12102W        W73523  43.434  23.079  12.407
12103W        W73524   7.757   6.791   3.253
12104W        W73525  20.057  29.061   4.129
12105W        W73526  23.493   3.371   3.715
12106W        W73527   2.771  10.379  14.394
12107W        W73528  27.166  25.533  12.469
12108W        W73529  29.657  36.895   0.909
12109W        W73530  21.518  18.749   2.866
12110W        W73531   6.232  11.829  14.275
12111W        W73532  32.052  22.538  12.981
12112W        W73533  31.419   5.896  13.922
12113W        W73534  30.490  26.590  11.095
12114W        W73535  29.994   5.289  11.494
12115W        W73536  29.132  18.762  13.809
12116W        W73537  37.043  20.223   3.325
12117W        W73538  23.104  41.524  11.083
12118W        W73539  42.813  18.095   0.465
12119W        W73540   7.368  10.376   0.791
12120W        W73541  25.210  36.441   2.765
12121W        W73542  13.718  17.178  13.406
12122W        W73543  16.720  37.505   0.934
12123W        W73544  11.178  33.427   2.740
12124W        W73545  29.929   2.444   2.860
12125W        W73546  29.426  40.882  13.901
12126W        W73547  39.994  34.512   4.676
12127W        W73548   1.298  18.557   3.271
12128W        W73549  37.493   3.311  13.335
12129W        W73550  44.412  16.276   0.947
12130W        W73551  40.483  19.181   0.792
12131W        W73552  21.626  28.184  12.029
12132W        W73553   3.369  19.582   0.962
12133W        W73554  12.742  36.500  11.547
12134W        W73555  41.532   2.401   2.823
12135W        W73556  38.388  32.918  12.452
12136W        W73557  11.794  22.016  13.422
12137W        W73558   3.845  12.820   2.841
12138W        W73559   7.752  41.355   2.370
12139W        W73560  41.980   8.777  11.897
12140W        W73561  28.594  15.701  13.808
12141W        W73562  30.631  19.135  13.361
12142W        W73563   0.900   7.762   0.825
12143W        W73564  29.551  39.846   3.345
12144W        W73565  31.491  13.343  13.844
12145W        W73566   7.788  36.387  10.071
12146W        W73567  42.503  36.963   1.882
12147W        W73568   6.358  15.200   2.902
12148W        W73569   6.287  35.020  14.425
12149W        W73570   0.863  16.272  14.942
12150W        W73571  20.041  44.888   4.202
12151W        W73572   5.364   4.772   0.896
12152W        W73573  14.799  33.490   3.852
12153W        W73574  25.159   9.292   4.241
12154W        W73575  30.154  16.623  12.074
12155W        W73576   1.770   1.870  13.536
12156W        W73577   5.845  42.983   0.474
12157W        W73578  42.458  27.129   3.770
12158W        W73579  30.476  27.962  14.303
12159W        W73580  34.019  41.963   1.707
12160W        W73581  16.694  23.137  10.428
12161W        W73582  37.378   9.162   3.698
12162W        W73583  32.525  39.047  10.484
12163W        W73584  43.288  10.859  12.841
12164W        W73585   5.890   0.845  10.148
12165W        W73586   5.712  42.507   1.710
12166W        W73587  21.093  15.238   1.317
12167W        W73588  23.677  30.962   4.298
12168W        W73589  27.522   7.714   3.338
12169W        W73590  36.544  23.508  12.984
12170W        W73591  40.436  18.601   5.083
12171W        W73592  42.461  42.956  12.068
12172W        W73593  25.714  30.436   3.694
12173W        W73594  16.293   2.785   3.791
12174W        W73595  25.062  33.426   1.314
12175W        W73596  13.715  27.985   3.655
12176W        W73597   1.287   0.488   0.795
12177W        W73598  12.819  16.579   1.240
12178W        W73599  33.081  31.574  11.930
12179W        W73600   9.764  40.971   1.391
12180W        W73601  36.005   7.220   3.179
12181W        W73602  22.615  34.886   5.104
12182W        W73603   2.458  41.309   1.410
12183W        W73604  21.603   9.745   2.740
12184W        W73605  41.934  33.586   5.321
12185W        W73606  34.450  39.354   3.718
12186W        W73607  24.522   2.226  12.921
12187W        W73608   7.837   5.814  12.361
12188W        W73609  41.813   6.862  12.556
12189W        W73610  28.021  33.411  11.941
12190W        W73611  27.540  41.512   2.756
12191W        W73612  19.639   3.290  12.883
12192W        W73613  24.083  29.653   1.719
12193W        W73614  18.741  10.677   4.799
12194W        W73615  30.127  28.958  13.517
12195W        W73616  25.967  26.588  10.547
12196W        W73617  32.073  14.665   0.943
12197W        W73618   1.764  43.364  14.777
12198W        W73619  39.921  19.646   4.654
12199W        W73620  39.930  39.866   2.240
12200W        W73621   4.326   1.383   4.175
12201W        W73622  38.375  36.416  12.941
12202W        W73623  25.529  41.956   0.955
12203W        W73624  22.104  14.252   2.858
12204W        W73625  20.260  12.116  11.976
12205W        W73626   8.218  22.242   4.600
12206W        W73627  19.551   4.211   2.415
12207W        W73628  32.121  14.639  10.543
12208W        W73629   9.661   8.238  12.380
12209W        W73630   6.329  27.968  10.068
12210W        W73631  31.507  39.373  13.841
12211W        W73632   2.937  34.894   0.744
12212W        W73633  36.950   7.273   1.374
12213W        W73634  28.931  44.470   2.283
12214W        W73635  42.516   7.326  11.378
12215W        W73636  10.383   0.371   0.246
12216W        W73637   1.346  39.969   4.119
12217W        W73638   4.435  15.304  13.369
12218W        W73639   3.386   1.289  14.509
12219W        W73640  11.796   2.279  11.951
12220W        W73641  31.584   6.825   1.830
12221W        W73642   1.763  34.470  11.607
12222W        W73643   1.376  24.540  11.999
12223W        W73644  13.656  23.518  11.424
12224W        W73645  30.950  22.223   0.365
12225W        W73646  18.210  18.769   3.159
12226W        W73647  20.028  36.489  14.284
12227W        W73648  36.960  24.157  12.850
12228W        W73649  35.019  35.385  11.121
12229W        W73650  13.225  26.501   0.799
12230W        W73651  33.945  11.283   0.740
12231W        W73652  24.506  23.729   3.212
12232W        W73653  30.962  25.059  12.578
12233W        W73654  36.430  44.407   2.887
12234W        W73655  17.155  35.373  12.561
12235W        W73656  13.660  21.083  13.028
12236W        W73657  36.881  36.023  11.454
12237W        W73658  22.140  28.178   3.194
12238W        W73659  31.533  40.343  10.628
12239W        W73660  30.912  38.345   1.694
12240W        W73661   8.869  41.846   3.215
12241W        W73662  23.183  34.074  10.550
12242W        W73663  32.491  15.808   1.354
12243W        W73664  16.314  19.535   4.799
12244W        W73665  36.053  27.661  12.536
12245W        W73666  11.367  40.804   3.792
12246W        W73667  12.728  44.993   2.305
12247W        W73668   6.426  32.050   3.191
12248W        W73669  30.968  27.155   2.837
12249W        W73670   1.784   4.433  11.120
12250W        W73671  18.674  42.820  14.769
12251W        W73672  43.370  28.671  13.327
12252W        W73673  42.344  17.084   0.802
12253W        W73674   9.189  13.817  13.935
12254W        W73675   5.237  13.280   3.856
12255W        W73676  18.562   3.919  12.460
12256W        W73677   2.789  40.540   3.254
12257W        W73678  23.137  41.449  14.930
12258W        W73679  28.166  32.439   2.831
12259W        W73680  27.001  20.731   1.378
12260W        W73681  32.077  12.260   0.347
12261W        W73682  21.248  18.209   3.262
12262W        W73683  36.070  10.375  11.890
12263W        W73684   9.742  20.189  10.888
12264W        W73685   7.890  31.566  12.932
12265W        W73686  38.522  33.962   3.770
12266W        W73687  35.109  15.262   4.239
12267W        W73688  31.632  15.154   4.165
12268W        W73689   8.800  37.849  12.412
12269W        W73690  20.670  16.215  10.628
12270W        W73691  26.671  37.434   9.940
12271W        W73692  15.197  44.961   4.188
12272W        W73693  19.593  10.633   3.748
12273W        W73694  44.921  24.494  11.954
12274W        W73695   0.939   7.813  14.987
12275W        W73696  39.956   6.233  14.404
12276W        W73697   5.435  22.206  11.918
12277W        W73698  13.280  22.605  14.493
12278W        W73699   0.920  22.221  10.130
12279W        W73700   5.731  20.574   1.699
12280W        W73701  17.738   8.900   5.196
12281W        W73702   1.265  22.210   2.368
12282W        W73703  30.418  26.094   1.442
12283W        W73704  27.950  41.826  11.517
12284W        W73705  18.236   0.264  13.838
12285W        W73706  14.620  31.559   0.731
12286W        W73707  27.578  33.943   0.825
12287W        W73708   7.367  30.115  12.400
12288W        W73709  26.495   0.771  10.413
12289W        W73710  32.542  13.304   2.739
12290W        W73711   3.934  31.954   0.950
12291W        W73712  43.481  20.726  12.475
12292W        W73713  20.231   6.920   4.757
12293W        W73714  14.760  44.355  12.848
12294W        W73715  40.491   3.899  11.565
12295W        W73716  10.288  19.143   0.786
12296W        W73717  19.616   1.817  13.901
12297W        W73718  11.351  28.456  14.860
12298W        W73719   6.268  24.550  12.507
12299W        W73720  25.665  37.519  13.841
12300W        W73721  35.027   4.268  10.944
12301W        W73722  43.986  12.613  10.586
12302W        W73723  27.547  27.050  13.493
12303W        W73724  25.635  43.489   4.811
12304W        W73725  42.802  31.482   0.816
12305W        W73726  37.418  27.979   0.738
12306W        W73727  23.531  16.099  12.832
12307W        W73728  43.884  37.407   4.757
12308W        W73729  11.646   9.192  13.963
12309W        W73730  24.557  18.566   2.198
12310W        W73731   6.257  32.393  14.392
12311W        W73732  22.234  24.042   2.236
12312W        W73733  44.450  11.783   0.326
12313W        W73734  31.522  44.818   0.826
12314W        W73735   6.772  23.598   0.799
12315W        W73736  27.144  16.095   4.831
12316W        W73737  42.807  30.932  14.420
12317W        W73738  25.646  40.366   0.924
12318W        W73739   5.248  35.457  10.403
12319W        W73740  18.631  30.913   4.746
12320W        W73741  12.800  31.557  13.908
12321W        W73742  42.525  28.589   2.380
12322W        W73743  24.163  27.514  13.004
12323W        W73744  29.493  14.141   5.196
12324W        W73745   7.744  18.206   1.239
12325W        W73746  38.571  42.284   4.658
12326W        W73747  21.049   1.742  13.980
12327W        W73748  18.610   7.781   1.735
12328W        W73749   0.328  14.171   0.888
12329W        W73750   8.771  31.976   9.963
12330W        W73751   2.889   0.394   0.835
12331W        W73752  27.083  38.929  10.497
12332W        W73753  17.174  33.399   0.437
12333W        W73754   0.292  37.085   0.734
12334W        W73755  13.680  10.342  14.020
12335W        W73756  31.080  40.839  14.325
12336W        W73757  42.945  38.535  12.435
12337W        W73758  44.952  41.494  10.578
12338W        W73759  25.208  31.016   4.306
12339W        W73760  11.214  42.439   4.331
12340W        W73761  39.450  30.512   2.350
12341W        W73762  19.567  20.036  11.443
12342W        W73763   6.235   1.427  11.440
12343W        W73764  20.608  11.850  12.826
12344W        W73765  27.116  15.319  12.022
12345W        W73766  36.019  32.470   4.280
12346W        W73767  13.137  12.322  14.377
12347W        W73768  44.445  16.592   0.251
12348W        W73769   6.875  39.842  12.036
12349W        W73770  25.522   4.296   2.283
12350W        W73771  40.816  35.017  10.503
12351W        W73772   7.315  36.951  12.504
12352W        W73773  14.606  18.723  12.990
12353W        W73774  33.097  41.877  13.994
12354W        W73775  34.002  37.019   0.334
12355W        W73776  44.371  44.301   4.225
12356W        W73777  29.969  10.687   4.737
12357W        W73778  22.007  17.079   2.812
12358W        W73779   7.194  34.491   0.812
12359W        W73780  11.305   5.420  14.457
12360W        W73781   0.846  17.302   3.184
12361W        W73782  36.846   4.751   2.812
12362W        W73783  26.028  22.124  12.520
12363W        W73784  20.587  33.899  13.425
12364W        W73785  23.022  13.326  13.411
12365W        W73786   7.317   3.319  12.412
12366W        W73787  34.445   1.800   4.135
12367W        W73788  39.848  31.913   1.707
12368W        W73789   3.447   5.437  10.633
12369W        W73790  21.257  15.200   4.337
12370W        W73791  40.493   8.805  12.030
12371W        W73792  38.842  13.728  11.517
12372W        W73793  12.717  35.371   1.768
12373W        W73794  40.924  33.511  12.580
12374W        W73795   6.819  11.289  13.525
12375W        W73796  33.078  22.564   1.307
12376W        W73797  25.130  30.522   0.953
12377W        W73798   1.420  31.144   1.927
12378W        W73799  23.557   3.817  12.987
12379W        W73800  32.917  44.504  14.020
12380W        W73801   5.370  11.139  13.794
12381W        W73802  38.910  31.550  10.141
12382W        W73803  28.580  31.604   4.823
12383W        W73804  14.158  28.124  10.421
12384W        W73805  30.937  12.207  10.477
12385W        W73806   5.696  40.946  12.509
12386W        W73807  16.148  12.669  12.854
12387W        W73808  29.996   8.379  14.360
12388W        W73809  13.289   3.823  12.472
12389W        W73810   3.401  28.061   2.413
12390W        W73811   5.824  24.053  11.014
12391W        W73812  27.535  43.833  12.984
12392W        W73813  16.623  13.820   1.756
12393W        W73814  34.905   8.826  12.838
12394W        W73815  32.505   7.267  14.492
12395W        W73816   9.667   6.400  14.890
12396W        W73817  37.384  21.698  14.784
12397W        W73818  16.163  42.423  10.613
12398W        W73819   3.420  16.773   4.713
12399W        W73820  42.850  12.812  10.486
12400W        W73821  27.162  43.844   3.254
12401W        W73822  21.524  38.954  14.290
12402W        W73823  38.907   4.911   2.219
12403W        W73824  18.070  11.144  12.848
12404W        W73825  33.085   8.819   1.212
12405W        W73826  35.579  42.458  14.454
12406W        W73827  41.949  42.790  11.007
12407W        W73828  16.747  27.581   0.418
12408W        W73829  44.350  31.997  10.116
12409W        W73830  14.792  23.504  13.335
12410W        W73831   1.292   0.428  12.532
12411W        W73832  22.081  36.558   3.384
12412W        W73833  40.954  37.422  13.926
12413W        W73834   7.900  10.234   2.354
12414W        W73835  11.858  15.577   3.745
12415W        W73836   1.936  32.094   1.913
12416W        W73837  12.285  21.263   2.259
12417W        W73838  33.614  15.778   4.659
12418W        W73839  25.705  22.165   1.450
12419W        W73840  27.545  36.949  12.942
12420W        W73841  16.678   9.842  14.468
12421W        W73842  27.018  13.627   2.276
12422W        W73843  30.446  30.425  14.509
12423W        W73844  33.885   7.391  11.955
12424W        W73845  27.567   1.287   2.874
12425W        W73846   4.851  34.478   3.849
12426W        W73847  18.089  21.024  14.927
12427W        W73848  41.310  13.797  14.794
12428W        W73849  13.127  41.453   0.385
12429W        W73850   9.383  36.492   3.695
12430W        W73851  34.576  36.895   4.674
12431W        W73852  38.353  26.598   1.929
12432W        W73853  10.302  33.054  12.994
12433W        W73854  11.145  10.329  12.426
12434W        W73855  22.654  11.716   1.801
12435W        W73856  27.170  34.456   1.873
12436W        W73857   1.822  14.305  11.000
12437W        W73858  10.321  23.511   4.215
12438W        W73859  14.268  10.344  12.576
12439W        W73860   3.836  32.432  13.426
12440W        W73861  28.025  35.092   3.829
12441W        W73862  37.511  18.078  13.387
12442W        W73863  24.522  19.220   0.929
12443W        W73864   4.763  16.744  13.452
12444W        W73865  15.726  20.033   3.226
12445W        W73866   4.727  11.699  11.065
12446W        W73867  25.515  41.888  12.956
12447W        W73868   5.745  26.027   3.341
12448W        W73869   7.267  10.838   3.698
12449W        W73870   8.871  41.003  10.928
12450W        W73871   8.752  28.441  13.881
12451W        W73872  22.704  33.393  13.890
12452W        W73873  22.242  26.581   4.282
12453W        W73874  38.565  12.665  12.549
12454W        W73875   0.488  37.833   4.763
12455W        W73876   3.256  40.049   2.812
12456W        W73877  40.837   4.206  14.341
12457W        W73878  14.299  25.007  13.406
12458W        W73879  41.035  15.751  13.476
12459W        W73880  21.731   0.884   4.768
12460W        W73881  37.976  41.793  13.806
12461W        W73882  11.132  14.327   3.268
12462W        W73883  33.931   9.155  12.901
12463W        W73884  43.315  22.088  13.990
12464W        W73885  24.109   2.952   4.745
12465W        W73886  36.015  27.607  13.871
12466W        W73887  36.426  32.986  14.440
12467W        W73888  43.903  38.569   3.674
12468W        W73889  12.623  16.091   0.809
12469W        W73890  41.017  23.656  12.015
12470W        W73891   8.331  16.154   2.833
12471W        W73892  37.859   5.796   0.807
12472W        W73893  20.738  20.239   3.839
12473W        W73894   8.400   9.843   3.698
12474W        W73895  13.173   7.357   3.825
12475W        W73896  22.501   8.676  12.503
12476W        W73897  17.250  17.746  10.909
12477W        W73898  38.951  39.450  13.328
12478W        W73899   2.809   6.880   0.824
12479W        W73900  10.270  41.851  13.416
12480W        W73901   5.308   4.326   2.261
12481W        W73902  15.785  29.668  10.039
12482W        W73903  32.056  17.279  12.958
12483W        W73904  42.790  16.646  11.865
12484W        W73905  28.119   4.342  13.309
12485W        W73906  32.017  31.117  12.918
12486W        W73907  38.441  19.622  12.455
12487W        W73908   2.944  12.303  13.428
12488W        W73909   7.776  40.808   5.255
12489W        W73910  18.181  36.418  12.493
12490W        W73911  13.120  36.392   1.253
12491W        W73912  17.676   6.395   1.235
12492W        W73913  36.864   6.892  11.465
12493W        W73914  10.337  43.889  13.999
12494W        W73915  41.307  17.589  14.762
12495W        W73916  19.211  27.140  12.416
12496W        W73917   9.697   4.911   2.730
12497W        W73918  17.178  43.839  13.012
12498W        W73919   5.194  29.490   0.269
12499W        W73920   1.888  15.158   3.230
12500W        W73921   3.864  16.186   2.840
12501W        W73922  24.087  41.801  10.546
12502W        W73923   9.647  28.106  14.975
12503W        W73924  33.432  19.201  13.843
12504W        W73925   0.858  18.120  11.907
12505W        W73926  35.361  41.913  12.063
12506W        W73927  14.703  38.988  14.934
12507W        W73928  21.137  12.132   0.273
12508W        W73929  26.102  18.253  12.068
12509W        W73930  22.697  17.298   5.160
12510W        W73931  37.953  13.620   2.757
12511W        W73932  28.067  38.993   3.346
12512W        W73933  10.352  29.525  12.552
12513W        W73934  31.500   6.248  11.000
12514W        W73935  26.989  10.367   2.861
12515W        W73936  38.825   1.791  10.901
12516W        W73937   1.748  35.977  13.486
12517W        W73938  26.627  41.886   1.919
12518W        W73939  13.201  24.076   1.283
12519W        W73940   9.843  30.002  11.515
12520W        W73941   5.213  32.602  11.927
12521W        W73942  25.167  19.577  12.515
12522W        W73943   1.256  13.800   4.316
12523W        W73944  31.935  19.600   0.407
12524W        W73945  42.876  43.948   2.731
12525W        W73946  26.023  16.575  11.390
12526W        W73947   8.230   5.264  11.911
12527W        W73948  19.682   8.174   1.792
12528W        W73949  12.851  44.768  13.986
12529W        W73950  43.515  33.898   2.205
12530W        W73951  44.868   8.815  14.914
12531W        W73952  26.525  14.657  13.063
12532W        W73953  18.089  25.082   2.414
12533W        W73954  34.959  34.389   3.248
12534W        W73955  13.599  35.490   1.222
12535W        W73956  21.556  12.800  11.027
12536W        W73957  43.368  14.590   0.361
12537W        W73958   6.369  24.654   9.505
12538W        W73959  14.620   9.728  14.939
12539W        W73960  15.222  26.092  12.451
12540W        W73961  18.726  35.363  10.432
12541W        W73962   1.732  34.070  14.929
12542W        W73963  24.712  43.868  13.010
12543W        W73964  22.017   1.830  11.883
12544W        W73965   4.778  34.615   1.371
12545W        W73966  23.062  14.691   0.953
12546W        W73967  32.501  22.203   3.362
12547W        W73968  31.937   6.301  13.047
12548W        W73969  29.069  15.731   2.392
12549W        W73970  16.143  29.106   4.720
12550W        W73971  25.037  22.230  10.928
12551W        W73972  41.001  10.222  12.046
12552W        W73973   4.222  35.568  13.794
12553W        W73974  25.965  24.669   0.929
12554W        W73975  27.473  30.603  13.840
12555W        W73976   2.454  11.678   3.682
12556W        W73977  26.026  37.488  12.899
12557W        W73978  42.500  20.095   2.351
12558W        W73979  42.944  23.172  13.816
12559W        W73980  21.091  18.234   3.664
12560W        W73981  22.092  27.030   1.861
12561W        W73982  42.378  44.811  14.810
12562W        W73983  11.856  22.706  11.943
12563W        W73984   2.385  26.108   2.696
12564W        W73985  31.940   6.281   0.447
12565W        W73986  41.531  14.175   3.671
12566W        W73987   6.837  43.767  10.485
12567W        W73988   0.831  13.783  13.462
12568W        W73989   9.216   0.858  14.339
12569W        W73990  16.170   3.742  12.897
12570W        W73991   0.894   3.911   5.109
12571W        W73992  43.818  14.297   1.388
12572W        W73993  31.051   3.733  14.979
12573W        W73994  29.472  15.806   3.312
12574W        W73995   3.721  39.347  13.453
12575W        W73996  24.650   9.149   2.799
12576W        W73997  19.622   4.251   0.420
12577W        W73998  43.419   3.733  10.897
12578W        W73999   3.744  36.578  12.882
12579W        W74000  21.584  23.006  11.046
12580W        W74001  40.325  40.504  12.037
12581W        W74002  43.987   3.461   1.744
12582W        W74003  28.664  22.576   3.648
12583W        W74004  27.079   4.852   4.752
12584W        W74005  30.450   1.955   3.834
12585W        W74006   3.923   4.450  10.504
12586W        W74007  22.648  31.468  12.058
12587W        W74008  35.450   4.776   0.909
12588W        W74009  32.133  16.091  11.552
12589W        W74010  29.933  20.768   3.714
12590W        W74011  29.526   0.834  13.940
12591W        W74012   2.794  32.954   4.789
12592W        W74013   2.432  26.609   2.753
12593W        W74014  15.808  41.904   0.870
12594W        W74015  31.511  18.683  14.935
12595W        W74016  37.072  22.058  10.620
12596W        W74017  37.030   1.366   4.762
12597W        W74018  33.462  15.324   2.301
12598W        W74019   3.454  17.211  13.546
12599W        W74020   7.389   2.381   1.355
12600W        W74021   6.385   5.702  14.326
12601W        W74022   3.234  28.550  13.952
12602W        W74023  10.870   8.758  14.818
12603W        W74024  41.445  27.651   1.283
12604W        W74025  25.006  36.956  14.022
12605W        W74026  36.511  29.979   2.282
12606W        W74027  31.984   7.903   4.666
12607W        W74028  41.965  32.555   1.771
12608W        W74029  37.524  36.047   2.866
12609W        W74030  26.123  10.154  13.455
12610W        W74031  20.169   7.867  11.022
12611W        W74032  42.860  27.620  11.450
12612W        W74033  11.248  33.985   0.841
12613W        W74034  16.169  28.932  11.576
12614W        W74035  35.090  11.319  12.855
12615W        W74036  37.031  11.713   0.416
12616W        W74037  25.634  25.685  10.468
12617W        W74038  22.723   5.270   3.208
12618W        W74039  16.594   5.378   2.698
12619W        W74040  34.118   0.493   2.813
12620W        W74041  36.352   2.800   5.292
12621W        W74042  26.578  39.558   1.873
12622W        W74043  21.748  44.989  14.873
12623W        W74044  12.127  30.124  11.066
12624W        W74045   1.361  10.325   1.231
12625W        W74046  31.959  15.146   2.813
12626W        W74047  41.797  10.863  11.377
12627W        W74048  14.613  12.618  12.027
12628W        W74049  13.286  26.678   2.361
12629W        W74050   5.434  15.161  11.045
12630W        W74051  36.553  31.928   0.372
12631W        W74052  30.425  19.186   3.859
12632W        W74053  36.940   9.183   4.281
12633W        W74054  24.056   8.238   1.728
12634W        W74055   2.242  30.032   5.653
12635W        W74056   6.321  38.979  11.548
12636W        W74057  29.473  33.571  11.499
12637W        W74058  43.315  14.778  11.976
12638W        W74059  42.012  14.750   9.984
12639W        W74060  19.051  26.131   2.818
12640W        W74061   8.848   0.351  11.458
12641W        W74062   7.806   4.782  14.290
12642W        W74063  16.811  31.534   1.789
12643W        W74064  19.173  15.169  13.450
12644W        W74065  13.140  25.162   1.318
12645W        W74066  13.251   3.287  10.094
12646W        W74067  30.089  22.111   3.746
12647W        W74068  42.507   5.385   4.354
12648W        W74069  38.055  11.703  13.792
12649W        W74070  43.329  24.104   1.865
12650W        W74071  40.437  35.081   1.407
12651W        W74072   3.251  31.959  13.966
12652W        W74073  38.828  23.087  13.540
12653W        W74074   6.279   9.389   2.335
12654W        W74075   2.373  15.307   4.308
12655W        W74076  42.356   8.829   1.357
12656W        W74077  23.605  14.734   2.364
12657W        W74078  28.009  40.829  10.061
12658W        W74079  11.296   2.795  14.830
12659W        W74080  38.437  43.374  11.472
12660W        W74081  32.462  22.618   1.778
12661W        W74082  28.491   0.892   2.403
12662W        W74083   7.249  37.544  13.332
12663W        W74084  27.955  43.355  11.936
12664W        W74085  41.459  41.492   1.705
12665W        W74086  10.310  22.519   3.746
12666W        W74087  18.771  21.018   1.807
12667W        W74088  12.686  44.284  10.561
12668W        W74089   4.922  27.007  10.528
12669W        W74090  29.091  11.772   3.670
12670W        W74091  23.531  24.999   4.728
12671W        W74092  25.173  29.429  10.954
12672W        W74093  25.636  37.349   3.243
12673W        W74094  27.656  35.909  13.339
12674W        W74095  23.046  33.937   0.306
12675W        W74096  24.024  40.372  12.827
12676W        W74097  26.105  34.508  12.539
12677W        W74098  43.426  19.647  11.043
12678W        W74099  40.389  32.040   3.783
12679W        W74100  41.515   7.216   0.737
12680W        W74101  43.838  43.948  13.815
12681W        W74102   2.463  15.710   2.732
12682W        W74103  29.607  28.447  13.877
12683W        W74104  39.512  11.351   0.375
12684W        W74105  11.764  34.961   1.736
12685W        W74106  16.171  36.508  11.948
12686W        W74107  24.100  10.827  11.602
12687W        W74108  44.984  33.070  12.555
12688W        W74109   0.949  29.145  10.042
12689W        W74110  44.946  37.547  12.889
12690W        W74111   1.903  28.576   0.826
12691W        W74112   9.716  41.518  10.940
12692W        W74113  29.020  24.036  11.015
12693W        W74114   0.883  36.433  14.399
12694W        W74115  23.526  36.586  12.411
12695W        W74116  34.987  34.911  13.867
12696W        W74117  12.304   2.959   4.324
12697W        W74118  27.990  27.673   1.330
12698W        W74119  15.783   2.319   5.303
12699W        W74120  36.468  38.884  14.976
12700W        W74121  21.532  12.199   1.364
12701W        W74122   5.299  43.927   4.119
12702W        W74123  26.954  44.498  10.439
12703W        W74124  30.640  26.603  12.560
12704W        W74125  41.004  36.040   4.769
12705W        W74126  10.875  17.132  10.090
12706W        W74127   8.209  41.446  15.000
12707W        W74128  35.376  30.069  14.287
12708W        W74129  37.908  16.566  11.955
12709W        W74130   0.452  44.361   3.662
12710W        W74131  41.903  22.016   4.715
12711W        W74132  38.496  41.446  12.087
12712W        W74133  14.810  39.502   4.165
12713W        W74134  36.043   8.884  10.620
12714W        W74135  17.727   1.261   3.267
12715W        W74136  19.687  18.699   3.758
12716W        W74137  30.909  17.233   1.807
12717W        W74138  17.101  25.178   3.795
12718W        W74139  17.658  15.674  11.073
12719W        W74140  36.998  14.777  13.414
12720W        W74141  40.369  30.033  13.318
12721W        W74142  26.139   0.985   2.825
12722W        W74143  26.615  11.316  11.492
12723W        W74144  32.995  21.087   3.370
12724W        W74145   0.891  15.259   3.377
12725W        W74146  37.903  20.768   4.171
12726W        W74147  26.014   4.898  12.512
12727W        W74148  30.079  35.970  11.958
12728W        W74149  36.388  15.803   2.261
12729W        W74150  38.454   3.317   1.914
12730W        W74151   3.231  10.142   3.696
12731W        W74152  42.807  23.002   1.786
12732W        W74153  44.294  44.505   1.364
12733W        W74154  12.772  34.009   0.321
12734W        W74155   3.892  43.494   2.900
12735W        W74156   6.782  21.164   5.312
12736W        W74157  39.363   3.380   3.196
12737W        W74158   1.352  21.226   2.288
12738W        W74159  28.649  20.062  11.032
12739W        W74160  15.650  24.143  14.281
12740W        W74161  30.057  37.070   3.806
12741W        W74162   2.436  22.241   1.724
12742W        W74163  34.589   2.728   0.950
12743W        W74164  19.161  39.419  10.930
12744W        W74165  37.937   3.218   2.705
12745W        W74166   3.272  44.399   2.308
12746W        W74167  22.021   4.388   5.657
12747W        W74168   4.415  19.737  12.836
12748W        W74169  24.226  34.500   1.244
12749W        W74170   7.707  43.514  10.979
12750W        W74171  44.363  29.663   3.338
12751W        W74172  21.710   5.691   4.209
12752W        W74173   3.417   5.775   1.287
12753W        W74174  23.533  23.490   3.789
12754W        W74175   5.802  39.486  12.363
12755W        W74176   6.701   9.682   3.689
12756W        W74177  33.067  37.853   2.782
12757W        W74178  37.039  12.169  12.880
12758W        W74179  43.803  22.628   2.681
12759W        W74180  20.195   1.415  10.440
12760W        W74181  40.867  33.995   1.295
12761W        W74182  31.945  10.249   2.343
12762W        W74183   9.869  24.091   4.745
12763W        W74184  39.325  32.476   4.625
12764W        W74185  21.255  25.033  11.414
12765W        W74186   7.336  30.096  14.915
12766W        W74187  38.341  41.905   0.291
12767W        W74188  41.450  32.488   1.708
12768W        W74189  40.022   6.874  13.349
12769W        W74190  17.150  27.525  14.808
12770W        W74191  12.340  35.578   0.743
12771W        W74192  17.300   5.715   3.299
12772W        W74193  42.835  15.208   3.331
12773W        W74194  38.019  14.183  13.408
12774W        W74195  39.499  24.593   4.173
12775W        W74196  32.610  41.968   0.786
12776W        W74197  19.581  35.455  12.064
12777W        W74198  35.385  26.179  14.305
12778W        W74199  21.153  32.110   3.699
12779W        W74200  42.951  12.743   0.937
12780W        W74201   6.829  13.291  12.358
12781W        W74202  18.222  29.945  12.041
12782W        W74203  29.562  35.506   1.214
12783W        W74204  41.355   8.735  14.827
12784W        W74205  11.623   3.346  11.107
12785W        W74206  16.243  36.406  13.510
12786W        W74207  43.765  15.717  13.537
12787W        W74208  43.363  16.214   1.380
12788W        W74209  41.847  26.457  13.963
12789W        W74210  38.831  31.427   4.708
12790W        W74211  18.200  12.180  13.921
12791W        W74212  42.477  15.822   0.433
12792W        W74213   8.278  27.502   4.747
12793W        W74214  42.416  13.344   0.433
12794W        W74215  22.663  15.085   0.899
12795W        W74216  11.771  14.795   4.213
12796W        W74217   7.907  30.003   1.851
12797W        W74218  38.475  31.039  14.294
12798W        W74219  19.190  38.347  14.474
12799W        W74220  39.542   3.744  13.470
12800W        W74221  39.357  43.457   1.368
12801W        W74222  23.239  44.365   4.173
12802W        W74223  14.270   7.706   4.737
12803W        W74224   9.854  23.589   0.853
12804W        W74225  35.887  43.977  12.942
12805W        W74226  43.342  14.203   2.795
12806W        W74227  14.146  24.018  13.907
12807W        W74228  41.432  23.029   4.790
12808W        W74229  10.223  20.665  11.050
12809W        W74230  42.977   1.952  13.406
12810W        W74231  23.614  15.293   1.291
12811W        W74232   8.894  19.199  14.342
12812W        W74233  42.373  27.450   3.179
12813W        W74234  13.192  25.997   1.864
12814W        W74235  42.425   5.898  12.014
12815W        W74236  23.032  23.231  11.460
12816W        W74237  30.051  22.550  12.465
12817W        W74238  13.344  22.142   2.675
12818W        W74239   3.844  28.020  10.491
12819W        W74240  42.815  28.449   4.636
12820W        W74241  23.998  16.719  11.426
12821W        W74242  10.797  14.319   0.376
12822W        W74243  33.061  16.755   1.449
12823W        W74244  37.552  29.569  10.502
12824W        W74245  21.129   4.924  13.816
12825W        W74246   8.300   1.439  11.920
12826W        W74247  36.086   1.822   0.966
12827W        W74248  16.618  25.135  13.436
12828W        W74249   3.820   3.355   1.336
12829W        W74250  37.481   2.449  12.862
12830W        W74251  33.036  42.352   0.251
12831W        W74252  39.029   1.812  12.385
12832W        W74253   2.393  25.633  14.439
12833W        W74254  11.327  15.638   3.808
12834W        W74255  15.775   8.184   0.305
12835W        W74256  35.913  43.401  14.011
12836W        W74257  35.580  21.141   1.724
12837W        W74258  30.531   4.901  12.953
12838W        W74259   0.777  24.204  12.056
12839W        W74260   8.262  37.369  10.449
12840W        W74261   7.364  13.705   4.819
12841W        W74262  22.187  33.976   4.814
12842W        W74263  13.689  43.459  13.469
12843W        W74264  35.452  16.723   2.193
12844W        W74265  30.059  32.011  13.058
12845W        W74266   8.274  43.500   4.775
12846W        W74267   1.857  41.789   4.124
12847W        W74268  14.738  10.343   4.815
12848W        W74269  26.479  34.548  13.061
12849W        W74270  25.487  29.575  14.960
12850W        W74271  15.195  17.252   1.388
12851W        W74272   5.342  38.824   1.777
12852W        W74273   6.299  20.230  11.545
12853W        W74274  19.151   5.285   3.194
12854W        W74275  21.179  39.820   0.373
12855W        W74276  32.069  29.056   2.870
12856W        W74277  35.364  31.026  14.781
12857W        W74278  10.633   4.430   1.245
12858W        W74279  28.047   4.700   2.897
12859W        W74280  18.165   6.898  11.480
12860W        W74281  39.373  32.104  11.410
12861W        W74282  20.560  43.974  13.998
12862W        W74283  19.106  19.711  10.890
12863W        W74284   7.294  42.830  10.421
12864W        W74285  10.183  18.159   2.706
12865W        W74286  20.712  12.789  12.094
12866W        W74287  24.974  10.687   0.765
12867W        W74288  30.007  31.032   3.671
12868W        W74289  37.016  13.824  11.080
12869W        W74290   4.802  18.206  14.490
12870W        W74291   2.787   9.876   3.671
12871W        W74292  44.391  18.282  12.992
12872W        W74293  33.900  31.101  14.946
12873W        W74294  27.975   6.732   1.387
12874W        W74295  40.006  18.625  13.013
12875W        W74296   6.909   8.286  14.394
12876W        W74297  13.693  25.657  12.914
12877W        W74298  43.815  31.439  14.486
12878W        W74299  26.024  15.140   1.773
12879W        W74300  41.858  33.087  11.578
12880W        W74301  10.383  29.106   3.284
12881W        W74302  11.255   9.874  12.445
12882W        W74303  11.847   2.826   4.688
12883W        W74304  20.699  39.423  12.357
12884W        W74305   6.183  29.481   3.807
12885W        W74306  38.463  37.050   2.662
12886W        W74307  13.200  41.421   0.911
12887W        W74308   5.694  10.792   2.258
12888W        W74309  24.691  24.131   1.299
12889W        W74310   0.912   2.341  14.782
12890W        W74311  26.191  29.534  14.400
12891W        W74312  16.231  25.195  13.942
12892W        W74313  41.397  25.146  14.491
12893W        W74314  25.697  29.532   4.354
12894W        W74315  26.168  31.912  14.779
12895W        W74316   5.331  25.649  10.145
12896W        W74317  32.406  22.161   1.215
12897W        W74318  17.740  15.696   2.353
12898W        W74319  36.590  38.041  14.478
12899W        W74320  43.861  23.540   3.715
12900W        W74321  32.487  34.045  11.897
12901W        W74322   1.818  25.592  14.003
12902W        W74323  14.266  34.560   4.659
12903W        W74324  28.639  12.837   0.260
12904W        W74325  19.762  38.018  12.833
12905W        W74326  29.520  43.440  12.904
12906W        W74327   1.305   9.815   2.825
12907W        W74328  40.480  36.347  13.515
12908W        W74329  32.099  10.159  12.029
12909W        W74330  16.767  11.137  14.368
12910W        W74331  38.345  12.279  10.605
12911W        W74332  33.991   8.160   1.304
12912W        W74333  41.392  29.524   4.690
12913W        W74334  29.152  12.285  11.590
12914W        W74335  35.854  43.451  11.372
12915W        W74336  19.641  27.022   1.227
12916W        W74337  32.010  21.048  13.870
12917W        W74338   7.767   4.797  12.866
12918W        W74339  29.139   4.218  13.061
12919W        W74340   8.815   8.770   1.304
12920W        W74341  10.284   8.168   3.823
12921W        W74342  13.741  33.081  11.539
12922W        W74343  16.720  38.849   1.851
12923W        W74344  24.113  14.782  14.383
12924W        W74345  16.270  33.532  10.905
12925W        W74346   2.359  29.628   0.914
12926W        W74347  14.112  11.838   5.141
12927W        W74348  35.979   3.801   2.884
12928W        W74349  38.977   2.304   2.255
12929W        W74350  15.606  25.046   0.947
12930W        W74351  42.797   2.347  10.483
12931W        W74352  39.972  15.762  11.021
12932W        W74353  40.452  35.410  14.880
12933W        W74354  34.875  13.829  14.357
12934W        W74355  15.779  11.272  11.024
12935W        W74356  41.409  34.863   2.416
12936W        W74357  39.390  43.279   3.330
12937W        W74358  36.971  38.897  13.871
12938W        W74359  19.634  32.075   0.301
12939W        W74360  21.059  21.067  12.897
12940W        W74361  13.210  41.489   1.792
12941W        W74362   2.229   6.740   3.798
12942W        W74363   1.318  18.297   0.962
12943W        W74364   3.322  22.068   1.783
12944W        W74365  39.560   6.368  13.443
12945W        W74366  15.291  29.665   4.170
12946W        W74367  12.306  27.951  13.825
12947W        W74368  11.165  21.657  11.924
12948W        W74369  21.068   2.893  11.606
12949W        W74370  34.976  11.661  12.955
12950W        W74371   4.425   8.694  11.549
12951W        W74372   9.843  17.075   3.345
12952W        W74373  42.864  17.563   4.716
12953W        W74374  35.529  39.836   2.395
12954W        W74375  34.892  10.369   4.749
12955W        W74376  22.612  14.096   2.184
12956W        W74377   4.852  38.398   3.640
12957W        W74378  12.353  41.829  14.280
12958W        W74379  12.636  10.288  11.384
12959W        W74380   8.215  19.208  11.400
12960W        W74381  29.572  18.128  14.824
12961W        W74382  29.118  31.054  11.896
12962W        W74383  18.669  31.072  12.856
12963W        W74384  28.957  26.638   2.178
12964W        W74385  44.823  26.196  13.345
12965W        W74386  34.073  28.579  13.898
12966W        W74387  28.628   8.690   0.751
12967W        W74388  10.761  23.204   4.341
12968W        W74389  16.628  24.650   0.828
12969W        W74390  14.119   5.326   2.383
12970W        W74391  43.359  13.757  11.909
12971W        W74392   3.936   3.376  12.885
12972W        W74393   3.368   1.761   2.336
12973W        W74394  31.551   5.245  11.492
12974W        W74395  33.573   7.218   3.721
12975W        W74396  35.482  33.015   4.144
12976W        W74397  43.422  12.805  11.127
12977W        W74398  25.152  39.399   0.811
12978W        W74399  21.692   1.914  11.597
12979W        W74400  27.665  32.027   2.892
12980W        W74401   7.764   1.761   5.255
12981W        W74402  24.021  27.998   1.442
12982W        W74403  30.108  33.029   4.810
12983W        W74404   1.402  24.229   1.739
12984W        W74405   9.762  24.696   4.706
12985W        W74406  16.108  20.230  10.441
12986W        W74407  29.660  15.250  12.872
12987W        W74408  27.105   7.254  13.330
12988W        W74409  40.983  21.135  10.992
12989W        W74410  44.380   9.323   5.269
12990W        W74411   7.358  33.087  14.787
12991W        W74412   4.852   1.258  13.502
12992W        W74413  18.110  42.987  13.818
12993W        W74414  39.943   4.828  13.538
12994W        W74415  26.054  12.634   3.691
12995W        W74416  36.954  15.577  12.044
12996W        W74417  29.038  17.091  14.847
12997W        W74418   1.398   1.468  10.635
12998W        W74419  43.820  37.983   0.890
12999W        W74420  10.816  43.769  14.329
13000W        W74421  40.844  26.178   4.344
13001W        W74422   7.267  38.022  10.408
13002W        W74423  39.982  44.424   1.325
13003W        W74424  22.509  29.469  11.414
13004W        W74425  29.150   4.779   3.335
13005W        W74426   4.419  15.113  10.557
13006W        W74427  11.812   4.266   3.725
13007W        W74428   5.837  17.587   3.714
13008W        W74429  19.281  39.900  14.438
13009W        W74430  41.382   9.314   0.247
13010W        W74431  37.070  10.658   3.237
13011W        W74432   8.294  41.811   2.806
13012W        W74433  34.391  16.079  10.623
13013W        W74434   5.854  24.705  11.442
13014W        W74435  21.056  32.546   4.283
13015W        W74436  13.195  39.456  14.303
13016W        W74437  26.168  41.481   0.478
13017W        W74438  30.594   4.251  13.900
13018W        W74439  35.396  18.234   4.254
13019W        W74440   8.656  10.732  14.782
13020W        W74441  15.243  22.507  13.038
13021W        W74442   2.815  22.096   4.162
13022W        W74443  36.050   8.253  14.929
13023W        W74444  14.124  43.336   3.675
13024W        W74445  24.193  22.684  13.402
13025W        W74446  17.694  42.008   1.372
13026W        W74447  44.309   0.316  14.378
13027W        W74448   3.266   5.854  13.953
13028W        W74449  41.525  19.644   0.272
13029W        W74450   0.872  25.646  11.446
13030W        W74451  32.013  37.955   1.309
13031W        W74452  13.774  35.596  10.405
13032W        W74453  14.189   7.331   3.268
13033W        W74454  33.880  39.411  12.538
13034W        W74455  20.746  18.696  13.812
13035W        W74456  16.777  44.916   0.827
13036W        W74457   6.683  12.691   0.273
13037W        W74458  24.495  31.148   0.482
13038W        W74459   9.314  12.272  10.937
13039W        W74460  39.406  33.030  11.082
13040W        W74461  25.565  17.106   1.923
13041W        W74462  36.479  11.359  10.958
13042W        W74463   4.230   3.789  14.413
13043W        W74464  11.145  35.988   3.373
13044W        W74465  19.077  43.985  12.043
13045W        W74466  18.164  16.649  13.343
13046W        W74467  18.094  40.983   0.925
13047W        W74468  16.239  36.923   3.768
13048W        W74469   0.900   0.279  11.999
13049W        W74470   3.850  40.797   2.228
13050W        W74471  29.668  17.663  13.051
13051W        W74472  39.988  17.758   1.271
13052W        W74473   0.760  32.093   1.732
13053W        W74474   3.362  28.512  13.456
13054W        W74475  40.864  11.248   1.825
13055W        W74476   7.803  29.461   1.355
13056W        W74477  36.852  18.626   0.471
13057W        W74478  36.848  40.042   0.863
13058W        W74479   0.313   1.408   3.654
13059W        W74480  43.901  41.860   0.463
13060W        W74481  14.275  26.659  11.441
13061W        W74482   0.431  38.412  14.387
13062W        W74483  25.032  22.512   0.794
13063W        W74484  17.069   4.295   3.365
13064W        W74485  22.644  21.040  12.879
13065W        W74486  14.690  22.700   1.400
13066W        W74487  34.558  15.593   1.420
13067W        W74488  37.578  41.538   4.655
13068W        W74489  37.445  20.085   0.868
13069W        W74490   0.418  15.760  13.441
13070W        W74491  14.103  25.204   1.250
13071W        W74492   9.780   2.387  11.015
13072W        W74493  39.334  40.549  11.552
13073W        W74494  31.951  31.098   0.925
13074W        W74495   3.823  28.582   1.695
13075W        W74496   8.336  36.487  12.872
13076W        W74497  41.352  32.455  11.083
13077W        W74498  19.770  31.539  10.499
13078W        W74499   5.698  38.448   5.107
13079W        W74500  19.672  15.669   5.273
13080W        W74501  43.956  27.477   3.715
13081W        W74502  30.917  24.226   3.360
13082W        W74503   6.289   4.406   0.966
13083W        W74504  43.361   4.925   1.858
13084W        W74505  43.439  42.445   4.672
13085W        W74506  41.876  22.579   5.231
13086W        W74507   4.293  14.322   1.921
13087W        W74508  42.807   7.765   0.946
13088W        W74509  41.509   6.183  14.029
13089W        W74510   0.973  14.749   4.741
13090W        W74511  20.168  22.526  10.612
13091W        W74512  14.814  31.090   0.440
13092W        W74513  34.964  16.206  14.010
13093W        W74514   4.207   5.705   0.406
13094W        W74515  39.365  38.934  14.934
13095W        W74516  21.587  13.702   4.779
13096W        W74517  16.761   0.406  11.938
13097W        W74518  32.488   5.425   5.283
13098W        W74519  43.773  10.831   1.270
13099W        W74520  18.584  30.611  10.569
13100W        W74521  30.518   6.337   0.820
13101W        W74522   3.338  35.409   2.322
13102W        W74523  23.166  39.411   1.783
13103W        W74524  34.885   1.969  12.435
13104W        W74525  29.009   5.263   2.219
13105W        W74526  14.705   0.391   2.755
13106W        W74527   7.194   1.461   2.666
13107W        W74528  23.568  24.698  14.907
13108W        W74529   1.962  29.567  11.906
13109W        W74530  22.601  20.130   2.767
13110W        W74531  26.086  22.006  13.358
13111W        W74532  17.587  11.303  12.916
13112W        W74533  25.613  12.758  13.463
13113W        W74534  37.901  19.685   3.285
13114W        W74535  12.704  27.631  11.513
13115W        W74536   5.269  40.461  12.857
13116W        W74537  13.150  21.663  11.899
13117W        W74538  11.686   1.817   4.139
13118W        W74539  35.863  40.963   1.932
13119W        W74540   8.748  36.358  13.386
13120W        W74541   2.245  32.518  12.478
13121W        W74542  40.969  41.529  13.998
13122W        W74543   8.307   7.854   1.771
13123W        W74544   4.407   3.449   2.317
13124W        W74545  17.666  32.400   0.910
13125W        W74546  28.580  14.752  10.976
13126W        W74547  20.618  34.938   2.879
13127W        W74548  44.272  15.145  12.435
13128W        W74549  10.160  30.593   2.807
13129W        W74550  19.695  18.240   1.276
13130W        W74551  28.576   1.440   3.807
13131W        W74552  20.106  31.924  12.891
13132W        W74553  43.765   6.295   3.655
13133W        W74554  36.091  18.546  12.963
13134W        W74555  28.564  28.525   2.902
13135W        W74556  21.072  21.039  10.901
13136W        W74557  27.967  29.435  10.914
13137W        W74558  43.367  40.974  11.062
13138W        W74559  44.948   7.665  12.001
13139W        W74560   4.322  22.590   1.379
13140W        W74561  28.538  39.332  11.074
13141W        W74562  17.101  23.123  12.383
13142W        W74563  33.106   9.877   4.641
13143W        W74564   2.818  44.488   0.368
13144W        W74565  34.987  26.112  10.998
13145W        W74566  41.339  12.362   0.267
13146W        W74567  31.996  12.323   3.860
13147W        W74568  15.657  26.500   1.422
13148W        W74569   0.315  11.372   3.152
13149W        W74570  25.579  12.783  14.857
13150W        W74571  11.326  43.873  13.935
13151W        W74572  16.280  17.641  14.988
13152W        W74573  10.265  27.986   0.833
13153W        W74574  42.382  26.653  14.407
13154W        W74575  42.995  44.490  14.323
13155W        W74576  44.951  39.058  14.358
13156W        W74577   3.840  37.926   0.804
13157W        W74578  14.132  14.273  14.970
13158W        W74579  36.440  25.186  12.031
13159W        W74580  36.843  37.898   1.389
13160W        W74581  19.122  33.584   3.777
13161W        W74582   4.430  28.508  11.102
13162W        W74583  33.546  37.062  14.772
13163W        W74584  15.195   4.830   1.858
13164W        W74585  32.021   5.315  13.848
13165W        W74586  33.046  36.556   2.899
13166W        W74587  12.219  14.629  13.368
13167W        W74588   9.890  44.371  10.897
13168W        W74589  32.127  38.446  14.508
13169W        W74590   7.392  44.927   0.733
13170W        W74591  18.281  40.345   0.886
13171W        W74592  35.414  42.401   1.846
13172W        W74593  22.212  44.406  11.571
13173W        W74594  32.106  40.003   0.286
13174W        W74595   5.198  29.945  11.943
13175W        W74596  42.976   3.316   1.741
13176W        W74597  22.513  31.568   2.178
13177W        W74598   8.181  32.923  10.910
13178W        W74599  24.564   8.232   3.344
13179W        W74600  34.937   3.824   4.229
13180W        W74601   7.909   4.265  12.089
13181W        W74602  21.707  29.947   3.825
13182W        W74603  10.221  43.813  10.535
13183W        W74604  18.191   2.770   1.237
13184W        W74605   1.914  26.004  13.444
13185W        W74606   0.958   9.675   1.283
13186W        W74607  25.109  43.415  12.897
13187W        W74608  26.672   4.792  13.945
13188W        W74609   1.445  39.430   0.422
13189W        W74610   5.880  18.731   4.831
13190W        W74611  41.470  34.509  13.383
13191W        W74612   4.367  36.447  12.864
13192W        W74613  37.494  35.533   4.743
13193W        W74614  32.898  15.742   3.810
13194W        W74615  37.046   8.891   1.310
13195W        W74616  34.084  32.887  12.554
13196W        W74617  22.666  44.486   1.728
13197W        W74618  34.494  16.183   3.234
13198W        W74619  23.169  13.668  13.389
13199W        W74620  15.285  27.608   0.452
13200W        W74621  36.900  23.713   2.178
13201W        W74622   1.742  21.644   4.192
13202W        W74623   3.382  34.863   3.644
13203W        W74624  14.697  28.942  12.470
13204W        W74625  19.628   6.755  13.476
13205W        W74626  34.476  10.266   2.416
13206W        W74627  19.578   6.294  13.824
13207W        W74628  15.783  32.919   3.180
13208W        W74629  12.202  13.115   2.191
13209W        W74630  34.578  17.307   3.194
13210W        W74631  41.450  25.638   2.886
13211W        W74632  10.780   0.332  13.006
13212W        W74633  33.046  43.471   2.856
13213W        W74634  37.393  11.660   0.336
13214W        W74635  32.559   7.314  14.012
13215W        W74636  38.936  10.634  13.814
13216W        W74637  20.724  43.993  14.313
13217W        W74638  21.679  13.174   2.811
13218W        W74639  18.684  25.090  13.840
13219W        W74640  19.054   5.274  13.835
13220W        W74641  18.772  10.313  11.388
13221W        W74642  28.633  18.546   4.681
13222W        W74643  41.378   6.816   4.827
13223W        W74644   0.777  21.087  10.055
13224W        W74645   9.831  22.027   0.754
13225W        W74646  21.195  25.154  13.451
13226W        W74647   5.407   5.732  14.362
13227W        W74648  32.981  20.226   2.868
13228W        W74649  25.614  39.825   2.754
13229W        W74650  10.202  20.095   3.734
13230W        W74651   5.434  29.493   4.711
13231W        W74652   0.460   6.311  12.495
13232W        W74653  33.126  13.714   1.238
13233W        W74654  37.479  28.110  11.499
13234W        W74655  41.933  42.023   3.247
13235W        W74656   9.309  29.670  12.910
13236W        W74657  17.286   2.240   0.305
13237W        W74658  10.210  29.520   0.917
13238W        W74659  26.074  31.068  13.853
13239W        W74660  36.094  16.784   2.859
13240W        W74661  15.730   0.960   2.806
13241W        W74662   7.693  30.637   3.375
13242W        W74663  34.920  38.467   0.952
13243W        W74664  14.643  19.564   0.456
13244W        W74665  22.517   8.888   2.879
13245W        W74666  42.396  13.756   2.854
13246W        W74667  43.495  31.939   4.350
13247W        W74668  30.423   4.876  14.503
13248W        W74669  27.197  26.112  12.420
13249W        W74670  21.215  32.420   0.255
13250W        W74671  27.653  34.037  13.337
13251W        W74672  22.622  26.517   3.209
13252W        W74673   1.454  33.880  12.917
13253W        W74674  17.221  18.569   0.452
13254W        W74675   4.751  44.352   3.646
13255W        W74676   2.263  10.151  10.951
13256W        W74677  19.253  15.645  14.422
13257W        W74678  33.405  22.136   2.846
13258W        W74679  17.598  12.629   0.474
13259W        W74680  21.732  33.437  12.550
13260W        W74681   9.889   0.799  12.096
13261W        W74682  23.177  29.044  11.863
13262W        W74683  43.916   1.958  14.446
13263W        W74684   5.771   9.667   0.360
13264W        W74685   0.758  17.563   1.288
13265W        W74686   1.859   4.772  10.544
13266W        W74687  11.696  20.712   4.828
13267W        W74688  21.734   4.255   0.955
13268W        W74689  10.635  36.510   0.926
13269W        W74690  13.628  17.688  14.494
13270W        W74691  23.212  24.078   3.808
13271W        W74692  20.045  27.097   0.262
13272W        W74693  21.524  22.688  12.966
13273W        W74694  21.564  40.948  12.546
13274W        W74695  29.021  35.416   1.279
13275W        W74696  33.387  25.005   1.799
13276W        W74697  22.221  36.994   3.743
13277W        W74698  34.601  29.649   0.325
13278W        W74699  16.110   6.428   3.648
13279W        W74700  12.275  13.703  12.535
13280W        W74701   8.835  27.070  10.563
13281W        W74702  39.930  41.862   0.472
13282W        W74703  19.225   4.714  12.368
13283W        W74704  23.682  22.534   4.705
13284W        W74705  22.049  36.390   1.826
13285W        W74706  31.037  12.712   0.906
13286W        W74707   7.886  17.304  10.495
13287W        W74708  42.022  32.032  13.896
13288W        W74709   3.420   5.766  10.595
13289W        W74710  24.143  30.119  14.942
13290W        W74711  21.117   2.812   0.926
13291W        W74712   1.367  18.672  12.909
13292W        W74713  30.592  25.620   5.253
13293W        W74714  21.528  20.544   1.429
13294W        W74715  21.571   3.941   0.829
13295W        W74716  36.385  13.200   1.382
13296W        W74717   7.906  12.340  11.876
13297W        W74718  36.416  22.144  14.901
13298W        W74719  41.445  38.888  12.967
13299W        W74720  25.636  34.375   3.855
13300W        W74721  44.410   9.375  12.459
13301W        W74722  15.796   1.844   2.897
13302W        W74723  18.753  31.103  10.960
13303W        W74724  41.342  43.496   2.739
13304W        W74725  42.011  10.298   3.288
13305W        W74726  38.940  33.007  13.537
13306W        W74727  11.821  28.176  10.913
13307W        W74728  24.683  10.383   4.266
13308W        W74729  43.394  27.178   0.815
13309W        W74730   3.307  24.024  14.348
13310W        W74731   4.798   4.322  13.491
13311W        W74732   7.732  26.027  11.501
13312W        W74733   2.961  38.556   3.807
13313W        W74734   9.283  42.913  10.944
13314W        W74735   9.849  15.782   0.801
13315W        W74736  23.058   6.194   2.247
13316W        W74737  19.665  16.217  12.864
13317W        W74738  42.872  17.726  13.543
13318W        W74739  29.134  10.826   2.349
13319W        W74740  42.478  23.014   0.810
13320W        W74741  11.312   1.868  11.011
13321W        W74742  32.595   5.346  10.559
13322W        W74743  25.472  23.008  13.942
13323W        W74744   3.927   0.748  11.389
13324W        W74745  28.063  21.253   0.758
13325W        W74746  30.104   7.830   0.750
13326W        W74747   3.853  32.528   2.387
13327W        W74748  11.280  43.296  13.415
13328W        W74749  16.640  38.477  13.949
13329W        W74750  19.709  19.554  12.828
13330W        W74751  28.032  12.237   4.125
13331W        W74752  29.545  26.502  14.298
13332W        W74753  41.837  11.328   2.387
13333W        W74754   3.385  34.970  11.445
13334W        W74755  13.658  37.473  12.463
13335W        W74756  28.076  33.891  10.942
13336W        W74757  42.283  34.100  11.582
13337W        W74758  38.948  41.400  11.407
13338W        W74759  28.180  29.064  10.449
13339W        W74760  44.449   1.372  11.026
13340W        W74761  22.997  20.766  13.355
13341W        W74762   3.781  24.556   1.395
13342W        W74763  38.511  38.059  12.843
13343W        W74764  34.530  27.447  14.886
13344W        W74765  25.079  29.120  11.981
13345W        W74766  15.667   7.387   3.831
13346W        W74767  24.705  18.201  11.009
13347W        W74768  32.400  27.007   3.203
13348W        W74769  24.684   2.786  12.485
13349W        W74770   7.286  41.488   4.792
13350W        W74771  38.524  41.325  12.432
13351W        W74772  10.829   6.236   3.810
13352W        W74773  10.660  21.109   1.830
13353W        W74774   2.281  21.751  14.516
13354W        W74775  14.165  17.638   2.725
13355W        W74776  18.224   8.807   4.338
13356W        W74777  42.934   5.247   0.892
13357W        W74778  39.419   7.750   3.630
13358W        W74779  29.936  29.947   0.309
13359W        W74780  28.615  37.393   0.420
13360W        W74781   4.833  37.054   2.721
13361W        W74782  22.208  25.486  10.587
13362W        W74783  42.953   4.255   0.315
13363W        W74784  34.018  19.232   3.730
13364W        W74785   0.286  37.440   2.252
13365W        W74786  43.482  10.319   2.248
13366W        W74787  34.948  41.365   0.264
13367W        W74788   8.798  32.074  12.393
13368W        W74789  44.876   1.351  13.355
13369W        W74790  26.472  33.428  14.485
13370W        W74791  31.415   8.303   3.632
13371W        W74792  21.658  38.370   0.301
13372W        W74793   0.484  29.653   1.287
13373W        W74794  11.867  42.420  10.944
13374W        W74795   2.956  24.570   2.694
13375W        W74796  32.557  21.091  10.437
13376W        W74797  42.494  15.653  14.932
13377W        W74798  30.932  11.693   5.680
13378W        W74799  31.900  30.475  10.603
13379W        W74800  31.913   8.379  10.928
13380W        W74801  39.430   2.752  12.859
13381W        W74802  19.617  39.936   2.871
13382W        W74803  39.436  37.341   1.762
13383W        W74804  35.924   5.782   4.689
13384W        W74805  36.506  44.896   3.637
13385W        W74806  21.170   7.744  12.530
13386W        W74807   4.731  35.996  12.557
13387W        W74808  36.366  37.544   4.134
13388W        W74809  36.973  44.775  14.493
13389W        W74810  27.179  35.515  13.839
13390W        W74811  14.260  12.621   0.744
13391W        W74812  19.095  32.637  11.861
13392W        W74813  26.068  33.581   4.327
13393W        W74814  15.151  32.898   5.193
13394W        W74815  40.032  22.560  14.985
13395W        W74816   2.910   6.270  10.534
13396W        W74817   4.828  13.712   1.277
13397W        W74818   1.950  16.149  10.573
13398W        W74819  32.025  42.488  10.511
13399W        W74820   1.360  17.607   0.780
13400W        W74821  19.075  10.316  10.593
13401W        W74822  40.035  15.161  11.954
13402W        W74823  22.549  32.447  12.095
13403W        W74824  16.170   5.281  11.040
13404W        W74825  18.769   1.907   4.252
13405W        W74826  13.344  25.200   3.761
13406W        W74827  15.728  12.696  11.454
13407W        W74828  23.237   6.193   0.374
13408W        W74829  26.143  14.166  14.841
13409W        W74830  11.232  15.727   3.193
13410W        W74831   3.290   3.285  14.822
13411W        W74832  31.102   8.381  11.401
13412W        W74833  24.490  35.879   1.880
13413W        W74834  15.310   4.886  14.758
13414W        W74835  18.590  35.433   2.785
13415W        W74836  39.345   1.820  11.484
13416W        W74837   2.722   9.291   2.707
13417W        W74838   9.304  25.153  11.519
13418W        W74839  17.787  41.483  11.973
13419W        W74840  37.357  17.720  13.839
13420W        W74841   9.862  27.563  10.622
13421W        W74842  23.159  36.529   4.266
13422W        W74843   9.824  40.480  11.398
13423W        W74844  12.247   9.886  14.455
13424W        W74845  41.348   1.470  12.049
13425W        W74846  31.624  24.621   1.916
13426W        W74847  22.664  15.722   4.784
13427W        W74848  29.151  15.145   0.730
13428W        W74849  23.594  34.043  10.594
13429W        W74850  18.217  10.693  12.901
13430W        W74851  27.137  14.293  10.573
13431W        W74852  22.695  30.421  12.438
13432W        W74853  29.613  22.054   2.825
13433W        W74854  42.995  15.250   4.155
13434W        W74855  30.131  22.215  13.985
13435W        W74856   1.481   1.823   4.354
13436W        W74857   7.708  23.548   2.331
13437W        W74858  14.679  31.909  12.576
13438W        W74859  36.897   4.726   3.845
13439W        W74860  25.527  31.980   4.295
13440W        W74861   3.242   0.471   4.300
13441W        W74862   5.311   8.314   1.438
13442W        W74863  16.209  26.191   0.917
13443W        W74864  26.690  37.010   2.722
13444W        W74865   4.399  40.048   0.470
13445W        W74866  43.275  30.551  13.911
13446W        W74867  12.362  32.935   3.672
13447W        W74868  40.548   2.734   3.335
13448W        W74869  17.642  11.151  12.372
13449W        W74870   9.729  34.040   2.400
13450W        W74871  16.099  40.347   4.643
13451W        W74872  25.048  40.884  13.979
13452W        W74873  20.691  26.200   3.761
13453W        W74874   9.297  40.890  11.552
13454W        W74875  24.982  34.110  11.490
13455W        W74876   5.719  36.553   2.719
13456W        W74877  38.845  15.228   0.964
13457W        W74878   4.926  35.935   2.899
13458W        W74879  30.434  11.623  11.505
13459W        W74880  22.559   2.296  12.420
13460W        W74881  24.593   7.830   3.658
13461W        W74882  37.924  10.815   2.408
13462W        W74883  39.405   9.169  11.871
13463W        W74884  22.082  16.787   4.274
13464W        W74885  23.068  28.667  12.502
13465W        W74886  13.650  33.988   0.398
13466W        W74887  37.478  37.004  12.896
13467W        W74888  35.939  34.900  11.509
13468W        W74889  44.262  44.945  13.051
13469W        W74890  30.535  43.846  14.838
13470W        W74891  43.821  43.009   1.886
13471W        W74892  12.759  15.276  12.432
13472W        W74893  41.482  19.704  12.531
13473W        W74894  11.140   4.838  14.016
13474W        W74895  18.613  15.663   5.105
13475W        W74896  23.123   0.448   1.248
13476W        W74897  23.508   0.789   3.678
13477W        W74898  25.541  18.218   4.772
13478W        W74899   6.195  42.480   4.604
13479W        W74900  34.973  29.443  13.873
13480W        W74901  20.243  42.881   4.744
13481W        W74902  28.024   3.441   0.343
13482W        W74903  36.048  43.808  11.485
13483W        W74904  33.912   3.736   3.720
13484W        W74905  38.828  39.945   4.247
13485W        W74906  29.115   4.766  14.937
13486W        W74907  44.362  26.991   4.319
13487W        W74908  16.298   1.832   4.819
13488W        W74909  36.031  43.973  14.288
13489W        W74910  13.805  25.068   4.622
13490W        W74911   1.314   1.378  13.891
13491W        W74912  43.833  40.960  13.791
13492W        W74913   8.841  22.157  11.580
13493W        W74914   4.877  19.559  11.512
13494W        W74915  13.190   1.787  14.025
13495W        W74916  11.743  28.000  12.058
13496W        W74917  16.089  14.830  13.413
13497W        W74918  18.564   0.937   1.728
13498W        W74919  14.823  11.351   2.902
13499W        W74920  33.968   4.816   0.924
13500W        W74921  44.818  40.508  13.043
13501W        W74922  17.675  22.121  13.912
13502W        W74923  21.560  22.711   9.934
13503W        W74924   7.417  35.931  12.562
13504W        W74925   9.335   0.266   0.820
13505W        W74926  22.686  12.611   2.407
13506W        W74927   9.860  18.209   4.254
13507W        W74928   7.677  28.676  13.329
13508W        W74929  34.882   7.694  13.002
13509W        W74930  37.072  35.885  12.835
13510W        W74931  43.398  36.846  13.317
13511W        W74932  34.046  16.610  14.414
13512W        W74933   2.863   5.761  12.473
13513W        W74934  13.647  38.991  13.370
13514W        W74935  43.988  41.891   4.828
13515W        W74936  16.076  21.581   0.369
13516W        W74937  38.557  15.633  13.043
13517W        W74938  13.253  13.320   2.297
13518W        W74939  40.853   1.262   1.221
13519W        W74940  41.471  28.453   0.814
13520W        W74941  39.508  15.275   0.841
13521W        W74942  35.854  42.430  13.532
13522W        W74943  39.909  21.527  12.554
13523W        W74944  24.517  14.239   1.829
13524W        W74945  27.543  28.027  14.316
13525W        W74946  28.135  26.042   2.183
13526W        W74947  17.655  38.013   4.190
13527W        W74948  29.086   9.685  13.360
13528W        W74949  24.636  13.135  10.462
13529W        W74950   2.868  22.183  10.962
13530W        W74951  13.841  15.723   4.604
13531W        W74952  43.496  30.568   2.851
13532W        W74953  35.952  34.088   0.754
13533W        W74954  30.005  35.541  13.818
13534W        W74955  11.285   3.825  14.363
13535W        W74956   7.740  30.440   1.309
13536W        W74957   4.923  11.359  10.576
13537W        W74958  32.989  22.090   3.745
13538W        W74959  23.009   9.664   0.267
13539W        W74960  29.609  44.943  13.902
13540W        W74961  43.875  11.848   3.216
13541W        W74962  39.373  25.107   2.385
13542W        W74963  36.528  32.405   0.444
13543W        W74964   4.238   3.909  12.400
13544W        W74965  16.310   0.840   2.268
13545W        W74966  30.067  41.866  13.803
13546W        W74967   1.258  36.457   4.717
13547W        W74968   3.779  41.357   0.392
13548W        W74969  38.030  31.920  13.023
13549W        W74970  41.302  14.695  13.452
13550W        W74971   8.330  34.916  14.853
13551W        W74972  32.029  42.999  10.538
13552W        W74973   8.873  14.322  13.991
13553W        W74974  41.326  12.718  10.149
13554W        W74975   4.226  26.107   2.202
13555W        W74976  37.860  25.967   2.757
13556W        W74977  17.209  10.638   0.939
13557W        W74978   2.831  12.640  12.561
13558W        W74979  38.961  15.115   2.733
13559W        W74980  16.801  11.814   1.849
13560W        W74981   0.899  20.746   1.346
13561W        W74982  32.417  14.789   2.881
13562W        W74983  38.443   2.234  13.047
13563W        W74984  22.636  38.533  11.095
13564W        W74985  29.981  25.045  14.515
13565W        W74986  30.127  20.550  12.369
13566W        W74987  43.916   3.461   1.350
13567W        W74988  22.129  34.051   1.420
13568W        W74989  22.613  19.085   3.723
13569W        W74990  34.513   1.259   0.472
13570W        W74991  41.986  26.620  14.919
13571W        W74992  28.942   9.272  14.824
13572W        W74993   5.340  10.158  13.966
13573W        W74994  14.641  13.696   2.349
13574W        W74995  44.391  24.011  12.925
13575W        W74996  23.680  40.535   4.660
13576W        W74997  12.362  38.440   1.917
13577W        W74998  44.422  43.305  13.447
13578W        W74999  32.966   6.685  14.435
13579W        W75000  20.170  30.982   1.694
13580W        W75001  10.270  25.559   3.765
13581W        W75002  14.612  38.972   0.437
13582W        W75003  30.638  19.040  11.964
13583W        W75004  38.389  21.580   1.276
13584W        W75005   7.295  23.644  11.077
13585W        W75006   4.805  39.907   2.766
13586W        W75007   8.693  34.101  10.952
13587W        W75008  37.922  26.648   2.234
13588W        W75009  33.587  44.369  11.950
13589W        W75010  24.094   5.385   1.834
13590W        W75011  14.254  20.533  14.810
13591W        W75012  36.976  19.556  13.374
13592W        W75013  25.479   7.384   2.331
13593W        W75014   0.759   6.273   0.875
13594W        W75015  18.650  15.163   3.866
13595W        W75016   3.749  30.477  12.477
13596W        W75017   7.730  41.832  11.870
13597W        W75018  13.797   1.237  14.816
13598W        W75019  32.914  26.697  11.909
13599W        W75020  36.072  35.078   0.457
13600W        W75021  39.341   0.284   1.847
13601W        W75022  30.013  11.294   5.796
13602W        W75023  33.484  41.308   5.201
13603W        W75024  28.008  12.224   5.240
13604W        W75025  16.571   1.903  12.518
13605W        W75026   0.454  13.317  14.362
13606W        W75027  19.069   7.186  11.899
13607W        W75028  20.548  42.938   1.278
13608W        W75029  20.749  20.110  11.381
13609W        W75030  23.710   9.314   2.276
13610W        W75031  25.212   2.926  13.920
13611W        W75032   3.316  33.931   3.784
13612W        W75033  11.283  19.039  11.512
13613W        W75034  41.318  27.515  14.774
13614W        W75035  34.610  37.439  14.346
13615W        W75036   3.355  35.963   3.173
13616W        W75037  44.803   2.912   0.386
13617W        W75038   8.683  24.977  13.997
13618W        W75039  31.955  32.905  13.463
13619W        W75040  20.646  36.063   1.813
13620W        W75041   7.773  44.383   2.263
13621W        W75042  20.196   5.235   0.478
13622W        W75043  23.551  12.361  11.906
13623W        W75044   2.939  38.964   4.670
13624W        W75045  29.577   7.364  12.473
13625W        W75046   0.420  15.758  10.544
13626W        W75047  15.151  13.657   1.247
13627W        W75048  40.425  21.528  11.374
13628W        W75049  39.541  18.673   2.813
13629W        W75050  23.673  32.067   3.253
13630W        W75051  44.390  44.390  13.387
13631W        W75052  24.488  25.080   2.715
13632W        W75053  37.340   6.262   3.222
13633W        W75054  39.386  16.675   3.767
13634W        W75055   9.259  28.463  12.554
13635W        W75056  39.826   2.338   4.676
13636W        W75057  24.148  26.536   4.197
13637W        W75058   9.227   4.868   1.223
13638W        W75059  31.073  24.221  14.412
13639W        W75060   9.323  22.144   4.703
13640W        W75061  13.261  43.305  13.397
13641W        W75062  11.843   3.946   2.847
13642W        W75063  30.534   1.896  13.927
13643W        W75064  16.768  42.493  10.501
13644W        W75065   5.361  43.826  14.791
13645W        W75066  10.223  13.777  12.990
13646W        W75067  20.616   7.193   2.312
13647W        W75068   7.876  37.495  14.014
13648W        W75069  18.278  32.476   3.691
13649W        W75070  14.095  39.994  13.026
13650W        W75071  15.325  44.297   0.786
13651W        W75072  36.437  18.611  10.912
13652W        W75073   6.375  44.454  11.039
13653W        W75074  23.585  30.065  12.963
13654W        W75075   6.227  13.317   9.976
13655W        W75076   4.410  24.223  10.439
13656W        W75077  11.665  11.725  13.530
13657W        W75078   0.284  36.943  13.990
13658W        W75079   3.436   6.884  13.931
13659W        W75080   2.424  44.438  11.428
13660W        W75081  34.883  15.746   3.795
13661W        W75082  27.540  34.865   3.836
13662W        W75083  39.811  39.420  13.964
13663W        W75084  23.124  16.618   0.260
13664W        W75085   4.273   0.747   0.378
13665W        W75086   7.390  15.260   3.261
13666W        W75087  12.855  37.086  13.541
13667W        W75088   3.413  43.386  12.076
13668W        W75089  10.164  20.732  14.301
13669W        W75090  35.542  37.485   3.378
13670W        W75091  26.075  40.036   2.662
13671W        W75092  10.740   0.762   9.995
13672W        W75093   6.700  25.656   9.574
13673W        W75094   1.774  11.371  12.991
13674W        W75095  15.324   6.274  11.521
13675W        W75096  23.645  32.448  13.054
13676W        W75097  24.113  27.188  13.985
13677W        W75098  22.205  39.995   0.270
13678W        W75099   9.794  26.527  11.498
13679W        W75100  29.040   5.813   2.399
13680W        W75101  41.854   4.850   1.274
13681W        W75102  44.932   1.376   1.911
13682W        W75103  23.233  24.525   3.160
13683W        W75104  39.472  12.628  12.424
13684W        W75105  38.520  14.339   0.966
13685W        W75106   2.414   4.405   0.736
13686W        W75107  33.604  24.587  14.295
13687W        W75108  21.243  31.001  14.386
13688W        W75109  30.142   3.844   1.246
13689W        W75110   2.258  44.776   4.231
13690W        W75111   7.782  16.129   2.671
13691W        W75112  40.356   0.976  10.969
13692W        W75113  24.709  43.511  14.973
13693W        W75114  29.122  36.975  10.916
13694W        W75115  19.708  35.895   3.354
13695W        W75116  27.507  13.307   2.359
13696W        W75117  22.538  43.488   3.799
13697W        W75118  36.560  26.621   4.287
13698W        W75119   8.830  44.979   1.846
13699W        W75120   9.324  39.378  13.520
13700W        W75121  14.310  22.683  14.456
13701W        W75122  24.084  14.240   2.704
13702W        W75123   2.270   9.360  11.908
13703W        W75124  39.325  22.227   4.670
13704W        W75125   2.370   4.856   3.334
13705W        W75126  31.021  42.409  12.884
13706W        W75127  24.201  34.582   4.777
13707W        W75128  16.627  26.158  14.013
13708W        W75129  15.104  26.541   4.281
13709W        W75130  14.318  12.182  13.826
13710W        W75131  25.546   5.273   3.197
13711W        W75132  19.056  10.311  11.477
13712W        W75133   9.688   1.315  12.996
13713W        W75134  39.327  27.486   4.690
13714W        W75135  17.286   5.909   2.721
13715W        W75136  10.336  42.971  10.540
13716W        W75137  23.602  42.484  13.832
13717W        W75138  33.892  17.802  10.979
13718W        W75139  11.827  20.117   1.824
13719W        W75140  32.492   9.761  13.826
13720W        W75141  40.464  12.201  12.030
13721W        W75142   6.887   4.721  11.497
13722W        W75143  17.759  10.713  14.765
13723W        W75144  35.447  40.879  14.964
13724W        W75145  41.793  16.119  12.879
13725W        W75146  28.570  14.177   1.806
13726W        W75147  17.236  20.755   1.934
13727W        W75148  40.926  44.802   2.704
13728W        W75149   8.308  44.479   4.778
13729W        W75150  20.204  38.485   0.966
13730W        W75151  14.169  13.736  13.520
13731W        W75152  26.170  22.569   1.245
13732W        W75153  19.098   7.417   4.825
13733W        W75154  42.801  17.163   5.167
13734W        W75155  12.693  34.918   4.205
13735W        W75156  19.227  40.393  12.446
13736W        W75157  13.801  19.564   0.359
13737W        W75158  34.501  13.295   0.751
13738W        W75159  24.222   7.328   2.246
13739W        W75160  37.561  35.101  12.485
13740W        W75161  43.294  13.137  11.909
13741W        W75162   3.375  31.603   1.308
13742W        W75163  41.292  15.624   3.247
13743W        W75164   8.818  34.550   2.773
13744W        W75165   7.725  34.869   5.116
13745W        W75166  35.455  42.944   2.365
13746W        W75167  40.809  14.715  14.320
13747W        W75168   0.386  26.471   0.427
13748W        W75169  22.137  37.402   0.962
13749W        W75170  23.717  10.862   2.396
13750W        W75171  23.591  14.608  11.550
13751W        W75172  41.464  24.682   4.804
13752W        W75173  32.471  28.466   2.235
13753W        W75174  23.038   1.834   1.896
13754W        W75175  39.479  25.116   1.342
13755W        W75176  18.202  33.611   0.243
13756W        W75177  30.593  18.564  14.846
13757W        W75178  15.171  10.261  12.394
13758W        W75179  26.624  12.688  13.338
13759W        W75180   0.987  27.999  11.382
13760W        W75181   4.219  23.214   3.807
13761W        W75182  32.928  34.054   1.398
13762W        W75183   8.739  21.671  14.942
13763W        W75184  42.978  42.789   4.334
13764W        W75185  15.810  34.606   3.274
13765W        W75186  29.508  13.261  12.928
13766W        W75187  42.925  23.559   2.781
13767W        W75188   4.246   1.315   2.279
13768W        W75189   9.762  15.761  11.573
13769W        W75190   2.299   4.883   1.432
13770W        W75191   2.299  26.619  10.523
13771W        W75192  10.286  41.011   2.414
13772W        W75193  10.827   0.783   1.739
13773W        W75194  25.683  21.735  12.081
13774W        W75195  25.704  11.314  11.978
13775W        W75196  43.799  37.857   4.230
13776W        W75197   2.772  43.798   1.819
13777W        W75198  25.204   6.346   2.184
13778W        W75199  39.816   7.325   1.348
13779W        W75200  43.496  11.632   1.710
13780W        W75201  34.116   1.398  10.015
13781W        W75202  29.932  22.090  11.994
13782W        W75203  34.086  38.823   3.660
13783W        W75204  22.217  18.688  10.978
13784W        W75205   0.369  13.212  10.962
13785W        W75206  17.655  38.851  13.047
13786W        W75207  41.378  40.888  13.933
13787W        W75208  20.724   1.798   1.837
13788W        W75209  11.826  34.093   1.753
13789W        W75210  44.284  40.476  12.464
13790W        W75211   7.397   6.377   2.369
13791W        W75212  36.852  17.799  10.412
13792W        W75213   4.914   2.780  12.926
13793W        W75214  32.555  39.368  13.981
13794W        W75215   3.944  11.242  11.456
13795W        W75216  15.264  25.571   4.683
13796W        W75217  26.997  38.881   4.686
13797W        W75218  22.133  15.641   9.462
13798W        W75219  19.213  38.425   4.186
13799W        W75220  29.455  27.463  10.924
13800W        W75221   4.323  27.690   5.128
13801W        W75222  25.095  38.359  10.426
13802W        W75223  38.907  21.098  13.891
13803W        W75224  44.979   3.728  11.064
13804W        W75225  11.158  10.851  11.087
13805W        W75226  26.630  25.026  14.487
13806W        W75227  15.630  11.273   1.794
13807W        W75228  29.128   0.400   4.791
13808W        W75229  14.772   3.929  14.844
13809W        W75230  19.087  33.441   1.716
13810W        W75231  27.522  25.592   2.383
13811W        W75232   5.286  33.431  11.022
13812W        W75233   7.818   2.467   3.716
13813W        W75234  12.214  27.982   1.289
13814W        W75235  22.510  31.584  10.469
13815W        W75236  38.422  43.915  11.512
13816W        W75237   0.317  34.869   2.699
13817W        W75238  26.493  40.915  12.477
13818W        W75239   2.387  36.370  10.464
13819W        W75240  15.309  31.043  13.865
13820W        W75241  35.415  19.707  14.769
13821W        W75242  24.221  24.002  11.880
13822W        W75243  16.269  21.738  14.927
13823W        W75244  24.624  15.190  11.885
13824W        W75245   1.419  26.096   2.327
13825W        W75246  22.729  37.432  13.870
13826W        W75247  14.799  30.043  13.981
13827W        W75248  30.522  33.435  12.475
13828W        W75249  35.930  37.046   4.300
13829W        W75250  38.983  18.597  10.570
13830W        W75251  28.175  25.653  13.474
13831W        W75252  18.759  44.266   1.800
13832W        W75253  36.381  34.459   2.829
13833W        W75254  44.847   3.232  14.420
13834W        W75255  36.406   2.913   0.388
13835W        W75256  16.742  26.080  12.076
13836W        W75257  37.911  14.654   3.798
13837W        W75258  18.052  35.106   3.336
13838W        W75259  19.576   0.258   3.822
13839W        W75260  16.579  38.376  11.968
13840W        W75261  23.549  29.166  11.918
13841W        W75262  38.530  37.514  11.881
13842W        W75263  20.121  38.553   3.638
13843W        W75264   4.310  40.486   0.393
13844W        W75265  42.477  42.922  11.556
13845W        W75266   2.375   9.346   4.302
13846W        W75267  43.916  28.970  12.466
13847W        W75268  12.753   1.423  14.362
13848W        W75269  34.933  38.022   0.344
13849W        W75270   5.367   3.245   3.851
13850W        W75271  11.219  22.515   0.381
13851W        W75272  14.235  23.587   0.329
13852W        W75273  17.662  15.088   4.167
13853W        W75274  14.313   7.208   1.347
13854W        W75275  32.062  14.616  12.489
13855W        W75276  23.094  16.638  10.921
13856W        W75277  28.949  43.451  14.323
13857W        W75278  22.639  35.576   4.642
13858W        W75279  10.358  29.564  11.015
13859W        W75280  21.563  16.125   3.800
13860W        W75281  35.046  33.928  12.393
13861W        W75282  25.595  25.079   2.673
13862W        W75283  26.592  20.272   4.757
13863W        W75284  44.341   3.837   0.414
13864W        W75285  42.810  10.321   3.327
13865W        W75286  23.608  42.032   4.114
13866W        W75287  15.733  44.335   1.815
13867W        W75288  25.017   1.741   1.904
13868W        W75289  19.226  41.537  14.988
13869W        W75290  40.926   5.364  11.071
13870W        W75291  39.969  25.179   4.138
13871W        W75292  25.192  32.978   2.792
13872W        W75293  39.894  17.721   0.793
13873W        W75294  41.872   9.190  14.398
13874W        W75295  23.697  11.796   3.633
13875W        W75296   7.750  11.673   4.175
13876W        W75297  37.419  25.674   2.238
13877W        W75298  22.591   1.248  10.140
13878W        W75299  33.096  34.978   1.901
13879W        W75300  24.724   0.270   0.853
13880W        W75301  26.503  16.720   0.394
13881W        W75302  11.337  35.892   3.802
13882W        W75303  14.335   1.329   2.221
13883W        W75304   9.749  33.905  11.928
13884W        W75305  21.205  43.880   0.274
13885W        W75306  17.238  18.662   4.205
13886W        W75307  17.199  34.910   3.249
13887W        W75308  28.631  29.037  10.519
13888W        W75309  15.180   6.203   0.962
13889W        W75310   1.950   7.851   4.207
13890W        W75311  38.519  30.419   1.767
13891W        W75312  27.956  42.289   0.351
13892W        W75313  16.811   6.923  13.053
13893W        W75314  31.148  18.744  14.007
13894W        W75315  22.157   5.218   0.867
13895W        W75316  29.510  27.535   2.858
13896W        W75317   6.370  42.023   1.851
13897W        W75318  18.244   3.365  13.525
13898W        W75319  10.786  40.505   4.226
13899W        W75320  33.923   5.758  14.452
13900W        W75321  13.737  27.456  11.414
13901W        W75322  39.933  27.607  13.498
13902W        W75323   4.823  14.696   1.374
13903W        W75324  23.239  16.696   2.230
13904W        W75325  40.951  28.674  11.418
13905W        W75326  37.001  34.382  14.414
13906W        W75327  23.548  13.834   4.787
13907W        W75328   5.779  37.065  12.947
13908W        W75329   4.266  12.361  11.007
13909W        W75330  14.148  39.506  11.013
13910W        W75331  29.594  24.188   1.282
13911W        W75332  15.323   4.731  13.449
13912W        W75333  38.936   9.196  13.994
13913W        W75334   3.754  26.680   3.869
13914W        W75335  28.640  35.571   0.307
13915W        W75336  42.523  18.565  14.893
13916W        W75337   3.762  28.964  11.913
13917W        W75338  43.337  32.567  11.988
13918W        W75339   0.383   6.269  10.475
13919W        W75340  34.947  22.006   1.733
13920W        W75341  37.996  24.661   3.366
13921W        W75342  43.505  25.582  14.397
13922W        W75343  26.038  36.570  11.048
13923W        W75344  21.209  26.551  10.966
13924W        W75345  23.646   1.399   1.448
13925W        W75346  38.425  42.518   0.884
13926W        W75347  23.152  38.910   0.833
13927W        W75348   0.964  28.049   5.259
13928W        W75349  33.999  44.338   0.765
13929W        W75350   2.920  10.145  10.505
13930W        W75351  44.915  18.557  14.399
13931W        W75352  43.442   6.260   4.344
13932W        W75353  27.010  26.149   0.357
13933W        W75354  29.519  36.370   2.307
13934W        W75355  35.081  31.940   2.807
13935W        W75356  25.071  22.521  12.451
13936W        W75357  16.757  17.231   4.742
13937W        W75358  40.928   0.956  11.537
13938W        W75359  27.988  21.752   2.348
13939W        W75360  23.065   9.846  13.031
13940W        W75361  12.783  18.218  11.046
13941W        W75362  12.842   5.799  13.043
13942W        W75363  16.248   4.282   3.649
13943W        W75364  12.653  23.505   4.337
13944W        W75365  16.632   4.755   1.373
13945W        W75366  30.623   3.936  13.032
13946W        W75367  18.636   8.354   4.214
13947W        W75368  37.877  41.443  11.982
13948W        W75369   2.451  24.660   2.381
13949W        W75370  14.197  16.256   1.275
13950W        W75371   7.744   8.333   1.846
13951W        W75372  39.486   2.383  11.891
13952W        W75373  11.174  42.952   4.685
13953W        W75374  23.043  42.843  12.091
13954W        W75375  29.150  22.568  11.947
13955W        W75376  27.187  19.256  10.470
13956W        W75377   6.397  41.478   4.340
13957W        W75378  13.266  30.536  12.564
13958W        W75379  29.657   8.670   1.235
13959W        W75380  10.751  13.609  10.556
13960W        W75381  11.306  32.582   3.320
13961W        W75382  44.307  25.120  13.431
13962W        W75383  18.662  34.063  13.942
13963W        W75384  26.667   5.918   3.822
13964W        W75385  10.676  41.361   5.701
13965W        W75386  16.573  42.829   1.890
13966W        W75387  27.612  26.010  11.952
13967W        W75388  15.745   2.365  12.478
13968W        W75389   6.389  13.833  13.915
13969W        W75390  37.540  19.559  13.343
13970W        W75391  18.576  23.130  13.421
13971W        W75392   1.368  44.326  11.563
13972W        W75393   7.399   3.243  12.854
13973W        W75394  35.971  30.557  11.496
13974W        W75395  24.017  29.446  11.544
13975W        W75396  34.907  31.097  12.021
13976W        W75397  41.389  29.989   2.367
13977W        W75398   4.776  36.375  12.052
13978W        W75399  27.130  26.127   2.718
13979W        W75400  10.226  42.949  14.328
13980W        W75401   4.739   0.274   4.214
13981W        W75402  16.227   0.478  14.772
13982W        W75403  30.979  19.626   3.306
13983W        W75404  31.986  24.180  13.898
13984W        W75405  16.224  14.799  14.959
13985W        W75406  32.625  44.826  11.080
13986W        W75407  19.073  13.730   2.779
13987W        W75408  10.274  30.158  12.574
13988W        W75409  42.998  23.211   0.858
13989W        W75410  26.541  25.696   3.209
13990W        W75411  40.806  28.580  12.081
13991W        W75412  32.897  14.727   4.648
13992W        W75413   7.219   2.927   4.674
13993W        W75414  28.933  43.496  13.332
13994W        W75415  33.464  15.227   2.730
13995W        W75416   1.830  43.813   1.837
13996W        W75417  10.222  43.471   0.393
13997W        W75418  27.562  15.200  10.958
13998W        W75419  36.353  14.169  10.068
13999W        W75420  33.562  11.812   3.860
14000W        W75421   7.746  31.935  14.420
14001W        W75422  21.030  11.138  11.458
14002W        W75423  31.546  29.117  13.839
14003W        W75424  15.150   8.678   0.437
14004W        W75425   3.269   9.753   1.449
14005W        W75426   6.254  20.203  13.024
14006W        W75427  40.895   0.945   1.449
14007W        W75428  25.648  25.676   1.804
14008W        W75429  30.438  32.137   0.915
14009W        W75430  18.644  24.217   1.802
14010W        W75431  12.755   5.777   0.917
14011W        W75432  37.951   6.322  12.997
14012W        W75433  16.765  37.563  12.410
14013W        W75434  14.129  15.125  12.011
14014W        W75435  41.375  23.633   3.689
14015W        W75436  31.019  17.620  14.426
14016W        W75437  19.219  11.692  12.963
14017W        W75438  41.911  23.050  13.373
14018W        W75439  44.404  38.931  12.496
14019W        W75440  33.499   1.935  13.509
14020W        W75441  30.947  11.854   1.904
14021W        W75442   8.363  15.779   3.348
14022W        W75443   2.367  16.292   4.325
14023W        W75444   0.750  27.057  10.519
14024W        W75445   5.345  18.168   1.801
14025W        W75446  25.988  10.356  10.902
14026W        W75447  34.929   2.872  13.539
14027W        W75448  25.035  12.238   2.898
14028W        W75449  42.405  34.941  10.482
14029W        W75450  26.004  15.617   4.284
14030W        W75451  22.655  15.162   3.857
14031W        W75452  43.324  14.644   4.318
14032W        W75453  15.670  21.151   5.089
14033W        W75454   6.221   1.387  10.581
14034W        W75455  24.689  33.123  11.468
14035W        W75456  34.440  12.704  11.408
14036W        W75457  44.455  44.332  14.486
14037W        W75458  12.229  11.363   1.819
14038W        W75459  27.621  25.705  13.850
14039W        W75460  39.913  35.439  14.902
14040W        W75461  26.178  29.004   3.835
14041W        W75462  38.452  42.448   3.155
14042W        W75463  12.686  11.639   3.654
14043W        W75464   4.699  30.108   2.387
14044W        W75465  39.920  34.968  12.943
14045W        W75466  15.660  20.063  14.308
14046W        W75467  27.665   8.848  12.092
14047W        W75468  16.587  20.741  10.513
14048W        W75469  28.477  35.585   3.187
14049W        W75470  23.519   2.389   3.725
14050W        W75471  32.026  37.470   4.712
14051W        W75472  35.601  12.138   4.671
14052W        W75473  25.686  31.544  14.816
14053W        W75474  12.798  29.591   0.765
14054W        W75475   8.795  26.591  10.576
14055W        W75476  38.883  31.578   1.742
14056W        W75477  40.959  20.093   1.413
14057W        W75478   5.926  43.009   1.882
14058W        W75479  22.020   0.436   1.348
14059W        W75480  14.626  38.417   1.756
14060W        W75481  12.836  33.088  13.456
14061W        W75482  23.130  16.621   0.940
14062W        W75483  11.360  21.257  12.823
14063W        W75484  16.738  30.162  12.847
14064W        W75485  40.049  27.121  14.331
14065W        W75486  43.902  18.739   4.229
14066W        W75487  24.120  24.688  11.579
14067W        W75488  36.380  37.532  11.402
14068W        W75489  28.505   4.823   1.435
14069W        W75490   9.257  35.940  14.378
14070W        W75491  33.472  39.361  11.385
14071W        W75492  43.325   6.681  13.010
14072W        W75493  23.221  10.288  12.920
14073W        W75494   8.315  36.544   3.821
14074W        W75495  42.946  25.671   4.288
14075W        W75496  26.094  16.660   2.719
14076W        W75497  15.617  19.114   1.717
14077W        W75498  39.444  19.727  13.414
14078W        W75499   8.858  26.013  11.967
14079W        W75500   5.284  19.569  11.464
14080W        W75501  20.684  33.413   2.260
14081W        W75502  10.860  43.859   2.786
14082W        W75503  34.603   0.785  12.882
14083W        W75504  44.883  33.435  10.420
14084W        W75505   4.802   6.823   2.793
14085W        W75506  19.545  35.902  13.918
14086W        W75507  44.290  13.728   2.745
14087W        W75508   8.365  43.516   4.301
14088W        W75509  44.323   3.846  11.065
14089W        W75510   9.254  16.178   3.637
14090W        W75511  14.232  42.003   2.838
14091W        W75512  22.508  29.954   0.342
14092W        W75513  17.236  18.059  11.566
14093W        W75514  13.663   0.975   2.684
14094W        W75515  28.932   9.698  12.546
14095W        W75516  25.015  38.023  12.441
14096W        W75517   8.770  37.398   1.785
14097W        W75518  21.547  23.211   2.753
14098W        W75519  28.571  41.296   2.791
14099W        W75520   1.942  38.562  13.516
14100W        W75521   6.236   5.316  11.106
14101W        W75522  25.587  32.545  11.858
14102W        W75523  17.626  23.087  13.879
14103W        W75524  42.493  34.598  13.371
14104W        W75525  32.141   6.717  13.916
14105W        W75526  41.349  22.606   1.748
14106W        W75527   4.873  35.033   4.213
14107W        W75528   2.251  38.505  10.960
14108W        W75529  37.004  26.518  11.910
14109W        W75530  10.654  43.431   2.403
14110W        W75531  20.116  43.795  11.540
14111W        W75532   2.282  13.764  11.932
14112W        W75533  31.129  18.234  13.822
14113W        W75534  25.560   7.208   1.277
14114W        W75535  11.352  23.581  10.478
14115W        W75536  18.160  34.438   3.671
14116W        W75537  38.330  36.452   2.217
14117W        W75538   6.306  10.783  12.967
14118W        W75539  16.247  35.933  13.913
14119W        W75540  40.527  43.987  13.919
14120W        W75541  13.218   8.233  11.600
14121W        W75542  35.444  17.583  10.937
14122W        W75543  35.010  42.351  11.529
14123W        W75544  20.751  42.789  13.908
14124W        W75545  22.053  24.554   0.777
14125W        W75546  41.313  40.458   0.477
14126W        W75547  18.171  17.619  10.463
14127W        W75548  26.509  38.412   2.783
14128W        W75549  42.888  34.068   3.237
14129W        W75550   0.931   6.911  11.967
14130W        W75551  29.424  40.834  11.378
14131W        W75552  32.949  37.458  12.893
14132W        W75553  32.628  18.296  14.480
14133W        W75554   7.702  19.762  14.309
14134W        W75555  44.300  11.172  11.515
14135W        W75556  12.248   5.695   1.421
14136W        W75557  44.415   7.884  10.927
14137W        W75558  33.910  44.850   2.225
14138W        W75559  24.585   0.941   0.943
14139W        W75560  21.230  22.504   3.173
14140W        W75561   5.917  26.171  12.359
14141W        W75562  14.685  18.618   0.385
14142W        W75563  38.353  36.522   1.846
14143W        W75564  40.922  10.361   1.727
14144W        W75565  24.561  19.616   4.672
14145W        W75566   0.912  32.397   2.335
14146W        W75567  12.170  31.004   1.871
14147W        W75568  28.073  36.377   1.757
14148W        W75569  42.963  43.793   0.399
14149W        W75570  25.079   5.832  12.934
14150W        W75571   0.339   3.863  11.067
14151W        W75572  21.616  29.979  13.494
14152W        W75573  14.181   6.779  12.464
14153W        W75574  36.865  42.519   1.302
14154W        W75575   7.183  21.696  10.564
14155W        W75576  26.190  33.110  10.907
14156W        W75577  33.440  37.497  14.819
14157W        W75578  37.394  16.652  12.390
14158W        W75579   3.399  30.621   4.682
14159W        W75580  15.738   0.317  10.081
14160W        W75581  37.406  13.335  12.020
14161W        W75582  18.196  32.418  12.943
14162W        W75583  40.315  30.944   2.809
14163W        W75584  42.851  10.849  12.969
14164W        W75585   3.256  36.930   0.397
14165W        W75586  15.621  12.327  12.476
14166W        W75587  14.229  30.041  10.638
14167W        W75588  16.296  32.488   3.316
14168W        W75589  42.306  42.344   2.285
14169W        W75590  24.006  33.115   1.835
14170W        W75591   3.273  42.900  10.638
14171W        W75592  40.377  42.955  13.998
14172W        W75593  22.222  40.483   0.859
14173W        W75594   2.437   3.321  11.487
14174W        W75595  40.832   2.264  12.891
14175W        W75596  14.223   5.811   0.737
14176W        W75597   8.250   4.804  14.441
14177W        W75598  31.430   2.919  10.902
14178W        W75599   9.859  40.423   4.224
14179W        W75600  29.997   0.850   0.865
14180W        W75601  30.119   6.736  10.491
14181W        W75602   1.838   1.357  12.032
14182W        W75603  31.429  35.443   4.271
14183W        W75604  27.038  41.966   4.702
14184W        W75605  37.461  39.010   0.387
14185W        W75606  43.930   8.817  10.997
14186W        W75607  21.692  38.060   4.776
14187W        W75608  21.021  26.605  12.425
14188W        W75609  42.385  10.299  11.571
14189W        W75610  36.915   1.965  13.429
14190W        W75611  21.070  12.293  14.394
14191W        W75612  27.145  18.110   5.196
14192W        W75613  25.681   4.424  14.458
14193W        W75614  18.595  11.777   0.330
14194W        W75615  37.574   8.667  14.837
14195W        W75616   6.797  26.493   3.836
14196W        W75617  13.184  38.453  12.875
14197W        W75618  31.148   2.886  12.543
14198W        W75619  15.275  22.567   2.779
14199W        W75620  42.857  37.404   0.376
14200W        W75621  20.137  41.024  13.018
14201W        W75622   1.369  25.516   1.843
14202W        W75623  23.547  41.348  11.458
14203W        W75624  38.887   4.320  13.460
14204W        W75625  26.544  21.060   1.926
14205W        W75626   5.735  32.058  10.509
14206W        W75627  23.018  37.508  11.559
14207W        W75628  10.857  12.808   3.715
14208W        W75629  44.302  28.587   0.765
14209W        W75630  31.003   8.844   3.268
14210W        W75631  15.605   2.386   4.838
14211W        W75632  38.066  34.412  13.356
14212W        W75633  21.043   9.376   3.283
14213W        W75634   7.673  43.815   4.779
14214W        W75635  36.448  16.276  11.954
14215W        W75636  37.441  39.882  10.420
14216W        W75637  14.622  14.802  11.040
14217W        W75638  12.340  12.166  14.290
14218W        W75639  37.044   1.379  10.923
14219W        W75640   4.221   4.820  13.422
14220W        W75641  33.611  39.832   0.448
14221W        W75642  37.968  27.612   2.707
14222W        W75643  18.710   0.837  11.434
14223W        W75644  44.351  19.607   0.863
14224W        W75645  34.400  10.365  13.835
14225W        W75646   2.426  28.561  11.934
14226W        W75647  34.457  14.246   2.337
14227W        W75648  30.645  22.708   4.332
14228W        W75649  18.733  27.150   1.327
14229W        W75650  23.156   9.722   1.723
14230W        W75651  36.033  16.128  11.112
14231W        W75652  16.761  44.890  10.923
14232W        W75653  22.694  29.039  13.039
14233W        W75654  15.651  14.739   1.791
14234W        W75655  36.462  24.031   2.772
14235W        W75656  43.432  43.439  14.931
14236W        W75657  23.725  26.993   2.391
14237W        W75658  12.182   9.344  13.934
14238W        W75659  29.567  41.824   1.279
14239W        W75660  23.221  31.606  11.003
14240W        W75661   3.424   5.354   3.696
14241W        W75662  44.328  20.640   2.285
14242W        W75663  13.723   2.731   2.195
14243W        W75664   1.852  39.862  10.973
14244W        W75665  40.017   0.297  14.912
14245W        W75666  17.717  27.098  11.084
14246W        W75667  41.496  27.162   3.364
14247W        W75668  27.189  33.442  13.886
14248W        W75669  41.787  27.588  11.961
14249W        W75670  34.984  42.902   3.276
14250W        W75671  19.676  19.181   4.128
14251W        W75672  15.628   2.302  13.872
14252W        W75673  43.904   5.414   3.282
14253W        W75674  17.759  35.877   4.303
14254W        W75675  14.754   0.968   0.905
14255W        W75676  25.541  20.115  11.468
14256W        W75677  43.781  23.551  12.848
14257W        W75678  39.840  23.092   2.762
14258W        W75679   8.694   9.211   0.833
14259W        W75680   2.811  31.106   1.708
14260W        W75681  14.190  15.243   4.257
14261W        W75682  18.164  11.144  12.396
14262W        W75683  34.432  31.075  10.423
14263W        W75684  40.876  17.280   5.119
14264W        W75685  43.324  35.458   4.189
14265W        W75686  31.495   0.442   0.934
14266W        W75687  16.618  36.376  13.537
14267W        W75688  43.855  14.735   0.426
14268W        W75689  18.668  29.060  11.052
14269W        W75690  16.282  19.684   3.237
14270W        W75691  10.218  15.744   4.682
14271W        W75692  26.137  33.883  10.491
14272W        W75693   8.388  28.939   0.881
14273W        W75694  39.418  27.968   2.244
14274W        W75695  18.683   0.450   1.372
14275W        W75696  39.872  23.625  14.032
14276W        W75697  42.782  44.779   0.734
14277W        W75698  32.909  32.519  13.954
14278W        W75699  21.744  35.925  12.410
14279W        W75700   9.659  29.977   2.724
14280W        W75701   4.782  37.344  13.444
14281W        W75702   9.174  29.116  11.426
14282W        W75703  28.092  26.660   4.239
14283W        W75704  18.119  39.957  13.419
14284W        W75705  31.617   1.297  13.847
14285W        W75706  32.021  34.110   3.346
14286W        W75707   0.836  29.069  14.500
14287W        W75708  28.091  30.651   9.957
14288W        W75709  11.180  23.179  12.993
14289W        W75710  29.981  42.445  11.931
14290W        W75711   7.295  38.327  11.450
14291W        W75712  40.475  28.150   3.223
14292W        W75713  20.594  39.515   4.709
14293W        W75714  40.361  16.079  13.489
14294W        W75715  26.125  27.571  11.944
14295W        W75716  27.453  35.107   0.249
14296W        W75717  16.176  44.325  13.504
14297W        W75718  23.229   0.338   0.274
14298W        W75719  21.222  17.633  14.883
14299W        W75720  14.831  15.196  12.924
14300W        W75721  20.040   2.446   1.924
14301W        W75722  18.077  11.697  12.861
14302W        W75723  23.572   0.870   1.860
14303W        W75724  38.933  17.160  11.868
14304W        W75725   6.214  24.639   1.749
14305W        W75726  12.635  35.518  11.595
14306W        W75727  34.087  26.671  12.833
14307W        W75728   1.353  33.901   2.867
14308W        W75729  13.767   1.740   0.726
14309W        W75730  36.944  21.534   4.797
14310W        W75731  36.447  16.801   3.717
14311W        W75732  21.217  35.963  14.929
14312W        W75733  10.853  44.332  10.967
14313W        W75734   7.242  14.168  10.910
14314W        W75735  40.357  11.827   4.628
14315W        W75736  42.784  25.114  14.513
14316W        W75737   1.813  24.212  11.875
14317W        W75738   4.382   8.679  10.547
14318W        W75739  18.261  14.671   0.438
14319W        W75740   0.890  11.709  11.929
14320W        W75741  16.802  13.692  11.595
14321W        W75742  16.141   6.807   4.666
14322W        W75743   1.898  17.262  10.523
14323W        W75744   4.431  20.717  14.506
14324W        W75745  14.641  33.914   1.294
14325W        W75746   2.322   7.807  13.436
14326W        W75747  29.024  24.065   1.853
14327W        W75748  33.416  10.748   1.893
14328W        W75749  25.474  25.620  14.282
14329W        W75750  14.627  37.528  10.471
14330W        W75751  22.667   3.276  10.975
14331W        W75752  25.014  15.720   2.231
14332W        W75753  43.317  37.541   3.645
14333W        W75754  23.599  15.710  12.042
14334W        W75755  35.408  39.063   4.627
14335W        W75756  28.028   4.884  13.307
14336W        W75757   4.884  24.996  10.960
14337W        W75758  10.220  30.639  14.825
14338W        W75759  19.106  32.121   3.755
14339W        W75760  37.521   1.451  10.585
14340W        W75761  44.352   2.432   0.777
14341W        W75762   2.761  37.949  14.406
14342W        W75763  12.199  30.928   1.240
14343W        W75764   2.830  28.971  11.404
14344W        W75765  10.250  27.141  13.344
14345W        W75766  34.434  33.430   3.153
14346W        W75767  43.397  31.988  10.489
14347W        W75768  34.113  34.507   3.868
14348W        W75769  25.619  27.466  10.630
14349W        W75770  31.495   3.948   3.647
14350W        W75771  14.333  28.058  14.449
14351W        W75772  21.079  26.128  10.511
14352W        W75773  10.232   5.855   0.819
14353W        W75774   0.425  31.944   0.877
14354W        W75775  24.575  10.830   1.289
14355W        W75776  28.597  32.031   2.248
14356W        W75777  21.145  32.968   1.429
14357W        W75778   3.754  34.552   0.300
14358W        W75779  19.718  10.335  11.944
14359W        W75780  19.766  41.450  14.398
14360W        W75781  16.261   3.241  11.481
14361W        W75782  31.083  37.071  13.415
14362W        W75783  17.081  22.731  14.903
14363W        W75784  14.645  40.954   0.893
14364W        W75785  18.067  13.812   2.883
14365W        W75786  23.173   1.331  10.601
14366W        W75787  15.123  39.972   4.291
14367W        W75788  38.023  30.621   4.762
14368W        W75789   1.334  26.645   1.334
14369W        W75790  15.591   2.735   5.091
14370W        W75791  19.745  12.783   1.422
14371W        W75792  35.359  24.021   2.748
14372W        W75793   5.385  18.678  11.884
14373W        W75794  38.035   3.732   1.258
14374W        W75795  14.720  23.046   4.647
14375W        W75796  12.845  36.537   1.302
14376W        W75797   1.315   4.839   0.848
14377W        W75798   3.383  42.363   1.282
14378W        W75799  42.518   5.309  10.514
14379W        W75800  19.547  31.971   2.882
14380W        W75801  17.693  13.171   1.409
14381W        W75802  23.096   0.389  14.013
14382W        W75803   6.776  12.634   2.891
14383W        W75804  42.402   5.762   0.323
14384W        W75805  29.124  31.054  12.354
14385W        W75806  38.970  30.511   0.777
14386W        W75807   2.780  29.133  13.017
14387W        W75808  18.226  41.971  11.467
14388W        W75809  38.023  19.654   1.215
14389W        W75810  36.996   6.185  13.501
14390W        W75811   4.387   8.758   0.953
14391W        W75812   5.830  10.684   3.233
14392W        W75813   3.901  34.081   1.695
14393W        W75814  14.717  33.981  12.538
14394W        W75815  26.510  40.339   3.332
14395W        W75816  36.891  22.246   4.835
14396W        W75817  37.446  12.659  14.292
14397W        W75818  24.694  11.288  10.572
14398W        W75819  44.483  22.516  12.084
14399W        W75820  37.458  30.082  13.885
14400W        W75821  39.907  29.567   1.352
14401W        W75822  19.728  30.154  14.883
14402W        W75823  23.563  13.805  10.451
14403W        W75824  23.200  42.436  14.805
14404W        W75825  24.478   8.871  10.989
14405W        W75826  25.020   5.235   0.846
14406W        W75827  35.890  15.734  10.910
14407W        W75828  37.404   1.260   1.739
14408W        W75829  12.262  10.857  10.469
14409W        W75830  38.070  44.956   0.916
14410W        W75831   0.947  41.418   3.669
14411W        W75832  39.503  38.935   2.756
14412W        W75833  31.402  40.429   2.870
14413W        W75834  38.941  24.687  14.958
14414W        W75835  31.119   6.692  11.484
14415W        W75836  16.675  34.595  12.082
14416W        W75837   7.707  29.025  12.572
14417W        W75838  21.715  30.063  11.123
14418W        W75839   9.733  11.296   2.362
14419W        W75840  22.225  35.080   0.246
14420W        W75841   4.324   8.338  10.619
14421W        W75842   6.874  25.637   0.764
14422W        W75843  11.794  24.087  10.488
14423W        W75844  42.882  14.705   4.748
14424W        W75845  23.080  11.219   1.828
14425W        W75846  43.360  41.934   2.673
14426W        W75847  27.501  34.950  13.833
14427W        W75848   4.370   0.490  10.084
14428W        W75849  39.440  23.003   4.780
14429W        W75850   1.791  34.891  12.546
14430W        W75851   7.811   8.197  13.835
14431W        W75852  11.626  29.667   1.882
14432W        W75853   9.785  29.662  12.015
14433W        W75854  29.023  32.010   3.726
14434W        W75855  28.571  24.050  12.572
14435W        W75856   4.399  17.119   3.825
14436W        W75857  40.388  44.435   4.341
14437W        W75858   7.850  37.507   3.722
14438W        W75859   4.360  15.187   2.322
14439W        W75860   3.811  29.505   2.336
14440W        W75861  41.887  22.631  14.418
14441W        W75862  19.773  23.084  13.497
14442W        W75863  38.861  14.185  11.867
14443W        W75864  25.587  35.900   3.645
14444W        W75865   9.724  39.398   0.823
14445W        W75866  35.889   6.790  13.015
14446W        W75867  24.084   9.755   3.365
14447W        W75868  42.869   2.365   1.289
14448W        W75869   7.673  42.849  11.610
14449W        W75870  28.449  42.796  11.122
14450W        W75871  38.035  43.499  14.772
14451W        W75872  26.581  41.342   0.915
14452W        W75873  19.719  34.548  12.047
14453W        W75874  13.665  10.356   1.822
14454W        W75875  18.231  12.730   0.842
14455W        W75876   4.940  18.613   3.816
14456W        W75877  12.718  35.951  11.051
14457W        W75878  18.587  13.281  11.128
14458W        W75879  21.086  26.954   4.149
14459W        W75880  25.982  31.090  12.368
14460W        W75881  12.701  27.556  11.107
14461W        W75882  16.696  33.536   0.443
14462W        W75883  10.233  36.923  12.354
14463W        W75884  18.276  32.030   2.744
14464W        W75885  38.940  30.558  10.069
14465W        W75886   8.733  20.668  14.914
14466W        W75887   6.875  16.108   2.670
14467W        W75888  13.144  10.778  14.926
14468W        W75889  39.560  27.503   4.232
14469W        W75890  11.149  41.000  13.477
14470W        W75891  29.544  30.536  14.321
14471W        W75892   0.817  39.319   2.181
14472W        W75893   4.802  34.461  11.392
14473W        W75894  11.226   4.926   3.650
14474W        W75895  26.674  18.651   0.430
14475W        W75896   5.392   6.758  14.921
14476W        W75897  30.566  15.777  11.476
14477W        W75898  32.929  35.913  10.419
14478W        W75899  14.270  25.133   4.196
14479W        W75900  34.096  33.076   0.310
14480W        W75901   2.796  24.973   3.869
14481W        W75902  28.555  22.071   2.871
14482W        W75903  14.162  13.282  10.540
14483W        W75904   0.322  38.068  11.084
14484W        W75905  20.224  42.403   2.861
14485W        W75906  21.692  18.696  13.339
14486W        W75907  11.193   8.730  12.455
14487W        W75908  14.157  37.047  13.372
14488W        W75909  39.418  34.566   1.780
14489W        W75910  43.996  29.176   4.197
14490W        W75911  32.417  14.809  11.128
14491W        W75912  33.439  25.139   0.823
14492W        W75913   4.205  41.359   1.299
14493W        W75914  28.498  34.401   3.272
14494W        W75915   8.176  20.561   0.257
14495W        W75916  21.134   6.208   0.784
14496W        W75917  44.326  24.581   0.383
14497W        W75918  37.990  42.912  10.973
14498W        W75919  10.228  39.513   0.860
14499W        W75920   7.718  24.695   5.294
14500W        W75921  23.559   3.773  14.763
14501W        W75922  10.357   6.221   1.918
14502W        W75923  15.821  34.112  14.350
14503W        W75924  38.458  21.528  13.449
14504W        W75925  17.691  13.248  14.785
14505W        W75926  15.819   2.371   4.237
14506W        W75927  22.625  38.861   0.467
14507W        W75928  10.215  40.841  10.535
14508W        W75929   5.915  11.268   1.876
14509W        W75930  27.110  33.426  12.863
14510W        W75931   9.393  41.401  13.928
14511W        W75932  13.749  35.539  13.833
14512W        W75933   0.417   4.778  13.004
14513W        W75934  32.458   0.286  11.546
14514W        W75935  29.520  25.023   0.805
14515W        W75936   3.811  42.783   5.177
14516W        W75937   5.268   2.831  13.522
14517W        W75938  41.335  11.285  11.876
14518W        W75939  24.598  14.212  10.529
14519W        W75940  41.884   9.309   4.717
14520W        W75941  37.542   6.367   5.302
14521W        W75942   7.410  44.484   0.871
14522W        W75943   6.181   2.735  10.889
14523W        W75944  27.975  41.438  10.449
14524W        W75945  23.064  43.425  10.563
14525W        W75946   8.308  29.645   3.372
14526W        W75947  21.660  38.507   2.231
14527W        W75948  21.533  22.625   2.748
14528W        W75949  44.480  43.358   4.669
14529W        W75950  31.942   3.427  10.902
14530W        W75951   2.355  17.632   3.659
14531W        W75952  25.964   6.372   1.407
14532W        W75953   3.297  41.035   2.301
14533W        W75954  12.181  16.809  14.899
14534W        W75955  29.552  26.659   4.229
14535W        W75956   7.311  14.601  14.841
14536W        W75957  32.140  31.426   1.333
14537W        W75958  33.423  44.412  12.832
14538W        W75959  27.103  29.016  14.407
14539W        W75960  32.016  32.108  14.458
14540W        W75961  19.653   1.273   2.714
14541W        W75962   9.185  14.328   0.861
14542W        W75963  10.652   9.205   0.895
14543W        W75964   6.413  41.442   1.231
14544W        W75965  37.075   9.781   2.314
14545W        W75966  44.827  44.874  14.011
14546W        W75967  40.506  40.515  13.347
14547W        W75968   1.312  23.712   9.530
14548W        W75969  26.631  12.740  11.431
14549W        W75970   7.413   2.326   3.669
14550W        W75971  41.914  13.169   1.282
14551W        W75972  43.769  15.673   0.760
14552W        W75973  11.343   1.736  14.414
14553W        W75974  27.949  37.852  14.001
14554W        W75975   2.434  22.011   0.255
14555W        W75976  14.115   3.933  14.888
14556W        W75977  25.682  39.867   4.639
14557W        W75978  17.079  35.971  10.132
14558W        W75979  26.606  13.666  12.559
14559W        W75980  26.153  30.630  12.022
14560W        W75981  31.091   0.289  13.341
14561W        W75982  24.533   4.810  12.455
14562W        W75983  18.055  16.218  11.877
14563W        W75984  34.055  14.731   2.681
14564W        W75985  39.823  25.486  11.595
14565W        W75986  37.513  10.239   3.241
14566W        W75987  40.445  15.654  12.451
14567W        W75988   2.957  44.936  11.014
14568W        W75989  25.182  16.249   0.258
14569W        W75990  32.403  38.859  14.933
14570W        W75991   9.830  43.480   2.801
14571W        W75992  34.071  24.215   0.898
14572W        W75993  36.946  34.039  11.122
14573W        W75994  37.449  43.483  11.101
14574W        W75995  25.483  26.044   1.777
14575W        W75996   2.887  36.573  12.553
14576W        W75997   8.161  20.257   2.274
14577W        W75998   8.295  13.231  10.578
14578W        W75999  35.023  30.911   0.881
14579W        W76000  40.318  16.239  13.793
14580W        W76001  15.684  34.609   0.827
14581W        W76002  15.660  11.723   4.722
14582W        W76003  10.280   6.740  11.535
14583W        W76004  13.600  24.641   3.822
14584W        W76005  15.317  21.127   1.697
14585W        W76006  13.218  12.340   0.903
14586W        W76007   8.275   1.319   4.253
14587W        W76008   6.793  38.515   9.443
14588W        W76009  34.044  16.745   4.685
14589W        W76010  32.495  22.639  14.488
14590W        W76011  10.791   6.217  13.501
14591W        W76012  36.041  43.283   0.933
14592W        W76013   8.329  36.095   9.952
14593W        W76014  15.189  14.283   3.183
14594W        W76015  10.271  30.045  13.459
14595W        W76016   5.208  44.883   4.138
14596W        W76017  39.995  26.458  13.524
14597W        W76018  43.863  15.651  10.940
14598W        W76019  12.774  38.494   4.668
14599W        W76020  15.641   6.204   2.320
14600W        W76021  39.477  41.835  14.295
14601W        W76022  42.967   6.760  12.518
14602W        W76023  24.563  43.418  12.473
14603W        W76024  28.929  26.959  13.832
14604W        W76025  41.888  11.226  12.837
14605W        W76026  44.841   4.944   3.194
14606W        W76027  20.533  14.655  14.304
14607W        W76028  38.466   1.268  11.390
14608W        W76029  22.503  19.592  10.139
14609W        W76030  29.977  37.070   2.773
14610W        W76031  38.984  15.189   4.613
14611W        W76032  24.494  31.001  10.425
14612W        W76033  34.909  20.256   0.881
14613W        W76034  32.587  28.546  14.313
14614W        W76035  20.216   8.666  13.019
14615W        W76036  22.169  42.859   1.912
14616W        W76037   1.741  10.643  10.609
14617W        W76038  11.355  34.469   4.741
14618W        W76039  43.824   9.864  11.128
14619W        W76040  14.724  29.560   5.234
14620W        W76041  21.611   5.717   1.854
14621W        W76042  10.150   0.978  14.023
14622W        W76043  23.668  14.627   3.866
14623W        W76044  14.283  22.020  13.039
14624W        W76045  22.009  31.046   4.307
14625W        W76046  38.033  31.137   3.662
14626W        W76047  26.612  43.496  13.318
14627W        W76048  23.029  26.173   0.292
14628W        W76049   8.869   3.732  13.006
14629W        W76050  24.576  37.356   3.311
14630W        W76051  44.391  17.705  13.857
14631W        W76052  23.241  31.607   0.890
14632W        W76053  33.505  26.479  14.436
14633W        W76054   0.452   7.233  13.352
14634W        W76055  22.708   9.219   0.860
14635W        W76056   9.775  34.050  12.947
14636W        W76057  42.826   1.963   1.905
14637W        W76058  17.082   0.858  10.534
14638W        W76059  13.269  24.479   0.775
14639W        W76060  33.090  18.061   4.614
14640W        W76061   8.331   7.789  12.996
14641W        W76062  26.062  10.231   0.886
14642W        W76063  13.706  42.355   1.247
14643W        W76064   3.749   6.334   1.719
14644W        W76065  39.319  11.267  13.822
14645W        W76066  14.298  18.711   3.823
14646W        W76067  23.492  29.561  11.424
14647W        W76068  32.624  14.675  14.940
14648W        W76069  34.029  31.903   3.380
14649W        W76070  23.529  15.258  12.915
14650W        W76071  38.508   1.429   0.775
14651W        W76072   9.218   4.367   2.388
14652W        W76073  40.899  39.888  11.052
14653W        W76074   3.299  32.016   0.294
14654W        W76075  30.476   2.449   4.169
14655W        W76076  36.380  38.348   2.812
14656W        W76077  39.342  16.224  11.612
14657W        W76078  26.154   1.971  13.349
14658W        W76079   3.304  29.426  13.310
14659W        W76080  12.812  39.016   4.179
14660W        W76081  40.436  30.441  12.973
14661W        W76082  26.961  39.377  13.060
14662W        W76083  41.991  44.809  11.865
14663W        W76084  31.030   9.276  11.863
14664W        W76085  29.036  41.367  11.610
14665W        W76086  37.021  15.168  12.870
14666W        W76087  11.797  18.585   4.664
14667W        W76088  10.839  25.628  10.982
14668W        W76089  21.077   4.700   5.751
14669W        W76090  12.835  27.650   0.875
14670W        W76091  15.196  32.003   5.781
14671W        W76092   2.452   0.266   3.359
14672W        W76093  28.132  26.089  12.512
14673W        W76094  36.998  20.114   0.416
14674W        W76095  14.714  16.097   0.827
14675W        W76096  12.744   1.895  13.361
14676W        W76097  15.161  15.775  12.933
14677W        W76098   4.855  19.773   2.739
14678W        W76099  19.767  22.515  13.545
14679W        W76100  10.841  37.886  11.874
14680W        W76101  36.492  33.130  12.059
14681W        W76102   6.905  15.789   2.199
14682W        W76103   5.884  27.059  14.330
14683W        W76104  33.880  36.889  10.550
14684W        W76105  27.625  22.549   2.295
14685W        W76106  12.296  14.812  11.920
14686W        W76107   6.271  26.013  12.038
14687W        W76108  20.151  20.240   3.373
14688W        W76109  27.178  29.135  13.472
14689W        W76110   4.762  34.517  10.557
14690W        W76111  27.537  23.670  14.283
14691W        W76112  19.059  16.634   2.694
14692W        W76113   2.254  38.930   4.193
14693W        W76114  40.859  17.640  14.911
14694W        W76115  33.438   1.858   2.362
14695W        W76116  13.121   1.751   4.219
14696W        W76117   4.270  32.627   2.190
14697W        W76118   6.743   3.224   5.665
14698W        W76119  11.215  25.120   1.347
14699W        W76120  42.944  37.982  13.986
14700W        W76121   6.203  28.184   4.118
14701W        W76122  35.992  28.634   4.802
14702W        W76123  40.964  43.356   2.699
14703W        W76124  31.572  21.712   2.288
14704W        W76125  14.163  26.596  14.286
14705W        W76126   8.241   8.342  11.611
14706W        W76127  19.129  15.197   1.212
14707W        W76128  21.739  22.022  13.848
14708W        W76129   9.772  20.768   3.329
14709W        W76130  13.723  34.911  12.475
14710W        W76131  38.506  21.706   0.300
14711W        W76132  35.866  41.437   2.679
14712W        W76133  40.842  34.895   2.201
14713W        W76134  28.970  34.474  13.021
14714W        W76135  10.846  35.972  11.879
14715W        W76136  23.129  21.679   2.878
14716W        W76137  36.571  24.974   3.867
14717W        W76138   8.788   0.847   3.242
14718W        W76139   6.376  41.496  13.329
14719W        W76140  33.972  37.990  11.996
14720W        W76141  17.136  37.566  14.449
14721W        W76142  28.497  28.615  11.576
14722W        W76143  22.557  15.326  13.044
14723W        W76144  42.331   3.353  11.508
14724W        W76145  10.211  11.248  14.985
14725W        W76146  16.678  19.248   2.736
14726W        W76147  42.396  10.839   2.714
14727W        W76148  35.541  34.399   0.741
14728W        W76149  20.708   4.832   0.371
14729W        W76150  24.150   2.835  14.287
14730W        W76151  20.672  44.962  13.400
14731W        W76152   3.786  10.255   3.723
14732W        W76153  43.466   1.907  13.025
14733W        W76154  43.296  29.096  14.389
14734W        W76155   1.973  21.520   3.358
14735W        W76156  44.954  38.016  11.505
14736W        W76157  24.166  28.100   5.228
14737W        W76158  19.233  13.319  13.860
14738W        W76159  38.912  39.357  11.592
14739W        W76160  25.219  14.132   0.406
14740W        W76161  31.118  44.842  13.830
14741W        W76162  12.814   1.857   3.789
14742W        W76163   2.868   2.860   2.195
14743W        W76164  32.405  43.350  13.886
14744W        W76165   6.186  28.038   5.219
14745W        W76166  11.851  19.756   4.313
14746W        W76167  35.975   7.882   3.680
14747W        W76168  35.867  14.119   0.279
14748W        W76169  33.027  28.055  12.422
14749W        W76170  22.609  42.346  12.359
14750W        W76171  33.593  33.956  11.409
14751W        W76172  26.565  20.639  11.611
14752W        W76173  33.525  34.988  12.024
14753W        W76174  39.453  32.069  13.940
14754W        W76175  40.920   4.818  14.873
14755W        W76176  19.124  40.868  11.036
14756W        W76177  43.307  36.570   3.695
14757W        W76178  40.318  25.468   2.235
14758W        W76179  36.921  38.390  12.923
14759W        W76180  31.534  14.797   9.998
14760W        W76181  44.886  25.485   1.357
14761W        W76182   5.824  39.837   9.942
14762W        W76183  41.797  25.555   2.277
14763W        W76184   5.280   6.284  13.791
14764W        W76185  27.566   0.970   2.738
14765W        W76186  21.149  11.659  10.592
14766W        W76187  24.077   7.687  11.902
14767W        W76188  22.231  44.962   3.797
14768W        W76189  27.039  14.155  13.389
14769W        W76190  15.662  20.722  11.018
14770W        W76191  24.523  33.979   0.797
14771W        W76192   2.233  41.391  14.341
14772W        W76193  24.029  16.101   1.281
14773W        W76194   6.199  32.500  13.313
14774W        W76195  43.286  21.070   3.158
14775W        W76196  44.337  44.892   1.395
14776W        W76197  29.970  23.535   3.232
14777W        W76198  32.435  30.505   4.148
14778W        W76199  33.570  11.307  10.995
14779W        W76200   8.269  36.000   3.354
14780W        W76201  15.136   0.288  14.959
14781W        W76202  15.606  25.092   3.630
14782W        W76203  35.000  20.662   1.853
14783W        W76204   2.751  34.591   2.853
14784W        W76205   7.793  28.167  10.462
14785W        W76206  10.684  15.609   3.867
14786W        W76207  23.676   6.868  12.091
14787W        W76208   3.409  36.590   0.834
14788W        W76209  29.162  30.531  12.397
14789W        W76210  43.010  29.047  12.890
14790W        W76211  11.748  12.222   3.254
14791W        W76212  10.275  40.857  11.095
14792W        W76213   8.390  30.594  14.298
14793W        W76214  28.679  39.843   3.163
14794W        W76215  44.497  20.078   5.268
14795W        W76216  31.910  26.635   4.115
14796W        W76217  18.253  33.575  14.390
14797W        W76218   3.811  20.068   1.385
14798W        W76219  22.154   0.404  11.039
14799W        W76220  43.403  26.139  11.596
14800W        W76221  33.057  23.085   2.861
14801W        W76222  35.441  29.641   1.310
14802W        W76223  16.676  26.633  14.929
14803W        W76224  24.147  11.236   1.753
14804W        W76225  25.160  18.701   3.719
14805W        W76226   1.900  15.083   3.651
14806W        W76227  33.569   0.782   3.339
14807W        W76228  38.854   0.258  14.869
14808W        W76229  16.087  18.584  14.870
14809W        W76230   8.692  12.779   9.989
14810W        W76231   3.456  40.947  13.400
14811W        W76232  25.073  39.560   2.850
14812W        W76233   4.928  29.610  13.509
14813W        W76234  12.659   7.256  11.385
14814W        W76235  21.186   4.738  10.599
14815W        W76236  31.561  14.108   5.250
14816W        W76237   1.245  27.961  10.989
14817W        W76238  14.589  41.365  11.542
14818W        W76239   2.431  42.523   0.929
14819W        W76240  44.278  10.330  11.055
14820W        W76241  35.037   5.367   4.214
14821W        W76242   8.853  31.051   2.899
14822W        W76243  13.218   4.334  13.963
14823W        W76244  24.478  29.092  12.513
14824W        W76245  39.979  29.968  11.593
14825W        W76246   4.790  12.755  11.905
14826W        W76247  22.747  20.211   1.717
14827W        W76248   1.441   8.765   2.330
14828W        W76249  36.020  10.333  13.524
14829W        W76250  19.188  37.036  12.983
14830W        W76251  15.690  36.540   0.280
14831W        W76252  32.465   9.697   2.690
14832W        W76253   5.795  30.426  14.469
14833W        W76254  42.031  32.458  10.983
14834W        W76255  42.955  16.214   1.315
14835W        W76256  28.096  25.217  14.909
14836W        W76257   5.712  23.578  11.490
14837W        W76258  44.418  31.070   0.812
14838W        W76259  43.316  20.608  11.969
14839W        W76260   6.350  24.228   3.146
14840W        W76261   6.901  22.659  11.595
14841W        W76262   5.781  33.992  12.901
14842W        W76263  35.094  30.439  10.147
14843W        W76264  15.638  37.502  11.522
14844W        W76265   8.380  44.379  11.492
14845W        W76266   8.801   3.445  11.607
14846W        W76267  27.662  11.829   0.330
14847W        W76268  38.056  17.073  13.482
14848W        W76269  38.510  33.993   2.704
14849W        W76270  25.077  44.920   2.752
14850W        W76271   2.766  40.046  13.441
14851W        W76272  40.367  36.592   5.133
14852W        W76273  22.234  34.583   4.334
14853W        W76274  22.601  44.771  14.489
14854W        W76275  29.011  15.114  12.550
14855W        W76276  33.526   7.810   2.832
14856W        W76277  34.949   9.311   4.293
14857W        W76278  23.111  25.107   4.669
14858W        W76279   8.883  22.045   4.318
14859W        W76280  19.249  39.912   2.219
14860W        W76281   0.779  32.930  13.408
14861W        W76282   0.407   5.881   4.289
14862W        W76283   0.827  11.356   1.703
14863W        W76284  29.165  43.960  12.483
14864W        W76285   9.870  15.603   2.678
14865W        W76286  30.936  10.347  11.035
14866W        W76287   7.754  43.866   1.441
14867W        W76288  28.501  42.483  11.862
14868W        W76289  38.962  23.493  11.406
14869W        W76290  34.091  20.061   1.373
14870W        W76291  22.071  23.535  14.830
14871W        W76292   3.307  15.181   1.917
14872W        W76293  20.632  22.617  12.969
14873W        W76294  32.960  14.771   3.840
14874W        W76295  44.462  28.133   2.403
14875W        W76296  39.880  19.258  14.294
14876W        W76297  26.672  40.527   3.642
14877W        W76298   4.284  31.066   5.086
14878W        W76299  25.491  24.171  12.882
14879W        W76300   4.230  18.610   3.854
14880W        W76301  22.039   9.282   5.707
14881W        W76302   9.322  17.627  11.099
14882W        W76303  24.721  33.476  11.085
14883W        W76304  20.538  10.144   0.902
14884W        W76305  36.553   2.304   2.198
14885W        W76306  10.713  38.550  11.572
14886W        W76307   3.443  26.684  14.289
14887W        W76308  34.963  18.136  10.137
14888W        W76309  27.986  27.102  13.520
14889W        W76310  30.057  43.351  14.456
14890W        W76311   2.827  10.168   2.864
14891W        W76312  42.970  31.624  13.517
14892W        W76313   7.829  26.053   4.337
14893W        W76314  40.398  34.027   1.720
14894W        W76315  17.226  44.883   2.332
14895W        W76316  30.966  17.788   4.226
14896W        W76317  33.477  30.441  13.054
14897W        W76318  12.735  21.159   0.382
14898W        W76319  22.506  26.615  12.899
14899W        W76320  29.472  24.998   1.893
14900W        W76321  25.501  10.729  11.965
14901W        W76322  17.094   1.813   5.128
14902W        W76323  25.599   1.924   2.319
14903W        W76324  31.073  30.652  11.046
14904W        W76325  44.005  14.228   4.268
14905W        W76326  12.239  15.216   2.314
14906W        W76327  30.985  18.222   0.433
14907W        W76328  24.624  36.444  12.456
14908W        W76329   0.253   2.362  11.384
14909W        W76330  10.278  11.848  12.845
14910W        W76331  26.668  44.398   3.644
14911W        W76332  35.384  33.426   2.815
14912W        W76333  33.624  36.841  12.539
14913W        W76334  27.482  24.066  10.888
14914W        W76335  17.101  25.613   4.690
14915W        W76336  17.168  41.855   0.861
14916W        W76337  10.636  29.056   1.253
14917W        W76338  36.464   6.370   2.218
14918W        W76339  13.652  27.958  10.440
14919W        W76340  19.197  44.416  14.507
14920W        W76341  26.169   9.164   0.299
14921W        W76342  41.968  16.307   3.182
14922W        W76343   1.392  23.502   1.401
14923W        W76344   5.234  10.247  10.134
14924W        W76345   5.420  34.058  12.530
14925W        W76346  43.939  42.295  11.005
14926W        W76347  24.556  21.555   1.750
14927W        W76348  23.189  37.010   3.687
14928W        W76349  36.959   5.729   2.283
14929W        W76350  19.131   0.289   4.604
14930W        W76351  16.270  24.661   1.258
14931W        W76352  31.537  38.379   4.797
14932W        W76353  19.060  28.443   1.726
14933W        W76354  41.996  24.600  12.078
14934W        W76355  31.626  16.654   2.208
14935W        W76356  12.718  31.493  13.517
14936W        W76357  43.795  16.611   3.766
14937W        W76358  35.887  12.738  14.291
14938W        W76359  33.471  31.408  12.953
14939W        W76360  37.885  16.296   3.776
14940W        W76361  25.487  24.039  13.968
14941W        W76362  43.981  25.185   1.812
14942W        W76363   3.797  27.448   3.155
14943W        W76364   5.908  25.648  12.023
14944W        W76365  21.217  32.096   4.255
14945W        W76366  14.206  25.674   1.292
14946W        W76367  15.658   1.963   1.415
14947W        W76368  43.846  38.499  14.822
14948W        W76369   6.184  37.848   1.854
14949W        W76370  22.158   5.394   1.778
14950W        W76371  27.970  37.056   3.845
14951W        W76372   6.864  42.984   1.356
14952W        W76373  40.448   4.714   9.945
14953W        W76374   4.243  21.717   0.302
14954W        W76375  41.933  14.211   3.713
14955W        W76376  11.147   2.766   2.704
14956W        W76377  44.433   4.408  13.392
14957W        W76378  41.512   0.867  13.021
14958W        W76379   9.368  23.157   0.797
14959W        W76380  23.577  13.831   3.836
14960W        W76381  39.826  24.551   3.336
14961W        W76382  23.018  41.796  14.430
14962W        W76383  22.207   2.245   4.219
14963W        W76384  21.666  33.572   1.774
14964W        W76385   1.445  34.038  13.914
14965W        W76386  42.397  25.023   1.724
14966W        W76387  28.942  10.158   9.940
14967W        W76388  33.036  37.042  10.462
14968W        W76389  11.770   3.861  11.589
14969W        W76390  36.501  19.565  10.068
14970W        W76391  25.639   1.454  12.854
14971W        W76392   0.250   0.880  14.869
14972W        W76393  40.383   6.854   3.214
14973W        W76394   3.864  35.961   0.305
14974W        W76395  30.969  20.129   2.260
14975W        W76396  43.373   1.781   2.835
14976W        W76397  31.011  35.563   0.741
14977W        W76398  34.951  20.544  14.825
14978W        W76399   7.278   3.932  11.448
14979W        W76400  36.543  43.856  12.922
14980W        W76401  39.314  17.118  14.408
14981W        W76402  33.482  26.682   1.439
14982W        W76403  39.021  25.998  14.342
14983W        W76404  37.027   9.703  14.017
14984W        W76405  37.415  27.622   2.222
14985W        W76406  21.626  20.563   2.375
14986W        W76407  24.663  18.719  14.828
14987W        W76408   8.342   4.340  11.942
14988W        W76409  38.010  28.522   4.624
14989W        W76410  19.266  33.110  14.946
14990W        W76411   1.341  27.625   3.318
14991W        W76412  44.819  33.977   2.804
14992W        W76413  15.599  41.871  12.052
14993W        W76414  38.527  31.513   3.648
14994W        W76415  35.888   5.787  11.480
14995W        W76416   5.234   7.256  13.377
14996W        W76417   4.447  29.662   3.377
14997W        W76418   5.411   9.259   0.356
14998W        W76419  30.523   0.322   1.385
14999W        W76420  35.383  27.150   2.766
15000W        W76421  33.624  39.894  12.084
15001W        W76422  28.128  40.809   2.763
15002W        W76423  29.957  12.796  13.934
15003W        W76424  23.241   0.848   2.792
15004W        W76425  34.608  43.379  10.915
15005W        W76426  11.751  33.410  13.943
15006W        W76427   5.330  32.142   4.803
15007W        W76428  21.098  27.104   0.741
15008W        W76429   7.222   1.953   4.752
15009W        W76430  12.138  25.506  10.549
15010W        W76431   5.372  39.826  10.954
15011W        W76432  38.056  24.039  12.955
15012W        W76433  27.056  25.520   4.174
15013W        W76434  19.714  14.650   1.414
15014W        W76435  17.646  21.060  14.500
15015W        W76436  12.639  35.440   2.816
15016W        W76437  43.440   1.379  13.883
15017W        W76438  31.983  26.117  14.389
15018W        W76439  14.297   7.672   1.394
15019W        W76440  38.388   5.204  11.522
15020W        W76441   6.375   6.718   1.378
15021W        W76442  43.822  23.197   0.780
15022W        W76443  24.115   1.803   0.481
15023W        W76444   4.222  29.994   3.692
15024W        W76445   6.191   5.322   0.264
15025W        W76446  10.332  32.130  13.498
15026W        W76447  12.150   5.865   2.896
15027W        W76448  16.083  12.158   2.787
15028W        W76449  44.765  42.527   2.331
15029W        W76450  13.840   9.273   1.824
15030W        W76451  39.558  44.306   0.314
15031W        W76452  26.200  24.560   2.182
15032W        W76453  22.151   9.309   0.834
15033W        W76454   2.856  32.415  11.415
15034W        W76455  17.198  12.141   1.751
15035W        W76456   1.732  24.665   9.539
15036W        W76457  13.225  28.951   0.414
15037W        W76458  16.124  25.517   1.711
15038W        W76459  40.546  14.665  11.409
15039W        W76460   9.796  36.841  12.859
15040W        W76461  37.855  19.661   1.721
15041W        W76462  35.075  28.060  11.902
15042W        W76463  32.012  41.843  11.050
15043W        W76464  11.830  17.272  14.790
15044W        W76465  17.603  27.519  14.772
15045W        W76466   0.389   7.734  14.965
15046W        W76467  27.603  13.228  11.066
15047W        W76468  20.210   4.205  10.989
15048W        W76469  36.867  37.983   2.759
15049W        W76470  23.217   2.354   3.206
15050W        W76471  19.170  14.641   4.308
15051W        W76472  20.052   4.325  12.508
15052W        W76473  30.159  14.713  12.544
15053W        W76474  34.052  15.668  11.438
15054W        W76475  33.530  11.731   1.378
15055W        W76476  24.179  32.917  14.296
15056W        W76477  24.181  15.731   3.280
15057W        W76478  39.557  26.020  13.461
15058W        W76479  17.584  13.675   5.089
15059W        W76480  43.896  21.694   1.338
15060W        W76481  16.091  32.945   1.263
15061W        W76482  35.069  40.914  11.509
15062W        W76483  19.600  13.136  14.471
15063W        W76484  14.173  29.173  12.514
15064W        W76485  13.652  24.487   1.417
15065W        W76486  29.440   3.838  11.479
15066W        W76487  30.442  20.603   4.736
15067W        W76488  22.728  43.435  14.341
15068W        W76489  35.031  40.903  12.579
15069W        W76490   6.422  16.177   3.712
15070W        W76491   9.326  44.859   1.285
15071W        W76492  13.635  37.471  14.452
15072W        W76493   6.730  27.056  12.000
15073W        W76494  19.669  33.545  13.883
15074W        W76495  27.587  32.014  13.311
15075W        W76496  13.196  36.555  14.336
15076W        W76497   8.368   6.331   3.337
15077W        W76498  43.481   4.325   0.813
15078W        W76499   8.371  27.562  12.507
15079W        W76500  37.883  15.277  12.869
15080W        W76501  12.823  12.302  12.435
15081W        W76502  21.576  19.588  10.516
15082W        W76503   3.406  20.132   0.430
15083W        W76504  38.372  18.578   0.767
15084W        W76505   3.918   8.226  11.376
15085W        W76506  41.535  38.488   3.344
15086W        W76507   8.797  32.570   3.648
15087W        W76508   6.250  17.187   0.381
15088W        W76509  16.141  17.249   2.722
15089W        W76510   9.246   9.258   0.281
15090W        W76511  28.601   9.771  13.905
15091W        W76512   4.785  11.247   1.311
15092W        W76513  37.038   5.838   3.779
15093W        W76514  32.068  41.446   0.417
15094W        W76515  14.301   2.424   2.886
15095W        W76516  38.571  29.936  14.031
15096W        W76517  25.142  25.590  13.399
15097W        W76518  39.871  30.964   2.214
15098W        W76519  27.099  28.599   2.691
15099W        W76520   7.861  34.080  14.028
15100W        W76521  20.113  35.043  13.802
15101W        W76522  26.556  29.157   1.433
15102W        W76523   6.338   6.852   3.215
15103W        W76524  26.148  28.996   2.247
15104W        W76525   1.972  28.001  11.962
15105W        W76526  23.139  34.499   4.830
15106W        W76527  36.436  15.796   0.447
15107W        W76528   0.923   7.858  13.797
15108W        W76529  14.246  34.478   4.154
15109W        W76530  23.724  26.974  13.951
15110W        W76531   0.752  42.993  12.026
15111W        W76532   8.898  42.780   3.308
15112W        W76533   5.396  42.416  13.389
15113W        W76534  23.105  12.243  11.919
15114W        W76535  10.193  15.696   1.880
15115W        W76536  11.704  23.226  12.050
15116W        W76537  31.991  27.462   4.132
15117W        W76538  31.903  22.715  13.512
15118W        W76539   5.761  33.616  10.473
15119W        W76540  14.167  32.402   0.430
15120W        W76541  13.348  35.065  12.533
15121W        W76542  25.197  25.092   4.637
15122W        W76543  42.776  30.658   3.231
15123W        W76544   3.371  19.636  13.857
15124W        W76545   3.796  11.828  13.393
15125W        W76546  43.492  29.494  14.452
15126W        W76547  24.138   3.944   2.360
15127W        W76548  35.600  23.528  12.516
15128W        W76549  30.145  23.709  11.079
15129W        W76550  36.467   1.833   0.872
15130W        W76551  38.356   2.411   1.885
15131W        W76552  37.995  22.999  12.434
15132W        W76553   8.870  28.087   2.777
15133W        W76554  37.349  34.600  10.508
15134W        W76555  40.825  39.832   4.777
15135W        W76556   3.395  28.142  14.977
15136W        W76557  10.839  14.766  14.440
15137W        W76558  27.112  42.988  12.020
15138W        W76559  10.833   3.364  11.869
15139W        W76560  35.901  11.706  12.865
15140W        W76561  10.756  20.739   1.878
15141W        W76562   3.401  18.099   0.279
15142W        W76563  17.740  36.514   0.483
15143W        W76564  33.414  31.956  14.849
15144W        W76565  22.575   7.899  10.610
15145W        W76566  38.823  31.483   0.265
15146W        W76567  40.396  40.053  12.561
15147W        W76568  12.155   4.903  12.953
15148W        W76569  39.373  31.455   1.333
15149W        W76570   5.236   3.460  14.360
15150W        W76571  38.972  34.432  12.421
15151W        W76572  25.709   8.881   5.221
15152W        W76573  16.309  33.624   1.876
15153W        W76574  33.984  19.748   3.254
15154W        W76575   0.926  19.662  14.771
15155W        W76576  19.042   6.384  13.870
15156W        W76577  37.459  15.227  12.050
15157W        W76578  14.731   8.305   3.262
15158W        W76579  43.893   0.386  11.452
15159W        W76580  30.967   9.710  13.321
15160W        W76581  11.256  13.145  11.013
15161W        W76582  24.066  27.571   1.924
15162W        W76583   1.248  38.855   3.806
15163W        W76584  31.011  33.425  12.440
15164W        W76585  38.864  10.841   1.381
15165W        W76586  10.734  24.556   1.781
15166W        W76587  28.636  17.115  10.632
15167W        W76588  36.034  20.167  12.011
15168W        W76589  40.437  30.635   2.274
15169W        W76590  24.988  44.457  14.869
15170W        W76591  25.197  10.188  10.500
15171W        W76592  30.443  23.670   4.291
15172W        W76593  10.156  18.072   2.300
15173W        W76594  26.963  17.227  12.090
15174W        W76595  10.196  42.516  11.973
15175W        W76596  24.010  41.834   2.671
15176W        W76597  44.002  13.141   2.314
15177W        W76598  33.428  41.892  13.513
15178W        W76599  26.637  22.213  14.288
15179W        W76600  32.937   2.356  14.029
15180W        W76601  37.432  26.994  14.981
15181W        W76602   6.730  32.632  14.860
15182W        W76603  21.641  31.981  14.369
15183W        W76604  37.458  25.204   2.661
15184W        W76605  38.878  43.384  12.091
15185W        W76606   9.395  26.205   4.154
15186W        W76607  33.043   2.372   3.152
15187W        W76608  33.006   1.257   5.216
15188W        W76609  42.920  36.858   0.256
15189W        W76610  19.610  16.257   3.734
15190W        W76611  17.174  44.477   4.787
15191W        W76612  17.619  21.187  14.023
15192W        W76613   3.710  17.753   2.832
15193W        W76614  28.111  10.244  10.939
15194W        W76615  38.984  25.011   4.337
15195W        W76616  17.086  40.875   3.295
15196W        W76617   8.780  16.649   3.725
15197W        W76618  11.811  41.788   2.417
15198W        W76619  21.633  25.568   0.482
15199W        W76620  23.057  44.430   4.788
15200W        W76621  36.857  40.364  14.890
15201W        W76622  26.186  12.753  11.019
15202W        W76623  43.834  37.846  12.054
15203W        W76624  16.770  14.178  14.874
15204W        W76625  28.070  16.796  12.935
15205W        W76626   6.815  24.985   3.857
15206W        W76627  16.235   7.174  14.791
15207W        W76628  35.969  26.034  12.025
15208W        W76629  21.047  26.598  14.361
15209W        W76630  24.031   2.748  10.604
15210W        W76631  27.614   8.299  13.543
15211W        W76632  28.070  29.636  10.062
15212W        W76633  43.832  12.165  12.492
15213W        W76634  30.523  31.967  14.021
15214W        W76635  12.177  22.201   0.279
15215W        W76636  26.118  20.587   1.407
15216W        W76637  14.265  44.848   2.741
15217W        W76638   7.729  44.954   2.356
15218W        W76639  32.440  11.127   1.930
15219W        W76640   6.727   5.888  14.811
15220W        W76641  32.139   1.790  11.374
15221W        W76642   0.396  25.681   3.334
15222W        W76643  39.940  28.613   3.181
15223W        W76644  10.321   8.819  10.890
15224W        W76645  15.779   5.326  11.544
15225W        W76646  18.562   4.721   4.650
15226W        W76647   9.713  15.199  11.499
15227W        W76648   9.393   5.704  12.430
15228W        W76649  13.644   2.226  14.902
15229W        W76650  10.632  35.533  13.412
15230W        W76651  28.526  21.243   2.182
15231W        W76652  39.855  34.525  10.406
15232W        W76653  11.634  22.695   1.744
15233W        W76654  32.390  14.304   3.366
15234W        W76655   6.695   9.333  11.128
15235W        W76656  18.285  29.492  10.577
15236W        W76657   0.835  31.905  14.766
15237W        W76658  21.717  14.225   2.801
15238W        W76659  19.722  40.409   1.921
15239W        W76660  36.406  27.469  11.015
15240W        W76661   9.819   5.296   4.157
15241W        W76662   7.369   1.474  13.975
15242W        W76663  36.587   5.310  11.005
15243W        W76664  37.347  25.667   3.676
15244W        W76665  20.062  11.751   2.662
15245W        W76666  30.145  29.491   2.687
15246W        W76667  39.505  28.942   0.436
15247W        W76668  24.556  25.033  14.929
15248W        W76669   8.841  10.653  13.890
15249W        W76670  29.470  20.643   2.344
15250W        W76671   7.184  42.467  11.438
15251W        W76672  42.384  19.152   2.237
15252W        W76673  11.769   9.357   4.804
15253W        W76674  42.812  25.144  10.997
15254W        W76675  16.712  27.625  12.859
15255W        W76676  11.136  25.206   0.853
15256W        W76677   1.872  22.631   5.268
15257W        W76678  28.470  34.466  14.868
15258W        W76679  27.179  26.150   4.304
15259W        W76680  19.689  10.694  12.826
15260W        W76681   1.883  36.562  12.078
15261W        W76682  40.848   9.783   2.902
15262W        W76683  27.563  12.283   9.518
15263W        W76684   0.433  11.866   2.388
15264W        W76685  42.482  34.514  14.385
15265W        W76686   1.800  40.359  10.903
15266W        W76687  23.711   4.873   2.748
15267W        W76688   0.949  14.808  13.341
15268W        W76689   9.821  22.168   4.686
15269W        W76690  38.972   2.967   2.721
15270W        W76691  31.913  30.914   5.242
15271W        W76692   5.721  10.704  11.574
15272W        W76693   8.374  42.958  13.373
15273W        W76694  43.849  13.771   1.839
15274W        W76695  28.149  24.098  11.403
15275W        W76696  18.152  33.029  14.864
15276W        W76697   3.899  40.917  13.928
15277W        W76698  34.594  28.948  12.520
15278W        W76699  35.922  23.516  12.068
15279W        W76700  38.516  33.004  12.071
15280W        W76701  22.645  23.011   3.865
15281W        W76702  21.515  41.478   1.788
15282W        W76703  10.732  30.632   3.281
15283W        W76704  22.145  38.524   2.333
15284W        W76705  35.071  11.328   3.330
15285W        W76706  35.976  12.701  11.442
15286W        W76707  30.620   7.211  14.824
15287W        W76708  43.009  37.967   3.740
15288W        W76709  35.013  11.301   1.427
15289W        W76710  14.621   9.298  14.401
15290W        W76711  27.589   5.701  11.576
15291W        W76712   7.771   6.895  11.983
15292W        W76713  18.214  44.898  11.973
15293W        W76714  25.994  32.537   4.676
15294W        W76715   7.872   4.766   9.993
15295W        W76716  32.591   6.835  12.492
15296W        W76717  44.261  37.959   2.789
15297W        W76718  16.582  10.211   1.797
15298W        W76719  34.429  21.662  13.052
15299W        W76720  31.007   9.312  11.057
15300W        W76721  22.103  42.997   0.362
15301W        W76722  44.875  22.119   0.830
15302W        W76723  39.320  23.599  10.447
15303W        W76724  27.055  25.176   3.703
15304W        W76725   0.980  28.079   0.924
15305W        W76726  12.840  22.035   4.319
15306W        W76727  32.476  32.083   0.464
15307W        W76728  44.397   3.768   2.211
15308W        W76729   2.309  15.608  12.837
15309W        W76730  10.703   9.846   0.272
15310W        W76731  19.545  37.580  12.877
15311W        W76732  40.967  33.613  12.026
15312W        W76733   7.388  34.480   0.415
15313W        W76734  35.935  33.093  13.973
15314W        W76735  30.150  37.405   4.658
15315W        W76736   2.235  27.628   4.608
15316W        W76737  44.484  13.628   0.253
15317W        W76738  25.150  43.376   0.372
15318W        W76739  17.718   6.853   1.365
15319W        W76740  23.067  24.190  14.423
15320W        W76741  43.890  13.172   3.174
15321W        W76742  44.877  27.516  12.455
15322W        W76743   9.330  24.065  11.469
15323W        W76744  42.434  10.269   3.733
15324W        W76745   5.208   7.328  14.320
15325W        W76746  12.837  41.810  11.078
15326W        W76747  34.393  34.886   1.829
15327W        W76748   7.281  18.144   3.229
15328W        W76749  13.132  28.649  10.603
15329W        W76750   7.858  36.370   3.631
15330W        W76751  36.921  28.954   0.747
15331W        W76752  23.651   6.789  14.484
15332W        W76753  44.434   3.366   3.753
15333W        W76754   9.324  26.492   4.309
15334W        W76755  32.496  12.755  14.998
15335W        W76756   1.431   5.310  11.456
15336W        W76757  39.516   2.302   4.615
15337W        W76758  33.538  12.256  10.622
15338W        W76759  34.111  34.014   3.325
15339W        W76760  16.711  35.090  13.935
15340W        W76761  43.316  31.036  13.351
15341W        W76762  25.514  23.578   2.891
15342W        W76763   2.257  30.563   3.319
15343W        W76764  21.554  18.642   2.315
15344W        W76765   1.931  13.661  14.304
15345W        W76766  24.608  15.320   1.913
15346W        W76767  18.573  21.063  12.340
15347W        W76768  36.366  35.463  13.526
15348W        W76769  11.720  33.875   0.390
15349W        W76770  38.369  31.466   0.747
15350W        W76771  25.089   8.274  14.362
15351W        W76772  32.050  41.444   1.758
15352W        W76773  10.819  21.740  11.105
15353W        W76774  37.940  40.994  11.373
15354W        W76775   0.318  13.239  11.462
15355W        W76776  31.454  35.943  13.866
15356W        W76777  13.255  30.588  13.427
15357W        W76778  14.278   7.789   4.213
15358W        W76779  18.581  29.604  14.369
15359W        W76780  35.445  28.602   0.795
15360W        W76781  19.572  35.551  14.296
15361W        W76782  38.555  22.677  14.343
15362W        W76783  18.084  31.103  13.478
15363W        W76784  24.007  29.470   3.659
15364W        W76785  16.234  26.055  12.536
15365W        W76786  10.780  18.085  11.045
15366W        W76787   1.850  34.957  12.920
15367W        W76788   8.742  39.380   0.279
15368W        W76789  32.021  14.120  14.340
15369W        W76790  33.982  20.542  12.490
15370W        W76791  23.007   2.384  14.914
15371W        W76792  41.479  31.428   0.868
15372W        W76793  28.088  27.628  12.974
15373W        W76794   5.298  13.747  13.342
15374W        W76795  33.056  30.107   3.774
15375W        W76796  43.773   3.748  13.456
15376W        W76797  22.006  27.162  14.461
15377W        W76798  36.385  19.275  13.867
15378W        W76799  14.814  37.923  11.593
15379W        W76800  15.581  16.630  12.408
15380W        W76801   1.324   2.393   1.327
15381W        W76802  14.160   1.807  11.968
15382W        W76803  32.464  35.495   4.819
15383W        W76804  39.958  34.042   4.350
15384W        W76805  38.952  30.471  12.022
15385W        W76806   7.801  17.695   0.744
15386W        W76807  38.472   3.877  14.023
15387W        W76808  37.376  20.066  13.029
15388W        W76809  23.135  12.189  13.824
15389W        W76810  13.127  40.809  14.016
15390W        W76811  34.019  28.079   0.242
15391W        W76812  15.144  13.243   4.756
15392W        W76813   7.332  27.518   0.448
15393W        W76814   6.383  25.481   3.738
15394W        W76815   9.768   1.961  12.449
15395W        W76816  41.875   2.792   1.335
15396W        W76817  30.587   5.825   3.720
15397W        W76818  27.140  10.873   0.868
15398W        W76819  19.068  28.984  11.540
15399W        W76820  31.049  16.260  12.991
15400W        W76821  28.137  32.071  12.538
15401W        W76822  29.497  20.146   1.892
15402W        W76823   9.334  44.761  10.420
15403W        W76824  28.575  27.475  14.366
15404W        W76825  25.681  19.075   1.901
15405W        W76826  13.105  44.447  12.943
15406W        W76827  34.970  32.420   1.744
15407W        W76828  16.078  22.583  14.869
15408W        W76829  41.505   5.239  14.507
15409W        W76830  15.712  38.534  12.095
15410W        W76831  44.395  39.314  11.901
15411W        W76832  34.010  21.145  13.543
15412W        W76833  10.648  12.853  14.277
15413W        W76834  13.618   3.390   2.780
15414W        W76835   1.275   5.223   3.276
15415W        W76836  27.068  26.133  11.424
15416W        W76837  39.318  17.112  12.339
15417W        W76838  17.720  14.606  13.378
15418W        W76839  39.419  11.638  14.790
15419W        W76840   1.901   5.192  14.823
15420W        W76841  37.869   3.458  13.023
15421W        W76842  12.189  12.317   4.794
15422W        W76843  18.077   4.856   0.279
15423W        W76844  29.543  28.147  14.506
15424W        W76845  33.383  12.255   1.743
15425W        W76846  24.527  17.123  12.847
15426W        W76847  10.826  40.032  12.980
15427W        W76848  34.973  30.571   2.222
15428W        W76849  35.000   8.714   4.280
15429W        W76850   3.867  25.136   0.762
15430W        W76851   6.782  27.013  10.910
15431W        W76852  24.552  17.621  14.951
15432W        W76853  28.579  41.030  12.095
15433W        W76854  12.284  10.858   2.785
15434W        W76855   6.307   6.703   4.222
15435W        W76856   1.869  37.954   3.728
15436W        W76857  10.816  12.697   4.708
15437W        W76858  25.091  37.861   4.831
15438W        W76859  22.240  11.333  10.447
15439W        W76860  20.534   5.841   2.294
15440W        W76861  44.888  41.429   1.273
15441W        W76862  21.113  31.902   0.417
15442W        W76863  30.543  21.674  13.533
15443W        W76864  25.198   0.482  12.956
15444W        W76865   4.773   0.482  11.439
15445W        W76866  37.020  10.231   3.382
15446W        W76867  36.426  44.360  13.520
15447W        W76868  37.879  31.119   2.302
15448W        W76869   2.835   8.180  11.064
15449W        W76870   8.362  33.000   1.768
15450W        W76871   5.904  30.995   3.373
15451W        W76872  41.919   2.353   0.764
15452W        W76873  42.526  24.586   4.329
15453W        W76874  12.124  28.156   0.886
15454W        W76875  42.981  20.100   1.820
15455W        W76876  42.986  23.997   2.205
15456W        W76877   8.355   9.808  13.308
15457W        W76878  22.187  18.685   0.370
15458W        W76879  36.030  17.663  13.500
15459W        W76880  42.498  14.227   1.426
15460W        W76881  36.957  18.168   1.340
15461W        W76882  19.127  36.377  13.969
15462W        W76883  16.691  42.514   4.755
15463W        W76884  31.459  34.409   3.263
15464W        W76885   6.896  27.194   1.886
15465W        W76886   7.276  31.492   1.299
15466W        W76887  37.048  31.030   4.284
15467W        W76888  22.205  15.244   1.408
15468W        W76889  25.491  29.012  10.597
15469W        W76890  14.121  43.775   4.798
15470W        W76891  29.020  18.684   1.439
15471W        W76892   4.317  11.752   2.370
15472W        W76893  25.120  17.074  13.334
15473W        W76894  15.227   8.730  12.558
15474W        W76895  21.669   4.796   1.760
15475W        W76896   1.808  11.836   2.252
15476W        W76897  34.383   2.880  11.442
15477W        W76898  40.934  40.816   2.284
15478W        W76899  12.288  39.962  14.332
15479W        W76900  13.328  25.552  13.060
15480W        W76901   0.968  31.107  12.920
15481W        W76902   9.231  24.165   0.891
15482W        W76903   6.722  11.650   3.815
15483W        W76904  40.823  38.955   4.204
15484W        W76905  34.422  20.714   1.377
15485W        W76906  34.027  27.648  10.921
15486W        W76907  18.764  36.500  10.584
15487W        W76908   2.255  38.905  12.426
15488W        W76909  39.346   0.842  11.997
15489W        W76910  16.611  34.038   1.305
15490W        W76911   7.845  36.886   3.796
15491W        W76912  40.012  22.225  11.927
15492W        W76913  27.187  37.416  11.932
15493W        W76914  44.270  36.451   1.797
15494W        W76915  42.503  40.986  12.344
15495W        W76916   7.340  44.411   3.381
15496W        W76917   1.248  11.636  13.860
15497W        W76918  30.614  31.544  14.444
15498W        W76919  39.943  21.662  14.339
15499W        W76920   0.413  21.108   2.247
15500W        W76921  41.459   8.672  14.331
15501W        W76922  13.111  15.091   3.360
15502W        W76923  12.291  22.547  12.423
15503W        W76924  40.383  37.874   2.751
15504W        W76925   8.360  30.149   2.320
15505W        W76926  16.316   6.737  13.810
15506W        W76927   9.662  10.791   2.751
15507W        W76928  37.425  44.459  12.555
15508W        W76929   7.285  17.778   0.420
15509W        W76930  36.868   9.177  12.556
15510W        W76931  11.169  14.629  11.047
15511W        W76932  38.020  27.062   0.960
15512W        W76933  27.950  22.582   0.804
15513W        W76934  11.154  15.273  11.906
15514W        W76935  13.679  42.818   5.228
15515W        W76936   1.842  41.913   2.332
15516W        W76937  32.615  34.921   3.687
15517W        W76938  34.081  25.021  11.086
15518W        W76939  19.168  14.210   4.155
15519W        W76940  10.824   2.441  13.336
15520W        W76941  12.264  26.540  11.074
15521W        W76942  37.041  23.632   0.874
15522W        W76943  36.589   0.894   3.724
15523W        W76944   3.379  23.128  10.453
15524W        W76945  28.583  34.506  13.437
15525W        W76946  44.422  36.886  11.936
15526W        W76947  24.531  23.700  14.482
15527W        W76948  24.100   5.700   1.863
15528W        W76949   2.810   6.247   1.932
15529W        W76950  18.256   6.195   1.843
15530W        W76951   9.783  42.923  14.890
15531W        W76952  36.590  34.408   2.183
15532W        W76953  37.047  30.554  13.548
15533W        W76954   6.754  18.685  14.763
15534W        W76955  27.630  14.595   1.745
15535W        W76956  15.730   4.773  14.319
15536W        W76957  38.441  34.498   1.849
15537W        W76958  25.050  37.390  12.471
15538W        W76959  40.030  41.292   3.244
15539W        W76960  42.319  22.722   1.373
15540W        W76961  42.797  31.589  10.576
15541W        W76962  22.587  32.909  14.311
15542W        W76963  37.897  13.630  14.478
15543W        W76964  23.721  36.371   4.307
15544W        W76965   7.856  31.134   2.782
15545W        W76966   4.284  39.902  14.515
15546W        W76967  21.570   5.212   0.918
15547W        W76968  19.594   3.261  11.462
15548W        W76969   8.187  16.629   4.338
15549W        W76970  24.055  25.574  12.511
15550W        W76971  28.445  16.317   2.357
15551W        W76972  23.192  25.116  12.910
15552W        W76973   7.197  24.177  10.931
15553W        W76974  44.770  29.596  11.422
15554W        W76975  16.078   8.834   0.419
15555W        W76976   0.766  20.198   2.716
15556W        W76977   1.955   0.795  11.890
15557W        W76978  31.502  34.868  14.442
15558W        W76979  26.500  28.963   1.912
15559W        W76980   9.158   2.782  11.540
15560W        W76981  11.769  16.203   2.296
15561W        W76982  42.933   9.333   0.357
15562W        W76983  20.546  40.515  11.957
15563W        W76984  18.283   6.396   3.180
15564W        W76985  30.568  34.577   1.351
15565W        W76986  13.225  10.707  13.833
15566W        W76987  14.242   6.705  14.332
15567W        W76988  10.194   5.439  12.359
15568W        W76989  14.247   0.855   0.339
15569W        W76990  42.987   8.879   4.207
15570W        W76991  31.149   1.749   2.797
15571W        W76992  26.575  42.955   2.664
15572W        W76993  17.067  28.616   0.868
15573W        W76994  27.039  18.613  11.935
15574W        W76995  32.089  36.927  14.414
15575W        W76996  35.441  42.914   1.902
15576W        W76997  27.452  41.421   3.360
15577W        W76998  40.877  31.434  10.422
15578W        W76999  37.000  41.419  11.975
15579W        W77000  22.700  13.811  14.873
15580W        W77001  36.046  14.783   1.912
15581W        W77002  32.944  14.725   1.213
15582W        W77003  33.073   1.885  14.771
15583W        W77004  36.908  30.499   1.320
15584W        W77005   8.271   2.764   4.659
15585W        W77006  18.580  36.986  14.325
15586W        W77007   2.298   6.242   0.292
15587W        W77008  14.671  29.468   0.880
15588W        W77009  38.946   6.822   0.754
15589W        W77010  17.172  21.610   3.715
15590W        W77011  33.545  41.356  10.498
15591W        W77012  18.093  28.667   0.918
15592W        W77013  13.105  32.092  11.934
15593W        W77014  34.101   0.331   2.371
15594W        W77015   4.942  13.817   3.220
15595W        W77016  10.711  20.712   1.384
15596W        W77017  35.969  36.080  11.928
15597W        W77018  33.131  19.586   0.729
15598W        W77019  21.752  12.780  13.035
15599W        W77020  10.717  16.762  14.819
15600W        W77021  41.533  32.005   1.923
15601W        W77022  17.276  29.931   3.855
15602W        W77023  10.731  27.591  10.447
15603W        W77024   1.446  25.510   0.937
15604W        W77025  24.043  40.522   4.778
15605W        W77026  44.843   6.411  13.970
15606W        W77027  22.065  25.169   1.777
15607W        W77028  13.704  42.476  14.448
15608W        W77029  11.716  36.469   0.255
15609W        W77030  19.115  22.503  14.851
15610W        W77031   7.718   8.222   3.749
15611W        W77032  31.972   1.870   2.803
15612W        W77033  14.240  23.091  14.945
15613W        W77034  34.487  31.635  14.291
15614W        W77035  38.993   6.196   3.778
15615W        W77036  36.558  17.218  13.534
15616W        W77037  40.995  20.268   2.256
15617W        W77038  36.479  43.436   0.959
15618W        W77039  16.138  34.099   5.298
15619W        W77040  31.060  35.059  11.505
15620W        W77041  24.165  43.409  11.606
15621W        W77042  42.836   6.293   2.703
15622W        W77043  43.346  14.272  12.085
15623W        W77044   6.754   0.263  10.574
15624W        W77045  33.527  32.567  14.313
15625W        W77046   2.780  40.004   4.708
15626W        W77047  35.395  27.186  12.002
15627W        W77048  41.018  15.772  11.010
15628W        W77049  32.493  25.608   3.674
15629W        W77050  39.017  42.943  14.939
15630W        W77051  43.314  19.594   0.833
15631W        W77052  12.254  31.022  14.887
15632W        W77053   7.199  13.740  11.016
15633W        W77054  20.125  41.933  14.884
15634W        W77055  29.131  25.590  10.616
15635W        W77056   0.969  40.937   3.267
15636W        W77057  29.133  43.838   1.727
15637W        W77058  23.712  15.582   1.740
15638W        W77059  39.314   0.853   2.760
15639W        W77060  10.740   0.781  12.476
15640W        W77061  44.796  21.092   0.247
15641W        W77062  14.684  20.559  12.068
15642W        W77063  26.653  29.559  14.954
15643W        W77064  30.594  10.673  13.425
15644W        W77065  21.219   1.392   1.884
15645W        W77066  33.896  29.176  13.947
15646W        W77067  12.656  36.957   1.350
15647W        W77068  26.647   5.704   0.364
15648W        W77069  10.165  26.201  14.377
15649W        W77070   6.190  38.822   3.729
15650W        W77071  30.983  25.714  10.598
15651W        W77072  33.116  41.528  13.978
15652W        W77073  12.238  14.194  11.100
15653W        W77074  28.675  30.150  14.300
15654W        W77075   3.448  14.728  12.023
15655W        W77076  22.129  32.971   0.764
15656W        W77077  10.661  38.890  13.471
15657W        W77078  39.557  39.980   1.227
15658W        W77079  36.531  29.045   3.336
15659W        W77080  34.077  10.737  11.540
15660W        W77081  16.663   7.305   1.742
15661W        W77082   0.844   2.456  11.070
15662W        W77083   2.357   6.340  11.545
15663W        W77084   9.664  24.613  13.821
15664W        W77085  42.304  33.393   3.227
15665W        W77086  23.093  10.828   2.277
15666W        W77087  32.887  40.945  11.982
15667W        W77088  13.748  17.603   0.751
15668W        W77089  42.362  43.847  12.448
15669W        W77090  44.978  32.524  12.519
15670W        W77091  28.588  10.264  10.915
15671W        W77092  24.665  21.196  14.460
15672W        W77093  24.180  40.355  14.003
15673W        W77094  42.910  11.680   5.088
15674W        W77095  44.009  35.505   2.297
15675W        W77096   4.936  43.957   0.797
15676W        W77097  27.586   9.326   3.294
15677W        W77098  26.010   3.928   1.872
15678W        W77099  38.986  17.661   3.792
15679W        W77100  19.657  35.020  12.366
15680W        W77101  16.663  12.805  14.866
15681W        W77102  13.243  43.488  14.374
15682W        W77103  31.951  15.227   0.433
15683W        W77104  29.121   3.918   2.327
15684W        W77105  25.082  12.243  11.438
15685W        W77106  36.381   0.925   3.363
15686W        W77107  30.113  28.609  11.949
15687W        W77108   6.316   3.785   2.839
15688W        W77109   8.230  13.663  13.473
15689W        W77110  29.130  27.124  10.415
15690W        W77111  16.702   0.375   1.343
15691W        W77112  14.828  15.147  13.442
15692W        W77113   3.774  27.028   0.902
15693W        W77114   6.750  37.923   1.361
15694W        W77115   7.882   9.801   0.446
15695W        W77116  17.096   2.437  11.006
15696W        W77117  28.604   6.346  12.850
15697W        W77118  22.697  42.846   4.134
15698W        W77119   1.323  40.839  11.006
15699W        W77120  12.266  20.556  13.420
15700W        W77121  19.623   3.415  10.532
15701W        W77122  28.531  12.705   5.153
15702W        W77123  22.058   6.765  10.567
15703W        W77124  21.042  40.377  14.841
15704W        W77125   8.386   5.810   3.787
15705W        W77126  20.763  30.647   3.263
15706W        W77127   3.341  17.082   4.714
15707W        W77128   9.806  32.411  11.469
15708W        W77129  44.881   5.813  14.893
15709W        W77130   1.250   4.272  14.337
15710W        W77131  40.428  44.897  14.764
15711W        W77132   0.383  16.302  10.981
15712W        W77133  23.159  10.742  10.907
15713W        W77134  28.520  24.609  14.294
15714W        W77135  42.298   1.887   2.355
15715W        W77136  33.396  24.084   5.246
15716W        W77137   2.435  24.166   0.252
15717W        W77138  39.473  20.533   0.350
15718W        W77139  37.923   2.405   0.958
15719W        W77140  10.804   5.432   0.807
15720W        W77141   9.395  14.272  10.460
15721W        W77142  35.982  41.292   3.642
15722W        W77143   5.916  40.352   2.891
15723W        W77144  43.797   2.744   4.757
15724W        W77145  35.023  39.857   1.326
15725W        W77146  27.165  19.558  14.976
15726W        W77147  10.776  18.121  10.466
15727W        W77148  31.574  31.927   9.969
15728W        W77149  39.493  38.362  10.443
15729W        W77150  43.343  27.581  11.057
15730W        W77151  27.094  37.903   4.134
15731W        W77152   1.950  40.429  14.775
15732W        W77153  20.159  15.305   1.831
15733W        W77154  36.845   9.264  11.910
15734W        W77155  38.980  19.535  13.429
15735W        W77156  39.901  27.679  11.979
15736W        W77157  37.580   4.770   2.749
15737W        W77158   4.447   3.461  13.058
15738W        W77159   1.423  42.842  14.864
15739W        W77160  12.655  39.320  12.387
15740W        W77161  28.444   6.383  10.551
15741W        W77162  21.576  18.763   1.357
15742W        W77163  34.998  42.876   5.178
15743W        W77164  16.083  19.655  10.897
15744W        W77165  36.371   1.872  11.399
15745W        W77166  20.627  13.785  12.037
15746W        W77167  28.147  36.397   0.888
15747W        W77168   4.824  41.923   5.274
15748W        W77169  17.609  14.166   2.753
15749W        W77170  15.764  44.369   3.321
15750W        W77171  23.096  42.449   0.349
15751W        W77172  43.806  40.919   1.387
15752W        W77173  43.343  33.920  13.326
15753W        W77174  41.406  19.736   2.663
15754W        W77175  37.016   2.843   3.282
15755W        W77176  21.523  44.894  13.844
15756W        W77177  24.101  10.241  10.476
15757W        W77178  30.074  27.119  12.962
15758W        W77179  14.814  12.199   2.298
15759W        W77180  34.990  36.928  12.880
15760W        W77181   3.810   5.295  14.908
15761W        W77182  39.059  38.417   3.178
15762W        W77183  22.700  20.154  13.889
15763W        W77184  17.795  18.652  12.927
15764W        W77185   6.724  32.465  13.800
15765W        W77186  23.546   4.370  12.001
15766W        W77187   5.871  17.582  11.886
15767W        W77188  43.920  42.811   2.199
15768W        W77189  27.477  19.208  11.859
15769W        W77190  18.649  35.557   0.838
15770W        W77191   6.883  20.606  11.859
15771W        W77192  32.909  23.104  13.984
15772W        W77193  17.208  23.658   2.716
15773W        W77194  13.787  22.608   3.315
15774W        W77195  12.713  42.467   4.285
15775W        W77196   4.916  19.166   3.754
15776W        W77197  10.763  14.676   0.346
15777W        W77198  27.508   2.421  12.523
15778W        W77199   7.843   3.917  12.434
15779W        W77200   8.295   8.384  13.800
15780W        W77201  35.867  22.224   1.335
15781W        W77202  44.922  20.739  11.403
15782W        W77203  42.362  37.446   1.301
15783W        W77204  36.467  19.550  13.871
15784W        W77205  35.519  37.525   4.724
15785W        W77206  22.230  33.020  11.571
15786W        W77207   7.401  10.811  10.991
15787W        W77208  41.362   5.247   2.339
15788W        W77209   8.184   1.845  12.404
15789W        W77210  10.811   1.423  12.931
15790W        W77211   3.362  11.643  14.948
15791W        W77212  33.894  27.044  11.571
15792W        W77213  27.136   2.466  13.446
15793W        W77214   9.877  22.544  11.993
15794W        W77215  41.358   0.271  13.497
15795W        W77216   3.774   2.747   3.815
15796W        W77217  18.697   6.373  12.955
15797W        W77218   7.209  38.071  13.060
15798W        W77219   1.838  37.867   1.218
15799W        W77220  10.172   5.222   4.257
15800W        W77221   1.283  21.538  12.928
15801W        W77222  20.250  25.650  14.809
15802W        W77223   0.832  33.015  14.493
15803W        W77224  36.352  25.982  12.020
15804W        W77225  34.573   4.398  13.481
15805W        W77226  22.739  36.477   3.849
15806W        W77227  44.768  17.267  13.798
15807W        W77228  38.417   3.227  14.856
15808W        W77229  16.227  22.160  13.432
15809W        W77230  25.689   4.779  11.373
15810W        W77231   2.422  40.966  14.418
15811W        W77232  28.608   6.703   4.672
15812W        W77233  10.226  23.077   0.464
15813W        W77234  37.884  10.749  12.860
15814W        W77235  28.933  20.148  14.968
15815W        W77236   5.227  18.109   1.263
15816W        W77237  21.109  16.072   1.296
15817W        W77238  39.530  21.168   1.252
15818W        W77239  40.421  29.174  10.131
15819W        W77240   1.429   1.310   4.191
15820W        W77241  43.514  32.450  12.848
15821W        W77242  28.083   5.872   1.757
15822W        W77243  12.324  24.706  13.031
15823W        W77244  26.698  42.316  13.396
15824W        W77245   3.260  16.736   3.703
15825W        W77246  22.162  32.135   2.393
15826W        W77247   7.880  43.308   4.651
15827W        W77248  33.917  23.593  13.536
15828W        W77249  31.455  10.837  11.537
15829W        W77250  24.504  40.806  11.373
15830W        W77251  34.417  31.480  12.348
15831W        W77252  23.583  19.571  13.407
15832W        W77253  22.504  38.550   2.306
15833W        W77254  36.546   0.491   5.263
15834W        W77255   1.374  44.398   4.599
15835W        W77256  17.254  41.535   1.725
15836W        W77257  22.165  30.959  14.448
15837W        W77258  11.259  44.354  12.920
15838W        W77259  26.480  14.694  14.383
15839W        W77260  24.199  16.735   4.223
15840W        W77261  39.430  27.154   2.365
15841W        W77262  22.253  38.864   2.377
15842W        W77263  23.146   2.925  12.090
15843W        W77264   4.289  30.018   0.257
15844W        W77265  11.254  42.475  10.433
15845W        W77266  13.318  38.849   4.726
15846W        W77267  18.230  16.114  11.605
15847W        W77268  20.120  28.539   1.412
15848W        W77269   1.958  43.788  12.387
15849W        W77270  29.116  36.961   1.438
15850W        W77271  29.483  27.542   3.692
15851W        W77272  29.578  34.462  11.937
15852W        W77273  43.959  23.221   4.157
15853W        W77274   1.902  38.848  13.939
15854W        W77275   3.241  26.678  12.868
15855W        W77276  17.785  10.638   2.304
15856W        W77277  15.313  43.401   1.337
15857W        W77278  36.347   2.831   5.604
15858W        W77279  36.446   8.229   0.908
15859W        W77280  16.760  13.832  11.910
15860W        W77281  40.502  40.354   4.748
15861W        W77282   5.199  36.436   3.255
15862W        W77283  19.607  44.334   0.441
15863W        W77284  12.676  29.472   4.599
15864W        W77285  17.630  44.755  13.419
15865W        W77286   1.753  14.639  10.995
15866W        W77287  39.856  32.398  13.822
15867W        W77288  43.362  35.565  12.361
15868W        W77289  17.585  20.103   3.298
15869W        W77290  21.228  40.482   5.189
15870W        W77291  13.678  21.180   3.836
15871W        W77292  37.574  27.042  13.400
15872W        W77293  36.947  32.924   0.356
15873W        W77294  11.318   4.317   4.642
15874W        W77295   2.231  28.462  10.924
15875W        W77296  19.152   4.400   0.776
15876W        W77297   9.687  23.603  11.406
15877W        W77298  29.515   8.268  11.960
15878W        W77299  36.026   7.203   2.745
15879W        W77300  33.418  15.628  11.983
15880W        W77301  36.863   4.349  14.867
15881W        W77302  25.084   7.795   2.893
15882W        W77303  34.464  43.350   4.152
15883W        W77304  36.992   1.395  13.539
15884W        W77305   5.913   4.872   1.906
15885W        W77306   0.269  28.629   0.767
15886W        W77307  12.219  36.542   0.884
15887W        W77308  28.966  23.078  14.793
15888W        W77309  35.946  27.591   4.341
15889W        W77310  20.667  42.296   0.387
15890W        W77311  44.361  26.091   4.124
15891W        W77312  25.512  20.657   3.274
15892W        W77313  36.551  37.051  13.048
15893W        W77314  20.054  32.966   1.429
15894W        W77315   1.381  31.568  14.470
15895W        W77316   9.202   7.318  14.829
15896W        W77317  12.810  28.527  11.931
15897W        W77318   1.277  22.181  10.942
15898W        W77319  22.687  12.719   1.403
15899W        W77320  38.526  18.751   4.286
15900W        W77321  31.475   7.353   3.321
15901W        W77322  43.975  29.139  14.939
15902W        W77323  25.685   4.235  13.535
15903W        W77324  30.115  43.854   2.805
15904W        W77325  19.574  20.113  11.976
15905W        W77326  23.602  35.474   2.357
15906W        W77327  31.150  32.515   1.214
15907W        W77328   7.379  21.230   3.734
15908W        W77329  32.588  22.570   0.949
15909W        W77330  24.202   5.887  14.496
15910W        W77331  16.108  36.391   2.404
15911W        W77332  26.519  20.190  10.917
15912W        W77333  31.638  15.148   4.643
15913W        W77334  28.640  27.454   0.395
15914W        W77335  13.234  13.205   0.739
15915W        W77336  33.092   0.266  11.574
15916W        W77337   7.206  10.764  12.984
15917W        W77338  43.299  41.967  12.570
15918W        W77339  41.043  12.196  13.818
15919W        W77340  33.075  30.554  11.873
15920W        W77341  24.046   7.906   3.227
15921W        W77342  32.135   6.385   3.659
15922W        W77343  10.322  10.671  11.005
15923W        W77344  20.178  30.527   3.743
15924W        W77345   7.328  13.833  12.010
15925W        W77346   7.215  10.254   2.317
15926W        W77347  33.931  37.421   0.870
15927W        W77348  38.356  22.159  11.023
15928W        W77349   5.275   6.742  14.348
15929W        W77350  27.610   4.709  12.872
15930W        W77351   2.420   1.739  14.847
15931W        W77352  20.234  10.658   4.751
15932W        W77353  31.047  25.034  12.898
15933W        W77354  41.371   3.744  12.494
15934W        W77355  34.935   6.764  12.536
15935W        W77356  21.643  19.104   4.642
15936W        W77357  17.775   1.360  13.496
15937W        W77358   6.248  35.937  14.429
15938W        W77359  36.092  14.668  12.347
15939W        W77360  19.261   0.892  10.462
15940W        W77361   5.800  12.251   3.825
15941W        W77362   0.374  20.582  10.986
15942W        W77363  22.584  13.632  12.037
15943W        W77364  14.623  16.777  13.853
15944W        W77365  37.404  17.619   0.873
15945W        W77366  13.231  24.715   1.419
15946W        W77367  34.077   9.391   3.210
15947W        W77368  18.753  10.210   4.331
15948W        W77369  14.170  17.708   0.247
15949W        W77370  36.465  43.020  10.026
15950W        W77371  27.629  20.677  12.937
15951W        W77372   4.279   0.833   1.364
15952W        W77373  30.649  31.910   2.337
15953W        W77374  30.602  32.922  14.450
15954W        W77375  10.702  39.500  14.898
15955W        W77376   2.926  11.270   1.798
15956W        W77377  34.882  26.535  14.805
15957W        W77378  16.578  33.081  14.977
15958W        W77379  29.667   9.770  10.509
15959W        W77380  20.154  38.443  11.008
15960W        W77381   5.286  32.078   4.286
15961W        W77382  29.599  32.042   5.309
15962W        W77383  24.039  25.166  14.353
15963W        W77384   5.819   3.806  10.430
15964W        W77385  34.581  32.062   2.391
15965W        W77386  40.861  29.660   2.756
15966W        W77387  27.084  16.789  10.601
15967W        W77388  37.527  13.220  12.369
15968W        W77389  26.573  34.455  10.150
15969W        W77390  12.257   3.824   0.835
15970W        W77391  38.368  25.075   2.223
15971W        W77392  20.201  34.456   1.877
15972W        W77393  30.648   6.763  12.562
15973W        W77394   1.873  28.166  11.600
15974W        W77395  25.083  10.338  11.529
15975W        W77396   8.306  22.183   0.424
15976W        W77397  32.945   3.449  13.331
15977W        W77398  39.037  32.054  12.906
15978W        W77399  44.948  25.140  12.825
15979W        W77400  37.856  16.717   4.696
15980W        W77401  15.272  41.911  12.022
15981W        W77402  40.325  15.134   3.725
15982W        W77403  37.026  14.755  14.760
15983W        W77404   1.833   3.746   4.188
15984W        W77405  19.146  10.282   3.633
15985W        W77406   7.198  28.059   4.221
15986W        W77407   1.744  17.203  13.364
15987W        W77408  29.584  30.431   4.627
15988W        W77409  37.001  22.727   1.331
15989W        W77410  30.150  14.263  10.582
15990W        W77411   8.856  13.612   4.285
15991W        W77412  29.001  19.215  10.896
15992W        W77413  35.432  17.200  11.047
15993W        W77414  30.981   8.358   4.136
15994W        W77415  25.626  21.626   3.256
15995W        W77416  30.107  32.015   3.680
15996W        W77417  15.749   1.923   0.428
15997W        W77418   7.263  15.638  12.546
15998W        W77419  19.754  29.072  10.579
15999W        W77420  40.835  10.303   4.313
16000W        W77421  36.997  25.963   3.386
16001W        W77422  38.863  23.649   2.396
16002W        W77423  36.403  31.988   1.254
16003W        W77424  18.673  15.662   4.694
16004W        W77425  40.925  27.489  12.891
16005W        W77426  41.044  38.531  11.951
16006W        W77427  32.070   9.392   4.834
16007W        W77428  43.286  37.904  14.401
16008W        W77429  40.991  12.285   3.794
16009W        W77430  18.122  17.601   2.677
16010W        W77431  38.883  39.411   4.300
16011W        W77432  13.111  44.895  13.346
16012W        W77433  20.540  29.545   1.809
16013W        W77434  20.616   2.744  10.403
16014W        W77435  43.293  29.449   1.287
16015W        W77436  19.073   5.365   5.256
16016W        W77437  20.609  34.001  14.482
16017W        W77438  12.174  10.785  14.784
16018W        W77439  14.174  14.275   1.402
16019W        W77440  15.185   5.368   4.138
16020W        W77441   0.376  38.474   2.249
16021W        W77442  37.520  43.297  12.370
16022W        W77443  40.459  35.972   2.390
16023W        W77444   1.844  33.599   9.629
16024W        W77445  31.608  30.033  11.440
16025W        W77446  22.652  39.920   0.827
16026W        W77447  39.420  34.553   4.203
16027W        W77448   0.775   3.881  14.786
16028W        W77449  39.484  41.349  10.934
16029W        W77450   3.941  42.492  13.888
16030W        W77451  22.644  22.250   1.211
16031W        W77452   5.436  13.645   2.332
16032W        W77453  12.846  30.113  14.299
16033W        W77454  29.612  42.344  12.345
16034W        W77455  30.570  37.960   1.744
16035W        W77456  29.537  21.132  13.446
16036W        W77457   0.349  24.637   2.727
16037W        W77458  29.447  24.164   3.379
16038W        W77459   5.438   7.827  12.837
16039W        W77460  19.610  22.007   4.744
16040W        W77461   1.946   3.297   3.319
16041W        W77462  37.047  21.028   0.913
16042W        W77463   7.224   3.384   3.638
16043W        W77464  33.586  23.609  12.405
16044W        W77465  23.081  29.647   3.751
16045W        W77466  32.453   1.919   3.858
16046W        W77467  27.074   3.421   1.421
16047W        W77468  36.945  32.558  10.572
16048W        W77469  20.686  42.923  14.954
16049W        W77470  30.927  36.862   4.301
16050W        W77471   8.850  23.499   4.175
16051W        W77472   7.738  33.104  13.999
16052W        W77473  35.914  21.674   0.964
16053W        W77474  40.437   9.879  11.868
16054W        W77475  13.646  12.192  14.915
16055W        W77476  24.514  33.583   2.711
16056W        W77477  25.701   4.810   1.356
16057W        W77478  10.780  19.591  13.034
16058W        W77479  38.007  19.562   5.237
16059W        W77480  42.920  11.847  10.503
16060W        W77481  30.963  39.321   4.814
16061W        W77482   2.334  20.718  13.327
16062W        W77483  33.495  43.840   1.435
16063W        W77484  38.503  36.892   4.802
16064W        W77485  30.470  40.894  13.500
16065W        W77486  17.744   2.879   3.256
16066W        W77487  13.677  15.153   1.897
16067W        W77488   9.202  20.181  14.817
16068W        W77489  19.767  15.223  10.941
16069W        W77490  18.604  12.152  11.948
16070W        W77491  39.899  25.612  10.519
16071W        W77492  42.980  19.265   2.348
16072W        W77493  28.622  19.236  10.607
16073W        W77494  42.296  31.141   3.146
16074W        W77495  41.292   8.302   4.651
16075W        W77496  40.978  27.495  11.533
16076W        W77497  19.110   3.257  14.780
16077W        W77498  23.503   2.359  10.929
16078W        W77499  18.262  28.051  12.916
16079W        W77500   5.848  28.045  11.895
16080W        W77501   6.775   8.838  14.297
16081W        W77502  39.434   5.237  12.042
16082W        W77503  30.070  10.861   5.120
16083W        W77504  15.759  42.798  12.041
16084W        W77505  26.066   1.910   0.306
16085W        W77506  38.466  18.123  10.961
16086W        W77507  24.046  16.786   4.730
16087W        W77508   6.750  15.117   4.680
16088W        W77509  36.990  33.956   1.754
16089W        W77510  28.563  10.726   9.651
16090W        W77511   9.646  42.783   0.296
16091W        W77512  41.368   4.897   4.610
16092W        W77513  40.387  41.327  12.419
16093W        W77514  10.871   8.707  12.078
16094W        W77515  40.031   4.366   1.727
16095W        W77516  10.354  26.553   1.835
16096W        W77517  12.667  14.106   0.949
16097W        W77518  18.232  34.086   1.921
16098W        W77519  25.166   6.915   4.656
16099W        W77520  19.538   9.679   4.209
16100W        W77521  15.702  14.625   3.811
16101W        W77522  20.123  13.242  13.855
16102W        W77523  39.494  36.390   4.641
16103W        W77524  10.384  18.745   2.181
16104W        W77525  26.195   0.448   0.934
16105W        W77526  42.937  10.245  14.989
16106W        W77527  24.092  38.419  11.074
16107W        W77528  34.025  19.262  10.610
16108W        W77529  23.056  12.625  11.527
16109W        W77530   6.228  42.521   3.162
16110W        W77531  32.957  34.957   3.154
16111W        W77532  22.997  20.162   0.778
16112W        W77533  11.197  31.510   4.326
16113W        W77534  41.520  26.552   3.351
16114W        W77535  21.249  34.929  11.558
16115W        W77536  14.638  17.695   3.694
16116W        W77537   3.757  40.536   3.211
16117W        W77538  37.982  21.187  10.635
16118W        W77539  20.670  11.187  10.599
16119W        W77540  41.917  30.913  13.528
16120W        W77541  29.147   5.243  12.531
16121W        W77542  32.527  42.999  12.848
16122W        W77543  14.726  27.186  13.792
16123W        W77544   0.745   6.719  13.445
16124W        W77545  28.028  29.493  12.351
16125W        W77546  11.779   9.241   4.212
16126W        W77547  41.334  27.535  10.635
16127W        W77548  40.901  20.054   4.307
16128W        W77549  20.682  41.460   1.912
16129W        W77550  25.012   4.300  12.414
16130W        W77551  30.530   8.313   1.333
16131W        W77552   2.837  14.256   2.679
16132W        W77553  28.611  27.091  14.871
16133W        W77554  21.155  19.081  10.983
16134W        W77555  42.385   8.336   1.325
16135W        W77556  11.634  36.931   2.266
16136W        W77557  41.970  34.385   0.341
16137W        W77558  33.601   4.341  14.278
16138W        W77559  41.511  27.525  14.316
16139W        W77560   1.800   8.786  13.810
16140W        W77561  37.500   0.357   0.885
16141W        W77562   6.187   6.758  11.871
16142W        W77563  21.624  41.421   4.715
16143W        W77564  29.478   9.317   1.898
16144W        W77565  29.093  39.350   2.272
16145W        W77566   5.808   1.388  12.564
16146W        W77567  13.729  25.031  12.867
16147W        W77568  37.481   1.810   4.347
16148W        W77569  22.175  12.334   3.786
16149W        W77570  34.432   6.693   0.867
16150W        W77571  42.358  39.507   2.254
16151W        W77572   5.211   4.443   1.262
16152W        W77573  40.994  29.159   3.375
16153W        W77574   1.907   8.300  14.368
16154W        W77575  18.723  25.075  14.989
16155W        W77576  13.803  11.364  12.857
16156W        W77577   3.323  33.046   2.769
16157W        W77578   7.200  24.602  12.566
16158W        W77579  40.930  16.588   1.711
16159W        W77580  40.311   5.427  11.913
16160W        W77581  19.636  41.885  12.452
16161W        W77582  44.433  10.768   0.409
16162W        W77583  23.493  22.119   2.230
16163W        W77584  40.410  27.591   1.871
16164W        W77585  22.999  32.078   4.285
16165W        W77586  14.707  41.975   4.657
16166W        W77587  35.423  37.867  14.006
16167W        W77588   7.778  44.932  13.538
16168W        W77589  38.448   4.395   3.234
16169W        W77590  44.000  23.049   1.253
16170W        W77591   7.690   2.312   0.346
16171W        W77592  33.580  34.575   4.287
16172W        W77593  38.431  14.612   4.710
16173W        W77594  18.269  43.976  12.063
16174W        W77595  17.590  23.125   0.929
16175W        W77596  28.969   2.249   4.321
16176W        W77597  19.261   3.738  14.400
16177W        W77598  21.028  22.505   1.421
16178W        W77599  25.191   4.927   3.330
16179W        W77600  39.466  25.127  14.458
16180W        W77601  17.750  30.439   4.634
16181W        W77602  42.913  31.991  10.570
16182W        W77603  26.184  30.516  13.876
16183W        W77604  17.064   2.278   1.269
16184W        W77605   0.415  39.064  10.890
16185W        W77606  37.970  16.306  14.360
16186W        W77607  33.391  33.883  10.568
16187W        W77608  41.031  22.705  12.473
16188W        W77609  17.647   3.944  12.018
16189W        W77610  15.690  30.024  13.900
16190W        W77611  29.505  28.505  10.980
16191W        W77612  30.612  12.147   0.421
16192W        W77613  41.887  32.430  12.082
16193W        W77614  30.432  19.704  12.890
16194W        W77615   8.243  39.502   5.155
16195W        W77616  11.232  31.411   2.204
16196W        W77617  31.592  13.130   9.977
16197W        W77618  21.209  23.549  12.362
16198W        W77619  13.191  29.087   1.767
16199W        W77620   5.227  31.440  14.451
16200W        W77621  24.512  12.841   4.742
16201W        W77622  32.049  43.921   4.163
16202W        W77623  33.411   5.417   4.167
16203W        W77624  14.200  22.174   3.775
16204W        W77625   5.743   4.734  13.520
16205W        W77626   3.444  35.961  14.014
16206W        W77627  18.213  44.480  10.595
16207W        W77628  29.531   8.220  12.407
16208W        W77629   1.294   0.822   0.322
16209W        W77630  10.363  33.115   0.736
16210W        W77631  16.123  32.628   0.345
16211W        W77632  37.879  36.396  10.586
16212W        W77633  30.497   5.219  14.826
16213W        W77634  20.106  37.048   1.316
16214W        W77635  24.547  26.048  14.322
16215W        W77636   9.203  41.498  13.427
16216W        W77637  44.965  20.066  13.891
16217W        W77638   4.775  11.682  14.980
16218W        W77639   5.357   8.400   3.201
16219W        W77640  21.514   5.200   2.410
16220W        W77641  38.837  41.805  13.528
16221W        W77642  11.746  23.735   2.297
16222W        W77643   9.882  22.693   0.316
16223W        W77644  36.519  32.929  12.415
16224W        W77645  24.520   1.818   0.741
16225W        W77646   6.368  25.130  13.050
16226W        W77647  13.711  13.129   1.908
16227W        W77648  34.932  41.792  12.973
16228W        W77649   6.801  41.333  13.037
16229W        W77650  24.055  28.001   1.761
16230W        W77651   4.390  30.547   4.264
16231W        W77652   6.742  23.636   4.315
16232W        W77653  37.850  31.401  13.049
16233W        W77654  12.361  23.618  12.955
16234W        W77655  15.626   5.925  12.950
16235W        W77656   0.492  26.670  14.894
16236W        W77657  34.091   8.704  12.353
16237W        W77658  44.876  10.740  13.811
16238W        W77659   0.272  12.293  10.969
16239W        W77660   1.840  19.696   4.177
16240W        W77661  31.099  35.410  12.844
16241W        W77662   6.740   8.668   0.430
16242W        W77663  11.219  37.932  13.816
16243W        W77664   9.277  37.060   1.736
16244W        W77665  44.378   6.249   5.129
16245W        W77666  44.001  18.235   2.856
16246W        W77667  21.581  17.565   1.357
16247W        W77668  29.490  21.206   0.808
16248W        W77669  37.884  13.231  12.914
16249W        W77670  25.480  38.047  14.937
16250W        W77671  27.690  25.072   2.363
16251W        W77672   2.472  23.684  10.432
16252W        W77673   6.750  32.495   2.342
16253W        W77674  31.113  35.927   4.650
16254W        W77675   0.783  33.509   0.767
16255W        W77676  15.713  32.622   1.760
16256W        W77677  33.082  20.030   4.153
16257W        W77678  18.601   8.221  11.051
16258W        W77679  16.661  18.788  11.599
16259W        W77680  20.101   6.292   4.647
16260W        W77681   4.407  10.345  14.968
16261W        W77682  30.415   6.192   1.391
16262W        W77683  38.844  44.464   1.890
16263W        W77684  16.642  12.812   1.710
16264W        W77685   6.798  11.255  14.362
16265W        W77686  32.048  38.397  13.346
16266W        W77687  23.011   7.287   4.177
16267W        W77688  13.109   2.387  14.904
16268W        W77689  23.054  30.641   0.414
16269W        W77690  32.010  40.441  12.447
16270W        W77691  21.263  23.720   4.645
16271W        W77692  30.098  36.008  13.925
16272W        W77693  39.326  28.593  11.050
16273W        W77694  39.971   5.785   4.786
16274W        W77695  23.050  14.698  10.468
16275W        W77696  32.595  17.600  11.494
16276W        W77697  29.080  30.585   0.286
16277W        W77698   7.230  10.215  12.908
16278W        W77699   0.396   7.408  14.941
16279W        W77700  24.170  30.098   3.825
16280W        W77701   7.816  32.015  13.935
16281W        W77702  11.763  21.694   1.399
16282W        W77703  14.721  38.821  13.399
16283W        W77704  24.014   4.223   1.709
16284W        W77705  31.148  42.923   4.798
16285W        W77706  22.077  40.886   2.226
16286W        W77707  23.032  19.163  10.441
16287W        W77708  28.149  33.881  10.454
16288W        W77709  13.204  23.667   4.826
16289W        W77710  39.365  29.572  11.613
16290W        W77711  15.607   0.494  12.949
16291W        W77712   9.273  43.016  10.636
16292W        W77713  29.929  13.324   1.786
16293W        W77714  36.957  24.152   4.132
16294W        W77715   5.249   1.777  14.895
16295W        W77716  32.063  41.499  13.898
16296W        W77717   4.872  14.307  11.552
16297W        W77718   9.711  17.126  13.010
16298W        W77719   4.757  10.362  10.443
16299W        W77720  12.211  25.478   4.743
16300W        W77721  32.957  24.536   0.802
16301W        W77722  24.160  38.029  13.919
16302W        W77723  37.923   4.706  10.625
16303W        W77724  44.456  40.829   3.846
16304W        W77725   6.290  12.739  13.982
16305W        W77726  14.105  43.787  13.349
16306W        W77727  37.962  32.096   4.224
16307W        W77728   6.695  36.460   1.806
16308W        W77729   6.196  17.259  14.880
16309W        W77730  31.618  34.466  10.405
16310W        W77731  14.147  40.536  11.046
16311W        W77732  26.605  11.275  13.328
16312W        W77733  43.782   7.262  11.536
16313W        W77734  10.844  36.491   4.218
16314W        W77735  11.190  39.464  13.989
16315W        W77736  44.986  32.937  10.455
16316W        W77737  22.641  16.702   1.829
16317W        W77738  32.025  27.156  14.994
16318W        W77739  30.074  15.668   2.228
16319W        W77740   9.229  35.053  14.951
16320W        W77741  11.785   4.701   0.382
16321W        W77742  17.607  11.669   0.291
16322W        W77743  25.040  26.017   2.778
16323W        W77744  20.674  11.240   3.641
16324W        W77745  24.145  14.782  12.079
16325W        W77746  10.317  24.711  13.922
16326W        W77747  43.765  37.087  13.000
16327W        W77748  35.424   5.698  10.021
16328W        W77749  18.290  14.773  11.473
16329W        W77750  29.645  41.521  12.096
16330W        W77751  36.881  19.039  13.307
16331W        W77752  15.680  33.883  14.781
16332W        W77753  44.766  10.762   1.314
16333W        W77754  43.363  36.912   0.918
16334W        W77755  17.700  27.551   1.350
16335W        W77756  30.439   6.191  10.419
16336W        W77757  30.422   3.781  11.612
16337W        W77758   0.900  38.863   5.311
16338W        W77759   6.763  42.514   2.824
16339W        W77760  17.211  20.692  11.560
16340W        W77761   8.894   4.393   4.703
16341W        W77762  25.980   9.836   4.189
16342W        W77763   0.252  12.810   3.320
16343W        W77764  19.193  40.848  13.953
16344W        W77765   6.400  10.228   5.136
16345W        W77766  10.310   4.765   5.216
16346W        W77767  33.408   3.916  10.511
16347W        W77768   5.894  41.824   0.940
16348W        W77769  38.035  12.236  10.485
16349W        W77770  38.453  22.220   3.771
16350W        W77771  43.505   5.767  13.934
16351W        W77772  13.769  42.385  14.863
16352W        W77773   8.763   9.719  13.484
16353W        W77774  14.739  35.107  13.842
16354W        W77775  42.948   4.933  10.471
16355W        W77776  14.609  24.693  11.533
16356W        W77777   2.461   3.805   3.315
16357W        W77778   4.812  20.262  11.571
16358W        W77779  33.556   7.905   4.117
16359W        W77780  18.589  19.672   4.202
16360W        W77781  24.647  41.964  14.020
16361W        W77782  39.388   2.789  14.927
16362W        W77783  12.237   8.897  13.332
16363W        W77784  26.100  26.018  11.106
16364W        W77785  10.789  35.099   3.666
16365W        W77786  32.555  12.615  12.906
16366W        W77787  28.137  26.558  14.781
16367W        W77788  22.726  13.326   0.434
16368W        W77789  18.204  33.491   3.845
16369W        W77790   3.351  13.792  12.580
16370W        W77791  42.985  22.527   3.836
16371W        W77792   7.818  22.732  10.530
16372W        W77793  43.985  41.449   0.886
16373W        W77794  21.521   3.923  12.853
16374W        W77795  21.646  34.066   1.795
16375W        W77796  44.406   0.307  13.036
16376W        W77797  41.367  43.961   0.834
16377W        W77798  20.251  16.218   4.829
16378W        W77799  20.044  40.537  13.792
16379W        W77800  16.262  12.628  14.455
16380W        W77801  24.977  25.575  12.446
16381W        W77802   5.337  39.471   3.825
16382W        W77803  14.823  15.673  10.435
16383W        W77804  29.002   1.874   2.894
16384W        W77805  20.135  33.427   0.296
16385W        W77806  16.677  24.184   4.770
16386W        W77807  22.083  20.106   3.845
16387W        W77808  42.485  37.869   1.399
16388W        W77809   9.375  26.052   2.697
16389W        W77810   3.277  30.471   2.734
16390W        W77811  15.679  44.973   4.232
16391W        W77812  40.457   7.750  13.544
16392W        W77813  43.967  34.414  14.825
16393W        W77814   6.742  22.549   4.273
16394W        W77815  25.589  29.626  10.474
16395W        W77816  14.157  41.880  12.535
16396W        W77817  43.398  24.689  12.087
16397W        W77818  27.506  43.841  11.435
16398W        W77819  27.148   4.839  11.523
16399W        W77820  10.781  17.206   0.749
16400W        W77821   4.749  34.032   0.798
16401W        W77822  16.587   7.854  11.921
16402W        W77823  32.578  41.512  10.472
16403W        W77824  32.489  23.493  11.961
16404W        W77825  17.103  35.592   4.708
16405W        W77826   8.759  30.929   5.281
16406W        W77827  30.533  30.487  10.989
16407W        W77828  18.746  10.368  13.824
16408W        W77829  28.983  28.594  14.431
16409W        W77830  35.446  37.976   4.228
16410W        W77831  18.057   2.440  11.526
16411W        W77832  34.986  35.560   2.414
16412W        W77833  12.163  42.450  14.996
16413W        W77834  25.668  37.870   2.901
16414W        W77835  20.257  15.210   1.256
16415W        W77836  34.967   1.287   5.312
16416W        W77837  27.063  36.452  14.857
16417W        W77838  17.219   5.834  13.946
16418W        W77839  21.058   0.444   3.698
16419W        W77840   9.257  43.274  12.884
16420W        W77841  14.099  20.091   1.368
16421W        W77842  39.445  27.164  14.346
16422W        W77843  34.608   9.856  13.831
16423W        W77844  27.589  14.741   2.900
16424W        W77845  39.045  24.625   4.634
16425W        W77846  37.022   8.814  13.010
16426W        W77847  16.233  17.213  13.921
16427W        W77848   6.214   5.408   3.712
16428W        W77849  26.682   0.853   1.341
16429W        W77850  14.708  19.679   3.220
16430W        W77851  11.779  35.584  14.355
16431W        W77852  40.533  22.674   3.667
16432W        W77853  11.808   1.419  13.382
16433W        W77854   9.390   8.179  10.986
16434W        W77855  12.817  15.284  12.021
16435W        W77856  34.467  37.940  14.766
16436W        W77857  35.491   9.251   2.274
16437W        W77858   9.774  35.957  14.355
16438W        W77859   8.175  42.964   4.613
16439W        W77860   6.256  29.533   5.203
16440W        W77861  31.076  33.409   4.811
16441W        W77862  23.993   8.789   5.160
16442W        W77863   8.709  19.686  10.594
16443W        W77864   6.413   3.229   4.205
16444W        W77865  32.959  16.173  14.914
16445W        W77866  19.262  21.080   1.390
16446W        W77867  41.314   5.199  13.037
16447W        W77868  27.541  16.102   0.278
16448W        W77869  19.158  36.986   2.245
16449W        W77870  32.136   2.943   4.338
16450W        W77871  36.366   2.422  12.990
16451W        W77872  24.039   1.429  10.896
16452W        W77873  27.174  10.367   3.381
16453W        W77874  24.221   0.455  10.408
16454W        W77875   5.330  35.039   0.730
16455W        W77876  30.533   7.681  13.892
16456W        W77877  33.515  40.912  12.934
16457W        W77878  37.053   6.752  11.110
16458W        W77879  18.062  36.958  14.962
16459W        W77880  41.794   5.224  10.540
16460W        W77881  36.996  18.627  14.393
16461W        W77882  20.173  44.360   0.302
16462W        W77883  35.870  26.194   4.203
16463W        W77884  40.468  39.527  14.455
16464W        W77885   7.739  27.598  13.427
16465W        W77886  27.972  18.675   0.388
16466W        W77887  44.486  42.389  13.041
16467W        W77888  28.095  38.921   5.245
16468W        W77889  12.188  10.145  12.927
16469W        W77890  22.553  39.833   1.716
16470W        W77891  22.221  31.451   2.768
16471W        W77892  21.078  11.626   2.255
16472W        W77893   8.845  16.114  14.898
16473W        W77894  32.985   5.809  13.854
16474W        W77895  34.420  37.395  10.484
16475W        W77896  11.707  11.372   3.304
16476W        W77897  11.836  26.539  12.829
16477W        W77898  23.732  12.215   1.902
16478W        W77899   9.720   3.252  11.882
16479W        W77900  11.653   7.786  14.308
16480W        W77901  27.550   4.944   0.362
16481W        W77902  17.184  32.437  14.806
16482W        W77903  13.822   8.262  11.988
16483W        W77904  18.653  22.084   0.960
16484W        W77905  11.248  12.173   0.311
16485W        W77906  32.982  24.658  13.483
16486W        W77907  12.223  16.144  10.982
16487W        W77908   0.399   1.966  10.542
16488W        W77909  21.158  41.459  12.480
16489W        W77910  18.709   8.818   2.868
16490W        W77911   5.812  17.283   0.327
16491W        W77912  44.442  35.925   1.904
16492W        W77913  42.016   8.831  13.435
16493W        W77914   1.958  15.269  14.361
16494W        W77915  11.765   3.254   0.247
16495W        W77916   8.860  42.479  11.023
16496W        W77917  17.614  31.434   9.988
16497W        W77918   8.320  42.830  13.939
16498W        W77919  40.907  33.624   1.746
16499W        W77920  12.833  27.051   0.463
16500W        W77921  40.388  41.876  10.519
16501W        W77922  31.056   7.243  10.139
16502W        W77923  27.669   2.785   4.123
16503W        W77924  18.547  21.558  12.411
16504W        W77925  24.071  26.133   1.244
16505W        W77926  27.556   0.844  11.886
16506W        W77927  20.045  32.029  14.855
16507W        W77928  35.426  44.829   1.793
16508W        W77929   3.874  13.738  11.123
16509W        W77930  26.489   6.787  13.535
16510W        W77931  27.171  25.679   2.294
16511W        W77932  31.556  37.851   3.824
16512W        W77933  40.848   2.434   0.426
16513W        W77934  11.792   6.841  12.528
16514W        W77935  41.823  19.084   1.241
16515W        W77936  21.564   3.222   2.803
16516W        W77937  43.406   5.229   0.738
16517W        W77938  36.873   2.908   9.582
16518W        W77939  16.693  29.026  14.877
16519W        W77940  32.548   0.367  13.927
16520W        W77941   3.380   9.662   3.211
16521W        W77942  10.279  28.674  12.971
16522W        W77943  34.050  11.707   0.932
16523W        W77944  39.395  31.957  10.597
16524W        W77945  31.628  37.842  14.994
16525W        W77946  34.098  38.045  10.980
16526W        W77947  23.553  16.164   3.154
16527W        W77948  11.244  30.000   2.890
16528W        W77949  33.009  17.221  13.885
16529W        W77950  11.148  15.680   1.245
16530W        W77951  31.961  21.631   2.843
16531W        W77952  11.623  32.479   3.649
16532W        W77953  38.972  18.648   5.219
16533W        W77954   4.941  32.628   0.261
16534W        W77955   0.317   3.323  10.952
16535W        W77956  29.003  31.905   0.950
16536W        W77957  43.492  38.537   3.204
16537W        W77958   3.825   3.941  14.810
16538W        W77959   0.419  38.402   0.771
16539W        W77960   8.395   2.960  13.017
16540W        W77961  34.968  31.943  13.884
16541W        W77962   8.683  35.060  12.096
16542W        W77963  44.341  30.464   1.803
16543W        W77964  44.828  24.529  13.914
16544W        W77965  10.350   3.787   3.312
16545W        W77966  30.977  31.969  12.464
16546W        W77967  42.483  29.566   2.802
16547W        W77968  19.180  40.311   2.242
16548W        W77969  20.686   9.886   2.263
16549W        W77970   1.442   2.292   3.693
16550W        W77971  39.868  31.488  14.951
16551W        W77972   3.414  28.931  13.460
16552W        W77973  26.150  33.514   1.213
16553W        W77974   9.734   0.403  11.952
16554W        W77975  25.973  12.855  10.496
16555W        W77976   3.427  21.097  10.614
16556W        W77977  32.455  30.933   0.798
16557W        W77978   0.817  37.435   5.228
16558W        W77979  22.173  41.525   0.810
16559W        W77980  14.136   8.213  12.075
16560W        W77981  36.970  23.682  10.432
16561W        W77982  15.674  20.272   2.818
16562W        W77983   2.723  40.898  10.449
16563W        W77984   8.255   2.859   2.681
16564W        W77985  43.787  38.867   3.376
16565W        W77986  11.301  38.950  10.038
16566W        W77987   5.332  28.159   2.354
16567W        W77988  38.049   1.335  11.993
16568W        W77989  18.678  11.740   1.818
16569W        W77990  29.118  21.637   0.470
16570W        W77991  26.617  12.355  14.973
16571W        W77992  42.993  38.863  14.881
16572W        W77993  21.071  24.986   1.387
16573W        W77994  41.930  12.222  12.387
16574W        W77995  12.662   5.306  13.505
16575W        W77996   5.735  31.917   3.236
16576W        W77997  16.766  31.916   5.217
16577W        W77998  24.491  17.569  10.553
16578W        W77999  42.832   2.356  12.486
16579W        W78000  18.271  42.913   3.378
16580W        W78001  26.078  43.858   2.876
16581W        W78002  42.837  27.034   2.331
16582W        W78003  35.379  36.995  11.876
16583W        W78004   4.408  22.517  12.573
16584W        W78005  34.546  37.465  12.468
16585W        W78006  28.986  39.949   0.257
16586W        W78007  43.846  39.062  10.928
16587W        W78008  27.071  17.128   3.868
16588W        W78009  23.077  27.496   1.306
16589W        W78010   0.812  21.065  14.762
16590W        W78011   6.695  37.479  13.059
16591W        W78012  22.153   4.385  12.863
16592W        W78013  39.373  22.628  11.106
16593W        W78014   1.302  30.968   2.877
16594W        W78015  43.834   6.284  12.090
16595W        W78016   3.910  31.454   1.746
16596W        W78017  33.096   3.352   0.366
16597W        W78018   4.260  21.171  13.809
16598W        W78019  25.185  24.187  14.375
16599W        W78020  35.854  27.007  13.822
16600W        W78021  10.248  33.013   3.757
16601W        W78022  29.159  28.486  12.375
16602W        W78023  35.538  10.777  13.891
16603W        W78024  20.578  22.176   2.256
16604W        W78025  22.553  41.370  11.551
16605W        W78026  14.698  32.557  14.825
16606W        W78027   7.182  19.180   2.856
16607W        W78028  39.901  37.393   1.425
16608W        W78029  22.730  41.373  11.935
16609W        W78030  39.992  22.568   0.340
16610W        W78031   8.896  15.578   5.248
16611W        W78032   8.387   4.862  11.578
16612W        W78033  30.073  14.215   0.435
16613W        W78034  30.929   2.282   1.450
16614W        W78035  32.937  23.192  13.365
16615W        W78036  44.355   4.935  11.065
16616W        W78037  32.903  22.024  11.977
16617W        W78038  29.431  12.173   2.215
16618W        W78039   0.362  24.546  13.880
16619W        W78040  43.344  39.430  14.379
16620W        W78041  14.723  16.304   3.800
16621W        W78042   9.185  18.157  10.146
16622W        W78043  39.409  17.713  13.416
16623W        W78044  17.629  17.705  12.869
16624W        W78045  41.789  22.563   1.215
16625W        W78046  20.675  12.299  13.350
16626W        W78047  34.537  36.494  13.043
16627W        W78048  43.442  15.250   4.132
16628W        W78049   6.295  34.962   3.771
16629W        W78050  40.504  12.746   0.905
16630W        W78051   4.352  44.887  14.012
16631W        W78052  26.503  33.411  13.826
16632W        W78053   1.970  13.726  10.902
16633W        W78054  40.487  24.545  12.563
16634W        W78055  22.187  37.338   4.260
16635W        W78056  13.731  40.403   3.673
16636W        W78057   7.690  27.521   0.966
16637W        W78058  25.547  31.521  13.890
16638W        W78059  13.218  36.877  11.952
16639W        W78060  35.065  39.480  13.917
16640W        W78061   1.475  40.967   4.305
16641W        W78062  35.080  13.679   2.685
16642W        W78063  40.867   4.720  11.956
16643W        W78064   9.349   9.782  10.970
16644W        W78065   9.842   3.923  13.911
16645W        W78066  27.962  16.074  13.941
16646W        W78067   0.825   5.737   0.928
16647W        W78068  21.148  22.998   0.947
16648W        W78069  22.171  44.363   3.852
16649W        W78070  24.209   9.279  11.947
16650W        W78071  40.547   8.777   4.713
16651W        W78072  20.231  41.823   3.790
16652W        W78073  43.479  40.536   4.775
16653W        W78074  18.067  15.100   0.252
16654W        W78075  37.414  17.255  13.919
16655W        W78076  13.269  43.289  12.359
16656W        W78077  25.474  33.558   3.792
16657W        W78078  14.296  38.937  14.762
16658W        W78079  26.474   2.332   3.758
16659W        W78080  31.508  32.517  13.855
16660W        W78081  16.652  37.007  14.456
16661W        W78082  39.871  10.354   3.741
16662W        W78083  44.818   0.973   4.303
16663W        W78084  23.677  22.713  13.931
16664W        W78085  14.177  43.960  11.601
16665W        W78086  34.040  22.567  10.926
16666W        W78087   9.887   0.916   4.121
16667W        W78088   3.353  32.632   0.871
16668W        W78089  28.977   3.328   4.652
16669W        W78090  16.247  28.155  13.018
16670W        W78091  30.645  37.344  12.562
16671W        W78092  42.008  29.507  13.417
16672W        W78093  16.790  28.010  13.821
16673W        W78094  39.999  33.074  12.827
16674W        W78095  31.509  12.839   0.444
16675W        W78096  38.831   1.895   3.294
16676W        W78097   0.464  37.941  11.879
16677W        W78098  20.750  10.336  10.518
16678W        W78099  30.977  22.097  12.527
16679W        W78100  10.143  35.453   0.770
16680W        W78101   4.428  27.027  11.893
16681W        W78102  41.429  34.485   0.841
16682W        W78103   1.955  12.757  12.826
16683W        W78104  30.551   1.340  11.915
16684W        W78105  38.331  32.959  13.974
16685W        W78106  28.020  41.812   1.824
16686W        W78107  25.066  11.723  10.897
16687W        W78108  41.469  38.361  13.817
16688W        W78109  34.499   7.289   1.329
16689W        W78110  42.901   4.848   5.173
16690W        W78111  20.212  37.420   2.370
16691W        W78112  38.454  42.471   3.755
16692W        W78113   9.311  42.799  12.363
16693W        W78114  22.243  30.009   3.252
16694W        W78115  23.690  14.768   0.842
16695W        W78116  27.654  38.822  13.478
16696W        W78117  40.379   7.685  12.467
16697W        W78118  34.946  37.058  13.823
16698W        W78119  14.194  36.553   2.887
16699W        W78120   0.398  40.054  10.964
16700W        W78121  24.093  25.567  13.983
16701W        W78122   5.398  20.061   4.353
16702W        W78123   7.868  42.027   0.873
16703W        W78124   3.314  43.402  13.027
16704W        W78125  13.750  16.715   0.804
16705W        W78126  28.141   2.310   2.770
16706W        W78127  32.972  18.671  12.883
16707W        W78128  37.978  31.923   5.083
16708W        W78129   2.883  30.619  11.435
16709W        W78130  35.940  18.582   3.291
16710W        W78131  17.783   7.879  13.916
16711W        W78132   9.656  31.613   2.339
16712W        W78133   9.658   2.291   2.248
16713W        W78134   9.174  29.971  14.397
16714W        W78135  40.818   2.815   2.306
16715W        W78136  13.698  13.115   2.320
16716W        W78137  36.460   8.296  13.345
16717W        W78138  25.083   7.400   1.744
16718W        W78139  32.945   7.839  14.425
16719W        W78140   9.183  18.078  10.947
16720W        W78141   6.356  32.429   3.235
16721W        W78142  10.343  17.083  12.390
16722W        W78143   6.823  11.701  13.309
16723W        W78144  19.046   8.891   3.846
16724W        W78145  30.950   9.766   1.213
16725W        W78146   8.836  22.230   1.768
16726W        W78147  32.503   2.768   1.414
16727W        W78148  36.551  15.697  14.297
16728W        W78149   1.237  17.300  11.065
16729W        W78150  41.899  33.584   2.201
16730W        W78151  28.014  17.673  13.349
16731W        W78152  37.911  28.563   4.226
16732W        W78153  41.820   7.893  12.461
16733W        W78154   9.879  23.144  13.038
16734W        W78155  13.160   7.178   2.768
16735W        W78156  42.439  43.887  10.956
16736W        W78157  27.633  36.913  11.010
16737W        W78158  22.078  16.166  10.511
16738W        W78159  10.349  31.461  10.912
16739W        W78160  13.612  18.052  11.426
16740W        W78161  35.385  32.975  14.995
16741W        W78162  24.638  16.265  10.929
16742W        W78163  36.939  30.625   3.782
16743W        W78164  19.111  36.857   3.712
16744W        W78165  33.874  32.086   2.250
16745W        W78166   8.310   6.840  11.029
16746W        W78167  18.550  44.855   2.254
16747W        W78168  17.601  17.304  11.552
16748W        W78169  28.638  42.496  12.413
16749W        W78170   5.703  42.899  12.973
16750W        W78171   2.322  12.688   0.435
16751W        W78172  38.932   8.220  12.391
16752W        W78173  29.567  22.561   1.401
16753W        W78174  41.854   5.730  14.486
16754W        W78175   6.238  34.409  10.943
16755W        W78176  37.416   0.281   2.680
16756W        W78177  21.513  15.611   1.723
16757W        W78178  30.989   4.751   1.445
16758W        W78179   5.719  11.839  12.557
16759W        W78180  34.597  26.997  14.934
16760W        W78181  15.714   4.843   3.161
16761W        W78182  10.765  23.019   4.715
16762W        W78183  16.713  32.454   4.118
16763W        W78184  40.965  10.282   2.815
16764W        W78185  21.514   9.262   3.317
16765W        W78186  29.168  30.939   1.866
16766W        W78187  11.731  33.992   1.388
16767W        W78188  43.808  41.976   0.922
16768W        W78189  18.582   4.247  13.485
16769W        W78190  17.076  38.929   4.609
16770W        W78191  29.567   4.910  12.884
16771W        W78192  44.841  27.452   0.428
16772W        W78193  26.986  25.541   3.862
16773W        W78194  15.579  40.912  11.598
16774W        W78195  11.673  41.364   5.202
16775W        W78196  32.412  20.567   0.754
16776W        W78197  15.135   7.291   4.129
16777W        W78198  20.624   1.311   1.392
16778W        W78199  14.611  41.472  14.852
16779W        W78200  20.586  29.079  14.383
16780W        W78201  35.897  14.150  12.075
16781W        W78202  31.451  10.751  13.907
16782W        W78203  28.946  39.327  12.965
16783W        W78204  24.688  26.101  10.931
16784W        W78205  17.264  23.059  10.512
16785W        W78206  35.069  14.173  10.467
16786W        W78207  16.232  33.537   9.624
16787W        W78208  18.559   9.207  14.000
16788W        W78209  41.469   0.823   1.907
16789W        W78210  29.014  23.989   2.197
16790W        W78211   6.861  23.609   1.793
16791W        W78212  41.988  37.975  13.431
16792W        W78213   4.766  34.911  12.955
16793W        W78214  27.533  29.070   2.386
16794W        W78215  41.022  12.293   1.850
16795W        W78216  43.927  37.039  13.526
16796W        W78217  42.414  44.465   2.786
16797W        W78218  42.935  43.297  10.955
16798W        W78219  18.640  43.355  14.986
16799W        W78220  16.705  12.169  11.939
16800W        W78221  37.424  28.033  12.863
16801W        W78222  33.560  20.555  10.535
16802W        W78223   5.304   9.150   4.726
16803W        W78224   3.258  27.589   2.178
16804W        W78225  27.949  22.611  11.476
16805W        W78226  14.813   5.283  14.026
16806W        W78227  20.116  15.292  12.974
16807W        W78228   1.830  26.044   1.796
16808W        W78229  28.492  29.576   2.241
16809W        W78230  31.083  15.228  11.539
16810W        W78231  16.730  19.691  11.078
16811W        W78232   1.877  27.475  14.964
16812W        W78233   3.899  41.391   1.408
16813W        W78234  16.729  18.255   2.848
16814W        W78235  30.577  18.059   4.622
16815W        W78236  14.297   4.423   1.442
16816W        W78237  23.239  23.593  14.032
16817W        W78238  11.671  40.976  10.532
16818W        W78239  28.662  25.117  12.350
16819W        W78240  17.619   2.261  14.404
16820W        W78241   4.944  30.488   3.666
16821W        W78242   2.749  14.104  14.378
16822W        W78243  30.070  44.997  10.572
16823W        W78244  16.213  38.976  10.985
16824W        W78245  26.534  37.992  11.451
16825W        W78246  10.294  14.740   4.126
16826W        W78247   2.804  41.040   0.775
16827W        W78248  18.603  20.212   3.823
16828W        W78249   4.716  16.568   2.411
16829W        W78250  26.457  37.850   4.235
16830W        W78251  17.202  43.415  13.895
16831W        W78252  27.655  37.045   3.753
16832W        W78253   5.326  15.685  10.916
16833W        W78254  29.495  29.612  13.479
16834W        W78255  15.148  14.242  12.859
16835W        W78256  14.737  44.778   1.741
16836W        W78257   7.326  24.185   4.223
16837W        W78258  40.491  20.065   1.726
16838W        W78259  12.773   5.827   4.130
16839W        W78260  42.407  35.975  11.601
16840W        W78261  31.414  19.705  11.994
16841W        W78262  22.148  12.346   2.368
16842W        W78263  25.566  26.590   1.406
16843W        W78264   3.781   2.876  13.359
16844W        W78265  33.105  44.812  13.900
16845W        W78266  34.593  18.647   2.408
16846W        W78267  31.597  25.515   3.222
16847W        W78268  29.097  11.183   3.366
16848W        W78269  39.318  40.449   4.686
16849W        W78270  40.464   1.283   1.877
16850W        W78271  13.240   4.824  13.932
16851W        W78272  37.365  16.705   0.302
16852W        W78273  19.568   4.826  12.998
16853W        W78274  19.581   8.240   0.417
16854W        W78275  37.889   8.707  11.987
16855W        W78276  40.472  32.020  11.112
16856W        W78277  13.628  38.403  10.524
16857W        W78278  30.064   1.766  11.063
16858W        W78279  21.170  14.207   1.895
16859W        W78280  20.127  13.265  12.441
16860W        W78281  41.025  32.063  11.515
16861W        W78282  30.527  32.436  13.402
16862W        W78283  24.175   9.199   4.697
16863W        W78284  16.224  15.758  10.430
16864W        W78285  36.403  29.573  12.091
16865W        W78286   0.293  11.316   4.762
16866W        W78287  34.921  38.355  13.484
16867W        W78288   7.911   1.294   9.994
16868W        W78289  20.229  42.930   2.334
16869W        W78290  13.781  22.505   1.908
16870W        W78291   5.350  43.374  13.825
16871W        W78292   6.731  13.145  10.559
16872W        W78293  44.797   2.912  14.903
16873W        W78294  21.092  43.878  14.465
16874W        W78295  32.433  12.265  10.023
16875W        W78296  24.488  32.568   4.176
16876W        W78297  17.288  37.924   2.289
16877W        W78298  37.518  37.462  11.078
16878W        W78299   1.950  22.561  13.042
16879W        W78300  33.497  12.692   5.224
16880W        W78301   3.453  36.480   5.158
16881W        W78302  28.479   5.384  14.383
16882W        W78303  25.085  38.420   0.386
16883W        W78304  34.496  35.376   2.370
16884W        W78305   6.182  33.525   1.868
16885W        W78306  29.553  11.785  10.022
16886W        W78307   6.320  34.584  12.836
16887W        W78308  34.921  14.289   2.261
16888W        W78309   1.975  27.069   4.675
16889W        W78310  43.473   6.844  10.944
16890W        W78311  17.186  42.508   1.365
16891W        W78312   9.288  27.503  12.376
16892W        W78313  18.659  19.592  13.815
16893W        W78314  10.715  33.115  13.480
16894W        W78315  30.959  11.282  11.519
16895W        W78316  22.014  11.651   4.758
16896W        W78317  30.629  17.136   3.831
16897W        W78318  11.771  13.704   1.731
16898W        W78319  37.400  13.256   5.176
16899W        W78320  10.377  24.216  12.831
16900W        W78321  27.571  14.776   5.610
16901W        W78322  23.219  11.324   4.347
16902W        W78323  29.957  17.692   4.652
16903W        W78324   9.655  36.413  13.846
16904W        W78325  27.997  25.475  12.960
16905W        W78326   8.179  15.271  13.040
16906W        W78327  11.693  25.188  12.890
16907W        W78328  17.575  22.024  12.918
16908W        W78329  31.427  35.446  13.035
16909W        W78330  35.387  16.247  11.588
16910W        W78331  32.482   3.864  11.418
16911W        W78332  39.384   4.867  11.023
16912W        W78333  35.961  19.277   1.832
16913W        W78334  26.111  21.236   3.656
16914W        W78335   8.801  39.029   2.892
16915W        W78336  27.071   3.852  12.512
16916W        W78337  12.335   8.244  12.965
16917W        W78338  30.124  31.425   3.824
16918W        W78339  24.122  37.057  11.488
16919W        W78340  26.667  19.265  14.451
16920W        W78341  29.653  27.137   1.381
16921W        W78342  24.569  28.019   1.355
16922W        W78343  43.480  41.850  13.317
16923W        W78344  11.838  22.089   4.303
16924W        W78345  38.847  24.050   4.689
16925W        W78346  34.062  41.028   2.330
16926W        W78347  12.696   5.332  14.510
16927W        W78348  30.542  40.979  12.026
16928W        W78349  25.685  21.044  14.775
16929W        W78350  35.987  12.358  13.936
16930W        W78351  30.061  42.508   3.739
16931W        W78352  38.026  31.621   0.349
16932W        W78353  29.175   5.794  14.855
16933W        W78354   2.421  26.600   2.375
16934W        W78355  38.910  24.716  11.903
16935W        W78356  28.551  13.129   0.389
16936W        W78357  35.940  13.215   3.188
16937W        W78358  12.782  20.625   3.292
16938W        W78359   4.874  15.664  14.339
16939W        W78360  20.698  44.317   1.776
16940W        W78361  44.370  35.982  13.325
16941W        W78362  40.860  25.537  10.604
16942W        W78363  35.518   7.212  13.032
16943W        W78364  13.741   9.749   0.841
16944W        W78365  31.449  11.715   0.741
16945W        W78366  23.143  21.758   4.311
16946W        W78367  23.670  11.233  14.341
16947W        W78368  14.682   9.272   0.324
16948W        W78369  44.767   0.803   1.822
16949W        W78370  34.889   8.757  11.045
16950W        W78371  19.261  22.531   4.706
16951W        W78372  23.673   8.230   5.739
16952W        W78373  40.979  41.538   0.753
16953W        W78374  11.649  28.583   0.876
16954W        W78375  37.978   3.865   4.639
16955W        W78376  28.175   2.776   3.252
16956W        W78377  26.032   6.319   2.371
16957W        W78378   8.826  39.849   1.745
16958W        W78379  21.549   5.811   2.302
16959W        W78380  42.998  20.076  10.560
16960W        W78381  15.788  43.405  13.315
16961W        W78382  10.693  10.312  12.920
16962W        W78383  36.580  38.568  13.524
16963W        W78384  14.738  20.033   0.279
16964W        W78385  36.428  26.073  11.504
16965W        W78386  32.542  35.533  13.392
16966W        W78387  30.109  25.105   3.769
16967W        W78388  24.719  20.753   3.667
16968W        W78389  18.099   2.730   3.386
16969W        W78390  24.091  34.869   3.687
16970W        W78391  23.080  16.211  12.846
16971W        W78392  28.519  35.468  12.919
16972W        W78393   8.268  38.568   2.663
16973W        W78394  11.765   1.789  10.468
16974W        W78395  42.509  25.607   3.715
16975W        W78396  24.617  20.651   1.893
16976W        W78397  13.342  18.120   1.316
16977W        W78398  16.707  16.306  13.893
16978W        W78399  24.124   7.702   2.857
16979W        W78400   7.238  11.177  11.958
16980W        W78401  18.590  28.956   0.874
16981W        W78402  11.140  20.540  11.942
16982W        W78403  10.756  39.439  13.369
16983W        W78404  25.053  39.836  14.918
16984W        W78405  21.207  34.089   3.821
16985W        W78406  10.268  21.053  13.873
16986W        W78407  16.581  29.167   0.748
16987W        W78408  17.796  40.813   0.750
16988W        W78409   3.306  40.375   0.817
16989W        W78410  11.214  16.275   1.446
16990W        W78411  39.976  42.778  11.923
16991W        W78412  19.284  20.653  11.091
16992W        W78413   2.784  28.617  11.530
16993W        W78414  17.705  24.183  11.882
16994W        W78415  16.314  30.086  13.827
16995W        W78416  15.241  15.613   0.959
16996W        W78417   3.281  15.140  12.928
16997W        W78418  23.668  43.860  10.470
16998W        W78419  42.781  40.865   2.227
16999W        W78420  11.328  15.672   1.877
17000W        W78421  29.172  34.579  11.035
17001W        W78422  10.681  17.677  13.981
17002W        W78423  25.041  31.933   1.915
17003W        W78424  35.078  36.863  14.479
17004W        W78425  15.601   5.372   1.749
17005W        W78426  35.917  24.128  10.544
17006W        W78427  19.688  22.142   4.281
17007W        W78428  11.303   1.247  11.501
17008W        W78429  32.391  27.537   1.720
17009W        W78430  24.693  25.669   3.821
17010W        W78431   9.795  19.154   1.415
17011W        W78432  19.626  32.574   1.214
17012W        W78433  43.944  14.127  14.298
17013W        W78434  27.961   5.888   4.614
17014W        W78435  37.510   9.814   0.834
17015W        W78436   9.186  10.294   1.868
17016W        W78437   8.300  31.016  11.476
17017W        W78438  40.040  22.711  11.983
17018W        W78439   0.465  30.999   9.490
17019W        W78440  42.988  13.307   0.254
17020W        W78441   4.760  10.321   3.300
17021W        W78442  16.313  14.596  10.520
17022W        W78443  36.928  21.233   0.419
17023W        W78444  43.905  37.054   2.358
17024W        W78445   0.817  44.996  13.962
17025W        W78446  11.136  43.878  13.418
17026W        W78447   1.743  37.959   3.196
17027W        W78448  43.371  37.443   0.428
17028W        W78449  44.438   0.450  10.593
17029W        W78450  43.344  30.937  12.846
17030W        W78451  34.947  32.935  14.777
17031W        W78452  27.590  19.752   0.757
17032W        W78453  29.099  17.664   0.844
17033W        W78454  44.278  40.974   1.227
17034W        W78455  28.538  30.962   4.598
17035W        W78456   0.313  25.579  13.542
17036W        W78457   9.675  18.263  12.523
17037W        W78458  20.543  42.501   4.675
17038W        W78459  13.290  42.417  12.562
17039W        W78460  32.634  44.461  12.510
17040W        W78461   5.693  32.090  14.299
17041W        W78462   9.217  42.925  12.876
17042W        W78463  37.371  35.901  13.491
17043W        W78464  37.503  15.610  11.899
17044W        W78465  11.719   7.346  11.104
17045W        W78466  15.262  13.271  11.578
17046W        W78467  19.063  40.834  13.339
17047W        W78468   1.269   7.389  12.048
17048W        W78469  25.140  34.118   4.758
17049W        W78470  43.292  20.603   4.799
17050W        W78471  20.247  20.128  13.791
17051W        W78472   7.701  29.631   1.728
17052W        W78473  20.539   8.771  11.416
17053W        W78474  26.577  35.583   1.887
17054W        W78475   2.722  39.939  10.917
17055W        W78476  24.229   6.910   0.354
17056W        W78477  36.519  31.579  12.403
17057W        W78478  42.441  16.316   0.270
17058W        W78479   5.768  11.192   2.275
17059W        W78480  28.014  36.918   4.231
17060W        W78481  44.974   0.248  12.891
17061W        W78482   2.883   7.378   3.718
17062W        W78483   2.280  24.997  11.072
17063W        W78484  31.476  40.442  12.982
17064W        W78485  41.315   6.892  12.989
17065W        W78486  26.637   5.717   0.942
17066W        W78487   6.836   9.345  11.976
17067W        W78488   0.250  14.099   1.385
17068W        W78489  16.614  15.273  12.830
17069W        W78490   1.776   3.415   0.939
17070W        W78491   2.781  20.676  11.110
17071W        W78492  15.311   7.319  14.347
17072W        W78493  15.138   2.740   1.699
17073W        W78494  34.980   1.327  12.430
17074W        W78495  44.384  21.223  14.360
17075W        W78496  21.080  27.687  13.851
17076W        W78497  42.292   4.940   4.143
17077W        W78498  41.879  40.898   1.338
17078W        W78499  44.280  30.558   3.735
17079W        W78500  33.503  44.349   0.458
17080W        W78501  23.161  18.667  11.394
17081W        W78502  11.632   2.930   0.467
17082W        W78503  37.453  18.090  11.401
17083W        W78504  22.660  26.006  11.897
17084W        W78505  20.649  13.228  13.035
17085W        W78506  32.953  30.475   4.322
17086W        W78507   4.839  11.674  11.389
17087W        W78508  33.900  12.172  10.925
17088W        W78509  11.334  39.420   3.295
17089W        W78510   9.744  29.084  13.805
17090W        W78511  31.451  13.170   2.882
17091W        W78512   6.246  28.500  13.005
17092W        W78513  14.265  11.142  12.991
17093W        W78514  37.370  43.502   3.652
17094W        W78515  44.951   3.886  13.905
17095W        W78516  42.990  25.211  13.487
17096W        W78517  18.058  29.639  10.998
17097W        W78518  32.616  12.713   3.686
17098W        W78519  28.935  28.666  11.864
17099W        W78520  35.490  22.602   1.235
17100W        W78521  27.192  21.084   3.797
17101W        W78522  16.213  22.605  11.519
17102W        W78523  25.093   7.330  14.763
17103W        W78524  37.919  20.724   3.857
17104W        W78525  38.056  26.965  14.468
17105W        W78526   9.385  11.633  11.012
17106W        W78527  10.200  27.651   0.730
17107W        W78528  27.060  39.905  12.460
17108W        W78529  37.019  38.997   4.311
17109W        W78530  11.216  23.002  11.488
17110W        W78531   5.235  22.658  12.489
17111W        W78532  39.390  31.117   2.768
17112W        W78533  37.452   3.951   5.178
17113W        W78534  40.478  27.469   0.333
17114W        W78535  20.729  16.691  14.760
17115W        W78536  22.589  23.594   3.736
17116W        W78537  22.702   8.335   2.403
17117W        W78538   0.290  15.125   1.707
17118W        W78539  24.015  24.486  10.622
17119W        W78540  28.062   4.796   2.264
17120W        W78541   4.325  24.226   1.929
17121W        W78542  32.500  42.377   2.220
17122W        W78543   0.982  21.589  14.983
17123W        W78544  44.328  40.511  13.921
17124W        W78545  12.336   2.849   4.643
17125W        W78546  25.107  40.463   3.652
17126W        W78547  37.376  31.553  10.505
17127W        W78548   8.313   0.368   4.652
17128W        W78549  23.040  13.213  12.950
17129W        W78550   7.356  11.788   4.286
17130W        W78551  42.297  21.258   3.206
17131W        W78552  35.481   9.346  14.856
17132W        W78553  14.240  16.744  11.108
17133W        W78554   2.908  42.397   4.303
17134W        W78555  39.953   2.834   4.768
17135W        W78556  44.991  33.470  14.414
17136W        W78557  20.646  43.388   0.766
17137W        W78558  35.854   1.270  14.312
17138W        W78559  10.353  29.626  13.038
17139W        W78560   5.804  30.108   2.839
17140W        W78561   6.843  41.934  14.425
17141W        W78562  18.758  41.502  13.792
17142W        W78563  38.075  19.073  13.833
17143W        W78564  41.934  23.721   3.788
17144W        W78565  23.093   8.739  14.447
17145W        W78566  41.999  17.799  11.425
17146W        W78567  33.624   7.246   2.769
17147W        W78568  44.467  38.063  13.321
17148W        W78569   0.318  33.036  14.847
17149W        W78570  40.463   9.643   0.889
17150W        W78571   1.413  23.073   1.894
17151W        W78572  31.106  36.566  13.502
17152W        W78573  38.431  31.920  11.396
17153W        W78574  38.381  19.558   1.753
17154W        W78575   3.373  35.504   3.700
17155W        W78576  18.183  22.566   3.709
17156W        W78577  16.781  21.027   4.244
17157W        W78578  28.968  43.410   1.224
17158W        W78579  38.059   1.934  10.531
17159W        W78580  26.636  17.562  11.994
17160W        W78581  23.703  25.212  14.972
17161W        W78582  26.153  38.923   0.877
17162W        W78583   7.798   0.248  14.396
17163W        W78584  39.547   0.361  14.912
17164W        W78585  13.722  27.651  14.410
17165W        W78586   2.747  24.680  13.437
17166W        W78587  29.638  31.970  12.012
17167W        W78588   4.271  29.586   3.630
17168W        W78589  25.195  40.962  12.496
17169W        W78590  29.955  29.631   2.197
17170W        W78591   4.732  36.369   3.154
17171W        W78592  41.495  38.972   4.314
17172W        W78593  37.860  42.310  14.864
17173W        W78594   1.737  42.349  12.871
17174W        W78595  39.015  24.975  11.424
17175W        W78596  15.100  43.400   1.889
17176W        W78597  24.516  22.701  11.433
17177W        W78598  24.537  44.963   3.193
17178W        W78599  25.051  36.944   0.423
17179W        W78600  25.001   5.865   4.264
17180W        W78601  25.487  22.524  12.979
17181W        W78602   4.207   8.268  13.893
17182W        W78603  27.639  29.940  14.382
17183W        W78604  28.454  42.953   0.446
17184W        W78605  34.084  39.920  13.926
17185W        W78606   3.451   3.734  12.513
17186W        W78607  44.838  15.740  13.307
17187W        W78608  36.990  19.748  14.983
17188W        W78609  13.696   7.199  13.468
17189W        W78610  10.338  18.257   4.235
17190W        W78611  34.108  27.166   4.131
17191W        W78612  29.629  17.770  14.325
17192W        W78613   2.342  19.638  14.487
17193W        W78614  42.523   1.320  14.304
17194W        W78615  11.659  44.881   0.459
17195W        W78616  33.544  18.289   4.679
17196W        W78617  26.497  31.055   0.768
17197W        W78618   1.872  43.274   4.284
17198W        W78619  41.377   3.942   2.293
17199W        W78620   2.920   9.783  12.007
17200W        W78621  33.431  15.799   1.933
17201W        W78622  27.596  41.306  10.913
17202W        W78623   6.409  43.909  12.010
17203W        W78624  20.179   1.354   2.877
17204W        W78625  26.689  37.926  13.885
17205W        W78626  31.618  26.183  13.941
17206W        W78627  16.586   9.703   3.702
17207W        W78628  39.403  20.644   3.775
17208W        W78629   8.351  44.761  14.030
17209W        W78630  40.390  41.320   9.957
17210W        W78631  28.624  35.544  12.359
17211W        W78632   5.699  23.074   3.638
17212W        W78633  32.997  40.390  11.982
17213W        W78634  44.486  12.835   9.981
17214W        W78635  44.862   6.335   3.373
17215W        W78636  18.174  42.486   1.332
17216W        W78637  20.235  36.554   4.818
17217W        W78638  35.439  14.690  13.419
17218W        W78639  18.138   9.149   0.916
17219W        W78640  19.126   6.859   2.206
17220W        W78641  38.416  33.582  14.796
17221W        W78642  42.523  30.136  12.391
17222W        W78643  23.586  31.957   3.666
17223W        W78644  27.980  38.888  13.414
17224W        W78645  34.511  15.671   4.325
17225W        W78646  30.110  38.956  12.084
17226W        W78647  14.135  38.068  12.852
17227W        W78648  24.142   8.781  14.467
17228W        W78649   6.733  42.990   2.771
17229W        W78650  22.603  35.509   1.336
17230W        W78651  11.295  32.077   4.753
17231W        W78652  44.275   9.866   1.309
17232W        W78653  14.626   4.277  13.957
17233W        W78654   4.224  20.221   3.159
17234W        W78655  37.940  14.154   4.723
17235W        W78656  18.165  20.643   0.873
17236W        W78657  16.199  26.045   0.276
17237W        W78658  35.879  43.852  11.878
17238W        W78659   8.764   7.789   3.339
17239W        W78660  41.017  37.061  12.981
17240W        W78661  31.510  44.973   4.209
17241W        W78662  41.814  26.517   9.975
17242W        W78663   2.348  21.066   0.817
17243W        W78664  21.108  28.015   4.813
17244W        W78665  15.707   7.372  11.911
17245W        W78666  39.536   5.334  10.615
17246W        W78667  34.052   9.851  13.474
17247W        W78668  36.959  32.425  11.880
17248W        W78669   3.224  25.589  14.380
17249W        W78670   4.925  17.203  11.569
17250W        W78671  32.532  19.210   1.330
17251W        W78672  33.429  37.501   2.376
17252W        W78673  21.557  40.894  10.537
17253W        W78674  22.557  38.477   4.621
17254W        W78675  43.330  14.274   1.323
17255W        W78676  38.916  11.837  13.992
17256W        W78677  17.261  17.112   2.330
17257W        W78678  43.921  40.973   4.799
17258W        W78679  19.709  35.863   2.240
17259W        W78680  13.806  21.616   0.781
17260W        W78681  43.005   0.855   3.712
17261W        W78682  15.699  11.862  13.875
17262W        W78683  31.482  15.636  14.464
17263W        W78684  29.173   2.439  11.958
17264W        W78685   9.256  40.396  14.351
17265W        W78686  31.029   2.381  12.502
17266W        W78687  39.045   4.297   4.607
17267W        W78688   6.184  28.448  13.323
17268W        W78689  28.525   4.782   0.799
17269W        W78690  40.797   1.820  11.997
17270W        W78691  14.189  16.706   3.377
17271W        W78692   8.334  23.038  14.833
17272W        W78693  39.429  19.050  10.591
17273W        W78694  27.957  32.053  14.000
17274W        W78695  25.203  42.792   1.888
17275W        W78696  39.002  29.950   3.367
17276W        W78697   5.313   6.415  12.964
17277W        W78698  16.671  15.744  13.871
17278W        W78699   1.399  22.655  10.562
17279W        W78700  35.488   7.681   4.793
17280W        W78701  44.402  40.530   1.745
17281W        W78702  38.539   4.362  14.413
17282W        W78703   3.386  10.373   0.366
17283W        W78704  16.628  34.603  11.542
17284W        W78705  22.147  10.340   1.719
17285W        W78706   4.944  42.313  10.994
17286W        W78707  26.096  25.011  13.391
17287W        W78708  22.605  42.488   1.760
17288W        W78709  31.575  20.549   4.344
17289W        W78710  12.132   9.644  10.892
17290W        W78711  17.245  29.658   2.843
17291W        W78712   4.353  23.191   1.797
17292W        W78713   8.663  21.740  11.974
17293W        W78714   5.825  27.480  14.771
17294W        W78715  23.194   9.300   5.203
17295W        W78716   8.406  31.415  12.071
17296W        W78717  34.891  44.895  12.371
17297W        W78718  18.228  24.112  12.883
17298W        W78719   8.392  19.140  14.906
17299W        W78720  39.862  24.502   2.846
17300W        W78721  32.076  14.796   0.359
17301W        W78722   9.828  29.434  14.945
17302W        W78723  29.593   4.358   3.726
17303W        W78724  21.672  10.720  13.375
17304W        W78725  28.560  35.860   2.270
17305W        W78726  38.018  16.177   1.753
17306W        W78727  33.567  17.217   3.808
17307W        W78728  33.968  20.686   3.256
17308W        W78729  10.650  43.867   0.292
17309W        W78730  17.260  31.643   9.921
17310W        W78731  37.026  30.614  12.916
17311W        W78732  24.693  31.105   4.255
17312W        W78733  32.582  22.718  10.635
17313W        W78734  20.184   3.414   2.180
17314W        W78735  42.443  19.544   1.439
17315W        W78736  27.065  37.439   2.224
17316W        W78737  41.886  28.977   1.408
17317W        W78738  16.182  29.639   1.403
17318W        W78739  12.667  32.041   0.468
17319W        W78740  38.060  26.501   4.180
17320W        W78741  14.694  33.925  14.395
17321W        W78742  23.641  39.381  11.872
17322W        W78743  17.613   8.218   0.466
17323W        W78744  28.559   2.323   2.662
17324W        W78745  24.189  42.810  12.931
17325W        W78746  22.596  22.236   4.282
17326W        W78747  41.383  24.701  12.944
17327W        W78748  32.099  40.426   3.264
17328W        W78749  27.067  17.622  11.101
17329W        W78750   9.230  23.196  11.099
17330W        W78751  33.965  35.100  12.450
17331W        W78752  25.623  10.724  13.481
17332W        W78753  21.719  44.870  12.516
17333W        W78754  38.054  14.240  11.413
17334W        W78755   6.317   6.810   4.649
17335W        W78756  28.947  40.509  13.414
17336W        W78757   6.393  37.338   1.244
17337W        W78758  32.040  43.838   2.288
17338W        W78759  24.222   7.733   4.203
17339W        W78760  13.611   9.703   4.714
17340W        W78761   3.803  16.800  11.597
17341W        W78762  24.119  17.287   3.233
17342W        W78763  41.948  34.401   4.737
17343W        W78764  38.033  11.279  12.992
17344W        W78765  38.063  29.071   2.312
17345W        W78766  15.582   2.896   0.933
17346W        W78767   8.743  37.006  12.832
17347W        W78768   5.689   6.192   3.180
17348W        W78769  29.120  21.622  14.423
17349W        W78770  15.812  27.990   2.296
17350W        W78771   1.302  23.630   9.927
17351W        W78772  28.935   0.276   1.856
17352W        W78773  41.869  32.500  10.450
17353W        W78774  32.610  31.903   1.382
17354W        W78775  13.333  15.110   1.342
17355W        W78776   9.314  44.776   2.772
17356W        W78777  15.679  21.560  10.643
17357W        W78778  19.630  42.971  12.075
17358W        W78779  43.281   0.339   0.284
17359W        W78780  30.005  11.327  14.374
17360W        W78781   3.901  31.417   9.547
17361W        W78782  23.642  37.528  10.917
17362W        W78783  40.986  13.838   3.335
17363W        W78784  22.160  33.951  13.792
17364W        W78785  37.477  11.801  14.817
17365W        W78786  36.543   6.881  11.877
17366W        W78787  27.983  11.341   4.728
17367W        W78788  38.383   8.872  12.890
17368W        W78789  24.481   9.209   1.363
17369W        W78790   0.910   2.379   1.445
17370W        W78791   6.415  17.663  12.916
17371W        W78792  42.837  16.749  13.542
17372W        W78793  43.429  38.510   4.253
17373W        W78794  36.913  20.184  13.543
17374W        W78795  31.538  42.823   1.914
17375W        W78796  38.866  20.538   1.906
17376W        W78797  32.487  36.936  14.994
17377W        W78798  28.551  43.347  14.804
17378W        W78799   8.406  33.906   4.802
17379W        W78800  40.342   3.232   2.668
17380W        W78801   3.869  34.407  11.887
17381W        W78802  26.091  31.070   2.901
17382W        W78803  33.453  32.083   1.230
17383W        W78804   8.187  31.540  12.565
17384W        W78805  33.885   7.366   1.779
17385W        W78806  27.519   1.928  13.891
17386W        W78807  17.649  34.901   4.275
17387W        W78808  14.678   0.750  10.508
17388W        W78809   0.481   7.825   2.260
17389W        W78810  36.094  36.061   0.892
17390W        W78811  36.908  32.138  11.078
17391W        W78812  12.175  33.552   2.385
17392W        W78813   3.709   6.232   4.226
17393W        W78814  29.942  42.849  13.973
17394W        W78815   8.881  37.842   4.784
17395W        W78816  12.185  42.379   4.783
17396W        W78817  26.552  18.072  14.457
17397W        W78818   4.922  21.656  14.991
17398W        W78819  23.202  30.557   3.722
17399W        W78820  18.751  13.111   5.119
17400W        W78821  40.459  12.689  11.069
17401W        W78822  33.961  41.308   0.274
17402W        W78823  13.168   6.331   0.380
17403W        W78824   9.292  23.506  13.051
17404W        W78825  13.333   0.266   2.689
17405W        W78826  43.829   9.705  14.355
17406W        W78827  25.048  41.492  13.319
17407W        W78828  17.241  14.745   2.875
17408W        W78829  40.446  44.340   5.309
17409W        W78830  14.234   3.931  13.965
17410W        W78831  13.738  37.480  13.518
17411W        W78832  12.751  32.474   0.794
17412W        W78833  19.735  38.522  12.518
17413W        W78834  35.895  38.541  13.466
17414W        W78835  26.581   3.319   2.186
17415W        W78836  35.854  14.331  11.509
17416W        W78837  30.521  21.034   1.218
17417W        W78838  31.513  43.357   1.750
17418W        W78839  40.513  44.312  14.019
17419W        W78840  18.725  21.600   4.139
17420W        W78841  39.323  44.297  11.495
17421W        W78842  34.554  30.634  13.873
17422W        W78843  31.531  17.690  13.951
17423W        W78844  44.780  28.636   4.619
17424W        W78845  16.127  15.268  13.031
17425W        W78846   5.809   0.263  12.042
17426W        W78847  39.057   0.286  14.481
17427W        W78848  44.303  39.452   2.339
17428W        W78849  11.859  28.988   1.707
17429W        W78850  41.484  19.612  11.923
17430W        W78851  44.844  25.513   3.363
17431W        W78852  41.912  25.663  11.396
17432W        W78853  33.441   2.364  12.505
17433W        W78854  11.796  38.004   0.754
17434W        W78855  41.465  34.060  14.970
17435W        W78856  29.990  16.766   4.823
17436W        W78857  31.499  26.207  11.080
17437W        W78858  17.556   3.443  13.507
17438W        W78859   8.734   6.700  14.301
17439W        W78860  32.054  41.035   3.307
17440W        W78861  28.656   4.851   9.937
17441W        W78862  39.992  16.673   4.338
17442W        W78863  13.343   4.371   2.321
17443W        W78864  11.310  39.897  13.988
17444W        W78865  36.463  11.648  13.460
17445W        W78866  14.621  18.211  13.455
17446W        W78867  12.657  32.097  11.067
17447W        W78868  36.934  39.847   3.159
17448W        W78869  29.029  44.318   1.873
17449W        W78870  35.107  31.566  12.858
17450W        W78871  35.044  14.796  13.948
17451W        W78872  23.147  36.562   0.457
17452W        W78873  38.023  15.682  14.860
17453W        W78874  22.586   0.797  12.851
17454W        W78875  26.025  35.391  12.859
17455W        W78876  40.361  15.124   0.754
17456W        W78877   4.751  38.346  12.392
17457W        W78878  14.142  40.353   1.720
17458W        W78879  27.091  23.607  12.434
17459W        W78880  24.497  34.503   2.229
17460W        W78881  10.297  41.945  14.355
17461W        W78882  34.549  15.588  14.986
17462W        W78883  31.599  22.216  12.911
17463W        W78884  41.910   1.833   1.321
17464W        W78885  39.535  19.676  14.276
17465W        W78886  38.440  33.955   0.280
17466W        W78887   8.255  42.865  12.857
17467W        W78888   1.820  40.536   3.743
17468W        W78889  31.036  36.565   0.411
17469W        W78890  42.844  35.463   1.342
17470W        W78891  32.029   1.242  10.566
17471W        W78892  35.951  22.541  13.875
17472W        W78893  28.676  33.098  11.444
17473W        W78894  43.012  38.528  13.821
17474W        W78895  11.787  23.208  13.810
17475W        W78896   6.698  43.996  11.551
17476W        W78897  34.894  22.587   1.368
17477W        W78898  40.343  12.207  10.557
17478W        W78899  12.326  44.850  12.429
17479W        W78900  27.086  35.004  10.936
17480W        W78901   8.715  23.045   3.787
17481W        W78902  20.601  43.426   1.826
17482W        W78903  35.499  11.263   4.811
17483W        W78904  19.215   7.359  13.427
17484W        W78905   8.290  20.724  14.491
17485W        W78906  44.995  28.935   0.316
17486W        W78907   0.787  34.595   3.807
17487W        W78908   0.828  37.560  12.436
17488W        W78909  38.511  18.570  12.524
17489W        W78910   2.311  11.802  10.919
17490W        W78911  36.009   8.172  11.550
17491W        W78912  32.949  43.923   1.870
17492W        W78913   8.162   7.318   3.838
17493W        W78914  15.092  24.143   0.319
17494W        W78915   3.310  30.549   3.795
17495W        W78916  20.125  28.939  11.595
17496W        W78917   5.224   0.744  10.566
17497W        W78918  40.549  12.770   0.319
17498W        W78919  41.030   6.217   3.727
17499W        W78920  35.584  37.407  10.049
17500W        W78921  13.117   3.378  12.529
17501W        W78922  20.624   9.307   4.298
17502W        W78923  13.105  39.474   4.290
17503W        W78924  14.658   0.256   4.683
17504W        W78925  37.456  22.537   3.689
17505W        W78926  23.141  20.570   0.850
17506W        W78927   6.780  31.415  14.885
17507W        W78928  38.432   1.327   2.391
17508W        W78929  38.939  35.903  11.404
17509W        W78930  23.563   7.694   2.357
17510W        W78931  23.015  41.454  11.423
17511W        W78932  10.847  17.267   1.930
17512W        W78933  41.032   6.208  13.471
17513W        W78934  28.553  15.307  13.513
17514W        W78935  12.147  10.298   2.196
17515W        W78936  29.161  16.663   1.714
17516W        W78937  33.954  25.676   2.205
17517W        W78938   6.197  23.617   3.263
17518W        W78939  44.866  24.098  13.973
17519W        W78940   3.382  35.973   2.875
17520W        W78941  17.099   8.161  14.370
17521W        W78942  18.713  13.250   5.740
17522W        W78943  21.150  35.003   2.786
17523W        W78944  40.424  24.202  14.481
17524W        W78945  13.605  36.843   3.839
17525W        W78946  31.040  16.623  10.924
17526W        W78947   2.270  40.386   3.161
17527W        W78948   3.735   4.419   9.643
17528W        W78949  12.157   5.422   4.183
17529W        W78950   2.307  25.095  13.880
17530W        W78951   4.287   9.190  13.978
17531W        W78952  29.048  22.592   2.191
17532W        W78953   4.722  21.043   2.809
17533W        W78954  38.842  16.144  14.285
17534W        W78955  28.656  36.385   3.189
17535W        W78956  34.012  18.247  14.022
17536W        W78957  24.699   9.773  11.540
17537W        W78958  26.514  30.601   0.373
17538W        W78959  30.020  39.412  14.320
17539W        W78960  32.395   7.369  13.495
17540W        W78961  12.774   9.390   3.775
17541W        W78962  13.303  30.999   3.281
17542W        W78963   6.379  37.940   2.239
17543W        W78964   0.926   3.299  13.918
17544W        W78965  25.077  17.560   4.655
17545W        W78966  26.195   7.900  13.880
17546W        W78967  12.694  23.082   2.759
17547W        W78968  27.163  14.279   3.788
17548W        W78969  21.605  21.036   2.259
17549W        W78970  30.978  29.115  13.876
17550W        W78971  40.835   2.804   0.878
17551W        W78972  32.486  22.703  14.874
17552W        W78973  38.555   3.766   3.834
17553W        W78974  14.830  23.698   0.460
17554W        W78975  12.777  34.508   2.207
17555W        W78976  25.618  33.903   2.849
17556W        W78977  12.736  19.182   3.818
17557W        W78978  30.019   1.819   2.793
17558W        W78979  18.242  33.103  13.388
17559W        W78980  25.060  19.109  10.434
17560W        W78981  41.500  41.893   3.683
17561W        W78982  21.181  21.022   3.831
17562W        W78983  29.012  19.050   4.701
17563W        W78984  18.095  36.000  10.471
17564W        W78985  39.884  44.391   0.728
17565W        W78986  13.299  36.891  13.523
17566W        W78987   9.788  14.685  13.418
17567W        W78988  26.662  19.213   4.833
17568W        W78989  38.064  35.418  12.448
17569W        W78990  14.276  42.979  10.550
17570W        W78991  35.548  32.603   3.167
17571W        W78992  40.389  28.098  14.030
17572W        W78993   1.281  23.149  12.943
17573W        W78994  38.015  44.402   0.356
17574W        W78995   5.796   8.371  14.024
17575W        W78996   2.868  30.444   9.995
17576W        W78997  35.029   4.769   9.653
17577W        W78998  33.115  11.729   0.416
17578W        W78999   5.773  12.243   0.735
17579W        W79000  29.533  23.141   2.381
17580W        W79001   0.387  29.042  12.025
17581W        W79002   1.915   8.746   1.363
17582W        W79003   2.451   0.965  11.906
17583W        W79004   3.330  43.319  14.846
17584W        W79005  38.381   9.223  13.057
17585W        W79006  13.276  15.163   2.358
17586W        W79007  42.476  35.891  14.909
17587W        W79008   3.317  39.968  12.458
17588W        W79009  12.335  11.830  14.454
17589W        W79010  32.096   4.718  12.415
17590W        W79011  34.875   4.873  12.972
17591W        W79012  19.260  32.055  12.994
17592W        W79013  23.216   5.258   0.763
17593W        W79014  37.523   4.749   4.706
17594W        W79015  40.846   3.839  13.319
17595W        W79016  37.845   0.457  12.491
17596W        W79017   3.240  16.604   0.314
17597W        W79018  42.308   7.220  12.050
17598W        W79019   7.292  38.013  14.856
17599W        W79020   9.286  10.280  10.437
17600W        W79021  43.775  23.139  12.008
17601W        W79022  16.698  42.928   2.735
17602W        W79023   1.419  39.371   0.858
17603W        W79024  29.954  40.912   4.303
17604W        W79025  40.884   3.891   3.851
17605W        W79026   4.929  33.901  11.406
17606W        W79027  15.250  32.061  14.348
17607W        W79028  39.416  32.045  14.294
17608W        W79029  14.103  15.643   5.123
17609W        W79030   1.393  40.943   4.702
17610W        W79031   1.770  12.277  13.481
17611W        W79032  17.193   3.772   3.820
17612W        W79033  40.441   9.857  13.945
17613W        W79034  10.143  19.765   4.147
17614W        W79035  16.784  40.460   4.249
17615W        W79036   8.240  43.389  14.335
17616W        W79037  29.101  18.120  13.310
17617W        W79038  39.540  25.615  12.903
17618W        W79039  39.910  35.873   0.740
17619W        W79040   2.301  15.720   0.793
17620W        W79041  12.278  22.244  13.836
17621W        W79042  15.203  31.062  11.441
17622W        W79043  28.096  33.062  14.492
17623W        W79044  23.574  26.036   1.345
17624W        W79045  43.851   0.916   2.183
17625W        W79046  41.802  10.197   2.324
17626W        W79047  10.225  14.189  12.842
17627W        W79048  36.536   8.308   0.294
17628W        W79049   6.705  32.599   4.687
17629W        W79050  39.906  10.179  10.551
17630W        W79051   8.767   0.903   1.762
17631W        W79052  32.011  25.168   2.839
17632W        W79053  32.913  20.137   0.416
17633W        W79054  39.985  25.985   0.929
17634W        W79055  25.010  25.666  12.023
17635W        W79056  28.078  24.002   2.184
17636W        W79057  27.194  31.087   1.368
17637W        W79058  11.368   6.215  14.017
17638W        W79059  17.143  42.831  13.823
17639W        W79060  40.803  21.162   3.290
17640W        W79061  11.168  23.683   3.199
17641W        W79062  18.076  18.262   4.119
17642W        W79063   4.277  43.428   1.224
17643W        W79064  25.964  42.000   4.189
17644W        W79065  44.432  12.228   3.634
17645W        W79066   3.225  28.091   2.884
17646W        W79067  23.651  30.497  13.876
17647W        W79068  40.922   0.827   0.274
17648W        W79069  35.441   9.342  13.975
17649W        W79070  38.337  14.607   2.252
17650W        W79071   5.847  28.082   3.731
17651W        W79072  22.065  27.010  10.599
17652W        W79073   9.817  17.298   0.846
17653W        W79074  38.848  26.042   4.246
17654W        W79075  34.036   7.757  13.447
17655W        W79076  40.892  44.921  14.998
17656W        W79077  34.477  10.709   4.805
17657W        W79078  12.191  21.571  12.386
17658W        W79079   5.373  44.391  13.999
17659W        W79080  30.621   8.268   3.344
17660W        W79081  10.771   7.320   0.754
17661W        W79082  24.483  15.259  12.387
17662W        W79083  35.053  16.810   4.183
17663W        W79084   2.875  12.169   1.748
17664W        W79085  29.134  25.485  12.508
17665W        W79086  29.451  17.301  13.928
17666W        W79087  41.958   0.287   1.222
17667W        W79088  21.047  23.023   2.187
17668W        W79089  33.502  44.353   1.909
17669W        W79090  36.592   1.772   5.747
17670W        W79091  12.314   7.354  12.825
17671W        W79092  42.916  20.147   0.814
17672W        W79093   1.746  13.205  13.536
17673W        W79094  39.490  19.254   2.305
17674W        W79095  43.012  38.526   1.754
17675W        W79096   8.398  37.079   2.278
17676W        W79097  34.567  34.926   3.635
17677W        W79098  16.182  19.078  12.892
17678W        W79099  20.757  30.594   0.319
17679W        W79100  19.225  37.351  13.908
17680W        W79101  14.259   8.237  12.900
17681W        W79102   7.332  27.517   2.187
17682W        W79103   2.868  27.645  13.977
17683W        W79104  16.204  38.387  11.424
17684W        W79105  13.232  22.187  11.049
17685W        W79106   5.307  32.555   5.309
17686W        W79107  43.783  16.317   0.415
17687W        W79108  35.581   2.754  13.408
17688W        W79109  16.702  32.050  13.828
17689W        W79110  27.609   7.788   3.726
17690W        W79111  28.658  43.511   1.860
17691W        W79112   8.209  37.481   3.776
17692W        W79113  35.949  40.457   3.810
17693W        W79114  24.142  31.957   4.644
17694W        W79115  37.067  18.218   0.796
17695W        W79116  22.106  33.557   1.347
17696W        W79117  13.648  10.684   2.246
17697W        W79118  31.920  39.942  14.471
17698W        W79119  15.099  15.206   1.922
17699W        W79120  12.165  24.646  11.433
17700W        W79121   6.688  33.435  11.031
17701W        W79122  29.668  44.341   4.262
17702W        W79123  44.879   3.770  12.530
17703W        W79124  41.936  31.569   4.722
17704W        W79125  41.450   9.350  10.593
17705W        W79126  28.082   9.660   1.705
17706W        W79127  33.423   6.316  13.436
17707W        W79128  35.109   5.733   2.225
17708W        W79129  16.620   2.738   3.684
17709W        W79130  28.620  32.578  14.476
17710W        W79131  17.704   1.793   3.709
17711W        W79132  14.766  22.655  11.902
17712W        W79133  11.835  43.941  12.384
17713W        W79134  37.082  34.989   2.388
17714W        W79135  23.533  43.010   1.925
17715W        W79136  20.183  36.941  13.397
17716W        W79137  24.551  39.873  11.017
17717W        W79138  40.378  12.619   2.349
17718W        W79139  38.420  36.552  12.087
17719W        W79140   8.205  41.309   0.927
17720W        W79141  42.935  12.767  12.508
17721W        W79142  30.560  29.509  14.402
17722W        W79143   1.407  14.781  13.342
17723W        W79144  14.618  27.589   4.674
17724W        W79145  20.098  44.766   0.303
17725W        W79146  13.647  15.117   4.824
17726W        W79147  25.604  31.634   4.615
17727W        W79148  10.771   3.813   4.742
17728W        W79149  42.805  22.527   5.280
17729W        W79150  15.303  22.615  14.766
17730W        W79151  21.090  21.640  14.826
17731W        W79152   2.954   7.704   2.262
17732W        W79153  36.997  11.170  13.508
17733W        W79154  12.201  20.544  14.908
17734W        W79155  44.907   5.231  11.862
17735W        W79156  32.481  13.726   2.339
17736W        W79157  41.414  38.353  11.027
17737W        W79158  13.727   3.236   4.267
17738W        W79159  36.451  14.240   2.322
17739W        W79160  44.932  29.988   1.705
17740W        W79161  32.044  18.182   0.745
17741W        W79162  43.395  26.075  11.956
17742W        W79163   7.380  38.422   1.720
17743W        W79164  31.970  26.553   3.258
17744W        W79165  18.282  23.092  10.409
17745W        W79166  28.080  25.996  13.520
17746W        W79167  31.108  14.713   2.825
17747W        W79168  11.162  21.727   4.206
17748W        W79169  32.022  19.266   3.215
17749W        W79170  34.000   4.858  10.491
17750W        W79171  23.600  30.015   2.840
17751W        W79172   3.263   7.835  14.855
17752W        W79173   1.309  18.111   4.140
17753W        W79174  11.351  39.038  11.926
17754W        W79175  25.536  13.294  11.863
17755W        W79176  26.563  41.982  12.026
17756W        W79177   0.375   3.813   2.380
17757W        W79178  17.696  30.415   1.235
17758W        W79179  10.730  20.089  10.994
17759W        W79180  41.992  33.445  10.068
17760W        W79181  44.835  38.883   0.954
17761W        W79182   7.235  43.360  13.862
17762W        W79183  11.184  14.155  13.014
17763W        W79184  43.865  14.233   0.938
17764W        W79185  21.582   3.843  11.574
17765W        W79186  27.040   4.907   4.184
17766W        W79187  16.739  39.332  11.008
17767W        W79188  15.743  40.500   1.871
17768W        W79189   9.211  26.162  13.833
17769W        W79190  43.371  12.679   3.167
17770W        W79191  20.754  18.203   1.792
17771W        W79192   9.341  12.336   1.804
17772W        W79193  35.905  39.815  10.544
17773W        W79194  43.918  15.273  13.916
17774W        W79195  40.862  36.889   0.894
17775W        W79196   3.371  32.463   1.787
17776W        W79197  26.590  22.083  11.035
17777W        W79198  17.718  20.144  11.873
17778W        W79199  13.111  38.049  12.979
17779W        W79200   8.372  42.495  11.923
17780W        W79201  32.137  43.311   3.825
17781W        W79202  32.448  38.552  13.371
17782W        W79203  20.057   4.221  13.042
17783W        W79204   7.734  12.653  14.377
17784W        W79205  29.424  33.045  14.283
17785W        W79206  41.877  14.100  11.496
17786W        W79207   6.208  36.368   3.381
17787W        W79208  18.175   1.932  13.372
17788W        W79209  21.742  10.197  13.960
17789W        W79210  36.960  16.781   0.735
17790W        W79211  19.263  26.602   3.159
17791W        W79212  39.054  17.775  11.108
17792W        W79213  10.377  43.284  11.987
17793W        W79214  43.436  13.716  12.458
17794W        W79215  29.012  42.425   2.338
17795W        W79216  10.171  29.510   4.253
17796W        W79217   0.460  26.465  10.472
17797W        W79218  41.519  20.571   0.294
17798W        W79219  17.715  34.047   3.356
17799W        W79220   4.753   8.837   5.172
17800W        W79221   9.376   3.408  11.054
17801W        W79222   9.395   7.684   2.353
17802W        W79223   5.302  28.612  14.297
17803W        W79224   2.843   1.798  12.961
17804W        W79225  28.460  28.559   4.622
17805W        W79226   3.893   3.720   3.234
17806W        W79227  22.041  44.498   2.389
17807W        W79228  17.589   6.854   2.691
17808W        W79229  41.792  18.769  12.552
17809W        W79230   5.347  30.074   3.768
17810W        W79231  18.086  23.641  14.791
17811W        W79232  36.435  25.217  14.284
17812W        W79233  12.640  42.320   3.202
17813W        W79234  22.084  19.735   4.272
17814W        W79235  28.997  38.541  11.387
17815W        W79236  23.653  26.141   3.171
17816W        W79237   9.240   6.677  11.388
17817W        W79238   3.921   3.848  13.958
17818W        W79239   3.373  41.974  11.074
17819W        W79240  31.087   8.895  14.908
17820W        W79241  40.412  12.203   3.797
17821W        W79242  22.194   3.280  10.045
17822W        W79243  17.138   0.252   2.888
17823W        W79244   2.383  33.915  13.886
17824W        W79245  21.719  22.178   3.164
17825W        W79246  44.949  26.582  12.044
17826W        W79247  32.985  32.521  14.762
17827W        W79248   2.880  31.484   2.860
17828W        W79249  43.508  22.164  10.467
17829W        W79250  35.397   4.360  10.559
17830W        W79251  29.531  35.080   2.287
17831W        W79252  36.005  33.896  10.616
17832W        W79253   2.855  24.633  11.548
17833W        W79254  22.625  15.270  10.005
17834W        W79255  21.724  40.850   2.685
17835W        W79256  43.858  24.123  10.452
17836W        W79257  21.238  11.330   1.268
17837W        W79258  13.718  20.167  13.827
17838W        W79259  30.465  11.167   1.771
17839W        W79260  18.642  30.501   3.861
17840W        W79261  44.859  40.926  14.313
17841W        W79262  24.161  41.872  12.350
17842W        W79263  27.964   2.321  13.310
17843W        W79264  20.716  12.697   4.650
17844W        W79265   1.461  35.458   9.459
17845W        W79266  35.006  29.548   3.671
17846W        W79267  37.336  44.839   0.747
17847W        W79268   7.782  20.533   4.801
17848W        W79269  42.921  37.044  14.377
17849W        W79270  40.429  41.809  11.403
17850W        W79271   5.335  24.532   2.190
17851W        W79272   7.891   2.835  13.929
17852W        W79273   1.915  40.919   2.294
17853W        W79274  26.020  17.152  11.871
17854W        W79275   8.765  30.605   1.933
17855W        W79276  27.641  19.577   4.252
17856W        W79277  34.568  26.156   3.369
17857W        W79278  39.905  28.024   0.890
17858W        W79279  25.704   9.820   3.262
17859W        W79280  36.980   1.739  11.404
17860W        W79281  22.228  25.022  14.424
17861W        W79282  38.024  13.641   1.776
17862W        W79283  10.267  19.779  14.984
17863W        W79284  37.982  36.504   0.411
17864W        W79285   5.295   1.377  14.464
17865W        W79286  27.651   4.921   4.116
17866W        W79287  42.431  12.146   4.766
17867W        W79288  12.222   8.770   0.389
17868W        W79289   0.348  37.069   4.816
17869W        W79290  18.704  20.168  13.935
17870W        W79291  32.119   6.890  13.418
17871W        W79292  26.555  24.138  11.013
17872W        W79293  21.625  19.120   2.689
17873W        W79294  17.118  38.933  11.918
17874W        W79295  38.360   8.691   5.320
17875W        W79296  18.076  41.890  11.900
17876W        W79297  16.761  41.935  11.439
17877W        W79298  18.189   8.679  12.557
17878W        W79299   1.814  23.603  13.922
17879W        W79300  36.048  32.054  11.900
17880W        W79301  13.264  43.817  10.889
17881W        W79302   9.323  37.452   2.780
17882W        W79303   4.762  13.660  13.908
17883W        W79304  40.806  28.529  14.354
17884W        W79305  10.676  18.656   3.688
17885W        W79306  27.644  11.772   2.836
17886W        W79307  22.020   8.855   1.350
17887W        W79308  40.328  31.483  12.556
17888W        W79309  41.444  24.981  12.576
17889W        W79310   7.376  17.626  14.469
17890W        W79311  42.903   3.819   3.219
17891W        W79312  14.204  44.348  11.042
17892W        W79313  25.649  39.507  14.296
17893W        W79314  40.815  22.651   0.404
17894W        W79315  14.793  17.740  13.467
17895W        W79316  30.063  35.071   0.846
17896W        W79317   5.212   8.687   1.298
17897W        W79318  23.231  39.001  13.399
17898W        W79319  16.258  34.116   4.231
17899W        W79320  10.293   1.817   9.931
17900W        W79321  11.679  25.110   0.901
17901W        W79322   4.708   3.790  13.997
17902W        W79323  21.024  25.171   0.447
17903W        W79324  19.281  22.651  11.438
17904W        W79325  16.756  10.724   1.797
17905W        W79326  25.212  20.131   4.721
17906W        W79327   2.961   7.379  14.979
17907W        W79328  40.946  12.715   1.399
17908W        W79329  24.536  11.257   3.750
17909W        W79330  38.904   1.762   2.237
17910W        W79331   5.339  41.353   3.322
17911W        W79332  39.891  42.848   0.459
17912W        W79333   6.915  18.769  12.002
17913W        W79334   4.419  24.222   3.361
17914W        W79335  15.708  23.989   0.355
17915W        W79336  23.638  33.416   2.862
17916W        W79337  29.956  19.094   0.442
17917W        W79338  29.472   8.736   3.322
17918W        W79339   2.428  42.293  13.022
17919W        W79340  35.404  17.760  12.078
17920W        W79341  39.016  39.343  11.006
17921W        W79342   3.262  22.705  11.537
17922W        W79343  26.489  35.361   1.289
17923W        W79344  28.465   6.306  14.358
17924W        W79345  13.820  30.486  11.869
17925W        W79346  13.671   1.940   1.740
17926W        W79347  34.462  14.094   0.947
17927W        W79348  24.165   0.384  13.383
17928W        W79349  23.538   2.304   0.940
17929W        W79350  27.498  25.036   0.757
17930W        W79351  30.989  13.334   2.382
17931W        W79352  28.080  13.736   4.250
17932W        W79353  31.532   4.321   2.192
17933W        W79354   8.321  30.466   0.279
17934W        W79355   8.894  42.782  13.345
17935W        W79356  19.651  14.281  12.347
17936W        W79357  12.352  22.224   3.749
17937W        W79358  16.577  37.879   1.285
17938W        W79359  44.275  37.463  13.927
17939W        W79360  35.893  43.495   1.216
17940W        W79361  12.820  19.252  13.943
17941W        W79362  10.281  26.953   4.205
17942W        W79363  16.594  21.710  14.982
17943W        W79364  40.994   8.788  14.968
17944W        W79365  13.728  28.468  12.390
17945W        W79366   9.159  44.263   1.782
17946W        W79367   0.362  21.171   0.261
17947W        W79368  36.520   4.825   3.864
17948W        W79369  22.139   4.344   9.669
17949W        W79370  20.217  17.163   1.923
17950W        W79371  15.139  16.164  11.938
17951W        W79372  30.469  22.518  11.030
17952W        W79373  23.214  38.353   4.631
17953W        W79374  26.036  26.128   1.724
17954W        W79375   5.864   4.850  14.501
17955W        W79376  37.840   9.743  11.111
17956W        W79377   2.755  12.174   3.249
17957W        W79378  35.365  31.051  12.032
17958W        W79379  10.795  33.606   0.800
17959W        W79380  40.809  43.876  11.494
17960W        W79381  30.154   5.793   0.371
17961W        W79382  16.793  22.700   0.805
17962W        W79383  38.071   2.805  14.026
17963W        W79384  26.047  29.484   4.752
17964W        W79385   3.389  34.534  13.452
17965W        W79386   4.789  22.251   2.369
17966W        W79387  22.680   1.896  11.599
17967W        W79388  22.682  39.938   2.332
17968W        W79389  37.880  17.115   4.712
17969W        W79390   5.422  28.645   1.421
17970W        W79391  36.378  19.734  11.037
17971W        W79392  14.247  13.301  13.925
17972W        W79393  20.730  19.696   4.835
17973W        W79394   4.771   2.864  13.350
17974W        W79395   0.983  38.935  12.485
17975W        W79396   9.854  33.052  14.823
17976W        W79397  13.604  34.946   2.266
17977W        W79398  35.906   2.423   0.867
17978W        W79399  11.274  34.031  10.526
17979W        W79400  22.588  27.501  10.624
17980W        W79401  23.694  36.498  13.517
17981W        W79402  37.902  28.099   0.249
17982W        W79403  14.662  35.945   5.271
17983W        W79404  22.506   0.842   0.396
17984W        W79405  28.023  18.185   0.438
17985W        W79406  23.569  34.380   3.159
17986W        W79407  33.474  32.054   3.196
17987W        W79408  43.271  34.942   3.221
17988W        W79409  34.470  18.202   0.345
17989W        W79410  42.524  36.586   1.325
17990W        W79411  21.710  33.520  14.977
17991W        W79412   0.931  21.177   3.698
17992W        W79413  34.879  39.325  14.287
17993W        W79414  24.589  10.796   4.341
17994W        W79415   3.235  25.504   1.432
17995W        W79416  16.760   1.969   2.811
17996W        W79417  11.212  32.484   3.819
17997W        W79418  14.590   5.797  11.483
17998W        W79419  32.037  36.398  12.459
17999W        W79420  24.189   2.804   1.383
18000W        W79421  21.028   5.775   3.150
18001W        W79422  12.675  40.534   3.731
18002W        W79423  21.256   7.677   0.376
18003W        W79424   8.353  25.974  12.419
18004W        W79425  21.635  29.482   1.411
18005W        W79426  32.579  27.020   1.227
18006W        W79427  23.712   6.282   3.205
18007W        W79428  25.608   6.697   9.534
18008W        W79429   4.388  29.988  10.922
18009W        W79430   3.775  24.506  14.931
18010W        W79431  15.240  18.577   2.301
18011W        W79432  43.884  29.045  10.520
18012W        W79433  26.026   1.284   1.874
18013W        W79434   5.434  33.992  12.989
18014W        W79435  25.480  26.074   1.366
18015W        W79436   5.288  28.571   4.208
18016W        W79437  44.010   7.836  11.077
18017W        W79438  19.126   1.895  11.016
18018W        W79439  19.263  37.360  13.410
18019W        W79440  17.285  19.155  10.603
18020W        W79441  20.253  17.637   0.781
18021W        W79442  38.820   8.163  10.466
18022W        W79443  29.088   7.304   1.755
18023W        W79444  13.733  44.823  10.897
18024W        W79445  31.092   8.225  10.627
18025W        W79446  27.995  29.035   4.818
18026W        W79447  25.593  31.524  14.414
18027W        W79448   8.692  36.470  12.988
18028W        W79449  39.559  19.684   3.673
18029W        W79450   9.271  38.944   0.258
18030W        W79451  29.539  33.932  11.123
18031W        W79452   3.714   0.865   2.293
18032W        W79453   0.441  16.154   1.924
18033W        W79454  31.475  30.485  13.872
18034W        W79455  10.741  35.877  11.553
18035W        W79456  28.595   6.237   0.886
18036W        W79457  25.217  27.065   0.373
18037W        W79458  41.493  43.426  10.629
18038W        W79459  42.793   6.796   1.804
18039W        W79460  35.084  26.153  10.404
18040W        W79461  42.941  23.618   0.938
18041W        W79462  21.519   1.374   4.218
18042W        W79463  39.824  18.058   4.311
18043W        W79464  22.733  21.165   5.299
18044W        W79465  34.098  16.631   2.404
18045W        W79466  10.839  16.631  14.419
18046W        W79467  38.957  25.042   2.344
18047W        W79468  22.652   3.771  14.355
18048W        W79469  12.301  28.528  12.918
18049W        W79470  12.149  26.972  10.897
18050W        W79471   9.219  35.081   2.804
18051W        W79472  10.258  27.516  10.561
18052W        W79473  12.212  28.440   0.246
18053W        W79474  28.543  38.925  10.034
18054W        W79475   8.327  35.535  10.488
18055W        W79476  18.107  33.409   1.921
18056W        W79477  29.427  33.386  11.038
18057W        W79478  38.499  19.071  11.536
18058W        W79479  14.664  38.909  12.482
18059W        W79480  24.520   8.809  14.393
18060W        W79481  29.985  42.793   2.713
18061W        W79482   7.802   8.838  13.459
18062W        W79483  28.474  42.948   0.791
18063W        W79484  20.101  15.678  11.488
18064W        W79485  31.434  25.203  10.474
18065W        W79486  32.514  20.666  14.912
18066W        W79487  12.784  38.923   0.882
18067W        W79488  10.667  35.546   0.775
18068W        W79489  22.101  38.834  14.966
18069W        W79490  40.367  43.368   4.318
18070W        W79491   2.790   5.927   4.737
18071W        W79492   9.774   6.846  13.467
18072W        W79493  15.684  38.052  12.085
18073W        W79494  14.295   7.415  13.385
18074W        W79495  30.425  21.617   4.707
18075W        W79496   0.795   8.697   1.868
18076W        W79497  43.311  33.450   1.351
18077W        W79498  28.663  41.446  11.924
18078W        W79499  37.866   5.272   0.800
18079W        W79500  26.156  16.155   4.225
18080W        W79501  42.937   4.731  13.391
18081W        W79502   8.395  41.947   4.189
18082W        W79503  23.520  40.519   3.175
18083W        W79504   9.243  20.060  13.914
18084W        W79505  16.277  28.091  10.507
18085W        W79506   8.387  23.033   0.348
18086W        W79507  16.236  33.548   0.396
18087W        W79508  10.186  21.179   2.747
18088W        W79509  20.692  40.856  11.419
18089W        W79510  26.066  35.024  10.922
18090W        W79511   5.358  12.660  14.965
18091W        W79512  42.957  11.138  12.965
18092W        W79513   2.418  30.504  13.956
18093W        W79514  16.712  27.481  10.538
18094W        W79515  23.099  20.214  14.961
18095W        W79516  32.427  21.143  13.877
18096W        W79517   6.918   3.383  11.969
18097W        W79518   6.739  12.152  14.834
18098W        W79519  37.360  41.354   2.758
18099W        W79520  11.333  25.077   4.154
18100W        W79521  12.683   3.363  14.471
18101W        W79522  29.525  29.516  14.431
18102W        W79523  18.762  37.337   1.780
18103W        W79524  18.691   0.806  10.582
18104W        W79525   2.452  27.569   3.664
18105W        W79526  11.737  29.668   4.144
18106W        W79527  11.624   1.920   3.702
18107W        W79528   2.732  17.291  14.032
18108W        W79529  40.042  29.938   2.278
18109W        W79530  28.511   2.277  13.316
18110W        W79531   2.281  19.569  10.610
18111W        W79532  22.519  11.248   0.798
18112W        W79533  12.750  21.203  11.948
18113W        W79534  37.439   9.862   1.279
18114W        W79535  11.217  11.129  10.597
18115W        W79536  32.559  18.603   9.967
18116W        W79537  21.618  10.155   4.812
18117W        W79538  31.411  40.999   2.309
18118W        W79539   8.675  15.737  12.879
18119W        W79540   8.287  11.751   4.129
18120W        W79541  38.031  23.531   1.387
18121W        W79542  15.113  10.151   1.433
18122W        W79543  14.212   6.220   3.828
18123W        W79544  41.789  39.007   2.281
18124W        W79545  17.300   7.378  13.334
18125W        W79546  16.075  44.274   2.715
18126W        W79547  41.409  35.466   1.777
18127W        W79548  20.534  34.036   0.800
18128W        W79549  20.641  34.372   4.715
18129W        W79550  35.051  30.555   3.630
18130W        W79551  15.600  42.905   1.899
18131W        W79552  25.498  14.604  12.574
18132W        W79553  29.429   7.405   2.817
18133W        W79554  10.271   3.395   2.783
18134W        W79555  23.105  44.860  12.001
18135W        W79556   3.222  29.098  13.062
18136W        W79557  16.084  44.006   0.835
18137W        W79558  24.178  20.562  11.495
18138W        W79559  13.306  21.527   2.208
18139W        W79560  43.775  14.107   2.299
18140W        W79561  30.632   2.771  12.014
18141W        W79562  26.005  27.050   3.293
18142W        W79563  19.717  35.369   1.725
18143W        W79564  11.200   7.408  12.358
18144W        W79565  34.892   7.408  10.448
18145W        W79566   5.316  17.721  11.392
18146W        W79567  26.458  42.809  13.004
18147W        W79568  17.291  19.231   0.431
18148W        W79569   3.739  24.209   9.531
18149W        W79570  18.249  29.076   0.898
18150W        W79571  26.180  27.521  10.613
18151W        W79572  10.846  31.062   4.252
18152W        W79573  16.287  25.071   0.892
18153W        W79574  29.463  14.140   9.977
18154W        W79575  32.598  27.960   0.410
18155W        W79576  14.331  13.805   0.762
18156W        W79577   1.391  18.710   1.423
18157W        W79578   4.934  18.056   4.318
18158W        W79579  15.191   8.235   0.321
18159W        W79580  38.852   2.255   3.869
18160W        W79581   1.474  44.914   4.778
18161W        W79582   5.265  13.149  10.567
18162W        W79583  36.902  39.514   4.684
18163W        W79584  28.976   8.251  11.111
18164W        W79585   2.947  15.174   0.340
18165W        W79586  39.913  37.862   0.789
18166W        W79587  41.829  30.162  10.540
18167W        W79588   8.212   7.374   1.769
18168W        W79589  14.618   3.333  12.373
18169W        W79590  27.548   6.903   1.808
18170W        W79591  35.460  11.359   0.906
18171W        W79592   1.421  17.753   3.344
18172W        W79593  20.548  40.381  14.773
18173W        W79594   2.421   2.731   3.340
18174W        W79595  20.126  39.933   4.801
18175W        W79596  36.449   6.891  13.868
18176W        W79597  12.250  37.407   4.328
18177W        W79598   6.686  40.499   1.230
18178W        W79599   9.846  19.618   3.160
18179W        W79600   0.788  43.834  11.391
18180W        W79601   4.867  26.466  12.453
18181W        W79602  16.648   4.783  14.342
18182W        W79603   3.950  18.221   3.208
18183W        W79604  28.474  17.239  13.853
18184W        W79605  44.836   6.693   0.955
18185W        W79606  41.948  39.065  10.426
18186W        W79607  10.835  17.714  10.902
18187W        W79608   8.162  18.546   4.814
18188W        W79609  21.193   0.831  14.989
18189W        W79610   0.895  17.721   2.188
18190W        W79611  18.761  32.010   0.814
18191W        W79612  19.718   0.755   0.757
18192W        W79613  17.248  15.128   3.670
18193W        W79614  30.418  44.970  10.488
18194W        W79615  26.049  35.101   0.260
18195W        W79616  17.586   8.821  12.994
18196W        W79617  30.502  29.065  12.482
18197W        W79618   3.338   2.238  11.523
18198W        W79619   3.827  41.872  14.286
18199W        W79620  15.756  24.625   0.775
18200W        W79621  33.394   5.417   0.455
18201W        W79622   7.685  10.262  10.105
18202W        W79623  24.029  40.865   2.697
18203W        W79624  12.820  19.131  13.309
18204W        W79625  40.311  23.012   3.333
18205W        W79626  21.565  12.627   0.385
18206W        W79627   5.367   2.801  14.365
18207W        W79628   6.189  44.436  13.947
18208W        W79629  23.732  37.940   4.711
18209W        W79630   3.890   1.396  13.014
18210W        W79631  44.875  12.682   4.298
18211W        W79632  28.508  24.514  12.469
18212W        W79633  26.560  10.303   4.184
18213W        W79634  15.217  25.082  12.994
18214W        W79635  15.771  27.054   3.262
18215W        W79636  21.188  38.983  14.823
18216W        W79637   1.479  12.267   3.639
18217W        W79638  38.513  20.564   4.714
18218W        W79639  40.335   1.930  10.954
18219W        W79640   1.341  35.096   1.268
18220W        W79641  25.201  39.023   3.660
18221W        W79642  21.546   2.225   0.377
18222W        W79643  32.046  31.468   4.224
18223W        W79644  26.603  32.418   3.761
18224W        W79645   2.834   1.358   1.451
18225W        W79646  41.795  32.473  12.414
18226W        W79647  40.541  36.972  10.908
18227W        W79648  35.986  22.682  11.888
18228W        W79649  40.890  33.950   2.253
18229W        W79650  41.322   5.744  10.921
18230W        W79651   4.730  41.835   0.393
18231W        W79652   5.710  35.058   3.831
18232W        W79653   7.233   9.699  13.512
18233W        W79654  11.857  17.749  11.910
18234W        W79655  26.627   8.799  11.054
18235W        W79656  20.557  28.187  12.888
18236W        W79657  16.809  35.365   4.622
18237W        W79658   6.813  13.303  11.605
18238W        W79659  26.091  32.123  11.128
18239W        W79660  37.025  40.987  11.944
18240W        W79661   5.256  35.498  13.484
18241W        W79662   8.390  32.470   2.810
18242W        W79663  25.177  13.346  10.444
18243W        W79664  21.720  30.155   3.241
18244W        W79665  36.459  43.373   2.761
18245W        W79666   7.361  33.573   3.244
18246W        W79667  38.562  16.642   3.703
18247W        W79668  24.626  16.274   3.266
18248W        W79669  14.242  36.986  14.804
18249W        W79670  27.130  15.681  12.540
18250W        W79671  24.609   6.714  10.408
18251W        W79672  34.094  40.517  11.422
18252W        W79673  38.403   6.389   2.669
18253W        W79674  24.091  36.474   0.321
18254W        W79675  36.994   7.713  14.458
18255W        W79676  16.694  40.417  10.508
18256W        W79677  39.410  15.608   1.217
18257W        W79678   8.252  13.799   1.896
18258W        W79679   7.812  13.790  12.353
18259W        W79680   0.754  24.191   3.838
18260W        W79681  22.118  16.792   1.281
18261W        W79682  30.443  12.836   3.315
18262W        W79683  20.658  13.305  13.955
18263W        W79684  26.134  25.519  11.101
18264W        W79685  41.887  23.687   1.774
18265W        W79686   0.306   6.290  13.508
18266W        W79687   7.725  42.436  14.505
18267W        W79688  32.515  28.068  14.771
18268W        W79689  13.739  25.538   2.719
18269W        W79690  31.447  26.586   2.690
18270W        W79691  31.038  18.058   4.190
18271W        W79692  12.719   0.764  10.435
18272W        W79693  24.186  22.117  13.420
18273W        W79694   7.281   0.940  13.044
18274W        W79695   0.484  31.572   1.705
18275W        W79696  29.034  15.220  13.503
18276W        W79697  44.861  20.558   2.262
18277W        W79698  16.130  44.771  12.849
18278W        W79699  36.038   8.716   1.925
18279W        W79700  27.474   5.817   3.782
18280W        W79701  17.641  33.604  12.464
18281W        W79702  28.157  21.571  12.497
18282W        W79703   9.359  25.167   1.896
18283W        W79704  27.045   3.455   2.878
18284W        W79705  39.825  15.190   0.447
18285W        W79706  40.951   9.374  12.446
18286W        W79707  34.016  39.945   1.433
18287W        W79708   8.188   8.843  14.421
18288W        W79709  28.587   6.746  14.349
18289W        W79710  29.570  41.397   4.238
18290W        W79711  23.999  40.451  11.539
18291W        W79712  35.109   3.733  13.828
18292W        W79713  31.027   0.285  11.497
18293W        W79714  35.022  36.937  11.939
18294W        W79715   1.884  26.033  14.295
18295W        W79716   6.733  14.127   0.329
18296W        W79717   2.816  40.465   0.476
18297W        W79718  17.108  13.235  10.989
18298W        W79719   4.327  43.941  11.564
18299W        W79720  15.286   8.768   3.866
18300W        W79721   0.307  24.075  12.425
18301W        W79722  39.367   1.352   4.684
18302W        W79723  38.999   8.805  13.521
18303W        W79724  17.158  21.676   2.864
18304W        W79725  17.781  13.125   3.682
18305W        W79726  30.534  39.935   2.247
18306W        W79727  34.409  25.003   4.646
18307W        W79728   0.881  41.442   5.090
18308W        W79729   5.236  23.993   1.389
18309W        W79730  14.634  27.627  11.375
18310W        W79731  43.426  32.097  14.426
18311W        W79732  23.206  29.920   4.624
18312W        W79733  21.552   5.384   1.257
18313W        W79734  22.531  36.061   2.785
18314W        W79735  30.595  33.034   0.865
18315W        W79736  18.711  29.172  10.134
18316W        W79737  33.108  30.635  13.995
18317W        W79738  19.612   9.151  13.050
18318W        W79739  14.259   9.164   1.327
18319W        W79740  26.079   6.808   3.209
18320W        W79741  10.185  42.862   4.194
18321W        W79742  22.250  10.170   1.294
18322W        W79743  19.772  36.076  13.319
18323W        W79744  11.188  17.718  10.471
18324W        W79745  32.014   8.796   2.734
18325W        W79746   2.829  10.797  13.808
18326W        W79747  44.863   7.831   2.683
18327W        W79748  14.204  37.554  14.461
18328W        W79749   4.809  40.546   1.379
18329W        W79750   0.466  26.018   1.868
18330W        W79751   8.241  16.664  13.831
18331W        W79752  12.749  31.140   5.791
18332W        W79753  20.046  29.056   3.153
18333W        W79754  18.730  39.908  12.391
18334W        W79755  41.495  11.854   0.368
18335W        W79756  36.537   9.684  14.783
18336W        W79757  34.004  35.992  10.910
18337W        W79758  15.728   1.284   0.873
18338W        W79759   8.282  33.625   1.435
18339W        W79760  24.713  31.020   4.801
18340W        W79761  37.538  22.543  14.402
18341W        W79762  19.757  26.681   3.714
18342W        W79763  25.706  44.994   1.901
18343W        W79764  40.895  14.804  12.467
18344W        W79765  40.835  17.706   4.184
18345W        W79766  20.687  31.932  13.845
18346W        W79767  32.060  28.150  13.993
18347W        W79768  24.052   7.780  13.489
18348W        W79769  20.117  20.202  14.936
18349W        W79770  10.725  34.012  13.342
18350W        W79771  25.629  13.219   3.146
18351W        W79772  37.863   5.884   0.379
18352W        W79773  28.132  31.091   2.403
18353W        W79774  12.173   6.690   0.290
18354W        W79775  44.818  15.654   3.685
18355W        W79776  35.547  24.581   0.378
18356W        W79777  22.548  41.489   2.879
18357W        W79778   2.469  12.182  14.958
18358W        W79779  29.539  14.593  10.955
18359W        W79780  21.538  39.515   4.190
18360W        W79781  30.620   3.402  12.936
18361W        W79782  15.680  11.622   2.327
18362W        W79783  39.815  11.710  12.849
18363W        W79784   6.315  44.471  13.060
18364W        W79785   8.191  23.137  12.968
18365W        W79786   3.363  38.928   3.660
18366W        W79787  36.396  27.982   0.923
18367W        W79788  39.455  39.025   3.773
18368W        W79789  22.635  23.219  11.447
18369W        W79790  36.396  30.589   2.816
18370W        W79791  13.213  40.901   2.261
18371W        W79792  13.201  44.386  14.824
18372W        W79793  24.990  23.199  13.994
18373W        W79794  18.179  39.868   0.468
18374W        W79795  39.855  20.193   4.697
18375W        W79796   7.873  28.035  12.855
18376W        W79797  12.811  32.482   1.211
18377W        W79798  22.237  22.124   0.448
18378W        W79799   3.838  39.869   4.652
18379W        W79800   1.973  11.141   4.262
18380W        W79801  36.027  39.928  13.867
18381W        W79802  18.548   9.699  12.870
18382W        W79803  10.761  40.347  12.037
18383W        W79804  25.664  15.701   2.244
18384W        W79805  25.104  29.135   1.844
18385W        W79806  32.405  28.504   4.815
18386W        W79807  25.971  17.151   1.760
18387W        W79808  26.554   9.223   3.796
18388W        W79809  43.823  37.833  14.925
18389W        W79810   5.254  24.692  11.887
18390W        W79811  43.009  13.307  10.528
18391W        W79812  36.951  32.998   2.259
18392W        W79813  29.436  30.598  12.016
18393W        W79814   6.398  32.992   4.177
18394W        W79815  44.340  26.072   2.676
18395W        W79816  15.725   8.193  14.982
18396W        W79817  34.508  10.865   3.711
18397W        W79818  39.880  12.141   2.732
18398W        W79819  22.535  21.602  13.911
18399W        W79820  33.010  17.677  14.892
18400W        W79821  35.895  32.524   2.709
18401W        W79822  11.690  31.096  10.913
18402W        W79823   1.258  42.281   4.250
18403W        W79824   5.917  17.684  12.458
18404W        W79825  18.752  17.648  14.441
18405W        W79826  41.931  41.939   3.787
18406W        W79827   6.410  34.388  10.620
18407W        W79828  31.016  13.298   5.254
18408W        W79829  38.011   2.331   2.825
18409W        W79830  21.109   6.336  11.061
18410W        W79831  10.832  10.182  11.575
18411W        W79832  23.578  17.736   0.795
18412W        W79833   2.445  22.572   1.823
18413W        W79834  10.315   2.728   2.356
18414W        W79835   7.730   5.362   3.323
18415W        W79836  14.689  14.789  13.488
18416W        W79837  25.100  43.339   4.312
18417W        W79838  37.350  22.112   3.684
18418W        W79839  38.378  21.119   0.294
18419W        W79840  42.398  33.945   2.824
18420W        W79841  30.641  34.006   3.742
18421W        W79842  35.921  26.658   2.802
18422W        W79843  19.182  28.625  14.416
18423W        W79844  13.794  27.082   2.287
18424W        W79845  25.599  40.006   4.287
18425W        W79846  10.236  29.066   2.322
18426W        W79847  42.380  11.244  10.555
18427W        W79848   5.775  22.608   2.247
18428W        W79849  21.733   2.749  10.421
18429W        W79850   3.925  22.176  14.379
18430W        W79851  24.669  10.247   2.222
18431W        W79852   9.880   0.449  12.568
18432W        W79853  40.376   8.821  12.401
18433W        W79854  31.050  15.767  11.431
18434W        W79855  14.684  44.492   1.256
18435W        W79856   3.897   9.662  13.534
18436W        W79857  31.103  32.963  14.394
18437W        W79858  34.880  38.560   2.393
18438W        W79859  11.805  16.726  10.972
18439W        W79860  30.525  32.895   1.404
18440W        W79861  43.274  36.461  11.069
18441W        W79862  31.990  22.192   0.852
18442W        W79863  14.310  36.486   1.708
18443W        W79864  42.321  40.934   3.783
18444W        W79865  28.604  16.726  12.544
18445W        W79866  24.605  11.868  11.125
18446W        W79867  34.394  17.190  13.384
18447W        W79868  21.691  38.424  13.529
18448W        W79869  27.991   2.286   4.154
18449W        W79870   7.827  39.966  13.878
18450W        W79871   1.816  36.009  13.937
18451W        W79872  25.111  41.473   2.239
18452W        W79873  27.949  35.043   1.435
18453W        W79874  14.703  14.766   2.286
18454W        W79875  35.592  19.656   2.886
18455W        W79876  37.526   7.686  11.390
18456W        W79877  13.706   3.436  11.506
18457W        W79878  39.062  25.105  10.610
18458W        W79879  13.806  17.722   4.634
18459W        W79880  34.593   1.459   2.193
18460W        W79881  30.516  33.548  10.894
18461W        W79882   7.251   0.856  13.355
18462W        W79883  43.834  41.032   4.332
18463W        W79884  26.085  30.122   2.713
18464W        W79885  29.629  11.739  12.960
18465W        W79886   2.326  41.802  12.826
18466W        W79887   7.225  34.976   4.672
18467W        W79888  32.020  29.521   4.605
18468W        W79889   0.397  25.052   0.364
18469W        W79890   9.793  14.199  12.061
18470W        W79891  36.431   9.778   2.829
18471W        W79892  38.824  29.665  13.008
18472W        W79893  11.304  41.309  13.414
18473W        W79894   4.369  26.605  10.607
18474W        W79895  12.675  28.131   3.323
18475W        W79896   9.195  21.112   1.853
18476W        W79897  38.874  25.524  13.853
18477W        W79898  15.646  35.524  14.995
18478W        W79899  16.241  28.516   3.727
18479W        W79900  17.757  27.001   1.389
18480W        W79901  44.420  16.617  14.344
18481W        W79902  21.215  32.395  13.862
18482W        W79903   2.839  36.019   3.677
18483W        W79904  36.855  40.310  13.955
18484W        W79905  34.518  18.764  10.592
18485W        W79906   8.807  12.753  14.349
18486W        W79907  43.387  39.483  13.032
18487W        W79908  26.021  37.065  13.903
18488W        W79909  38.339  20.528  11.916
18489W        W79910  19.598   5.706  13.874
18490W        W79911  40.961  39.909  12.881
18491W        W79912   0.390  32.500  14.775
18492W        W79913   9.755  13.208   3.862
18493W        W79914  26.639  18.238  14.921
18494W        W79915  22.583  31.905  13.996
18495W        W79916   7.397  41.020  11.979
18496W        W79917  35.083  22.146  12.831
18497W        W79918  42.520  31.498   1.910
18498W        W79919  34.115   3.864   4.609
18499W        W79920  43.459  14.222  14.852
18500W        W79921  35.417   0.281   2.863
18501W        W79922  13.774  26.984   1.400
18502W        W79923   2.359  14.136   3.316
18503W        W79924   0.803  12.671   4.283
18504W        W79925  22.025  14.606   4.690
18505W        W79926   6.750  35.044   2.751
18506W        W79927  34.906  34.901  14.949
18507W        W79928  35.993  26.489   1.793
18508W        W79929  38.450   4.860  13.823
18509W        W79930  13.608  33.391   3.667
18510W        W79931   9.702  44.869  13.486
18511W        W79932   5.822  42.451   0.396
18512W        W79933   8.376  35.875  11.069
18513W        W79934  27.091  30.548   1.291
18514W        W79935  13.846  31.110  14.288
18515W        W79936   2.741  34.429  13.467
18516W        W79937  30.540  24.125  11.395
18517W        W79938  16.613   1.405   2.208
18518W        W79939   4.361  40.532  12.853
18519W        W79940  14.251  26.622   2.284
18520W        W79941   8.677  32.447   1.729
18521W        W79942  30.527   5.317  11.997
18522W        W79943  12.235  14.769  11.524
18523W        W79944  21.200  12.295  10.105
18524W        W79945  20.748   7.845   2.869
18525W        W79946  38.075  21.575   4.308
18526W        W79947  18.195   8.698   4.652
18527W        W79948  20.672  33.879  10.433
18528W        W79949  42.399   3.424  12.019
18529W        W79950   4.929  33.082  10.547
18530W        W79951  20.609   8.770   1.307
18531W        W79952   7.878  13.347  10.969
18532W        W79953   2.297  18.177  10.483
18533W        W79954  30.054  33.094   1.377
18534W        W79955  16.112  39.847   1.785
18535W        W79956  40.302   4.407   3.324
18536W        W79957   7.892   2.226   4.269
18537W        W79958  37.422  34.937   3.264
18538W        W79959  36.431  18.776   4.309
18539W        W79960  22.080  34.505  14.500
18540W        W79961  37.503  42.943   2.861
18541W        W79962  39.403  32.620  11.087
18542W        W79963   9.356   9.824   4.722
18543W        W79964   2.822  15.088   1.806
18544W        W79965  40.475  36.861   4.317
18545W        W79966  21.018  42.418  11.599
18546W        W79967   5.283  34.494  13.040
18547W        W79968  27.594  30.637  12.850
18548W        W79969  24.631  21.084   0.778
18549W        W79970  13.666  39.963   0.839
18550W        W79971  42.305  22.677  10.461
18551W        W79972  35.498  42.437  13.952
18552W        W79973   2.727  12.263  13.012
18553W        W79974  15.635  32.498   4.658
18554W        W79975  20.191  36.886   0.847
18555W        W79976  17.297  29.135  12.573
18556W        W79977  25.691  21.233   1.767
18557W        W79978   3.866  24.674  13.825
18558W        W79979  24.714  30.909   1.889
18559W        W79980  39.524  36.881   2.265
18560W        W79981  19.110   9.216   4.796
18561W        W79982  12.692  35.952  14.486
18562W        W79983  39.384   0.861  10.905
18563W        W79984  25.054  28.541  14.886
18564W        W79985  34.541  33.017   0.398
18565W        W79986  33.971  10.257  12.503
18566W        W79987  33.007  36.576   4.696
18567W        W79988  28.505   6.392   4.700
18568W        W79989  12.116  22.148   4.325
18569W        W79990  17.615  43.508   3.793
18570W        W79991  30.004  31.613   1.335
18571W        W79992  39.940  15.201   3.866
18572W        W79993   4.316  31.140  10.424
18573W        W79994   6.759  22.191   0.930
18574W        W79995  35.050  24.593  14.889
18575W        W79996  33.076  11.756   3.816
18576W        W79997  26.603  20.568  13.518
18577W        W79998   4.838  28.531  13.941
18578W        W79999   3.270  15.091   2.888
18579W        W80000  19.222  19.061  12.341
18580W        W80001  29.657  21.565   3.852
18581W        W80002  39.315   8.828   1.783
18582W        W80003  13.675  28.607   4.169
18583W        W80004  12.641  20.717   1.902
18584W        W80005   0.296   5.203   0.784
18585W        W80006  34.087  34.433   1.766
18586W        W80007   5.921  27.969  14.344
18587W        W80008  29.658  26.588   3.368
18588W        W80009   3.928  14.727   1.376
18589W        W80010  34.495  17.713   0.283
18590W        W80011  25.627  31.046   3.323
18591W        W80012  43.974  37.860  13.531
18592W        W80013   9.882  35.059  11.035
18593W        W80014  30.005   5.699   2.268
18594W        W80015  44.776  38.552  13.385
18595W        W80016  40.855   0.748   0.853
18596W        W80017  14.175  34.611  11.887
18597W        W80018  19.189  17.565  10.426
18598W        W80019  12.174  38.365   3.712
18599W        W80020  20.221   4.297   1.712
18600W        W80021  21.198  12.840   3.647
18601W        W80022  32.553  20.634   2.222
18602W        W80023  38.565  20.087   4.248
18603W        W80024  14.172  43.489  11.977
18604W        W80025  38.993  34.112   0.367
18605W        W80026   4.428  14.245   2.759
18606W        W80027  17.117  25.091  12.018
18607W        W80028  31.552  25.627  13.000
18608W        W80029  10.822  30.979   3.171
18609W        W80030  12.780   9.644  14.858
18610W        W80031  26.982  14.273   2.708
18611W        W80032  18.552  36.544   3.636
18612W        W80033  24.217  25.578  13.495
18613W        W80034  16.592  21.733   0.436
18614W        W80035  14.214   4.944  14.844
18615W        W80036   0.830  17.228  13.006
18616W        W80037  12.632  33.537  12.020
18617W        W80038  34.533   1.926  11.986
18618W        W80039   3.844   6.716  11.523
18619W        W80040  41.949  20.739  10.970
18620W        W80041  15.579  37.847  12.872
18621W        W80042  12.772  28.931   1.703
18622W        W80043   9.819  32.935   1.239
18623W        W80044   0.886  42.522  10.890
18624W        W80045  44.801  11.181  14.459
18625W        W80046  16.168  13.107   1.418
18626W        W80047  13.176  24.537  14.490
18627W        W80048  12.344  25.138   3.357
18628W        W80049  41.804   3.424  11.414
18629W        W80050  10.856  11.229  10.943
18630W        W80051  34.063  36.981  12.010
18631W        W80052  32.568   1.848   9.559
18632W        W80053  33.480  22.091  13.435
18633W        W80054  25.976  27.085   2.298
18634W        W80055  15.325  14.810   1.269
18635W        W80056   0.371  21.092   1.699
18636W        W80057  40.817   6.914   2.743
18637W        W80058  28.466  34.904   2.731
18638W        W80059  19.155  27.529  12.889
18639W        W80060  14.195  12.172   0.304
18640W        W80061   7.678   8.896  13.802
18641W        W80062   1.790  41.328   4.291
18642W        W80063  24.118  26.694   0.431
18643W        W80064  12.773   6.277   4.177
18644W        W80065  30.043   1.836   4.627
18645W        W80066  31.546  38.970   4.204
18646W        W80067  38.908  35.516  12.473
18647W        W80068  27.113  27.480   0.786
18648W        W80069  36.508  16.753   0.264
18649W        W80070  12.661  44.328  13.960
18650W        W80071  22.526  44.469  11.881
18651W        W80072  28.947  40.447   4.740
18652W        W80073   7.282  28.028  14.860
18653W        W80074  43.431  35.882   2.781
18654W        W80075  24.992   5.924  10.048
18655W        W80076  15.141  38.421   0.372
18656W        W80077  40.411   3.337  11.890
18657W        W80078   6.381  40.385  13.050
18658W        W80079  15.683  13.338   2.378
18659W        W80080  16.721   8.327   3.847
18660W        W80081  38.919  30.431   2.771
18661W        W80082  27.192   8.848   4.649
18662W        W80083  23.201  16.776   1.881
18663W        W80084  29.599   1.458   4.192
18664W        W80085  38.526  30.063  11.040
18665W        W80086  19.235  24.592   2.828
18666W        W80087  41.464   9.243   3.796
18667W        W80088   8.807   7.786  14.879
18668W        W80089  28.033  15.786  11.467
18669W        W80090  43.415  39.398   4.161
18670W        W80091  39.058  35.862  10.888
18671W        W80092  17.089  31.642  13.365
18672W        W80093  25.634   4.242  10.645
18673W        W80094   2.253   4.261   3.238
18674W        W80095   8.263  29.038   3.247
18675W        W80096   9.230  33.538  14.981
18676W        W80097  34.468  35.418   0.395
18677W        W80098  38.997  29.489   3.239
18678W        W80099  35.381  25.495  11.438
18679W        W80100  41.448  29.137   3.642
18680W        W80101  36.451  40.046  11.589
18681W        W80102  42.516  28.062  13.042
18682W        W80103  30.643  43.843   2.840
18683W        W80104  26.110  39.940  12.561
18684W        W80105  30.571  23.182  14.293
18685W        W80106  23.095   0.932  12.042
18686W        W80107  30.435  10.174  14.832
18687W        W80108  29.644  38.518  11.556
18688W        W80109  15.216   9.239  12.445
18689W        W80110   7.228  24.531  10.636
18690W        W80111  30.974  24.507  13.413
18691W        W80112   0.359  15.799  11.592
18692W        W80113  35.911  19.646   1.411
18693W        W80114  31.580  10.324   3.851
18694W        W80115  40.539  33.428   4.701
18695W        W80116   0.435  34.414   3.837
18696W        W80117  42.495  33.428   1.842
18697W        W80118  18.704   0.840   5.288
18698W        W80119  12.660  41.925  14.463
18699W        W80120  11.806   7.743   3.365
18700W        W80121  36.552   0.954   1.271
18701W        W80122  19.186  16.773  12.488
18702W        W80123  21.520  41.322   5.268
18703W        W80124  26.984  11.345   4.349
18704W        W80125  26.632   7.414  13.311
18705W        W80126   2.807  35.578   1.853
18706W        W80127  37.562   3.341  10.079
18707W        W80128  10.730  21.576  13.342
18708W        W80129  30.132  29.146  11.469
18709W        W80130   9.383  36.931  10.632
18710W        W80131  43.415  34.063   0.260
18711W        W80132  29.450   5.392  11.101
18712W        W80133   3.760  44.839  13.031
18713W        W80134   8.678  35.434  12.003
18714W        W80135  14.194  13.188  11.609
18715W        W80136  24.226  16.238  14.380
18716W        W80137  35.538   6.327   3.708
18717W        W80138   3.892  42.867   4.305
18718W        W80139  25.202   5.753   0.343
18719W        W80140  25.531  38.490  12.947
18720W        W80141  11.692  32.496   3.156
18721W        W80142  23.735  10.154  12.343
18722W        W80143  20.092  37.960  11.999
18723W        W80144  18.232  27.493  12.409
18724W        W80145  18.608  31.078   1.341
18725W        W80146  40.970  35.888  12.354
18726W        W80147  37.062  38.423  14.981
18727W        W80148  27.960  41.428   4.252
18728W        W80149  27.087   9.330  14.496
18729W        W80150   7.725  33.387  11.384
18730W        W80151  27.976  43.423   3.630
18731W        W80152  31.422  31.012  12.015
18732W        W80153  12.127   9.753  12.872
18733W        W80154   3.916   2.312  11.485
18734W        W80155   9.181  30.547   1.794
18735W        W80156  44.850  10.273   3.218
18736W        W80157  35.896  33.590  14.001
18737W        W80158  41.485  21.170  11.984
18738W        W80159  43.336  13.280   3.813
18739W        W80160   0.769  36.875   3.296
18740W        W80161  32.606   4.785  11.080
18741W        W80162  42.796   0.363  12.444
18742W        W80163  16.195  24.226   4.290
18743W        W80164  38.970  28.052   3.697
18744W        W80165   8.211  34.531  14.005
18745W        W80166   8.883  38.449  13.058
18746W        W80167  13.288   6.210   4.302
18747W        W80168  22.683   9.679  13.339
18748W        W80169  14.309   3.815  10.597
18749W        W80170   9.370  12.317  12.879
18750W        W80171  19.137  17.626   3.209
18751W        W80172   3.393  38.937   5.256
18752W        W80173  28.628  28.037  10.146
18753W        W80174  40.483  21.132  13.394
18754W        W80175   9.704  37.894   2.402
18755W        W80176  29.640  10.828   3.189
18756W        W80177  24.631   9.844  13.907
18757W        W80178  26.618  36.966  13.432
18758W        W80179  25.111   2.264   0.404
18759W        W80180  18.722  22.600  11.509
18760W        W80181  22.205  15.662  11.100
18761W        W80182  42.297  15.588  13.387
18762W        W80183  18.566  44.272   3.272
18763W        W80184  25.215  42.308  11.485
18764W        W80185  39.859  40.995   2.280
18765W        W80186   1.968  40.369   1.317
18766W        W80187  23.091  17.307  10.516
18767W        W80188   1.434  20.708  13.490
18768W        W80189   8.346  41.998  10.416
18769W        W80190  41.017   5.786  12.471
18770W        W80191  30.567   8.719   3.845
18771W        W80192  35.907  36.377  13.990
18772W        W80193  20.525  36.585  10.580
18773W        W80194  21.235  25.192   4.210
18774W        W80195  31.645   7.339  12.995
18775W        W80196  14.099  16.221  13.367
18776W        W80197  38.444  42.397   0.311
18777W        W80198  15.325  32.933  12.896
18778W        W80199   6.895  39.536   3.849
18779W        W80200  37.561  33.058  10.517
18780W        W80201  40.052  26.204  13.986
18781W        W80202  20.150   8.750   1.728
18782W        W80203  11.739   1.279   4.238
18783W        W80204  43.291  28.949   4.215
18784W        W80205   9.177  43.860  11.072
18785W        W80206  42.320  35.572   3.850
18786W        W80207  25.204  42.776   3.232
18787W        W80208  13.664  18.616  10.919
18788W        W80209  11.747  15.796   0.280
18789W        W80210  43.447  13.610   3.254
18790W        W80211  25.129  37.014   2.875
18791W        W80212   9.336   9.156  10.962
18792W        W80213  33.071  42.972  13.546
18793W        W80214  14.698  40.431  12.924
18794W        W80215  40.514  44.423  10.503
18795W        W80216  39.040  16.299  13.804
18796W        W80217  32.468  18.244  13.479
18797W        W80218  38.354  43.441  12.346
18798W        W80219  34.892   6.778  13.498
18799W        W80220  22.034  15.585  10.085
18800W        W80221  30.484  18.270   3.738
18801W        W80222  34.878  32.073  12.398
18802W        W80223  44.446  39.532   0.297
18803W        W80224  31.402  31.526   3.854
18804W        W80225  38.967  28.582   4.667
18805W        W80226  30.034  23.025   2.204
18806W        W80227  26.662  43.984  11.034
18807W        W80228  29.918   7.688  11.090
18808W        W80229  11.689  22.514  13.535
18809W        W80230  31.916  14.232   4.319
18810W        W80231  42.839  16.593   2.700
18811W        W80232   7.205  26.471   4.280
18812W        W80233  24.688   3.215   4.149
18813W        W80234  29.523  29.532   4.823
18814W        W80235   2.774  15.737   4.317
18815W        W80236  33.083  12.270   2.839
18816W        W80237  29.008  44.840   0.440
18817W        W80238  18.207   5.720  14.297
18818W        W80239  17.121  30.456  13.316
18819W        W80240  40.359  35.096  14.343
18820W        W80241  33.006  34.530   1.762
18821W        W80242  37.413  24.490  11.032
18822W        W80243  37.875  14.179   3.813
18823W        W80244   0.349  27.097  13.009
18824W        W80245  41.480  31.150  14.470
18825W        W80246  21.701  23.610   3.689
18826W        W80247   7.348  13.637  12.996
18827W        W80248  40.476  32.994   0.814
18828W        W80249  28.652  26.653   4.760
18829W        W80250  27.525   0.284   0.465
18830W        W80251  34.576  43.400   3.794
18831W        W80252  30.608   5.800  14.317
18832W        W80253   7.896  11.628  10.453
18833W        W80254   5.278  39.905   1.316
18834W        W80255  39.062  44.338  11.420
18835W        W80256  26.969   1.840  13.940
18836W        W80257  33.031  15.738   2.252
18837W        W80258  33.382  34.120   2.856
18838W        W80259  29.494  28.627  12.898
18839W        W80260   7.283  27.157  12.353
18840W        W80261  22.602   7.368   0.741
18841W        W80262   7.724  24.201  12.089
18842W        W80263  26.563  41.946  13.502
18843W        W80264  18.078  43.475   4.338
18844W        W80265  38.392   1.842   2.808
18845W        W80266   7.229   6.811   3.746
18846W        W80267  27.074  36.575  14.486
18847W        W80268  12.233  29.126   0.793
18848W        W80269  24.725   5.725   0.876
18849W        W80270  42.390  40.437  10.481
18850W        W80271  32.051  14.774  13.956
18851W        W80272  37.561   0.743  11.128
18852W        W80273  11.347  24.555  14.319
18853W        W80274   7.230  27.146   0.280
18854W        W80275  25.218  39.552  14.297
18855W        W80276   0.781  18.569  14.835
18856W        W80277  32.436   5.224   1.299
18857W        W80278  26.050  11.271   0.928
18858W        W80279  12.116   9.704   3.731
18859W        W80280  22.141  23.596   2.875
18860W        W80281  39.318  39.452  10.960
18861W        W80282  15.812  28.447   0.267
18862W        W80283  17.255   7.296  12.499
18863W        W80284  43.476  23.663   1.402
18864W        W80285  35.532  20.708   2.880
18865W        W80286  24.187   3.401   3.681
18866W        W80287  23.695  22.076  12.830
18867W        W80288  32.636  26.476   1.325
18868W        W80289   7.719   7.693  12.992
18869W        W80290  12.328  43.009   3.812
18870W        W80291  35.955  35.512  14.444
18871W        W80292  32.455  40.428  12.875
18872W        W80293  40.924  13.183   3.246
18873W        W80294  33.095  43.381   4.114
18874W        W80295  19.534   0.929   1.406
18875W        W80296  31.931  38.483  10.955
18876W        W80297  35.984   9.801   4.806
18877W        W80298  28.447  43.357  12.871
18878W        W80299  17.305   1.881   1.827
18879W        W80300  39.433  30.526  10.464
18880W        W80301  31.066   4.434  10.494
18881W        W80302  43.456   1.772  13.530
18882W        W80303  31.143  10.310  10.497
18883W        W80304  19.689   1.352   2.256
18884W        W80305  43.397   2.396   0.883
18885W        W80306  33.906  29.563   0.776
18886W        W80307   0.785  28.944  10.930
18887W        W80308  22.135  33.973  12.053
18888W        W80309   8.258   6.417   0.961
18889W        W80310  22.223  37.474  13.871
18890W        W80311   3.392  31.420   0.384
18891W        W80312   7.822  22.707  14.491
18892W        W80313  14.151  42.382  12.883
18893W        W80314   6.859  40.378  13.346
18894W        W80315  11.663  29.943   1.815
18895W        W80316  40.999  43.486  14.286
18896W        W80317   9.717   9.308  14.009
18897W        W80318  34.069  36.896  12.421
18898W        W80319  38.413   2.778  14.844
18899W        W80320   0.436  37.987   3.334
18900W        W80321   7.239  35.574  12.000
18901W        W80322  22.555  10.775  13.830
18902W        W80323  28.491   4.402  12.531
18903W        W80324  11.706  35.880  14.980
18904W        W80325  22.562  39.468  14.825
18905W        W80326  10.229   5.326  12.859
18906W        W80327  37.882   6.720  12.562
18907W        W80328  11.208  39.403  14.349
18908W        W80329  21.172   4.266  13.036
18909W        W80330   1.291  35.089  13.958
18910W        W80331  19.634   7.236   0.242
18911W        W80332   6.198  44.772  14.864
18912W        W80333  24.202  18.185  13.886
18913W        W80334   7.290   2.297  10.454
18914W        W80335  33.561  13.324   0.367
18915W        W80336  10.292  26.196   3.841
18916W        W80337  33.469  35.364  11.610
18917W        W80338  39.338  17.639   0.436
18918W        W80339  32.599  40.371  12.433
18919W        W80340  32.104  20.187   4.288
18920W        W80341  36.974  29.495  14.000
18921W        W80342  30.556   4.208   0.414
18922W        W80343  11.306   1.360   1.350
18923W        W80344  28.635  41.797  12.947
18924W        W80345   7.726   2.393   1.365
18925W        W80346  40.901   4.897   0.381
18926W        W80347   7.682  11.365  11.054
18927W        W80348  41.357  16.128   2.879
18928W        W80349   9.745  29.598   4.769
18929W        W80350  35.857  12.295   4.751
18930W        W80351  15.815  39.904   0.458
18931W        W80352   2.364  23.054   0.391
18932W        W80353  29.615  18.589   4.721
18933W        W80354  23.707   8.875   0.299
18934W        W80355  27.014   5.274   4.657
18935W        W80356  26.024  36.909  11.549
18936W        W80357   9.716   0.266   0.311
18937W        W80358  44.909  43.282   0.293
18938W        W80359  25.202  38.412   3.217
18939W        W80360  38.872  33.609   1.842
18940W        W80361  40.955  17.674   0.922
18941W        W80362   6.245   6.902   2.368
18942W        W80363  40.848  44.281  13.010
18943W        W80364  30.025  44.332   4.291
18944W        W80365  28.980   8.819  13.531
18945W        W80366  20.171  17.598   4.197
18946W        W80367   8.760  21.532  11.111
18947W        W80368   2.799  14.643   0.300
18948W        W80369  32.566  14.127   0.456
18949W        W80370  33.890  20.112   4.805
18950W        W80371  43.277  35.590   1.894
18951W        W80372   0.258  17.586   4.323
18952W        W80373   7.766  10.861   1.324
18953W        W80374  10.183  10.302  13.007
18954W        W80375  17.264  20.059   3.829
18955W        W80376  26.974   1.861  12.855
18956W        W80377   2.917  29.501   3.870
18957W        W80378  14.685  39.329  14.997
18958W        W80379   5.866  44.963  14.368
18959W        W80380  18.141   2.376  14.788
18960W        W80381  40.344  12.274   0.907
18961W        W80382  29.976  41.006   1.701
18962W        W80383   0.439  22.188  10.491
18963W        W80384  30.653  39.899   3.345
18964W        W80385   2.230  34.021   1.931
18965W        W80386  19.148  29.093  11.011
18966W        W80387   5.305  16.582  12.823
18967W        W80388   3.748  44.961  10.127
18968W        W80389  17.240   4.418  14.965
18969W        W80390  36.410  12.151  10.940
18970W        W80391  15.809  36.537   4.312
18971W        W80392  16.575  39.857  12.439
18972W        W80393  37.004   9.798   3.831
18973W        W80394   3.801  33.110   3.349
18974W        W80395  38.398  35.562  11.904
18975W        W80396   2.841  34.906   3.737
18976W        W80397   5.752  10.163   1.789
18977W        W80398   8.239   0.278   3.702
18978W        W80399  24.704   8.216   0.361
18979W        W80400  22.531  17.224   4.241
18980W        W80401   6.866  28.644  13.823
18981W        W80402  44.975  24.565  11.458
18982W        W80403  17.085  22.109  10.964
18983W        W80404  43.010  16.270   2.760
18984W        W80405  18.707  21.563   3.851
18985W        W80406  38.060  17.071  13.848
18986W        W80407  10.863  22.199  11.556
18987W        W80408   7.263  16.298   4.136
18988W        W80409  36.538   7.879  10.451
18989W        W80410  24.118  26.996  10.442
18990W        W80411  37.996  30.914  13.903
18991W        W80412  39.549  13.269  11.855
18992W        W80413  15.098  37.566  12.577
18993W        W80414  17.639  19.750  14.822
18994W        W80415   5.226  22.674  12.083
18995W        W80416  41.337  15.582  12.502
18996W        W80417  40.504   0.780  11.879
18997W        W80418  17.156  27.596   0.751
18998W        W80419  10.384  21.679  14.864
18999W        W80420  24.157   1.931  14.342
19000W        W80421  36.560  28.064  10.114
19001W        W80422  38.468   7.342   3.720
19002W        W80423  15.715   5.802  14.830
19003W        W80424  42.944  24.650  14.941
19004W        W80425  36.899  22.740   1.792
19005W        W80426   6.912  31.468   0.882
19006W        W80427  41.040  26.049   3.729
19007W        W80428   8.704  39.871  14.002
19008W        W80429  33.978  14.667   4.659
19009W        W80430  31.955  20.124  14.389
19010W        W80431   9.661   1.240   2.250
19011W        W80432  24.603  28.441   0.785
19012W        W80433  40.957  12.299   2.268
19013W        W80434  22.155  12.142   1.896
19014W        W80435  19.047  16.709  14.440
19015W        W80436  37.507  10.206  12.060
19016W        W80437  38.865   8.252  11.866
19017W        W80438  27.095  32.527  12.891
19018W        W80439   6.266  28.663  11.528
19019W        W80440  37.084  22.618  12.992
19020W        W80441   8.839   2.342   5.219
19021W        W80442   3.450   2.771  12.954
19022W        W80443  12.278  25.708   2.294
19023W        W80444   7.324  27.171   4.803
19024W        W80445  30.150  26.121   4.115
19025W        W80446  37.897  23.231  11.469
19026W        W80447  11.363  44.487   3.378
19027W        W80448   0.850   9.330  10.423
19028W        W80449   3.316  19.662  11.571
19029W        W80450  33.506   4.207  13.507
19030W        W80451  11.300  25.978  11.125
19031W        W80452  10.852  44.483  12.519
19032W        W80453   0.454  44.470   0.415
19033W        W80454  14.326  18.136  11.449
19034W        W80455  24.223   9.823   2.309
19035W        W80456   9.693  11.764  14.480
19036W        W80457  10.734   9.262  11.090
19037W        W80458  24.049  41.356  10.630
19038W        W80459  29.492  23.021   3.819
19039W        W80460  21.038  21.031  11.916
19040W        W80461  28.140  38.028  12.996
19041W        W80462   1.377   7.789  14.369
19042W        W80463  16.249  34.042   1.353
19043W        W80464  38.956  20.098   0.967
19044W        W80465  40.431  33.988  11.469
19045W        W80466  40.311  10.299   2.276
19046W        W80467  28.656  32.929  14.513
19047W        W80468  36.445   8.757  14.433
19048W        W80469  42.512  44.870  14.276
19049W        W80470  38.973  28.623   4.266
19050W        W80471   7.751  27.473  11.565
19051W        W80472  20.223   4.328  14.396
19052W        W80473   5.730   2.788  13.019
19053W        W80474  40.445  42.874  10.060
19054W        W80475  17.160  38.395   3.773
19055W        W80476  13.278  37.911   1.381
19056W        W80477  37.980   1.411   0.739
19057W        W80478  32.593   4.751   1.376
19058W        W80479  17.648  21.526   4.659
19059W        W80480  12.772  14.235   4.726
19060W        W80481  44.298   3.436  13.836
19061W        W80482   5.258  34.902   4.352
19062W        W80483   8.184  27.998   3.867
19063W        W80484  18.139  15.153  14.881
19064W        W80485  29.645  43.879   3.314
19065W        W80486  32.087  32.935   1.329
19066W        W80487  11.262  39.919   5.194
19067W        W80488  26.495  44.261  12.397
19068W        W80489  18.654  30.589  13.019
19069W        W80490  30.093  36.408   2.260
19070W        W80491  26.991  13.195  12.911
19071W        W80492  16.226  20.113   1.339
19072W        W80493   8.761  36.504  12.395
19073W        W80494  32.053  18.155   2.704
19074W        W80495  27.962  24.130  13.048
19075W        W80496  27.050  26.070  12.088
19076W        W80497  38.983  19.646   1.697
19077W        W80498   0.800  24.199  14.968
19078W        W80499  10.306   3.412   3.746
19079W        W80500  11.775  37.404  12.379
19080W        W80501  20.041  16.295   4.157
19081W        W80502  32.059   1.944  14.323
19082W        W80503   9.393  10.153  14.280
19083W        W80504  24.500  41.802   4.264
19084W        W80505   7.795  39.425   3.833
19085W        W80506   0.973  28.062  12.463
19086W        W80507  37.998  10.757  14.838
19087W        W80508  14.242   1.376   0.395
19088W        W80509   2.938  17.277  12.374
19089W        W80510  31.505  33.079   3.379
19090W        W80511  23.078  31.523   0.288
19091W        W80512  29.434   9.685   1.269
19092W        W80513  38.358  33.112   4.753
19093W        W80514  26.656  15.652  12.998
19094W        W80515  17.593  24.018   2.762
19095W        W80516  24.636   8.690   3.764
19096W        W80517  16.792  14.654   5.760
19097W        W80518  44.899  29.954   3.866
19098W        W80519  12.232  30.952   2.816
19099W        W80520  29.107  22.578  11.574
19100W        W80521  32.983   9.353  11.870
19101W        W80522   4.366  36.402  10.978
19102W        W80523  42.513   8.298  11.399
19103W        W80524  33.877  44.376   2.672
19104W        W80525  43.471  38.329   2.903
19105W        W80526  29.015   0.904  12.900
19106W        W80527  21.529  34.982   1.779
19107W        W80528  18.723  40.346   1.406
19108W        W80529   9.814  22.694  13.357
19109W        W80530  44.432   3.370   1.773
19110W        W80531  42.911  31.010   2.891
19111W        W80532   8.167   7.295  13.431
19112W        W80533  43.278   8.220   4.752
19113W        W80534  33.111  23.116  10.937
19114W        W80535  38.058  22.106   4.640
19115W        W80536  17.766  24.597  11.877
19116W        W80537  26.999  15.649   3.304
19117W        W80538   5.767   5.425  14.381
19118W        W80539  36.486  30.084  12.991
19119W        W80540  40.321  36.007   1.349
19120W        W80541   8.255  21.163   4.158
19121W        W80542  26.621  29.084   0.927
19122W        W80543  17.139  41.381   4.325
19123W        W80544  40.815  37.992  14.340
19124W        W80545  21.057  20.086   0.309
19125W        W80546  37.087  38.362  14.439
19126W        W80547  39.353  35.481   0.375
19127W        W80548   1.802   4.817   4.826
19128W        W80549  32.911  36.047   4.804
19129W        W80550   5.252  20.741   4.622
19130W        W80551  24.136  14.333  12.072
19131W        W80552  26.035  13.326  11.608
19132W        W80553  34.443  21.032   3.825
19133W        W80554  30.122  35.097  13.001
19134W        W80555  14.635  42.402  13.513
19135W        W80556  11.704  35.433   1.855
19136W        W80557  43.381   6.388   1.428
19137W        W80558  43.984   4.285  12.932
19138W        W80559  18.566   0.316  14.441
19139W        W80560  40.997  43.950  13.799
19140W        W80561  10.140  43.325  10.051
19141W        W80562   1.851  22.667   0.846
19142W        W80563  18.283  43.351  12.825
19143W        W80564  10.653   9.389  13.822
19144W        W80565  42.327  21.551   4.225
19145W        W80566   8.223  34.609   4.834
19146W        W80567  31.580  14.706   9.538
19147W        W80568  16.697   4.446   2.758
19148W        W80569   9.770   7.774  13.472
19149W        W80570   0.424   4.413   0.247
19150W        W80571  16.161  19.162  13.452
19151W        W80572  21.535  35.594  13.987
19152W        W80573  18.790   2.948  12.368
19153W        W80574  12.640  30.430  14.987
19154W        W80575  34.408  12.154   3.155
19155W        W80576  30.652  17.260   4.619
19156W        W80577  19.593  30.457  11.416
19157W        W80578  23.170  30.959  14.951
19158W        W80579  12.723   0.449  11.543
19159W        W80580  30.420  17.800   0.965
19160W        W80581   5.323   2.959   0.320
19161W        W80582  37.983  25.714  12.354
19162W        W80583  32.927   8.785  14.419
19163W        W80584  21.072   7.830  14.394
19164W        W80585  42.422  32.622   4.205
19165W        W80586  19.744  18.165   3.663
19166W        W80587   1.787  28.968   1.264
19167W        W80588   9.255  34.877  11.882
19168W        W80589  19.760   9.267   4.600
19169W        W80590   0.427  17.200   3.157
19170W        W80591  34.411  29.465   2.833
19171W        W80592  23.609  18.553   4.303
19172W        W80593   8.263  14.250  10.487
19173W        W80594   6.387   0.276   3.800
19174W        W80595   4.267  13.797   4.318
19175W        W80596  22.746  44.931  12.490
19176W        W80597   8.203  22.040  12.969
19177W        W80598  23.681  31.961   4.732
19178W        W80599  36.955   2.966   0.828
19179W        W80600  44.319  38.326  11.445
19180W        W80601   8.234  30.517  12.982
19181W        W80602  15.174  35.381   1.297
19182W        W80603   4.813  36.368   1.831
19183W        W80604  17.272  36.865  13.444
19184W        W80605  18.278  21.706   0.285
19185W        W80606  16.811  13.332  14.877
19186W        W80607  43.913   3.418   0.902
19187W        W80608  15.218   7.731   0.365
19188W        W80609  27.168  40.333  11.930
19189W        W80610  28.478  37.415  14.373
19190W        W80611  16.605   1.916   2.221
19191W        W80612  32.915  44.761  12.057
19192W        W80613  11.155  11.727  11.570
19193W        W80614   9.255  26.182  12.437
19194W        W80615   2.299  20.120   3.192
19195W        W80616  11.206  11.171  12.365
19196W        W80617  37.018  16.094   0.878
19197W        W80618  40.546  34.979   3.710
19198W        W80619  33.596  10.301   4.833
19199W        W80620  37.027  23.649  14.877
19200W        W80621  20.624  33.084   4.671
19201W        W80622  32.132  41.921   2.833
19202W        W80623  18.142   0.919  11.450
19203W        W80624  30.563  16.641   0.363
19204W        W80625  30.104  39.827  11.580
19205W        W80626   9.236  25.621   4.167
19206W        W80627   5.433  10.306  11.599
19207W        W80628  42.422  31.487  12.908
19208W        W80629  28.486  11.165  11.996
19209W        W80630  33.103  25.713   3.673
19210W        W80631  36.962  22.070  14.439
19211W        W80632  38.530  23.085   4.128
19212W        W80633  22.607   9.299   2.359
19213W        W80634  21.043  34.590   1.921
19214W        W80635  36.446  29.921  10.415
19215W        W80636  30.142  10.375  12.070
19216W        W80637  26.049   1.836   1.227
19217W        W80638   4.813  28.035  14.279
19218W        W80639  18.128  33.933  10.487
19219W        W80640  19.153  24.601  14.514
19220W        W80641  40.798  24.670   1.745
19221W        W80642  41.332  29.073  14.436
19222W        W80643  15.103  44.270  13.426
19223W        W80644  41.489  15.090   2.352
19224W        W80645  18.576  27.072   0.957
19225W        W80646  30.037  34.607   4.826
19226W        W80647  25.024  26.511   1.430
19227W        W80648  12.843   1.261   4.795
19228W        W80649  13.259  27.527   4.621
19229W        W80650   4.718  36.903  12.483
19230W        W80651  26.598  43.849  13.886
19231W        W80652  43.500  15.728   1.871
19232W        W80653  20.035  37.838   0.779
19233W        W80654   1.789  34.384  12.926
19234W        W80655  13.256   8.892  13.477
19235W        W80656  23.187  21.725  11.054
19236W        W80657   4.219  10.201  10.006
19237W        W80658  26.159   9.169  12.558
19238W        W80659  18.640   0.490   4.241
19239W        W80660  16.167   7.781  12.874
19240W        W80661   6.266   0.358   0.942
19241W        W80662  43.370  12.119   4.353
19242W        W80663  18.264  11.711  13.811
19243W        W80664  10.674  42.317  11.964
19244W        W80665   0.408  20.655   0.274
19245W        W80666   7.780   3.270  12.921
19246W        W80667   4.885  27.954   5.292
19247W        W80668  23.639  44.962  14.509
19248W        W80669  36.053  43.879   0.460
19249W        W80670  42.845  14.160   3.702
19250W        W80671  39.924  19.651  12.438
19251W        W80672  36.915  38.909  11.997
19252W        W80673  22.220  31.493  12.349
19253W        W80674  43.796  28.531   3.363
19254W        W80675   8.783  10.167  12.451
19255W        W80676  31.447  27.001  14.366
19256W        W80677  21.037   3.720   3.290
19257W        W80678   4.359  26.661  11.436
19258W        W80679  24.702  34.491   4.600
19259W        W80680  38.015  16.764  11.072
19260W        W80681  44.844  43.921  12.094
19261W        W80682   9.231  28.669   4.727
19262W        W80683  43.869  10.262  11.435
19263W        W80684  15.591  15.100   5.150
19264W        W80685  19.129  36.478  14.336
19265W        W80686  10.303  32.100  12.503
19266W        W80687  35.554  30.990   1.891
19267W        W80688  18.284  19.186  13.431
19268W        W80689  15.255   2.864   3.790
19269W        W80690  13.795  16.709   2.858
19270W        W80691  26.663   9.761  11.016
19271W        W80692   8.252  19.721   3.212
19272W        W80693   3.713  35.454  14.514
19273W        W80694   0.367  26.540   0.809
19274W        W80695  26.042  26.171  13.946
19275W        W80696  23.200   1.760  11.519
19276W        W80697  41.850  34.383   3.733
19277W        W80698  30.954   5.331  12.538
19278W        W80699  22.040  24.123   2.902
19279W        W80700  27.140  21.715   1.408
19280W        W80701   4.286  41.844  12.497
19281W        W80702  27.636   4.370  12.530
19282W        W80703  15.098   3.844  13.959
19283W        W80704   1.934  32.460   5.718
19284W        W80705  15.231   5.351   2.227
19285W        W80706  31.072  28.028  12.371
19286W        W80707  19.559  17.079  13.917
19287W        W80708   7.194  10.218   3.761
19288W        W80709  11.325  33.069  11.585
19289W        W80710  38.484  39.445  13.366
19290W        W80711  22.086  41.453  10.628
19291W        W80712   4.775   9.278  12.506
19292W        W80713  33.881  39.044   2.263
19293W        W80714  21.048  33.540  10.990
19294W        W80715  27.446  11.280   2.872
19295W        W80716   3.935  37.040  14.480
19296W        W80717  24.100  20.663   4.221
19297W        W80718  15.262   5.830   0.444
19298W        W80719  27.638  27.594   0.482
19299W        W80720   8.361   2.960   3.789
19300W        W80721   5.806   5.416  10.527
19301W        W80722   4.367  27.570  14.865
19302W        W80723  22.741   6.400  13.500
19303W        W80724  30.917  40.844  14.793
19304W        W80725  21.174  21.111   3.346
19305W        W80726  20.576  36.489  11.991
19306W        W80727  43.385  39.949   2.667
19307W        W80728  43.364  42.505  10.449
19308W        W80729   4.328   6.202   2.343
19309W        W80730  21.721  43.828  14.390
19310W        W80731  33.060  27.007   3.269
19311W        W80732  39.048   7.206   0.846
19312W        W80733  41.419  38.009   3.805
19313W        W80734  19.201  27.166   0.445
19314W        W80735  33.906  22.665  14.465
19315W        W80736   3.920  15.174   3.377
19316W        W80737  17.141  42.920  10.558
19317W        W80738   6.395  14.701  11.487
19318W        W80739  30.086   5.329   4.680
19319W        W80740  35.043  40.340  14.861
19320W        W80741  36.905  40.534  13.346
19321W        W80742   0.434  44.898  13.460
19322W        W80743  42.897   0.932  12.954
19323W        W80744  21.678  20.166  13.408
19324W        W80745  12.279  44.898  11.533
19325W        W80746  44.994  38.334  10.893
19326W        W80747  29.961  11.237  13.917
19327W        W80748  14.816   0.396   1.872
19328W        W80749   5.907   2.916  11.484
19329W        W80750  15.322   6.817   4.665
19330W        W80751  13.744  13.305   4.120
19331W        W80752  17.657  39.524  11.114
19332W        W80753   4.305  31.409  10.631
19333W        W80754  42.431  41.955  13.538
19334W        W80755  23.575  40.501  11.510
19335W        W80756  28.586  13.765  12.986
19336W        W80757   4.299   4.732   1.894
19337W        W80758   7.326   6.224   4.688
19338W        W80759  35.079  43.819   2.353
19339W        W80760  29.633   8.785  10.573
19340W        W80761  33.409   6.711   2.275
19341W        W80762  34.960   3.813   2.301
19342W        W80763  34.390  34.536   4.204
19343W        W80764  31.971  36.912   2.844
19344W        W80765  39.441  23.113   2.299
19345W        W80766  21.234  22.692  12.921
19346W        W80767  10.209   8.869  14.954
19347W        W80768  28.661  40.506  11.518
19348W        W80769   7.884  32.491  12.543
19349W        W80770  27.522  20.708   0.868
19350W        W80771  16.300  31.977   1.214
19351W        W80772  15.703  11.195  11.884
19352W        W80773  32.007  19.568   3.741
19353W        W80774  38.972  32.083   4.242
19354W        W80775  16.174  15.599  14.501
19355W        W80776  21.535  23.010  13.874
19356W        W80777  21.705   7.376   3.185
19357W        W80778  32.959   6.375  13.054
19358W        W80779  43.008  29.481   3.754
19359W        W80780  27.971  28.554   4.115
19360W        W80781  16.806  28.527  14.445
19361W        W80782  13.181  33.517  13.048
19362W        W80783   4.824   4.262   5.599
19363W        W80784  37.081  17.597   2.332
19364W        W80785  12.762   7.885  10.521
19365W        W80786  35.001   5.207   0.965
19366W        W80787   8.218  36.922   9.534
19367W        W80788   0.366   9.188  13.917
19368W        W80789  23.164   1.899  13.815
19369W        W80790   4.768  31.428   0.389
19370W        W80791  19.146   8.803  13.932
19371W        W80792   0.787  35.109   3.731
19372W        W80793  32.102  21.062   4.229
19373W        W80794  22.648  34.088   1.788
19374W        W80795  20.693  26.001   4.272
19375W        W80796  44.306  27.474   1.383
19376W        W80797   9.883  12.185  12.949
19377W        W80798   1.949  39.871  10.445
19378W        W80799  17.670   4.890  14.333
19379W        W80800  43.869  11.763  14.350
19380W        W80801   9.673  13.663   0.961
19381W        W80802  11.867  29.143  12.491
19382W        W80803   0.907  39.506   0.820
19383W        W80804  20.637  20.204  13.858
19384W        W80805  35.474  37.560   0.336
19385W        W80806  23.690  18.747   2.855
19386W        W80807   2.811  18.166   2.215
19387W        W80808  21.135  34.041  14.418
19388W        W80809  21.092  18.625   2.701
19389W        W80810  19.235  11.249   1.886
19390W        W80811  27.151  41.446  11.412
19391W        W80812  28.995   8.824  13.911
19392W        W80813   9.180   9.302   1.734
19393W        W80814  39.348  43.791   2.832
19394W        W80815  27.529  40.345  10.888
19395W        W80816   5.292   5.883  10.899
19396W        W80817   6.742  21.612   1.765
19397W        W80818  40.915  37.468   4.299
19398W        W80819  20.155  10.769   0.444
19399W        W80820  19.232  24.490   3.363
19400W        W80821  22.172  18.620   1.327
19401W        W80822  23.153   9.682   3.174
19402W        W80823  36.994  26.632  12.843
19403W        W80824  41.021   5.269  12.381
19404W        W80825  16.769  43.398  14.832
19405W        W80826  15.259  34.869   4.815
19406W        W80827  13.656  21.197   0.370
19407W        W80828  29.573  26.961   2.725
19408W        W80829  35.483  11.287   0.416
19409W        W80830  40.417  20.663   4.618
19410W        W80831  39.521  34.475   0.355
19411W        W80832   5.324  20.031   0.836
19412W        W80833  31.073  25.595  10.987
19413W        W80834  43.931  33.050   4.765
19414W        W80835   1.894  11.784   1.903
19415W        W80836  35.042  15.695   0.279
19416W        W80837  37.086  40.903  10.615
19417W        W80838   9.646  32.512   3.814
19418W        W80839   0.931  40.431   0.290
19419W        W80840  18.229   1.392   2.897
19420W        W80841  17.558   2.266   1.443
19421W        W80842  20.543   0.401  14.868
19422W        W80843  24.133  28.461  12.450
19423W        W80844  23.609  40.471  10.636
19424W        W80845   9.230  23.147   4.615
19425W        W80846  29.172  28.043   2.812
19426W        W80847   3.905  24.608   3.252
19427W        W80848   3.942  32.505   0.806
19428W        W80849  14.699   9.200   4.221
19429W        W80850  17.700  11.784   3.678
19430W        W80851  35.521  43.805   2.388
19431W        W80852   5.411  24.059  13.375
19432W        W80853  26.672  22.552  14.762
19433W        W80854   8.853  39.011  13.857
19434W        W80855  31.539  11.758  14.854
19435W        W80856  14.104  16.663   4.249
19436W        W80857  36.385  21.754  14.321
19437W        W80858  21.625  30.593   2.664
19438W        W80859  21.186  15.649  12.967
19439W        W80860  36.027   4.450   3.179
19440W        W80861  44.302  43.415   3.212
19441W        W80862  43.429  28.610  12.999
19442W        W80863  21.187  20.650  11.007
19443W        W80864   3.275  21.732  12.503
19444W        W80865  24.997   3.332  13.317
19445W        W80866   7.363   6.788  11.057
19446W        W80867   5.843  15.797  13.460
19447W        W80868  31.107   3.303   3.826
19448W        W80869   7.772  37.005   1.242
19449W        W80870   7.191  40.313   3.231
19450W        W80871  35.854   7.684  11.875
19451W        W80872  43.932   3.954   0.337
19452W        W80873  42.943  23.020   0.271
19453W        W80874   4.893  19.662   4.215
19454W        W80875   8.725  44.394  14.484
19455W        W80876  16.126  16.261  12.403
19456W        W80877   4.814   3.853  14.847
19457W        W80878  36.881  11.327  14.375
19458W        W80879  27.960  39.440  14.392
19459W        W80880  24.051  12.843   4.604
19460W        W80881  42.803   3.405   0.260
19461W        W80882  15.327  24.584  10.462
19462W        W80883  22.064  27.556  14.812
19463W        W80884  42.813  40.009  12.045
19464W        W80885   8.754  44.352  13.825
19465W        W80886   7.212  32.586  13.323
19466W        W80887  30.641  25.029   2.897
19467W        W80888  15.184  34.383   0.770
19468W        W80889  36.883  28.469   4.836
19469W        W80890  17.774  34.420  13.957
19470W        W80891  28.614  14.135  13.535
19471W        W80892  37.405  10.293   3.731
19472W        W80893  19.285  23.697  11.098
19473W        W80894  35.554  12.639  14.869
19474W        W80895  13.259  12.798   0.454
19475W        W80896  16.615  31.066  13.409
19476W        W80897  35.487  32.460  10.949
19477W        W80898  32.588  24.636   1.234
19478W        W80899  34.604  33.874  11.080
19479W        W80900   4.248  34.046   0.349
19480W        W80901  13.675  23.993   2.223
19481W        W80902  32.078   7.830   2.357
19482W        W80903  12.622  38.037  11.045
19483W        W80904   3.410  16.151   4.221
19484W        W80905   1.936   6.827   0.951
19485W        W80906  32.562   0.762  14.798
19486W        W80907  39.424  29.935  11.417
19487W        W80908  43.281   4.382  14.300
19488W        W80909  21.057  36.439   3.224
19489W        W80910  41.940  37.430  14.804
19490W        W80911  43.346  16.600   4.615
19491W        W80912  37.005   7.834  10.527
19492W        W80913   1.374  12.648  12.932
19493W        W80914  33.587  13.828   4.836
19494W        W80915  34.555  42.432  14.287
19495W        W80916  17.566   2.416  13.321
19496W        W80917  27.570  32.548   3.821
19497W        W80918   2.277   9.833   0.290
19498W        W80919  26.620  18.743   3.213
19499W        W80920  38.878  21.615   1.908
19500W        W80921   1.326  41.315  14.819
19501W        W80922  10.258   3.398   4.303
19502W        W80923  32.920   1.936  14.302
19503W        W80924  20.662  40.943  14.422
19504W        W80925  22.079  40.439  14.925
19505W        W80926  33.032  29.057   4.306
19506W        W80927  36.484  32.567   1.841
19507W        W80928  43.969  19.643  14.487
19508W        W80929   9.824  12.638   2.877
19509W        W80930  39.907  24.139   4.214
19510W        W80931  27.667  31.437  10.479
19511W        W80932  27.590  15.756  13.914
19512W        W80933  39.941  44.976  13.890
19513W        W80934   0.856   5.932   2.891
19514W        W80935  13.300  40.319   2.739
19515W        W80936  21.234   8.317  12.008
19516W        W80937  30.934  29.941   0.810
19517W        W80938   5.311  31.091  10.134
19518W        W80939  22.647   4.397  10.918
19519W        W80940   9.339  16.611  11.560
19520W        W80941  22.702  25.136   3.705
19521W        W80942  22.253  12.852  10.430
19522W        W80943   7.232  13.767   1.418
19523W        W80944  35.985  17.793   1.362
19524W        W80945  14.818  38.496   2.304
19525W        W80946  23.015  22.998  13.925
19526W        W80947  31.626   7.241   1.373
19527W        W80948   8.181   5.424  14.837
19528W        W80949   5.238   3.300  12.567
19529W        W80950  29.433  25.995  12.041
19530W        W80951   0.855  20.533   3.860
19531W        W80952   8.789   2.805   2.202
19532W        W80953  35.898  39.872   2.181
19533W        W80954  16.143  25.518  13.506
19534W        W80955  25.709  12.223   1.222
19535W        W80956   0.332  21.250   4.278
19536W        W80957  17.650  32.118   1.294
19537W        W80958  15.797  16.277  14.004
19538W        W80959   2.809  38.513   1.418
19539W        W80960  27.612   7.801  12.867
19540W        W80961  39.951  31.526   2.255
19541W        W80962  19.560  44.898   1.380
19542W        W80963   4.699  10.877  11.035
19543W        W80964  35.037  25.707   0.858
19544W        W80965  23.669  40.028   4.669
19545W        W80966  36.982  30.608  10.409
19546W        W80967  32.897   9.227  13.309
19547W        W80968  22.680  31.970   2.300
19548W        W80969  31.552  33.894   0.806
19549W        W80970   1.481  27.589   1.830
19550W        W80971  11.200   0.395  14.960
19551W        W80972  25.192   5.771  10.912
19552W        W80973   0.292   8.292   1.699
19553W        W80974  29.558  35.951  11.433
19554W        W80975  21.741  17.670  13.409
19555W        W80976  13.667  39.921  13.349
19556W        W80977  14.823  19.753   2.877
19557W        W80978  15.314  13.209  12.013
19558W        W80979  44.498  31.455  14.863
19559W        W80980  15.169  35.568  10.465
19560W        W80981  26.488  16.771  11.589
19561W        W80982  39.473  22.605  13.825
19562W        W80983   7.219  17.062  14.841
19563W        W80984  28.070  34.484  11.966
19564W        W80985  23.728  18.761  13.335
19565W        W80986   1.341  43.935   3.700
19566W        W80987  38.064   8.393  14.900
19567W        W80988  17.180   5.212   4.188
19568W        W80989  40.037  25.661  14.460
19569W        W80990   1.360   2.795   2.894
19570W        W80991  14.159   5.757  11.567
19571W        W80992  30.960   7.345  11.559
19572W        W80993  15.590  16.293  10.439
19573W        W80994  42.788   9.748  12.343
19574W        W80995  23.172  21.702   3.326
19575W        W80996  20.040  36.469   2.396
19576W        W80997  26.053   8.874   0.292
19577W        W80998  21.602  26.484   3.705
19578W        W80999  21.654   5.694   1.311
19579W        W81000  28.487   3.420  14.419
19580W        W81001  13.325  27.548  13.805
19581W        W81002  41.392  19.205  12.006
19582W        W81003  41.532  43.020   2.369
19583W        W81004  25.018  31.554  12.431
19584W        W81005  10.149  15.245  12.933
19585W        W81006  30.520  12.285  14.481
19586W        W81007   6.827  19.674   1.750
19587W        W81008  42.979   3.919   4.835
19588W        W81009  36.925  26.508  14.329
19589W        W81010  42.882  14.676  13.871
19590W        W81011  32.010   8.361  12.365
19591W        W81012  14.641  36.962  10.999
19592W        W81013  20.755  24.200   3.151
19593W        W81014  29.148  43.863  14.923
19594W        W81015   0.968  35.976   3.291
19595W        W81016  18.255  14.764   1.898
19596W        W81017  28.028  33.461   1.719
19597W        W81018  14.713  17.735  12.372
19598W        W81019  37.880  13.625  12.507
19599W        W81020  20.736  21.159   4.181
19600W        W81021   0.802   0.902   4.714
19601W        W81022  41.525  22.090   1.838
19602W        W81023  24.130  13.679  11.374
19603W        W81024  24.508  26.182   4.692
19604W        W81025   5.403  28.091  12.981
19605W        W81026  29.596  44.795  11.522
19606W        W81027  34.545  22.037   1.760
19607W        W81028  31.561  35.392   2.766
19608W        W81029   5.816  33.106   1.334
19609W        W81030   3.449   7.731  13.437
19610W        W81031   3.733   5.308   0.402
19611W        W81032  39.047  25.670   4.640
19612W        W81033  16.147  21.666   2.830
19613W        W81034  17.672  43.011   3.657
19614W        W81035   8.265  30.461  13.340
19615W        W81036  34.408  10.253   1.389
19616W        W81037  42.845   8.180  10.522
19617W        W81038  19.578   0.752  14.870
19618W        W81039   6.810  30.539  14.308
19619W        W81040  32.423   8.358  14.905
19620W        W81041  40.995   8.402   1.232
19621W        W81042   3.825  31.933  14.282
19622W        W81043  29.434   1.402   0.469
19623W        W81044   5.871  40.371  12.094
19624W        W81045   7.264  26.968   3.338
19625W        W81046  28.043  27.544  10.549
19626W        W81047  37.038  39.833   1.737
19627W        W81048  10.862  23.592   1.434
19628W        W81049  40.906  19.613  11.415
19629W        W81050  11.136   9.319  14.359
19630W        W81051  19.154  38.853   3.242
19631W        W81052  29.127  31.418  12.899
19632W        W81053  30.417  37.016  12.387
19633W        W81054  20.143   7.733  13.940
19634W        W81055   8.170  23.984   1.748
19635W        W81056  29.581   9.163  11.504
19636W        W81057  44.880  20.618  13.862
19637W        W81058  29.648  44.947  13.398
19638W        W81059  44.312   5.428  14.021
19639W        W81060   5.822   7.901  14.411
19640W        W81061   0.942   2.746  10.937
19641W        W81062   5.926  21.745   0.459
19642W        W81063  16.798  21.613  11.117
19643W        W81064   6.891  25.125   1.400
19644W        W81065  18.723  22.082   3.210
19645W        W81066  16.094  12.688   3.358
19646W        W81067  26.100  29.616  12.015
19647W        W81068  10.784  11.365   0.742
19648W        W81069   2.826  34.956   4.271
19649W        W81070  18.189   8.261   0.259
19650W        W81071   8.813  24.174  14.888
19651W        W81072  30.424   2.733   1.403
19652W        W81073  18.233  23.204  12.853
19653W        W81074  18.102  26.666  11.057
19654W        W81075  29.176   7.285  11.570
19655W        W81076   0.963  33.568   2.376
19656W        W81077  28.602  14.614   0.265
19657W        W81078  30.946   7.192   0.907
19658W        W81079  14.120  29.098  14.449
19659W        W81080  25.468  37.921  14.363
19660W        W81081  19.555  21.687   3.377
19661W        W81082   6.226  11.149  13.994
19662W        W81083  40.537  32.493   0.767
19663W        W81084  23.200   1.417   0.768
19664W        W81085  34.882  42.894  11.053
19665W        W81086  18.214  21.725  10.491
19666W        W81087  16.309  32.558   4.806
19667W        W81088  16.114  30.071  10.099
19668W        W81089  18.092   6.398   4.716
19669W        W81090  42.411  40.413  11.428
19670W        W81091   2.735   1.892   2.194
19671W        W81092  35.993  21.156  12.909
19672W        W81093  35.960  22.541   3.217
19673W        W81094   9.367  31.125  13.331
19674W        W81095  25.057  30.513   0.370
19675W        W81096  37.031  44.879  13.063
19676W        W81097  44.947  41.509  10.917
19677W        W81098   2.308  16.134  12.863
19678W        W81099   3.955  20.593   3.684
19679W        W81100   2.399  17.092   2.692
19680W        W81101   8.757  41.863  11.032
19681W        W81102  44.983  17.136  10.462
19682W        W81103  39.812  22.180  10.534
19683W        W81104  34.914  38.503  10.928
19684W        W81105  14.591   7.299   0.404
19685W        W81106  12.350   1.969  12.371
19686W        W81107  42.924  18.262   1.885
19687W        W81108  13.613  19.094  12.405
19688W        W81109  34.947  33.460  10.130
19689W        W81110  43.498  22.553  14.324
19690W        W81111  24.715  36.959  12.426
19691W        W81112  12.637   1.882   2.891
19692W        W81113  35.558  35.564  11.429
19693W        W81114   7.846  23.228   0.467
19694W        W81115  44.384  23.729  14.333
19695W        W81116  43.816  44.784   2.284
19696W        W81117  19.538  12.276   0.360
19697W        W81118  24.566  14.250  14.982
19698W        W81119   8.331  25.665   2.841
19699W        W81120  22.025   8.247  14.810
19700W        W81121  23.146  26.659  11.102
19701W        W81122  32.583  14.139  11.054
19702W        W81123  13.184  11.639  13.962
19703W        W81124   0.874  13.739   1.920
19704W        W81125  25.014   8.747  11.995
19705W        W81126  36.961  38.915  13.316
19706W        W81127  35.595   7.698   1.417
19707W        W81128  20.252  41.324  12.966
19708W        W81129   8.261  32.618  12.869
19709W        W81130  22.507   4.854   3.197
19710W        W81131  42.986  35.103   3.822
19711W        W81132  31.454   1.870   4.151
19712W        W81133   5.740  18.055   4.811
19713W        W81134   7.683  42.778  11.885
19714W        W81135   5.913  41.861  10.433
19715W        W81136  12.826  35.558   4.267
19716W        W81137  13.213  11.793   0.326
19717W        W81138  33.067  43.848   3.268
19718W        W81139   4.328  17.629  14.286
19719W        W81140  30.127  26.087  10.961
19720W        W81141  42.339  25.162  14.363
19721W        W81142  15.318   2.814  12.895
19722W        W81143  36.023  22.070  11.119
19723W        W81144  26.977  44.460   1.448
19724W        W81145  30.470   1.747  12.411
19725W        W81146  10.294  15.193  10.029
19726W        W81147  30.013  37.882   0.850
19727W        W81148  29.167   1.464  14.339
19728W        W81149  42.802   8.284  12.567
19729W        W81150  11.336  28.635   0.959
19730W        W81151  38.547  25.999   1.378
19731W        W81152  12.131  31.095   4.768
19732W        W81153  22.679  27.057   3.248
19733W        W81154   9.691  25.469  10.606
19734W        W81155  40.800   8.706   0.377
19735W        W81156  26.049  21.122   1.758
19736W        W81157  43.396   0.982   9.997
19737W        W81158   2.875  10.336  13.469
19738W        W81159  15.152   8.222   3.358
19739W        W81160  21.186   9.169   4.698
19740W        W81161  41.929  27.476  14.452
19741W        W81162  11.773  38.834   2.839
19742W        W81163  44.407  33.505  11.048
19743W        W81164  21.572  15.172   9.462
19744W        W81165  33.100  13.217   2.726
19745W        W81166  35.998  29.535   0.323
19746W        W81167  37.492  40.924  11.910
19747W        W81168  44.949  13.168  14.501
19748W        W81169  41.855   0.756  12.574
19749W        W81170  41.844  40.358   4.765
19750W        W81171  38.071   8.708  13.044
19751W        W81172  40.420  28.631  13.837
19752W        W81173  31.092  43.804   2.181
19753W        W81174   9.351  27.051   2.288
19754W        W81175  11.725  36.876   2.846
19755W        W81176  19.609  35.893   4.125
19756W        W81177  12.681  16.251   4.276
19757W        W81178  13.812  23.640  11.917
19758W        W81179   8.801  13.335   5.135
19759W        W81180  17.620  16.222  12.072
19760W        W81181   2.928  42.476   3.244
19761W        W81182  38.029  18.655  13.872
19762W        W81183  23.048   5.226   2.294
19763W        W81184   3.930  15.741  12.513
19764W        W81185  24.561  41.465   2.894
19765W        W81186   8.733  32.938  13.500
19766W        W81187  43.430  43.839   4.814
19767W        W81188   6.334  27.952   0.308
19768W        W81189  20.527   1.799  10.503
19769W        W81190  21.535  44.840   1.900
19770W        W81191  12.350  22.591  13.429
19771W        W81192  27.150   0.750  10.921
19772W        W81193  42.459  35.402  12.888
19773W        W81194  18.284  13.315   4.804
19774W        W81195  22.042  18.721   2.714
19775W        W81196  29.493  28.019  11.471
19776W        W81197  40.319  37.880  10.951
19777W        W81198  14.685  15.233   2.279
19778W        W81199  30.112  14.182  13.989
19779W        W81200  34.918  28.521   2.706
19780W        W81201  18.138   4.323   4.170
19781W        W81202   7.225   1.413  10.055
19782W        W81203  38.411  11.297   2.231
19783W        W81204   5.768  13.351   2.223
19784W        W81205   3.810  12.847  10.911
19785W        W81206  22.725   8.386   3.709
19786W        W81207  40.898  22.577   0.734
19787W        W81208  42.347  32.480  12.923
19788W        W81209   4.333  24.625  12.919
19789W        W81210  16.208  29.615  13.917
19790W        W81211  14.204  11.308   4.609
19791W        W81212   0.862   8.668   5.084
19792W        W81213  24.109  24.985  10.986
19793W        W81214  37.507  35.904   0.831
19794W        W81215  41.940  35.454  13.486
19795W        W81216  15.195   8.245   4.249
19796W        W81217  38.011  33.553  13.928
19797W        W81218  16.779  34.104   3.180
19798W        W81219  12.258  40.884   0.965
19799W        W81220  40.896  32.476   3.799
19800W        W81221  31.452  35.909   2.388
19801W        W81222  14.653  35.520   0.298
19802W        W81223  19.733  37.405  14.340
19803W        W81224   3.336  38.344  14.454
19804W        W81225  12.847  30.028   2.889
19805W        W81226  13.765   3.306   1.427
19806W        W81227  16.165  44.402   0.416
19807W        W81228  14.771   2.372   0.347
19808W        W81229  21.559  22.069   1.246
19809W        W81230  34.518   5.310  13.460
19810W        W81231  35.538   1.387   4.678
19811W        W81232  11.658  41.441   9.940
19812W        W81233   1.756   0.849  11.602
19813W        W81234  13.705  35.483   3.315
19814W        W81235  13.831   5.801  11.995
19815W        W81236  29.425  31.572  14.441
19816W        W81237  39.882  36.964   2.395
19817W        W81238  28.519  44.973  13.493
19818W        W81239  30.914  18.778  14.864
19819W        W81240  41.020  20.067   0.267
19820W        W81241  41.505  30.463   3.225
19821W        W81242   1.476  11.129   3.307
19822W        W81243  22.020  19.166  11.499
19823W        W81244   6.380  41.334  13.023
19824W        W81245  27.019   1.942   4.631
19825W        W81246  38.914   8.792  10.115
19826W        W81247   4.807   5.383  10.503
19827W        W81248  21.097  40.049   2.686
19828W        W81249   6.323   4.258   0.316
19829W        W81250  25.100  29.641   3.663
19830W        W81251  20.116  18.739   0.824
19831W        W81252   7.260  36.501  13.503
19832W        W81253  20.136  16.133  13.813
19833W        W81254  19.619   3.347   2.180
19834W        W81255   9.327  14.700   2.287
19835W        W81256  29.076  23.635  11.934
19836W        W81257  36.588  14.664   2.250
19837W        W81258  38.886  10.643   4.295
19838W        W81259  12.130  10.785   2.347
19839W        W81260  10.261  30.062   4.326
19840W        W81261   3.354  24.072   5.709
19841W        W81262   9.833  10.689   1.387
19842W        W81263   3.444   8.710  10.954
19843W        W81264  28.655  12.648   1.254
19844W        W81265  16.748  25.505  13.008
19845W        W81266  38.958   6.689   2.199
19846W        W81267   1.814   9.358  11.492
19847W        W81268  21.145  13.617   2.358
19848W        W81269  42.019  16.287   2.270
19849W        W81270  18.630  40.968   1.227
19850W        W81271  41.308  27.519   3.861
19851W        W81272  32.470  25.701   4.332
19852W        W81273  14.684  12.161  14.313
19853W        W81274  24.557  29.498   0.746
19854W        W81275   7.766  28.514  13.960
19855W        W81276  23.076  13.681   1.753
19856W        W81277  10.648  11.351   3.322
19857W        W81278  26.577  30.514   4.115
19858W        W81279  17.724  15.318  11.080
19859W        W81280  27.450   5.273   4.345
19860W        W81281  32.081   2.776  13.924
19861W        W81282  23.041  22.088   3.345
19862W        W81283   2.330  20.236  13.895
19863W        W81284  13.237  22.032  13.038
19864W        W81285  25.159   4.865   5.255
19865W        W81286  10.345  32.533   5.194
19866W        W81287  18.182  13.183  14.434
19867W        W81288   9.871  21.097  11.393
19868W        W81289   4.296  27.103  14.027
19869W        W81290   5.207  30.916  11.537
19870W        W81291  11.843   0.936  11.928
19871W        W81292  29.989  25.126   0.837
19872W        W81293  40.315   9.329  13.502
19873W        W81294  28.623  34.568   4.788
19874W        W81295  26.168  43.883  10.629
19875W        W81296   3.237   2.301  13.386
19876W        W81297  18.166   1.348   1.870
19877W        W81298  18.749   0.826  14.893
19878W        W81299  27.454  21.681  13.947
19879W        W81300  34.531  34.580  13.313
19880W        W81301  12.183  36.014   0.322
19881W        W81302  40.422  32.541  10.477
19882W        W81303  15.230  21.253  13.026
19883W        W81304  15.690  36.039   1.251
19884W        W81305  30.980  24.586   2.329
19885W        W81306  19.537  19.061   3.213
19886W        W81307  17.116  39.908   4.825
19887W        W81308  28.036  11.215   1.242
19888W        W81309  25.645  14.780   3.777
19889W        W81310   0.876   1.272  14.810
19890W        W81311  15.319  35.100   9.947
19891W        W81312   5.300  42.004   0.355
19892W        W81313   5.338   2.375  11.394
19893W        W81314  13.611  19.636   0.892
19894W        W81315  39.522  34.956   3.782
19895W        W81316  28.606  16.278   4.640
19896W        W81317  17.721   1.369  14.514
19897W        W81318  30.120   8.734  14.796
19898W        W81319   5.216  13.106   2.832
19899W        W81320   3.868  28.138  12.940
19900W        W81321  13.692  19.581  11.474
19901W        W81322  33.456  32.605  14.863
19902W        W81323  37.387   4.718  14.509
19903W        W81324  18.779  10.245   3.298
19904W        W81325  36.436  33.955   0.770
19905W        W81326  14.312  11.249  10.411
19906W        W81327  28.043   3.896  12.948
19907W        W81328  21.090  15.674  11.929
19908W        W81329  35.596  34.611  12.904
19909W        W81330  17.763   8.807  14.404
19910W        W81331  19.061   2.251   0.439
19911W        W81332  12.277   6.389  13.490
19912W        W81333  11.132  22.634   0.948
19913W        W81334  16.725  30.142  13.972
19914W        W81335  32.120  33.030   2.321
19915W        W81336  40.853  23.016   2.210
19916W        W81337  28.147   2.329   0.894
19917W        W81338   5.253  41.504  14.008
19918W        W81339  33.549  17.795   3.210
19919W        W81340  17.195  36.842   2.281
19920W        W81341  20.099  14.144  14.465
19921W        W81342   7.391  21.149   1.817
19922W        W81343  19.175   7.268  12.466
19923W        W81344   8.356  14.256  13.024
19924W        W81345  33.875  18.138  14.516
19925W        W81346  31.624  27.668   3.183
19926W        W81347  15.217  28.548  11.860
19927W        W81348  14.678  35.054   1.780
19928W        W81349  34.928  30.585  14.900
19929W        W81350   0.418  15.707  12.829
19930W        W81351  29.547   9.235   1.440
19931W        W81352  16.317  42.298   4.254
19932W        W81353   7.877  26.461   0.410
19933W        W81354  25.217  19.189   0.382
19934W        W81355  29.935  40.448   3.776
19935W        W81356  42.802  17.162   0.926
19936W        W81357  23.024   4.889  12.022
19937W        W81358   1.241   2.909  12.387
19938W        W81359   2.466  29.047   2.345
19939W        W81360  34.411  18.250  14.421
19940W        W81361   6.679  37.866   5.153
19941W        W81362  37.841  20.060  13.372
19942W        W81363  26.017  13.112   2.288
19943W        W81364  36.853  33.109  10.537
19944W        W81365  36.861  19.100   4.773
19945W        W81366  40.889  19.773  14.980
19946W        W81367  29.431  39.352   2.214
19947W        W81368   7.842  20.684  14.301
19948W        W81369  24.047  39.964  11.004
19949W        W81370  35.519  20.736  14.399
19950W        W81371  42.295  35.860   4.642
19951W        W81372  33.549  36.578  10.613
19952W        W81373  44.494  42.387  14.836
19953W        W81374   8.393  13.340  10.922
19954W        W81375  10.374  32.616   1.873
19955W        W81376  25.483  37.534   0.818
19956W        W81377   7.782  20.174   1.450
19957W        W81378  26.620  25.613   3.763
19958W        W81379  19.114  18.645   3.278
19959W        W81380  43.002  19.662   4.166
19960W        W81381  34.972  33.426  13.901
19961W        W81382  31.139  37.366   1.324
19962W        W81383  17.173  43.836  13.441
19963W        W81384  43.493  43.829   3.646
19964W        W81385  13.669   3.830  10.957
19965W        W81386  19.047  23.554   2.828
19966W        W81387   7.223  12.705   4.310
19967W        W81388  27.515  28.986  12.060
19968W        W81389  28.615  33.421  11.538
19969W        W81390   8.660  42.347   2.870
19970W        W81391  24.056   3.949  12.951
19971W        W81392  22.643   9.242  11.554
19972W        W81393  40.839   7.713  13.493
19973W        W81394  13.134  37.984   1.909
19974W        W81395  42.478  35.510  10.910
19975W        W81396  30.093  31.600  11.455
19976W        W81397  34.109   9.269   0.315
19977W        W81398  31.621  22.148   1.705
19978W        W81399  24.708  41.513  10.428
19979W        W81400  14.114   9.662  13.948
19980W        W81401  41.389  15.188   3.842
19981W        W81402  30.457  13.819   2.355
19982W        W81403  27.957  13.630  14.922
19983W        W81404  38.539   3.308   1.385
19984W        W81405  37.864  15.124  13.478
19985W        W81406  31.047  14.217  13.966
19986W        W81407   1.825  22.665  12.008
19987W        W81408  15.728  16.756   3.669
19988W        W81409  24.534   7.902  11.414
19989W        W81410  11.178   8.898  10.994
19990W        W81411  19.679   0.768  14.473
19991W        W81412  44.821  35.889   3.355
19992W        W81413  34.038   7.905  12.472
19993W        W81414  34.874  38.841   0.338
19994W        W81415   9.283   5.324   4.139
19995W        W81416  30.461  16.716  11.604
19996W        W81417  26.489  41.854   2.353
19997W        W81418  15.229  35.382   0.351
19998W        W81419  41.891   1.447  12.465
19999W        W81420  25.646  12.323  14.797
20000W        W81421  16.570  31.948   1.889
20001W        W81422  35.895  25.682  14.355
20002W        W81423  42.867  30.421  11.044
20003W        W81424   8.895  13.209   2.723
20004W        W81425  36.000  12.705   1.708
20005W        W81426   3.219  14.713  12.530
20006W        W81427  43.421  26.552  14.783
20007W        W81428  24.493  40.381  14.775
20008W        W81429   8.383  27.944   0.831
20009W        W81430   4.698   8.364  13.927
20010W        W81431  41.792  31.088  10.993
20011W        W81432  37.361  27.640  14.852
20012W        W81433  36.852  31.940  13.394
20013W        W81434  15.626   6.353   2.732
20014W        W81435  19.096   0.348  11.439
20015W        W81436  33.615  20.604  13.975
20016W        W81437  33.483   9.151   0.879
20017W        W81438  44.337  20.609   2.740
20018W        W81439  27.955   9.760  13.363
20019W        W81440  11.834  40.310   9.988
20020W        W81441   2.964  11.182  13.990
20021W        W81442  28.438  29.941   0.834
20022W        W81443  34.019  10.362  10.609
20023W        W81444   4.843  34.087   1.441
20024W        W81445  25.657  30.975   3.711
20025W        W81446  30.063   6.366   2.190
20026W        W81447  17.558  21.021  12.032
20027W        W81448  29.548   4.821  14.998
20028W        W81449  25.633  32.601  10.488
20029W        W81450   6.725  28.594  12.526
20030W        W81451  12.121  20.178   1.726
20031W        W81452  29.602   9.324  10.945
20032W        W81453   3.369  24.524  12.354
20033W        W81454   2.236  31.921   3.162
20034W        W81455  43.767  17.142  12.563
20035W        W81456   1.873  29.926  14.939
20036W        W81457  13.603   1.973  13.325
20037W        W81458  44.430  33.436  14.386
20038W        W81459  25.078   0.345  12.440
20039W        W81460  26.540  24.638  14.030
20040W        W81461  16.243   4.853   0.959
20041W        W81462  33.584  17.234   2.277
20042W        W81463  26.492  36.968  12.460
20043W        W81464   3.923  13.157  12.011
20044W        W81465  43.913  10.262   2.349
20045W        W81466  25.075  25.204   1.422
20046W        W81467  26.209  41.311  13.937
20047W        W81468  17.745  42.991  13.381
20048W        W81469  26.040  36.383   3.728
20049W        W81470   4.793  42.505  10.528
20050W        W81471  44.274  13.231   1.339
20051W        W81472  17.093  33.942  13.542
20052W        W81473  36.994  30.122  14.877
20053W        W81474   3.787   1.819  11.049
20054W        W81475  13.796  30.098  13.862
20055W        W81476   8.295  22.181   1.876
20056W        W81477   3.911  30.606  10.547
20057W        W81478  38.571   8.277  11.426
20058W        W81479  37.368   9.233   1.803
20059W        W81480  14.659  25.204   2.220
20060W        W81481   3.354   9.822   2.186
20061W        W81482  35.990   6.867   4.193
20062W        W81483  30.607  30.977  11.108
20063W        W81484  38.825  40.451  13.049
20064W        W81485  43.822  15.249  14.957
20065W        W81486  29.028  10.325  12.054
20066W        W81487   0.417  20.248   2.886
20067W        W81488  22.511  40.854  12.369
20068W        W81489  28.623   1.379   0.730
20069W        W81490  42.485  31.911  14.846
20070W        W81491  15.607  14.250   5.211
20071W        W81492  29.538  38.386  10.431
20072W        W81493  11.716   7.385   2.727
20073W        W81494  41.866  40.831  12.405
20074W        W81495  23.230  23.626   3.860
20075W        W81496  33.508  26.987   0.830
20076W        W81497  38.376  26.008   3.764
20077W        W81498  23.648  42.004  11.057
20078W        W81499  18.067  42.023   4.182
20079W        W81500  11.364  35.102   4.243
20080W        W81501  44.865  39.845  11.942
20081W        W81502  25.667  13.114  13.391
20082W        W81503  10.794   7.774  12.348
20083W        W81504  32.111  35.399   4.143
20084W        W81505  12.624  24.479   0.959
20085W        W81506  42.363  44.411  10.569
20086W        W81507   0.442   5.804  11.890
20087W        W81508  31.422  20.087   0.256
20088W        W81509  41.823  43.790   0.906
20089W        W81510  14.655  38.869   3.752
20090W        W81511  29.505  12.665  14.920
20091W        W81512  11.311  25.110  11.958
20092W        W81513  31.600  42.365   2.894
20093W        W81514  24.181  30.458   1.422
20094W        W81515   2.763  17.778  12.430
20095W        W81516  34.896  12.267   2.782
20096W        W81517   3.715  20.754  11.444
20097W        W81518  39.936  27.083   0.312
20098W        W81519  35.985   8.850   2.673
20099W        W81520  32.420  28.486  11.402
20100W        W81521  32.980  41.865   3.342
20101W        W81522  10.657   1.328   2.230
20102W        W81523  33.551  32.957  11.481
20103W        W81524  36.079  20.639   1.797
20104W        W81525  43.303  16.140   2.268
20105W        W81526  11.688  18.708  14.781
20106W        W81527  22.708   7.820  13.943
20107W        W81528  31.460  15.583  11.545
20108W        W81529  27.172   7.274   2.386
20109W        W81530   4.245  35.591  13.519
20110W        W81531   4.442  13.336   4.796
20111W        W81532   9.843  26.008   0.826
20112W        W81533  22.532  43.445  10.597
20113W        W81534  20.030  12.833   1.761
20114W        W81535   6.319  20.688  11.996
20115W        W81536  12.221   0.483  14.393
20116W        W81537  13.698   7.223  14.471
20117W        W81538  44.850  22.520   1.239
20118W        W81539  26.478  26.119   3.175
20119W        W81540  16.232   9.870   0.327
20120W        W81541  21.026   9.326  13.986
20121W        W81542  30.436  26.530  12.901
20122W        W81543   1.432  28.118   1.744
20123W        W81544  10.349  26.176  10.572
20124W        W81545  21.706  28.495   0.382
20125W        W81546  26.173   6.885   3.738
20126W        W81547  36.911  14.256  10.975
20127W        W81548  13.717  14.718   4.646
20128W        W81549   6.730  27.064  12.978
20129W        W81550  20.127  13.826   3.702
20130W        W81551   7.320  33.437   2.281
20131W        W81552  40.947  44.460  12.008
20132W        W81553  32.549  41.848   1.278
20133W        W81554  15.189  12.185  14.448
20134W        W81555  17.279  30.021  13.497
20135W        W81556  21.191   9.764  12.084
20136W        W81557   1.876  19.061  11.475
20137W        W81558   5.832   7.781   4.629
20138W        W81559  36.404  21.080   0.880
20139W        W81560  27.547  15.265   1.888
20140W        W81561  16.270  16.798   2.344
20141W        W81562  26.510  38.431  14.782
20142W        W81563  36.977  35.974  14.982
20143W        W81564  34.979  24.704   2.241
20144W        W81565  37.384  43.993  10.054
20145W        W81566  11.361  24.055   4.661
20146W        W81567  34.075  11.130   3.860
20147W        W81568  29.064   4.322  10.637
20148W        W81569  22.612  26.656   2.746
20149W        W81570  29.502  31.967   2.786
20150W        W81571  21.148  30.549   1.914
20151W        W81572   1.448  12.841   2.237
20152W        W81573  18.108   6.758   3.810
20153W        W81574  16.696  13.232   2.335
20154W        W81575  19.083  17.587  13.540
20155W        W81576  31.606  39.935  12.939
20156W        W81577   5.386  19.084  13.370
20157W        W81578  36.064  39.430  14.000
20158W        W81579  16.135  41.850   3.233
20159W        W81580   8.286  20.159  13.020
20160W        W81581  13.280  12.698  13.961
20161W        W81582  31.059  17.612  12.029
20162W        W81583  23.502   6.860   2.738
20163W        W81584  36.851  27.023   2.202
20164W        W81585  32.915  26.038   3.285
20165W        W81586   8.718  13.204   4.333
20166W        W81587  37.878  15.240   0.863
20167W        W81588   9.723  27.952   4.815
20168W        W81589  31.593  37.873   3.191
20169W        W81590  43.386  33.897  14.026
20170W        W81591  40.395  13.679   1.762
20171W        W81592  41.532  27.015  10.437
20172W        W81593   9.304  41.907  14.803
20173W        W81594  36.017  37.027  11.901
20174W        W81595  11.329  40.375   4.264
20175W        W81596  36.387   0.773   0.965
20176W        W81597  18.591  24.672  11.399
20177W        W81598   6.215  11.683   9.977
20178W        W81599  41.330  30.150  14.315
20179W        W81600  17.669   8.785  12.060
20180W        W81601  29.026  35.482   1.779
20181W        W81602  25.667  17.640  10.448
20182W        W81603  12.232   4.274  13.981
20183W        W81604  10.655  32.487   3.368
20184W        W81605  12.137  24.054   0.769
20185W        W81606   5.370  10.338   2.870
20186W        W81607  34.451  35.406   4.690
20187W        W81608  22.695  16.593   4.177
20188W        W81609  39.523  37.889   1.924
20189W        W81610  44.276  14.285  13.342
20190W        W81611   8.366  22.569  13.802
20191W        W81612  38.384  36.498   0.417
20192W        W81613   9.314  40.812  14.312
20193W        W81614   6.244  29.129  10.118
20194W        W81615   2.423  25.087   5.221
20195W        W81616   4.890  28.606   4.781
20196W        W81617  12.622  41.826  13.370
20197W        W81618  32.602  44.792   3.830
20198W        W81619   6.714  33.477  13.037
20199W        W81620   7.357  41.351   2.883
20200W        W81621  38.327  27.508  14.448
20201W        W81622  31.537  28.466  13.338
20202W        W81623  33.528  30.590   1.935
20203W        W81624  30.059  32.517  14.472
20204W        W81625  22.054  42.836  10.617
20205W        W81626  38.958  37.360  13.060
20206W        W81627  35.464   0.422  10.516
20207W        W81628  16.294   3.804  11.004
20208W        W81629   5.274   2.735   1.344
20209W        W81630   3.435   2.881  13.336
20210W        W81631  41.036   6.906   1.320
20211W        W81632  35.575  40.314  11.546
20212W        W81633  17.172  32.020  12.063
20213W        W81634  43.415  25.712   4.703
20214W        W81635  31.413  16.568  13.797
20215W        W81636  41.449  34.117   1.349
20216W        W81637  44.291  39.546   4.327
20217W        W81638   0.274   9.733  14.426
20218W        W81639  33.481  39.958   2.384
20219W        W81640  19.622  34.008   4.769
20220W        W81641  16.167  39.509  11.582
20221W        W81642   2.860   7.309   1.895
20222W        W81643  31.465  25.985  14.314
20223W        W81644  39.979  43.277  11.545
20224W        W81645  42.370  28.468   0.340
20225W        W81646  36.042  41.898  14.432
20226W        W81647  43.766  31.415  13.378
20227W        W81648  40.549  15.669   1.345
20228W        W81649  17.746  33.984   0.299
20229W        W81650  31.502   6.237  12.833
20230W        W81651  23.551   3.822   4.748
20231W        W81652  12.344  38.931  13.401
20232W        W81653  16.721  44.845   1.910
20233W        W81654  38.866  29.482   1.283
20234W        W81655  27.588   2.277   1.226
20235W        W81656  22.553   7.752   5.145
20236W        W81657  31.506   6.801   3.234
20237W        W81658   5.332  13.133  12.341
20238W        W81659   6.311  38.398   0.456
20239W        W81660  37.358  29.047  14.503
20240W        W81661   5.291  14.718   0.439
20241W        W81662  43.905  19.665   4.284
20242W        W81663  32.517  12.160   5.090
20243W        W81664   5.420  32.061   5.182
20244W        W81665  19.124  17.067   2.248
20245W        W81666  15.761  11.196  10.586
20246W        W81667  38.554   5.235  13.408
20247W        W81668  40.934   9.270   3.216
20248W        W81669  36.883  37.908  13.421
20249W        W81670  44.985  23.123  12.536
20250W        W81671   6.266  18.579  10.925
20251W        W81672   8.400  18.105   1.213
20252W        W81673   9.232   8.227   3.383
20253W        W81674   7.259  26.609  13.840
20254W        W81675  11.137   6.367   3.760
20255W        W81676  16.231  18.702   4.241
20256W        W81677  44.368   5.703  14.498
20257W        W81678   7.340  39.841   2.406
20258W        W81679  38.934  19.281  10.941
20259W        W81680  29.158  30.475  11.439
20260W        W81681  42.821  38.972  12.002
20261W        W81682  39.352   4.206   4.636
20262W        W81683  10.180   7.683   4.139
20263W        W81684  39.025  38.828   0.939
20264W        W81685   7.350   2.378   0.452
20265W        W81686   8.674   0.752   2.302
20266W        W81687  15.086   6.375  11.078
20267W        W81688  11.206   0.743   1.917
20268W        W81689  39.061  36.090  10.106
20269W        W81690   1.413  20.659   2.889
20270W        W81691  31.470  10.810  11.859
20271W        W81692  41.868   9.163   2.796
20272W        W81693   3.925  32.908  12.916
20273W        W81694  28.601  44.982   4.656
20274W        W81695  37.062  16.154  11.889
20275W        W81696  28.457  33.105   3.796
20276W        W81697  25.613  17.288  13.852
20277W        W81698  26.494  36.347   1.376
20278W        W81699  28.124  34.043   3.679
20279W        W81700  28.527  21.063  13.355
20280W        W81701  25.119  24.151  10.537
20281W        W81702  20.128  41.349   2.231
20282W        W81703  38.988   3.327  10.599
20283W        W81704   1.314  42.374   4.827
20284W        W81705   2.796  26.534   1.761
20285W        W81706   0.304  33.879   3.152
20286W        W81707  28.466  21.040   5.123
20287W        W81708  26.959  22.681   4.742
20288W        W81709  20.117   7.901  14.357
20289W        W81710  21.084  25.531   2.181
20290W        W81711  24.571  17.589   4.730
20291W        W81712   1.938  19.139   2.277
20292W        W81713  17.176   0.864   3.829
20293W        W81714  24.535  15.789  13.043
20294W        W81715  21.088   2.726  13.938
20295W        W81716  41.963  17.725  10.641
20296W        W81717  11.698  42.794  11.412
20297W        W81718  41.942  32.539   3.240
20298W        W81719  12.800  22.073  13.366
20299W        W81720  26.491   5.247  14.978
20300W        W81721  42.496  34.119  11.066
20301W        W81722  29.575  18.272  10.083
20302W        W81723   9.294  35.481   2.891
20303W        W81724  44.782  27.473  10.439
20304W        W81725  42.452  27.641  14.289
20305W        W81726  26.517  42.442  12.554
20306W        W81727  22.554  19.271   3.363
20307W        W81728  34.590  40.893   2.815
20308W        W81729  17.631  11.696  13.468
20309W        W81730   9.264  14.612   0.366
20310W        W81731  20.687  44.357   2.404
20311W        W81732  23.997  17.166   1.748
20312W        W81733  27.449   5.755   2.188
20313W        W81734  22.119  16.674  12.450
20314W        W81735  25.213  10.271   2.199
20315W        W81736  24.663  35.559   4.690
20316W        W81737  40.049  33.968   2.182
20317W        W81738  17.735  20.065   3.716
20318W        W81739  26.697   2.798   0.803
20319W        W81740  22.720  39.314  11.108
20320W        W81741  11.300  10.854   2.414
20321W        W81742  27.613  39.541  13.977
20322W        W81743   7.720  26.969  10.889
20323W        W81744  19.065   4.368  14.779
20324W        W81745   7.745  18.583   3.665
20325W        W81746  39.452  14.752  12.402
20326W        W81747  31.898  42.949   1.322
20327W        W81748  40.396  32.128  11.418
20328W        W81749   3.794   9.194   1.881
20329W        W81750  11.796  25.211   0.368
20330W        W81751   4.833  36.924  11.440
20331W        W81752   4.240  34.978  11.612
20332W        W81753  29.585  22.199  14.434
20333W        W81754   0.891  38.822  10.564
20334W        W81755  23.530  15.236   3.822
20335W        W81756   8.673  35.501  12.921
20336W        W81757   3.803  19.657  12.433
20337W        W81758   4.399  32.967   2.674
20338W        W81759  21.633  36.916   3.713
20339W        W81760  43.462   3.249   0.339
20340W        W81761  16.638   9.811  14.874
20341W        W81762  38.035  12.302   4.191
20342W        W81763  42.489  28.037   2.821
20343W        W81764  36.974  12.740   4.760
20344W        W81765   8.868  32.055  14.362
20345W        W81766  43.860   8.890   0.431
20346W        W81767   8.340  16.257  12.935
20347W        W81768  34.530   3.363   0.769
20348W        W81769   5.887  18.607  13.809
20349W        W81770  22.567  35.943  11.421
20350W        W81771   0.316  35.987   4.768
20351W        W81772   5.369   9.303   1.448
20352W        W81773   2.430  30.639  10.985
20353W        W81774  40.847  10.317   2.417
20354W        W81775  22.996  10.252   0.885
20355W        W81776  41.879  13.115   5.724
20356W        W81777   4.879  44.399  11.932
20357W        W81778  17.745  22.580  13.856
20358W        W81779  26.994  42.311  14.885
20359W        W81780  35.077  34.544  13.537
20360W        W81781  42.794  27.976   0.395
20361W        W81782  29.555   0.952   1.307
20362W        W81783  18.555  26.966  12.346
20363W        W81784   2.449  16.796  13.536
20364W        W81785  20.638  33.043   4.293
20365W        W81786  15.748  13.116   3.718
20366W        W81787  16.740  20.736   0.733
20367W        W81788   0.766   4.939   9.983
20368W        W81789   0.871  18.566   1.396
20369W        W81790  28.106  33.949  11.882
20370W        W81791  13.702  41.007  14.818
20371W        W81792  30.413   6.794  13.013
20372W        W81793   1.440   9.728  14.336
20373W        W81794  20.123  18.184   5.796
20374W        W81795  30.501  20.553   0.481
20375W        W81796  36.550   4.302  14.948
20376W        W81797   6.362   7.830  12.827
20377W        W81798  31.977  21.651  13.332
20378W        W81799  26.586  11.342   4.629
20379W        W81800  36.971  10.853   0.465
20380W        W81801   5.770  17.234   1.805
20381W        W81802   7.307  26.017   5.300
20382W        W81803  15.807  16.261   3.357
20383W        W81804  44.816  20.174   4.615
20384W        W81805   5.316  33.503  14.861
20385W        W81806  20.667  20.184   1.793
20386W        W81807  41.854  22.200   2.195
20387W        W81808   7.665  28.154   2.829
20388W        W81809  26.099   5.765  14.324
20389W        W81810   1.409  22.702   1.449
20390W        W81811   9.833  36.895   1.732
20391W        W81812  20.167   7.311   0.738
20392W        W81813  35.971  15.624  12.457
20393W        W81814  44.333  20.709  13.969
20394W        W81815  38.843  16.198  13.454
20395W        W81816   2.441   4.878  13.014
20396W        W81817  17.101  29.993  10.502
20397W        W81818  32.086  13.817   5.096
20398W        W81819  34.522  10.291  10.953
20399W        W81820  12.648  36.034  11.390
20400W        W81821   7.697  37.538   1.742
20401W        W81822  30.553   8.179  11.432
20402W        W81823  21.675   1.451   2.210
20403W        W81824   3.891   7.867   1.234
20404W        W81825  24.104  39.442   2.723
20405W        W81826  34.433  11.216   2.677
20406W        W81827  42.392  19.112   4.220
20407W        W81828   9.719   1.954   2.229
20408W        W81829  34.372   9.822   0.757
20409W        W81830  38.514  29.002  12.536
20410W        W81831   5.331   4.272   2.741
20411W        W81832   9.838  13.166   1.805
20412W        W81833  28.947  37.505   4.328
20413W        W81834  13.791   2.343  12.912
20414W        W81835  19.247  29.534   1.743
20415W        W81836  39.426  30.103   1.786
20416W        W81837   9.721  40.487  10.975
20417W        W81838  36.375  15.210   1.856
20418W        W81839  39.546  17.717   1.741
20419W        W81840  20.636  36.582   2.306
20420W        W81841  36.469  32.014   3.869
20421W        W81842  44.418  10.198  13.331
20422W        W81843   4.766  11.696   1.406
20423W        W81844  30.511  34.603  11.091
20424W        W81845  38.342  42.908  10.137
20425W        W81846   2.776  13.185  11.402
20426W        W81847  24.595   5.240   1.214
20427W        W81848   9.178   1.928   5.213
20428W        W81849  20.274  31.143   1.370
20429W        W81850  38.566  24.198  11.078
20430W        W81851  12.263  35.543   0.371
20431W        W81852  29.956  23.512   3.804
20432W        W81853   1.852  11.130  11.073
20433W        W81854  19.259   9.757   3.784
20434W        W81855  27.462  23.015   2.211
20435W        W81856  13.742  30.059   0.905
20436W        W81857  39.540  41.311   1.300
20437W        W81858  25.616   6.914  14.361
20438W        W81859  40.458  41.434  14.807
20439W        W81860  25.079  16.234  10.509
20440W        W81861  27.642  29.458  13.527
20441W        W81862  10.325  11.663  13.903
20442W        W81863   9.790   4.830  14.382
20443W        W81864  28.588  29.969   1.301
20444W        W81865  29.962  18.625   2.198
20445W        W81866  17.173  30.632   5.765
20446W        W81867  20.180   6.701   0.285
20447W        W81868  24.537   2.253  12.029
20448W        W81869   8.656  23.215   1.714
20449W        W81870  12.799  35.853   1.314
20450W        W81871  36.997  38.992  14.306
20451W        W81872  38.346  22.746   3.210
20452W        W81873  28.559  34.028   4.164
20453W        W81874   4.735  22.142  10.428
20454W        W81875  17.285  22.118   2.690
20455W        W81876  19.188  29.129  13.939
20456W        W81877   8.294  21.064  14.807
20457W        W81878  23.157   3.292  13.922
20458W        W81879  44.807   9.242  14.889
20459W        W81880  10.844   9.155  12.907
20460W        W81881  37.053  10.241   0.363
20461W        W81882  42.341   3.852   2.231
20462W        W81883  13.841  37.565   0.452
20463W        W81884  35.899  41.385  11.091
20464W        W81885  36.434  22.570   2.815
20465W        W81886  33.062   6.851   4.823
20466W        W81887  33.110   5.738  12.963
20467W        W81888  26.995  13.651   0.820
20468W        W81889  40.002   3.292   3.146
20469W        W81890  12.216  41.948   4.621
20470W        W81891   0.850  30.552   0.903
20471W        W81892  40.033  25.004  13.396
20472W        W81893  34.932  43.422  13.930
20473W        W81894  40.959  10.235  13.476
20474W        W81895  12.216   7.215  14.787
20475W        W81896   6.848   7.358  14.304
20476W        W81897  34.920   6.364  12.033
20477W        W81898   0.428  10.793   0.939
20478W        W81899  40.965   1.957   2.684
20479W        W81900  19.084  25.186  11.380
20480W        W81901  19.084  44.839  14.781
20481W        W81902  24.712  40.847  12.478
20482W        W81903  23.515  34.980  11.097
20483W        W81904  40.051  11.215  14.459
20484W        W81905  42.513  37.914  14.898
20485W        W81906  12.776   3.915  12.556
20486W        W81907   4.223  33.440   3.225
20487W        W81908  40.972  25.088   1.924
20488W        W81909   6.849  31.010   2.281
20489W        W81910   2.437  34.552   4.272
20490W        W81911   0.465  39.357  13.904
20491W        W81912  38.542  41.852  12.866
20492W        W81913  10.301  43.821  12.972
20493W        W81914  32.531  28.080   4.767
20494W        W81915   4.839  38.389  14.299
20495W        W81916  41.522   9.363  14.024
20496W        W81917   6.202  27.689  13.353
20497W        W81918   5.853  39.993   2.740
20498W        W81919  30.047  32.402  12.513
20499W        W81920   7.683  14.625  10.546
20500W        W81921  38.852  44.856  11.390
20501W        W81922   4.779  45.000   9.963
20502W        W81923  32.896  12.350   4.737
20503W        W81924  39.521   1.862  14.344
20504W        W81925  27.187  42.031  12.940
20505W        W81926  20.592  22.716  13.825
20506W        W81927  19.236  17.207   4.224
20507W        W81928  38.403  26.961  13.380
20508W        W81929  24.082  12.203   1.931
20509W        W81930  44.006  23.653  13.889
20510W        W81931   7.818  26.536  10.107
20511W        W81932  21.077  23.174   4.284
20512W        W81933  34.896  44.433  14.824
20513W        W81934   6.264  17.146  11.395
20514W        W81935  30.911  33.113  11.073
20515W        W81936  20.201  17.711   9.528
20516W        W81937  41.353  35.869  14.481
20517W        W81938  40.358  10.838  11.940
20518W        W81939  13.270  11.367  13.897
20519W        W81940  15.209  18.226  13.033
20520W        W81941   9.169   9.660   3.670
20521W        W81942  19.102   5.925   0.957
20522W        W81943   5.196  30.963  13.468
20523W        W81944  36.415  26.957  12.476
20524W        W81945  40.446  38.904   0.406
20525W        W81946   9.300  36.087   0.810
20526W        W81947  33.896  23.081  14.306
20527W        W81948   5.921  27.977   0.827
20528W        W81949  16.679   4.911   4.155
20529W        W81950  17.662  17.151  14.421
20530W        W81951   2.731   1.941   1.450
20531W        W81952  15.581  36.925  10.504
20532W        W81953   3.911   7.767  14.007
20533W        W81954  38.539  15.609  11.457
20534W        W81955  15.185  36.511  13.439
20535W        W81956  15.245  35.407   4.184
20536W        W81957   7.320  29.571  14.372
20537W        W81958   5.193  29.458   4.302
20538W        W81959  24.156   4.415   4.324
20539W        W81960  44.949   4.376  14.315
20540W        W81961  35.536   2.448  13.524
20541W        W81962  22.230  31.121   2.822
20542W        W81963  30.977  12.824  14.793
20543W        W81964   4.817  21.731  10.950
20544W        W81965  39.410  35.017   4.336
20545W        W81966  32.507   8.231   2.335
20546W        W81967   2.396  19.081   2.685
20547W        W81968  23.668  33.398  10.900
20548W        W81969  33.118  13.765   5.272
20549W        W81970  12.658  22.194  10.951
20550W        W81971   8.276   0.391  11.389
20551W        W81972  40.799  38.913  10.610
20552W        W81973  19.214   1.294   0.774
20553W        W81974  17.122  19.064   0.746
20554W        W81975  19.724  36.542  10.635
20555W        W81976  43.285  13.172  14.471
20556W        W81977  36.965  34.577   2.380
20557W        W81978  42.458  41.842   2.714
20558W        W81979  26.563  17.307  12.904
20559W        W81980  41.944  31.555   2.726
20560W        W81981  29.429  17.172  12.857
20561W        W81982  37.550   4.322   0.266
20562W        W81983  21.684  31.919   0.830
20563W        W81984  34.392  37.529  12.911
20564W        W81985  10.277  14.737   0.445
20565W        W81986   9.306  17.113   2.826
20566W        W81987  22.235  28.106   2.750
20567W        W81988  14.646  30.943   1.395
20568W        W81989  32.506  41.805   2.295
20569W        W81990   4.449  31.916   2.739
20570W        W81991  39.010   4.218   4.322
20571W        W81992  13.645  12.828  11.511
20572W        W81993  18.745  30.031   2.262
20573W        W81994  36.578  26.014  13.322
20574W        W81995  21.711  12.273  10.014
20575W        W81996  33.056  12.845   9.638
20576W        W81997  16.787  23.653  10.532
20577W        W81998  20.590  15.233   1.332
20578W        W81999  30.999  38.485  11.081
20579W        W82000  23.091   0.490  11.119
20580W        W82001   8.353   0.988  14.481
20581W        W82002  22.251  21.095   0.385
20582W        W82003  13.744  19.083   4.653
20583W        W82004  12.840  39.861  14.970
20584W        W82005  32.037  39.344   1.311
20585W        W82006  34.107  34.419  14.001
20586W        W82007  37.507  27.641  13.406
20587W        W82008  40.875  39.820   4.130
20588W        W82009  30.638  34.557  12.014
20589W        W82010  26.519  36.504   3.764
20590W        W82011  26.571  28.028  12.039
20591W        W82012  19.103   8.243  13.903
20592W        W82013   9.248  21.128  10.592
20593W        W82014   3.909  18.549  10.594
20594W        W82015  29.014  20.693   4.343
20595W        W82016  20.618   3.881   5.280
20596W        W82017  37.346  34.480  11.071
20597W        W82018  35.414   0.405   2.293
20598W        W82019  38.824  38.833   4.675
20599W        W82020  22.535  42.453  12.076
20600W        W82021  12.652  27.003  11.049
20601W        W82022  12.303   4.891  11.423
20602W        W82023  31.988  17.771   2.732
20603W        W82024   9.703  42.870   2.746
20604W        W82025  36.459   2.820   2.724
20605W        W82026  25.581  10.170   4.162
20606W        W82027   7.875   8.812  11.533
20607W        W82028  13.206  31.525   3.731
20608W        W82029  16.257  26.037  12.825
20609W        W82030   7.345  35.010  13.546
20610W        W82031   6.242  17.763  11.478
20611W        W82032  42.900  20.592   4.670
20612W        W82033  41.893   9.227  11.051
20613W        W82034   2.329  25.094  11.956
20614W        W82035  26.615  33.099   3.149
20615W        W82036  19.600  20.164   1.416
20616W        W82037  22.999  38.443  13.379
20617W        W82038  29.431  34.477  14.877
20618W        W82039  37.956  42.904   1.342
20619W        W82040   7.363  16.086   1.286
20620W        W82041  15.701  14.745   0.369
20621W        W82042  17.076  28.017  12.570
20622W        W82043   7.891   6.212  14.833
20623W        W82044  24.686  10.158  13.951
20624W        W82045  20.162  43.926   1.389
20625W        W82046  28.508  24.222   4.681
20626W        W82047  10.184  25.055  10.462
20627W        W82048  33.501  24.991   5.157
20628W        W82049  24.479  11.777   0.432
20629W        W82050  12.262  16.194   0.895
20630W        W82051  23.047  17.638  12.529
20631W        W82052   3.825  39.835   0.327
20632W        W82053   8.684  29.126  14.815
20633W        W82054  21.732  32.004  12.517
20634W        W82055   8.357  19.171   1.368
20635W        W82056  19.711  43.269   4.664
20636W        W82057  35.468  11.330   1.721
20637W        W82058  25.475   2.819   0.755
20638W        W82059  41.909  40.865   2.806
20639W        W82060  41.436  31.417   1.352
20640W        W82061  22.516   0.948   4.113
20641W        W82062  31.099  18.095   4.736
20642W        W82063  26.976  43.969  11.583
20643W        W82064  31.632  17.176  10.922
20644W        W82065   3.715  19.230  12.914
20645W        W82066   3.747  16.106  10.413
20646W        W82067  11.371  28.119  11.917
20647W        W82068  36.471  13.112  11.516
20648W        W82069  39.864  40.317   1.857
20649W        W82070  40.480  43.007   4.330
20650W        W82071   3.415  12.245   3.756
20651W        W82072  19.619   7.369  10.629
20652W        W82073  35.917   5.924  13.542
20653W        W82074  10.634  38.466   3.646
20654W        W82075   7.750  17.074  13.454
20655W        W82076   6.911   8.775  14.839
20656W        W82077  21.554  37.390  13.364
20657W        W82078  38.359  44.851  14.388
20658W        W82079  36.000  42.786  12.495
20659W        W82080  14.277  26.677   0.367
20660W        W82081  30.063  19.067   2.391
20661W        W82082   2.230  36.575   2.757
20662W        W82083   8.716  37.973  11.597
20663W        W82084  13.349  25.516   4.193
20664W        W82085  25.023  15.784   1.770
20665W        W82086  39.362  37.018   0.895
20666W        W82087  27.067  21.192  10.604
20667W        W82088  40.843  36.586  14.480
20668W        W82089  31.100  26.468   2.805
20669W        W82090   9.834  40.872  11.989
20670W        W82091   7.816  31.407   0.941
20671W        W82092  13.124  14.326  13.878
20672W        W82093   7.407   3.886   2.340
20673W        W82094  28.948  42.940  10.514
20674W        W82095  38.998  11.702   1.711
20675W        W82096   1.920   0.360  14.771
20676W        W82097   0.800  10.361  10.581
20677W        W82098  20.563  27.102  10.560
20678W        W82099  19.707  30.486  10.519
20679W        W82100  35.397  15.227  14.915
20680W        W82101  11.735   4.280  14.287
20681W        W82102  43.890  18.737   4.654
20682W        W82103  33.400  34.528   3.659
20683W        W82104  20.613  36.092   4.288
20684W        W82105  39.969  21.073  13.356
20685W        W82106  10.768   1.885  12.385
20686W        W82107  43.368  31.563   2.723
20687W        W82108  21.746  38.925  12.562
20688W        W82109  44.982  28.500  10.547
20689W        W82110  41.343  12.222   0.926
20690W        W82111  42.296  16.589  12.066
20691W        W82112   6.205  11.668  12.040
20692W        W82113  40.516  33.034   2.876
20693W        W82114  27.641  27.602   1.753
20694W        W82115  37.456   4.875  11.018
20695W        W82116  41.427  15.714  14.428
20696W        W82117  23.584  11.683  10.546
20697W        W82118  12.792  30.447  12.066
20698W        W82119  23.236   0.765   4.825
20699W        W82120  12.263   7.274   0.340
20700W        W82121  14.615  18.562   2.406
20701W        W82122   3.456   6.327  14.380
20702W        W82123  42.971  39.543  13.018
20703W        W82124   2.403   7.199  14.511
20704W        W82125   5.706   7.369  14.904
20705W        W82126   5.271   8.712   4.810
20706W        W82127  42.295   6.386  12.352
20707W        W82128  25.967  40.530  14.870
20708W        W82129  42.989  26.648  12.970
20709W        W82130  42.287  28.569  12.942
20710W        W82131  17.075  37.386   2.828
20711W        W82132  42.423  40.930  11.985
20712W        W82133  20.565  31.056  11.565
20713W        W82134  33.443  29.134  11.064
20714W        W82135  36.368  17.247   3.361
20715W        W82136  39.992   0.476   4.762
20716W        W82137  27.106   7.843   3.860
20717W        W82138  18.259   8.321   3.340
20718W        W82139   3.911  37.376   1.261
20719W        W82140  21.132   4.727   1.721
20720W        W82141  13.704   8.801   3.208
20721W        W82142  42.421   6.286   2.887
20722W        W82143   9.373  16.732  10.602
20723W        W82144  17.266   8.735  14.833
20724W        W82145  36.910  43.332   1.236
20725W        W82146  16.281  15.252   4.156
20726W        W82147  19.566  38.026   4.344
20727W        W82148  20.030  10.300   0.457
20728W        W82149   1.322  27.113   2.305
20729W        W82150   4.791  17.125  13.921
20730W        W82151  37.871   6.844   0.418
20731W        W82152  28.632  33.613  11.982
20732W        W82153   7.797  22.076  13.500
20733W        W82154   3.320  11.737   0.952
20734W        W82155  32.886  15.173   0.918
20735W        W82156  11.321   5.242   0.333
20736W        W82157  35.054  21.078   5.177
20737W        W82158  14.606  38.842  13.841
20738W        W82159   9.254  29.593   0.814
20739W        W82160  31.065  17.782  10.503
20740W        W82161  16.726  29.524   3.255
20741W        W82162   2.765  27.607  13.403
20742W        W82163  15.761  30.133   1.243
20743W        W82164   2.239  23.142   1.378
20744W        W82165  24.992   4.833  11.008
20745W        W82166  41.802  31.933  10.543
20746W        W82167  38.851  28.182   0.812
20747W        W82168  39.871  38.373  12.384
20748W        W82169  44.771  41.912  14.978
20749W        W82170  26.075  34.060  12.875
20750W        W82171  15.136   8.229   3.728
20751W        W82172  31.478  19.285  11.863
20752W        W82173  21.028  20.120  10.991
20753W        W82174  10.717  11.699  10.059
20754W        W82175  35.442  35.528  12.020
20755W        W82176   7.889  17.287  11.084
20756W        W82177  18.074  29.622  12.936
20757W        W82178  30.531   5.333   4.122
20758W        W82179  32.101   3.352  10.568
20759W        W82180  21.122  19.268  13.049
20760W        W82181  18.721  44.861   3.174
20761W        W82182   0.444  16.093   3.710
20762W        W82183  31.611  43.960  12.377
20763W        W82184  18.292  23.103  13.508
20764W        W82185  30.000  35.583   0.371
20765W        W82186  20.644  40.341   1.792
20766W        W82187  34.881  40.869   1.340
20767W        W82188  29.142   8.716  10.430
20768W        W82189  36.969  20.148   1.751
20769W        W82190  14.340  28.654  13.311
20770W        W82191   5.337  21.057  14.020
20771W        W82192  16.104   0.872   4.647
20772W        W82193   2.313  23.143   4.825
20773W        W82194  17.095   2.737  12.406
20774W        W82195   8.816   0.960   2.766
20775W        W82196  41.823   3.904  12.921
20776W        W82197  29.519  37.443  14.011
20777W        W82198  41.800   7.340  13.435
20778W        W82199  36.504  25.192  11.451
20779W        W82200  34.401  43.849  12.054
20780W        W82201  31.016  18.155  11.953
20781W        W82202  24.012  29.514   4.263
20782W        W82203  34.085   5.692   5.255
20783W        W82204  27.033   9.167  11.924
20784W        W82205  12.340  20.749   3.348
20785W        W82206  43.910  24.701   2.810
20786W        W82207  34.933  42.977   0.332
20787W        W82208  26.164  18.181  14.383
20788W        W82209  42.929  15.225   1.338
20789W        W82210   9.882  36.962  11.373
20790W        W82211  21.068  33.939  14.952
20791W        W82212   6.181  18.688   2.715
20792W        W82213  13.809  16.084   1.413
20793W        W82214  12.343  25.502   2.827
20794W        W82215  18.168  44.341  11.528
20795W        W82216   0.864  25.688  13.537
20796W        W82217   3.943  18.188  14.943
20797W        W82218   0.415  25.590  10.986
20798W        W82219  17.103  30.031   1.818
20799W        W82220  28.166  30.092   1.780
20800W        W82221  41.468  28.652  12.084
20801W        W82222  36.941  13.780   3.304
20802W        W82223  44.395  32.427   1.244
20803W        W82224  22.135  42.349   0.817
20804W        W82225  17.708   2.868  11.119
20805W        W82226  38.020  28.445  14.763
20806W        W82227  17.194  39.471   0.751
20807W        W82228  22.635  43.949  13.873
20808W        W82229  26.681  23.090   0.475
20809W        W82230  43.496  13.746   3.832
20810W        W82231  41.326   0.923  14.951
20811W        W82232  39.859  33.976  12.536
20812W        W82233  21.078   9.213   0.873
20813W        W82234   9.220  44.339  11.525
20814W        W82235  13.220   6.827  12.534
20815W        W82236   2.261  42.841  10.029
20816W        W82237  38.373  43.415   2.318
20817W        W82238  35.491  27.022   1.265
20818W        W82239  39.325  32.084   1.386
20819W        W82240  35.860   3.938  12.885
20820W        W82241  15.245   4.704  12.566
20821W        W82242  24.113  36.426   3.734
20822W        W82243  10.748  13.128  10.644
20823W        W82244  14.229  28.561   3.752
20824W        W82245  36.438  21.120   4.836
20825W        W82246  40.377  30.092   1.694
20826W        W82247   7.382  42.015  14.967
20827W        W82248  41.897  43.404   2.256
20828W        W82249  36.073  42.853  11.610
20829W        W82250  39.856   8.164  13.013
20830W        W82251  24.648  25.705   4.317
20831W        W82252  17.635   8.899   1.448
20832W        W82253  18.582  38.407  13.892
20833W        W82254   9.356  21.234  14.325
20834W        W82255  26.188  27.089  10.504
20835W        W82256  20.215  36.361   0.958
20836W        W82257  42.870   5.271   0.371
20837W        W82258  20.693  19.066  13.847
20838W        W82259  26.194   2.889  12.375
20839W        W82260  17.635   2.952   0.429
20840W        W82261  33.605  38.971  12.390
20841W        W82262   1.270  31.565  14.007
20842W        W82263  21.125  36.880   2.219
20843W        W82264  13.675  35.002  11.389
20844W        W82265  11.261   1.811  12.029
20845W        W82266  31.586  11.347   0.294
20846W        W82267  43.292  27.068   2.333
20847W        W82268  28.168  26.547  12.398
20848W        W82269  28.023  29.076  14.765
20849W        W82270  21.537  31.567  13.345
20850W        W82271  32.493   4.372   1.842
20851W        W82272   8.657  12.224  13.968
20852W        W82273   6.243   9.357  14.024
20853W        W82274  31.000  24.677  14.372
20854W        W82275  18.575  41.863   0.244
20855W        W82276  11.651  33.561   4.348
20856W        W82277  39.555   3.856  12.993
20857W        W82278   5.780  10.710  12.471
20858W        W82279  21.200  13.709   0.927
20859W        W82280  40.381   0.275   1.760
20860W        W82281  11.277  30.622  14.441
20861W        W82282  31.539  38.007   1.277
20862W        W82283  23.131  22.041   0.851
20863W        W82284   4.237   9.833  13.455
20864W        W82285  16.729  15.684   3.260
20865W        W82286  31.472  26.702   1.765
20866W        W82287   3.880  14.622   0.932
20867W        W82288  19.634   1.766  14.804
20868W        W82289  17.146   2.387  13.883
20869W        W82290  34.503   5.203   4.173
20870W        W82291   2.776   7.316  13.526
20871W        W82292  10.640  39.533  10.410
20872W        W82293  20.571  39.930  11.471
20873W        W82294  10.845   2.879  13.836
20874W        W82295  37.381  17.738   4.761
20875W        W82296  44.315  22.636   3.216
20876W        W82297   3.403  21.034  13.892
20877W        W82298  10.166   5.772  12.039
20878W        W82299   1.754  35.366   1.827
20879W        W82300  16.314  28.043  11.090
20880W        W82301  20.553  28.960  14.766
20881W        W82302  14.827  36.071  10.409
20882W        W82303  28.559  27.121  12.970
20883W        W82304  32.587  39.336  12.383
20884W        W82305   5.819  30.523  11.986
20885W        W82306  18.058  44.865   0.910
20886W        W82307  31.547   5.195  12.531
20887W        W82308   3.952  13.240  10.465
20888W        W82309  11.270   7.701  12.065
20889W        W82310  15.760  12.667   4.279
20890W        W82311  42.807  15.731  14.892
20891W        W82312  40.527  43.873   3.149
20892W        W82313   8.262  18.722  14.788
20893W        W82314   9.665   3.945  10.631
20894W        W82315  21.131   1.870  12.843
20895W        W82316   6.773  38.336  12.907
20896W        W82317  11.239  33.117   0.468
20897W        W82318  17.721  40.395   1.274
20898W        W82319  44.937  31.998  12.874
20899W        W82320  29.168  26.557  10.450
20900W        W82321  12.358  27.504  13.368
20901W        W82322   6.256  37.434  11.936
20902W        W82323  25.581  35.501   4.688
20903W        W82324  16.645  16.291   1.228
20904W        W82325  20.766  38.497  12.435
20905W        W82326  44.952  22.682  13.877
20906W        W82327  18.146   7.205   1.831
20907W        W82328  30.549  21.212   1.928
20908W        W82329   4.295  23.003  10.974
20909W        W82330  41.522   4.814  11.879
20910W        W82331   4.365  21.249  12.049
20911W        W82332  28.057  12.358   3.778
20912W        W82333   0.427   2.726  11.598
20913W        W82334  41.038  13.264  11.474
20914W        W82335  21.552  22.645  10.528
20915W        W82336  36.463  20.099   1.791
20916W        W82337   9.311  36.459   3.346
20917W        W82338  21.220  10.142  13.934
20918W        W82339   3.890   0.265   0.405
20919W        W82340  36.397  15.095  12.067
20920W        W82341   7.790  32.897   0.893
20921W        W82342   8.223  12.258   3.311
20922W        W82343  27.632   9.734   0.826
20923W        W82344  28.962   2.915   4.766
20924W        W82345  33.002  32.469  10.506
20925W        W82346  44.390   2.733  10.522
20926W        W82347  31.007  23.705  14.812
20927W        W82348  34.472  29.143  14.995
20928W        W82349  33.095   0.983   1.413
20929W        W82350  25.614  37.532  12.852
20930W        W82351  37.442  26.535   1.838
20931W        W82352  41.859   6.380   0.256
20932W        W82353  13.772  22.670   3.654
20933W        W82354   3.765  23.693  14.440
20934W        W82355  37.523  11.865   1.904
20935W        W82356  15.134  25.527   2.179
20936W        W82357  27.155  25.106   5.084
20937W        W82358  39.314  35.870  13.451
20938W        W82359  27.012  31.011   1.854
20939W        W82360  13.697   8.855  14.773
20940W        W82361  44.476  14.592  10.473
20941W        W82362  15.670  37.495   4.757
20942W        W82363  44.334  40.940   2.319
20943W        W82364   2.871   4.715   3.338
20944W        W82365   9.718  17.088   1.921
20945W        W82366   0.803  11.180   2.835
20946W        W82367   2.364   0.317  12.824
20947W        W82368  30.529  35.569  13.445
20948W        W82369  33.582  19.259  11.444
20949W        W82370  42.941   8.743  13.544
20950W        W82371  12.856  32.002   4.662
20951W        W82372  20.591  40.984   2.881
20952W        W82373  19.668  23.718   1.410
20953W        W82374  40.995  12.230  12.462
20954W        W82375  32.060  21.196  12.458
20955W        W82376   5.789   2.297   1.438
20956W        W82377   6.304  36.877   2.403
20957W        W82378  11.160  27.963  13.973
20958W        W82379   5.290   9.256   3.676
20959W        W82380  39.928  28.976  10.588
20960W        W82381  21.043   6.802   2.270
20961W        W82382  30.611  39.315  14.909
20962W        W82383   2.886  18.276   1.756
20963W        W82384  18.633   6.891   1.915
20964W        W82385   5.301  30.143  10.141
20965W        W82386   7.234  14.304  13.001
20966W        W82387  16.140   8.210   2.334
20967W        W82388  12.802  12.213   0.359
20968W        W82389  29.571   4.394   0.761
20969W        W82390  42.798  18.751  12.084
20970W        W82391  26.122  31.628   4.801
20971W        W82392  30.112   1.428  14.985
20972W        W82393   0.915  32.065   3.325
20973W        W82394   5.914  34.374  13.347
20974W        W82395   0.872  18.719   4.635
20975W        W82396   3.855  18.139   0.308
20976W        W82397  32.987   5.901  10.487
20977W        W82398  26.199  14.326   3.375
20978W        W82399  40.038  22.225  14.327
20979W        W82400  41.394  17.302   2.200
20980W        W82401  42.794  14.741   0.781
20981W        W82402  35.059   7.365   2.766
20982W        W82403  40.893  34.968  11.874
20983W        W82404  26.173   7.753   4.720
20984W        W82405  34.413  22.105   3.864
20985W        W82406  38.945  12.256   0.330
20986W        W82407   8.720   8.226   4.598
20987W        W82408  12.260  13.227  10.584
20988W        W82409  28.057  30.061   4.352
20989W        W82410  20.580   4.346   1.811
20990W        W82411  44.913  35.565   0.750
20991W        W82412   8.299  23.516   0.252
20992W        W82413  16.137  28.185   4.765
20993W        W82414  42.019   2.401  12.495
20994W        W82415  40.940   9.848  14.340
20995W        W82416  42.897  30.593   9.959
20996W        W82417  11.735  39.014  12.345
20997W        W82418  24.102  25.187  12.978
20998W        W82419  22.172  16.245   2.777
20999W        W82420  27.554  40.872  13.354
21000W        W82421  20.571  16.671   2.212
21001W        W82422  33.123  19.146   0.799
21002W        W82423  38.420  43.890  12.992
21003W        W82424   6.868  36.009  14.776
21004W        W82425  15.685  34.957  11.556
21005W        W82426  27.959  40.876  13.362
21006W        W82427   7.186   0.403  11.982
21007W        W82428   8.862  34.981   5.248
21008W        W82429  24.174  39.923   0.728
21009W        W82430  17.675  19.539   3.849
21010W        W82431  34.982  35.507  13.474
21011W        W82432  10.784  43.322  14.344
21012W        W82433  16.280  14.253   4.148
21013W        W82434  13.759  18.694   3.668
21014W        W82435  17.302  28.457   2.320
21015W        W82436  12.716  42.315   2.302
21016W        W82437   5.436  36.954  12.460
21017W        W82438  39.889  39.386   4.617
21018W        W82439  27.641  21.124   1.776
21019W        W82440   1.923  28.933  14.344
21020W        W82441   7.740  41.459  12.906
21021W        W82442  40.893  18.098  14.814
21022W        W82443   0.481  42.961  13.338
21023W        W82444  11.244  24.977  14.862
21024W        W82445  28.560   7.401  14.396
21025W        W82446  43.414   9.287  14.994
21026W        W82447   4.796  26.114  12.387
21027W        W82448  14.784   2.884   4.734
21028W        W82449  21.536  23.189  14.809
21029W        W82450  41.965  17.613   2.763
21030W        W82451  24.648   6.759   5.190
21031W        W82452   9.262   4.924   4.776
21032W        W82453  20.559  25.179   0.273
21033W        W82454  30.436  36.930   2.757
21034W        W82455  31.095  20.671  14.374
21035W        W82456   3.780  42.780   3.797
21036W        W82457  31.413   2.286   4.189
21037W        W82458  32.578   7.810   3.260
21038W        W82459  21.181  16.251   1.909
21039W        W82460  19.069  30.499   0.782
21040W        W82461  22.645  44.007  10.542
21041W        W82462   4.844  38.432   3.345
21042W        W82463  32.440  39.352  10.978
21043W        W82464  27.140   2.868   3.302
21044W        W82465  16.675  26.490   4.285
21045W        W82466  40.367  13.182   3.157
21046W        W82467   8.740  11.273   3.156
21047W        W82468  14.299  12.707   3.828
21048W        W82469  21.530  21.236  13.793
21049W        W82470  15.159  19.197  10.434
21050W        W82471  19.604  34.602   3.755
21051W        W82472  36.534   9.828  14.399
21052W        W82473  20.240  33.095  14.889
21053W        W82474  25.195  17.117   0.849
21054W        W82475   6.902  35.430  11.384
21055W        W82476  31.940  23.593   1.814
21056W        W82477  13.742  28.632  13.922
21057W        W82478  21.651  41.422   2.717
21058W        W82479  30.084  18.087  13.964
21059W        W82480  25.672  40.901  11.454
21060W        W82481   3.778  44.412   1.299
21061W        W82482  27.544  44.404   3.799
21062W        W82483  28.654  11.738  10.978
21063W        W82484  39.898  19.262   3.813
21064W        W82485  38.435   3.271   3.691
21065W        W82486   7.382  28.027  12.462
21066W        W82487  41.961   4.295   2.806
21067W        W82488  34.409   1.886  11.604
21068W        W82489  22.032   0.901  14.815
21069W        W82490  42.929  42.450  13.865
21070W        W82491  31.464  24.112   3.277
21071W        W82492  10.215  30.124  12.887
21072W        W82493  38.984  32.470  10.013
21073W        W82494  30.070  18.227  11.883
21074W        W82495  35.936  29.502  11.879
21075W        W82496   0.435   8.319  10.974
21076W        W82497   8.756  31.140   4.662
21077W        W82498   5.856  24.082   2.867
21078W        W82499  42.457  24.172  11.976
21079W        W82500   3.933  28.484   2.205
21080W        W82501  28.132   2.841   0.922
21081W        W82502  15.779  22.146   2.701
21082W        W82503  14.248  24.082   0.756
21083W        W82504  44.754   0.253  11.544
21084W        W82505   9.696   7.257   0.728
21085W        W82506  41.863  32.567   0.476
21086W        W82507  33.877   3.761   1.924
21087W        W82508  43.455   8.898  14.898
21088W        W82509  43.299  12.843  12.961
21089W        W82510  10.363  13.331  13.939
21090W        W82511  38.945  18.263   0.777
21091W        W82512   1.258  31.623   0.324
21092W        W82513  29.059  35.932   1.811
21093W        W82514  33.905  20.084  14.367
21094W        W82515  31.461  38.561   3.194
21095W        W82516  24.615  33.607   1.807
21096W        W82517   0.268   2.817  13.524
21097W        W82518  41.313  27.113   2.864
21098W        W82519  28.948  21.145   3.800
21099W        W82520  35.521  21.211   4.156
21100W        W82521  35.444  39.844   4.165
21101W        W82522  38.445  37.877   3.715
21102W        W82523  12.159  37.441   2.223
21103W        W82524  32.468  27.536  10.585
21104W        W82525  30.542  40.350  12.002
21105W        W82526  36.487  13.760  12.514
21106W        W82527  12.737  33.595   2.186
21107W        W82528  21.545  43.775  12.368
21108W        W82529   9.352   0.768  14.854
21109W        W82530  21.678  15.322   5.769
21110W        W82531  12.821  31.639   3.229
21111W        W82532  25.688  38.983   2.833
21112W        W82533   6.764  22.575   3.238
21113W        W82534  35.435  27.682  12.466
21114W        W82535  44.327  14.169   1.907
21115W        W82536  29.629   1.288  13.364
21116W        W82537  10.867   6.251   4.297
21117W        W82538  22.700  41.513   0.932
21118W        W82539  19.122   2.369   1.842
21119W        W82540  35.529  42.506   3.147
21120W        W82541  32.996  27.153  14.951
21121W        W82542  13.216  11.163   1.931
21122W        W82543  27.155  36.423  11.013
21123W        W82544  41.418  25.062   3.802
21124W        W82545  42.380  13.621   5.803
21125W        W82546   4.229  35.985   1.801
21126W        W82547  31.959  19.739  11.894
21127W        W82548  10.751  24.638  14.512
21128W        W82549  38.987  22.532  13.461
21129W        W82550  34.448  42.991  13.045
21130W        W82551   4.705  12.649  13.905
21131W        W82552   6.758  11.779  14.887
21132W        W82553   8.273  40.991  11.430
21133W        W82554  17.117   7.220   2.827
21134W        W82555   7.675  20.235  11.592
21135W        W82556  38.882   4.351   2.790
21136W        W82557   0.321  42.930  11.929
21137W        W82558  32.596  44.435  11.425
21138W        W82559  10.672  27.998   0.353
21139W        W82560  25.096  27.510  12.076
21140W        W82561  26.512   7.231  13.851
21141W        W82562   1.873  29.627  14.374
21142W        W82563  10.209   7.673  14.827
21143W        W82564  25.127  22.672  13.502
21144W        W82565  25.999  39.369  12.410
21145W        W82566  24.518  28.657  14.342
21146W        W82567  37.898  44.365  10.506
21147W        W82568  41.902  37.568  14.499
21148W        W82569  30.581   3.832   4.286
21149W        W82570  36.852  29.512  14.491
21150W        W82571  32.067   2.904  11.521
21151W        W82572   8.802   0.966  10.638
21152W        W82573  15.282  10.771   0.321
21153W        W82574   6.892  19.138   3.246
21154W        W82575  39.845  30.041  13.868
21155W        W82576  37.457  17.140  11.512
21156W        W82577  30.028  26.696   4.127
21157W        W82578  21.653  16.808  12.835
21158W        W82579  14.276   0.400   4.283
21159W        W82580  18.717  12.770   1.871
21160W        W82581   6.716   0.342   9.532
21161W        W82582  25.549   0.759  12.931
21162W        W82583  15.133   2.960   3.302
21163W        W82584  25.172  32.101   4.619
21164W        W82585  22.231  20.579   3.293
21165W        W82586  31.524  44.490  13.382
21166W        W82587  31.485   3.720   4.616
21167W        W82588  43.322  26.614   4.177
21168W        W82589   7.778  10.708  10.523
21169W        W82590  20.054  22.237  12.388
21170W        W82591  24.722  13.656  14.458
21171W        W82592  40.531  41.359   4.262
21172W        W82593  32.889  22.048  12.907
21173W        W82594   4.938  31.571   4.654
21174W        W82595   8.788   1.806   4.130
21175W        W82596   1.305  43.765   2.883
21176W        W82597  26.457  19.601  13.909
21177W        W82598  19.054  17.241  12.885
21178W        W82599  18.635  11.277   0.945
21179W        W82600  25.535   3.439   1.742
21180W        W82601  42.006  30.142  13.021
21181W        W82602   2.939  28.114  11.395
21182W        W82603  35.548  18.090  11.074
21183W        W82604  22.640  36.949   4.808
21184W        W82605  34.613  25.108  11.100
21185W        W82606   6.774  43.986   1.261
21186W        W82607   6.426  16.188   1.230
21187W        W82608  24.124   7.366  13.478
21188W        W82609  10.317  44.974  13.956
21189W        W82610  35.530  37.021   0.452
21190W        W82611  40.363  23.140   2.682
21191W        W82612  28.074  12.311  14.422
21192W        W82613  43.909  24.636   1.918
21193W        W82614  17.167  17.129   5.173
21194W        W82615  36.866  39.510  12.828
21195W        W82616   2.457  17.191  13.434
21196W        W82617  11.809  16.309  11.383
21197W        W82618  40.325   2.313   1.399
21198W        W82619  33.420  15.785  14.942
21199W        W82620  27.187  14.183  11.032
21200W        W82621  18.710  26.996   2.801
21201W        W82622  15.126  19.263  10.995
21202W        W82623   8.161  22.643   1.280
21203W        W82624   8.265  44.361   4.288
21204W        W82625  32.931  21.145  14.455
21205W        W82626   7.771  12.652  12.899
21206W        W82627  19.085  31.031   0.432
21207W        W82628   9.853  28.977   1.934
21208W        W82629  36.012  31.141  14.313
21209W        W82630   8.253  39.975  11.929
21210W        W82631  17.125  38.946   5.094
21211W        W82632   0.833  25.144  13.844
21212W        W82633  42.981  13.601  12.480
21213W        W82634  34.973  44.918   4.679
21214W        W82635  43.913   2.870   3.787
21215W        W82636  24.008  27.629   0.456
21216W        W82637   5.736  29.450  14.343
21217W        W82638   6.859  19.112  11.469
21218W        W82639  30.081  24.583   2.193
21219W        W82640  11.131  36.502  13.938
21220W        W82641  15.814  19.244   4.766
21221W        W82642  25.117  34.949  10.937
21222W        W82643  20.658  12.199  12.020
21223W        W82644  36.939  20.219   0.796
21224W        W82645  38.546  31.069   2.240
21225W        W82646  27.085  32.515  11.087
21226W        W82647   6.366   5.251   1.360
21227W        W82648  17.251   1.942  10.458
21228W        W82649  17.760  41.447   4.326
21229W        W82650  22.131  34.087   2.241
21230W        W82651   7.254  41.360  13.497
21231W        W82652  15.807  28.955   4.287
21232W        W82653  16.259  28.464   0.433
21233W        W82654   3.426  43.836   4.621
21234W        W82655  11.173   5.818  10.612
21235W        W82656  34.895   7.325  11.971
21236W        W82657  23.602  20.594   0.439
21237W        W82658  24.995  13.332   2.388
21238W        W82659  22.505  44.505  11.580
21239W        W82660  31.574   7.319   0.889
21240W        W82661  20.730   0.252  12.384
21241W        W82662  21.137  34.892   2.312
21242W        W82663  42.789  37.028   3.379
21243W        W82664   4.406  39.493  11.063
21244W        W82665  24.588  37.401   4.775
21245W        W82666  22.025  42.845  14.365
21246W        W82667   6.424  44.302  14.868
21247W        W82668  43.895  21.024   1.355
21248W        W82669  31.137  20.120   0.319
21249W        W82670  10.228  37.837  14.980
21250W        W82671  28.621  10.258  13.822
21251W        W82672   7.744  24.228   1.329
21252W        W82673  14.146  17.684  13.839
21253W        W82674  23.644  30.558   0.727
21254W        W82675  42.382  15.108   4.818
21255W        W82676  17.139  28.487  12.502
21256W        W82677  33.105  38.013   4.623
21257W        W82678  33.443  44.985   5.211
21258W        W82679   7.348  13.801  10.559
21259W        W82680  19.647  32.042  12.400
21260W        W82681   1.298   6.880  14.343
21261W        W82682  39.321  35.005   0.432
21262W        W82683  33.421  18.673  13.003
21263W        W82684  44.919  18.264   3.663
21264W        W82685  20.032   8.176  12.003
21265W        W82686  35.361   4.251   0.479
21266W        W82687  18.611  13.108  14.436
21267W        W82688  34.377  29.061   4.218
21268W        W82689  28.623  40.008  10.941
21269W        W82690  30.020  26.516   4.665
21270W        W82691  23.208  22.079  14.030
21271W        W82692   8.790  10.327   0.840
21272W        W82693  37.386  41.035  14.300
21273W        W82694  17.741  27.094  12.865
21274W        W82695  19.272  28.052   1.893
21275W        W82696  40.360  30.459  12.051
21276W        W82697   4.366  30.529   2.664
21277W        W82698  19.072   1.307  11.537
21278W        W82699  17.786  37.535   4.697
21279W        W82700  17.699  15.307   0.738
21280W        W82701  38.846  30.479   4.612
21281W        W82702  44.820  39.858   4.252
21282W        W82703  10.737  13.296   4.252
21283W        W82704   2.327  28.125  10.154
21284W        W82705   3.293  23.141   4.597
21285W        W82706   0.413  26.951  13.965
21286W        W82707  13.350  39.558   4.799
21287W        W82708   6.793  25.217  11.547
21288W        W82709   8.395  20.688  10.473
21289W        W82710  41.890   3.870  10.932
21290W        W82711  41.504  44.829  13.455
21291W        W82712  39.922   3.868   0.443
21292W        W82713  10.836  42.477  14.964
21293W        W82714  26.986  26.171  10.932
21294W        W82715   4.811  19.618  11.108
21295W        W82716  24.714   6.400  13.944
21296W        W82717  19.589   1.963   2.838
21297W        W82718  39.062  29.139   3.293
21298W        W82719   9.883   5.818   1.858
21299W        W82720  40.476  22.181  13.832
21300W        W82721  30.651  36.994   4.308
21301W        W82722  30.438  18.567   2.277
21302W        W82723  32.418  29.997   2.225
21303W        W82724  21.051   4.410   0.811
21304W        W82725  13.830   1.468  10.430
21305W        W82726  27.619  33.897  10.615
21306W        W82727  41.849  23.529  13.528
21307W        W82728  38.394  44.797   0.410
21308W        W82729   8.760  32.932  13.811
21309W        W82730  30.078  37.381   1.273
21310W        W82731  38.380  25.083   3.314
21311W        W82732  36.050  11.164   1.827
21312W        W82733  19.266  43.997   1.863
21313W        W82734  28.113  36.965  12.062
21314W        W82735  38.833  20.196  13.459
21315W        W82736  37.893  18.228  11.985
21316W        W82737   8.341  39.439  10.955
21317W        W82738  42.955  19.707   1.832
21318W        W82739   3.855   2.792  12.896
21319W        W82740  31.563  31.462  10.925
21320W        W82741   6.724   1.736  13.906
21321W        W82742  35.460  27.664  11.003
21322W        W82743   3.952   4.327   3.269
21323W        W82744  24.519   9.204  11.102
21324W        W82745  34.115   2.257   0.316
21325W        W82746  25.177  16.138   4.691
21326W        W82747  29.982   8.901   4.698
21327W        W82748  15.178  37.347   2.769
21328W        W82749  18.594  11.634   4.189
21329W        W82750   8.239  35.430   2.360
21330W        W82751   6.747   3.357   0.431
21331W        W82752  26.044  20.044   1.859
21332W        W82753  24.641  14.180   2.268
21333W        W82754   2.856  42.032  12.036
21334W        W82755   2.356  37.905   2.783
21335W        W82756  32.484  17.738   2.869
21336W        W82757  41.823  13.658   3.712
21337W        W82758   6.813  21.550  12.980
21338W        W82759  30.568   6.402   4.234
21339W        W82760  20.117   3.722   4.755
21340W        W82761  36.045  37.534  12.033
21341W        W82762  33.547  32.041  14.011
21342W        W82763  22.658   0.421   3.841
21343W        W82764  23.723  42.012   3.705
21344W        W82765  29.641  31.959   3.850
21345W        W82766  44.843  35.456  13.911
21346W        W82767   4.932  24.989  12.096
21347W        W82768  23.712  21.220  13.411
21348W        W82769  19.072  20.595   4.652
21349W        W82770  20.222  42.896  13.002
21350W        W82771  38.833  40.845   4.803
21351W        W82772  37.885  44.331   4.793
21352W        W82773  18.598  37.424  14.453
21353W        W82774  39.886  19.067  13.986
21354W        W82775  19.166  20.154  14.908
21355W        W82776  28.968  32.908   2.793
21356W        W82777  22.169   0.766  14.399
21357W        W82778  25.549  27.639  10.966
21358W        W82779  14.672   9.784  12.506
21359W        W82780  15.264  24.573  12.339
21360W        W82781  22.501   0.430   3.308
21361W        W82782  21.201  11.198  11.061
21362W        W82783  16.611  14.304   0.726
21363W        W82784  30.143  39.869  10.571
21364W        W82785  34.940  25.144   2.832
21365W        W82786   1.965  19.118   3.225
21366W        W82787  36.035  38.911  11.402
21367W        W82788  22.648  37.582   4.135
21368W        W82789  12.235  41.015  10.492
21369W        W82790  36.422   5.861  10.593
21370W        W82791   4.439   1.379   0.791
21371W        W82792  28.444  40.993   4.228
21372W        W82793  23.586  22.251   2.737
21373W        W82794  21.047  32.566  13.022
21374W        W82795  22.746  28.464   0.779
21375W        W82796  21.619  29.968  11.397
21376W        W82797  26.985  28.440   3.186
21377W        W82798  10.193  17.259   0.345
21378W        W82799  14.150  11.644   0.848
21379W        W82800   8.341  31.951   1.214
21380W        W82801  41.948  25.154   3.374
21381W        W82802  29.120  31.601  11.083
21382W        W82803  31.907  38.842   3.630
21383W        W82804  16.729   4.395  14.444
21384W        W82805  34.531  22.533   1.296
21385W        W82806   4.783  37.862   4.672
21386W        W82807  18.168  34.888   1.220
21387W        W82808   7.694  15.226   3.181
21388W        W82809  38.943  43.459   1.931
21389W        W82810  44.887  35.554  13.421
21390W        W82811  15.736  40.047   5.231
21391W        W82812  25.128  37.373   3.863
21392W        W82813  29.143  10.288  11.391
21393W        W82814  15.156  29.108   5.187
21394W        W82815  12.151  14.332  13.908
21395W        W82816  34.977  24.591  11.057
21396W        W82817  42.822  18.698  13.345
21397W        W82818  22.246  35.380  14.340
21398W        W82819  32.508   5.721   4.175
21399W        W82820  40.907  21.110  12.382
21400W        W82821  20.239  30.520  14.498
21401W        W82822   9.723  17.264   0.322
21402W        W82823  35.945  12.849   4.830
21403W        W82824   3.767  28.659   2.737
21404W        W82825  38.886  38.410  13.964
21405W        W82826  30.004  11.699  10.893
21406W        W82827   8.714  41.468   0.290
21407W        W82828  12.322  17.150  12.576
21408W        W82829  43.929  12.756  14.930
21409W        W82830  19.122  27.481  14.931
21410W        W82831  18.133   0.972  14.834
21411W        W82832  11.786   8.394   1.423
21412W        W82833   7.686   9.735  12.853
21413W        W82834  21.250   2.373  14.391
21414W        W82835  23.662  22.017  12.095
21415W        W82836  15.659  10.768   2.334
21416W        W82837  12.123  15.741  13.816
21417W        W82838   6.308  19.051  10.418
21418W        W82839  42.927  17.663   3.762
21419W        W82840  25.084  41.005  14.930
21420W        W82841  23.610  28.042  10.997
21421W        W82842   1.972  26.570  10.910
21422W        W82843  29.924  41.484   2.712
21423W        W82844  13.168  21.066   0.806
21424W        W82845  42.857  31.043  10.908
21425W        W82846  37.463  38.068   2.707
21426W        W82847  12.333  23.604  11.407
21427W        W82848  35.951  10.714   1.229
21428W        W82849  39.530  43.276   2.350
21429W        W82850  30.521  19.249  14.397
21430W        W82851  13.628  36.025   0.283
21431W        W82852  29.572  40.904   3.302
21432W        W82853  13.605  42.981  13.523
21433W        W82854  30.014  33.542   1.234
21434W        W82855  40.307   8.168   0.462
21435W        W82856  28.622  16.250   2.689
21436W        W82857  11.755  42.363  14.407
21437W        W82858  23.190   8.891  11.510
21438W        W82859   2.884  11.807   0.433
21439W        W82860  24.517  16.214  13.477
21440W        W82861  19.569  37.532   3.689
21441W        W82862  30.533  18.125   1.694
21442W        W82863  42.804  27.593   0.846
21443W        W82864  30.433  29.958   4.716
21444W        W82865  30.016  36.011   0.794
21445W        W82866  43.365  12.130   9.929
21446W        W82867  13.720  27.499   4.721
21447W        W82868   4.852  22.237  13.036
21448W        W82869  34.002  27.023   1.858
21449W        W82870  26.062   0.446   1.377
21450W        W82871   2.372  23.241   5.093
21451W        W82872  17.641   7.812  10.563
21452W        W82873  31.141  11.247   9.490
21453W        W82874  22.111   3.456  12.926
21454W        W82875  20.034   6.831  10.439
21455W        W82876  32.051   2.783  12.965
21456W        W82877   6.312   1.877   0.445
21457W        W82878   5.898  23.506   4.165
21458W        W82879   8.203  26.983  12.524
21459W        W82880   7.197  15.730   5.285
21460W        W82881  23.687  11.365  11.563
21461W        W82882  16.784  16.755   2.409
21462W        W82883   1.411  31.014   0.817
21463W        W82884  20.622  44.777   0.729
21464W        W82885  24.008  24.680   2.773
21465W        W82886  15.726  22.671   3.207
21466W        W82887  43.292  37.017  11.884
21467W        W82888  26.681  21.575   3.208
21468W        W82889  29.430  28.591   4.710
21469W        W82890  28.506  32.003  14.411
21470W        W82891  18.709  32.900   2.733
21471W        W82892  36.913  22.079  14.018
21472W        W82893  31.436  26.180   1.803
21473W        W82894  28.997  32.483   0.801
21474W        W82895  37.570  30.601   1.842
21475W        W82896  34.909   3.801  12.854
21476W        W82897  36.414  18.113   1.837
21477W        W82898  37.843   5.382  11.533
21478W        W82899  20.595  20.042  14.877
21479W        W82900  27.563  12.326  11.942
21480W        W82901  39.334  35.882  13.837
21481W        W82902  19.732  24.487   3.194
21482W        W82903  18.155  38.420  10.562
21483W        W82904   6.799  43.284   0.252
21484W        W82905  35.507  42.833   1.221
21485W        W82906  33.902   9.735  13.993
21486W        W82907  11.652  14.609   1.403
21487W        W82908  36.982  40.517  12.461
21488W        W82909  22.052  43.458   1.361
21489W        W82910  43.498  17.175  12.512
21490W        W82911  26.671  19.185   0.854
21491W        W82912  27.985   6.737  11.458
21492W        W82913  23.594  24.523   3.219
21493W        W82914  22.629   2.446  14.375
21494W        W82915  34.908   8.314   2.881
21495W        W82916  38.980  22.059   0.425
21496W        W82917  30.982  13.649   1.280
21497W        W82918  36.001  19.214   0.747
21498W        W82919  13.782  40.035   3.359
21499W        W82920  42.006  18.183   9.935
21500W        W82921  27.084  36.041   4.607
21501W        W82922   4.396   9.369   0.446
21502W        W82923  41.305  13.801   3.852
21503W        W82924  21.752  19.102   1.831
21504W        W82925  17.173   6.803  11.587
21505W        W82926   4.725  26.683   5.164
21506W        W82927  20.200  16.673   3.648
21507W        W82928  18.736  34.418  10.990
21508W        W82929  35.997  11.299   0.446
21509W        W82930  36.389   6.821   1.287
21510W        W82931  16.679   6.685   3.245
21511W        W82932  31.644  33.929   2.301
21512W        W82933  32.038  14.300   3.682
21513W        W82934  20.198  41.458   4.195
21514W        W82935  18.103  14.294  12.528
21515W        W82936  40.309  29.041   3.277
21516W        W82937  25.000   7.271  13.970
21517W        W82938  15.222  44.502  11.051
21518W        W82939  15.684  42.366  13.844
21519W        W82940  11.749   3.431  12.040
21520W        W82941  32.428   0.759   4.683
21521W        W82942  10.642  13.249  11.065
21522W        W82943   2.819  11.668   2.831
21523W        W82944  15.200  41.891  12.424
21524W        W82945  14.760  11.309   3.284
21525W        W82946   1.968  30.076   1.907
21526W        W82947  19.111  31.090  11.061
21527W        W82948   6.676  22.652   2.325
21528W        W82949  35.436  37.504  13.457
21529W        W82950  16.805   2.893  12.410
21530W        W82951  31.982  34.533  11.002
21531W        W82952  36.485  24.508   4.198
21532W        W82953   3.879  28.668   4.656
21533W        W82954  20.710  33.029  11.466
21534W        W82955  31.896  37.427  12.948
21535W        W82956   5.250  10.190  14.394
21536W        W82957  37.875  33.039   3.338
21537W        W82958   8.353  30.622   0.793
21538W        W82959  21.724  17.137   2.769
21539W        W82960  31.470   1.863  10.108
21540W        W82961  29.649  32.022   4.193
21541W        W82962  19.064   9.738  11.526
21542W        W82963  33.875  37.837  14.798
21543W        W82964   4.908   0.409   3.715
21544W        W82965  30.108  42.453  12.556
21545W        W82966  15.584  38.373   4.284
21546W        W82967  30.163  14.595  14.820
21547W        W82968   3.731  29.920  12.051
21548W        W82969   8.720  25.481   3.203
21549W        W82970  10.798  23.998   2.382
21550W        W82971  39.861  18.691  11.924
21551W        W82972  41.803   5.752  13.006
21552W        W82973  41.945  34.570  12.073
21553W        W82974  35.554  41.376  14.296
21554W        W82975  13.114  36.506   0.743
21555W        W82976  32.515  39.990  12.529
21556W        W82977   9.654  16.677   4.332
21557W        W82978   5.689  33.469   3.290
21558W        W82979  44.760  37.945  14.438
21559W        W82980  16.683  23.122  12.500
21560W        W82981  21.618  36.978   3.275
21561W        W82982  17.145  38.540  11.028
21562W        W82983  13.304  35.021  14.953
21563W        W82984  44.361  12.349  11.076
21564W        W82985  18.069  28.513  14.370
21565W        W82986   3.743  11.628  14.328
21566W        W82987  42.919   0.848   1.214
21567W        W82988  11.259  26.162   3.682
21568W        W82989  33.567  19.756  14.953
21569W        W82990  36.996   2.794   4.256
21570W        W82991  40.937  26.547  12.060
21571W        W82992  24.611   7.883   0.399
21572W        W82993  11.736  26.634   0.749
21573W        W82994  33.953  14.245  12.050
21574W        W82995  42.005  40.996   0.329
21575W        W82996  17.296  18.569   4.823
21576W        W82997  40.489   8.789  12.927
21577W        W82998  44.878  10.365   1.885
21578W        W82999  36.392  25.214   3.251
21579W        W83000  11.625  37.374   0.777
21580W        W83001   9.687  12.287   1.837
21581W        W83002  28.946  39.966  11.108
21582W        W83003  44.375  15.704   4.690
21583W        W83004  44.792  13.168  13.517
21584W        W83005  37.904  27.120   1.906
21585W        W83006  31.537  20.255   1.274
21586W        W83007  17.147  10.875  11.121
21587W        W83008   2.435  24.495  11.890
21588W        W83009  14.736  32.122  12.873
21589W        W83010  38.976  12.170   4.734
21590W        W83011  18.718  39.417  11.451
21591W        W83012  23.526   2.438   1.882
21592W        W83013  43.334  20.120  11.031
21593W        W83014  15.265  20.736   4.658
21594W        W83015  25.614  30.089   0.303
21595W        W83016   2.771  33.935  12.444
21596W        W83017   6.921  41.882  14.833
21597W        W83018  42.432  17.261  14.983
21598W        W83019  42.849   6.866  10.497
21599W        W83020  26.077  12.336   2.350
21600W        W83021   1.749  19.595  12.919
21601W        W83022  34.867  26.668   4.620
21602W        W83023  12.187  17.232   2.686
21603W        W83024  34.369  43.389  11.887
21604W        W83025  22.676  14.635  13.998
21605W        W83026  42.298   6.218  11.057
21606W        W83027  40.382  17.740  14.478
21607W        W83028  16.676  41.328   1.370
21608W        W83029  31.480  43.429  12.515
21609W        W83030  42.429  37.495   0.802
21610W        W83031  10.191  25.074   2.320
21611W        W83032  40.934  35.409  12.565
21612W        W83033  11.828   9.698  10.042
21613W        W83034   3.736   5.244   3.866
21614W        W83035  28.512  17.782   1.920
21615W        W83036  28.502  17.693  14.408
21616W        W83037   3.857  37.924   1.234
21617W        W83038  29.035  25.205  10.518
21618W        W83039  43.358  40.943  12.487
21619W        W83040  40.373  14.151  14.503
21620W        W83041  17.187  13.297   4.339
21621W        W83042  29.940  32.993  11.977
21622W        W83043  24.989   6.273   1.317
21623W        W83044   7.724  25.630   3.715
21624W        W83045   2.770  44.912   4.269
21625W        W83046  42.444  12.285   0.825
21626W        W83047  15.714  20.625   0.758
21627W        W83048  16.741  26.691   2.337
21628W        W83049  43.449  21.112   1.710
21629W        W83050  39.007  37.575  14.817
21630W        W83051   0.376  21.063  12.046
21631W        W83052   3.410   8.817  11.399
21632W        W83053  22.101  40.424  14.315
21633W        W83054  25.657   2.754   3.851
21634W        W83055  16.178  29.429  10.619
21635W        W83056  37.373  11.256  14.461
21636W        W83057  43.813  21.243  10.963
21637W        W83058  10.863  41.876  11.962
21638W        W83059  40.368  35.890   4.784
21639W        W83060  35.950  11.628   3.649
21640W        W83061  36.534  14.600   3.271
21641W        W83062  38.920  20.728   3.349
21642W        W83063  43.902   2.775  10.971
21643W        W83064  32.013  10.666  12.426
21644W        W83065   5.235   0.463  12.386
21645W        W83066   6.712   2.438  12.463
21646W        W83067  12.142  18.668   3.356
21647W        W83068  36.510  22.504   1.778
21648W        W83069  43.485  19.071   1.256
21649W        W83070  30.038   9.325  11.010
21650W        W83071  30.509  44.439  13.003
21651W        W83072  41.965  12.205   1.356
21652W        W83073  19.578  31.988  10.478
21653W        W83074   4.252  32.030  14.941
21654W        W83075  43.021   2.288   0.441
21655W        W83076  42.893  20.170  14.827
21656W        W83077  34.593  43.801   4.818
21657W        W83078  35.964  20.764   3.864
21658W        W83079  35.101  36.380  13.403
21659W        W83080  40.965  18.139   1.310
21660W        W83081   1.346  27.984   2.749
21661W        W83082  39.977   0.387  12.016
21662W        W83083   2.233  22.171   3.665
21663W        W83084  24.483   8.747  14.816
21664W        W83085  41.838  30.527  12.367
21665W        W83086  39.444   8.207  11.080
21666W        W83087   2.331  25.023   2.860
21667W        W83088  26.026  27.095   0.868
21668W        W83089  34.949  31.097   3.267
21669W        W83090  38.500  11.267   1.805
21670W        W83091  20.651   6.802  10.471
21671W        W83092   8.729  21.228  14.814
21672W        W83093  15.216  35.477  14.964
21673W        W83094   8.287  18.604  11.906
21674W        W83095   3.709   0.409   9.554
21675W        W83096  38.922  27.613   3.799
21676W        W83097  34.465  20.259   0.850
21677W        W83098  29.004   2.237   3.308
21678W        W83099  24.017  22.574  11.387
21679W        W83100  44.001  10.213   4.201
21680W        W83101  26.030  37.029   0.436
21681W        W83102  25.659  33.540  12.823
21682W        W83103   4.788  32.636   5.159
21683W        W83104  38.417   6.696   3.147
21684W        W83105  22.733  13.824   4.620
21685W        W83106  33.905   7.241   1.382
21686W        W83107  35.924  33.009   3.260
21687W        W83108   3.868   2.270   4.836
21688W        W83109  19.565  21.551   2.334
21689W        W83110   4.701   7.308   2.843
21690W        W83111  33.577  44.884   1.439
21691W        W83112  14.172   2.402   3.759
21692W        W83113  38.543  23.160  11.594
21693W        W83114  34.480  21.513   1.785
21694W        W83115  37.067  15.770  11.033
21695W        W83116  17.235   8.889  13.465
21696W        W83117  29.946  17.234  14.818
21697W        W83118   2.455  25.620   3.224
21698W        W83119  25.528  23.689   3.797
21699W        W83120  41.483  19.666  11.054
21700W        W83121  38.863  22.016  10.623
21701W        W83122   9.220  10.190   3.726
21702W        W83123  33.499  44.954  13.531
21703W        W83124  11.346  36.531   3.383
21704W        W83125  28.613  16.637  13.996
21705W        W83126  24.617   5.227   3.308
21706W        W83127  38.530  39.842  11.970
21707W        W83128   4.838  36.373   2.666
21708W        W83129  41.465  24.107  12.883
21709W        W83130  22.172   6.851   0.424
21710W        W83131  41.481   1.851   3.826
21711W        W83132  15.254  27.544  13.819
21712W        W83133  37.388  25.144   1.359
21713W        W83134  42.373  13.185   3.335
21714W        W83135  32.419  17.610   1.381
21715W        W83136  19.202  42.512  14.966
21716W        W83137   3.452  36.396   3.748
21717W        W83138  32.939  24.210   2.261
21718W        W83139  20.681  31.046  10.955
21719W        W83140  18.733   4.839  11.518
21720W        W83141  24.677   6.820  10.022
21721W        W83142  24.571  33.528   4.329
21722W        W83143   8.699  22.596  12.380
21723W        W83144  26.618  10.839   3.170
21724W        W83145  14.741  44.410  10.471
21725W        W83146  23.071  24.709  11.411
21726W        W83147   9.651  19.759   3.853
21727W        W83148  13.659   0.286   4.668
21728W        W83149  41.380   1.771  13.884
21729W        W83150  40.895  42.826   0.923
21730W        W83151   1.874  39.406   2.885
21731W        W83152  12.655   2.923  14.486
21732W        W83153  27.651  13.134   2.841
21733W        W83154  41.938  10.713  11.911
21734W        W83155   2.274   8.664  12.068
21735W        W83156  29.927  21.242  11.098
21736W        W83157   0.834  33.941  10.893
21737W        W83158   8.404  44.829   0.364
21738W        W83159   9.703   3.734  12.955
21739W        W83160  30.085  13.108   3.838
21740W        W83161   3.747   5.880   0.877
21741W        W83162  27.128   9.805  13.897
21742W        W83163  19.043  13.287   1.349
21743W        W83164  17.147  27.018  11.961
21744W        W83165  24.029  38.928   2.879
21745W        W83166  42.323  26.526   2.365
21746W        W83167  41.457  30.060  13.396
21747W        W83168  39.408  14.644  14.886
21748W        W83169  39.833  41.334  11.020
21749W        W83170  19.609  19.589  13.506
21750W        W83171  33.916  35.543   0.801
21751W        W83172  16.259  10.871  14.801
21752W        W83173   2.460  16.664  11.382
21753W        W83174   9.156  30.971  12.386
21754W        W83175  35.916  21.147   1.385
21755W        W83176  20.179   3.369  12.399
21756W        W83177  43.957  38.860   1.230
21757W        W83178  21.588   7.189  13.056
21758W        W83179  38.470  32.583  10.529
21759W        W83180   1.762  33.491   1.367
21760W        W83181  33.422  37.834  10.077
21761W        W83182  35.556   3.712   1.928
21762W        W83183  44.459  43.923  13.882
21763W        W83184  16.804  25.570  10.470
21764W        W83185   0.913  31.541  13.313
21765W        W83186  33.959  23.094   1.349
21766W        W83187  29.999   4.879   0.866
21767W        W83188  12.761  39.958   3.801
21768W        W83189   0.301  40.834   3.633
21769W        W83190  41.021  13.605  14.312
21770W        W83191  36.534  12.729  12.560
21771W        W83192  32.486  23.201   3.279
21772W        W83193  28.161  13.764   4.636
21773W        W83194   4.884  29.488   0.431
21774W        W83195   6.389   1.797   1.217
21775W        W83196  39.007  40.491   0.924
21776W        W83197  20.061  20.587  14.855
21777W        W83198  22.599  37.982   3.146
21778W        W83199  43.289  44.438  10.159
21779W        W83200   0.977  36.908  13.008
21780W        W83201  12.340  17.611   1.813
21781W        W83202   2.381   7.386  11.535
21782W        W83203   5.247   7.681  10.950
21783W        W83204  26.085   5.351  10.519
21784W        W83205  43.964  19.102  14.874
21785W        W83206  32.521  15.797  11.482
21786W        W83207  26.564  12.827  14.506
21787W        W83208  27.487   1.861   0.788
21788W        W83209  33.548   1.429  11.579
21789W        W83210  13.762   5.883  13.344
21790W        W83211  13.814  12.122  14.411
21791W        W83212  35.439  10.155  13.307
21792W        W83213  35.367   4.790  11.100
21793W        W83214   4.237  41.484  11.898
21794W        W83215   4.729  27.681   0.912
21795W        W83216  36.494  38.459  12.506
21796W        W83217  39.840  29.078   0.381
21797W        W83218  18.682  40.891   3.209
21798W        W83219  34.596  25.697  11.104
21799W        W83220  17.660  33.458  11.542
21800W        W83221  40.953   3.271   0.862
21801W        W83222  15.660  41.924  14.345
21802W        W83223  39.514  18.785   0.451
21803W        W83224  24.035  21.123   2.374
21804W        W83225   3.432  10.658   4.757
21805W        W83226  41.928  23.572  12.075
21806W        W83227  38.560  11.195   3.323
21807W        W83228  25.018  10.243   4.199
21808W        W83229  31.471  33.971   1.785
21809W        W83230   2.229   4.204   2.369
21810W        W83231   6.711  39.043   0.244
21811W        W83232   1.828  31.565   0.755
21812W        W83233  15.301  24.614  12.989
21813W        W83234  23.009  29.970   0.273
21814W        W83235  31.057   4.930   3.323
21815W        W83236  15.732  23.732  14.309
21816W        W83237  18.193  14.238  14.369
21817W        W83238  25.653   6.803   3.203
21818W        W83239  25.697  11.780   3.195
21819W        W83240  36.871  31.439  14.866
21820W        W83241  42.406  27.472   2.319
21821W        W83242  17.281  32.491  11.600
21822W        W83243  10.153  10.768   0.335
21823W        W83244  23.600  39.065   0.769
21824W        W83245  27.176  18.105   4.775
21825W        W83246   9.246  34.944   1.314
21826W        W83247  37.509   9.312   2.742
21827W        W83248  26.044   0.917  10.471
21828W        W83249  39.329  29.948  12.999
21829W        W83250   7.754  30.120   4.743
21830W        W83251  35.036  28.021   3.851
21831W        W83252  36.895   3.712  14.487
21832W        W83253  32.053  41.818  10.536
21833W        W83254  10.803  25.528   0.839
21834W        W83255  21.571   3.905   4.781
21835W        W83256   2.893  42.835   2.825
21836W        W83257  30.636  38.442   2.199
21837W        W83258  26.614  20.097   2.216
21838W        W83259  11.288  20.076  14.863
21839W        W83260  43.318  15.611  10.962
21840W        W83261   8.204  11.622  12.094
21841W        W83262  24.151  17.061  13.539
21842W        W83263  44.278  38.437  14.487
21843W        W83264  18.678  28.588  14.485
21844W        W83265   9.872  19.279  11.493
21845W        W83266   3.870  24.007   3.281
21846W        W83267  13.801  34.461  11.871
21847W        W83268  13.768  21.684   4.194
21848W        W83269  19.702  14.734  14.979
21849W        W83270  18.584  13.143   1.787
21850W        W83271  13.764   8.676  12.925
21851W        W83272  26.528  15.219  11.398
21852W        W83273  32.617  25.016   5.112
21853W        W83274  16.143  18.147  10.473
21854W        W83275  12.744   7.285  12.907
21855W        W83276  34.039   1.943  14.330
21856W        W83277  31.632  41.867  13.858
21857W        W83278  39.911  29.580  11.472
21858W        W83279   3.461  13.299   1.854
21859W        W83280  15.301  32.453   3.654
21860W        W83281  20.085   6.390  13.999
21861W        W83282  37.570   9.837  13.446
21862W        W83283   9.825   1.311   3.705
21863W        W83284  13.189  32.407  14.313
21864W        W83285  41.467  31.420  13.951
21865W        W83286  33.409   5.247   9.597
21866W        W83287  21.638  32.455  13.962
21867W        W83288  32.602  10.830  13.517
21868W        W83289  10.338   9.286  11.918
21869W        W83290  14.301  15.632  11.483
21870W        W83291  15.736  14.161   4.186
21871W        W83292   3.928  26.976   3.811
21872W        W83293  25.021  19.171  12.449
21873W        W83294  23.620  40.388   3.820
21874W        W83295   2.766  35.914  14.828
21875W        W83296   1.755  18.788  12.535
21876W        W83297  18.673  24.609  12.045
21877W        W83298  34.412  14.617   1.694
21878W        W83299  33.513  27.467  12.351
21879W        W83300  32.895  42.412  11.023
21880W        W83301   9.228  11.801   4.809
21881W        W83302  30.581   0.881   1.856
21882W        W83303  10.837  44.857  11.085
21883W        W83304  16.102   4.731   3.299
21884W        W83305  11.322  20.195  11.528
21885W        W83306   2.965  39.456   2.310
21886W        W83307  17.119  27.629  13.369
21887W        W83308  29.600  16.241   0.838
21888W        W83309  33.078  31.106  12.982
21889W        W83310  20.573  27.498  14.030
21890W        W83311  32.001  25.153   3.359
21891W        W83312  44.261  44.402  12.934
21892W        W83313  29.656  18.680  12.978
21893W        W83314   9.678  40.048   0.765
21894W        W83315   5.416  17.572  10.497
21895W        W83316  10.352   3.737   0.327
21896W        W83317   0.249  27.159  11.389
21897W        W83318  16.149  34.414   0.912
21898W        W83319   1.912  30.045  10.569
21899W        W83320  23.130  20.140   4.818
21900W        W83321  27.599  35.483  14.764
21901W        W83322   4.849   0.381   0.908
21902W        W83323   9.220  10.684  10.559
21903W        W83324   9.392   6.918  13.837
21904W        W83325   1.301  40.486  14.380
21905W        W83326  15.303  14.804  14.983
21906W        W83327  23.054   6.377   0.777
21907W        W83328  41.971  33.504   3.760
21908W        W83329   9.279   5.775   3.704
21909W        W83330  40.324  31.056  12.996
21910W        W83331  32.447  19.236   0.910
21911W        W83332  15.650  26.529  11.373
21912W        W83333  33.937  10.755   2.339
21913W        W83334  23.069   2.380  14.319
21914W        W83335  24.117  29.545  10.571
21915W        W83336  12.756  35.857   0.961
21916W        W83337  37.052   3.762  14.781
21917W        W83338  30.966  22.710   0.423
21918W        W83339  15.635  42.398   1.403
21919W        W83340  11.772   8.281   4.245
21920W        W83341  38.453  23.007   3.170
21921W        W83342  31.489  23.004   2.717
21922W        W83343  30.502  35.005   0.372
21923W        W83344  16.076  14.182  14.890
21924W        W83345  16.183  18.155   0.852
21925W        W83346  39.511  33.917   0.303
21926W        W83347  11.325  34.904   2.736
21927W        W83348   1.344  20.114   4.129
21928W        W83349  15.767  20.032   2.186
21929W        W83350   9.353  38.369   1.341
21930W        W83351  24.147  35.920  13.531
21931W        W83352  23.575  19.283  14.974
21932W        W83353  26.143   1.950   3.310
21933W        W83354  40.980   0.891  11.076
21934W        W83355   4.936  34.112   4.637
21935W        W83356  22.028   4.752   0.829
21936W        W83357   6.705  32.460  12.439
21937W        W83358  18.268  18.755  13.462
21938W        W83359  43.882  40.020   4.801
21939W        W83360  32.941  38.066  11.002
21940W        W83361  43.788   6.679   3.730
21941W        W83362   8.366  27.062   1.785
21942W        W83363  26.638  15.667   3.645
21943W        W83364   0.271  39.549   1.816
21944W        W83365  30.490   7.219  13.951
21945W        W83366  42.516  14.825   0.444
21946W        W83367   6.298   4.421   1.309
21947W        W83368  10.288  11.629   4.227
21948W        W83369  22.743  43.313   0.772
21949W        W83370  13.813  22.724  11.582
21950W        W83371  23.123  26.207  13.801
21951W        W83372  17.665  31.564  13.047
21952W        W83373  14.286  21.680   4.269
21953W        W83374  31.454  26.494  13.450
21954W        W83375  43.921  34.578   3.217
21955W        W83376  35.854  16.698  12.386
21956W        W83377  40.332  19.573   3.670
21957W        W83378  11.689  10.677   4.241
21958W        W83379  16.735   4.405  11.484
21959W        W83380  10.162  38.505  12.094
21960W        W83381  40.533  35.102   2.781
21961W        W83382   0.745  34.033  13.903
21962W        W83383  35.501   6.349  12.403
21963W        W83384  20.058   2.261  12.969
21964W        W83385   9.259   6.333  11.953
21965W        W83386  26.599   0.340  14.844
21966W        W83387   5.906   1.780  14.400
21967W        W83388  32.017  15.799  14.337
21968W        W83389  19.646   9.163   1.278
21969W        W83390  42.021  39.333  10.569
21970W        W83391  21.078  15.642   0.764
21971W        W83392  12.324  39.329   1.780
21972W        W83393   0.954  10.307   4.790
21973W        W83394   2.313  27.163  10.444
21974W        W83395  36.999  38.559  10.500
21975W        W83396   4.745  24.142   5.161
21976W        W83397  33.108  33.113   3.263
21977W        W83398  22.586  33.422   2.698
21978W        W83399  26.980  41.514  14.346
21979W        W83400   6.758  12.231   1.423
21980W        W83401  38.000  19.671   2.224
21981W        W83402   3.376  18.107   1.266
21982W        W83403   3.370  29.128   1.760
21983W        W83404  39.012  15.204  13.540
21984W        W83405  24.553  37.393  14.972
21985W        W83406  35.079  44.376   3.346
21986W        W83407  13.161  30.586  10.113
21987W        W83408  34.508  30.425  14.918
21988W        W83409  43.387  27.012  13.877
21989W        W83410  44.954  28.070  13.324
21990W        W83411  39.509  37.903   1.323
21991W        W83412  43.502   2.308   3.257
21992W        W83413  28.098   2.421   1.277
21993W        W83414  27.160  23.548   0.762
21994W        W83415  30.051  32.508  14.836
21995W        W83416  11.179  24.072  11.415
21996W        W83417  10.234   9.754  12.076
21997W        W83418  21.638  14.168   0.268
21998W        W83419  29.574  29.980   4.208
21999W        W83420  20.607  18.667   1.849
22000W        W83421  29.547  32.574  10.524
22001W        W83422  31.441  41.823  10.984
22002W        W83423   0.909   0.779  14.764
22003W        W83424  35.014  33.102  14.412
22004W        W83425   4.874  25.035   0.737
22005W        W83426  23.702  35.464  14.023
22006W        W83427  39.918  44.398  10.912
22007W        W83428  22.017   6.769   1.354
22008W        W83429  36.022  44.857  10.912
22009W        W83430  14.614  37.898  13.452
22010W        W83431   2.947  30.920  13.045
22011W        W83432  36.000   8.869   0.806
22012W        W83433   5.847  11.819   2.697
22013W        W83434  28.173   6.250   1.910
22014W        W83435  18.288  20.110  10.910
22015W        W83436  16.187  11.805   0.382
22016W        W83437   6.238  19.627  12.000
22017W        W83438  32.566  35.926   0.767
22018W        W83439  17.780  21.561  11.999
22019W        W83440  21.050  13.781   3.767
22020W        W83441   4.833   9.254  10.619
22021W        W83442  38.921   6.413  13.402
22022W        W83443   7.369  21.242   1.259
22023W        W83444  41.332  39.550  11.128
22024W        W83445  38.363  13.792  11.494
22025W        W83446   3.727  30.963  14.003
22026W        W83447  18.111   2.845   2.774
22027W        W83448   5.315  26.049  11.869
22028W        W83449   0.808  18.097   1.351
22029W        W83450  16.221  24.531   0.274
22030W        W83451  39.546  16.217  11.984
22031W        W83452  20.766   9.674   1.404
22032W        W83453   0.770  33.003   4.725
22033W        W83454   8.180  38.385  13.392
22034W        W83455  31.096  31.952   2.352
22035W        W83456  27.502  21.117  12.011
22036W        W83457  11.349  33.456  12.885
22037W        W83458  18.743  35.094  13.497
22038W        W83459  15.165  28.505  13.949
22039W        W83460  14.191   8.728   4.209
22040W        W83461   2.931  23.704   1.814
22041W        W83462   8.214  37.054   0.387
22042W        W83463  10.356   8.732  10.519
22043W        W83464   5.747  34.919   0.806
22044W        W83465   8.757  27.681   0.947
22045W        W83466  25.051  36.360   1.885
22046W        W83467   9.716  40.870   3.216
22047W        W83468   0.377  35.998  11.403
22048W        W83469  42.338  17.637   1.782
22049W        W83470   1.913  44.856   0.257
22050W        W83471   1.243  41.854   1.367
22051W        W83472  35.009  38.852  14.838
22052W        W83473  30.470   4.353   1.412
22053W        W83474  11.263  19.168  14.294
22054W        W83475   5.832   8.844   2.754
22055W        W83476   5.439  10.848  11.868
22056W        W83477  25.003  31.511   3.685
22057W        W83478  27.178  17.271   0.291
22058W        W83479   1.840   5.713   3.313
22059W        W83480  10.872  34.942   3.260
22060W        W83481  29.643  35.002   1.855
22061W        W83482  33.594  22.532  13.355
22062W        W83483  29.634  22.624   1.868
22063W        W83484  34.377  25.537  14.465
22064W        W83485  35.433  30.466   4.330
22065W        W83486  14.748  42.297  10.967
22066W        W83487   8.751   9.201  14.007
22067W        W83488  42.435  34.104  10.526
22068W        W83489  24.498   1.373  11.536
22069W        W83490  35.988  31.999  14.489
22070W        W83491   7.707  34.934  13.983
22071W        W83492   3.332  38.921  14.402
22072W        W83493  24.213  14.213  14.448
22073W        W83494  38.040   3.772   0.825
22074W        W83495  17.155  25.142  11.126
22075W        W83496   0.305  39.336   0.730
22076W        W83497   1.928  18.703  13.884
22077W        W83498  30.511   8.761  12.990
22078W        W83499   2.408  18.134   2.274
22079W        W83500  20.242   6.268  14.839
22080W        W83501  24.124  25.093   4.162
22081W        W83502  33.389  42.898  14.832
22082W        W83503  44.821   1.868   1.307
22083W        W83504  18.701  33.894   2.763
22084W        W83505  42.907  28.465  11.884
22085W        W83506   3.384   5.708  12.576
22086W        W83507   9.350  35.580  14.791
22087W        W83508  28.559  44.785   3.777
22088W        W83509   3.725  31.063   0.431
22089W        W83510   0.387  11.634   2.735
22090W        W83511  40.394  28.148   0.865
22091W        W83512  36.517  36.523   4.281
22092W        W83513  44.867  42.429   4.782
22093W        W83514  22.066  39.832   4.190
22094W        W83515  36.025   6.849  10.480
22095W        W83516  28.461  15.319   1.788
22096W        W83517  23.555  26.087  13.387
22097W        W83518  18.715  29.972  10.540
22098W        W83519   5.258  29.431  11.063
22099W        W83520  38.480  29.128  13.808
22100W        W83521   7.781  33.477  13.401
22101W        W83522  35.979  44.883   0.939
22102W        W83523  12.724   3.876   4.820
22103W        W83524  43.498  30.095  14.319
22104W        W83525  26.672   5.708   3.368
22105W        W83526  29.424  14.140  12.075
22106W        W83527  36.581  39.410   2.249
22107W        W83528   7.194   3.332   4.725
22108W        W83529   1.864  18.081   1.831
22109W        W83530  19.622   2.260   2.238
22110W        W83531  19.182   8.738  13.535
22111W        W83532  41.488  39.533  13.538
22112W        W83533  34.373  21.203  12.510
22113W        W83534  41.963  37.031   2.673
22114W        W83535  21.528  21.529   3.367
22115W        W83536   4.271  21.634   3.220
22116W        W83537  24.116  19.742  10.497
22117W        W83538  19.111  29.433  12.548
22118W        W83539  12.355  29.111  14.324
22119W        W83540  31.127  26.483   0.329
22120W        W83541  43.766  44.303  11.402
22121W        W83542  33.385   7.862   1.739
22122W        W83543   8.803  11.645  11.014
22123W        W83544  23.037  28.481   0.248
22124W        W83545  33.960  39.815   4.753
22125W        W83546  43.420  13.185  10.028
22126W        W83547  37.892   0.487  13.893
22127W        W83548  32.920   1.310   0.855
22128W        W83549  20.264  39.514   1.775
22129W        W83550  10.809  19.684   0.304
22130W        W83551  35.971  39.869  14.275
22131W        W83552  39.469  44.502   4.662
22132W        W83553   8.874   2.374  11.551
22133W        W83554  18.208  44.774  11.086
22134W        W83555  22.695  43.863   2.686
22135W        W83556  37.955  10.740   4.202
22136W        W83557  17.603  43.976   4.119
22137W        W83558  42.510  35.554  14.451
22138W        W83559  17.084   5.213  11.944
22139W        W83560  18.736   5.793  10.921
22140W        W83561  20.641  35.424  11.894
22141W        W83562  41.473  37.476   0.372
22142W        W83563   0.469  33.578   2.684
22143W        W83564  16.228  15.789   3.644
22144W        W83565   4.393  21.592  10.595
22145W        W83566  11.321   3.357   3.870
22146W        W83567   4.933  17.690  14.405
22147W        W83568  40.452  10.316  13.937
22148W        W83569  24.517  15.779  10.529
22149W        W83570  42.291  44.311  12.451
22150W        W83571  29.007  33.967  10.566
22151W        W83572  39.453  36.467   2.694
22152W        W83573   9.816  23.174   3.845
22153W        W83574  42.402  33.419  12.909
22154W        W83575  37.513  42.385   4.661
22155W        W83576  19.774  31.468   4.719
22156W        W83577   9.755  20.043   4.717
22157W        W83578  13.676  35.040   3.269
22158W        W83579  18.241   9.364  11.455
22159W        W83580  37.463  29.453   0.737
22160W        W83581   9.156  33.602   4.666
22161W        W83582   9.817  13.695   2.288
22162W        W83583  14.114  25.177  11.388
22163W        W83584  18.084  34.375   0.924
22164W        W83585  28.128  13.211   2.775
22165W        W83586   3.420   9.285  10.412
22166W        W83587  13.107   0.458  14.340
22167W        W83588  17.704  39.413   2.891
22168W        W83589  27.508  25.159   1.696
22169W        W83590  10.241  19.660   0.843
22170W        W83591  20.213   4.848  14.851
22171W        W83592  31.153  39.516  12.355
22172W        W83593  22.105  15.328   0.341
22173W        W83594   5.724  11.280   0.822
22174W        W83595   2.284  28.046  14.005
22175W        W83596  41.296  26.648  11.126
22176W        W83597  31.143  44.968  12.067
22177W        W83598  44.776  42.455   0.813
22178W        W83599   0.362  18.076  11.968
22179W        W83600  31.591   8.168   1.405
22180W        W83601  11.844  26.681   1.427
22181W        W83602  30.976  13.642   2.752
22182W        W83603   9.890   7.809  11.430
22183W        W83604   3.751  44.971   5.256
22184W        W83605   0.744  41.434   2.833
22185W        W83606  10.196  22.686   2.342
22186W        W83607  31.950  16.252  10.551
22187W        W83608   5.278  18.563   1.348
22188W        W83609   5.267  21.693  11.118
22189W        W83610  19.615   4.741   1.706
22190W        W83611  39.523   7.843  11.966
22191W        W83612  38.972  15.276  11.470
22192W        W83613  33.393  31.934   1.895
22193W        W83614  26.683  22.638   4.641
22194W        W83615  19.063  15.206   1.724
22195W        W83616  32.057  35.940   3.837
22196W        W83617  23.649  36.909   4.755
22197W        W83618  42.413  15.206  11.491
22198W        W83619  43.946   9.190   2.289
22199W        W83620  28.572   6.261   2.802
22200W        W83621  23.542   5.418  12.091
22201W        W83622  18.648  26.105   1.933
22202W        W83623  20.119   3.373   1.439
22203W        W83624   4.938   5.364   3.247
22204W        W83625  38.556  37.574   3.282
22205W        W83626  39.321   7.397   4.247
22206W        W83627  22.538  32.470  14.332
22207W        W83628  31.538  42.992   4.630
22208W        W83629  20.097  37.542  11.956
22209W        W83630  39.343  43.789  11.990
22210W        W83631  16.248  23.108  12.072
22211W        W83632  44.444  13.349   4.128
22212W        W83633  44.789  37.356   0.294
22213W        W83634  41.456  30.029   1.703
22214W        W83635  40.950  36.012  13.361
22215W        W83636  43.774  16.286   1.864
22216W        W83637  34.589  15.630   0.333
22217W        W83638  29.928  22.060   3.272
22218W        W83639  34.880  32.483  12.823
22219W        W83640  35.908  13.117   0.260
22220W        W83641  44.975   3.456   2.881
22221W        W83642   1.926   5.310  11.885
22222W        W83643   4.763  24.056  10.125
22223W        W83644  15.800  13.698   3.727
22224W        W83645  42.389  20.528   2.877
22225W        W83646  13.728  37.982   3.198
22226W        W83647  38.464   6.917  10.420
22227W        W83648  42.941  25.618   1.807
22228W        W83649   7.312  24.184  12.841
22229W        W83650   8.374  40.875  14.771
22230W        W83651   3.261  18.662   1.698
22231W        W83652  30.516  23.068  11.531
22232W        W83653  23.212  19.660   1.270
22233W        W83654  36.938  37.539  13.317
22234W        W83655   1.746  25.535  10.040
22235W        W83656  40.431  11.239   0.918
22236W        W83657   8.698   3.223   1.755
22237W        W83658  16.229  18.644   1.703
22238W        W83659   2.917  33.434   3.221
22239W        W83660  28.130  44.382   3.864
22240W        W83661  32.946  39.375   2.334
22241W        W83662  36.872  43.955   0.874
22242W        W83663  38.342  16.209   4.242
22243W        W83664  10.285  34.942   0.425
22244W        W83665  22.668  17.599  13.339
22245W        W83666  12.683  12.706   1.434
22246W        W83667  14.702   5.377  10.418
22247W        W83668  36.472  28.016   0.340
22248W        W83669   4.322   0.261  12.010
22249W        W83670   6.302  14.110   0.921
22250W        W83671  31.938  11.171   4.163
22251W        W83672  18.162  25.470   1.885
22252W        W83673  44.478  33.034  12.388
22253W        W83674  36.513  43.909   3.765
22254W        W83675  29.972  14.796   0.252
22255W        W83676  19.118  41.470  12.976
22256W        W83677  12.818   2.811   4.606
22257W        W83678   2.289  43.434   4.119
22258W        W83679  12.744  23.610   4.766
22259W        W83680  12.134  20.673   4.597
22260W        W83681  10.663  30.622  13.356
22261W        W83682   1.731  29.116  13.852
22262W        W83683  35.018  38.858  11.004
22263W        W83684   7.264  12.674   2.212
22264W        W83685   7.697  13.699   2.247
22265W        W83686  20.567  42.439  10.909
22266W        W83687  21.068  44.442   2.703
22267W        W83688  31.493   5.308   2.772
22268W        W83689  42.784  20.763   1.439
22269W        W83690  10.701  26.184  14.970
22270W        W83691   0.297  30.059  14.416
22271W        W83692  35.390   2.426   2.308
22272W        W83693   6.415  43.861  14.355
22273W        W83694   4.846  10.205   2.329
22274W        W83695  27.178   4.311  13.389
22275W        W83696  10.161  23.019   2.322
22276W        W83697   9.708  34.013  14.928
22277W        W83698  41.428  40.361   1.825
22278W        W83699  25.159   6.687   1.825
22279W        W83700  39.329  26.062  14.415
22280W        W83701  43.348  32.569  12.350
22281W        W83702  26.075  31.920  11.910
22282W        W83703   5.928   0.871   3.648
22283W        W83704  41.468  43.965   0.426
22284W        W83705  30.959   8.816  10.086
22285W        W83706  33.122  11.797   0.953
22286W        W83707   4.272   5.782  13.906
22287W        W83708   9.736   3.800   0.730
22288W        W83709  44.350  27.551  14.368
22289W        W83710  12.173  27.115  13.546
22290W        W83711  24.184   4.700   1.413
22291W        W83712   6.416  20.122  14.805
22292W        W83713  12.347  11.833  14.792
22293W        W83714  15.250  11.848  10.612
22294W        W83715  15.101  35.868   4.173
22295W        W83716  27.194   1.731  11.033
22296W        W83717  38.910   3.930  13.846
22297W        W83718  31.559   0.373  14.489
22298W        W83719  39.511   7.702  11.094
22299W        W83720  27.557  35.602   4.690
22300W        W83721  32.102  14.161  11.414
22301W        W83722  13.225  25.613  11.017
22302W        W83723  37.454   2.267   4.773
22303W        W83724  30.024  24.674  13.941
22304W        W83725  10.725  35.054   4.325
22305W        W83726  19.255  10.838  11.587
22306W        W83727   0.950  36.003   1.732
22307W        W83728  10.148  39.853  12.064
22308W        W83729  40.344  23.728  13.964
22309W        W83730  38.354  26.509   3.866
22310W        W83731  37.480  24.043  14.028
22311W        W83732  33.073  42.948  14.342
22312W        W83733  23.156  39.827   4.763
22313W        W83734  10.342  27.652   1.865
22314W        W83735   2.331  29.149  13.986
22315W        W83736  22.104  19.098   2.892
22316W        W83737  16.771  25.963   1.729
22317W        W83738  14.690  43.351   2.807
22318W        W83739  12.166  35.930   1.288
22319W        W83740  40.866  20.720   1.253
22320W        W83741  18.167  10.254  12.443
22321W        W83742  36.445   8.344  14.451
22322W        W83743  31.912  24.613  14.918
22323W        W83744  22.136  31.417   2.295
22324W        W83745  32.964  18.234   4.300
22325W        W83746  19.633  24.056   4.172
22326W        W83747  29.434   4.331   1.341
22327W        W83748  35.985  29.631  10.581
22328W        W83749  28.676  26.003  13.430
22329W        W83750  32.986  31.093   0.472
22330W        W83751  12.854  14.826  11.418
22331W        W83752  35.912  30.960   2.665
22332W        W83753  35.364  20.270  13.490
22333W        W83754  15.322   6.886  12.502
22334W        W83755   0.928  37.009  14.282
22335W        W83756   8.218  17.761  12.996
22336W        W83757   5.840  21.716   3.657
22337W        W83758   6.839  23.625  13.045
22338W        W83759  27.195  17.615  13.491
22339W        W83760  21.243   9.875   0.802
22340W        W83761  28.557  33.614   1.235
22341W        W83762  39.522  36.420  11.119
22342W        W83763  43.995  20.061  13.425
22343W        W83764  23.190  26.156   3.739
22344W        W83765  42.380  22.152  13.489
22345W        W83766   4.334   2.403  11.428
22346W        W83767  17.269   4.916   9.929
22347W        W83768  39.835   6.427  11.374
22348W        W83769  33.432  16.788   0.424
22349W        W83770  38.948  44.875  13.424
22350W        W83771  10.767  16.799   4.698
22351W        W83772  43.391  41.021   3.832
22352W        W83773   0.488  40.539   3.381
22353W        W83774  27.626   6.872   2.771
22354W        W83775   1.400  28.944  10.923
22355W        W83776  32.906   1.925   1.320
22356W        W83777  39.881   1.841  14.385
22357W        W83778  12.184  18.761  11.416
22358W        W83779  17.223  10.224  11.380
22359W        W83780  14.232  34.478   1.374
22360W        W83781   6.726  14.127  12.417
22361W        W83782   1.324  15.652   3.705
22362W        W83783  18.219  11.223  14.309
22363W        W83784  14.161  38.065  10.896
22364W        W83785  42.354  32.443   0.803
22365W        W83786  37.367   5.709   0.881
22366W        W83787  17.561  42.917  10.907
22367W        W83788  11.324  44.317   0.918
22368W        W83789  22.133  24.223   1.311
22369W        W83790   1.446   7.683  13.907
22370W        W83791  22.519  44.912   1.900
22371W        W83792   3.877  37.406   3.649
22372W        W83793  32.587  36.922   1.711
22373W        W83794   6.776  36.054   4.644
22374W        W83795  26.162  23.990  14.305
22375W        W83796   1.755  32.506  12.350
22376W        W83797  19.730  38.522  11.934
22377W        W83798  34.985  33.064  12.449
22378W        W83799  39.965   5.733  13.043
22379W        W83800  26.153  31.401  12.385
22380W        W83801  31.149  10.726  11.591
22381W        W83802  22.657  37.366  12.449
22382W        W83803  24.610  37.572   4.245
22383W        W83804  22.508   2.366  14.918
22384W        W83805   1.349  38.443  13.037
22385W        W83806   2.894  32.074  14.830
22386W        W83807  32.889   0.893   0.411
22387W        W83808  28.464  32.510  12.453
22388W        W83809  43.420  34.868  11.974
22389W        W83810  24.025  30.459  14.346
22390W        W83811   3.889  20.751   2.691
22391W        W83812  40.327  39.490   3.321
22392W        W83813  14.195  24.135  10.516
22393W        W83814  11.704  21.034   0.408
22394W        W83815  17.577  28.038  10.481
22395W        W83816   0.982  11.689   1.241
22396W        W83817  22.627   7.220  14.498
22397W        W83818   8.393  30.602  14.927
22398W        W83819  35.920  13.782  12.565
22399W        W83820  25.090  18.603   2.283
22400W        W83821  13.255  12.733   0.822
22401W        W83822  34.526  27.558  11.038
22402W        W83823  16.318  12.211  11.607
22403W        W83824   4.346  28.469   5.117
22404W        W83825  33.412  36.351   0.957
22405W        W83826  16.112  21.747   1.716
22406W        W83827  21.721  12.311   9.498
22407W        W83828   9.299  27.482  13.421
22408W        W83829  16.112  35.008   0.873
22409W        W83830  23.633  12.264   2.848
22410W        W83831  33.002  15.181   2.289
22411W        W83832  14.322  16.210   0.325
22412W        W83833   2.764   8.666   1.826
22413W        W83834  21.616  41.514  14.437
22414W        W83835  37.386  22.010  14.366
22415W        W83836  38.374  23.524  14.384
22416W        W83837  43.276  17.063  13.372
22417W        W83838   1.941  32.434  13.864
22418W        W83839  32.981   1.767  12.087
22419W        W83840  35.079  13.168   2.720
22420W        W83841  21.749  31.073  13.388
22421W        W83842  36.001   4.321   4.273
22422W        W83843   1.740  29.440  12.864
22423W        W83844  24.639  27.142  14.870
22424W        W83845  38.344  43.289  13.313
22425W        W83846   0.414  18.229  13.481
22426W        W83847  38.032  42.369  13.310
22427W        W83848   7.911  32.080   2.767
22428W        W83849  13.655  18.225  12.431
22429W        W83850  43.004  28.028   1.814
22430W        W83851   4.372  23.098  11.381
22431W        W83852   6.859  24.657   4.307
22432W        W83853  39.063   0.308  11.432
22433W        W83854  12.220  15.690   4.747
22434W        W83855   9.655  44.791  12.467
22435W        W83856  14.809  21.718   1.412
22436W        W83857  31.029  29.586  14.481
22437W        W83858   3.215  42.020  14.898
22438W        W83859  22.731  24.091  12.043
22439W        W83860  38.377  15.157  14.333
22440W        W83861   4.892  26.615   0.415
22441W        W83862  17.177   0.479  12.932
22442W        W83863   0.410  11.794   0.825
22443W        W83864  11.680  32.511  14.938
22444W        W83865  19.052   4.234   3.216
22445W        W83866  34.951  13.201   4.627
22446W        W83867  34.587  44.861  14.291
22447W        W83868  24.144  13.156   4.721
22448W        W83869  37.481  15.578  12.894
22449W        W83870  39.487  16.768  13.349
22450W        W83871  17.587  39.524  13.038
22451W        W83872  29.635  24.711  11.491
22452W        W83873  13.791  15.321   0.369
22453W        W83874  43.885  16.781   2.719
22454W        W83875  31.594  40.011  12.455
22455W        W83876   3.365  25.111   0.864
22456W        W83877  23.652  26.615   1.791
22457W        W83878  28.966  38.021   0.807
22458W        W83879   8.765  17.203  12.381
22459W        W83880  42.454  40.845   4.693
22460W        W83881  12.127  25.090   4.824
22461W        W83882  31.096   9.334   2.187
22462W        W83883  41.484  36.355   0.913
22463W        W83884   2.282   6.883   3.243
22464W        W83885  13.296   2.796  12.554
22465W        W83886  29.560   2.949   3.748
22466W        W83887  26.581  42.821  11.514
22467W        W83888   1.898  35.372   0.876
22468W        W83889   8.873  13.124  11.611
22469W        W83890  32.629  33.923  12.952
22470W        W83891  22.243  19.564  11.431
22471W        W83892  42.028   8.290  11.552
22472W        W83893  16.653   8.655   3.656
22473W        W83894  22.052  41.520  12.904
22474W        W83895  26.042  35.363  10.464
22475W        W83896   9.161  42.332   0.332
22476W        W83897   1.760  32.124   0.896
22477W        W83898  15.800  17.741   3.371
22478W        W83899   5.831  22.745   3.230
22479W        W83900  24.045  38.410   1.382
22480W        W83901  32.971  40.032   2.199
22481W        W83902   2.236  28.942  12.034
22482W        W83903  27.607  18.772   0.914
22483W        W83904  11.832  16.589  12.042
22484W        W83905  11.364  27.481   1.869
22485W        W83906  37.046  37.074   4.322
22486W        W83907   8.292  29.586  11.384
22487W        W83908  23.579  32.569   3.868
22488W        W83909  34.866  37.535  10.504
22489W        W83910  21.680  24.042  10.933
22490W        W83911  32.597  14.298   3.687
22491W        W83912  40.030  36.910  10.473
22492W        W83913  12.845  17.722  14.505
22493W        W83914  42.324  36.003  12.375
22494W        W83915  29.623  36.920   2.221
22495W        W83916  44.378  39.872   4.704
22496W        W83917  25.030  29.093  11.520
22497W        W83918  43.923   5.275  10.554
22498W        W83919  38.477  42.315  13.407
22499W        W83920   9.257   1.332  11.601
22500W        W83921   8.699  34.558   3.288
22501W        W83922  28.055   1.339  13.466
22502W        W83923   7.195   6.360   0.318
22503W        W83924  16.603  14.666   1.802
22504W        W83925  39.351   9.807   1.427
22505W        W83926  15.246   8.345   2.700
22506W        W83927  26.553  10.297   3.644
22507W        W83928  11.776   0.912   1.413
22508W        W83929  11.297   0.980   0.878
22509W        W83930  24.031  24.072   1.451
22510W        W83931   8.370  13.121   0.467
22511W        W83932  35.035  20.635   1.363
22512W        W83933  22.009  12.765  11.473
22513W        W83934   6.240  44.393   1.877
22514W        W83935  28.074   4.842   3.158
22515W        W83936  33.584  28.110   0.483
22516W        W83937  12.184  26.569  13.856
22517W        W83938  12.627  32.457  12.877
22518W        W83939  40.819  21.204   4.774
22519W        W83940  40.375  23.694  14.810
22520W        W83941  38.896  42.336   2.262
22521W        W83942   6.292  29.000   0.465
22522W        W83943  31.523  39.540   3.217
22523W        W83944  10.160   5.236   4.705
22524W        W83945  39.403  23.146   1.377
22525W        W83946  17.566   2.334  10.944
22526W        W83947  31.043  39.899   3.241
22527W        W83948  33.381  41.437   1.735
22528W        W83949  33.952  30.423   2.680
22529W        W83950  30.039   7.335  10.509
22530W        W83951  18.213  42.400  12.398
22531W        W83952   3.941  18.254  14.302
22532W        W83953  42.998  17.275   1.934
22533W        W83954  34.942  23.141   1.313
22534W        W83955   6.695   8.281  13.876
22535W        W83956   4.718  33.509   3.725
22536W        W83957  15.690   1.762   4.662
22537W        W83958  41.394  27.163   0.426
22538W        W83959  22.081   7.254  14.473
22539W        W83960  27.178  43.793  10.642
22540W        W83961  31.034   9.755   0.870
22541W        W83962  22.192   3.459   2.786
22542W        W83963  33.397  22.711   0.377
22543W        W83964   4.748  19.708  13.398
22544W        W83965  21.652   0.884   3.268
22545W        W83966  31.453   8.290   4.788
22546W        W83967  19.671   7.220   1.890
22547W        W83968  31.435  37.572   2.332
22548W        W83969  17.778  38.439  14.479
22549W        W83970   9.838  33.571  14.364
22550W        W83971   7.888  32.007   1.774
22551W        W83972   1.788  23.599   1.449
22552W        W83973   6.763  40.941   2.267
22553W        W83974  19.735  12.619   2.304
22554W        W83975  10.694  15.599  13.863
22555W        W83976  14.214  30.657  13.928
22556W        W83977  41.812  25.149   1.355
22557W        W83978   1.423   9.323   1.832
22558W        W83979  35.941  24.173   4.146
22559W        W83980   4.293  29.530  13.911
22560W        W83981  14.749   9.343   1.294
22561W        W83982  37.928   0.961  14.007
22562W        W83983  16.676  17.221   1.823
22563W        W83984  15.745  22.719  14.461
22564W        W83985  19.726  25.121  13.478
22565W        W83986  17.686  36.483  14.463
22566W        W83987   5.701  36.052  13.980
22567W        W83988  33.389  26.627  13.353
22568W        W83989  19.128   6.850  14.993
22569W        W83990  11.785  27.163   2.370
22570W        W83991  27.589  38.840   2.734
22571W        W83992  21.172  31.964  13.886
22572W        W83993  43.802   4.399   3.260
22573W        W83994  38.933  11.622   3.377
22574W        W83995  10.813  28.116   3.722
22575W        W83996   8.756  44.830  11.528
22576W        W83997  27.156  18.570   4.140
22577W        W83998  28.442  44.271   3.382
22578W        W83999  43.832   5.201   3.788
22579W        W84000  15.211   6.287   1.311
22580W        W84001   4.869   1.422  12.410
22581W        W84002   8.226  29.033   2.885
22582W        W84003  29.970  12.261   0.785
22583W        W84004  39.945  38.531   3.252
22584W        W84005  40.803  22.729  12.997
22585W        W84006  18.590  24.696   0.848
22586W        W84007  14.251  22.636   0.478
22587W        W84008   9.748   4.786   4.329
22588W        W84009   8.274  19.765   2.221
22589W        W84010  18.791  25.497   1.911
22590W        W84011  38.001  30.464  13.962
22591W        W84012  15.097   5.790   2.711
22592W        W84013  15.168  34.588   2.377
22593W        W84014  34.104   0.878   3.820
22594W        W84015  24.013   4.748   4.702
22595W        W84016  30.080  41.472  13.335
22596W        W84017   8.780  22.681   0.325
22597W        W84018  25.488  22.698  11.433
22598W        W84019   2.284   4.389  14.368
22599W        W84020   8.370   1.775   3.367
22600W        W84021  29.599  26.672   0.859
22601W        W84022  24.647  22.746   1.308
22602W        W84023  11.687  23.155   3.280
22603W        W84024   1.836  33.443  13.378
22604W        W84025  20.180  11.780   3.729
22605W        W84026  28.111  22.742  13.855
22606W        W84027  11.626  37.530   5.200
22607W        W84028   4.792   6.259   4.260
22608W        W84029   4.721  11.836   0.931
22609W        W84030  28.672  29.458   3.257
22610W        W84031  37.386  36.501   0.371
22611W        W84032   5.694  36.892  13.520
22612W        W84033  36.567  20.733  10.915
22613W        W84034  11.179  43.827   0.395
22614W        W84035  19.259   0.769   2.382
22615W        W84036  32.951   7.679  12.942
22616W        W84037  34.457   0.784  11.073
22617W        W84038  35.585  24.603   4.622
22618W        W84039  12.696  16.615  14.365
22619W        W84040   2.332  15.722   1.728
22620W        W84041  13.127   0.865  14.505
22621W        W84042  39.488  20.656   4.786
22622W        W84043  25.572   7.416  10.908
22623W        W84044  18.774   7.175  12.888
22624W        W84045  10.825  11.365   2.300
22625W        W84046  17.200  41.881  12.540
22626W        W84047   5.730  22.544  11.968
22627W        W84048  27.122  18.730  14.509
22628W        W84049  20.749  25.978   4.782
22629W        W84050  41.831  26.482  12.914
22630W        W84051   3.237   8.387  13.463
22631W        W84052  31.136  28.675  13.323
22632W        W84053  14.276  28.595  14.457
22633W        W84054  30.052  27.614  12.412
22634W        W84055   5.693   3.798  14.334
22635W        W84056  39.376  36.980  10.941
22636W        W84057  18.266  12.652   4.283
22637W        W84058  29.470  26.117   0.930
22638W        W84059   5.781  35.082   1.798
22639W        W84060  36.003  31.058   0.752
22640W        W84061  18.296  22.742  12.836
22641W        W84062  24.604  44.393   1.236
22642W        W84063  44.939  38.932  12.937
22643W        W84064  36.862   3.254   0.798
22644W        W84065  29.585  16.681  10.598
22645W        W84066  42.284  15.187  14.384
22646W        W84067  32.109  37.061   1.868
22647W        W84068  22.138  38.842   3.755
22648W        W84069  16.661  24.105  11.525
22649W        W84070   0.930  10.817  14.946
22650W        W84071  19.684   8.825   0.331
22651W        W84072  43.334  43.380   1.263
22652W        W84073  16.793   9.803  11.092
22653W        W84074  36.436  28.955  14.490
22654W        W84075   9.872  19.140   4.610
22655W        W84076   4.291  23.512   4.740
22656W        W84077  21.574  20.122   2.792
22657W        W84078   5.384  37.881  12.459
22658W        W84079   3.893  29.527   4.679
22659W        W84080  30.494   7.692   0.857
22660W        W84081  42.016  17.576   0.371
22661W        W84082   0.916   7.263  11.003
22662W        W84083  39.383  18.552  11.929
22663W        W84084   9.865  36.976  13.393
22664W        W84085  33.000  37.561   5.178
22665W        W84086   0.832  21.579   1.442
22666W        W84087   0.364   1.969  12.475
22667W        W84088  32.633  28.000  12.910
22668W        W84089   1.283  19.654   0.963
22669W        W84090  41.917  28.668   0.258
22670W        W84091  38.557  39.926   3.724
22671W        W84092   0.340  35.104   5.103
22672W        W84093  25.021  38.550   4.136
22673W        W84094  30.130  27.523   2.330
22674W        W84095  14.240  24.695  12.903
22675W        W84096  16.238  32.062  14.462
22676W        W84097  30.073  32.898   0.883
22677W        W84098  34.022  40.837  14.863
22678W        W84099  32.565  13.345  14.335
22679W        W84100  13.731   8.383  10.551
22680W        W84101  41.329  33.540  13.925
22681W        W84102  29.537  29.963  12.019
22682W        W84103  19.584  30.619   3.238
22683W        W84104  41.026  42.488  14.318
22684W        W84105   8.748  12.699   4.354
22685W        W84106  14.262  19.110   1.300
22686W        W84107  29.596   1.753  13.910
22687W        W84108  18.563  32.076   1.363
22688W        W84109  20.065  44.929   3.183
22689W        W84110  18.200  36.461   2.246
22690W        W84111  38.876  15.814  12.575
22691W        W84112  17.182  19.218   4.255
22692W        W84113  25.480  29.654   0.439
22693W        W84114  27.980   8.350   3.829
22694W        W84115  43.764  16.614   2.343
22695W        W84116  37.502  17.620  14.966
22696W        W84117  23.717  37.373  12.862
22697W        W84118  38.962   7.293   4.345
22698W        W84119  30.010  24.654   2.792
22699W        W84120  11.656   2.344   4.744
22700W        W84121  12.616   7.900   3.199
22701W        W84122  28.483  32.057  10.506
22702W        W84123   7.394  15.092  10.546
22703W        W84124  26.526  24.995   1.698
22704W        W84125   2.882   1.868   0.314
22705W        W84126  29.600  17.592   3.819
22706W        W84127  19.676  39.505  13.948
22707W        W84128   6.775   0.881  12.035
22708W        W84129  25.989   6.733   2.202
22709W        W84130  16.770  38.925   1.338
22710W        W84131  11.261  24.100  12.849
22711W        W84132  20.599  23.118  12.451
22712W        W84133  13.185  31.048  13.543
22713W        W84134   3.737  21.096  12.930
22714W        W84135  17.077  30.954   2.249
22715W        W84136  18.586  18.136   4.198
22716W        W84137  25.124   4.294  13.314
22717W        W84138  19.180  22.702   3.751
22718W        W84139  28.664  24.162  14.877
22719W        W84140  15.095   2.284  10.501
22720W        W84141   9.364  16.724  13.034
22721W        W84142  36.882  22.086   4.141
22722W        W84143  34.577   1.455  12.866
22723W        W84144  40.327   4.375   0.468
22724W        W84145  30.973  13.343  13.014
22725W        W84146  18.161  41.832  11.035
22726W        W84147  41.462   7.678  12.540
22727W        W84148  27.194  21.626   0.865
22728W        W84149  30.967   6.330   0.390
22729W        W84150   3.233  10.827   2.321
22730W        W84151  16.214  31.512  11.961
22731W        W84152   7.805  34.975  12.426
22732W        W84153  23.728  40.358  14.350
22733W        W84154  17.081  12.205   2.385
22734W        W84155   4.409  15.152  14.814
22735W        W84156  12.264  19.757   2.270
22736W        W84157  17.573  30.608  12.856
22737W        W84158  25.587  44.317  12.896
22738W        W84159  24.113  26.470  11.575
22739W        W84160   1.373  30.014  11.584
22740W        W84161  17.683  28.180   3.782
22741W        W84162  14.713  25.518  12.879
22742W        W84163   7.189  20.712  12.052
22743W        W84164  35.427  38.865  10.958
22744W        W84165   3.333  30.510  11.414
22745W        W84166  27.606  32.063   0.331
22746W        W84167   7.371  11.806  11.556
22747W        W84168  16.599  39.826   0.835
22748W        W84169  20.080  17.225   5.680
22749W        W84170  21.186   8.771   2.346
22750W        W84171  21.699  34.116  11.869
22751W        W84172  21.752   9.217  14.806
22752W        W84173  39.830   1.462   4.196
22753W        W84174  10.835  15.713   0.901
22754W        W84175  34.116  24.156   2.854
22755W        W84176  18.735  34.117  12.989
22756W        W84177  31.054   5.289   2.226
22757W        W84178  31.986  23.715  14.409
22758W        W84179   2.746  19.768   2.677
22759W        W84180  38.014  22.065  11.595
22760W        W84181  40.995   9.257  11.899
22761W        W84182   3.784   8.197   1.876
22762W        W84183  30.423  25.012   0.456
22763W        W84184  27.963  23.517  12.399
22764W        W84185  37.017  22.197  13.060
22765W        W84186  19.645   0.440   1.773
22766W        W84187  32.107   0.277   0.800
22767W        W84188  23.104  15.674  14.004
22768W        W84189  41.841  19.151  13.043
22769W        W84190  18.091   2.939  14.385
22770W        W84191   0.390  32.467   2.196
22771W        W84192  31.447   3.360  11.944
22772W        W84193   8.189  22.096   4.228
22773W        W84194  22.670   6.761  14.785
22774W        W84195   6.910   2.902   0.755
22775W        W84196  17.798  42.387  14.867
22776W        W84197  44.383  21.132   4.746
22777W        W84198   6.862   4.359   4.250
22778W        W84199  11.754  38.524  12.931
22779W        W84200   7.838  35.570   1.882
22780W        W84201  19.736  24.708   1.253
22781W        W84202  29.577  15.284   0.845
22782W        W84203  28.963  10.176   2.719
22783W        W84204   9.770  35.373   1.281
22784W        W84205  26.678  32.526  12.423
22785W        W84206  10.701  19.766   1.735
22786W        W84207  32.920  13.150  12.449
22787W        W84208  11.181  11.336   0.442
22788W        W84209  21.683  12.123  11.433
22789W        W84210  21.590   6.711   4.720
22790W        W84211  36.957   3.458   0.307
22791W        W84212  32.543  36.405  13.496
22792W        W84213  28.589  25.142  10.456
22793W        W84214  39.482   7.765  12.381
22794W        W84215  29.448  14.684  14.367
22795W        W84216   4.881  38.838   9.978
22796W        W84217  10.727  42.851  14.392
22797W        W84218  40.320  12.328   1.870
22798W        W84219  40.915  41.535  11.458
22799W        W84220  28.140  21.030  13.353
22800W        W84221  27.970  10.142  10.528
22801W        W84222  33.442  18.181  13.027
22802W        W84223  38.432  28.132  12.561
22803W        W84224  38.484  41.384   2.825
22804W        W84225  20.051  31.946   3.209
22805W        W84226  25.063   0.973   0.852
22806W        W84227  32.041   7.895  10.913
22807W        W84228   9.365   8.823   0.313
22808W        W84229   0.485  32.430   4.671
22809W        W84230   5.261  32.595  13.446
22810W        W84231  17.563  44.954  14.378
22811W        W84232   2.850  33.113  14.373
22812W        W84233  23.527  30.454   1.788
22813W        W84234  31.505   0.780  14.861
22814W        W84235  32.968  42.976   3.676
22815W        W84236  42.411  20.076   4.299
22816W        W84237  17.702   3.256  11.577
22817W        W84238  10.168   3.724  14.291
22818W        W84239  14.794  22.727  15.000
22819W        W84240   4.387  41.445  12.953
22820W        W84241   6.322  14.685  13.851
22821W        W84242  36.584   2.322  11.379
22822W        W84243  39.825  41.524   2.797
22823W        W84244  33.588  17.066   4.313
22824W        W84245   4.268  42.489  14.393
22825W        W84246   2.864  17.606  13.924
22826W        W84247  24.633   4.738  10.641
22827W        W84248   1.962  16.131   2.342
22828W        W84249  14.295  27.168   1.908
22829W        W84250   1.853  13.153  14.991
22830W        W84251  15.241  25.515  13.308
22831W        W84252  15.119  39.928  12.527
22832W        W84253  38.899  36.045  12.075
22833W        W84254  34.895  11.661  11.060
22834W        W84255  12.852  22.596  12.354
22835W        W84256  20.203  28.008  11.911
22836W        W84257  12.628  23.031   1.736
22837W        W84258  26.134  16.677   4.298
22838W        W84259  28.127  22.199  11.548
22839W        W84260  32.555  32.553   0.377
22840W        W84261   9.672  16.574   1.268
22841W        W84262   6.201  23.234  12.949
22842W        W84263   1.816   6.257  11.448
22843W        W84264  42.855   7.368   2.356
22844W        W84265  26.023  43.405   2.683
22845W        W84266   0.441  24.496   2.405
22846W        W84267  34.915  38.327  12.923
22847W        W84268  37.344  36.422   1.932
22848W        W84269  34.980  15.664  11.529
22849W        W84270   0.296  33.112   1.883
22850W        W84271  30.569  14.147  12.421
22851W        W84272  35.877  36.582  10.970
22852W        W84273  27.660  41.945   1.387
22853W        W84274  27.071   1.841   1.708
22854W        W84275   5.875  37.347   1.318
22855W        W84276  35.941  15.149  10.557
22856W        W84277  43.453  28.652  12.383
22857W        W84278  40.508   0.824   0.867
22858W        W84279   9.727  30.034   1.931
22859W        W84280  21.540   4.408  12.984
22860W        W84281  41.422  23.517  12.508
22861W        W84282   1.295   8.295  11.504
22862W        W84283  22.597  20.062  10.900
22863W        W84284  30.023  31.938  12.034
22864W        W84285   2.838  25.967   2.387
22865W        W84286  22.068   0.846  10.451
22866W        W84287  17.696   2.349   0.883
22867W        W84288  20.572  24.196  12.551
22868W        W84289   4.275  37.880   0.430
22869W        W84290  22.204  14.321   0.847
22870W        W84291  35.515   7.796  12.968
22871W        W84292  34.563  40.054  13.467
22872W        W84293  17.760  25.041  12.025
22873W        W84294  18.141   0.486   0.833
22874W        W84295   5.239  35.897   2.823
22875W        W84296   7.348  34.028  11.497
22876W        W84297  41.491  19.722  13.877
22877W        W84298  11.764  41.384  14.508
22878W        W84299  18.114   0.381   3.280
22879W        W84300  38.548  11.760   4.603
22880W        W84301   0.914  17.700   4.677
22881W        W84302  27.135   1.863  14.943
22882W        W84303  30.437  15.100   4.729
22883W        W84304  16.737  10.262   3.186
22884W        W84305  14.654   6.866  13.535
22885W        W84306  25.062  16.810  13.346
22886W        W84307  38.473   8.281   2.402
22887W        W84308  42.813  25.541   4.796
22888W        W84309  25.180   4.818  12.495
22889W        W84310  24.228  37.567  10.451
22890W        W84311  15.166  36.553  12.844
22891W        W84312  21.080   9.688   1.834
22892W        W84313   1.799  26.684  12.576
22893W        W84314  38.488  11.309   0.895
22894W        W84315   6.784  36.922  11.916
22895W        W84316  21.101  28.528   0.877
22896W        W84317  21.019  11.241   2.191
22897W        W84318  36.485  37.880  12.364
22898W        W84319  35.953  12.855   3.851
22899W        W84320   3.724   8.296  10.993
22900W        W84321  13.826  43.373   3.813
22901W        W84322   1.775  21.255   3.154
22902W        W84323   4.856  20.655  11.421
22903W        W84324  38.998  34.989  12.900
22904W        W84325  23.986  18.159  11.428
22905W        W84326  19.194  27.058   2.819
22906W        W84327   7.803  41.973   2.665
22907W        W84328  34.895  14.793  11.523
22908W        W84329  10.867  20.598   0.296
22909W        W84330  20.241   2.288  12.436
22910W        W84331   3.954  39.551   1.861
22911W        W84332  43.447  23.145  14.396
22912W        W84333  38.983  37.867   3.231
22913W        W84334  20.098   6.397   1.925
22914W        W84335  28.009  16.674  11.378
22915W        W84336  32.584  19.181   3.870
22916W        W84337  23.647  44.839   0.883
22917W        W84338  39.340  13.734  14.782
22918W        W84339  40.821  43.294  14.953
22919W        W84340   3.214   5.338  11.864
22920W        W84341   7.852   4.929   3.764
22921W        W84342   7.354   9.210   2.831
22922W        W84343  39.489  23.735   0.840
22923W        W84344  39.883  12.686   2.290
22924W        W84345   1.865  42.501   2.677
22925W        W84346  17.627  32.064  11.071
22926W        W84347  32.403  24.570   0.293
22927W        W84348  11.177  38.407  11.978
22928W        W84349  25.537  39.882   1.892
22929W        W84350   6.722  40.397   3.285
22930W        W84351  21.559  18.739  11.436
22931W        W84352   4.334  28.107   2.329
22932W        W84353   4.287   2.925  13.907
22933W        W84354  24.012  28.612  11.597
22934W        W84355  35.888   9.769   2.870
22935W        W84356   2.391  15.706   4.683
22936W        W84357   3.270   6.809   3.201
22937W        W84358  43.005  22.035  12.045
22938W        W84359   3.238  17.239  14.969
22939W        W84360  38.525  30.644  11.455
22940W        W84361  31.044  36.499  14.341
22941W        W84362   6.371  11.625  12.559
22942W        W84363   5.763  39.994   9.599
22943W        W84364  11.670  38.377   3.727
22944W        W84365  12.233  43.952   2.183
22945W        W84366  36.369  15.155  14.513
22946W        W84367  13.804  14.667   3.211
22947W        W84368   1.784  34.975   3.780
22948W        W84369  40.391  41.041   2.755
22949W        W84370  18.789  22.247  14.973
22950W        W84371   0.975   8.319  11.606
22951W        W84372  36.032  32.096   4.630
22952W        W84373  10.221  15.124  14.842
22953W        W84374   0.415  43.853   1.238
22954W        W84375  27.518   1.841   4.667
22955W        W84376  29.093  34.433   0.339
22956W        W84377   2.852   0.864  13.831
22957W        W84378  34.946  27.579  12.986
22958W        W84379   3.877  10.640  10.593
22959W        W84380  26.560  39.961   0.365
22960W        W84381  14.773  17.574   1.244
22961W        W84382  35.943  44.792  12.376
22962W        W84383  22.063  31.109   1.727
22963W        W84384  31.122   2.469   0.755
22964W        W84385   1.821  43.427  13.890
22965W        W84386  29.930  40.503  10.931
22966W        W84387  23.099  29.657  11.011
22967W        W84388  28.017  10.362  13.891
22968W        W84389  20.667  32.083  12.530
22969W        W84390  23.633  31.459   2.344
22970W        W84391  17.229   4.352  12.446
22971W        W84392  16.305   9.225  13.518
22972W        W84393  19.165  36.868   1.701
22973W        W84394  13.115  38.441   3.334
22974W        W84395  37.349   3.426  12.955
22975W        W84396  37.987  31.425   2.791
22976W        W84397  34.035  30.627   4.809
22977W        W84398  42.797   9.879   0.284
22978W        W84399  29.122  25.129   2.817
22979W        W84400  24.512  38.988  10.548
22980W        W84401  25.485  17.576  13.318
22981W        W84402  39.028  19.607  14.473
22982W        W84403  30.582  24.203   4.797
22983W        W84404  44.003  16.749  11.866
22984W        W84405   9.751  25.149  13.820
22985W        W84406  18.669  27.085  14.293
22986W        W84407  26.637  36.587   0.917
22987W        W84408  33.921  30.501  14.413
22988W        W84409  28.668  22.026  14.426
22989W        W84410   9.740  23.683  13.482
22990W        W84411  18.203  31.571   3.639
22991W        W84412  40.861   9.187   1.366
22992W        W84413  44.790  13.331   3.659
22993W        W84414   8.242  36.540  10.561
22994W        W84415  26.975   2.447  14.437
22995W        W84416  10.358  31.554  12.013
22996W        W84417  20.730  11.730   4.786
22997W        W84418  17.105  38.325  13.547
22998W        W84419  29.586   3.278   4.607
22999W        W84420  16.093  39.475   0.828
23000W        W84421  40.979  28.472   2.817
23001W        W84422  39.313  32.993   0.791
23002W        W84423   7.207  35.364  11.485
23003W        W84424  39.937   6.701  11.397
23004W        W84425  34.045  21.158  14.331
23005W        W84426  35.523  21.117   3.712
23006W        W84427  24.681  39.340   4.125
23007W        W84428   7.860  21.043  11.066
23008W        W84429  25.981  19.564  13.061
23009W        W84430  30.070  24.590   3.653
23010W        W84431  17.796  11.627  10.125
23011W        W84432  16.731   9.281   3.693
23012W        W84433   1.436  30.039   4.672
23013W        W84434   3.266  18.095   3.842
23014W        W84435  12.117  27.191   3.646
23015W        W84436   5.888  14.269  12.937
23016W        W84437  11.672  30.061  12.543
23017W        W84438   3.753  38.427   1.701
23018W        W84439  26.566  25.996  12.553
23019W        W84440  15.703  30.956  13.340
23020W        W84441   5.881  32.561   4.830
23021W        W84442  16.626  42.299   2.309
23022W        W84443  31.999  31.554   2.228
23023W        W84444  10.833  32.905   0.925
23024W        W84445  12.693  21.752  12.043
23025W        W84446  17.264   7.388  11.610
23026W        W84447   5.294  22.135   5.680
23027W        W84448  41.382  36.034   3.221
23028W        W84449  26.992  20.764   0.961
23029W        W84450  16.593   4.374   0.902
23030W        W84451  44.454  12.317  14.414
23031W        W84452  32.521  23.161  10.450
23032W        W84453  29.556  20.766  12.913
23033W        W84454  17.645  35.927   1.897
23034W        W84455  43.792  36.459   3.240
23035W        W84456  26.165  32.444   3.668
23036W        W84457  18.576   7.331  10.097
23037W        W84458  18.551  42.381  14.801
23038W        W84459  20.641  38.971   0.754
23039W        W84460   9.810  26.996   4.278
23040W        W84461  24.681  30.952  12.473
23041W        W84462  30.918  13.704  14.829
23042W        W84463   2.821  27.002   4.673
23043W        W84464  16.082  31.510   1.306
23044W        W84465  21.563  35.474   1.763
23045W        W84466  42.499  12.136  12.436
23046W        W84467  21.515  10.868  12.912
23047W        W84468   3.765  33.080   0.299
23048W        W84469  43.844  34.454   4.316
23049W        W84470  25.999  17.284   0.284
23050W        W84471  28.103   6.330  11.966
23051W        W84472  38.568  31.593  10.488
23052W        W84473  25.150  43.346  14.513
23053W        W84474  36.883  21.193  12.833
23054W        W84475  28.445  33.575   0.946
23055W        W84476  13.109  18.553  13.818
23056W        W84477  17.702  44.867   3.842
23057W        W84478   6.346  30.540  11.041
23058W        W84479  44.494   2.940   0.930
23059W        W84480  25.483  25.139  11.976
23060W        W84481   1.888  22.029  13.517
23061W        W84482  33.463   6.255  14.433
23062W        W84483  11.785  15.140  10.529
23063W        W84484   1.376  22.599   3.301
23064W        W84485   7.730  42.406   0.775
23065W        W84486   5.810  11.344   4.220
23066W        W84487  19.153  35.410  10.935
23067W        W84488  38.942  18.557   3.187
23068W        W84489  31.436  14.110   0.378
23069W        W84490  20.093  13.121  10.444
23070W        W84491  32.400  23.581   1.387
23071W        W84492  19.619  24.089  11.048
23072W        W84493  13.666  26.977  12.378
23073W        W84494  19.606  33.008   1.336
23074W        W84495  31.630   7.735  14.341
23075W        W84496   9.829  11.316   0.259
23076W        W84497  20.211  40.006  13.450
23077W        W84498   1.916   6.369  10.994
23078W        W84499  27.583  12.307   1.797
23079W        W84500  21.144  17.295   4.341
23080W        W84501   9.727  34.396   4.301
23081W        W84502  31.051  11.260  11.896
23082W        W84503  34.025  24.576   3.157
23083W        W84504  38.567  43.828   3.335
23084W        W84505   6.194  13.336  12.825
23085W        W84506   7.758  34.381  12.986
23086W        W84507  23.670   9.266  10.462
23087W        W84508   2.311   0.432  11.503
23088W        W84509  14.191  28.113   2.669
23089W        W84510  38.000  29.594  14.407
23090W        W84511  13.108  38.492   2.339
23091W        W84512  10.372  10.716  12.923
23092W        W84513  27.099  33.963   2.325
23093W        W84514  29.457  42.901   1.737
23094W        W84515  15.624  22.211   0.745
23095W        W84516  32.023  13.268  12.468
23096W        W84517  29.930   6.733   0.344
23097W        W84518  27.555   1.448   1.916
23098W        W84519  41.807  25.160  10.953
23099W        W84520  37.570   5.329  12.579
23100W        W84521  10.640  43.420  11.997
23101W        W84522  37.425  39.485  14.291
23102W        W84523  30.425   9.260  13.430
23103W        W84524  26.055  31.449   2.314
23104W        W84525  30.646  11.293  13.480
23105W        W84526  39.382  41.313   5.298
23106W        W84527  36.084  15.289  11.899
23107W        W84528  40.379  37.083  12.981
23108W        W84529  22.729   2.747  14.398
23109W        W84530  33.944  30.470  10.583
23110W        W84531  35.495  17.675  14.767
23111W        W84532  37.990   2.956  13.411
23112W        W84533  28.134  41.800  13.045
23113W        W84534  16.577  30.612   2.288
23114W        W84535  43.937  34.891   0.476
23115W        W84536   1.299  39.954   1.805
23116W        W84537  38.424   9.762   2.368
23117W        W84538  43.413  31.147   2.731
23118W        W84539  29.003   1.274   3.193
23119W        W84540   1.964  15.203   0.868
23120W        W84541  44.434  12.161   2.663
23121W        W84542  21.094  35.478  14.005
23122W        W84543  22.081  21.067  10.905
23123W        W84544   8.347  20.064  14.309
23124W        W84545  36.054  35.565  12.454
23125W        W84546  41.873  10.236  10.148
23126W        W84547  27.193  37.491   4.686
23127W        W84548  30.547  20.093   3.362
23128W        W84549  19.225  34.449   2.406
23129W        W84550  36.955  25.597  12.538
23130W        W84551  41.873  25.086  13.439
23131W        W84552   4.810   1.908   3.867
23132W        W84553  34.069   6.280  13.052
23133W        W84554  21.077   2.770   4.312
23134W        W84555  23.097  33.626  12.579
23135W        W84556   2.393  12.693  12.400
23136W        W84557   5.696  32.435   0.930
23137W        W84558  41.944  36.047   1.397
23138W        W84559  35.859   4.768   4.294
23139W        W84560   8.656  31.505   2.260
23140W        W84561   5.773  22.591  12.546
23141W        W84562  44.922  31.054   2.360
23142W        W84563   6.722  23.222   1.263
23143W        W84564  19.621  23.668  13.810
23144W        W84565   5.226  31.102   5.271
23145W        W84566   0.325   8.810   2.342
23146W        W84567  10.242   0.251  11.094
23147W        W84568  23.636  39.427   1.844
23148W        W84569  16.746  13.769   0.307
23149W        W84570  16.225   7.790  10.974
23150W        W84571   7.737   8.299   4.115
23151W        W84572  28.672  15.666   4.631
23152W        W84573  35.547  19.722   3.348
23153W        W84574   3.872  18.761   0.876
23154W        W84575  33.019  29.101   4.776
23155W        W84576  14.263  27.649  14.778
23156W        W84577   9.300  18.569  14.478
23157W        W84578  23.127  34.391   3.744
23158W        W84579  34.425  15.648   1.843
23159W        W84580  39.445  27.998  10.978
23160W        W84581  43.515  11.834   4.790
23161W        W84582  24.558   7.859  14.901
23162W        W84583  15.284   1.837  13.423
23163W        W84584  42.886  41.373   4.319
23164W        W84585  20.098  18.593   4.222
23165W        W84586   8.395  27.631  13.514
23166W        W84587  30.119   0.835   1.905
23167W        W84588   1.363   1.975   1.259
23168W        W84589  20.571  23.549   3.323
23169W        W84590  42.945  37.950  10.438
23170W        W84591   5.895   1.411   1.257
23171W        W84592   5.863   7.415  11.511
23172W        W84593   6.341  20.668   1.792
23173W        W84594  33.514  33.999   1.892
23174W        W84595  43.304  31.010   4.336
23175W        W84596   3.232  23.087  13.880
23176W        W84597  15.315  40.014  13.055
23177W        W84598  39.412  33.584   0.336
23178W        W84599  31.634  10.186   2.417
23179W        W84600   1.760   9.648  12.083
23180W        W84601  39.051   5.332   3.667
23181W        W84602  22.214  27.627   1.767
23182W        W84603  35.882  18.580   4.711
23183W        W84604  14.678  16.791  10.640
23184W        W84605  43.472  29.634   2.332
23185W        W84606  17.196  24.002  13.351
23186W        W84607  35.596  18.730  14.317
23187W        W84608  36.513  17.126  11.102
23188W        W84609  14.248  34.507   5.303
23189W        W84610   6.708  21.581  12.423
23190W        W84611  34.597  11.713  14.915
23191W        W84612  26.200  28.657   0.377
23192W        W84613  33.066  38.950  14.988
23193W        W84614  37.973   6.831  11.471
23194W        W84615  27.194  11.788   3.362
23195W        W84616  27.610  40.316  13.956
23196W        W84617  21.560  18.681   3.852
23197W        W84618  26.033  40.541   3.662
23198W        W84619  29.427  22.057   4.227
23199W        W84620   3.437  42.864   4.289
23200W        W84621  31.121  30.591  11.444
23201W        W84622   7.233  23.221  13.307
23202W        W84623  11.698  29.035   0.359
23203W        W84624  33.918  38.494  11.569
23204W        W84625   8.266  19.166  11.880
23205W        W84626  20.703  13.806  13.432
23206W        W84627   9.219  17.607   2.844
23207W        W84628  15.281   2.805   2.790
23208W        W84629  38.326  12.642   4.182
23209W        W84630  30.994  37.985  13.407
23210W        W84631   0.317  23.517   4.744
23211W        W84632  37.545   4.236  11.114
23212W        W84633  31.428  22.577  12.842
23213W        W84634  40.932  14.712   2.195
23214W        W84635  28.036  40.375  12.976
23215W        W84636   9.811  42.829   4.243
23216W        W84637  31.403  35.454  14.913
23217W        W84638  20.029  43.409  14.980
23218W        W84639  32.613  30.056  13.971
23219W        W84640   5.823  40.979   1.287
23220W        W84641  10.174  26.999  14.012
23221W        W84642   4.944  13.719  14.804
23222W        W84643  38.959  42.881  12.000
23223W        W84644  30.156  17.750   3.153
23224W        W84645   9.784  26.530  11.898
23225W        W84646  11.137   7.267   2.756
23226W        W84647  42.952   2.945  10.486
23227W        W84648   3.824  39.432   2.227
23228W        W84649   9.829   2.909  12.553
23229W        W84650  34.086  44.761   0.874
23230W        W84651  44.998  22.596  11.938
23231W        W84652  11.128  38.974  10.906
23232W        W84653   1.840  31.472   1.321
23233W        W84654  34.108  14.786  12.343
23234W        W84655  20.587  44.432  11.437
23235W        W84656  20.737  24.215   0.851
23236W        W84657  43.814   4.808  11.491
23237W        W84658  34.945  43.912   2.842
23238W        W84659  42.303  27.507   4.770
23239W        W84660  10.361  22.734  12.491
23240W        W84661  34.511  26.583   3.680
23241W        W84662  18.624  28.931   3.651
23242W        W84663  26.542  10.211  10.892
23243W        W84664  18.149  39.361   3.283
23244W        W84665   3.237   3.866   3.252
23245W        W84666   3.417  20.697   4.160
23246W        W84667  44.881  37.502   4.230
23247W        W84668  31.424  23.045  12.875
23248W        W84669  27.505  28.641   3.852
23249W        W84670  30.041   6.255   1.868
23250W        W84671  41.020   9.703  13.393
23251W        W84672   1.847   6.357   3.155
23252W        W84673  38.334  17.126  14.355
23253W        W84674  13.343  15.707   3.633
23254W        W84675  38.888   1.397   4.285
23255W        W84676  19.610  14.286  11.568
23256W        W84677  39.531  19.175  14.431
23257W        W84678   6.829  13.804   0.363
23258W        W84679   7.394  27.167   2.837
23259W        W84680  12.613  37.443   0.912
23260W        W84681   9.837  42.346   2.412
23261W        W84682  23.507  26.036   0.898
23262W        W84683  44.764   2.254  11.005
23263W        W84684  37.882  34.096  14.344
23264W        W84685   5.314  39.373   0.814
23265W        W84686  33.028   5.833   2.869
23266W        W84687  44.340  17.665   3.341
23267W        W84688  10.327   1.390   4.682
23268W        W84689  35.546  41.339  12.944
23269W        W84690  36.958  43.820  14.494
23270W        W84691  22.195  27.533   4.259
23271W        W84692  21.714   9.743   4.670
23272W        W84693  25.065  38.969   5.110
23273W        W84694  16.617   5.206  10.617
23274W        W84695   2.874  19.048  12.034
23275W        W84696  19.704  30.629   0.366
23276W        W84697   1.781  12.362   1.247
23277W        W84698  19.644  29.644   0.906
23278W        W84699  41.852  20.624   0.739
23279W        W84700  27.505  28.530   1.841
23280W        W84701  15.613  39.341   3.699
23281W        W84702  34.520  11.806   3.199
23282W        W84703  21.512  37.048  13.402
23283W        W84704  27.565  38.950   3.828
23284W        W84705   7.885  38.567  12.009
23285W        W84706  44.001  10.345  12.034
23286W        W84707  29.615  21.557   4.223
23287W        W84708  29.080  10.747   2.816
23288W        W84709  40.548  40.911  11.448
23289W        W84710  11.765  21.711  12.390
23290W        W84711   0.789  28.069   3.780
23291W        W84712   0.363  36.894  14.373
23292W        W84713  27.994   8.803   2.387
23293W        W84714  39.050  27.083   1.755
23294W        W84715  32.140  40.322  13.518
23295W        W84716  19.565   1.327  12.897
23296W        W84717   4.714   6.363  11.026
23297W        W84718  14.809  44.974   0.281
23298W        W84719  28.524  37.962  12.913
23299W        W84720   3.801  37.078   0.311
23300W        W84721  32.058   1.355  13.883
23301W        W84722  34.952  25.507   1.425
23302W        W84723  44.462  41.477   1.336
23303W        W84724   7.677  36.428   1.421
23304W        W84725  34.395  15.226   4.712
23305W        W84726  35.070  30.458   4.204
23306W        W84727  31.414  11.854  10.435
23307W        W84728  26.143  18.586  10.476
23308W        W84729   9.217  40.006  13.545
23309W        W84730  41.016   9.332  14.440
23310W        W84731  16.584   4.301  11.048
23311W        W84732  36.474  11.221   0.262
23312W        W84733  37.369   1.439  11.461
23313W        W84734  28.948  26.460   3.319
23314W        W84735  43.362  44.789   2.354
23315W        W84736  20.613   5.255  14.940
23316W        W84737  43.413  41.998  13.021
23317W        W84738   4.285  27.501   0.916
23318W        W84739   7.811   4.313   1.228
23319W        W84740   4.916  36.017  12.988
23320W        W84741  28.507  44.900   2.245
23321W        W84742  14.632  39.503   2.884
23322W        W84743  15.669  22.072  11.941
23323W        W84744  31.402   1.304  14.513
23324W        W84745  28.056  29.103  13.515
23325W        W84746   5.915  37.386   5.241
23326W        W84747  19.659  26.701  12.980
23327W        W84748   2.362  32.906  12.028
23328W        W84749   9.281   3.762  12.088
23329W        W84750  11.226  35.506  14.787
23330W        W84751  44.396   7.227  14.012
23331W        W84752   8.194  41.425  11.554
23332W        W84753  15.701  23.538  11.013
23333W        W84754  40.325  22.574  13.385
23334W        W84755  38.450  20.553   3.243
23335W        W84756  35.982  22.225   4.748
23336W        W84757  19.618   5.252   2.243
23337W        W84758  20.231  26.026   0.801
23338W        W84759   9.722  16.779   4.754
23339W        W84760   1.812  18.731   2.873
23340W        W84761   4.223  12.208  10.566
23341W        W84762  12.694   9.746  11.429
23342W        W84763  29.549  22.555   0.944
23343W        W84764  38.859  32.947  11.941
23344W        W84765   5.705  23.182   4.732
23345W        W84766  31.967  28.075   4.702
23346W        W84767  12.313  35.902  12.421
23347W        W84768  33.125   9.848  12.541
23348W        W84769   6.856  42.321   4.638
23349W        W84770  17.676  28.565  10.446
23350W        W84771  31.545   2.767   2.791
23351W        W84772  25.518   4.380  12.532
23352W        W84773  24.113  27.559  14.828
23353W        W84774  33.064  18.066  12.431
23354W        W84775   3.389  39.873  13.010
23355W        W84776  42.315  11.840   0.245
23356W        W84777   3.810  33.436  12.058
23357W        W84778   7.329  19.216   3.672
23358W        W84779  41.995  36.855   4.770
23359W        W84780  30.505  40.336   1.719
23360W        W84781  41.827  18.744   4.241
23361W        W84782  18.742  22.029   3.720
23362W        W84783  31.915  34.409  14.804
23363W        W84784  36.858   7.308   1.715
23364W        W84785   3.794   6.732  14.774
23365W        W84786  15.779  41.405  10.405
23366W        W84787  39.851   4.282  12.434
23367W        W84788   2.236  13.343  12.988
23368W        W84789  36.527   4.399  13.947
23369W        W84790  28.452  39.415   2.819
23370W        W84791   5.267  39.342  14.846
23371W        W84792  12.702  11.842  11.519
23372W        W84793  26.480   8.283   5.248
23373W        W84794  34.576  20.734   2.691
23374W        W84795  25.546  15.698  13.340
23375W        W84796   0.304   9.873   1.800
23376W        W84797   6.398  18.105   1.710
23377W        W84798   1.925  23.042  14.873
23378W        W84799  39.473  41.823  12.445
23379W        W84800  41.995   3.327  13.007
23380W        W84801  29.115  23.112  12.519
23381W        W84802   4.315  35.026   3.154
23382W        W84803   4.412  30.954  12.443
23383W        W84804  11.779  33.001   3.239
23384W        W84805  17.273   8.179  14.026
23385W        W84806  38.405  29.629  10.963
23386W        W84807  36.985  30.457  11.903
23387W        W84808  39.458  33.004  13.807
23388W        W84809  19.555  27.502  14.953
23389W        W84810  30.918  11.195   0.759
23390W        W84811  21.683  20.587  13.393
23391W        W84812   2.422  17.788  11.479
23392W        W84813   9.323   4.256   1.439
23393W        W84814  40.325  25.184  12.055
23394W        W84815  30.546  13.170  12.542
23395W        W84816  23.541  12.736   3.216
23396W        W84817  43.483  24.629  11.486
23397W        W84818  11.338   7.847  13.384
23398W        W84819  19.090  39.317   0.915
23399W        W84820   5.792  10.312  14.387
23400W        W84821  28.656  20.641  10.623
23401W        W84822  10.227   1.864   3.790
23402W        W84823  25.055   6.293   2.853
23403W        W84824  10.329   6.243   5.108
23404W        W84825  38.562  41.961  12.542
23405W        W84826  15.244  34.473  11.067
23406W        W84827  25.496   8.167   4.749
23407W        W84828  28.969  44.778   0.870
23408W        W84829  14.247   0.977  12.056
23409W        W84830   2.326  39.406  11.538
23410W        W84831  20.198   0.270  12.553
23411W        W84832  20.028  29.602   0.248
23412W        W84833  19.135  14.146   3.279
23413W        W84834   1.362   8.656  11.372
23414W        W84835   0.402   3.756  14.998
23415W        W84836  33.405  13.618   2.809
23416W        W84837  14.229  14.596   3.744
23417W        W84838   3.747  29.038  14.004
23418W        W84839  15.601  20.248   4.761
23419W        W84840  21.614  34.385  13.996
23420W        W84841  32.508  14.268   2.277
23421W        W84842  24.505  37.523  12.898
23422W        W84843  12.198   8.678   4.683
23423W        W84844   4.334  29.609   4.603
23424W        W84845  42.406  28.461  10.549
23425W        W84846  18.231  44.282   2.308
23426W        W84847  23.572  37.480   4.816
23427W        W84848  34.562  42.517  11.893
23428W        W84849   8.225  34.037  12.926
23429W        W84850   2.371  36.022  14.944
23430W        W84851  36.422  44.336   4.733
23431W        W84852  18.650  28.501  11.484
23432W        W84853  28.533  16.173  11.529
23433W        W84854  42.934  36.086  11.981
23434W        W84855   0.381  38.540   4.799
23435W        W84856  38.530   0.761  12.439
23436W        W84857   7.787  40.474   4.221
23437W        W84858   3.390  39.315   2.816
23438W        W84859   2.275  22.649  12.494
23439W        W84860  17.182  16.597  14.003
23440W        W84861  32.894   4.820   2.293
23441W        W84862  37.406  26.478  12.093
23442W        W84863  10.772   5.811  11.066
23443W        W84864   6.710  28.662   0.805
23444W        W84865   9.154  31.063   2.742
23445W        W84866  16.607  24.031  12.057
23446W        W84867   9.210  13.309  11.601
23447W        W84868  37.871   8.356   2.849
23448W        W84869  25.634   7.247  14.513
23449W        W84870  16.798   0.937   0.847
23450W        W84871   5.934   9.295  14.886
23451W        W84872  42.344  35.505   1.210
23452W        W84873  23.073  31.900  12.063
23453W        W84874  34.583  16.579   4.648
23454W        W84875  30.471  14.270   4.707
23455W        W84876  26.690  29.131   4.656
23456W        W84877  12.742   8.252  12.887
23457W        W84878  38.038  41.896  10.414
23458W        W84879   9.652  11.852   2.207
23459W        W84880  31.518  32.973  13.364
23460W        W84881  11.711  21.673  14.024
23461W        W84882  37.021   0.962  12.064
23462W        W84883  11.267   5.893   3.181
23463W        W84884  44.907  11.337  12.516
23464W        W84885   3.319  26.486   4.185
23465W        W84886  20.178  20.701   0.729
23466W        W84887  29.461  16.669  11.900
23467W        W84888  34.466  17.788  13.427
23468W        W84889   5.281  16.807  11.381
23469W        W84890  24.666  31.015   2.809
23470W        W84891  17.241  28.559  13.008
23471W        W84892  20.752   5.227  12.519
23472W        W84893  24.974  22.030   1.368
23473W        W84894  40.969  37.058   3.282
23474W        W84895  22.187  13.711   3.344
23475W        W84896  20.251  28.646  12.478
23476W        W84897  28.483  30.970  11.990
23477W        W84898  29.455  33.520   4.675
23478W        W84899  17.608  32.582   4.353
23479W        W84900  15.161  24.043  13.428
23480W        W84901  19.553  20.091  12.515
23481W        W84902  37.498  12.195   2.857
23482W        W84903  42.976  13.134   4.259
23483W        W84904  43.478  22.706   4.774
23484W        W84905   0.828   9.192   2.777
23485W        W84906  34.543  11.694  14.030
23486W        W84907  41.835  18.279   4.255
23487W        W84908  21.709  35.883   0.967
23488W        W84909  44.454  30.161  13.049
23489W        W84910  11.689  15.243  12.429
23490W        W84911  14.730  21.153   0.433
23491W        W84912   4.744  44.873   2.184
23492W        W84913  39.933  25.101  13.878
23493W        W84914   4.739  20.226   3.801
23494W        W84915   6.274   2.414  14.376
23495W        W84916  24.055  22.518   0.432
23496W        W84917  28.099   6.317  12.353
23497W        W84918   9.850  10.752   3.251
23498W        W84919  36.542   0.779   2.277
23499W        W84920  31.926   9.324  11.430
23500W        W84921  11.157  16.760   3.646
23501W        W84922  34.609   4.886   2.345
23502W        W84923  34.033   7.358   4.823
23503W        W84924  31.601   0.434   3.652
23504W        W84925  10.378  36.524   2.372
23505W        W84926  18.169  33.942   4.300
23506W        W84927   4.285  37.960  14.874
23507W        W84928  39.048  37.579  11.989
23508W        W84929  40.432  37.037   4.817
23509W        W84930  18.637  19.608   0.301
23510W        W84931  17.782  29.150  13.389
23511W        W84932  35.095  28.061   0.459
23512W        W84933   4.817  44.280  14.479
23513W        W84934  25.514  42.954  10.515
23514W        W84935   0.832   8.718  14.838
23515W        W84936  42.959  20.758  13.521
23516W        W84937   2.829  34.591   9.949
23517W        W84938  30.464   5.694   3.262
23518W        W84939  17.287  31.570  12.911
23519W        W84940  26.530  41.408   1.398
23520W        W84941  12.849  29.053  11.528
23521W        W84942   0.748  38.464  10.413
23522W        W84943   8.836  27.985  11.062
23523W        W84944  28.635  29.129   1.428
23524W        W84945  34.092   3.952   0.873
23525W        W84946  31.617  15.146   1.723
23526W        W84947  30.530  12.150  12.911
23527W        W84948  11.222   6.922  10.604
23528W        W84949  43.296  18.224  12.017
23529W        W84950  26.178  13.135  10.537
23530W        W84951  19.191  15.159   0.432
23531W        W84952  43.426  28.944   4.676
23532W        W84953  44.948   7.198  12.836
23533W        W84954  29.585  36.499   3.323
23534W        W84955  33.437  34.552  11.456
23535W        W84956  17.107  44.330  11.895
23536W        W84957   9.876  42.450  12.829
23537W        W84958  29.427   7.298   0.860
23538W        W84959  15.649  26.660  14.885
23539W        W84960  40.502  31.978   5.127
23540W        W84961  29.611  22.633  13.394
23541W        W84962  12.311  28.108   4.617
23542W        W84963  25.974  11.622   1.779
23543W        W84964   0.305  13.836  11.399
23544W        W84965  21.174   2.765  14.402
23545W        W84966  30.118   8.662  10.944
23546W        W84967  27.041  28.032   3.821
23547W        W84968  23.997  23.526  14.326
23548W        W84969  10.293   6.230  12.982
23549W        W84970  29.113  34.887   2.844
23550W        W84971  19.082  22.513   4.350
23551W        W84972  44.356   3.880   2.718
23552W        W84973  21.522  32.903   0.398
23553W        W84974  44.778  36.059  12.519
23554W        W84975  17.792  20.263  13.061
23555W        W84976   5.709  33.402  11.930
23556W        W84977   1.347  39.553  14.875
23557W        W84978  22.582  14.772  14.979
23558W        W84979  28.475  30.014  10.585
23559W        W84980  44.786  11.239   3.192
23560W        W84981  39.329   2.796   2.834
23561W        W84982  35.363   0.920   3.850
23562W        W84983   4.732  32.115   4.220
23563W        W84984  36.059  11.225   3.784
23564W        W84985  14.817   4.368  13.428
23565W        W84986  33.925  23.636   4.660
23566W        W84987  32.494  42.808  10.912
23567W        W84988   6.728  26.685   0.940
23568W        W84989  12.238  15.086  11.512
23569W        W84990   2.267  18.071  12.521
23570W        W84991  17.131  14.756  14.850
23571W        W84992  11.673   2.287  14.429
23572W        W84993  14.312  40.805   1.392
23573W        W84994  43.353  43.946   0.809
23574W        W84995   4.900   0.278   2.292
23575W        W84996  17.617   3.357   3.809
23576W        W84997  33.439   7.909  11.913
23577W        W84998  43.351   8.873  12.018
23578W        W84999  32.120  21.105   4.805
23579W        W85000  29.495  33.414  14.434
23580W        W85001  22.129  28.166  13.857
23581W        W85002   0.797  26.195   3.767
23582W        W85003  11.654   4.248   0.389
23583W        W85004  14.324  30.590   3.225
23584W        W85005  18.710  11.687  13.874
23585W        W85006  19.150   6.856  10.921
23586W        W85007  15.133  43.926   2.875
23587W        W85008   2.805  29.986  12.970
23588W        W85009  34.969  12.802  11.400
23589W        W85010  38.049  24.720   3.689
23590W        W85011   1.820  29.549   4.268
23591W        W85012  19.668  12.850   0.819
23592W        W85013  22.672  18.185  12.908
23593W        W85014  36.546  15.634   2.820
23594W        W85015  38.057  22.186  12.352
23595W        W85016  43.293   0.790  10.928
23596W        W85017  20.192  25.609  13.417
23597W        W85018  30.909  40.403   4.133
23598W        W85019  26.494   6.731  10.620
23599W        W85020   6.397  26.693   2.823
23600W        W85021  43.386  20.188   0.243
23601W        W85022  30.648  15.679   5.321
23602W        W85023  20.626  36.966   3.376
23603W        W85024  44.891  21.193  11.005
23604W        W85025  28.107  38.838  12.830
23605W        W85026  22.219  15.577   0.905
23606W        W85027  37.079  13.713  12.533
23607W        W85028  38.563  28.517   3.659
23608W        W85029   2.438   4.272   1.257
23609W        W85030  28.014   0.766  12.427
23610W        W85031  10.339  26.059  14.929
23611W        W85032  30.500   5.914  14.963
23612W        W85033  11.248  13.349   3.798
23613W        W85034  44.487  22.178   1.888
23614W        W85035   3.408  32.458   2.885
23615W        W85036   0.362  36.015   0.275
23616W        W85037   3.807  43.771  10.551
23617W        W85038  17.617  30.980   9.548
23618W        W85039  23.671  15.271   1.861
23619W        W85040  25.504  21.259  13.890
23620W        W85041  37.508  21.254   3.376
23621W        W85042   1.842  23.700   1.888
23622W        W85043  32.119  19.248   3.803
23623W        W85044  12.721  27.554  12.074
23624W        W85045  44.383  18.273  14.022
23625W        W85046  12.133  26.687  10.617
23626W        W85047  24.675  25.555  12.462
23627W        W85048  32.403   6.913  11.081
23628W        W85049  30.909  42.959  11.941
23629W        W85050  11.718  29.136   2.747
23630W        W85051  26.174  19.108   2.291
23631W        W85052  42.002  34.539  10.517
23632W        W85053  33.571  40.926   2.708
23633W        W85054  15.271   1.808  12.879
23634W        W85055  16.660  14.747   0.303
23635W        W85056  40.383  35.030  12.510
23636W        W85057   8.218  44.796  13.375
23637W        W85058  14.622  28.935   4.790
23638W        W85059  23.152  17.643  13.325
23639W        W85060  12.223  29.547   4.688
23640W        W85061  31.063   8.180   2.189
23641W        W85062  20.185  43.818   1.823
23642W        W85063  11.661   7.232   2.197
23643W        W85064  18.277   7.227  13.967
23644W        W85065   0.971  25.178   0.747
23645W        W85066  42.387  15.106  14.905
23646W        W85067   9.751   0.766  12.393
23647W        W85068  33.997  41.926   3.374
23648W        W85069  14.605  16.639  13.376
23649W        W85070  27.664  26.042  13.449
23650W        W85071  37.007  31.457   2.387
23651W        W85072  16.636  12.825   3.216
23652W        W85073  15.772   5.815   2.796
23653W        W85074   6.352  16.200  14.403
23654W        W85075  19.076   1.803  12.845
23655W        W85076  41.846   5.428  13.038
23656W        W85077  31.629  19.760  14.391
23657W        W85078  42.443  34.928  13.880
23658W        W85079  33.890  19.741   0.456
23659W        W85080  34.011   6.308   3.829
23660W        W85081  29.091  34.374  14.994
23661W        W85082  25.084  23.667  10.137
23662W        W85083  26.991  10.822   2.214
23663W        W85084  16.074  23.199  13.900
23664W        W85085  15.750  34.934   4.252
23665W        W85086  22.718  44.943  11.858
23666W        W85087  32.400   6.714  10.538
23667W        W85088   8.665  11.688  12.920
23668W        W85089  23.183  29.665  11.892
23669W        W85090  35.509  29.119  11.408
23670W        W85091  15.323  16.315  14.989
23671W        W85092   6.424  19.055   3.327
23672W        W85093  30.520  18.741  12.963
23673W        W85094  29.520   0.798   0.392
23674W        W85095  11.298  39.555  10.921
23675W        W85096  15.167  13.243   4.290
23676W        W85097  32.994  39.475   0.921
23677W        W85098   9.872  31.917  10.439
23678W        W85099  16.761  27.077   0.769
23679W        W85100  18.554  17.794   1.380
23680W        W85101  14.747  18.758  14.768
23681W        W85102  29.011  30.998   3.381
23682W        W85103  43.921  25.157   2.391
23683W        W85104  17.603  39.383   4.236
23684W        W85105  14.729  29.119  10.560
23685W        W85106   8.198  43.009   2.265
23686W        W85107   6.412   6.827  14.478
23687W        W85108  39.878  24.101  14.426
23688W        W85109   5.367  12.692   3.721
23689W        W85110  13.306  36.955  12.572
23690W        W85111   2.894  27.657  14.348
23691W        W85112  20.733  24.675  14.012
23692W        W85113  21.735   5.376  14.400
23693W        W85114  43.788   7.794  13.316
23694W        W85115  36.864  28.963  12.083
23695W        W85116  10.789   1.855   3.802
23696W        W85117  32.553  42.438  13.971
23697W        W85118   5.236  34.950  11.067
23698W        W85119  43.933  15.142  11.994
23699W        W85120   1.255  38.041   2.300
23700W        W85121  39.445  10.764   3.810
23701W        W85122  29.094  27.126   4.724
23702W        W85123  43.900  44.896   1.210
23703W        W85124  23.093   2.803  10.499
23704W        W85125   2.307  17.672  13.920
23705W        W85126  29.056   0.255  11.100
23706W        W85127  11.660  26.558   4.770
23707W        W85128  29.546   4.347   3.356
23708W        W85129   3.331  37.963   0.480
23709W        W85130  31.410  15.807  10.987
23710W        W85131   7.172  17.597   3.177
23711W        W85132   0.353   8.290   2.807
23712W        W85133  22.584  30.076   4.176
23713W        W85134  29.499  36.089   5.301
23714W        W85135  11.820  24.007  11.421
23715W        W85136  13.230  34.042   0.908
23716W        W85137  25.205   9.221  13.842
23717W        W85138  30.111   4.281   0.933
23718W        W85139   5.412  19.769  12.541
23719W        W85140   3.384  27.179   1.224
23720W        W85141   4.743  22.128   9.598
23721W        W85142  29.984   9.698   0.868
23722W        W85143  39.978  36.060  14.452
23723W        W85144  24.611  42.849   0.939
23724W        W85145  36.062  12.282   2.375
23725W        W85146   8.810  40.053   3.641
23726W        W85147   3.304  37.913   4.283
23727W        W85148   9.367   0.263   2.282
23728W        W85149   9.358   0.874  12.931
23729W        W85150  41.918  37.456  13.861
23730W        W85151  22.189  10.876   3.678
23731W        W85152   8.674  31.953   2.884
23732W        W85153  25.195  34.872  14.019
23733W        W85154  24.629  28.956  12.840
23734W        W85155  22.743  28.647  11.981
23735W        W85156  29.458   5.200   2.707
23736W        W85157  17.768  28.186   2.193
23737W        W85158  29.128  28.967   4.636
23738W        W85159  17.759   5.234   3.633
23739W        W85160  41.354  18.058  13.808
23740W        W85161  41.955   8.170   2.726
23741W        W85162  34.916  29.470  13.003
23742W        W85163   9.272  35.031  10.929
23743W        W85164  22.070  19.220  10.538
23744W        W85165  40.383  29.663  10.564
23745W        W85166   6.224  22.018   1.928
23746W        W85167  16.778  13.195   0.788
23747W        W85168  44.872   3.804   1.262
23748W        W85169  26.120  33.611  12.831
23749W        W85170   8.303  25.045  11.934
23750W        W85171   3.845  22.587  11.060
23751W        W85172   6.826   9.296  13.529
23752W        W85173   8.858  37.984  11.883
23753W        W85174  31.026  13.681  10.973
23754W        W85175  12.682  18.258   3.763
23755W        W85176  38.341  38.954   2.813
23756W        W85177  18.286  40.815  13.451
23757W        W85178  35.956  27.538  10.454
23758W        W85179  18.590   8.815  10.466
23759W        W85180  15.724   2.231   3.804
23760W        W85181  31.495  17.164  10.555
23761W        W85182  35.517  35.944  13.540
23762W        W85183  24.038  25.151   1.384
23763W        W85184  38.830  11.191  13.441
23764W        W85185  36.449  15.627  10.954
23765W        W85186  35.093  17.173   1.812
23766W        W85187  18.643  18.288   4.702
23767W        W85188   4.922   3.875   0.301
23768W        W85189   5.303  39.992   3.764
23769W        W85190  25.625  16.240  13.377
23770W        W85191  28.635  25.111  14.422
23771W        W85192   1.458   2.458  13.524
23772W        W85193  32.432  25.588   2.805
23773W        W85194  31.408  26.014   2.245
23774W        W85195  40.546   3.821  13.865
23775W        W85196  14.639  23.553   5.134
23776W        W85197   6.356  24.603   3.205
23777W        W85198  17.104   5.408  10.961
23778W        W85199  43.886   9.230  11.498
23779W        W85200  27.977   5.206  13.872
23780W        W85201  29.583  11.158  10.554
23781W        W85202   6.870  43.771  12.910
23782W        W85203  12.149  35.437   4.119
23783W        W85204  32.100  39.407  11.884
23784W        W85205  14.619  31.476   0.310
23785W        W85206  20.106  15.665   2.195
23786W        W85207  44.893  10.333  12.421
23787W        W85208   4.712  17.648  11.931
23788W        W85209  43.515  29.013   3.305
23789W        W85210  41.921  20.104  12.580
23790W        W85211   3.359  19.186   0.246
23791W        W85212  13.345  21.079  12.428
23792W        W85213   4.709   8.312  14.396
23793W        W85214   0.333  27.073   2.813
23794W        W85215  42.941  34.039  12.979
23795W        W85216  25.497  29.054  10.926
23796W        W85217  32.931  30.470   3.659
23797W        W85218  44.403  30.027   2.252
23798W        W85219  12.724  26.952  11.584
23799W        W85220  14.660  11.697  12.929
23800W        W85221   9.654  11.653  12.985
23801W        W85222  32.066   5.239  13.054
23802W        W85223  30.121  23.086  14.320
23803W        W85224  25.971   3.458  13.029
23804W        W85225  22.541  39.929  14.796
23805W        W85226  26.175  17.175  14.502
23806W        W85227   0.251   0.471  12.066
23807W        W85228  15.271   2.885  14.823
23808W        W85229  43.493  13.617  13.885
23809W        W85230  19.682  36.455  11.551
23810W        W85231  24.487  31.606  10.934
23811W        W85232  19.558  26.567  11.523
23812W        W85233   4.449  14.276  13.435
23813W        W85234  15.612  39.912  10.617
23814W        W85235   0.436  30.423   4.129
23815W        W85236  24.051  40.842  13.397
23816W        W85237  20.719  32.997   2.326
23817W        W85238  31.090  15.112   3.648
23818W        W85239   9.353  21.593  11.546
23819W        W85240  41.012  13.786  12.078
23820W        W85241  13.641  18.111  12.880
23821W        W85242   3.833  42.423   0.750
23822W        W85243   5.738  38.981   2.828
23823W        W85244  30.101  35.573   2.223
23824W        W85245   2.731  15.760  13.810
23825W        W85246  18.173  14.318  12.080
23826W        W85247  35.995  38.561  10.486
23827W        W85248  19.634  40.880  14.305
23828W        W85249  34.566   5.869   2.318
23829W        W85250   7.366   9.395  12.929
23830W        W85251  44.879  21.584   4.251
23831W        W85252  22.166   8.168  10.458
23832W        W85253  13.782  40.853   0.258
23833W        W85254  29.924  10.751  14.998
23834W        W85255   8.312  18.264  14.887
23835W        W85256  33.933  44.844  11.470
23836W        W85257  42.972   8.399  12.936
23837W        W85258  39.366   2.461   3.708
23838W        W85259   5.236  23.580  10.643
23839W        W85260  13.759  25.597  13.389
23840W        W85261  21.716   2.834   1.340
23841W        W85262  11.868  21.112  14.453
23842W        W85263  27.024   5.802  11.550
23843W        W85264  31.636  31.947   4.345
23844W        W85265   7.717  27.492   4.610
23845W        W85266  32.086  20.243  11.128
23846W        W85267  28.037   5.752   0.903
23847W        W85268  27.965  23.137  10.458
23848W        W85269  30.988   0.784   2.718
23849W        W85270   0.813   6.751  10.966
23850W        W85271  34.401  26.088  11.448
23851W        W85272   9.221  11.792   3.678
23852W        W85273  12.745  16.213  14.282
23853W        W85274  19.092  28.465  13.034
23854W        W85275  25.650   4.418  13.798
23855W        W85276  41.494  12.127  14.448
23856W        W85277   9.291  34.995   4.247
23857W        W85278   1.768   4.861   9.945
23858W        W85279  32.461   8.765   2.408
23859W        W85280  26.194  36.576   2.219
23860W        W85281   4.345  44.373   0.246
23861W        W85282  22.233   8.183   4.253
23862W        W85283  28.526  11.785  11.543
23863W        W85284  42.416   5.230  12.933
23864W        W85285  40.918  39.555  12.009
23865W        W85286  25.018  10.247  14.029
23866W        W85287   6.421  29.929   4.640
23867W        W85288   6.911   3.887  14.509
23868W        W85289  28.057   8.358  12.851
23869W        W85290  28.049  12.818  11.566
23870W        W85291  33.010  35.420   1.926
23871W        W85292   6.371  38.377  12.062
23872W        W85293  20.071   1.901  11.432
23873W        W85294   5.823  37.928  12.525
23874W        W85295   7.208  32.896   3.266
23875W        W85296  27.687  19.550   3.277
23876W        W85297  23.104  31.487  14.778
23877W        W85298  33.966  33.091   4.282
23878W        W85299  10.668  25.590  14.310
23879W        W85300  18.162  16.739  11.478
23880W        W85301  12.646  13.192   2.366
23881W        W85302  30.131  25.534   1.268
23882W        W85303  25.211  34.427   0.814
23883W        W85304  23.716  18.100  13.898
23884W        W85305  41.522   0.260   3.836
23885W        W85306  32.556  20.167   0.851
23886W        W85307   9.288  22.524  14.395
23887W        W85308  13.800   8.300   1.835
23888W        W85309  19.236  21.208  11.960
23889W        W85310  18.101  44.895   2.712
23890W        W85311  35.056   0.491   1.803
23891W        W85312  39.533  36.869   0.464
23892W        W85313   9.269  42.985  14.822
23893W        W85314  40.313   7.268   2.762
23894W        W85315  39.920  40.933   3.182
23895W        W85316  31.589  29.115   3.285
23896W        W85317  10.790   0.410  13.347
23897W        W85318  30.434  19.140   4.617
23898W        W85319  39.396  36.958  11.558
23899W        W85320   4.737  21.643   2.871
23900W        W85321  11.219  28.438   0.437
23901W        W85322  28.988  37.519   1.893
23902W        W85323  28.121  13.795   3.821
23903W        W85324  44.840   2.293  14.398
23904W        W85325  37.356   2.767  11.057
23905W        W85326  23.589  30.594  12.556
23906W        W85327  20.621  28.507  14.909
23907W        W85328  41.789  43.809   4.177
23908W        W85329  41.911   4.292  12.034
23909W        W85330   9.848  42.413   2.882
23910W        W85331  21.025  38.494   3.813
23911W        W85332   8.266  11.631   4.787
23912W        W85333  43.506  36.898   4.300
23913W        W85334  32.920   8.317   1.398
23914W        W85335  16.134  18.213   2.403
23915W        W85336  32.484  36.980  12.849
23916W        W85337  26.144  11.775   1.358
23917W        W85338  11.166  37.404   3.183
23918W        W85339   3.248  27.142  12.980
23919W        W85340  27.152  37.045   4.331
23920W        W85341  32.482  16.302  11.974
23921W        W85342  22.729  12.686   3.177
23922W        W85343  31.630  18.680  11.409
23923W        W85344  31.111  13.836  12.067
23924W        W85345  18.558   3.862   0.909
23925W        W85346  40.530  22.182  12.091
23926W        W85347   5.913  32.569  14.882
23927W        W85348   3.786  21.092  12.435
23928W        W85349  44.992  34.913  11.579
23929W        W85350   2.269  26.186  11.520
23930W        W85351  16.305   8.327  10.550
23931W        W85352  12.242  40.886   4.664
23932W        W85353  40.363  36.585  12.088
23933W        W85354  18.588  14.316   3.854
23934W        W85355  31.102  27.087   4.690
23935W        W85356  18.241  19.731   1.394
23936W        W85357   9.794   3.409   4.657
23937W        W85358  37.531  14.206  11.454
23938W        W85359  17.272  40.489  13.521
23939W        W85360  13.820  39.943   2.670
23940W        W85361   9.258  36.592  14.330
23941W        W85362   4.303  40.450   4.339
23942W        W85363   7.222  25.509  14.332
23943W        W85364  25.108  14.695  13.955
23944W        W85365   8.751  16.702  14.474
23945W        W85366  19.589  35.531  11.000
23946W        W85367  29.120  41.899   4.823
23947W        W85368  36.071   6.923  11.941
23948W        W85369   9.282   3.905  12.573
23949W        W85370  12.844   8.239   0.825
23950W        W85371  31.415   4.401  11.036
23951W        W85372   4.870  12.700   3.162
23952W        W85373  11.180  29.954  12.852
23953W        W85374  44.291  32.476   1.858
23954W        W85375  40.481  31.444  14.824
23955W        W85376   2.351  10.842  13.892
23956W        W85377   4.931  29.169  12.558
23957W        W85378  33.490   4.423   2.265
23958W        W85379  33.108  25.650  12.556
23959W        W85380  27.968  15.780   3.323
23960W        W85381  22.155  42.459   2.829
23961W        W85382  44.944  24.066   4.209
23962W        W85383  29.480  37.892  10.476
23963W        W85384  18.158  21.246  14.298
23964W        W85385  13.265  41.865  13.004
23965W        W85386  20.711   8.322  12.996
23966W        W85387  22.622   2.234  12.060
23967W        W85388  32.116  33.556  14.967
23968W        W85389   9.359  43.367   0.886
23969W        W85390  39.064  29.588  14.011
23970W        W85391   8.242  32.054  14.782
23971W        W85392  25.122   9.702   1.406
23972W        W85393  34.922  14.769  12.048
23973W        W85394  19.104   6.194  10.526
23974W        W85395  14.818  38.961   2.367
23975W        W85396  21.709   8.163   2.678
23976W        W85397  24.532   2.929   2.234
23977W        W85398  30.628  34.864   0.743
23978W        W85399  24.529  22.238   4.227
23979W        W85400  42.498  12.186   2.354
23980W        W85401  33.416  16.148   0.948
23981W        W85402  33.019  36.950  11.091
23982W        W85403  31.124  19.726  10.022
23983W        W85404   8.386   4.368   2.342
23984W        W85405   8.250  34.884  10.593
23985W        W85406  13.175  12.251   2.306
23986W        W85407  34.053   3.934   3.215
23987W        W85408  40.444  25.634  13.875
23988W        W85409  24.126  26.672  10.061
23989W        W85410  37.856  13.682   5.632
23990W        W85411  21.516  34.590   1.878
23991W        W85412  35.871   1.755   3.743
23992W        W85413   7.868  12.716  10.043
23993W        W85414  36.375  11.214  12.902
23994W        W85415  37.534  16.754   1.860
23995W        W85416  14.641  20.054  10.515
23996W        W85417   2.439  28.048   3.837
23997W        W85418  41.422  21.104   1.931
23998W        W85419  23.603  31.431  14.960
23999W        W85420  24.018  28.451   4.807
24000W        W85421  26.031  34.471   1.750
24001W        W85422   6.717  29.168   2.712
24002W        W85423  11.854   6.752  14.975
24003W        W85424  21.571  13.303  10.441
24004W        W85425  11.326  18.655  11.392
24005W        W85426   7.208   8.179   4.666
24006W        W85427   3.285  17.300   0.767
24007W        W85428  30.103  38.520  14.311
24008W        W85429   9.255  21.050  11.912
24009W        W85430  28.571  13.846  13.388
24010W        W85431  42.942  39.408   1.714
24011W        W85432  12.732  14.286   2.397
24012W        W85433  33.567  20.733   4.747
24013W        W85434  32.000  15.177   1.393
24014W        W85435  15.321  27.018   2.664
24015W        W85436   8.689  28.637   1.366
24016W        W85437  28.065  30.058   2.414
24017W        W85438  16.686   0.872  12.916
24018W        W85439  29.593  14.630  13.939
24019W        W85440  15.122  27.157  13.533
24020W        W85441  25.058  35.043   2.697
24021W        W85442   9.668  39.060   0.966
24022W        W85443  15.666  38.336   1.370
24023W        W85444  41.823  16.621   0.352
24024W        W85445  10.290   9.177  13.870
24025W        W85446   6.753  22.253   4.796
24026W        W85447  10.671   2.922  13.037
24027W        W85448  38.514  19.778   0.784
24028W        W85449  13.677  43.942  14.277
24029W        W85450  31.597  20.735  12.901
24030W        W85451  24.624  35.555  14.276
24031W        W85452  11.824  42.341  11.416
24032W        W85453  10.160  16.659   4.119
24033W        W85454  33.506   7.827  10.952
24034W        W85455  20.083  10.188  10.130
24035W        W85456  35.089   0.449  14.813
24036W        W85457  17.733  28.991   3.827
24037W        W85458  23.145   9.220   9.949
24038W        W85459  37.379  33.476   2.898
24039W        W85460  25.640  20.718  10.410
24040W        W85461  38.908  20.175  12.023
24041W        W85462   0.265  20.632  13.061
24042W        W85463  40.886  31.966  13.817
24043W        W85464  18.224   4.824  12.497
24044W        W85465  32.898  22.568  12.350
24045W        W85466  17.711  23.733  13.840
24046W        W85467  32.421  26.648   4.807
24047W        W85468  16.214  13.122  13.418
24048W        W85469   9.318  29.578  13.833
24049W        W85470  22.059   7.410  13.862
24050W        W85471  38.421  29.136  13.000
24051W        W85472  13.749  20.760   3.320
24052W        W85473  21.120  22.540   3.729
24053W        W85474   6.229  18.272  12.347
24054W        W85475  38.536  11.333   0.277
24055W        W85476  32.578   9.728  13.471
24056W        W85477  21.746  33.088  11.092
24057W        W85478  12.305   1.833   3.258
24058W        W85479  11.723  32.927   3.689
24059W        W85480  11.688   2.269   0.736
24060W        W85481   1.824  16.159   0.330
24061W        W85482   4.811  22.600  14.790
24062W        W85483   7.303  12.845   3.715
24063W        W85484  21.665  32.631   3.717
24064W        W85485  41.885  42.870  13.841
24065W        W85486  35.392   1.426  12.471
24066W        W85487  40.527   2.361  12.339
24067W        W85488  22.549  12.619  14.932
24068W        W85489   3.734  19.234  13.485
24069W        W85490  44.287   4.297  10.547
24070W        W85491  40.321  13.649  14.928
24071W        W85492   9.726   3.805   3.290
24072W        W85493  27.167  36.920  12.551
24073W        W85494  44.264  26.054   3.686
24074W        W85495  22.661  32.937   2.267
24075W        W85496   6.244  30.052   0.879
24076W        W85497   0.395  33.965   0.467
24077W        W85498  14.702  23.510   3.839
24078W        W85499   1.958   7.892   0.319
24079W        W85500  21.258  36.577  12.383
24080W        W85501   4.775  25.046   1.801
24081W        W85502  34.094   1.768   3.634
24082W        W85503  33.047  10.260  13.502
24083W        W85504   1.335   1.737  10.530
24084W        W85505  27.105   7.243   1.415
24085W        W85506  33.100  36.396   3.151
24086W        W85507  29.922  27.015   4.612
24087W        W85508   2.737  42.938   2.330
24088W        W85509   4.790  25.174  12.883
24089W        W85510  30.590  40.038  14.321
24090W        W85511  41.037  26.025  11.008
24091W        W85512   6.701  16.690  12.092
24092W        W85513  22.236  28.078  14.813
24093W        W85514  32.899  29.463  12.342
24094W        W85515  36.375  41.425   0.770
24095W        W85516  38.545   8.394   3.147
24096W        W85517  28.453   4.357   3.651
24097W        W85518  10.849  11.789  12.960
24098W        W85519  27.496  30.099   2.896
24099W        W85520  16.073   4.411  12.382
24100W        W85521  12.189  38.408   4.824
24101W        W85522  12.704  19.195   1.870
24102W        W85523  30.028  29.994  12.370
24103W        W85524  38.489   5.793   4.163
24104W        W85525  41.900  36.521   2.705
24105W        W85526  40.913  41.847  13.923
24106W        W85527  10.851  20.220   0.848
24107W        W85528  43.769  35.510   2.662
24108W        W85529  15.727  39.498   2.706
24109W        W85530  12.787   4.354  14.337
24110W        W85531  43.996   2.758  13.509
24111W        W85532  27.122   1.478  13.966
24112W        W85533  10.810  35.503  12.048
24113W        W85534  32.393  34.083  13.469
24114W        W85535  40.420  31.033  13.425
24115W        W85536  25.638  42.424   1.886
24116W        W85537  37.066  20.118  14.934
24117W        W85538  12.280   3.892  12.415
24118W        W85539  22.530  43.764   2.353
24119W        W85540   4.426  41.799   4.261
24120W        W85541  23.025   4.805   3.262
24121W        W85542  19.645  22.584   4.645
24122W        W85543  33.899  20.204   4.256
24123W        W85544   0.867  39.446  13.539
24124W        W85545  18.269  31.435  11.574
24125W        W85546  36.584  29.980   0.929
24126W        W85547  19.143  32.469  14.370
24127W        W85548   7.317  28.662  12.954
24128W        W85549  37.033  24.704  11.883
24129W        W85550   4.378  43.996  13.502
24130W        W85551   3.280   7.774  12.013
24131W        W85552   0.931   3.423  10.612
24132W        W85553   8.176   6.289  10.526
24133W        W85554  10.202  22.632   4.716
24134W        W85555  29.577  26.614  13.882
24135W        W85556  34.583   9.829   4.791
24136W        W85557  18.700   7.294   5.178
24137W        W85558  44.287  14.325   3.712
24138W        W85559  32.127  21.708  14.771
24139W        W85560   2.299  12.308   4.299
24140W        W85561   5.364   2.369  11.997
24141W        W85562  13.603  27.188   4.795
24142W        W85563  41.459   5.878   0.943
24143W        W85564  36.497  16.665  12.087
24144W        W85565  22.542  37.850  11.041
24145W        W85566   8.261   4.252   4.178
24146W        W85567  29.466  17.155  14.399
24147W        W85568  13.177  24.587  10.542
24148W        W85569   8.693  33.531   0.868
24149W        W85570   1.331  27.566   1.411
24150W        W85571  18.627   9.214   2.187
24151W        W85572  12.221  19.108   4.766
24152W        W85573  27.564  41.795  12.475
24153W        W85574  11.836  33.400  11.460
24154W        W85575  11.137  41.384   2.755
24155W        W85576  15.754   7.668  10.461
24156W        W85577  34.493   8.229  11.473
24157W        W85578  17.227  18.609  13.910
24158W        W85579   1.900  22.524   4.303
24159W        W85580   9.822  24.529   2.204
24160W        W85581   6.892   9.165   2.704
24161W        W85582  22.732  10.789  14.900
24162W        W85583  30.071  35.538   1.329
24163W        W85584  30.577  27.150   1.335
24164W        W85585  35.996  36.358   1.288
24165W        W85586  18.178  38.414  10.991
24166W        W85587   6.765   9.644   0.482
24167W        W85588  20.138  34.953  10.108
24168W        W85589  10.383  36.915  14.870
24169W        W85590   4.773  25.572   1.791
24170W        W85591  20.272   8.861  13.363
24171W        W85592  25.106   2.335  14.019
24172W        W85593   0.360  15.247   1.338
24173W        W85594  35.085  27.510   3.833
24174W        W85595  44.003   0.447  12.831
24175W        W85596   3.215  31.961  11.584
24176W        W85597  11.350  37.926  14.298
24177W        W85598  33.463  28.513  12.899
24178W        W85599  40.319  44.770  12.461
24179W        W85600  37.074   4.886  12.429
24180W        W85601  39.026  43.962   1.267
24181W        W85602   2.349  12.768   3.657
24182W        W85603  25.009  29.164   2.803
24183W        W85604  12.783  20.156   1.749
24184W        W85605  11.352  10.877   2.706
24185W        W85606  40.487  21.080   4.211
24186W        W85607  32.060   7.844  12.558
24187W        W85608   7.726  24.006  13.478
24188W        W85609   7.359  30.512   0.859
24189W        W85610  15.578  25.631  14.951
24190W        W85611   2.961   0.955  11.951
24191W        W85612  34.598  28.031  11.388
24192W        W85613  14.681   7.677   0.337
24193W        W85614  25.065  24.103  11.462
24194W        W85615  20.701  37.868   0.858
24195W        W85616  24.102  43.389  12.842
24196W        W85617  35.076  30.560  10.459
24197W        W85618  12.776  36.034  12.903
24198W        W85619  17.180  28.950  11.382
24199W        W85620   4.890  24.193   2.225
24200W        W85621  15.303  32.635   2.864
24201W        W85622   0.898  17.257   2.779
24202W        W85623  32.575  18.575  14.916
24203W        W85624  38.838  39.899   1.238
24204W        W85625  37.895  39.950   3.830
24205W        W85626  43.491   3.783  13.498
24206W        W85627  10.701  42.333  14.012
24207W        W85628  41.854  15.149   2.881
24208W        W85629  12.717   1.750  11.937
24209W        W85630  15.237  33.887   2.282
24210W        W85631  41.997  42.835  13.430
24211W        W85632   6.414  35.595   2.678
24212W        W85633  32.094  38.528   3.277
24213W        W85634  31.541   7.391  14.824
24214W        W85635  36.585  35.937   4.241
24215W        W85636  34.517   4.209   9.926
24216W        W85637  40.346  44.773   3.667
24217W        W85638   9.645  23.623   2.228
24218W        W85639   9.187   9.236   2.192
24219W        W85640  29.480  19.069  14.761
24220W        W85641  20.607  39.882   2.305
24221W        W85642   4.444  22.699   4.135
24222W        W85643  10.806   6.315   1.434
24223W        W85644   9.364   1.406  13.337
24224W        W85645  18.239  19.152  12.447
24225W        W85646  37.372   3.936   3.254
24226W        W85647   3.854  15.118   4.293
24227W        W85648  24.674  32.124   4.776
24228W        W85649  43.388  23.985   1.258
24229W        W85650   1.786  19.174   1.698
24230W        W85651  24.160  26.495  13.410
24231W        W85652  15.293   4.418   0.815
24232W        W85653   8.266   2.780   0.837
24233W        W85654  35.059  29.465  12.559
24234W        W85655   4.740  26.181  14.766
24235W        W85656  14.279  28.030  14.969
24236W        W85657   7.258  22.740   1.744
24237W        W85658   7.185   0.370  14.482
24238W        W85659  27.498   5.224  12.866
24239W        W85660   4.436  39.028   1.210
24240W        W85661  21.141   0.760   3.675
24241W        W85662  43.980  38.966   2.670
24242W        W85663  26.623  39.350   3.363
24243W        W85664   6.398  37.911  10.552
24244W        W85665  15.648  20.219  13.491
24245W        W85666  16.581  14.227  12.943
24246W        W85667  31.566  38.432  12.847
24247W        W85668  39.352  26.533  14.828
24248W        W85669  38.860  37.075  13.513
24249W        W85670  18.681  28.525   0.766
24250W        W85671   3.776  10.277   0.361
24251W        W85672  13.216  35.586  10.997
24252W        W85673  39.886   6.720  12.850
24253W        W85674   7.858  33.948  12.833
24254W        W85675  12.680  35.981   2.703
24255W        W85676  25.563   3.445   0.467
24256W        W85677  22.026  15.249  10.017
24257W        W85678   5.910  43.008   4.247
24258W        W85679  10.371  44.277  10.595
24259W        W85680  31.069   1.964   5.248
24260W        W85681  19.176  16.157  11.048
24261W        W85682  23.493  28.524   2.392
24262W        W85683  39.023  29.051  14.295
24263W        W85684  28.056  24.089  11.989
24264W        W85685   5.798  25.504   0.872
24265W        W85686  26.047  31.519   4.255
24266W        W85687  32.553   6.406   2.868
24267W        W85688   0.469  29.638  12.461
24268W        W85689  30.601   5.839  10.432
24269W        W85690  19.710   9.392  11.582
24270W        W85691  39.917  35.013  11.862
24271W        W85692  12.138  26.089  11.859
24272W        W85693  24.000   4.782  12.089
24273W        W85694  36.969  13.840  13.049
24274W        W85695  31.448   4.926   1.899
24275W        W85696  41.443  18.104   3.733
24276W        W85697   3.927   1.341  14.401
24277W        W85698  33.575  13.123   2.186
24278W        W85699  39.049  14.681  10.542
24279W        W85700   5.392  32.406   4.634
24280W        W85701  28.524   6.187   3.659
24281W        W85702  25.648  23.502  12.039
24282W        W85703   8.296  11.203  13.794
24283W        W85704  14.330  19.598  11.007
24284W        W85705  35.888  44.483   4.625
24285W        W85706  16.215   0.384  11.109
24286W        W85707  21.223   0.307  11.384
24287W        W85708  15.315  41.823   0.359
24288W        W85709  15.225  31.903  11.464
24289W        W85710   9.377   5.433   0.807
24290W        W85711  10.249   7.755  13.898
24291W        W85712  11.236  21.252  12.558
24292W        W85713  25.023  26.181   1.871
24293W        W85714  25.214  22.108   1.800
24294W        W85715  15.707  18.783   3.861
24295W        W85716  29.622  10.244   3.811
24296W        W85717  34.499  29.175   2.858
24297W        W85718   7.194   7.773  12.516
24298W        W85719  20.551  21.065   0.458
24299W        W85720  19.602   5.921  13.506
24300W        W85721  39.396  19.561   0.965
24301W        W85722  43.961  32.983  11.434
24302W        W85723  10.726  12.806   2.779
24303W        W85724  16.776  19.625  11.923
24304W        W85725  39.416   0.268  10.929
24305W        W85726  33.970  41.331  11.898
24306W        W85727  29.106   4.867   1.426
24307W        W85728  21.029  16.767   2.752
24308W        W85729  12.724  30.022   4.179
24309W        W85730  35.599  29.580   4.607
24310W        W85731  29.096   6.871  11.864
24311W        W85732   1.840  16.197  13.433
24312W        W85733  12.766  18.722  12.411
24313W        W85734  33.492  13.217  14.804
24314W        W85735  17.288  27.609   3.202
24315W        W85736  38.974  36.861  12.396
24316W        W85737  42.796  36.581  14.857
24317W        W85738   0.867   8.360  12.049
24318W        W85739  19.672  22.501  14.452
24319W        W85740  37.855  11.279  14.480
24320W        W85741  20.738  33.487   2.735
24321W        W85742  15.211  30.465   2.695
24322W        W85743  26.116  18.593   2.866
24323W        W85744  27.131   9.853   0.884
24324W        W85745   3.286  16.237  14.993
24325W        W85746  36.395  11.224   4.654
24326W        W85747  26.577  43.422  13.008
24327W        W85748  41.836  29.621   3.264
24328W        W85749  14.704  21.620  10.447
24329W        W85750  35.521  39.847  14.381
24330W        W85751  10.721  33.509   3.189
24331W        W85752  19.254  28.175  14.953
24332W        W85753  33.990   0.479  14.834
24333W        W85754  35.884  30.495   3.209
24334W        W85755  26.144   6.922   1.883
24335W        W85756  40.480   7.903   1.834
24336W        W85757  16.636   3.389   2.328
24337W        W85758  43.915  12.206   2.779
24338W        W85759  20.216  10.719   3.830
24339W        W85760  20.530   1.793  13.984
24340W        W85761   1.781  25.068  14.022
24341W        W85762  32.553  38.463  14.975
24342W        W85763  35.570  44.435   3.314
24343W        W85764  21.574  28.983  10.982
24344W        W85765  37.335  38.069   3.759
24345W        W85766   7.200   0.933  10.995
24346W        W85767  40.494  21.519   3.221
24347W        W85768  22.615  41.956   4.789
24348W        W85769  19.757  12.119  14.938
24349W        W85770  16.233  41.428  13.043
24350W        W85771  11.780  31.924  14.819
24351W        W85772  37.942   3.741  13.805
24352W        W85773  42.002  34.483   1.258
24353W        W85774  10.272  10.687   4.810
24354W        W85775   3.384  20.232   3.816
24355W        W85776  10.206  11.653  14.841
24356W        W85777  11.764   1.434  12.894
24357W        W85778   4.744  16.593   4.696
24358W        W85779  20.606  26.008  10.632
24359W        W85780  38.023  27.053  10.954
24360W        W85781  32.030  28.047   5.238
24361W        W85782  34.613  34.098   2.416
24362W        W85783  12.155  31.001  10.579
24363W        W85784  10.806   6.751   3.307
24364W        W85785  42.487  17.569  11.915
24365W        W85786  43.285  13.139   5.144
24366W        W85787  42.019  21.052  12.906
24367W        W85788   2.747   5.321  11.583
24368W        W85789  31.086  12.625   3.733
24369W        W85790   8.348   3.760  12.930
24370W        W85791   8.811  27.608   1.435
24371W        W85792  29.661  34.512  14.480
24372W        W85793  43.983  38.042  13.809
24373W        W85794  21.728  12.719  12.061
24374W        W85795  18.547  40.317   2.181
24375W        W85796  43.017  32.422  12.832
24376W        W85797  18.061  23.604  12.498
24377W        W85798   1.346  44.452   0.413
24378W        W85799   1.904  10.380   5.128
24379W        W85800  36.955  44.994   3.178
24380W        W85801   8.843  43.474   2.740
24381W        W85802  20.644  31.015  10.438
24382W        W85803  35.601  34.423  11.956
24383W        W85804  12.185  15.249   2.875
24384W        W85805  20.128  12.297  10.475
24385W        W85806  15.146  38.005  14.965
24386W        W85807   8.235  25.602   4.715
24387W        W85808   9.799   6.330  10.948
24388W        W85809  34.543  12.154   0.318
24389W        W85810  19.059  24.661   0.840
24390W        W85811  33.575   2.945  12.032
24391W        W85812  41.401   7.817  12.855
24392W        W85813   1.950  35.477  13.387
24393W        W85814  41.519  40.798  10.989
24394W        W85815  40.507  38.880   4.771
24395W        W85816  39.354   4.226  10.479
24396W        W85817   3.848   1.921   3.790
24397W        W85818  44.932  35.051  13.504
24398W        W85819  29.600  33.550   4.251
24399W        W85820  42.013  41.449   1.435
24400W        W85821   4.928  42.781   9.922
24401W        W85822  18.159   3.914  12.395
24402W        W85823  19.049   5.344   0.881
24403W        W85824  29.161   2.956  13.985
24404W        W85825   5.318  39.489   0.349
24405W        W85826  12.724  41.495  13.334
24406W        W85827  34.940  34.012   0.312
24407W        W85828   6.763  41.467  12.499
24408W        W85829   7.365  10.811  12.559
24409W        W85830  13.791  14.116  14.446
24410W        W85831  32.548  43.445  14.455
24411W        W85832   4.850  14.730  14.316
24412W        W85833   4.863  43.910  11.513
24413W        W85834  13.151   2.726   4.309
24414W        W85835   8.341  27.489  13.917
24415W        W85836  18.154  34.008  13.469
24416W        W85837   4.447  24.575  13.352
24417W        W85838  11.168   4.337  13.997
24418W        W85839  27.133  37.492   4.309
24419W        W85840  27.665  13.644   4.345
24420W        W85841   9.873  44.863  13.054
24421W        W85842  26.111  22.674  14.355
24422W        W85843  16.605  23.602  11.380
24423W        W85844  42.507   8.362   2.253
24424W        W85845  36.887   9.199  14.966
24425W        W85846  12.763  19.122  13.047
24426W        W85847  16.180  10.297   0.384
24427W        W85848   2.362  10.152  12.016
24428W        W85849  23.670  14.701  14.326
24429W        W85850   8.267   1.843  14.500
24430W        W85851  36.396  30.657   5.161
24431W        W85852  31.581  32.492  11.405
24432W        W85853  33.005  44.779  14.403
24433W        W85854   6.351  20.163   2.289
24434W        W85855   1.958   3.882  13.517
24435W        W85856  19.620  33.895  12.022
24436W        W85857  30.512  25.581   3.157
24437W        W85858  19.674   8.376  13.833
24438W        W85859  10.151  42.913   3.304
24439W        W85860   1.740   9.350  12.369
24440W        W85861  25.073   5.207  12.469
24441W        W85862  27.189   7.227  14.876
24442W        W85863  28.536   4.315   3.368
24443W        W85864  41.796  35.059  10.608
24444W        W85865  16.705  41.973   2.685
24445W        W85866  25.986  34.526  11.565
24446W        W85867  38.051   2.953  14.433
24447W        W85868  11.339  19.533   1.396
24448W        W85869  28.023  41.940   0.879
24449W        W85870  30.468  39.347  11.009
24450W        W85871  28.643   9.742  14.445
24451W        W85872  22.595   3.821   0.922
24452W        W85873  18.068   1.828   2.350
24453W        W85874   7.711   3.312   1.790
24454W        W85875   7.265  33.946   1.699
24455W        W85876  25.577  35.394  14.449
24456W        W85877  38.820  10.206   2.231
24457W        W85878  25.560  20.709  12.385
24458W        W85879  25.517  43.952  11.862
24459W        W85880  28.496  26.653  12.548
24460W        W85881   6.396   2.233   5.146
24461W        W85882   4.752  31.922   1.421
24462W        W85883   6.408  35.045  14.910
24463W        W85884  39.984  37.001   1.705
24464W        W85885  24.502   7.843  12.346
24465W        W85886   2.429  40.006   4.273
24466W        W85887  10.172   0.900   2.715
24467W        W85888  37.465  28.662   2.764
24468W        W85889  23.098   1.834  10.625
24469W        W85890   3.375  16.222   0.414
24470W        W85891  20.256  19.579   2.761
24471W        W85892   6.394  17.591  10.405
24472W        W85893  34.369  27.154  14.362
24473W        W85894  42.403  43.775  12.094
24474W        W85895  19.216  34.982   1.346
24475W        W85896  19.268  22.509  14.332
24476W        W85897   5.845  44.370  11.129
24477W        W85898  24.064  19.275  12.477
24478W        W85899   9.663  25.084  11.533
24479W        W85900  39.006   5.338  12.825
24480W        W85901  42.467  28.018  14.009
24481W        W85902  43.501  36.396  13.973
24482W        W85903  12.198  18.260  11.049
24483W        W85904  16.596  32.601   2.358
24484W        W85905  28.177   6.406   2.894
24485W        W85906  18.243  24.705   2.890
24486W        W85907  22.176  10.308   3.721
24487W        W85908  18.157  22.045   1.395
24488W        W85909  13.117  26.659  14.275
24489W        W85910  34.042  26.481  14.764
24490W        W85911   9.391   7.319   5.287
24491W        W85912  11.345   7.237  13.494
24492W        W85913   8.717   0.434   1.848
24493W        W85914  13.260  37.399  10.961
24494W        W85915  29.645   9.389   2.882
24495W        W85916  19.718  28.581  11.028
24496W        W85917  15.237  40.975   3.817
24497W        W85918  10.145  29.158  12.965
24498W        W85919   5.766   8.217   4.803
24499W        W85920   9.848  26.031  12.442
24500W        W85921   8.238   6.295   1.754
24501W        W85922  39.905  12.306  12.016
24502W        W85923  24.126  27.541   4.220
24503W        W85924  36.507  33.984  11.613
24504W        W85925   0.429  37.385   2.820
24505W        W85926   2.321   9.170  13.375
24506W        W85927  19.688  24.061   5.239
24507W        W85928   0.815  10.775   2.183
24508W        W85929  21.668  44.896  10.570
24509W        W85930  22.222  40.514   4.680
24510W        W85931  17.588  17.735   3.321
24511W        W85932  17.230  43.328  14.359
24512W        W85933  28.985  20.167  12.026
24513W        W85934  19.169   7.394   0.404
24514W        W85935   7.202  10.668   2.892
24515W        W85936   6.363  17.755   1.259
24516W        W85937   0.378  42.965   0.881
24517W        W85938   4.884  10.222   4.764
24518W        W85939  17.102  25.047   4.262
24519W        W85940  32.602  39.405  10.550
24520W        W85941  13.310  15.107  11.000
24521W        W85942   5.221  25.533  10.515
24522W        W85943  30.565  42.995   5.130
24523W        W85944  30.152  16.570  14.455
24524W        W85945  20.539  17.697  14.852
24525W        W85946  34.458  39.411   3.178
24526W        W85947   1.944  11.678   3.172
24527W        W85948  37.024  20.242   2.212
24528W        W85949  42.344  11.717  10.073
24529W        W85950   0.284  28.478  14.016
24530W        W85951  40.971  43.312   3.772
24531W        W85952  42.964   1.954   4.177
24532W        W85953  31.591  14.723   3.813
24533W        W85954  44.411  27.044  10.894
24534W        W85955  13.703  39.064  10.549
24535W        W85956   7.364   0.839   3.815
24536W        W85957  39.364  27.941  10.644
24537W        W85958  43.500  11.750   0.902
24538W        W85959  42.896  43.429   0.289
24539W        W85960  17.570  25.974   3.321
24540W        W85961   9.376  44.447   0.752
24541W        W85962  36.514  20.168  12.095
24542W        W85963  40.418  31.548   0.770
24543W        W85964   6.235  44.377   2.767
24544W        W85965   9.368  41.523   1.927
24545W        W85966  31.567   6.259   3.160
24546W        W85967   4.208  32.517   4.710
24547W        W85968   8.767  28.542   3.186
24548W        W85969  34.071  10.335  14.278
24549W        W85970  16.660  30.134  11.469
24550W        W85971  41.803  40.964  11.100
24551W        W85972  12.823   9.310   1.249
24552W        W85973  31.009   5.198  11.075
24553W        W85974  16.244  44.884   4.606
24554W        W85975  23.985  43.903  14.507
24555W        W85976  40.035   5.364  14.779
24556W        W85977  31.486  14.135   3.374
24557W        W85978   6.221  22.136  11.546
24558W        W85979  42.485  22.555   4.730
24559W        W85980  25.535  34.003   4.689
24560W        W85981  31.480  19.771  13.525
24561W        W85982  21.109  15.601   2.361
24562W        W85983  20.614  14.734  11.606
24563W        W85984  22.202   6.817   2.846
24564W        W85985   4.248   7.305   0.870
24565W        W85986  33.059   8.283   1.839
24566W        W85987  40.446  40.044   0.402
24567W        W85988  37.875  20.755  12.881
24568W        W85989  16.592   1.319  11.530
24569W        W85990  24.080   0.789  11.602
24570W        W85991  41.794  22.024  14.822
24571W        W85992  15.245  18.593  10.890
24572W        W85993  34.569  26.656  11.878
24573W        W85994  39.881  29.952   3.278
24574W        W85995  24.214  13.702  12.921
24575W        W85996  16.783  21.033   3.356
24576W        W85997   4.879   5.744  13.890
24577W        W85998  30.989   5.376  13.422
24578W        W85999  42.504  15.713  11.970
24579W        W86000  37.543  18.698   4.252
24580W        W86001  35.048  40.004  13.006
24581W        W86002  42.880  12.289  12.355
24582W        W86003  43.379  33.038   3.229
24583W        W86004  33.126   2.911  12.051
24584W        W86005  40.447  37.568   0.782
24585W        W86006  10.636  27.186  12.544
24586W        W86007  43.337   8.766  12.424
24587W        W86008   0.888  25.653   0.318
24588W        W86009  24.576  36.356   4.644
24589W        W86010  42.362  35.877   4.131
24590W        W86011   3.286  14.250  14.030
24591W        W86012  42.810  29.927   0.379
24592W        W86013  34.487  12.270  14.431
24593W        W86014  24.583  18.566  11.899
24594W        W86015  25.150  26.467   3.297
24595W        W86016  39.050  35.049  12.542
24596W        W86017   7.266  37.898   5.175
24597W        W86018  14.318  16.273   2.405
24598W        W86019   6.378  30.657   1.284
24599W        W86020  24.166   9.268  13.544
24600W        W86021   1.965  22.083   0.800
24601W        W86022   8.245  11.129   0.406
24602W        W86023   8.850  33.918   3.227
24603W        W86024   6.720  43.795  12.015
24604W        W86025  12.700  11.765   2.411
24605W        W86026  12.209  44.374  12.424
24606W        W86027  23.571  14.262  14.952
24607W        W86028  41.344  23.604  13.344
24608W        W86029  38.363  27.193  10.996
24609W        W86030  25.622  20.153   0.785
24610W        W86031   1.797  44.266   5.086
24611W        W86032  37.400   5.726  10.158
24612W        W86033  11.632  17.257   4.238
24613W        W86034  11.243  43.002  12.925
24614W        W86035  25.984  11.780  10.456
24615W        W86036  39.468  38.930   4.271
24616W        W86037  34.525  20.542   3.220
24617W        W86038  10.315  18.600   3.728
24618W        W86039  21.703  17.736   9.666
24619W        W86040  35.097  36.029  12.443
24620W        W86041   9.225  12.685  13.407
24621W        W86042  42.519   5.391  11.520
24622W        W86043  11.721  12.645   4.289
24623W        W86044  17.557  11.625   2.773
24624W        W86045  12.845  12.772   4.313
24625W        W86046  16.230  39.005  10.452
24626W        W86047  43.475  25.505  10.448
24627W        W86048  40.450  41.939   1.743
24628W        W86049  42.386  37.345   2.379
24629W        W86050   0.751  13.216   0.819
24630W        W86051   7.707  18.056   4.131
24631W        W86052   1.806  16.170  13.807
24632W        W86053  23.153   9.364   3.740
24633W        W86054  36.921  21.604   1.373
24634W        W86055  36.933  10.149  14.450
24635W        W86056  34.899  36.021   2.363
24636W        W86057  42.410  39.977  13.323
24637W        W86058   1.797  21.575  14.029
24638W        W86059  12.639   3.384   3.857
24639W        W86060  31.453   1.460  14.909
24640W        W86061   4.708  36.872   0.403
24641W        W86062  37.411  24.529   3.684
24642W        W86063  13.275  32.901   2.890
24643W        W86064  42.396  40.308  13.955
24644W        W86065  40.974  36.978  11.542
24645W        W86066  37.561  22.719   5.109
24646W        W86067  26.503  27.660   0.311
24647W        W86068  15.725  21.636  12.075
24648W        W86069  17.633  24.602  12.885
24649W        W86070  16.085  26.161   1.824
24650W        W86071  35.535  44.876   4.355
24651W        W86072  43.950   6.265   4.629
24652W        W86073   2.467  15.245  14.781
24653W        W86074  11.673  37.358  13.535
24654W        W86075  17.188  14.600   3.863
24655W        W86076   2.922  25.154  12.923
24656W        W86077   6.705  23.010   4.224
24657W        W86078   0.858  19.213  12.378
24658W        W86079  43.385  27.198  10.952
24659W        W86080   9.773  16.781   3.800
24660W        W86081  28.457  34.926  13.807
24661W        W86082   4.921   6.228   4.756
24662W        W86083  25.152  41.527  13.855
24663W        W86084  16.173  10.644   2.341
24664W        W86085  30.451  14.592   1.297
24665W        W86086  35.871  10.796   4.625
24666W        W86087   9.248  44.953   2.307
24667W        W86088  21.197  13.351  14.421
24668W        W86089   2.745  38.033  10.986
24669W        W86090  29.967   8.330   1.798
24670W        W86091  26.198  39.000  13.527
24671W        W86092  37.061  31.422   3.293
24672W        W86093   8.398   1.792   3.664
24673W        W86094   8.166  36.580  13.925
24674W        W86095  38.553  28.621  11.393
24675W        W86096  19.634  13.813  12.495
24676W        W86097  13.212  22.672  11.036
24677W        W86098  44.295   2.875   1.879
24678W        W86099   7.226   7.875  12.073
24679W        W86100  12.784   1.809  14.027
24680W        W86101   2.315  37.833   3.654
24681W        W86102   0.770   0.465  11.421
24682W        W86103  12.166  28.570   0.895
24683W        W86104  23.680   9.314  14.805
24684W        W86105   1.471  30.984  14.456
24685W        W86106   3.413   2.860  12.432
24686W        W86107   4.908  39.880   2.269
24687W        W86108   1.883  15.604  14.836
24688W        W86109  38.394  44.884   1.272
24689W        W86110  42.414  17.276  13.855
24690W        W86111  18.250  15.182  12.577
24691W        W86112   1.414  41.026   2.288
24692W        W86113  17.071  10.877  11.612
24693W        W86114   8.243   1.332  10.643
24694W        W86115  10.809  38.354   0.899
24695W        W86116  14.603  35.008   4.233
24696W        W86117  13.777  39.523  13.010
24697W        W86118  30.078   0.377   2.281
24698W        W86119  19.056  25.172   1.364
24699W        W86120  17.215  16.586   1.902
24700W        W86121  36.074  31.109   4.233
24701W        W86122  27.446  26.061  10.927
24702W        W86123  42.907  19.176  10.976
24703W        W86124  36.395  35.426   1.710
24704W        W86125  12.217   3.253  11.863
24705W        W86126  38.019  10.210  10.124
24706W        W86127   6.768  37.081   4.315
24707W        W86128  25.605   9.191   0.317
24708W        W86129   1.786  18.216  11.603
24709W        W86130  22.635  43.865  11.478
24710W        W86131   2.276  41.421  11.863
24711W        W86132  26.026   5.825   2.373
24712W        W86133  22.114  29.925   1.430
24713W        W86134  13.710  32.522   1.419
24714W        W86135  19.619   9.741  13.541
24715W        W86136  23.139  24.568   3.752
24716W        W86137  36.908   2.924   4.805
24717W        W86138  39.359  15.236   1.769
24718W        W86139   0.372   4.716   4.612
24719W        W86140  15.327  26.010   0.890
24720W        W86141   4.922  15.779   2.777
24721W        W86142  11.763   8.782  12.367
24722W        W86143  27.578  15.104  13.971
24723W        W86144  10.205   7.178  10.627
24724W        W86145  32.612  22.679   2.240
24725W        W86146   4.370  24.579   1.228
24726W        W86147  35.359  36.399   0.909
24727W        W86148  18.279  43.989  14.793
24728W        W86149  35.471  16.279   4.151
24729W        W86150  42.823  10.179   1.312
24730W        W86151  29.440  29.660  10.953
24731W        W86152   6.293  19.686  14.840
24732W        W86153  40.029  17.698  12.978
24733W        W86154   7.220  19.563  13.016
24734W        W86155  12.811  30.435   3.339
24735W        W86156  17.077   6.766   4.160
24736W        W86157  17.703   6.305  14.942
24737W        W86158  24.049   9.776  12.980
24738W        W86159  38.505  13.316   3.804
24739W        W86160  25.559  24.501  13.892
24740W        W86161   8.196  18.200   2.871
24741W        W86162  14.287  43.004  13.459
24742W        W86163   2.463  26.646   1.734
24743W        W86164  33.121  38.828   4.812
24744W        W86165   7.397   1.425   2.401
24745W        W86166  19.745   4.233  14.336
24746W        W86167   1.867  20.715   2.398
24747W        W86168   2.888  22.153   2.857
24748W        W86169   6.878  11.649  10.894
24749W        W86170  22.119  11.308  14.971
24750W        W86171  18.188  44.461   4.135
24751W        W86172   5.384  16.752   1.847
24752W        W86173  37.021  24.079   0.787
24753W        W86174   6.867  20.161  11.958
24754W        W86175   4.852  40.327  12.357
24755W        W86176  24.994  18.069   4.621
24756W        W86177   8.390  36.846  10.047
24757W        W86178  26.654  16.197   0.962
24758W        W86179  34.943  35.587  12.906
24759W        W86180  33.016  25.005   0.957
24760W        W86181  14.803  24.193  12.004
24761W        W86182  18.629   1.483  12.959
24762W        W86183  19.595  25.117  12.066
24763W        W86184  14.226  27.042   0.424
24764W        W86185  38.042  36.865   4.813
24765W        W86186  21.192  25.215  10.987
24766W        W86187  16.318   6.264   4.644
24767W        W86188   9.874  32.012  12.447
24768W        W86189  11.319   6.397   1.326
24769W        W86190  35.428  24.683   1.732
24770W        W86191  16.609  17.588  11.049
24771W        W86192  24.144  14.112  10.556
24772W        W86193  38.967  11.209   1.245
24773W        W86194  25.638   7.702  11.066
24774W        W86195  12.241  28.999  13.525
24775W        W86196  19.573  22.695   0.478
24776W        W86197  44.321  26.520  14.366
24777W        W86198   9.794   8.291  14.371
24778W        W86199  36.848  27.616  11.539
24779W        W86200  10.214  19.154  13.828
24780W        W86201   9.674  42.800  13.940
24781W        W86202  20.570  16.704   0.829
24782W        W86203  32.494  22.179  13.965
24783W        W86204  12.362  29.013   0.390
24784W        W86205  17.747  44.790  11.549
24785W        W86206  43.342  28.930   1.385
24786W        W86207  20.060   6.428   1.348
24787W        W86208  42.788  10.302  13.346
24788W        W86209   4.746   1.863  12.879
24789W        W86210  33.583   0.347   5.245
24790W        W86211   8.172  19.042   0.743
24791W        W86212   9.271   9.258  10.583
24792W        W86213  19.146  19.114   4.750
24793W        W86214   2.430  25.085  12.398
24794W        W86215  40.461  23.103   4.599
24795W        W86216  28.455  17.115  12.572
24796W        W86217   5.413  16.128   0.415
24797W        W86218   9.259   4.336  11.040
24798W        W86219  41.510   5.329  13.319
24799W        W86220  14.222  16.171   1.877
24800W        W86221  14.752  28.659   4.638
24801W        W86222  39.049   1.443   3.698
24802W        W86223  22.500  15.155  10.542
24803W        W86224  16.608  20.096   1.897
24804W        W86225  34.896  21.612   3.323
24805W        W86226  34.467  44.929   3.174
24806W        W86227  18.237  33.024  12.939
24807W        W86228  37.520   8.191   3.695
24808W        W86229   7.699  38.418  11.490
24809W        W86230  33.614   4.922   2.798
24810W        W86231  12.219  28.645  13.804
24811W        W86232  36.893  26.482   3.831
24812W        W86233  40.928  15.113  13.415
24813W        W86234  41.419   5.714  11.501
24814W        W86235   4.433  18.180  13.054
24815W        W86236  26.174  19.081   3.264
24816W        W86237   6.762   1.781   1.817
24817W        W86238  24.652  32.612  11.545
24818W        W86239  14.654  21.172  14.996
24819W        W86240   3.270  12.248   0.315
24820W        W86241   6.900  41.823   4.255
24821W        W86242  17.196   0.453   1.853
24822W        W86243  11.246  33.593   3.637
24823W        W86244   5.880  25.644   3.192
24824W        W86245  38.954  33.961   3.845
24825W        W86246  13.737  35.893  12.562
24826W        W86247  36.445  35.952   0.785
24827W        W86248  38.897  25.555   0.812
24828W        W86249  35.935  25.492  11.530
24829W        W86250  23.700  13.196  14.312
24830W        W86251  17.656  24.487  12.447
24831W        W86252  35.060  24.214   2.737
24832W        W86253  36.909  22.670  12.370
24833W        W86254  12.352  36.997   2.349
24834W        W86255   0.948   8.828   3.630
24835W        W86256  44.785  38.401  12.881
24836W        W86257  40.529   6.355   4.660
24837W        W86258  14.716  19.060  12.834
24838W        W86259  23.578   4.408   1.270
24839W        W86260   1.421  34.500   3.356
24840W        W86261  41.393   8.873  11.480
24841W        W86262  19.772  30.474  12.363
24842W        W86263   4.346  38.861  14.942
24843W        W86264   1.249   4.772   3.694
24844W        W86265  19.155  18.764   3.634
24845W        W86266  43.891   3.846  14.987
24846W        W86267  39.921  25.577  13.356
24847W        W86268  22.539  11.686  12.376
24848W        W86269  16.100  18.232   0.424
24849W        W86270  38.359  19.197  10.473
24850W        W86271  27.041  32.440  14.283
24851W        W86272  12.198  22.219   3.219
24852W        W86273  29.504  38.824   3.287
24853W        W86274  11.190  39.974  12.085
24854W        W86275   2.924  33.020   0.459
24855W        W86276  11.332  36.887  12.359
24856W        W86277  17.128  26.576  14.810
24857W        W86278  41.007  41.039   4.189
24858W        W86279   0.446  19.639  12.495
24859W        W86280  18.172  30.096   0.306
24860W        W86281  16.276  17.202   0.899
24861W        W86282   3.305  11.237  11.074
24862W        W86283  24.538   0.849  14.296
24863W        W86284   6.679  22.643   1.844
24864W        W86285   8.716   6.192   0.749
24865W        W86286   9.854  20.689  14.775
24866W        W86287  13.818  40.969  14.410
24867W        W86288  31.114  39.865  14.278
24868W        W86289  19.634  23.044   0.898
24869W        W86290  28.132  11.798   3.685
24870W        W86291  31.903  37.549  13.539
24871W        W86292  21.627  15.178  10.540
24872W        W86293  17.192  29.058  10.952
24873W        W86294   5.741  12.127  11.054
24874W        W86295  14.623  35.539   2.299
24875W        W86296   7.226  20.188  14.759
24876W        W86297   0.914  42.367   1.281
24877W        W86298   2.856   0.343   3.385
24878W        W86299  15.776  15.768   2.811
24879W        W86300  31.612  13.804   0.280
24880W        W86301   4.330  11.703  11.545
24881W        W86302  19.547  25.093   2.181
24882W        W86303  31.537  30.645   2.835
24883W        W86304  44.766   2.395  10.535
24884W        W86305  20.745  34.473  11.433
24885W        W86306  40.495  44.371  12.877
24886W        W86307   6.243   0.837  12.480
24887W        W86308  25.633  31.991   0.950
24888W        W86309  15.185  39.485   0.784
24889W        W86310  20.725  16.169  13.352
24890W        W86311  18.652  22.996   1.263
24891W        W86312   5.877  25.654  14.293
24892W        W86313  20.137   9.860  13.061
24893W        W86314  30.564  21.104   4.302
24894W        W86315  13.236  19.714  10.473
24895W        W86316  10.313  18.775   4.634
24896W        W86317  32.505  17.182   1.412
24897W        W86318  35.985  14.328  14.460
24898W        W86319  19.670   4.871  11.498
24899W        W86320  16.666  40.428  12.068
24900W        W86321   0.340  14.132  14.405
24901W        W86322  22.554  41.434  12.883
24902W        W86323   5.209  37.033   2.395
24903W        W86324   7.242  37.943   1.905
24904W        W86325   3.420  21.140   4.200
24905W        W86326  20.716   7.787   0.857
24906W        W86327  17.715  42.289  12.383
24907W        W86328  21.106   8.173  10.919
24908W        W86329  32.429  13.621  11.059
24909W        W86330  34.531  41.966   0.356
24910W        W86331  15.266  44.323  13.880
24911W        W86332   2.919  42.783   4.632
24912W        W86333   6.302  40.481   3.634
24913W        W86334  41.957   6.422   2.678
24914W        W86335  13.801  17.651   2.364
24915W        W86336  35.939   4.283   4.802
24916W        W86337  28.457  10.241   2.686
24917W        W86338  11.683   4.839   2.872
24918W        W86339   4.378  23.710   5.690
24919W        W86340  26.591  26.634  14.986
24920W        W86341   1.314  42.321  11.057
24921W        W86342  15.194  42.865  14.295
24922W        W86343   8.745  30.637   1.364
24923W        W86344   0.317  43.764  11.967
24924W        W86345  11.707  31.922   0.262
24925W        W86346  44.459  13.196   0.477
24926W        W86347  14.708   1.945   2.417
24927W        W86348  42.490  30.915  12.932
24928W        W86349  33.417  32.454  11.408
24929W        W86350   9.189  38.870  12.418
24930W        W86351  29.434  33.912  12.021
24931W        W86352   0.910   0.259   1.256
24932W        W86353   2.844  18.729  11.085
24933W        W86354  24.028  41.486   0.815
24934W        W86355  18.671  24.973  10.408
24935W        W86356  38.976   3.344   3.687
24936W        W86357  35.043  19.200   4.147
24937W        W86358  18.706  44.338   5.270
24938W        W86359  13.185  38.967   1.766
24939W        W86360  44.370  11.767   1.225
24940W        W86361  20.245  17.271  11.492
24941W        W86362  22.584  28.539  14.489
24942W        W86363  38.469  31.441  14.868
24943W        W86364   6.206   5.794   2.847
24944W        W86365  11.852  16.761  11.482
24945W        W86366  32.510  27.589   0.331
24946W        W86367   6.215   0.463   0.467
24947W        W86368   8.374  41.315   3.275
24948W        W86369  35.100  25.202   4.745
24949W        W86370   5.914  15.094  14.897
24950W        W86371   6.823  26.685   2.290
24951W        W86372  16.747  39.387  13.411
24952W        W86373  39.995  11.828   5.186
24953W        W86374  38.921   3.277  12.889
24954W        W86375   1.296   2.295  12.942
24955W        W86376  36.086  32.025   2.829
24956W        W86377  21.552  16.605   0.300
24957W        W86378  19.765  35.056   4.806
24958W        W86379  41.896  42.846   1.813
24959W        W86380   1.919  11.645  12.530
24960W        W86381  42.495   7.214   3.682
24961W        W86382  35.568   5.780   0.420
24962W        W86383  42.944  17.596  13.937
24963W        W86384  43.470  40.865   4.713
24964W        W86385   9.696   8.718  13.041
24965W        W86386   8.281  29.090   1.918
24966W        W86387  42.461  13.691  12.940
24967W        W86388  29.529  20.234  10.487
24968W        W86389   3.260  16.743  12.500
24969W        W86390  20.075  43.821  10.939
24970W        W86391  13.784  21.657   1.228
24971W        W86392  43.349  12.672   1.798
24972W        W86393  29.950   0.893   1.312
24973W        W86394   0.954   1.378  13.800
24974W        W86395  41.958  38.821   1.263
24975W        W86396  35.365  10.830   0.953
24976W        W86397  22.623  20.217   0.800
24977W        W86398  39.921   7.417  13.325
24978W        W86399   4.832   8.393   2.710
24979W        W86400   6.853   6.285  10.929
24980W        W86401   4.728  26.620   3.696
24981W        W86402  18.560   2.826   4.218
24982W        W86403  36.495   8.237   2.313
24983W        W86404  15.689  25.179   4.681
24984W        W86405   7.736  26.139   5.101
24985W        W86406  23.546  43.283  13.521
24986W        W86407  32.488  25.044   0.945
24987W        W86408  36.375  15.253  12.949
24988W        W86409  41.418  25.481  10.521
24989W        W86410  11.690  27.657  13.480
24990W        W86411  32.024  24.223   5.303
24991W        W86412  34.915  13.737   2.270
24992W        W86413  14.150   3.934   0.956
24993W        W86414   9.787  10.182   0.758
24994W        W86415  24.598  34.024   3.852
24995W        W86416   0.425   3.755  12.916
24996W        W86417  19.114  35.492   3.182
24997W        W86418  31.917  34.553  12.040
24998W        W86419  31.543  17.725  13.350
24999W        W86420   1.425   6.184  11.014
25000W        W86421  15.764  19.681  13.393
25001W        W86422   8.279  41.855   1.249
25002W        W86423   5.362  29.092   0.943
25003W        W86424  10.682  23.165   3.806
25004W        W86425   4.769  24.052  10.959
25005W        W86426  19.197  12.246   5.188
25006W        W86427  27.475  26.070  14.313
25007W        W86428  12.281  17.119   1.349
25008W        W86429  34.873  31.406  12.041
25009W        W86430  11.775  26.510  11.605
25010W        W86431  40.893   6.227  11.472
25011W        W86432   0.374  10.179   2.873
25012W        W86433  19.550   2.782   2.327
25013W        W86434   3.332  15.737   1.889
25014W        W86435  20.107   1.930  13.461
25015W        W86436   4.944   0.481   0.305
25016W        W86437  13.739   5.783   2.807
25017W        W86438  15.312  17.556  14.806
25018W        W86439  33.096  32.103   0.285
25019W        W86440   0.311  17.187   1.339
25020W        W86441   3.740  38.410  12.033
25021W        W86442  39.371  13.246   1.301
25022W        W86443  29.667  26.691   0.290
25023W        W86444  25.675   9.268  11.977
25024W        W86445  33.573   3.732  14.356
25025W        W86446  33.584   8.891   4.625
25026W        W86447   2.228  39.994   3.725
25027W        W86448   2.249  12.803  10.922
25028W        W86449  23.987  44.935   3.258
25029W        W86450  22.664  39.934   3.677
25030W        W86451   5.275  35.359  14.827
25031W        W86452   2.369  41.808  11.975
25032W        W86453  23.699  44.874   3.168
25033W        W86454  17.272  31.063  13.334
25034W        W86455   0.977  16.648   2.823
25035W        W86456  31.635  40.830  14.916
25036W        W86457  32.977  21.563   0.917
25037W        W86458  13.127   4.899   4.299
25038W        W86459  19.194   5.323   2.724
25039W        W86460  21.589  19.596   0.373
25040W        W86461  29.095  21.245  14.952
25041W        W86462  26.484  20.225  12.418
25042W        W86463  36.492  18.605   1.868
25043W        W86464  13.710   4.324   0.479
25044W        W86465  23.726  43.932   4.809
25045W        W86466  30.129  19.673   2.335
25046W        W86467  37.530  40.010  13.400
25047W        W86468  14.645  17.159   2.318
25048W        W86469  24.487   4.237   2.234
25049W        W86470  12.816   1.350   1.428
25050W        W86471  29.033  10.866  14.779
25051W        W86472  35.021  16.598  10.574
25052W        W86473  33.606  44.804  11.380
25053W        W86474   2.833  17.671   2.251
25054W        W86475   7.689   6.230   9.959
25055W        W86476  17.240   6.882  13.971
25056W        W86477   1.455  30.993  11.432
25057W        W86478   6.225  28.512  14.375
25058W        W86479   4.302  21.210  12.895
25059W        W86480   9.222   8.207  14.820
25060W        W86481  42.343  15.627   1.290
25061W        W86482  44.987   8.654   3.364
25062W        W86483  44.409  28.165  12.417
25063W        W86484  26.066  44.417   2.858
25064W        W86485  34.046  16.215   1.917
25065W        W86486  31.122  21.184   3.857
25066W        W86487  11.282  21.130   4.625
25067W        W86488  34.002   8.787  14.440
25068W        W86489  33.009  23.641  11.471
25069W        W86490   9.814  12.674   4.670
25070W        W86491  16.287  32.489  13.030
25071W        W86492  17.700  39.503  13.973
25072W        W86493  38.420  20.233   3.704
25073W        W86494   4.752  12.134   3.323
25074W        W86495  43.953  15.165   5.719
25075W        W86496   8.755  25.969   2.819
25076W        W86497  22.061  25.513   3.195
25077W        W86498   7.780  43.413  11.453
25078W        W86499   6.702  27.941   1.893
25079W        W86500  39.057  36.872   2.416
25080W        W86501  32.108  36.891   0.789
25081W        W86502  10.729  31.460   0.932
25082W        W86503  21.573  22.192   3.736
25083W        W86504  12.358  35.006  10.938
25084W        W86505   5.323  35.441  11.941
25085W        W86506  40.931  11.796   3.750
25086W        W86507  15.259   5.792   2.332
25087W        W86508  24.144  40.035   0.358
25088W        W86509  13.799  15.627  14.331
25089W        W86510  31.939  19.136  14.516
25090W        W86511  32.915  23.220   3.157
25091W        W86512  34.583   5.437  14.411
25092W        W86513  42.469  29.013   4.607
25093W        W86514  12.731   8.784   0.793
25094W        W86515  12.809  11.357  11.460
25095W        W86516   5.272  40.043   2.234
25096W        W86517  36.893  23.092  11.943
25097W        W86518  16.600  43.992  13.468
25098W        W86519  29.639  20.634   1.782
25099W        W86520  19.694  29.050   0.353
25100W        W86521  19.566   8.730  14.017
25101W        W86522   8.324  32.412   3.686
25102W        W86523  32.910  19.680   4.699
25103W        W86524  40.955  20.186   3.274
25104W        W86525  17.257  31.427   2.294
25105W        W86526  22.215  26.198   3.641
25106W        W86527  44.995  11.809  13.322
25107W        W86528   1.880  25.125   2.763
25108W        W86529   7.378  40.427   1.385
25109W        W86530   6.252   5.690  12.524
25110W        W86531  14.716  39.913   0.740
25111W        W86532  29.006  14.114   4.711
25112W        W86533  16.669  21.717  12.868
25113W        W86534  27.175   6.341  12.354
25114W        W86535  25.102  39.493  11.447
25115W        W86536   2.844   8.831  11.513
25116W        W86537  18.061  30.468  14.961
25117W        W86538   2.291  15.322   3.786
25118W        W86539   0.472  13.608   2.721
25119W        W86540  31.053   6.365   1.765
25120W        W86541  41.835   6.387   5.161
25121W        W86542  40.924  23.133  12.936
25122W        W86543   6.681  36.930  12.400
25123W        W86544  21.046   6.368  13.888
25124W        W86545  14.214  33.547   2.241
25125W        W86546  41.795  35.493  11.094
25126W        W86547  25.609  37.084   4.122
25127W        W86548  10.691  13.225  14.369
25128W        W86549  32.141  27.016  14.509
25129W        W86550  33.512  20.225   2.269
25130W        W86551  30.026  19.057   3.376
25131W        W86552  26.118  20.728  13.347
25132W        W86553  17.230  35.867   2.739
25133W        W86554  27.170  31.515   4.693
25134W        W86555  23.235  11.724  12.387
25135W        W86556  27.516   8.337  12.407
25136W        W86557  38.565   3.744  13.463
25137W        W86558  36.507  31.430  11.396
25138W        W86559  21.727  24.065   2.755
25139W        W86560   0.855  20.043   2.278
25140W        W86561  25.993   2.445  14.279
25141W        W86562  15.592  32.027  11.410
25142W        W86563  12.173  25.076  12.848
25143W        W86564  21.055  29.553  10.919
25144W        W86565  33.487   9.175   1.721
25145W        W86566  10.746  39.816  12.031
25146W        W86567  13.626  15.154  12.473
25147W        W86568   8.166   1.480  13.528
25148W        W86569  21.563  43.480   4.226
25149W        W86570  29.593  13.112   0.911
25150W        W86571  24.034  27.534   4.673
25151W        W86572  18.190  23.670   0.382
25152W        W86573  35.864  30.547  13.848
25153W        W86574  44.316  29.165   3.858
25154W        W86575   0.298  19.216   0.877
25155W        W86576  32.098  16.157   3.797
25156W        W86577  26.194  11.782   0.934
25157W        W86578  24.170   1.364   0.954
25158W        W86579  22.559  32.079   2.886
25159W        W86580  28.463  26.524   0.246
25160W        W86581  10.149  36.532  12.490
25161W        W86582  17.178   3.343  10.953
25162W        W86583   3.413  26.460   4.714
25163W        W86584   5.874  29.959  12.468
25164W        W86585  13.617  43.768   0.324
25165W        W86586  16.715   3.938  13.801
25166W        W86587   6.811  42.343   3.653
25167W        W86588  41.416  39.435   2.860
25168W        W86589  13.266  12.807   3.767
25169W        W86590   5.689  38.976   1.868
25170W        W86591   2.294  32.448   3.172
25171W        W86592  19.173   6.794   3.803
25172W        W86593   7.727  17.183   4.652
25173W        W86594   6.677   0.855   4.307
25174W        W86595  31.529  34.593   0.928
25175W        W86596  27.482   2.757  13.859
25176W        W86597  22.600  44.836  14.863
25177W        W86598  29.088  25.987   0.399
25178W        W86599   4.774  32.520  11.053
25179W        W86600  15.793   7.764   4.229
25180W        W86601  44.422  29.532  13.343
25181W        W86602  37.395  37.057   4.834
25182W        W86603  13.775  27.612   2.802
25183W        W86604  27.150  42.390  11.413
25184W        W86605   7.290  43.799   3.260
25185W        W86606   6.682  20.077  12.494
25186W        W86607  38.991   5.230   2.869
25187W        W86608  43.016   0.983   2.820
25188W        W86609  16.701  27.494  13.396
25189W        W86610  24.618  40.343  12.545
25190W        W86611  30.045  13.811  11.865
25191W        W86612  34.376  14.753   1.382
25192W        W86613  21.657  26.486  13.026
25193W        W86614  25.104  44.825  14.778
25194W        W86615  13.252  40.326   1.707
25195W        W86616  36.977  29.976   0.889
25196W        W86617   6.836  29.483   4.225
25197W        W86618  27.113  34.039  12.012
25198W        W86619  32.004  43.779  11.590
25199W        W86620  15.600  18.666  14.410
25200W        W86621  32.096   0.448  12.005
25201W        W86622  30.622  11.633   9.483
25202W        W86623  25.116  21.668  14.325
25203W        W86624  21.564  26.016   4.170
25204W        W86625  21.110   9.296  11.568
25205W        W86626  27.993  42.887   3.277
25206W        W86627  12.715   7.848  11.006
25207W        W86628  11.253  14.667  11.425
25208W        W86629  11.293  15.719  10.025
25209W        W86630  12.222  40.383  12.566
25210W        W86631  27.962  25.165   1.695
25211W        W86632  43.405  16.587  14.375
25212W        W86633  34.995  25.104  14.003
25213W        W86634  29.017  12.250   4.792
25214W        W86635  15.239   2.734  14.389
25215W        W86636  39.453  40.989  12.359
25216W        W86637  36.423  20.150   0.314
25217W        W86638  44.372  27.102   2.289
25218W        W86639  44.768  16.081  14.357
25219W        W86640   6.269  26.152   3.773
25220W        W86641  28.065   3.745  14.332
25221W        W86642  16.773  31.564   2.324
25222W        W86643   5.349  28.677   3.236
25223W        W86644  17.221   0.415   0.387
25224W        W86645  14.835  10.303   2.758
25225W        W86646  17.290  41.952  13.956
25226W        W86647  11.698  40.002  10.002
25227W        W86648  26.473  27.979  13.975
25228W        W86649  23.113  19.239   3.778
25229W        W86650  16.685  19.681  14.294
25230W        W86651  21.645  28.522  10.579
25231W        W86652  21.683   1.352  10.610
25232W        W86653  11.781  30.536  12.847
25233W        W86654  40.482  30.653  10.080
25234W        W86655   3.948  13.756   3.337
25235W        W86656  13.321  10.184   2.799
25236W        W86657  29.592  13.682  14.446
25237W        W86658  30.560  44.830   0.797
25238W        W86659  14.197  14.155  10.455
25239W        W86660  16.676  33.413  14.402
25240W        W86661   5.249  14.205   1.812
25241W        W86662  38.002  13.615   0.374
25242W        W86663  19.266  16.216   5.126
25243W        W86664   7.254  16.137  11.911
25244W        W86665  19.089  36.410   4.314
25245W        W86666  30.491  23.089   1.327
25246W        W86667  16.746  27.573   2.325
25247W        W86668  16.245  37.457   3.147
25248W        W86669  16.250  32.140   1.830
25249W        W86670  26.556   5.199   4.311
25250W        W86671  20.550   3.709  13.831
25251W        W86672   3.271  42.487  14.935
25252W        W86673  29.510  43.492  10.593
25253W        W86674  29.508   6.758   0.350
25254W        W86675  44.806  39.504   0.466
25255W        W86676  15.612  25.630   3.200
25256W        W86677   0.442   1.841  11.385
25257W        W86678  20.227  21.544   2.791
25258W        W86679   8.692  44.471   0.331
25259W        W86680  22.045   7.217  14.850
25260W        W86681  33.970  19.683  10.527
25261W        W86682   9.647   1.767   3.749
25262W        W86683  32.470   7.392   4.175
25263W        W86684  15.192   4.432   2.253
25264W        W86685  31.459  15.781   1.335
25265W        W86686  12.645  40.411  14.907
25266W        W86687  34.107  30.636   0.336
25267W        W86688  13.696  35.952   2.681
25268W        W86689  39.329   8.733  10.641
25269W        W86690  21.616  14.332   1.790
25270W        W86691   7.668  10.286   0.318
25271W        W86692   7.221  14.707   0.354
25272W        W86693  25.558  17.801   1.288
25273W        W86694  12.169  10.204   1.898
25274W        W86695  41.863  11.278  11.938
25275W        W86696   3.722   9.689  12.476
25276W        W86697  31.899  44.917   2.262
25277W        W86698  23.996  33.071   1.251
25278W        W86699  19.109  30.514  12.909
25279W        W86700  32.120  27.598   4.718
25280W        W86701  14.177  18.178  14.511
25281W        W86702   8.767  16.578   4.217
25282W        W86703   7.729  27.960   0.410
25283W        W86704  12.212  40.346   1.921
25284W        W86705   5.269  15.328  13.858
25285W        W86706  14.165  28.630  11.087
25286W        W86707  15.168   9.761  14.340
25287W        W86708  31.580  42.464   4.259
25288W        W86709  10.714  12.199  13.062
25289W        W86710  22.113  13.117  11.026
25290W        W86711   3.292  38.847  12.081
25291W        W86712   0.808  11.208  10.480
25292W        W86713  22.630  26.547   4.240
25293W        W86714  36.928  14.151   3.224
25294W        W86715  38.941   4.882   4.230
25295W        W86716   6.909   7.175  10.640
25296W        W86717  10.736  19.202   4.134
25297W        W86718  32.427   3.336   4.635
25298W        W86719  23.572  25.131   2.885
25299W        W86720  44.433  15.810  14.792
25300W        W86721  13.334  16.775  14.453
25301W        W86722  44.758  33.037  13.332
25302W        W86723  33.406  34.417   0.442
25303W        W86724   4.866   3.344  14.321
25304W        W86725  36.476  15.638   0.783
25305W        W86726   8.229  10.678  14.282
25306W        W86727   1.888   6.380   2.681
25307W        W86728  29.464  19.698  14.808
25308W        W86729  36.916  16.798  12.402
25309W        W86730   5.415  18.081   5.112
25310W        W86731  24.224   9.162  12.867
25311W        W86732  11.215   6.761   0.947
25312W        W86733  41.967  12.342  14.351
25313W        W86734   9.269   8.847  11.080
25314W        W86735  30.950  23.536   1.281
25315W        W86736  24.197  16.774   0.880
25316W        W86737   2.434  16.133  13.948
25317W        W86738  36.964   9.825   0.730
25318W        W86739  37.035  27.669  11.059
25319W        W86740  41.790  15.173  13.958
25320W        W86741  17.242   1.284  13.956
25321W        W86742   9.159  13.652  10.906
25322W        W86743   2.798  42.874   1.802
25323W        W86744  20.616   4.752  14.374
25324W        W86745  15.651  12.765   4.680
25325W        W86746   7.399   4.370  14.893
25326W        W86747  28.996   7.707   1.380
25327W        W86748   1.831  29.986   9.931
25328W        W86749  24.185  26.626  14.007
25329W        W86750  17.584  30.530  11.491
25330W        W86751  30.521   9.248   2.267
25331W        W86752   1.346  26.584   3.373
25332W        W86753  26.039  36.053  14.929
25333W        W86754  16.150  37.384   4.153
25334W        W86755  29.442   4.293   2.399
25335W        W86756  27.552  33.092   1.700
25336W        W86757   1.446  18.744   3.788
25337W        W86758  44.338   4.283   0.965
25338W        W86759  37.893  44.435   1.928
25339W        W86760  31.627  31.978   2.288
25340W        W86761  27.138   9.198   1.779
25341W        W86762  18.572  32.993   4.799
25342W        W86763  43.277   3.342  11.565
25343W        W86764  34.986   9.222  13.420
25344W        W86765  41.493   1.968   3.166
25345W        W86766  14.220  13.764  11.613
25346W        W86767   1.359  36.577  11.958
25347W        W86768  37.563  35.492   3.682
25348W        W86769  15.317   4.230   1.346
25349W        W86770  27.998   1.938   3.770
25350W        W86771   3.848  42.776   2.876
25351W        W86772  13.816  24.638   4.666
25352W        W86773  26.080  28.974  11.567
25353W        W86774  11.706  38.404   5.154
25354W        W86775   7.723  12.328  12.425
25355W        W86776  25.182   7.672   3.373
25356W        W86777  31.581  31.592   0.777
25357W        W86778  10.293  41.839   1.890
25358W        W86779   1.241  27.032  12.343
25359W        W86780  31.598  12.813   3.240
25360W        W86781  40.478   0.374  11.422
25361W        W86782   9.331   8.274   0.456
25362W        W86783  44.870  13.161  12.065
25363W        W86784  24.688  19.543  12.939
25364W        W86785  33.981   7.775  14.025
25365W        W86786  14.279  18.188   0.312
25366W        W86787  33.398  33.984   0.747
25367W        W86788   8.746  34.518   0.326
25368W        W86789  36.512  15.599  10.542
25369W        W86790   9.345   8.767   4.235
25370W        W86791  16.268  29.620   2.414
25371W        W86792  24.569  16.795   2.867
25372W        W86793  43.021   9.859   2.309
25373W        W86794   7.808  30.512  10.115
25374W        W86795  17.672   7.846   2.321
25375W        W86796  16.184   8.741  12.538
25376W        W86797   1.251   4.360   3.262
25377W        W86798  31.955  17.618   1.717
25378W        W86799  40.355   6.419  10.504
25379W        W86800  13.701  36.016   0.933
25380W        W86801   4.325  27.156  10.452
25381W        W86802  35.571  25.569   0.761
25382W        W86803  27.170   8.355   2.755
25383W        W86804  31.976   0.912   4.307
25384W        W86805  28.615  25.653  14.344
25385W        W86806  14.626  41.901  12.075
25386W        W86807  12.822  41.901   4.229
25387W        W86808  36.441  28.037  11.904
25388W        W86809  34.508  39.944   1.817
25389W        W86810   1.742   7.410   0.862
25390W        W86811  16.217  34.882   0.406
25391W        W86812  29.601  27.625  12.412
25392W        W86813  41.892  43.978   1.440
25393W        W86814  25.101  14.190   0.829
25394W        W86815  36.066  21.658  11.931
25395W        W86816  11.817  12.214  12.850
25396W        W86817  37.537  25.672  12.838
25397W        W86818  38.548   7.274  12.356
25398W        W86819   3.888   6.210   0.430
25399W        W86820  14.777  39.441   2.189
25400W        W86821  28.559  10.803  12.903
25401W        W86822  36.442  17.143   2.721
25402W        W86823  12.826  11.821  14.022
25403W        W86824  19.284  39.498   4.189
25404W        W86825  41.819   7.208   4.231
25405W        W86826  39.968  10.176  13.907
25406W        W86827   8.399  36.574   4.221
25407W        W86828  29.059  39.845   1.397
25408W        W86829  15.306  31.607  10.565
25409W        W86830  17.233  30.628   4.686
25410W        W86831  43.459  25.009  13.317
25411W        W86832  33.025   4.294  13.401
25412W        W86833   6.362  38.434  10.089
25413W        W86834  12.237   6.424   0.831
25414W        W86835  29.013  43.970   1.256
25415W        W86836   5.359   3.251   1.282
25416W        W86837  20.544   1.315  11.981
25417W        W86838  36.373  38.512   4.196
25418W        W86839   1.314  26.619   2.829
25419W        W86840  12.185  40.844  13.861
25420W        W86841  19.086   8.404  12.999
25421W        W86842  44.763  23.697   5.159
25422W        W86843  39.014  12.730   2.778
25423W        W86844  19.051  32.985   0.303
25424W        W86845  42.510  23.067   4.825
25425W        W86846  11.306  17.074  14.428
25426W        W86847  23.033  13.108  13.842
25427W        W86848   7.384  32.997  10.949
25428W        W86849   8.384  29.508  11.065
25429W        W86850  23.032  43.919  13.014
25430W        W86851  40.999  20.628   0.918
25431W        W86852   3.909  36.926  11.537
25432W        W86853  43.802  40.965   2.234
25433W        W86854  21.154  27.155  11.430
25434W        W86855   0.411  30.640  14.789
25435W        W86856   8.874  34.519   1.787
25436W        W86857  34.456  38.038   4.329
25437W        W86858  17.738   4.381   0.422
25438W        W86859   5.286   6.309  10.889
25439W        W86860  40.310  36.088  12.032
25440W        W86861  31.410  19.063  10.950
25441W        W86862   0.766  27.090   2.892
25442W        W86863  34.443   8.866   0.967
25443W        W86864  44.927  34.038  14.000
25444W        W86865   5.791   9.202   2.809
25445W        W86866   0.963  16.127  11.124
25446W        W86867  13.648   9.736  13.874
25447W        W86868  26.191  24.527   1.892
25448W        W86869   8.317  20.767   1.423
25449W        W86870  25.153  26.490   5.199
25450W        W86871   2.890   4.755  14.942
25451W        W86872   0.335  15.665   3.336
25452W        W86873  32.080   5.357  10.479
25453W        W86874  43.940  27.474   2.196
25454W        W86875  31.567   6.297  14.379
25455W        W86876  18.199  25.150   1.835
25456W        W86877  21.524  32.956  13.404
25457W        W86878  31.938  19.643   4.813
25458W        W86879  13.313  40.942   1.934
25459W        W86880  12.328  42.941   0.907
25460W        W86881  10.716  26.658  10.546
25461W        W86882  22.094   1.289   4.755
25462W        W86883   2.372  15.687  11.118
25463W        W86884  38.059  43.818   4.328
25464W        W86885  14.631  39.468  14.287
25465W        W86886  27.483   5.798  13.347
25466W        W86887  37.996   8.725   3.785
25467W        W86888  31.517  10.245   4.125
25468W        W86889  36.072   9.847   3.810
25469W        W86890  14.199  38.050  13.462
25470W        W86891   5.379   6.909  10.434
25471W        W86892   5.434  41.389  11.478
25472W        W86893  17.625  19.724  14.280
25473W        W86894  15.088   7.216  14.793
25474W        W86895  35.560  33.423  14.379
25475W        W86896  24.980  35.954  10.900
25476W        W86897  44.416  43.816  12.033
25477W        W86898  27.141  11.781   0.766
25478W        W86899   1.911  25.668   3.359
25479W        W86900   3.869  13.216   2.793
25480W        W86901  25.582  14.311  11.098
25481W        W86902  23.988  32.987  13.011
25482W        W86903  18.569  14.166  13.400
25483W        W86904  15.303  34.114  14.948
25484W        W86905  37.469  33.454  14.413
25485W        W86906  33.101  16.149  12.462
25486W        W86907  24.502  21.240  12.933
25487W        W86908  10.808  39.991  11.410
25488W        W86909  31.601  15.129   1.217
25489W        W86910  26.499  10.332  11.986
25490W        W86911  42.443  34.510   0.845
25491W        W86912   6.877  44.845   3.811
25492W        W86913  40.913  42.353   2.305
25493W        W86914  23.170  16.232   4.696
25494W        W86915  11.152  39.446   4.227
25495W        W86916  32.480  13.726  12.566
25496W        W86917   4.439  17.726   4.207
25497W        W86918  39.542  10.789   0.287
25498W        W86919  27.515  24.666  14.781
25499W        W86920  37.966  21.138  10.922
25500W        W86921  24.699  30.639   3.173
25501W        W86922   8.377  31.936   3.852
25502W        W86923  13.701  10.699  12.070
25503W        W86924  18.157  39.968   2.285
25504W        W86925  10.773  11.142   4.640
25505W        W86926  44.430   0.846  11.061
25506W        W86927  38.846  17.270  14.275
25507W        W86928  36.927  34.079  13.946
25508W        W86929  26.158  24.004  13.308
25509W        W86930  30.911  38.439  12.417
25510W        W86931  20.677   5.832  14.811
25511W        W86932  27.007  28.945  13.811
25512W        W86933   0.486   7.333   2.366
25513W        W86934  17.233  44.976   0.789
25514W        W86935  23.237  26.175  12.094
25515W        W86936  29.511  32.969  13.321
25516W        W86937  20.744   5.932   0.756
25517W        W86938   4.943  44.931  11.578
25518W        W86939   1.884  36.075   3.780
25519W        W86940  37.056   6.882  10.509
25520W        W86941   2.913   7.211  13.043
25521W        W86942  40.521  39.016  13.325
25522W        W86943   7.687  42.519   1.751
25523W        W86944   0.804  39.848  11.020
25524W        W86945  20.755  40.890  12.062
25525W        W86946   0.259   2.936  14.992
25526W        W86947  16.224  39.538   1.359
25527W        W86948   9.233  43.968   1.246
25528W        W86949  34.507   6.241  13.444
25529W        W86950   0.279   5.244   1.807
25530W        W86951  18.116  14.201   0.347
25531W        W86952   5.839  32.099   0.467
25532W        W86953   9.725  36.000  13.853
25533W        W86954  34.031  19.712  12.976
25534W        W86955  20.661  28.591   2.326
25535W        W86956   0.265  13.307   2.826
25536W        W86957  41.476  39.844  13.463
25537W        W86958  42.821  25.160  10.434
25538W        W86959   9.324  10.768   0.455
25539W        W86960  37.537  11.639  14.400
25540W        W86961  21.588  18.276  13.969
25541W        W86962  14.697  25.971   2.675
25542W        W86963  34.609  34.516  14.012
25543W        W86964  44.822  20.135  12.074
25544W        W86965   5.744  32.939   0.878
25545W        W86966  32.463  29.462   1.889
25546W        W86967  11.209  23.054  14.490
25547W        W86968  37.883  22.740  10.452
25548W        W86969  19.112  40.393   1.238
25549W        W86970  37.904  15.664   0.963
25550W        W86971  32.448  24.586  14.394
25551W        W86972   5.361   8.778  14.499
25552W        W86973  15.672   5.853  10.112
25553W        W86974  21.122  12.673  12.948
25554W        W86975  39.014  36.961  13.879
25555W        W86976  30.076  20.573   1.792
25556W        W86977  39.897  11.630   0.353
25557W        W86978  24.607  15.260   2.184
25558W        W86979   2.366  33.118   1.357
25559W        W86980  24.080  29.144   4.175
25560W        W86981  43.836   0.322   2.384
25561W        W86982  35.862  39.841  13.537
25562W        W86983  21.614  22.550   3.828
25563W        W86984   8.818  36.926   2.889
25564W        W86985  33.399   1.794   3.267
25565W        W86986  22.537  40.418   4.712
25566W        W86987  30.656   4.217  14.510
25567W        W86988   4.411  24.080  14.773
25568W        W86989  37.502  15.719  14.416
25569W        W86990  35.373  36.562   3.196
25570W        W86991  40.379  34.383   2.325
25571W        W86992   7.693  42.976   1.277
25572W        W86993  21.068  21.581  14.439
25573W        W86994  44.308   7.292   5.172
25574W        W86995  44.819   4.218  14.854
25575W        W86996  34.867  33.039  12.832
25576W        W86997   9.354  36.907  11.380
25577W        W86998  11.625   0.490   4.347
25578W        W86999   5.312   0.886  13.309
25579W        W87000  15.615  34.065  11.372
25580W        W87001  35.018  44.009   0.771
25581W        W87002  31.051   6.288   2.350
25582W        W87003  22.729  13.844   2.783
25583W        W87004  18.659   6.380   3.650
25584W        W87005  14.203  23.695  12.035
25585W        W87006  39.422   4.248  12.962
25586W        W87007  17.627   4.825  13.859
25587W        W87008  34.548   1.436  13.827
25588W        W87009  35.380   9.670  13.894
25589W        W87010  21.728   1.777   1.759
25590W        W87011  15.615  10.763  14.512
25591W        W87012  41.961  31.007  11.928
25592W        W87013  34.962   9.665   4.672
25593W        W87014  27.585  10.799  11.537
25594W        W87015  24.989  43.019   0.775
25595W        W87016  31.613   3.284  10.496
25596W        W87017  21.671   9.255   4.203
25597W        W87018  24.523   7.285  12.548
25598W        W87019  13.299   9.165  10.428
25599W        W87020   1.789  28.666  10.528
25600W        W87021  24.114  35.569  14.439
25601W        W87022  30.955  16.229  12.409
25602W        W87023   9.211  21.755   3.246
25603W        W87024  37.997  33.933   3.258
25604W        W87025  42.832  31.051   4.308
25605W        W87026   8.856  36.022  13.949
25606W        W87027   9.167  36.917   4.321
25607W        W87028  28.155  25.086   5.164
25608W        W87029   5.702  28.990   0.754
25609W        W87030  37.881  24.119   1.729
25610W        W87031  44.375   4.716  13.895
25611W        W87032  17.782  17.672   1.793
25612W        W87033   6.817   9.835   4.117
25613W        W87034  10.695  32.050  12.034
25614W        W87035  30.023  26.548   1.223
25615W        W87036  33.958  34.976  10.480
25616W        W87037  18.592  11.193   2.677
25617W        W87038  25.019  18.221   3.641
25618W        W87039  15.310  19.132  11.565
25619W        W87040  26.702   7.376  11.419
25620W        W87041  34.119  11.792  11.517
25621W        W87042  28.575   1.335  10.578
25622W        W87043  28.576  11.275  12.420
25623W        W87044  44.312  17.658  10.633
25624W        W87045  38.820  34.996   2.387
25625W        W87046   8.882  38.480   1.343
25626W        W87047  40.483   1.936   2.388
25627W        W87048   8.843  14.722   2.260
25628W        W87049  39.063  29.654  11.948
25629W        W87050  43.999   3.755  14.387
25630W        W87051  25.171  10.694  10.629
25631W        W87052  44.338  39.877  10.464
25632W        W87053  36.478  16.698  14.801
25633W        W87054  27.557  44.981  11.073
25634W        W87055  34.376  40.826   1.335
25635W        W87056  27.111  13.843   3.217
25636W        W87057   9.743   2.394   4.680
25637W        W87058  37.988   8.716  13.482
25638W        W87059  41.826   6.261  10.631
25639W        W87060  35.404  16.691  13.436
25640W        W87061  25.700  44.447  12.022
25641W        W87062  24.644  33.447   1.213
25642W        W87063   1.305  32.477   1.749
25643W        W87064  44.856  38.062  12.537
25644W        W87065  17.268   4.316   4.767
25645W        W87066  16.175  26.590  10.967
25646W        W87067  19.265  44.963   1.404
25647W        W87068   7.885  24.539  10.587
25648W        W87069  22.573   4.855   1.219
25649W        W87070  18.571  17.167  13.348
25650W        W87071  13.134  27.994   1.815
25651W        W87072  19.204  13.613  13.061
25652W        W87073  37.009  16.249  13.957
25653W        W87074   2.442  27.457   4.263
25654W        W87075  37.954  22.619  12.865
25655W        W87076  17.669  15.262  10.082
25656W        W87077  42.849  38.408   4.646
25657W        W87078  14.694  32.553  13.490
25658W        W87079   8.735  13.120   3.704
25659W        W87080  33.079  38.059   0.458
25660W        W87081  44.852  36.515  11.013
25661W        W87082  18.212  10.351   2.820
25662W        W87083  18.647  19.734  11.874
25663W        W87084  32.527  17.570  10.542
25664W        W87085  32.554   0.469   3.188
25665W        W87086  15.603   1.310  10.496
25666W        W87087   6.818  19.040   1.305
25667W        W87088  26.534   7.841  14.286
25668W        W87089   6.355  26.972  13.534
25669W        W87090   1.333   8.793   3.280
25670W        W87091   2.274  12.170   3.196
25671W        W87092   9.741  32.885  11.950
25672W        W87093  21.032  37.874  14.442
25673W        W87094  41.304  16.718   3.167
25674W        W87095  25.078  37.070  10.507
25675W        W87096  13.834  13.628  11.447
25676W        W87097  10.382  44.497   3.168
25677W        W87098   6.306  35.043  13.026
25678W        W87099  10.250  16.614  13.485
25679W        W87100   8.695  13.166   1.389
25680W        W87101   4.346   4.412   2.332
25681W        W87102  30.523  31.024  11.423
25682W        W87103  42.909  16.079  13.487
25683W        W87104   5.870  19.275   3.729
25684W        W87105  18.116  10.336   1.218
25685W        W87106   7.912  23.217   1.320
25686W        W87107   4.927  13.261  14.973
25687W        W87108  21.638  37.991  12.840
25688W        W87109  19.614  40.884   4.812
25689W        W87110  38.820  37.389  11.109
25690W        W87111  17.127  19.607  14.817
25691W        W87112  22.592  29.924  10.540
25692W        W87113  19.716  21.060  10.951
25693W        W87114  16.635  38.843  12.993
25694W        W87115   3.803  15.097  12.378
25695W        W87116  24.140  30.493   5.283
25696W        W87117   1.319  37.960   0.818
25697W        W87118  20.177  30.483  13.507
25698W        W87119  44.920   8.166   2.683
25699W        W87120   0.935   2.797   0.321
25700W        W87121  13.759  29.664  14.441
25701W        W87122  42.843  38.485   0.967
25702W        W87123  19.258   6.915  12.510
25703W        W87124  41.982  12.679  10.930
25704W        W87125  35.590  19.058  10.892
25705W        W87126  31.605   8.795   0.436
25706W        W87127  14.208  27.946   0.417
25707W        W87128   6.692   3.286  11.434
25708W        W87129  34.538  27.592   0.324
25709W        W87130   7.191  31.122   4.162
25710W        W87131  44.936  30.972   0.292
25711W        W87132  38.931  42.371   4.714
25712W        W87133  41.387  40.005   3.840
25713W        W87134  39.941  12.222   0.393
25714W        W87135  43.813   1.928  12.083
25715W        W87136  25.116   4.417   1.421
25716W        W87137  27.132  21.186  14.422
25717W        W87138  38.892  32.600   2.289
25718W        W87139  28.495  23.557  12.049
25719W        W87140  27.125  30.646  14.471
25720W        W87141  11.825   8.845  14.900
25721W        W87142  10.305  44.497   5.317
25722W        W87143  40.885  40.999  11.540
25723W        W87144   2.350   1.269  11.092
25724W        W87145  33.440  21.101   2.897
25725W        W87146  18.605  28.102  12.556
25726W        W87147  28.081  28.176  11.388
25727W        W87148  13.237   0.310   1.727
25728W        W87149  14.221  14.752   3.234
25729W        W87150  44.497  21.116  15.000
25730W        W87151  33.537  32.979   2.344
25731W        W87152  42.999  10.336   0.326
25732W        W87153  19.705  30.533   1.272
25733W        W87154  22.220  35.908  14.448
25734W        W87155  31.976  35.569   0.386
25735W        W87156  34.021  35.108  11.105
25736W        W87157  22.088   7.834  10.931
25737W        W87158  32.539  13.636   3.236
25738W        W87159  26.046   2.360   2.403
25739W        W87160  20.173  41.801  12.962
25740W        W87161  39.439  20.760   1.270
25741W        W87162  18.780  10.801  11.388
25742W        W87163  30.006  42.441   0.752
25743W        W87164   4.390  34.549  10.483
25744W        W87165  44.799   2.795  13.054
25745W        W87166  23.987  41.382   4.837
25746W        W87167   0.420  36.388  12.045
25747W        W87168  10.382  34.486   2.844
25748W        W87169  15.772   0.461   4.213
25749W        W87170  32.536  42.362  12.864
25750W        W87171  15.682  43.302  10.996
25751W        W87172  32.001   3.434   1.394
25752W        W87173  20.545   9.871   0.816
25753W        W87174  27.631   6.289  11.118
25754W        W87175  27.498  16.106   1.260
25755W        W87176  38.439  29.447   3.151
25756W        W87177  23.644  10.847  10.982
25757W        W87178   9.691  32.518  10.572
25758W        W87179  32.467   6.349  14.014
25759W        W87180  14.216  26.022  11.895
25760W        W87181  35.583  33.103  13.398
25761W        W87182  10.206  27.977  13.879
25762W        W87183  29.553  18.195   0.404
25763W        W87184  41.011  44.492  14.389
25764W        W87185   2.236   9.241  14.838
25765W        W87186  10.751  10.267  10.021
25766W        W87187  10.262   6.323  10.470
25767W        W87188  34.963  38.325   4.343
25768W        W87189  11.351  19.606  13.390
25769W        W87190  39.376  21.588  13.900
25770W        W87191  43.778  25.140  11.996
25771W        W87192  20.743  21.119  14.910
25772W        W87193  43.858  11.288  11.891
25773W        W87194  33.104   5.281   4.699
25774W        W87195  16.183   6.896  11.529
25775W        W87196  24.616  31.968   0.853
25776W        W87197   1.293   0.856  13.392
25777W        W87198  31.646  39.916   3.244
25778W        W87199   4.231  21.603   0.743
25779W        W87200  20.048  40.392   4.236
25780W        W87201   5.335  30.551  11.858
25781W        W87202  42.898  24.212   5.306
25782W        W87203  23.555  43.985   1.352
25783W        W87204  20.128  33.946   1.921
25784W        W87205  21.537  25.689   3.707
25785W        W87206  26.641  15.631  13.532
25786W        W87207  10.641  40.517   1.898
25787W        W87208  42.422  14.809   2.322
25788W        W87209   6.723  31.602  10.898
25789W        W87210   1.468   1.359  11.122
25790W        W87211  41.946   3.813   4.157
25791W        W87212  27.526  40.944   4.608
25792W        W87213   4.353  22.147   0.770
25793W        W87214  33.538  27.110   2.313
25794W        W87215  19.270  19.209  14.451
25795W        W87216  34.448  13.128  13.794
25796W        W87217   1.397   7.359   1.829
25797W        W87218  10.741  26.170  12.429
25798W        W87219  40.455  21.641   0.341
25799W        W87220  16.156  12.846  11.384
25800W        W87221  20.564  30.629   3.747
25801W        W87222   1.753  44.278  11.044
25802W        W87223  13.302  32.476  12.381
25803W        W87224  30.030  31.641  14.839
25804W        W87225  20.233   2.871  12.837
25805W        W87226   8.341  24.723  11.472
25806W        W87227  25.691  11.312   4.804
25807W        W87228  35.522   7.909  14.818
25808W        W87229  38.452  33.574  10.900
25809W        W87230  21.108  34.385   9.923
25810W        W87231  14.604   1.369  13.002
25811W        W87232   9.874  17.172   4.173
25812W        W87233   7.393  41.968   2.365
25813W        W87234  16.276  24.588  14.989
25814W        W87235   0.439   5.241   0.379
25815W        W87236  32.584  21.755  11.932
25816W        W87237  40.354  42.963  13.394
25817W        W87238  33.620   2.922  12.575
25818W        W87239   3.899  10.288  12.560
25819W        W87240  41.815  30.960  14.319
25820W        W87241  38.888   0.410   1.777
25821W        W87242  28.071  18.260   1.245
25822W        W87243  23.572  10.372   1.421
25823W        W87244  37.833  40.939  12.513
25824W        W87245  24.130  32.562   0.731
25825W        W87246  37.939   8.776   3.219
25826W        W87247  25.993  14.695   1.333
25827W        W87248  12.774   5.911  14.374
25828W        W87249   6.892  14.187   1.699
25829W        W87250  22.228  12.718   0.911
25830W        W87251   9.886  19.163   0.948
25831W        W87252  39.993  13.333  12.521
25832W        W87253  13.211  15.641   3.302
25833W        W87254   1.832  43.409  10.643
25834W        W87255  35.026  11.220   3.854
25835W        W87256  29.151   8.314   2.281
25836W        W87257  17.747  14.760  12.989
25837W        W87258   8.392  23.048  10.430
25838W        W87259  43.514  11.781   1.331
25839W        W87260  24.544  24.526   3.779
25840W        W87261  38.914  41.489  13.024
25841W        W87262   2.738  38.835  11.055
25842W        W87263  36.988  37.849  12.015
25843W        W87264  34.058  30.042   4.334
25844W        W87265  30.591  29.532   3.738
25845W        W87266  27.512  20.092  12.967
25846W        W87267  35.989   9.348   3.670
25847W        W87268  43.377   9.256   2.405
25848W        W87269  14.300  36.040   2.773
25849W        W87270  16.589  43.329   4.259
25850W        W87271  27.463  38.549  10.890
25851W        W87272  10.729  35.457   0.462
25852W        W87273  32.006   8.343   4.231
25853W        W87274  12.809  26.616  12.009
25854W        W87275   1.897   6.760  11.586
25855W        W87276  36.494  29.629  14.366
25856W        W87277  20.270   9.272   1.894
25857W        W87278   9.783  21.032   1.727
25858W        W87279  12.235  32.635  14.884
25859W        W87280   5.784  13.652  12.524
25860W        W87281  30.590  37.883  11.014
25861W        W87282  17.120  16.666   3.767
25862W        W87283  14.187  13.271  14.438
25863W        W87284  43.839  32.526  10.984
25864W        W87285  31.923  10.675   2.807
25865W        W87286  31.441  14.332   4.747
25866W        W87287  32.619   6.905   2.182
25867W        W87288   6.391  18.289  14.765
25868W        W87289  31.147  24.184  14.851
25869W        W87290  38.042  17.089   2.779
25870W        W87291  27.172   8.277  11.971
25871W        W87292  44.934  25.615   2.234
25872W        W87293  31.021  34.963   0.834
25873W        W87294  22.008  21.740  10.607
25874W        W87295  32.466  10.866  12.377
25875W        W87296  42.979  30.623   2.404
25876W        W87297  32.550  27.054  12.064
25877W        W87298  43.877  35.044  13.349
25878W        W87299  40.493  20.617  14.357
25879W        W87300  19.744  23.718  10.473
25880W        W87301  31.108   4.870   2.273
25881W        W87302  28.505  36.006  11.010
25882W        W87303   0.364  42.328   0.316
25883W        W87304  29.128  28.491  13.425
25884W        W87305  43.820  14.655   1.824
25885W        W87306  43.458  23.617  13.497
25886W        W87307  16.737  43.870   1.768
25887W        W87308  35.865   1.336  11.996
25888W        W87309  32.126   9.791   2.375
25889W        W87310  10.255   9.740   2.228
25890W        W87311  15.112  20.079  11.085
25891W        W87312  29.019  12.194  11.954
25892W        W87313   0.906  13.844   4.283
25893W        W87314  36.368  29.032  10.942
25894W        W87315  43.469  28.036  13.953
25895W        W87316  13.845  43.831   1.415
25896W        W87317  43.944   8.209   4.306
25897W        W87318  39.989   1.909  12.032
25898W        W87319   2.387  16.289  14.305
25899W        W87320  27.634  42.952  12.521
25900W        W87321  10.169  31.079   3.833
25901W        W87322  40.015   8.236  13.481
25902W        W87323  13.736   4.819  13.941
25903W        W87324  14.728  41.494  11.071
25904W        W87325   0.812  26.098  11.565
25905W        W87326  22.237  10.731  12.426
25906W        W87327  27.518  38.864  14.791
25907W        W87328  20.625  37.400  12.858
25908W        W87329  34.468  41.488   0.962
25909W        W87330   5.868   8.255   0.806
25910W        W87331  10.681  28.101  10.633
25911W        W87332  29.945   7.354  14.321
25912W        W87333  33.533  20.169  14.496
25913W        W87334  23.544   2.232  13.376
25914W        W87335   5.794  36.087   2.401
25915W        W87336  17.260   8.688  13.853
25916W        W87337  39.819  40.958   4.283
25917W        W87338  39.451  26.497  11.021
25918W        W87339  23.720   3.443   2.402
25919W        W87340  22.537  38.426  12.898
25920W        W87341  30.581  23.985   2.693
25921W        W87342  23.192   3.797   4.289
25922W        W87343  10.362  10.778   4.184
25923W        W87344   9.186  29.549   2.894
25924W        W87345   8.285   7.852   2.773
25925W        W87346  13.268  42.419   1.413
25926W        W87347  39.347  15.811   3.287
25927W        W87348  40.305   8.868   3.147
25928W        W87349  13.241   4.239   1.286
25929W        W87350  24.182   7.380  11.114
25930W        W87351  18.267  23.167   2.300
25931W        W87352  43.282  41.452  13.821
25932W        W87353  33.471  24.522  12.448
25933W        W87354  21.667   8.816  12.957
25934W        W87355  21.639   0.775  14.772
25935W        W87356  36.553  10.191   3.245
25936W        W87357  40.024  10.858   3.263
25937W        W87358  35.471  38.471   0.965
25938W        W87359  38.470  40.979   1.236
25939W        W87360  34.593  19.583  13.436
25940W        W87361  31.612  21.246   4.707
25941W        W87362   0.748  14.099  14.362
25942W        W87363  18.051   8.694  13.906
25943W        W87364  30.453  14.781  12.436
25944W        W87365  44.297  28.974  11.427
25945W        W87366   5.251  38.849   4.699
25946W        W87367  13.648  16.076  13.442
25947W        W87368  40.930   1.807   1.371
25948W        W87369  24.975  32.419   4.179
25949W        W87370  16.785  35.933  11.481
25950W        W87371  24.159  22.574  10.485
25951W        W87372  43.946  11.717  13.923
25952W        W87373  12.811  15.798   0.956
25953W        W87374   3.932   2.843  11.562
25954W        W87375  35.577  30.091   3.343
25955W        W87376  16.257  23.219  13.500
25956W        W87377  33.554  30.427   5.314
25957W        W87378  38.503  35.872   0.247
25958W        W87379  31.016  21.643   3.382
25959W        W87380  34.418  13.828  12.884
25960W        W87381  38.852  38.338   0.255
25961W        W87382  32.070  43.515   0.449
25962W        W87383  23.038  21.232  11.409
25963W        W87384  13.218   3.723   2.824
25964W        W87385   9.660  12.208   3.298
25965W        W87386  25.173   1.802   2.281
25966W        W87387  10.814  15.092  12.422
25967W        W87388  24.688  29.168   3.646
25968W        W87389   1.259  21.108  14.853
25969W        W87390  24.607   0.886   4.293
25970W        W87391  27.616  35.852  14.914
25971W        W87392   1.336  33.027   0.291
25972W        W87393   4.317  13.246   0.325
25973W        W87394  36.561  12.223  14.997
25974W        W87395  36.986  15.325  10.944
25975W        W87396   0.334  21.171   1.359
25976W        W87397   9.882  44.957  14.276
25977W        W87398  36.918   3.816   4.293
25978W        W87399  32.024   5.833   3.835
25979W        W87400   0.962   2.240   5.206
25980W        W87401   9.176  25.130   5.220
25981W        W87402  27.636  39.909   3.217
25982W        W87403  13.148  14.291   4.822
25983W        W87404  35.852  31.911   2.233
25984W        W87405  14.215   3.368  14.997
25985W        W87406  38.061  15.094  14.995
25986W        W87407  26.483  14.274  11.950
25987W        W87408   2.737  25.569  14.813
25988W        W87409  15.197  13.762   4.270
25989W        W87410  27.662   7.236  14.963
25990W        W87411  27.628   5.405  11.447
25991W        W87412  27.096  14.651   2.252
25992W        W87413   1.274   6.298   1.883
25993W        W87414  10.817  28.543  12.015
25994W        W87415  43.824  14.752   2.259
25995W        W87416  12.839   8.277   2.417
25996W        W87417  24.210   1.431  13.871
25997W        W87418  10.141  36.001   3.373
25998W        W87419  40.320  42.824   2.850
25999W        W87420  29.625  34.514  10.593
26000W        W87421  28.548  18.759   3.671
26001W        W87422  12.194  36.562   4.305
26002W        W87423   7.839  38.055   1.292
26003W        W87424  17.658  27.474   3.308
26004W        W87425  28.138  25.556   2.725
26005W        W87426   7.281  25.210   2.417
26006W        W87427  29.070  26.126  13.875
26007W        W87428  18.261   8.788   0.915
26008W        W87429  21.746  18.634  13.948
26009W        W87430  24.627  16.263  11.875
26010W        W87431  28.031  44.865  12.053
26011W        W87432  24.078   0.805  13.352
26012W        W87433   3.240   6.224  10.550
26013W        W87434  44.333  40.334   0.377
26014W        W87435  11.868  14.206  12.055
26015W        W87436  25.203  41.869   0.458
26016W        W87437   7.780  33.590  12.006
26017W        W87438  18.707   9.846  12.341
26018W        W87439   6.318  34.507  12.363
26019W        W87440  43.825   2.818   1.414
26020W        W87441  27.645  18.743   2.385
26021W        W87442  28.612  19.598  10.420
26022W        W87443  21.536  24.059  13.929
26023W        W87444   0.779   9.238   0.372
26024W        W87445  15.123  23.532   3.661
26025W        W87446   1.895  38.996  14.421
26026W        W87447  10.384  42.850   1.830
26027W        W87448   3.897  43.942   1.799
26028W        W87449  34.952  24.677   2.863
26029W        W87450  39.014  43.305  10.484
26030W        W87451  15.640   2.442   1.337
26031W        W87452  43.954  22.233  13.432
26032W        W87453  16.179  36.419   4.821
26033W        W87454  13.664  34.521  13.004
26034W        W87455   0.472   2.325  10.963
26035W        W87456  29.478  15.578   4.687
26036W        W87457  14.697  42.399   2.880
26037W        W87458   7.799  41.528  11.087
26038W        W87459  15.232  39.833   0.420
26039W        W87460  15.796  30.525  13.493
26040W        W87461  12.150   8.697  10.950
26041W        W87462   2.779  26.037   0.803
26042W        W87463  14.654  12.704  11.005
26043W        W87464  18.759   0.470  13.338
26044W        W87465   2.369   7.775  14.498
26045W        W87466  33.911  15.715   2.379
26046W        W87467  40.540  12.765   3.819
26047W        W87468   4.250  10.726  11.407
26048W        W87469  25.583  33.057   1.791
26049W        W87470  41.813  33.037  13.891
26050W        W87471  40.434  26.079   0.461
26051W        W87472  27.670  24.567   4.738
26052W        W87473  10.179  31.040   1.743
26053W        W87474   5.798  39.985  14.288
26054W        W87475  38.412   5.735  14.977
26055W        W87476  16.196  31.943   2.381
26056W        W87477  14.765  44.354  14.951
26057W        W87478  44.325   9.162   0.898
26058W        W87479  23.572  22.585  10.403
26059W        W87480  25.537  17.109   3.207
26060W        W87481  21.217   0.783   0.865
26061W        W87482  36.502  19.616   5.239
26062W        W87483   4.734  14.117  10.530
26063W        W87484   6.371  16.582  13.026
26064W        W87485  37.914   6.223  10.923
26065W        W87486  33.603  24.638  11.464
26066W        W87487  22.149  32.415  11.928
26067W        W87488  18.188  17.098   0.258
26068W        W87489   4.319  23.734  11.101
26069W        W87490  15.595  15.166   1.296
26070W        W87491  33.501  25.545   3.661
26071W        W87492  28.644   4.443   1.817
26072W        W87493  33.911  43.380  11.505
26073W        W87494  14.282  29.575   1.346
26074W        W87495  17.767  38.539   2.256
26075W        W87496   4.767   4.212   2.733
26076W        W87497   1.949   8.706   3.691
26077W        W87498  27.119   3.398   0.282
26078W        W87499  37.431  27.560   4.180
26079W        W87500   5.826  28.604  14.849
26080W        W87501  38.354  37.396   2.869
26081W        W87502  28.161   7.885   0.827
26082W        W87503   6.784   9.272   3.838
26083W        W87504  31.935  34.005   0.464
26084W        W87505  31.904  23.025  12.403
26085W        W87506   3.280  34.460  11.475
26086W        W87507  26.073   6.709  14.010
26087W        W87508  16.695   0.487   0.378
26088W        W87509  10.357  36.865   2.329
26089W        W87510  23.717  20.741   0.783
26090W        W87511  30.451  12.199   1.783
26091W        W87512  22.590  21.165   2.235
26092W        W87513   8.239  16.256  12.454
26093W        W87514  36.410  42.456   1.750
26094W        W87515   5.408  20.229   1.784
26095W        W87516  34.095  20.530   0.335
26096W        W87517  34.530  40.013   2.191
26097W        W87518  39.466  35.376   3.758
26098W        W87519  15.717  33.098  11.855
26099W        W87520  13.681  36.090   1.801
26100W        W87521  43.323  30.581  13.454
26101W        W87522  30.652   3.833  12.023
26102W        W87523  19.215  28.513   2.871
26103W        W87524  16.141  35.968   0.892
26104W        W87525  10.759  36.590  13.047
26105W        W87526  10.301  16.792   1.298
26106W        W87527  20.120   9.199   4.258
26107W        W87528  43.947  43.017   3.218
26108W        W87529  11.267   2.279  10.478
26109W        W87530  13.827  16.738  12.455
26110W        W87531   1.433  29.502  12.430
26111W        W87532  15.622  43.949  14.987
26112W        W87533  22.627  25.215  10.600
26113W        W87534  40.488  29.603  11.052
26114W        W87535  20.611  11.710   0.411
26115W        W87536   5.750   3.857  11.584
26116W        W87537  30.636  17.659   1.278
26117W        W87538  39.040  27.026   4.792
26118W        W87539  44.327  23.616  10.979
26119W        W87540  37.422  36.438  12.910
26120W        W87541   9.212  41.852  11.990
26121W        W87542  11.861  16.172  12.883
26122W        W87543  16.589  14.774  10.510
26123W        W87544  42.404  13.315   5.217
26124W        W87545   2.946   2.441  14.940
26125W        W87546  28.937  28.062   1.329
26126W        W87547  27.022  32.608   1.704
26127W        W87548  27.187  37.082   3.677
26128W        W87549   5.244  38.964   2.370
26129W        W87550   3.259   3.394   0.788
26130W        W87551   4.725   9.168   1.241
26131W        W87552  12.712  13.638  12.883
26132W        W87553  16.228   3.744  12.364
26133W        W87554  22.528  28.173   3.237
26134W        W87555  10.738  15.732   1.721
26135W        W87556   5.814  26.107  10.046
26136W        W87557  16.713  36.567  10.583
26137W        W87558  20.157  43.821   2.215
26138W        W87559  43.337   5.912  12.991
26139W        W87560  10.818  30.947   1.736
26140W        W87561  36.487  43.508  11.033
26141W        W87562   0.485  32.500   1.220
26142W        W87563  24.514  29.166   1.441
26143W        W87564   3.879   7.182  13.942
26144W        W87565   4.377   2.759  14.335
26145W        W87566   8.833  22.613  11.967
26146W        W87567  32.109  41.303   2.848
26147W        W87568  38.024  14.189  10.469
26148W        W87569   2.891  34.022  10.637
26149W        W87570  26.965  11.191   1.339
26150W        W87571  30.507  36.454   4.350
26151W        W87572  19.593  38.039  12.432
26152W        W87573   3.437  44.952   3.190
26153W        W87574  11.754  16.570   2.789
26154W        W87575  31.482  42.349  10.943
26155W        W87576  31.585  15.692  14.028
26156W        W87577   6.302  29.988  12.893
26157W        W87578  18.096  31.969  12.851
26158W        W87579   7.300  34.583   4.327
26159W        W87580  24.502  17.271   1.834
26160W        W87581  37.876   1.935   3.234
26161W        W87582  12.174  30.128  12.566
26162W        W87583  32.003  35.359  12.000
26163W        W87584  27.670  40.333   3.845
26164W        W87585  15.630  11.710  10.496
26165W        W87586  30.158  15.794  12.079
26166W        W87587   5.705  39.986   3.216
26167W        W87588   6.891  16.673  14.443
26168W        W87589  37.987  16.650   0.811
26169W        W87590   2.428  36.871   1.794
26170W        W87591  12.144   8.193  14.367
26171W        W87592   8.366  40.410  10.433
26172W        W87593   9.798  12.722  14.479
26173W        W87594  16.278  34.577  10.539
26174W        W87595  26.983  41.959   0.918
26175W        W87596  15.685  30.075  10.964
26176W        W87597  20.191  28.613  13.452
26177W        W87598   6.230  44.455  11.855
26178W        W87599  40.409  14.173  10.457
26179W        W87600  10.852  36.411  13.439
26180W        W87601  33.440   8.321  12.352
26181W        W87602  10.801   2.276  11.057
26182W        W87603   2.813  17.124  10.568
26183W        W87604  41.008  39.529   1.744
26184W        W87605  33.564   0.278   4.267
26185W        W87606   9.673   4.344  14.885
26186W        W87607  14.292  42.798  14.504
26187W        W87608  42.348  16.583  10.413
26188W        W87609   2.335  38.441   1.931
26189W        W87610  18.584   9.186   3.250
26190W        W87611   7.910   2.763  12.996
26191W        W87612  29.579  11.220   0.249
26192W        W87613  26.495  43.303  11.116
26193W        W87614  39.828  18.756  14.917
26194W        W87615  24.994  37.831   5.315
26195W        W87616  17.599   6.367  10.538
26196W        W87617  31.991   7.771  12.838
26197W        W87618  42.949   1.366  14.762
26198W        W87619   9.848   9.321   4.116
26199W        W87620  30.921  28.670   4.201
26200W        W87621  19.561  21.140  13.012
26201W        W87622  21.738  12.706   2.840
26202W        W87623  35.544   8.246   3.714
26203W        W87624  38.418   2.450  10.938
26204W        W87625   0.805  27.646   0.375
26205W        W87626  20.141   9.804  13.931
26206W        W87627  11.335  42.921  14.985
26207W        W87628  17.156  18.224  10.143
26208W        W87629  41.860  19.756   5.322
26209W        W87630  26.676  24.723   3.717
26210W        W87631   2.466  27.123   0.371
26211W        W87632   6.913   2.369  13.004
26212W        W87633  40.425  43.409  13.021
26213W        W87634  15.216  40.540   2.184
26214W        W87635  25.708  33.626  11.438
26215W        W87636  31.068   0.862  14.945
26216W        W87637  31.019  19.184   3.738
26217W        W87638  28.995  20.760  13.535
26218W        W87639  24.594   0.444  13.798
26219W        W87640  33.919  16.628  14.761
26220W        W87641  38.044  34.920  14.772
26221W        W87642  34.952  30.042  14.029
26222W        W87643  27.074  19.106   4.782
26223W        W87644  13.698  13.813   2.405
26224W        W87645  27.146  31.618  12.871
26225W        W87646  10.199  29.963   0.473
26226W        W87647  31.073  19.236  14.280
26227W        W87648   0.346  42.485   2.305
26228W        W87649  17.688  24.155   1.888
26229W        W87650  21.213  10.311  10.618
26230W        W87651  36.973  32.462   0.445
26231W        W87652  35.589  35.447   2.743
26232W        W87653  27.144  35.934   0.253
26233W        W87654  17.176  31.570   9.461
26234W        W87655  14.758  32.572  14.375
26235W        W87656  18.585  20.236   2.839
26236W        W87657  36.981  15.280  14.774
26237W        W87658   8.352  32.572   1.233
26238W        W87659   3.759  26.592   4.205
26239W        W87660  19.164  21.538  13.862
26240W        W87661  25.525  35.571   2.815
26241W        W87662   5.723   7.352   1.327
26242W        W87663  29.924  24.047   1.926
26243W        W87664  39.811  29.670  14.971
26244W        W87665  28.938  13.753   5.232
26245W        W87666   2.839   8.341   3.693
26246W        W87667   9.247  42.780   0.932
26247W        W87668  33.380  22.636   1.275
26248W        W87669  12.620  10.813  10.592
26249W        W87670   3.287  22.216  14.978
26250W        W87671   6.736  36.445   2.294
26251W        W87672  30.415  37.507  14.366
26252W        W87673  42.428   4.437   0.343
26253W        W87674   0.798  38.025   4.727
26254W        W87675  17.634  14.716  11.594
26255W        W87676  10.844   6.687   1.825
26256W        W87677  16.593  23.035   1.269
26257W        W87678  13.213  11.158   4.757
26258W        W87679   9.168  15.783  14.305
26259W        W87680  16.776   7.252  12.020
26260W        W87681  29.628  42.442   4.814
26261W        W87682  20.169  44.797   2.704
26262W        W87683   9.159  24.106  10.978
26263W        W87684  14.226  14.621   2.677
26264W        W87685  21.144  17.724   0.888
26265W        W87686  25.140  39.053  11.041
26266W        W87687  39.323  15.678  11.979
26267W        W87688  38.358  16.101  10.465
26268W        W87689  18.212  41.932  13.539
26269W        W87690  20.041  12.803   2.680
26270W        W87691  26.956  18.270  13.031
26271W        W87692   2.410  32.914   2.848
26272W        W87693  29.120  43.981   2.190
26273W        W87694  43.795  23.626  13.455
26274W        W87695  39.909   4.841   3.148
26275W        W87696   1.737  25.064  14.768
26276W        W87697   2.252  23.724   4.756
26277W        W87698  34.462  41.360  12.049
26278W        W87699  34.078  41.507   1.802
26279W        W87700  24.139  15.130  14.816
26280W        W87701  34.047   5.291   9.599
26281W        W87702  38.928  24.697   1.374
26282W        W87703  29.117  32.009   1.324
26283W        W87704  29.445  32.132   0.813
26284W        W87705  39.945  43.486   0.324
26285W        W87706  37.937   9.794  13.010
26286W        W87707   3.763  17.688  10.980
26287W        W87708  14.295  37.869  13.996
26288W        W87709  20.150  37.382  13.357
26289W        W87710  14.214  26.034   1.870
26290W        W87711  44.338  32.512  14.425
26291W        W87712  37.854  39.357  11.505
26292W        W87713  33.945  41.317   1.413
26293W        W87714   1.837  30.025   3.793
26294W        W87715  18.602  19.224  14.847
26295W        W87716  20.697  25.554   1.290
26296W        W87717  41.858  42.908   0.765
26297W        W87718  29.935   1.463   0.918
26298W        W87719  35.446  37.439  10.539
26299W        W87720  15.764  10.381   3.642
26300W        W87721  32.004   2.458   4.180
26301W        W87722  42.505   3.937   0.347
26302W        W87723  42.008  35.496  14.473
26303W        W87724  31.425  39.444  11.504
26304W        W87725  20.057  44.355  10.944
26305W        W87726  25.971   6.808   4.683
26306W        W87727  41.521  33.104  13.055
26307W        W87728  44.984  21.065   1.364
26308W        W87729  22.121  14.235   0.274
26309W        W87730   0.404   7.740   4.213
26310W        W87731  40.959  27.048  12.549
26311W        W87732  38.362  12.228   0.299
26312W        W87733  16.685  20.689  13.447
26313W        W87734   9.670  11.189  11.393
26314W        W87735  31.609  44.948   1.739
26315W        W87736  42.988   5.409  11.008
26316W        W87737  36.501  31.152  11.420
26317W        W87738  24.714  22.557  14.008
26318W        W87739   4.239  38.370  12.921
26319W        W87740   2.760  42.989  10.919
26320W        W87741  29.143  17.137  12.970
26321W        W87742  16.769  17.219   3.182
26322W        W87743  42.286  39.856  14.967
26323W        W87744  28.168   5.412   0.786
26324W        W87745   6.252  14.625   1.346
26325W        W87746  14.638   5.710  14.796
26326W        W87747  16.078  10.191   1.885
26327W        W87748   1.280  39.477  12.914
26328W        W87749  10.283  43.891  11.405
26329W        W87750  29.508   6.302  11.976
26330W        W87751  35.890   6.326   4.317
26331W        W87752  33.890  32.025  11.891
26332W        W87753  34.963  31.496  14.282
26333W        W87754  42.886  14.680   2.288
26334W        W87755  35.941  15.610  10.016
26335W        W87756   2.830  22.634  14.874
26336W        W87757   3.361  31.042  12.503
26337W        W87758   5.810   0.489   3.668
26338W        W87759  23.102  15.155  14.811
26339W        W87760  40.465  39.836  14.888
26340W        W87761  21.263  20.665   4.718
26341W        W87762   4.228   2.847   9.948
26342W        W87763  40.335  32.438  14.991
26343W        W87764  36.540  41.519   5.150
26344W        W87765  42.490   2.282   0.307
26345W        W87766   2.278  19.546  11.044
26346W        W87767  34.928  12.634  11.901
26347W        W87768  37.989  18.074  12.883
26348W        W87769  38.358  28.583   4.261
26349W        W87770   6.744  28.602   4.794
26350W        W87771  21.109  11.172   4.118
26351W        W87772  12.684  37.066  14.003
26352W        W87773  13.159  32.592   3.663
26353W        W87774  13.187  14.211  12.415
26354W        W87775   1.474   7.381   2.736
26355W        W87776  11.306  11.225  13.392
26356W        W87777   0.309   8.221   2.339
26357W        W87778  15.812   9.676   3.362
26358W        W87779  39.032   5.334   4.313
26359W        W87780  38.551  28.949   4.817
26360W        W87781  37.367   2.918   3.667
26361W        W87782  13.224  10.320  14.361
26362W        W87783  27.650  43.889  10.615
26363W        W87784  32.412  39.926   1.694
26364W        W87785  10.864  31.410  12.431
26365W        W87786  37.500  30.010  14.830
26366W        W87787  29.433  39.880  13.917
26367W        W87788   0.792  42.408  12.954
26368W        W87789  41.401  26.667  13.520
26369W        W87790   3.729  18.633   1.845
26370W        W87791  41.802  11.777   0.316
26371W        W87792   3.427  41.390  10.443
26372W        W87793  43.419   6.293   9.936
26373W        W87794  38.453   2.762   2.699
26374W        W87795   3.323  19.545   2.347
26375W        W87796  15.317  32.413   1.739
26376W        W87797  17.582  42.395  13.355
26377W        W87798  35.579  27.973  12.077
26378W        W87799  13.137  36.487   4.768
26379W        W87800   2.246  29.566   3.191
26380W        W87801  10.843  36.985  11.916
26381W        W87802  32.989  16.655  11.586
26382W        W87803  41.359  44.274   1.435
26383W        W87804  30.577  38.976  14.289
26384W        W87805  19.080  31.556  14.972
26385W        W87806  31.054   3.823   1.355
26386W        W87807  35.452  35.077   1.894
26387W        W87808   3.828   9.840  12.001
26388W        W87809   8.678  15.144  13.009
26389W        W87810  41.387  39.540  12.469
26390W        W87811  37.913  35.874  13.380
26391W        W87812  39.007  42.292  11.481
26392W        W87813  28.039  35.896  12.048
26393W        W87814  19.744  20.638   4.300
26394W        W87815  20.622  14.812   2.900
26395W        W87816  24.089   6.367  11.896
26396W        W87817  39.338  21.531  13.372
26397W        W87818  18.171  39.987  10.477
26398W        W87819   4.233  23.193  10.576
26399W        W87820  44.923  16.148  13.450
26400W        W87821   2.282  32.491  14.015
26401W        W87822  37.497  32.606  13.426
26402W        W87823   9.332   0.301  13.800
26403W        W87824  11.634  29.669  12.991
26404W        W87825   1.862   8.685   0.902
26405W        W87826  15.112  14.799   1.877
26406W        W87827  42.957  27.060  10.532
26407W        W87828  20.587   8.704   2.229
26408W        W87829   1.850  24.618   1.793
26409W        W87830  44.447  24.678  11.479
26410W        W87831  16.666   2.245  10.968
26411W        W87832  21.712   4.267   3.664
26412W        W87833  40.929  10.206   0.888
26413W        W87834   5.726   3.388  14.007
26414W        W87835  13.173  39.352   1.397
26415W        W87836  26.467  38.837   2.371
26416W        W87837  24.570   3.349  11.387
26417W        W87838  18.162  21.025   0.850
26418W        W87839  19.278  38.029  11.017
26419W        W87840  34.870  11.157  11.576
26420W        W87841  22.676  10.323   3.766
26421W        W87842  29.937  10.249   4.342
26422W        W87843   6.362  30.063  13.890
26423W        W87844  13.633  43.931   4.600
26424W        W87845  37.869  38.824   4.205
26425W        W87846  37.483  26.680  14.992
26426W        W87847  10.285  13.235  11.010
26427W        W87848  36.850  38.896  12.423
26428W        W87849  30.136  16.203   4.284
26429W        W87850  26.185  13.258  11.127
26430W        W87851  39.379   1.454  14.403
26431W        W87852  14.298  22.192   0.311
26432W        W87853  43.837  21.541   2.742
26433W        W87854  39.902   9.781   0.760
26434W        W87855  44.817  11.672   2.846
26435W        W87856  33.963  17.103   4.330
26436W        W87857   0.264  19.130   4.270
26437W        W87858  27.056  27.150   0.949
26438W        W87859  21.111  41.507   1.386
26439W        W87860  24.605  11.133  11.600
26440W        W87861  27.953   1.278   3.781
26441W        W87862  10.292  23.686  13.950
26442W        W87863  10.222  28.959   1.401
26443W        W87864  25.009  20.081   1.427
26444W        W87865  17.797  34.889   1.229
26445W        W87866  37.571  30.970   1.800
26446W        W87867  27.134   6.418   4.336
26447W        W87868  17.606  19.161  10.934
26448W        W87869  26.513  33.889   3.666
26449W        W87870  38.485  14.723   9.973
26450W        W87871  29.600  38.331  11.116
26451W        W87872  39.862  32.058  10.571
26452W        W87873  33.943   6.866   4.256
26453W        W87874  31.536  41.856   1.341
26454W        W87875  15.598  27.579   3.314
26455W        W87876   8.337   7.202   4.777
26456W        W87877  22.155  21.198  12.037
26457W        W87878  44.819  14.186  11.125
26458W        W87879  25.647  20.221  11.037
26459W        W87880  40.972   9.724  10.924
26460W        W87881  16.806  16.749   3.710
26461W        W87882   3.386  33.388  10.503
26462W        W87883  37.438  15.670  14.828
26463W        W87884  19.612  31.620  14.404
26464W        W87885  26.501   5.713  12.851
26465W        W87886  41.435  36.559  13.812
26466W        W87887  27.484  16.679   1.289
26467W        W87888  42.827   4.908   4.288
26468W        W87889   5.303  44.912  13.372
26469W        W87890  38.376  13.145  11.473
26470W        W87891  42.920  42.818   1.776
26471W        W87892  23.643  12.158  13.468
26472W        W87893  24.991  17.789  13.001
26473W        W87894  36.564  21.731   0.819
26474W        W87895  31.616  14.668  13.034
26475W        W87896  29.594  15.609  13.472
26476W        W87897  32.395  15.206  13.419
26477W        W87898  41.380  12.769   0.836
26478W        W87899   8.401  34.964   1.211
26479W        W87900  27.651  26.982   0.263
26480W        W87901   3.314  32.600   5.218
26481W        W87902   0.281  41.833   3.302
26482W        W87903  25.597  27.506  14.313
26483W        W87904  29.174   5.291   1.784
26484W        W87905  32.966  17.190   0.817
26485W        W87906  12.850  26.205  10.539
26486W        W87907  30.512  20.554  13.441
26487W        W87908  30.158  27.615  13.412
26488W        W87909  10.168  33.475  10.406
26489W        W87910  36.348   5.792   4.117
26490W        W87911  23.065   4.338  14.430
26491W        W87912  40.422  18.206   4.795
26492W        W87913  18.062  43.987   2.792
26493W        W87914  19.540   0.282  13.032
26494W        W87915  10.737  21.081   9.992
26495W        W87916  14.709   7.294   2.324
26496W        W87917  14.139   8.860   0.919
26497W        W87918  22.725  19.064  13.877
26498W        W87919   0.843  35.942  12.462
26499W        W87920   9.272  15.632  13.309
26500W        W87921  44.905   9.192  14.485
26501W        W87922  44.453  27.671  11.537
26502W        W87923  18.187  42.993   2.723
26503W        W87924  26.514  44.828  14.299
26504W        W87925   4.851   6.183   0.802
26505W        W87926  32.397  31.072   2.688
26506W        W87927  20.124  35.561   2.841
26507W        W87928  15.695  17.170  11.600
26508W        W87929  28.984   3.260  12.080
26509W        W87930  35.557  32.587   2.248
26510W        W87931  18.218  24.579   3.757
26511W        W87932  37.530   3.407  14.379
26512W        W87933  28.532  21.236  12.883
26513W        W87934  38.473  16.746  12.476
26514W        W87935  39.468  19.659  14.960
26515W        W87936  41.531  35.053  12.865
26516W        W87937  19.081  11.293  14.972
26517W        W87938   2.273  41.349  13.999
26518W        W87939  36.867  13.326  11.534
26519W        W87940  24.723  31.029  13.893
26520W        W87941  40.319   2.293  13.060
26521W        W87942  26.072  15.195  13.449
26522W        W87943  26.689  35.381   0.341
26523W        W87944  15.098   4.940  11.883
26524W        W87945  16.588  41.789  12.388
26525W        W87946  44.758  36.403   3.796
26526W        W87947  16.757   4.731  11.871
26527W        W87948  33.430  10.856  11.917
26528W        W87949  24.674  38.968   3.182
26529W        W87950   2.947  43.855  12.867
26530W        W87951   2.326  12.259  13.805
26531W        W87952  34.995  20.054  11.523
26532W        W87953   3.766   0.282  10.581
26533W        W87954  32.466  39.033  13.447
26534W        W87955  40.376  42.494  11.548
26535W        W87956  25.644  40.933   0.897
26536W        W87957  28.042  43.788  13.346
26537W        W87958   1.369  17.137   0.925
26538W        W87959   7.695  23.607   3.712
26539W        W87960  16.276  33.055   1.784
26540W        W87961  30.656  25.501  14.962
26541W        W87962  15.320  40.048   2.281
26542W        W87963  29.975  15.583  14.960
26543W        W87964   3.773  22.614   3.155
26544W        W87965  18.770  41.416   1.756
26545W        W87966  12.147  35.579  14.508
26546W        W87967   7.216  17.694   1.884
26547W        W87968  29.935   7.891  14.852
26548W        W87969  28.477  22.656   4.130
26549W        W87970   9.356  28.153   1.933
26550W        W87971  17.212  18.145  13.851
26551W        W87972  40.042  15.683   3.332
26552W        W87973   6.222  34.074   2.215
26553W        W87974  43.943  22.183  12.913
26554W        W87975  14.623  17.291   0.944
26555W        W87976  37.999  38.567  13.999
26556W        W87977  35.910  17.243  10.940
26557W        W87978   8.767  23.147  12.090
26558W        W87979  35.602   5.868   3.315
26559W        W87980  27.196   6.900   0.828
26560W        W87981  34.888  14.275  14.793
26561W        W87982  19.125  37.405  14.303
26562W        W87983  11.629  43.283  11.596
26563W        W87984  30.527   0.410  13.408
26564W        W87985   8.354  44.325   2.179
26565W        W87986   0.743  19.640   0.729
26566W        W87987  23.136  28.085  14.932
26567W        W87988  19.215  23.031  13.380
26568W        W87989  25.550   4.760   5.805
26569W        W87990  23.111   4.801  11.466
26570W        W87991   2.901   0.447  13.982
26571W        W87992  44.803  21.695  11.385
26572W        W87993  43.303  10.338   4.724
26573W        W87994   9.352   2.771  12.996
26574W        W87995   0.824  24.551   4.750
26575W        W87996  10.169  24.642   4.328
26576W        W87997  31.489   3.930   0.784
26577W        W87998  23.698  40.975   1.753
26578W        W87999  23.576  36.495   0.733
26579W        W88000  38.440  38.901  10.964
26580W        W88001  31.648  36.065  12.049
26581W        W88002  12.621  30.555  14.439
26582W        W88003   8.189  15.757   2.284
26583W        W88004  14.297  34.396   3.852
26584W        W88005  18.222  29.079  12.046
26585W        W88006  42.786  41.530  12.847
26586W        W88007  27.593  13.146  11.489
26587W        W88008   5.269  30.496   4.742
26588W        W88009  16.619  14.334  11.867
26589W        W88010  12.663   3.455  13.841
26590W        W88011  11.359  25.605  14.376
26591W        W88012   7.771  17.783   0.295
26592W        W88013  36.981   0.389  13.856
26593W        W88014  30.486   0.406  14.975
26594W        W88015  33.493  13.780   9.611
26595W        W88016  20.649  24.081  14.286
26596W        W88017  10.244  16.582  10.986
26597W        W88018  25.043  41.893  11.868
26598W        W88019  26.205  20.045  12.924
26599W        W88020   3.847  31.035   0.889
26600W        W88021  29.028  33.935  11.514
26601W        W88022  18.682  32.016  13.851
26602W        W88023  10.199  27.018   1.695
26603W        W88024  20.608  28.572  13.835
26604W        W88025  16.611  26.695  10.933
26605W        W88026  17.581   7.669   4.676
26606W        W88027   9.759  14.701   1.841
26607W        W88028   6.910  38.937   2.790
26608W        W88029  23.591   5.257  14.349
26609W        W88030  44.876   2.841   1.733
26610W        W88031   9.301  28.456   2.231
26611W        W88032   2.243  34.003   0.257
26612W        W88033  10.306  25.547  13.892
26613W        W88034  38.822   1.391  11.027
26614W        W88035  44.424   2.772  14.470
26615W        W88036  37.893  31.441   2.359
26616W        W88037  12.345  24.508  10.926
26617W        W88038   7.371   9.160   1.831
26618W        W88039  29.128  19.722  10.590
26619W        W88040  39.556  21.552   0.965
26620W        W88041   8.312  27.627  11.523
26621W        W88042  40.453   7.777   3.175
26622W        W88043  16.314   5.413  13.470
26623W        W88044  29.040  14.651  10.456
26624W        W88045  30.974  21.018   5.262
26625W        W88046  15.220  19.127  13.462
26626W        W88047  17.179  20.122  14.924
26627W        W88048  41.387  13.323   3.663
26628W        W88049   4.761  15.173   0.873
26629W        W88050  13.693   8.716   3.638
26630W        W88051  29.996  40.025  11.861
26631W        W88052   1.357  17.215   1.761
26632W        W88053  16.712   9.832  12.837
26633W        W88054  14.805  38.912   4.326
26634W        W88055   6.864  17.638  13.400
26635W        W88056  27.977   8.387   4.351
26636W        W88057   8.674  17.161  11.931
26637W        W88058  42.800  10.808  11.861
26638W        W88059  38.046  37.379  11.869
26639W        W88060   9.172   7.210   4.821
26640W        W88061  41.314  12.160   3.716
26641W        W88062  40.847  16.766   4.716
26642W        W88063  34.028  41.492  13.801
26643W        W88064  29.937  29.576   1.746
26644W        W88065   1.889  33.620   4.206
26645W        W88066  23.030   6.687  13.793
26646W        W88067  42.837  40.495  14.422
26647W        W88068  19.282  30.465  11.441
26648W        W88069  43.374   5.410  12.569
26649W        W88070  33.444  14.258   2.405
26650W        W88071  36.443  44.874  11.920
26651W        W88072   2.887  12.785   1.256
26652W        W88073  11.129  21.081   3.315
26653W        W88074  10.251   6.338   0.788
26654W        W88075  33.383   4.307   1.377
26655W        W88076   8.719  26.602   3.182
26656W        W88077  42.350   1.850   3.231
26657W        W88078   3.792   1.309   1.829
26658W        W88079  25.469   6.195  14.491
26659W        W88080  22.643  14.115   1.264
26660W        W88081  22.146  31.514  14.433
26661W        W88082  38.945  20.135   0.475
26662W        W88083  13.311   8.360   2.814
26663W        W88084  37.052   9.836  12.020
26664W        W88085  31.125  36.056   0.427
26665W        W88086  27.617   0.782  10.578
26666W        W88087  21.170  21.137   2.793
26667W        W88088   1.911  21.210   3.715
26668W        W88089  43.002  36.401  11.013
26669W        W88090   5.418  33.109   3.154
26670W        W88091  44.446  35.578  12.833
26671W        W88092  37.841  12.362  14.920
26672W        W88093   0.376  42.452   3.306
26673W        W88094   0.861  17.269   0.450
26674W        W88095  36.407  30.006   3.268
26675W        W88096  18.175  32.585  11.121
26676W        W88097  18.575  25.146   4.763
26677W        W88098  32.977  18.148   1.779
26678W        W88099  21.605  36.530   3.258
26679W        W88100   8.183   9.324  13.967
26680W        W88101   0.492  23.595   3.788
26681W        W88102  28.122  21.070   5.202
26682W        W88103   9.793  33.452  12.535
26683W        W88104  10.668  23.638   3.683
26684W        W88105  18.723   1.921  10.565
26685W        W88106  27.532  44.938  13.500
26686W        W88107  28.964  23.147   1.695
26687W        W88108  36.487  28.114   1.295
26688W        W88109  40.521   1.858  14.776
26689W        W88110  19.634  21.702  10.449
26690W        W88111  27.651  38.986   1.281
26691W        W88112  33.904  22.711  12.364
26692W        W88113   1.254   3.746  14.303
26693W        W88114  35.442  36.444   0.323
26694W        W88115   1.275  43.961  12.349
26695W        W88116  34.606  15.119  11.604
26696W        W88117  11.750  18.057   3.196
26697W        W88118  34.413   7.174  11.462
26698W        W88119  12.724  33.010   3.275
26699W        W88120  25.618  38.953   0.438
26700W        W88121   9.684   4.444  11.003
26701W        W88122  35.564  21.257   2.215
26702W        W88123  12.782   3.936  13.443
26703W        W88124  18.767   5.790   4.827
26704W        W88125  35.082  26.661  13.003
26705W        W88126   5.696  15.773  11.445
26706W        W88127  22.244  19.721   1.747
26707W        W88128  27.471  41.343   1.787
26708W        W88129  39.873  25.079   3.251
26709W        W88130  39.007  31.066   1.452
26710W        W88131  12.647  26.613   4.203
26711W        W88132  15.725  23.208  10.567
26712W        W88133  22.568  10.335  12.546
26713W        W88134  28.953  32.455  13.994
26714W        W88135  30.925  41.360   3.740
26715W        W88136  14.188   9.391  10.477
26716W        W88137   8.871  13.260   2.217
26717W        W88138  29.056  26.113   0.925
26718W        W88139  15.743  13.145   1.296
26719W        W88140   3.743  21.123  11.014
26720W        W88141  15.677  21.687  12.969
26721W        W88142  27.614   1.428  11.046
26722W        W88143  27.649   0.309   1.751
26723W        W88144   0.757  29.565  14.419
26724W        W88145   8.737  35.523   1.729
26725W        W88146  18.650  30.639  10.130
26726W        W88147   0.808  40.376  11.858
26727W        W88148   5.392  36.545   3.801
26728W        W88149  41.983  38.873   9.921
26729W        W88150  41.379  31.056   1.927
26730W        W88151  37.342  35.879   3.861
26731W        W88152  38.011  23.175  13.483
26732W        W88153  24.697  11.841  12.562
26733W        W88154   2.920   9.173   3.269
26734W        W88155   6.317  29.037  11.562
26735W        W88156  39.928  18.166   2.765
26736W        W88157  27.018  11.272  13.968
26737W        W88158  15.170  11.160  10.979
26738W        W88159   6.826   7.689   2.795
26739W        W88160  29.984  38.506   4.605
26740W        W88161  27.519  43.852  12.002
26741W        W88162  30.636  19.659   2.845
26742W        W88163   3.386   7.687   0.277
26743W        W88164  34.489   7.854  14.968
26744W        W88165  40.974  40.423   4.698
26745W        W88166  31.474  17.745   4.329
26746W        W88167  22.196  11.345  13.059
26747W        W88168  40.393   3.834   4.791
26748W        W88169  38.019   2.265   2.191
26749W        W88170   7.874  23.033  13.353
26750W        W88171   5.391  25.551   1.321
26751W        W88172  40.018  34.393   3.731
26752W        W88173  28.067  26.641  10.140
26753W        W88174  23.723  17.068   4.652
26754W        W88175  38.383  12.613   4.613
26755W        W88176  15.318   0.763   1.768
26756W        W88177   9.224  16.183  12.825
26757W        W88178  23.517  36.014  11.032
26758W        W88179  32.395  12.340   1.696
26759W        W88180  19.619  14.320   3.374
26760W        W88181  24.982  38.819  14.799
26761W        W88182  30.072   1.886  12.369
26762W        W88183  43.485  43.857   1.754
26763W        W88184  43.914  40.001   2.197
26764W        W88185   8.695  41.344   1.926
26765W        W88186  23.690  44.777  11.588
26766W        W88187  25.568  40.539  14.458
26767W        W88188   5.349   9.314  12.423
26768W        W88189  32.128  20.128   2.188
26769W        W88190  26.149   0.855  13.386
26770W        W88191  25.995  11.857  12.577
26771W        W88192  14.735  38.461  10.630
26772W        W88193  33.503   7.772  11.545
26773W        W88194  10.259  39.480   2.692
26774W        W88195  14.759  25.524  11.923
26775W        W88196   1.901  40.883   3.742
26776W        W88197  42.029   3.382   3.337
26777W        W88198  30.515   7.308   0.435
26778W        W88199   0.314  27.979   4.632
26779W        W88200  44.934  15.741  11.455
26780W        W88201  12.162   8.873   2.794
26781W        W88202  27.992  22.624   2.408
26782W        W88203   7.702   3.408   2.701
26783W        W88204   2.272  34.531   0.382
26784W        W88205  32.571  34.924  12.405
26785W        W88206  22.622   3.854  11.990
26786W        W88207  22.996  25.005   3.184
26787W        W88208  21.180  38.018   5.112
26788W        W88209  24.006  11.732   1.257
26789W        W88210   0.377  17.626  12.436
26790W        W88211  21.254  26.664   1.348
26791W        W88212  10.268  39.333  13.806
26792W        W88213  40.474  31.973  13.406
26793W        W88214  22.021  18.078  14.277
26794W        W88215  15.289  22.576  12.358
26795W        W88216  24.688  24.704  14.986
26796W        W88217   2.325  13.327   2.699
26797W        W88218  11.805  26.133   1.776
26798W        W88219   1.426   9.870  13.378
26799W        W88220  28.444  41.019  11.604
26800W        W88221   1.458  27.164   4.177
26801W        W88222  19.217   7.750  10.907
26802W        W88223  28.160  28.128   2.351
26803W        W88224  38.956  17.585   4.200
26804W        W88225   8.855  32.102  10.961
26805W        W88226  37.861  44.492   9.977
26806W        W88227  10.856  44.974   3.702
26807W        W88228  16.187  38.039   3.861
26808W        W88229  22.039  21.023   2.683
26809W        W88230   9.697   5.272  12.830
26810W        W88231  22.065  26.621  10.540
26811W        W88232  20.673  40.008  12.511
26812W        W88233  27.060  11.134   2.373
26813W        W88234   4.354  26.143  14.907
26814W        W88235  35.460   7.869  10.452
26815W        W88236  17.217  18.681  11.917
26816W        W88237  16.126  25.702   4.835
26817W        W88238  40.494  27.174   3.630
26818W        W88239  33.512  28.020  12.872
26819W        W88240  38.360   8.773  12.488
26820W        W88241  12.337  28.521   4.700
26821W        W88242  41.009  20.751   2.849
26822W        W88243   9.837   1.479   1.762
26823W        W88244  16.616  26.098  10.469
26824W        W88245  36.560  31.931  12.951
26825W        W88246  20.248  11.188   5.722
26826W        W88247  14.219  16.265  12.946
26827W        W88248  22.747  41.797  12.966
26828W        W88249  38.483  27.156  12.835
26829W        W88250  40.421  13.272   1.719
26830W        W88251  35.897   5.851   3.343
26831W        W88252  20.748   4.325  14.969
26832W        W88253  26.075  27.645   2.685
26833W        W88254  16.795   3.918  14.503
26834W        W88255  36.916  16.214  10.991
26835W        W88256  16.211  41.817   0.770
26836W        W88257  19.148  21.524  13.326
26837W        W88258   4.288   9.647   1.737
26838W        W88259  36.893  37.977   4.649
26839W        W88260   7.891  21.552   1.858
26840W        W88261  26.127  34.501   4.239
26841W        W88262   3.900  37.033   1.776
26842W        W88263   8.876  17.563   4.255
26843W        W88264  10.827  42.309   1.860
26844W        W88265  20.628  38.335  13.452
26845W        W88266  35.059  27.174  12.903
26846W        W88267  14.672  30.467  11.580
26847W        W88268  24.091  32.602   1.242
26848W        W88269  33.389  44.293   3.654
26849W        W88270  11.350  14.656   0.844
26850W        W88271   3.832   2.346   4.139
26851W        W88272  31.003   1.391   3.328
26852W        W88273   5.860  24.610   0.845
26853W        W88274  36.389   6.710  14.352
26854W        W88275  26.467  18.593  11.052
26855W        W88276   1.868  19.614  10.469
26856W        W88277  26.136  11.761  12.832
26857W        W88278  17.244  14.272   9.606
26858W        W88279  11.247  18.775   4.744
26859W        W88280   0.270  17.067   4.833
26860W        W88281  30.487  30.053  11.407
26861W        W88282  35.890  14.117   4.811
26862W        W88283   8.193   7.178  13.801
26863W        W88284  42.476  39.921   0.919
26864W        W88285  34.559  27.658   1.329
26865W        W88286  10.820  15.107   3.231
26866W        W88287  38.533  32.937  11.551
26867W        W88288  37.523   8.316  11.872
26868W        W88289  26.497  37.991  12.892
26869W        W88290  28.594  31.919   4.157
26870W        W88291  32.459   3.376  13.805
26871W        W88292   5.324  20.256   2.413
26872W        W88293  41.303  29.637  14.856
26873W        W88294  33.882  40.024   3.198
26874W        W88295  35.586   1.803  13.948
26875W        W88296  42.322   2.738  10.642
26876W        W88297   2.922  36.992  12.859
26877W        W88298  34.593  14.610  13.006
26878W        W88299  42.447  35.388  11.878
26879W        W88300  42.820   2.469   5.197
26880W        W88301  12.729  34.968  10.999
26881W        W88302  11.659   3.317  14.913
26882W        W88303  14.284  38.003   4.837
26883W        W88304  25.159   8.195   2.863
26884W        W88305   0.934  44.439   2.403
26885W        W88306  29.983   9.151  14.006
26886W        W88307   3.799  23.675   5.772
26887W        W88308  38.556  41.971   0.935
26888W        W88309   1.437   2.761   2.398
26889W        W88310  12.741  35.469  10.467
26890W        W88311   9.356  42.366  11.467
26891W        W88312  13.108  17.282   0.479
26892W        W88313   3.459   8.224  10.911
26893W        W88314  15.244  36.567  12.002
26894W        W88315  15.704  13.718   2.297
26895W        W88316  23.160   4.869  12.428
26896W        W88317  35.032  43.887  13.441
26897W        W88318  41.457  12.691  13.513
26898W        W88319  14.816   8.734   2.387
26899W        W88320  39.390  24.708  11.576
26900W        W88321  23.661  43.469  11.025
26901W        W88322  38.986  42.480  10.516
26902W        W88323  23.687  21.727  14.968
26903W        W88324  19.586   3.243   3.772
26904W        W88325  25.585  28.028   3.322
26905W        W88326  34.510  18.161  10.992
26906W        W88327  31.483  30.950   1.704
26907W        W88328  21.174  16.774  13.325
26908W        W88329  34.375  23.146  11.857
26909W        W88330   3.783   7.186   2.297
26910W        W88331   7.800  12.126   1.930
26911W        W88332  44.953   7.370   1.726
26912W        W88333  39.838  26.173   0.278
26913W        W88334  42.932  43.956  12.373
26914W        W88335   9.689  21.668   0.838
26915W        W88336  35.556  24.646  14.925
26916W        W88337  21.092  18.578   3.843
26917W        W88338  12.760   8.327  10.587
26918W        W88339  26.044  20.202  10.887
26919W        W88340  19.673   7.851   4.331
26920W        W88341  23.092  36.410   2.695
26921W        W88342   6.750  41.870  12.456
26922W        W88343  29.542   7.864  13.936
26923W        W88344  44.408  12.818  14.971
26924W        W88345  28.660   5.273   1.802
26925W        W88346  29.129  10.256   4.614
26926W        W88347  43.468  36.524  14.766
26927W        W88348  14.326  38.370  12.028
26928W        W88349  25.035  11.634   0.774
26929W        W88350  38.012   3.806  10.614
26930W        W88351  39.880   5.271  11.570
26931W        W88352  44.327  43.925   3.847
26932W        W88353   0.960  43.480  13.545
26933W        W88354  32.598  22.655  10.926
26934W        W88355   8.183  24.992   0.937
26935W        W88356   4.429  18.081   1.777
26936W        W88357  38.986  14.334  13.034
26937W        W88358   1.793  44.930  11.112
26938W        W88359  43.015   0.944  14.005
26939W        W88360   7.867  43.781  12.083
26940W        W88361  23.029  31.044  12.010
26941W        W88362   0.482   5.748   1.753
26942W        W88363   7.267  25.651   4.716
26943W        W88364  11.728  14.263  14.768
26944W        W88365   3.771  44.308   3.825
26945W        W88366   8.241  26.998   4.151
26946W        W88367  15.231   8.240  12.826
26947W        W88368  32.538  39.898  10.576
26948W        W88369   0.886  34.480  12.992
26949W        W88370  43.395   3.443   4.179
26950W        W88371  10.141  11.728   2.852
26951W        W88372  37.947  31.565  12.557
26952W        W88373   4.204  18.661  10.471
26953W        W88374  34.377  23.542   1.886
26954W        W88375  19.629  14.663  12.056
26955W        W88376  27.012  27.008  10.577
26956W        W88377  33.037  33.109   3.774
26957W        W88378  19.137  28.623  13.340
26958W        W88379  30.161  16.109   3.318
26959W        W88380   9.873   8.769   4.129
26960W        W88381   7.416   3.891   0.274
26961W        W88382  27.052   7.785  12.930
26962W        W88383  22.093  16.776  13.055
26963W        W88384  16.593  34.555  13.828
26964W        W88385  23.553  36.916   0.463
26965W        W88386   5.753  25.083  11.968
26966W        W88387   2.249  22.742   9.963
26967W        W88388   1.860  22.031  14.930
26968W        W88389   8.862  26.610   0.347
26969W        W88390  34.078  36.397   0.293
26970W        W88391  15.735  35.503  11.560
26971W        W88392   9.870  21.106  14.398
26972W        W88393  29.549  10.298   0.920
26973W        W88394  13.790   7.194   3.179
26974W        W88395   2.298   0.933  13.508
26975W        W88396  32.563  11.857  11.027
26976W        W88397   6.383  28.026  13.896
26977W        W88398   3.741  44.760   4.652
26978W        W88399  31.957  26.992  12.506
26979W        W88400   4.323  13.301   2.280
26980W        W88401  28.629  30.539  12.054
26981W        W88402  40.848   1.811  13.314
26982W        W88403  11.775  18.577   5.187
26983W        W88404  32.922  12.738   2.341
26984W        W88405  16.291  29.566   3.167
26985W        W88406  34.064   5.737  14.811
26986W        W88407  26.538   6.802   4.245
26987W        W88408  39.940   9.344   3.703
26988W        W88409  13.327  10.867   0.935
26989W        W88410   8.365  38.062   9.516
26990W        W88411  20.130  11.624   0.754
26991W        W88412  42.911  16.642   1.415
26992W        W88413  10.226  31.054  14.430
26993W        W88414  31.622  13.235   3.652
26994W        W88415  12.290  35.969  14.279
26995W        W88416  37.870  44.909   2.350
26996W        W88417  13.306  19.152   1.368
26997W        W88418  44.921  16.694   3.151
26998W        W88419  26.087  11.199   3.744
26999W        W88420   8.728  13.684   2.293
27000W        W88421  27.605  23.994   3.646
27001W        W88422  38.543   2.335   3.656
27002W        W88423  40.831  37.519   0.864
27003W        W88424   0.877  44.416  11.915
27004W        W88425  22.566  25.115   4.301
27005W        W88426  27.525  31.975   5.088
27006W        W88427  12.353  24.528   3.646
27007W        W88428  16.310  44.408   2.337
27008W        W88429  32.024   5.908  14.475
27009W        W88430   5.250  27.137   4.148
27010W        W88431  25.214  20.238   3.362
27011W        W88432  12.225   0.853   4.744
27012W        W88433  29.605  10.822   0.353
27013W        W88434  20.614  30.455   0.802
27014W        W88435  41.497  22.165   4.639
27015W        W88436  41.429  10.343   2.805
27016W        W88437   5.419  22.205  11.123
27017W        W88438   1.889  35.530   0.250
27018W        W88439   7.745   3.721   1.831
27019W        W88440   5.729  26.566   4.342
27020W        W88441  36.507   5.218   2.244
27021W        W88442   5.325  33.948  13.368
27022W        W88443  27.668   5.720   3.184
27023W        W88444  19.155  33.588  13.063
27024W        W88445   7.320   6.757   0.406
27025W        W88446  38.500  16.223   3.298
27026W        W88447  25.524   3.881  10.035
27027W        W88448  20.203  18.238  11.522
27028W        W88449   5.792  16.612  14.013
27029W        W88450  26.585  42.392   0.481
27030W        W88451  35.408  34.934  14.401
27031W        W88452  27.623  12.722   4.780
27032W        W88453  34.448  30.145  10.631
27033W        W88454  28.436  19.248  13.910
27034W        W88455  36.870   6.277  11.878
27035W        W88456  22.653  22.504  13.530
27036W        W88457  21.204   6.900  12.520
27037W        W88458  28.650  34.459   2.850
27038W        W88459   6.769  27.568  11.874
27039W        W88460  40.431   9.202   0.864
27040W        W88461  10.236   4.325   4.284
27041W        W88462   8.327  17.199   2.270
27042W        W88463  14.251  40.918   3.676
27043W        W88464   7.689  14.639   3.339
27044W        W88465  43.481   6.267  12.354
27045W        W88466  15.255  41.442   0.795
27046W        W88467   0.937  38.066   0.794
27047W        W88468  17.641  33.025  12.570
27048W        W88469  26.532  30.131   4.332
27049W        W88470  40.464  44.832   2.404
27050W        W88471  23.658   7.720   4.191
27051W        W88472   6.237   0.329   4.828
27052W        W88473  32.054  29.926  10.484
27053W        W88474  14.173  14.693  12.570
27054W        W88475  26.639  42.016  10.620
27055W        W88476  23.519   5.308   1.329
27056W        W88477  23.664   9.283  13.838
27057W        W88478  36.478   5.712  12.908
27058W        W88479  39.968  41.817  11.543
27059W        W88480  25.664  36.006   0.424
27060W        W88481  19.745  22.039   1.812
27061W        W88482  22.736  15.589   5.205
27062W        W88483  27.107  24.542  12.554
27063W        W88484  15.293  26.178  13.898
27064W        W88485   2.286  23.733   3.256
27065W        W88486   2.455  39.931  13.420
27066W        W88487  33.946  22.685   0.729
27067W        W88488  32.887  43.849  13.879
27068W        W88489  34.953   6.349   5.112
27069W        W88490  41.797  17.103   2.345
27070W        W88491  16.223  32.482   1.224
27071W        W88492  41.293  32.506  10.643
27072W        W88493  42.364   6.240  14.499
27073W        W88494  22.699  28.524   0.262
27074W        W88495   1.828  41.841  14.469
27075W        W88496  38.076  40.948  10.549
27076W        W88497   7.884  28.994   1.215
27077W        W88498  22.092  29.560  14.298
27078W        W88499  37.540  41.916  12.875
27079W        W88500  29.584  14.258  11.584
27080W        W88501  14.627   0.802  13.426
27081W        W88502  37.491  38.330   3.789
27082W        W88503  12.235  18.626   3.745
27083W        W88504   4.378  14.663   0.309
27084W        W88505  26.476   0.825  14.841
27085W        W88506  18.121  35.940  14.959
27086W        W88507   0.788  27.055  12.980
27087W        W88508  32.120  25.467  13.808
27088W        W88509  26.159  13.703   1.424
27089W        W88510   5.855  19.100   0.855
27090W        W88511   6.865  10.837   2.412
27091W        W88512   3.757  10.243  10.411
27092W        W88513  18.627   3.771   1.255
27093W        W88514  23.557  29.524   0.836
27094W        W88515  43.426  24.631   0.794
27095W        W88516  29.069  21.220  10.041
27096W        W88517  14.638  12.258  12.877
27097W        W88518  23.114  14.791   2.776
27098W        W88519  28.088  16.253  12.913
27099W        W88520  10.703  18.082  14.980
27100W        W88521   1.470  27.956  13.933
27101W        W88522  11.781  21.120   1.367
27102W        W88523  40.861  42.453   1.843
27103W        W88524  32.458  17.785  12.401
27104W        W88525   4.728  31.936  12.391
27105W        W88526  19.707   3.289   4.147
27106W        W88527  26.061  26.477  14.297
27107W        W88528  19.727  42.332  11.103
27108W        W88529  11.833  12.710  13.529
27109W        W88530  40.923  24.558  12.040
27110W        W88531  23.629  17.700   1.919
27111W        W88532  23.099  17.288   0.825
27112W        W88533  41.997  39.951   2.186
27113W        W88534  35.032   5.248  13.493
27114W        W88535  39.329  40.992   0.955
27115W        W88536  15.697   9.348   1.801
27116W        W88537   0.789  44.479   4.639
27117W        W88538  25.690  33.094   3.664
27118W        W88539   6.805  24.100  14.818
27119W        W88540   2.257  42.419   2.194
27120W        W88541  20.228  37.451   5.112
27121W        W88542   0.283  40.982   2.215
27122W        W88543  28.031  13.772   0.913
27123W        W88544  27.003  20.614   0.444
27124W        W88545  30.089   8.792  13.375
27125W        W88546  35.964  33.612  13.482
27126W        W88547   6.780  32.545   1.411
27127W        W88548  10.871   9.764  13.529
27128W        W88549  10.760  33.540  11.579
27129W        W88550  13.820  10.382  11.512
27130W        W88551  40.522  35.062   0.887
27131W        W88552   0.850  22.110   0.455
27132W        W88553  16.174   1.763  14.802
27133W        W88554  30.584  37.961   0.285
27134W        W88555   5.257  38.331  10.516
27135W        W88556  43.925  27.553  12.443
27136W        W88557  23.493  36.561  14.885
27137W        W88558  29.558   6.906  12.386
27138W        W88559  12.795  10.789   0.846
27139W        W88560  40.515  24.685  13.890
27140W        W88561   4.719  25.523   4.133
27141W        W88562  43.959  34.009  10.634
27142W        W88563   5.928  21.578   2.891
27143W        W88564  22.525  33.060  12.059
27144W        W88565  33.508  41.944  14.818
27145W        W88566  17.088   5.402  10.411
27146W        W88567  28.991   2.746   4.228
27147W        W88568  28.038  41.481  12.339
27148W        W88569  42.511  34.437   3.751
27149W        W88570  29.522  14.260   1.838
27150W        W88571  21.049  44.388  10.893
27151W        W88572  13.613   4.783   0.315
27152W        W88573   0.383  36.461  11.505
27153W        W88574   7.836   8.669   9.964
27154W        W88575  33.512  44.896   4.601
27155W        W88576  10.685  44.379   2.836
27156W        W88577  36.513  39.036   0.346
27157W        W88578   2.757  34.003   2.414
27158W        W88579   9.175  30.631   4.179
27159W        W88580   7.733   5.919  13.335
27160W        W88581  25.086  12.281   0.732
27161W        W88582  19.077  26.984   3.198
27162W        W88583   0.931  36.559  13.538
27163W        W88584  40.968  40.984   0.360
27164W        W88585   1.787   5.408  12.511
27165W        W88586  16.722  26.467  10.549
27166W        W88587  34.410  14.680   4.699
27167W        W88588  12.721   8.362   3.268
27168W        W88589  33.046   9.238  10.430
27169W        W88590  34.032  24.996  10.451
27170W        W88591  43.918  43.308   3.248
27171W        W88592  31.482  25.671  12.029
27172W        W88593  24.135  30.070   4.345
27173W        W88594  20.121  10.733  12.431
27174W        W88595  34.986  27.158   3.829
27175W        W88596  43.839  10.204   3.755
27176W        W88597   7.780  42.834  10.505
27177W        W88598  28.461   9.731   1.445
27178W        W88599  40.373  19.624   5.212
27179W        W88600  21.703  38.983  11.053
27180W        W88601   1.930  28.088  12.357
27181W        W88602  25.592   0.471   4.291
27182W        W88603  17.168   2.774  11.472
27183W        W88604   6.408  16.202   2.352
27184W        W88605  30.523  18.587   2.827
27185W        W88606  33.078  13.639  14.356
27186W        W88607  32.111  24.095  11.544
27187W        W88608   6.408   8.660   5.253
27188W        W88609  38.537  36.391   1.256
27189W        W88610  26.103   3.350   1.863
27190W        W88611  24.979  10.318   3.160
27191W        W88612  30.468  44.879   1.319
27192W        W88613  23.664  39.939  14.912
27193W        W88614  37.033   3.358   5.747
27194W        W88615  36.591  19.281   0.437
27195W        W88616   9.731  14.285   4.149
27196W        W88617  24.172  35.920  11.004
27197W        W88618  40.951   6.293  12.429
27198W        W88619  42.929  40.345  11.990
27199W        W88620  31.001  14.243  12.048
27200W        W88621  21.209  35.944  12.577
27201W        W88622   2.905  42.919  11.473
27202W        W88623  15.095   1.774  12.022
27203W        W88624   9.150  40.012  11.917
27204W        W88625  43.804  30.137  14.831
27205W        W88626  44.967  25.217   1.393
27206W        W88627  10.330  43.962  14.971
27207W        W88628  21.056  15.275  12.563
27208W        W88629  43.983  32.938   1.746
27209W        W88630  17.718  16.694   1.886
27210W        W88631  15.681  39.454  13.507
27211W        W88632  36.994  33.453  13.896
27212W        W88633  39.064  18.640   3.665
27213W        W88634   8.782  36.074  12.862
27214W        W88635  13.323  29.615  14.867
27215W        W88636  18.733  26.121  13.513
27216W        W88637  40.818   0.969   2.710
27217W        W88638  11.692  29.600  11.870
27218W        W88639  28.044  16.569  14.498
27219W        W88640  16.755  44.847  13.927
27220W        W88641  43.976   8.675  14.474
27221W        W88642   0.396  19.222   3.188
27222W        W88643   1.454   1.339   0.959
27223W        W88644   4.709   4.795  10.510
27224W        W88645  41.299  25.518   3.334
27225W        W88646  37.953  23.612  14.490
27226W        W88647  39.441  23.231   0.845
27227W        W88648  29.031  43.446  12.496
27228W        W88649   0.834  22.013  13.358
27229W        W88650  19.669   9.783  11.115
27230W        W88651  25.108  13.821   3.201
27231W        W88652   2.341  23.054  10.122
27232W        W88653  37.411   6.709  13.374
27233W        W88654  30.136  44.841   1.846
27234W        W88655  14.774  24.171   1.779
27235W        W88656   7.795  31.927   3.190
27236W        W88657   8.824  41.382  13.818
27237W        W88658  22.013  36.516  13.895
27238W        W88659  20.686  37.861   1.310
27239W        W88660  11.702   0.809  14.469
27240W        W88661   0.803   8.278  10.574
27241W        W88662  41.379   8.238   0.879
27242W        W88663  14.282  20.160  11.042
27243W        W88664  44.772  25.706  14.356
27244W        W88665   1.476   5.910   0.363
27245W        W88666  28.601  11.766   4.297
27246W        W88667   0.950  42.996  10.424
27247W        W88668  20.260  23.089   4.268
27248W        W88669  25.656   6.204   3.362
27249W        W88670  35.445  31.909   1.434
27250W        W88671   5.255  28.608  10.514
27251W        W88672  12.853  13.227  11.381
27252W        W88673  40.541  31.951  10.507
27253W        W88674  41.850  13.728  13.908
27254W        W88675  10.662   8.829   1.707
27255W        W88676   7.342  18.655   4.603
27256W        W88677  26.461  41.024   2.361
27257W        W88678  32.454  18.632  10.977
27258W        W88679  38.373  13.632  11.947
27259W        W88680  16.139  13.700   9.671
27260W        W88681   7.715  14.155  13.508
27261W        W88682   5.392  17.242  11.568
27262W        W88683  34.434   1.288  14.805
27263W        W88684   7.202   3.279   1.787
27264W        W88685  29.426  40.410  13.911
27265W        W88686  31.470   1.378   1.266
27266W        W88687   0.303  12.750   2.269
27267W        W88688  17.290   5.268  14.983
27268W        W88689  18.275  31.046   5.276
27269W        W88690  41.348   6.701  10.967
27270W        W88691  22.607  12.717  13.885
27271W        W88692  41.984   9.256  12.416
27272W        W88693  32.581  18.072  14.797
27273W        W88694  25.199  12.771  14.478
27274W        W88695  31.013  10.818   5.750
27275W        W88696   3.821  11.805  14.875
27276W        W88697  26.189  32.575   3.218
27277W        W88698  36.849   8.205   0.881
27278W        W88699  38.027  39.899   2.407
27279W        W88700  38.906  11.167  14.283
27280W        W88701  31.407  19.611  10.578
27281W        W88702  43.435   7.174  14.962
27282W        W88703   7.907  13.239  11.568
27283W        W88704  26.155  44.971  11.613
27284W        W88705  34.498   1.454   9.525
27285W        W88706  33.044  10.647  10.960
27286W        W88707  29.005  30.422  12.870
27287W        W88708  34.570  12.796   1.445
27288W        W88709  27.965  31.898   3.789
27289W        W88710  22.590  32.072  10.006
27290W        W88711   0.269  32.061  11.921
27291W        W88712  34.110  17.304   1.731
27292W        W88713   1.255   8.215  13.524
27293W        W88714  39.032  32.464   0.829
27294W        W88715  35.500   3.301   0.859
27295W        W88716  32.461  41.791   3.242
27296W        W88717   8.318  39.372   3.700
27297W        W88718  14.680  24.639  14.439
27298W        W88719  26.966  24.089  12.072
27299W        W88720  31.590  23.049   2.326
27300W        W88721  24.650  34.897  13.064
27301W        W88722  10.690  12.750   1.296
27302W        W88723  19.711  18.630   2.277
27303W        W88724  15.780  12.178   3.704
27304W        W88725  26.057   4.849   1.248
27305W        W88726  15.797  42.897   0.448
27306W        W88727  11.305  40.937   2.775
27307W        W88728  27.106  30.010  11.428
27308W        W88729  33.874   4.223  11.585
27309W        W88730  30.569  40.960   1.263
27310W        W88731  29.582   4.945  11.949
27311W        W88732  18.752   8.268  14.959
27312W        W88733   2.289  34.910   3.692
27313W        W88734   7.383  41.029  10.894
27314W        W88735  13.234  25.602   2.237
27315W        W88736  23.042  15.309   0.355
27316W        W88737   7.750   3.447  14.025
27317W        W88738  18.766  20.550  11.559
27318W        W88739  41.397  43.974  11.599
27319W        W88740  39.340  10.147   1.862
27320W        W88741  44.802  33.091  14.336
27321W        W88742   5.789  35.945  11.607
27322W        W88743   4.868  30.617  10.910
27323W        W88744   4.249  43.389  14.777
27324W        W88745   8.245  10.716  13.956
27325W        W88746  42.781  19.584   0.452
27326W        W88747  34.378   5.762   3.298
27327W        W88748  22.086   2.453   2.848
27328W        W88749   9.191  32.032   2.260
27329W        W88750  41.292  18.771   5.095
27330W        W88751   4.930  21.030   0.852
27331W        W88752  17.301  32.629  14.516
27332W        W88753   8.248   9.875  14.789
27333W        W88754  33.617  32.539   1.842
27334W        W88755  19.182  24.697  12.385
27335W        W88756  30.070  24.977  12.493
27336W        W88757  16.248  12.306   1.227
27337W        W88758  15.093  32.480   3.347
27338W        W88759  26.990  33.074  13.437
27339W        W88760  31.955   5.707  10.619
27340W        W88761   3.914  14.704  13.796
27341W        W88762  42.405  43.329   0.842
27342W        W88763   7.380  18.667   0.407
27343W        W88764  30.099  19.050   1.230
27344W        W88765  44.364  10.168   3.757
27345W        W88766  31.020  21.214  13.350
27346W        W88767  28.652  18.085   0.425
27347W        W88768   8.254  20.678   0.793
27348W        W88769   2.323  41.393  11.467
27349W        W88770  35.975  15.203   2.194
27350W        W88771  40.818  30.983  10.977
27351W        W88772  30.640   9.700   2.255
27352W        W88773  40.465  19.670  10.942
27353W        W88774  38.032  40.049   3.249
27354W        W88775  25.604  27.680  13.395
27355W        W88776  35.905  31.515   3.279
27356W        W88777   9.842  31.503  13.517
27357W        W88778  29.615  39.365   0.445
27358W        W88779   0.816  23.674  10.511
27359W        W88780  33.057  33.623  12.976
27360W        W88781  25.490  15.703  10.521
27361W        W88782  28.953  30.450   3.322
27362W        W88783  21.679   0.855  10.133
27363W        W88784  26.516  33.956  12.887
27364W        W88785   8.184  25.043   4.231
27365W        W88786  25.216  11.685   3.697
27366W        W88787   4.310  36.057   2.367
27367W        W88788  35.378  30.610  13.967
27368W        W88789  44.889   1.902  14.504
27369W        W88790  20.031  10.860   0.774
27370W        W88791  43.957   2.252  12.538
27371W        W88792  37.347  40.541  14.453
27372W        W88793  19.646   4.875  14.362
27373W        W88794  31.638   3.722  14.403
27374W        W88795  40.501  24.628  12.858
27375W        W88796  43.398  12.177  11.532
27376W        W88797   2.965  20.601  11.572
27377W        W88798  28.480  27.621  11.587
27378W        W88799  33.509  25.067   0.286
27379W        W88800  15.601   0.338  12.546
27380W        W88801  15.739  33.953   0.964
27381W        W88802   5.195  33.380  13.909
27382W        W88803  21.068  42.441  12.976
27383W        W88804  13.324  43.432   0.829
27384W        W88805  42.312   8.734  13.901
27385W        W88806   6.246  13.278  14.928
27386W        W88807  15.220   5.706  12.073
27387W        W88808   2.878   8.362   1.283
27388W        W88809  21.660   0.778  14.310
27389W        W88810  10.339  28.028   2.885
27390W        W88811  33.490  43.377  12.090
27391W        W88812  12.213  14.680   3.294
27392W        W88813   3.363  25.692   5.202
27393W        W88814  17.800  12.810   4.341
27394W        W88815  41.793   2.459  13.340
27395W        W88816  34.919  25.114   3.265
27396W        W88817  15.821  40.976  10.141
27397W        W88818   2.965  15.159   3.348
27398W        W88819  28.494  15.779  10.622
27399W        W88820  33.481  21.243  10.434
27400W        W88821   3.443  41.905  12.008
27401W        W88822  11.771   5.869   2.221
27402W        W88823   4.425   9.763  12.519
27403W        W88824  31.027  42.784  13.994
27404W        W88825  37.548  21.610  11.987
27405W        W88826  24.060  33.072   2.869
27406W        W88827  37.409  36.953  11.049
27407W        W88828  15.802  24.617  10.576
27408W        W88829   4.338  42.924  14.801
27409W        W88830  18.776  37.080  14.769
27410W        W88831  37.952  33.095   1.900
27411W        W88832  23.222  13.694   2.281
27412W        W88833  30.417   0.404  12.509
27413W        W88834   5.871  41.360  13.453
27414W        W88835   2.794   9.749   1.443
27415W        W88836   7.871  22.671   3.804
27416W        W88837   6.854  37.416   1.809
27417W        W88838  42.356  31.564   2.791
27418W        W88839  34.885  21.659  12.063
27419W        W88840  42.457  42.400  12.945
27420W        W88841  44.947  28.044   1.698
27421W        W88842  41.980  11.836   2.808
27422W        W88843  25.064   0.365  10.407
27423W        W88844  37.431  37.572  13.916
27424W        W88845   5.310  11.269  11.600
27425W        W88846  24.208   9.707  13.318
27426W        W88847  28.605  12.637   0.911
27427W        W88848  38.438  32.519  14.989
27428W        W88849  15.263   9.364   3.153
27429W        W88850  12.353  24.974   0.246
27430W        W88851  43.764  34.061  14.353
27431W        W88852  32.604  28.941  10.628
27432W        W88853  29.444  30.528   1.809
27433W        W88854  12.680  44.895  10.929
27434W        W88855   0.883  25.005   4.343
27435W        W88856  41.827  26.991  13.903
27436W        W88857   2.337  44.468   9.920
27437W        W88858  15.212  10.819   3.238
27438W        W88859   1.738  16.614  11.929
27439W        W88860  11.628  10.352   0.436
27440W        W88861  34.002  41.937   4.650
27441W        W88862  19.716  39.936   1.273
27442W        W88863  22.635   6.310   1.784
27443W        W88864  33.115   6.298  13.465
27444W        W88865  28.488  13.806   4.323
27445W        W88866  31.916  33.592   2.739
27446W        W88867  18.759   3.934  10.962
27447W        W88868  38.372  31.080  10.974
27448W        W88869  15.600  36.353  11.032
27449W        W88870  17.601  26.552  14.900
27450W        W88871  17.188   3.270  13.349
27451W        W88872  42.525   6.830  12.940
27452W        W88873  32.564  40.894  10.950
27453W        W88874  25.682   1.854  14.774
27454W        W88875  36.448  30.940   2.715
27455W        W88876  28.170  20.703  12.438
27456W        W88877  39.326  34.011  11.090
27457W        W88878  30.916  23.033  14.819
27458W        W88879  23.210  19.098  14.513
27459W        W88880  44.466  30.655  14.376
27460W        W88881  36.467  27.559  11.944
27461W        W88882  40.542  28.614  13.505
27462W        W88883  28.566  37.408  12.068
27463W        W88884  30.099  23.073   2.821
27464W        W88885  31.421  31.041   0.942
27465W        W88886  41.924   3.340   1.870
27466W        W88887  30.424  28.583  11.608
27467W        W88888   2.407  34.066   2.286
27468W        W88889  43.501  19.741   1.410
27469W        W88890  24.698   4.769  10.065
27470W        W88891  24.590  43.854   4.603
27471W        W88892  38.862  29.637   0.726
27472W        W88893  27.492  29.646   2.819
27473W        W88894  26.010  32.469  11.026
27474W        W88895  24.690  35.437  13.346
27475W        W88896   1.426   8.168   4.125
27476W        W88897  30.453   5.250   3.739
27477W        W88898   1.375  41.341   1.807
27478W        W88899   0.456   8.373   3.260
27479W        W88900  43.334  42.847   4.344
27480W        W88901  12.716  16.571   4.599
27481W        W88902  28.656  24.145   2.334
27482W        W88903   4.205  14.116   4.670
27483W        W88904   6.382  21.175   4.235
27484W        W88905  18.203  41.357   0.384
27485W        W88906   3.357  21.250  11.432
27486W        W88907   8.168   5.780  13.792
27487W        W88908  21.258  33.031  13.856
27488W        W88909  41.445  11.793  12.349
27489W        W88910  27.984  38.494  13.015
27490W        W88911   7.227  38.473  14.307
27491W        W88912  43.335  25.611   1.319
27492W        W88913  43.867  20.108  14.441
27493W        W88914  16.605   6.702  14.447
27494W        W88915  32.504  35.872  14.932
27495W        W88916  42.353  10.849  10.563
27496W        W88917   2.378  38.883   5.193
27497W        W88918   3.440   5.854   4.352
27498W        W88919   6.824  25.537  13.045
27499W        W88920  40.978  36.512   3.301
27500W        W88921  33.032   0.310   4.723
27501W        W88922   7.366  15.733  13.833
27502W        W88923  12.333  40.321  10.588
27503W        W88924  11.700   3.444  13.876
27504W        W88925  26.620  29.073  12.971
27505W        W88926  37.487   6.877   3.783
27506W        W88927  20.062  24.105   2.809
27507W        W88928  37.496  37.519  12.514
27508W        W88929  14.294  20.137  11.526
27509W        W88930  34.551  40.848  11.404
27510W        W88931  35.969  35.102   1.431
27511W        W88932  37.436   8.366   3.334
27512W        W88933  27.548  44.758   2.253
27513W        W88934  17.653  36.571  13.034
27514W        W88935  42.462  42.020   1.349
27515W        W88936  28.527   1.734  13.952
27516W        W88937  15.217  43.857  11.990
27517W        W88938   2.236  38.382  14.889
27518W        W88939  21.607   2.415  11.481
27519W        W88940  32.470  39.406  11.498
27520W        W88941  15.085   4.393  13.905
27521W        W88942   4.223  29.108   0.759
27522W        W88943   6.427   7.840   2.878
27523W        W88944   7.346   5.290   0.857
27524W        W88945  39.012  10.710   0.282
27525W        W88946  22.055   1.412  14.988
27526W        W88947  11.232  30.464  11.116
27527W        W88948  14.251  44.914  14.300
27528W        W88949  15.257  28.434   4.747
27529W        W88950  38.000  20.101  14.471
27530W        W88951   2.858   4.889   4.181
27531W        W88952   5.259   3.388   3.254
27532W        W88953   0.451  21.052  12.953
27533W        W88954  15.268  24.637   1.782
27534W        W88955  23.519   7.827   0.730
27535W        W88956  20.042  20.095   1.698
27536W        W88957  34.887  17.556  13.415
27537W        W88958  24.029  35.479   1.885
27538W        W88959   3.729   7.896   2.851
27539W        W88960  21.582  34.612   0.336
27540W        W88961  25.605  42.416   2.200
27541W        W88962   4.241  27.967   9.999
27542W        W88963  12.831  35.966  14.999
27543W        W88964   4.852  44.802   3.382
27544W        W88965  12.761   1.785   3.205
27545W        W88966  43.463  27.175  12.025
27546W        W88967  31.007  24.088   2.369
27547W        W88968   8.325  19.638   2.792
27548W        W88969  11.779  17.140   5.303
27549W        W88970  12.770   3.785   0.818
27550W        W88971   7.263   2.419  10.995
27551W        W88972  41.942  40.010  13.800
27552W        W88973   0.304   6.881   3.749
27553W        W88974  11.260  19.227  10.484
27554W        W88975  42.356   9.212   0.804
27555W        W88976   5.427  23.041   4.669
27556W        W88977  25.485  39.367   3.722
27557W        W88978  43.270  43.372  12.376
27558W        W88979  40.031   1.736  14.974
27559W        W88980  14.239  32.902   3.835
27560W        W88981  32.518   1.400   1.436
27561W        W88982  45.000  22.150  11.091
27562W        W88983  16.273  15.180  11.110
27563W        W88984  19.271  36.919  14.954
27564W        W88985   7.838  20.568  12.831
27565W        W88986  44.903  12.183   2.868
27566W        W88987  31.970  28.016   2.717
27567W        W88988  26.595  37.521  13.927
27568W        W88989  15.814   5.907   3.376
27569W        W88990  38.932  26.593  14.942
27570W        W88991  14.218  38.347   2.880
27571W        W88992  19.632   0.980  11.045
27572W        W88993   0.377  44.953   3.233
27573W        W88994  13.631  12.146  11.396
27574W        W88995  28.960   3.733   3.653
27575W        W88996  11.692  15.681  11.425
27576W        W88997  33.129  31.569  12.990
27577W        W88998   4.246  12.752   0.806
27578W        W88999  23.200  27.511   0.345
27579W        W89000   7.798   5.896  13.962
27580W        W89001  28.957  29.646  11.960
27581W        W89002  13.107   5.724   2.713
27582W        W89003  20.035  10.796  12.078
27583W        W89004  40.982   8.179  10.516
27584W        W89005   9.389  29.084   4.781
27585W        W89006  43.768  27.027   1.427
27586W        W89007  33.040  21.625  14.324
27587W        W89008  14.095  22.120   4.802
27588W        W89009  35.367  19.765  12.552
27589W        W89010  38.496  16.304  13.899
27590W        W89011  17.175   7.292  14.405
27591W        W89012  42.908  10.680  14.968
27592W        W89013  41.851  36.942  10.552
27593W        W89014  31.484  22.184  13.435
27594W        W89015   3.862  21.576   3.191
27595W        W89016   5.867  19.284  12.905
27596W        W89017   6.699  15.272  14.479
27597W        W89018  13.686  41.307  12.927
27598W        W89019  43.335  34.882  11.414
27599W        W89020  25.626  43.901   0.831
27600W        W89021  27.012  35.533   4.624
27601W        W89022   4.323  44.383  13.437
27602W        W89023   3.373  34.603  14.980
27603W        W89024  43.346  13.814  11.072
27604W        W89025  28.985  13.695  10.451
27605W        W89026  36.467   7.373   2.669
27606W        W89027  38.902  25.149   3.756
27607W        W89028  28.532  21.244  12.396
27608W        W89029  36.360  39.460  10.599
27609W        W89030  41.404  31.502  14.908
27610W        W89031  18.626  20.669   1.764
27611W        W89032  43.383  41.878   1.322
27612W        W89033  18.111  28.644   4.118
27613W        W89034  39.838   7.388  11.874
27614W        W89035  17.746   6.679  13.863
27615W        W89036  44.008  42.373   1.720
27616W        W89037  32.417  12.222   3.220
27617W        W89038  11.135  35.392   0.912
27618W        W89039  34.395  39.024  14.904
27619W        W89040   6.290  19.671  10.142
27620W        W89041  21.145  25.112  12.523
27621W        W89042  12.839   4.214   4.208
27622W        W89043  28.666  11.367  13.799
27623W        W89044  12.787  27.554  14.424
27624W        W89045  15.140   2.343   3.634
27625W        W89046   6.714  24.609   4.828
27626W        W89047  26.108  11.270   2.712
27627W        W89048  28.567  17.757   3.190
27628W        W89049  10.693  14.655  12.351
27629W        W89050   4.224   5.247  11.078
27630W        W89051  39.929  18.244  14.020
27631W        W89052  43.003  34.409   0.300
27632W        W89053  44.305  44.491  11.922
27633W        W89054  11.153  20.651  12.516
27634W        W89055   3.215  13.260  10.603
27635W        W89056  25.488  25.056   4.653
27636W        W89057  44.754   9.721   0.805
27637W        W89058  16.755  12.280   1.255
27638W        W89059  30.487  25.480   3.863
27639W        W89060  40.979  22.521   1.349
27640W        W89061   1.443  21.718  13.399
27641W        W89062  32.073  25.519   2.328
27642W        W89063  23.634   8.405   0.830
27643W        W89064  36.053   8.311  13.385
27644W        W89065  34.944  38.930   5.084
27645W        W89066  14.132  29.979  12.916
27646W        W89067  43.958  28.510  12.017
27647W        W89068  28.046   8.387  11.960
27648W        W89069  41.332   0.453   1.764
27649W        W89070  41.808  27.471  11.111
27650W        W89071  31.573  37.418  14.968
27651W        W89072   2.467  39.841   0.896
27652W        W89073  44.944  12.164  12.568
27653W        W89074  11.130   1.801   1.743
27654W        W89075  41.955  40.799  14.790
27655W        W89076  39.557  12.651   1.403
27656W        W89077   9.248  18.733   2.801
27657W        W89078  24.165  35.390  11.128
27658W        W89079  35.491  12.262  14.825
27659W        W89080  38.038  10.380   0.888
27660W        W89081   3.369   5.326  11.403
27661W        W89082  36.388   1.480  13.429
27662W        W89083  44.451   7.295  11.488
27663W        W89084  30.121  39.466  12.947
27664W        W89085  19.611  25.064  14.415
27665W        W89086  21.680  39.458   2.700
27666W        W89087  16.756  18.270  13.451
27667W        W89088  41.962  36.580  12.087
27668W        W89089  18.131   5.877  14.816
27669W        W89090  44.771  32.050  12.061
27670W        W89091  23.047   5.807   4.146
27671W        W89092  22.507  17.173  11.964
27672W        W89093  33.000  21.140  14.868
27673W        W89094  34.417  44.505   3.346
27674W        W89095   6.216   9.840   1.735
27675W        W89096   6.712  17.743   0.350
27676W        W89097  11.213  25.137   2.828
27677W        W89098  44.830  39.351   1.250
27678W        W89099  36.555  38.909   5.209
27679W        W89100  24.117  19.772  10.074
27680W        W89101  44.367  35.099  13.355
27681W        W89102  41.498  26.528  11.980
27682W        W89103  25.973  30.921   1.900
27683W        W89104  16.172  24.054  12.890
27684W        W89105   1.424  26.999  14.977
27685W        W89106  31.531  32.967  14.435
27686W        W89107  20.094   6.353   4.198
27687W        W89108  37.471  44.298   1.776
27688W        W89109  42.009  19.569  11.476
27689W        W89110  43.453  20.667  14.484
27690W        W89111  32.977  18.610  10.969
27691W        W89112  38.006  11.330  10.988
27692W        W89113  28.963   4.374   1.892
27693W        W89114  43.298  20.252   3.352
27694W        W89115  12.291  30.102   2.198
27695W        W89116  23.231  16.628   1.211
27696W        W89117  38.032   1.480  13.890
27697W        W89118  22.158  28.973  14.938
27698W        W89119  20.732  34.080   2.854
27699W        W89120  30.561   7.812   4.184
27700W        W89121  24.701  10.645   2.795
27701W        W89122   7.318  22.084  12.502
27702W        W89123  10.847  12.164  10.990
27703W        W89124  31.153  34.382  13.368
27704W        W89125   0.925  18.112  14.953
27705W        W89126  18.670  10.835  13.922
27706W        W89127  21.078  15.812  10.124
27707W        W89128  44.832  17.734  14.338
27708W        W89129  22.194   2.962  11.421
27709W        W89130  10.782  10.187   0.291
27710W        W89131  12.727   6.727   0.952
27711W        W89132  37.833  44.932   4.645
27712W        W89133   4.893  21.121  12.081
27713W        W89134  12.132  14.609  13.989
27714W        W89135  15.640   1.411  12.495
27715W        W89136   8.246  18.756   0.940
27716W        W89137  23.033  35.591   4.257
27717W        W89138  37.531   1.247  14.994
27718W        W89139  36.869  31.122   2.306
27719W        W89140  32.562  21.550   1.874
27720W        W89141  32.046  40.508   0.805
27721W        W89142  31.517  25.170   3.319
27722W        W89143  39.853  32.596   4.276
27723W        W89144   8.360  30.606   4.631
27724W        W89145  15.658   9.719  10.005
27725W        W89146  40.511  24.997  10.481
27726W        W89147  29.166  17.719  14.407
27727W        W89148  34.977   3.953  14.351
27728W        W89149  12.162  42.895  14.994
27729W        W89150  28.069  28.445   1.795
27730W        W89151  26.050  36.396   2.692
27731W        W89152  31.635  22.007   0.452
27732W        W89153  32.099  23.491   0.874
27733W        W89154   1.264  10.785   3.192
27734W        W89155   2.327  33.965   2.670
27735W        W89156  26.969   7.402   3.691
27736W        W89157   2.363  13.728  11.526
27737W        W89158   7.249  23.697   2.335
27738W        W89159  40.423   6.305  13.964
27739W        W89160  30.639  20.107  14.348
27740W        W89161  23.546   8.315  12.378
27741W        W89162   2.772  39.454   3.307
27742W        W89163  21.091  28.067   3.688
27743W        W89164  31.001   7.729   0.369
27744W        W89165  25.028  23.563  13.912
27745W        W89166  18.232   7.268   0.315
27746W        W89167  23.546  12.785   0.749
27747W        W89168  11.345   5.692  11.989
27748W        W89169  13.224   3.438  14.420
27749W        W89170  30.147  15.794   4.226
27750W        W89171  15.682  43.378   4.812
27751W        W89172  40.422  40.523  14.000
27752W        W89173  12.822  39.817   0.836
27753W        W89174  22.997  13.692  10.924
27754W        W89175  22.178   3.740   1.380
27755W        W89176  32.461   1.758   2.191
27756W        W89177  16.685  18.207   2.400
27757W        W89178  22.998  43.379  12.344
27758W        W89179  37.898  15.230   2.707
27759W        W89180   2.320  41.530   5.174
27760W        W89181  44.009   3.361   3.254
27761W        W89182  43.991  44.408  11.098
27762W        W89183  34.992   3.215  12.091
27763W        W89184  28.526   1.440   1.879
27764W        W89185  26.003  24.520   3.853
27765W        W89186  42.513  15.285   2.249
27766W        W89187   5.356  41.984  12.040
27767W        W89188  27.054   3.921   2.387
27768W        W89189  29.010  29.490   1.700
27769W        W89190   9.345   1.402   1.733
27770W        W89191  24.187  22.089   4.646
27771W        W89192   5.369  21.036   2.808
27772W        W89193  31.145  14.746   4.299
27773W        W89194  43.448  34.031  12.499
27774W        W89195  14.798  35.536   2.668
27775W        W89196  16.802   4.430  10.497
27776W        W89197  32.445  41.917  13.417
27777W        W89198   3.857  41.029  14.296
27778W        W89199  44.465  34.578  13.350
27779W        W89200  39.368  11.205   4.144
27780W        W89201  21.065  28.495  14.860
27781W        W89202  28.048  25.113   0.265
27782W        W89203  28.184  38.526   4.219
27783W        W89204   7.870  18.207   3.631
27784W        W89205   5.835  36.913  12.027
27785W        W89206  27.046  33.490  14.897
27786W        W89207  27.475  26.951   2.294
27787W        W89208   1.366   4.204  12.095
27788W        W89209  17.287  24.039   4.741
27789W        W89210  38.479  38.828   0.781
27790W        W89211  13.843  15.320   3.344
27791W        W89212  41.365  24.561  12.023
27792W        W89213  32.953  38.052   3.642
27793W        W89214   8.896  39.998   1.249
27794W        W89215   4.337  23.562  13.541
27795W        W89216  29.000  42.417  12.471
27796W        W89217  39.533  10.831  13.978
27797W        W89218   3.372  20.553   3.834
27798W        W89219  38.996   0.884   2.178
27799W        W89220  21.682  17.090   0.290
27800W        W89221   1.776  35.542   2.674
27801W        W89222  38.017  10.194  14.482
27802W        W89223  25.044   6.234  11.943
27803W        W89224  24.112   7.220  10.444
27804W        W89225  24.054   8.297  12.951
27805W        W89226  13.110  30.614  14.915
27806W        W89227  17.260   4.919   1.754
27807W        W89228  22.669  36.484   1.432
27808W        W89229  11.255  28.553  13.008
27809W        W89230  12.121  35.986   2.238
27810W        W89231  40.943   1.357  10.579
27811W        W89232  14.741  17.632  10.503
27812W        W89233  26.525  15.645  10.130
27813W        W89234   0.908  16.605   4.243
27814W        W89235  12.225  15.814   3.361
27815W        W89236   4.289  22.052  13.880
27816W        W89237  18.710  34.446   3.720
27817W        W89238   0.798   5.416  12.947
27818W        W89239  31.511  10.162  12.825
27819W        W89240   4.743  19.226  11.024
27820W        W89241  24.632   3.325  13.414
27821W        W89242  41.839  25.981  12.421
27822W        W89243   4.835   4.344   5.193
27823W        W89244  18.231  24.530  14.820
27824W        W89245   2.865  31.102  11.944
27825W        W89246  22.732  30.132   4.799
27826W        W89247   7.268  32.525  11.578
27827W        W89248  26.548  17.264   4.320
27828W        W89249  16.792   9.306  13.401
27829W        W89250   3.388  41.444  14.294
27830W        W89251  27.474  26.981  14.871
27831W        W89252  15.238   2.870  11.066
27832W        W89253  13.237  15.754  11.499
27833W        W89254  34.914   0.337  12.548
27834W        W89255  15.163  31.991  12.889
27835W        W89256  33.619  31.586  12.392
27836W        W89257  40.457  26.524   4.235
27837W        W89258  18.556  30.023  14.961
27838W        W89259  35.016  23.543   3.149
27839W        W89260   3.944  44.281  10.926
27840W        W89261  16.272   9.284  13.023
27841W        W89262  43.791  44.970  11.917
27842W        W89263  20.564  36.037  13.884
27843W        W89264  16.800  36.488   3.720
27844W        W89265  21.661   6.327  13.402
27845W        W89266  12.618  43.446   0.319
27846W        W89267  30.436  14.196   5.088
27847W        W89268  36.403  22.175   1.423
27848W        W89269  43.871   8.188  11.593
27849W        W89270  31.924   1.251   0.886
27850W        W89271  22.212   5.900   2.279
27851W        W89272  17.065  25.086  11.519
27852W        W89273  26.595  44.986  14.798
27853W        W89274  26.009  27.558  11.388
27854W        W89275  18.574  24.038   2.374
27855W        W89276  10.878  12.328   0.878
27856W        W89277  26.075  38.500   3.756
27857W        W89278  43.823  13.116   5.119
27858W        W89279  12.767   3.234  12.948
27859W        W89280  39.512  22.042   4.249
27860W        W89281   8.283   6.851   3.746
27861W        W89282  38.851  39.407  13.934
27862W        W89283  19.747  30.156   3.654
27863W        W89284  38.491  41.912  10.901
27864W        W89285  24.575  35.914   0.850
27865W        W89286   5.320  40.872  13.459
27866W        W89287  21.600  21.692   0.477
27867W        W89288  38.981  26.157  13.886
27868W        W89289  34.551  13.199  12.457
27869W        W89290  25.474  42.873  11.905
27870W        W89291  35.039  19.707   4.820
27871W        W89292  32.940   6.424   4.676
27872W        W89293   4.398  13.737   0.762
27873W        W89294  41.340  29.983   2.774
27874W        W89295  35.567  36.868   2.742
27875W        W89296  35.590  18.208   1.816
27876W        W89297  17.269  15.634  10.961
27877W        W89298  35.595  30.163  14.786
27878W        W89299   3.820  40.864  11.504
27879W        W89300   4.326  27.516  13.029
27880W        W89301  12.786   2.771  14.988
27881W        W89302  25.639  19.540  13.356
27882W        W89303  23.021  33.885  13.962
27883W        W89304  23.675  38.372  14.004
27884W        W89305  26.134  43.477  12.539
27885W        W89306   9.700  17.570   2.730
27886W        W89307  24.662  13.147   0.809
27887W        W89308  12.196   2.892   2.177
27888W        W89309  44.452   8.361   0.301
27889W        W89310   8.803  11.235   0.410
27890W        W89311  34.919  37.460   3.281
27891W        W89312  32.482   2.399  12.504
27892W        W89313   7.190  15.721   1.297
27893W        W89314   3.299  25.498  10.099
27894W        W89315  26.047  26.665  12.945
27895W        W89316  34.071  22.251   3.318
27896W        W89317  15.808  21.251  14.369
27897W        W89318  37.977  25.645   0.266
27898W        W89319  27.533  10.858  14.385
27899W        W89320  32.522   7.218  12.451
27900W        W89321  14.160  18.677   5.304
27901W        W89322  27.940  23.684   0.246
27902W        W89323  41.814  28.165  10.013
27903W        W89324  13.163  25.971  13.436
27904W        W89325  27.625  31.615  13.989
27905W        W89326  27.993  33.527   0.282
27906W        W89327  15.775  26.635  13.965
27907W        W89328  21.572  14.722   4.177
27908W        W89329   5.208   4.855   2.338
27909W        W89330  26.537  31.422  12.380
27910W        W89331  27.061  22.121   4.204
27911W        W89332  20.074   9.374   3.326
27912W        W89333  25.991   9.171  10.568
27913W        W89334  25.671  17.141  10.473
27914W        W89335  39.851  26.187   2.878
27915W        W89336  42.891  34.040  10.469
27916W        W89337  13.741   9.682   0.253
27917W        W89338  29.525  36.495   2.820
27918W        W89339  25.649  15.114  10.588
27919W        W89340  40.898   2.963   3.646
27920W        W89341  19.115   7.747   4.243
27921W        W89342  21.162  20.153  12.996
27922W        W89343  29.958  35.454  11.459
27923W        W89344  15.088  12.164   3.643
27924W        W89345  37.419  30.592   2.822
27925W        W89346  16.723  12.720  13.422
27926W        W89347  33.575  18.715   2.338
27927W        W89348  30.418  20.165   3.819
27928W        W89349  13.236   4.759   1.377
27929W        W89350  21.228  29.995   2.784
27930W        W89351  10.337   7.848   5.109
27931W        W89352  22.214  31.637  10.558
27932W        W89353  27.176   9.343   0.415
27933W        W89354  39.845  12.773  12.906
27934W        W89355  20.028  44.264   0.762
27935W        W89356  15.787  44.938   0.772
27936W        W89357  28.654  25.669  12.003
27937W        W89358  25.570  35.918   2.417
27938W        W89359  17.241   1.364  14.929
27939W        W89360  31.619  26.143   4.318
27940W        W89361   0.340  40.526   2.329
27941W        W89362  20.692  30.095   4.210
27942W        W89363  28.013  37.992   0.317
27943W        W89364  24.686  20.597  12.554
27944W        W89365  15.263   6.734  11.076
27945W        W89366  32.515  13.216   1.368
27946W        W89367   3.799  16.271   4.206
27947W        W89368  21.535  11.328  11.398
27948W        W89369  29.011  37.035   0.330
27949W        W89370  14.275  25.168   2.260
27950W        W89371  31.404   5.341  14.400
27951W        W89372  18.599  29.660   4.208
27952W        W89373  12.239  27.637   0.458
27953W        W89374   3.922   0.444   3.776
27954W        W89375  30.579   4.350  13.446
27955W        W89376   7.248   6.791   3.278
27956W        W89377  20.733  10.677   4.196
27957W        W89378  35.940  21.183  12.403
27958W        W89379   5.927  23.227  14.306
27959W        W89380  34.589  27.073  11.942
27960W        W89381   6.806  32.045  11.105
27961W        W89382  29.623  33.495  10.443
27962W        W89383  23.183  40.910  12.943
27963W        W89384   0.783  30.582   3.221
27964W        W89385  25.524  11.648  11.956
27965W        W89386  13.695  43.786  14.852
27966W        W89387  17.613  18.212   3.722
27967W        W89388  30.634  38.503   3.318
27968W        W89389  37.081  31.017   0.387
27969W        W89390  31.060   0.250   1.785
27970W        W89391  39.024   0.486  10.094
27971W        W89392   3.291   1.431  14.818
27972W        W89393  42.365  42.365  12.567
27973W        W89394  11.821   2.249  13.453
27974W        W89395  27.590   3.230   1.935
27975W        W89396  30.999  42.871   4.162
27976W        W89397  31.140  11.219  10.450
27977W        W89398   4.857   7.290   9.975
27978W        W89399  14.714  13.780  11.906
27979W        W89400   1.833  36.017  11.914
27980W        W89401   4.286  33.415   2.776
27981W        W89402  16.754  44.305  10.538
27982W        W89403  32.023  41.440   1.326
27983W        W89404  41.396  10.182  13.034
27984W        W89405  11.297  12.791   1.342
27985W        W89406  36.993   6.272  12.961
27986W        W89407  30.608  18.675  10.497
27987W        W89408  43.468  13.197  10.491
27988W        W89409  28.052  31.988   3.319
27989W        W89410  16.099   4.250   0.250
27990W        W89411   9.731  32.527  13.433
27991W        W89412  43.511  32.943  11.040
27992W        W89413   5.927   4.384  13.949
27993W        W89414  17.792  31.945   0.470
27994W        W89415  13.650  17.114   3.739
27995W        W89416   2.904  26.988   3.293
27996W        W89417   8.189  23.225  11.612
27997W        W89418  40.348  17.592   9.580
27998W        W89419  10.638  11.831   4.623
27999W        W89420  41.953  22.163  12.905
28000W        W89421  35.417  44.922   3.315
28001W        W89422   1.919  16.272  11.118
28002W        W89423  13.121  29.616  11.856
28003W        W89424   6.332   0.314   3.195
28004W        W89425  39.816   4.869   4.615
28005W        W89426  44.262  35.441   1.897
28006W        W89427  24.605  11.127  11.089
28007W        W89428  21.250   9.821   2.821
28008W        W89429  11.660   5.781  12.016
28009W        W89430  13.221  21.581   0.820
28010W        W89431  36.417  37.020   0.900
28011W        W89432   2.227  28.150  10.510
28012W        W89433  35.484  10.253   1.901
28013W        W89434  40.806  29.643  13.834
28014W        W89435  31.557  12.826   2.284
28015W        W89436  18.253  27.987  11.046
28016W        W89437   0.391   9.167  13.516
28017W        W89438  43.480  13.771   0.465
28018W        W89439   4.873  15.680   4.667
28019W        W89440   3.841  24.582  12.371
28020W        W89441  26.038   8.320   0.357
28021W        W89442  10.288   3.313   4.619
28022W        W89443  25.082   8.387  13.008
28023W        W89444  39.448  18.219  14.955
28024W        W89445  14.271   8.207   1.749
28025W        W89446  22.692  25.051  12.392
28026W        W89447  37.363  33.381   3.777
28027W        W89448  32.143  27.504   0.299
28028W        W89449  38.969  32.590   4.213
28029W        W89450  20.723  18.233  10.920
28030W        W89451  29.058  28.531   0.870
28031W        W89452  37.866  25.605  10.595
28032W        W89453  29.608  40.918   4.629
28033W        W89454  21.732  37.837  10.603
28034W        W89455   6.409  40.943  13.827
28035W        W89456  13.302  16.268  14.377
28036W        W89457   3.406   3.889  14.862
28037W        W89458  39.821  37.535   3.302
28038W        W89459  17.683  20.250   0.765
28039W        W89460  29.512  31.636   3.655
28040W        W89461   7.377   5.748   3.302
28041W        W89462  17.702  34.384   3.760
28042W        W89463   1.418  32.971   5.288
28043W        W89464  27.002  33.420   4.835
28044W        W89465  22.242  16.194   0.370
28045W        W89466   6.221  12.255   2.295
28046W        W89467   6.397  30.598  14.985
28047W        W89468  27.023  31.037   4.148
28048W        W89469  26.161  14.690  10.580
28049W        W89470  28.964  10.691  13.497
28050W        W89471  10.699  38.551   9.603
28051W        W89472  27.648   6.360   2.230
28052W        W89473   1.886  41.458  13.487
28053W        W89474   7.692   0.399   0.454
28054W        W89475  21.184  35.863  11.526
28055W        W89476   9.760  10.256   4.814
28056W        W89477  35.078  30.082  13.311
28057W        W89478  14.212  13.772  13.803
28058W        W89479   6.857  20.216   4.699
28059W        W89480  39.878  39.909  12.431
28060W        W89481  31.512  17.249  13.810
28061W        W89482  16.607   8.832   1.381
28062W        W89483   1.853  34.077   3.313
28063W        W89484   9.395  40.452   1.827
28064W        W89485   6.194   9.265   0.803
28065W        W89486  36.382  39.519  14.806
28066W        W89487   5.277  10.234   2.247
28067W        W89488   4.780  18.155   4.764
28068W        W89489  24.000  42.346   0.323
28069W        W89490  33.431   6.821  13.004
28070W        W89491  31.971  13.303  11.908
28071W        W89492  37.542  38.880   2.354
28072W        W89493  22.107  41.996   0.260
28073W        W89494   3.899   0.280  12.074
28074W        W89495  38.412  31.996   0.300
28075W        W89496  12.799   7.268   2.204
28076W        W89497   6.684  20.067  14.807
28077W        W89498  37.426   6.719  12.506
28078W        W89499  35.555   9.196  11.981
28079W        W89500  41.412  44.359  11.895
28080W        W89501  40.317  36.458  11.526
28081W        W89502   2.792   8.736  11.943
28082W        W89503  26.188  23.705  11.379
28083W        W89504  15.690  11.189   0.303
28084W        W89505   9.723   1.922  14.424
28085W        W89506  28.940  27.481   4.765
28086W        W89507  14.113  38.558   4.766
28087W        W89508  17.770  15.223   3.310
28088W        W89509  15.675  16.724  14.382
28089W        W89510  13.127  22.085   4.809
28090W        W89511  38.377   7.877   3.304
28091W        W89512  31.975  44.467   4.662
28092W        W89513  43.891  43.789   4.192
28093W        W89514  21.595  32.066  10.549
28094W        W89515  12.802   1.329   2.811
28095W        W89516  14.262  31.459   1.424
28096W        W89517  19.767  24.504  14.420
28097W        W89518  42.311  31.644   0.821
28098W        W89519  37.469  26.702   2.721
28099W        W89520  18.275  20.210   2.900
28100W        W89521  13.682  33.478  14.387
28101W        W89522  27.579   2.330  10.449
28102W        W89523  42.453  38.482   0.829
28103W        W89524  35.084  39.029  14.461
28104W        W89525  10.718  39.427   0.732
28105W        W89526  16.082  35.049   4.820
28106W        W89527   2.908  42.419  13.384
28107W        W89528  18.092  32.007   1.748
28108W        W89529  14.271  23.618   1.352
28109W        W89530   2.469  12.240   4.752
28110W        W89531  32.599   5.200   4.354
28111W        W89532   6.407  17.782  13.399
28112W        W89533  32.535  12.839  13.324
28113W        W89534   2.956   7.802  10.537
28114W        W89535  17.620  36.517   3.188
28115W        W89536  28.459  22.082   0.386
28116W        W89537  38.024  15.298   1.286
28117W        W89538  23.030  40.016  10.991
28118W        W89539  14.748  42.306   1.810
28119W        W89540  30.075  30.158  14.850
28120W        W89541  10.742  23.686  12.350
28121W        W89542   0.459  42.405  13.407
28122W        W89543  10.163  40.549  12.088
28123W        W89544   4.843  35.424  11.090
28124W        W89545  39.045  34.462   0.748
28125W        W89546  16.699  27.016   2.898
28126W        W89547   2.394  40.505   3.648
28127W        W89548   2.930  42.885  14.915
28128W        W89549  18.201  29.073   4.748
28129W        W89550   3.827  38.516  14.979
28130W        W89551   2.427  20.536  12.449
28131W        W89552  35.966  37.522  11.103
28132W        W89553  41.998  15.592   0.729
28133W        W89554  21.058  18.244  13.929
28134W        W89555  36.974  44.260  11.588
28135W        W89556  38.890  15.249   3.842
28136W        W89557  11.677  15.174   4.726
28137W        W89558  37.494   0.878   3.782
28138W        W89559   3.794  34.099   2.875
28139W        W89560  33.513   3.820   1.450
28140W        W89561   1.334  30.063   1.281
28141W        W89562   5.403  25.101   0.252
28142W        W89563  21.223  25.104  14.769
28143W        W89564   2.442  34.427   3.797
28144W        W89565  30.936  27.054   4.347
28145W        W89566  20.050  40.864  13.474
28146W        W89567   6.420   4.744   2.817
28147W        W89568  39.379  29.551  13.381
28148W        W89569  34.877  24.189  12.937
28149W        W89570  16.244  27.155  13.793
28150W        W89571  16.626   8.715  11.030
28151W        W89572  25.193   9.858   1.867
28152W        W89573  15.784   0.286   1.273
28153W        W89574   4.781   1.340   2.788
28154W        W89575  23.209  44.290   3.702
28155W        W89576  29.581  35.927   1.359
28156W        W89577  29.583  29.969   0.298
28157W        W89578  40.842  16.073   3.744
28158W        W89579   4.915  23.573   2.232
28159W        W89580  35.549  25.073   1.435
28160W        W89581  10.291  17.201   1.422
28161W        W89582   6.678  28.039  13.835
28162W        W89583   9.884  20.671   2.670
28163W        W89584  29.923  37.969  13.888
28164W        W89585  34.559  28.997   1.230
28165W        W89586   0.343  28.511   1.892
28166W        W89587  38.040  33.515   1.315
28167W        W89588  31.416   9.697  11.405
28168W        W89589  28.593  41.449  12.380
28169W        W89590  10.301  23.011   2.839
28170W        W89591   1.970  27.450   4.351
28171W        W89592  11.369  35.011  12.848
28172W        W89593   4.880  32.055   3.781
28173W        W89594   3.762  24.203   5.777
28174W        W89595  25.001  10.718   0.315
28175W        W89596  38.846  21.623  11.409
28176W        W89597  33.063  41.307  12.360
28177W        W89598  35.534   5.923  10.894
28178W        W89599  41.472  28.945   0.450
28179W        W89600  20.675  22.070  14.961
28180W        W89601  22.626  32.557  11.061
28181W        W89602  36.559   9.258   4.266
28182W        W89603   4.698  34.044   3.257
28183W        W89604  42.505  29.923  11.518
28184W        W89605  22.253  38.888  11.501
28185W        W89606  23.083  31.485  14.328
28186W        W89607  27.135  32.959  13.870
28187W        W89608   1.472  11.753  14.380
28188W        W89609  42.435   5.330  10.972
28189W        W89610  11.338  16.281  12.832
28190W        W89611  39.903  12.249  14.965
28191W        W89612  37.927   9.845   3.288
28192W        W89613   7.896  28.956  11.385
28193W        W89614  36.083   7.691  13.462
28194W        W89615  14.328  18.238   4.195
28195W        W89616  33.049   0.769   2.786
28196W        W89617  27.163  22.629  10.894
28197W        W89618   7.755  14.789   0.434
28198W        W89619  24.675  38.502   3.313
28199W        W89620  38.565  27.661  10.632
28200W        W89621  38.519  38.461  13.328
28201W        W89622  11.705  23.137  12.555
28202W        W89623  30.146   1.356  12.064
28203W        W89624  37.569  16.228  13.944
28204W        W89625  31.114  14.116   2.665
28205W        W89626  14.147  30.004   2.810
28206W        W89627  27.983  23.029   4.833
28207W        W89628  12.118  18.566   1.451
28208W        W89629  31.071   7.279  10.896
28209W        W89630  39.061  21.127  12.082
28210W        W89631  18.782  10.867   0.431
28211W        W89632  36.852  24.988   4.640
28212W        W89633   3.934  42.869  13.859
28213W        W89634  37.518  32.970  13.403
28214W        W89635  12.652  23.020   4.778
28215W        W89636  33.899   1.404  13.527
28216W        W89637  24.712  34.395  14.865
28217W        W89638   5.706  11.816   0.287
28218W        W89639  17.621   8.886  14.003
28219W        W89640  13.183  11.814   3.712
28220W        W89641  34.895  10.242   1.861
28221W        W89642  42.956  36.527   0.434
28222W        W89643  30.930  33.486  14.392
28223W        W89644  43.328   6.416   2.782
28224W        W89645  15.663  21.170  12.016
28225W        W89646  11.845  33.904   3.813
28226W        W89647  39.929   5.327   3.638
28227W        W89648   3.760  13.756   2.195
28228W        W89649   1.841  21.031  11.035
28229W        W89650  28.642  16.728   4.623
28230W        W89651  30.042  32.106   9.970
28231W        W89652  11.644  34.074   2.719
28232W        W89653  33.507  13.603  12.086
28233W        W89654  34.594  44.003   3.644
28234W        W89655   2.363  37.514   3.209
28235W        W89656  36.053  28.983  11.974
28236W        W89657  30.513  37.421   2.776
28237W        W89658  14.274  43.402  12.504
28238W        W89659   8.401  33.908  11.436
28239W        W89660  30.510  42.926   4.154
28240W        W89661  21.599   5.788   3.630
28241W        W89662   3.369  34.456   1.316
28242W        W89663  32.465  26.174   4.805
28243W        W89664   3.405  18.092   4.834
28244W        W89665   6.378  21.696  12.043
28245W        W89666  39.901   5.714  13.832
28246W        W89667  18.712  27.194  13.825
28247W        W89668  25.667  14.191  10.479
28248W        W89669  37.537  33.939  13.029
28249W        W89670  43.988  10.839  12.927
28250W        W89671  35.464   1.246   3.249
28251W        W89672  32.469  40.909  11.460
28252W        W89673  34.889  37.443   4.155
28253W        W89674  14.157  43.330  10.952
28254W        W89675   4.803  19.578   5.286
28255W        W89676  43.942  42.375  14.350
28256W        W89677  34.395  29.133   2.188
28257W        W89678  23.500  31.900   1.255
28258W        W89679  33.595  26.114   1.735
28259W        W89680   9.795   0.855   1.301
28260W        W89681  36.462  41.525  11.857
28261W        W89682  32.394  20.696   3.648
28262W        W89683  31.517  30.453   2.236
28263W        W89684  13.143  27.547   3.322
28264W        W89685   8.201   9.221  11.880
28265W        W89686  17.657   0.806   1.358
28266W        W89687  29.641  44.400  11.872
28267W        W89688  37.360  39.534  12.430
28268W        W89689  40.945  10.282  12.966
28269W        W89690  31.113  14.332  14.324
28270W        W89691  21.707  22.672  11.884
28271W        W89692  37.484  40.412   4.698
28272W        W89693   8.269  33.380   1.756
28273W        W89694  21.112  26.475  10.065
28274W        W89695  40.392  11.656   4.114
28275W        W89696   2.230  15.721  10.517
28276W        W89697   9.802  25.093  11.893
28277W        W89698  35.444  44.831  12.543
28278W        W89699  26.097  10.647  13.309
28279W        W89700  24.144  32.103  14.361
28280W        W89701  29.058  43.880  14.439
28281W        W89702  37.363   5.841   1.808
28282W        W89703   4.389  29.541   2.188
28283W        W89704  12.339  24.170  13.796
28284W        W89705  16.277  20.560  13.791
28285W        W89706  24.671  12.331  10.945
28286W        W89707  11.713   3.726   3.744
28287W        W89708  42.491  41.983   0.325
28288W        W89709  24.573  31.896   3.363
28289W        W89710   5.229  33.018   4.618
28290W        W89711   9.683  39.362   2.787
28291W        W89712   3.938   3.876   3.661
28292W        W89713  33.116   4.313   0.301
28293W        W89714  26.177  22.718   4.249
28294W        W89715  12.615  27.041  12.962
28295W        W89716  40.047  35.058  11.009
28296W        W89717  15.656  10.345   2.720
28297W        W89718  38.970  43.502   3.295
28298W        W89719  10.153  43.324  14.834
28299W        W89720  13.789  17.257  12.925
28300W        W89721   8.712  29.111   1.819
28301W        W89722   6.870  41.466  13.329
28302W        W89723  16.626  19.556  13.341
28303W        W89724  23.069  35.919   0.862
28304W        W89725  31.901  17.086  13.966
28305W        W89726   6.378  41.936  13.453
28306W        W89727  39.527  24.161  10.524
28307W        W89728   6.350  36.580   1.353
28308W        W89729  43.456  37.062   1.397
28309W        W89730  20.730  41.998  13.412
28310W        W89731  39.937  11.214   4.251
28311W        W89732  18.241  11.639  11.069
28312W        W89733  38.531  40.980  12.868
28313W        W89734  23.027  12.347   4.655
28314W        W89735  20.541   7.712   4.738
28315W        W89736  39.961  31.579  11.396
28316W        W89737  15.810  22.533   0.852
28317W        W89738  31.491  41.531   1.752
28318W        W89739   9.848  26.086  13.453
28319W        W89740  24.102  20.657  10.892
28320W        W89741  29.509  24.479  13.325
28321W        W89742  32.403  16.733  10.438
28322W        W89743  13.790  25.214   4.234
28323W        W89744  43.502   1.462  14.900
28324W        W89745   9.341   0.427   4.200
28325W        W89746  41.814   3.909  14.769
28326W        W89747  10.811  22.224   2.306
28327W        W89748   8.309  35.864   4.612
28328W        W89749  22.047  41.372  14.327
28329W        W89750  36.045  35.378   4.151
28330W        W89751  38.344  41.957  13.869
28331W        W89752  27.147   8.189  11.462
28332W        W89753  33.907  42.959  12.974
28333W        W89754  19.747  27.029  11.605
28334W        W89755  24.484  12.787  13.937
28335W        W89756  36.856   6.746  12.935
28336W        W89757   1.464  33.927  12.492
28337W        W89758  12.241   1.886  11.967
28338W        W89759  30.097  28.546   1.272
28339W        W89760  39.432  40.863  10.972
28340W        W89761  39.476  39.550   1.883
28341W        W89762  38.417  16.660  14.821
28342W        W89763  33.616  34.070   3.255
28343W        W89764  31.535  12.306  14.984
28344W        W89765   1.390  39.386  10.602
28345W        W89766   8.820   1.245  14.890
28346W        W89767  42.978  14.765  11.501
28347W        W89768   7.311  31.919   2.851
28348W        W89769  18.638   9.852   0.391
28349W        W89770  16.255  11.174   2.408
28350W        W89771  16.658  14.611   1.320
28351W        W89772   5.766  20.101  13.474
28352W        W89773  34.493  26.007   0.308
28353W        W89774  24.645  26.495  13.983
28354W        W89775  26.558  41.793  13.830
28355W        W89776  11.233  18.289   2.706
28356W        W89777   5.332   2.244  13.962
28357W        W89778  10.201  20.250  11.041
28358W        W89779  41.986  17.616   3.172
28359W        W89780  41.799  35.490  11.477
28360W        W89781  38.957   2.836   1.715
28361W        W89782   4.716   6.881  12.463
28362W        W89783  29.433   1.872  14.986
28363W        W89784   8.398  34.591  12.455
28364W        W89785   4.754  28.954   0.469
28365W        W89786  27.684  24.634  12.568
28366W        W89787  37.471  22.083   4.238
28367W        W89788  13.119   5.196  13.855
28368W        W89789  22.040   8.879   4.113
28369W        W89790   4.918  12.643  12.833
28370W        W89791  15.223  25.544  12.927
28371W        W89792   0.358  13.757  13.476
28372W        W89793  15.721  24.056   5.194
28373W        W89794  39.899   1.947  10.489
28374W        W89795  28.518  21.146   1.289
28375W        W89796  31.596  14.180  11.471
28376W        W89797  33.577  26.620   3.832
28377W        W89798   3.361  38.414   1.328
28378W        W89799  38.416   5.338   0.275
28379W        W89800  13.140  11.759   2.273
28380W        W89801  11.652   5.350  12.069
28381W        W89802  17.596  30.909  10.159
28382W        W89803  21.236  39.544   0.386
28383W        W89804  43.433  43.368  13.533
28384W        W89805   7.861  15.718  14.330
28385W        W89806  40.973   1.469  14.491
28386W        W89807  32.910  17.749  13.543
28387W        W89808  44.371  33.922   0.858
28388W        W89809  39.370  28.557   2.786
28389W        W89810  17.087  12.820  12.387
28390W        W89811  43.813   6.741  11.062
28391W        W89812  20.145  27.598  11.109
28392W        W89813   8.285  44.348  12.544
28393W        W89814  41.337  16.730   3.747
28394W        W89815   8.173   1.415   3.380
28395W        W89816  14.817  25.585   3.255
28396W        W89817   6.358  39.411  14.299
28397W        W89818  27.669  31.957   0.872
28398W        W89819  31.486  15.094   0.745
28399W        W89820  16.295  24.085  14.489
28400W        W89821  31.531  32.110   1.299
28401W        W89822  13.130   4.402   2.766
28402W        W89823  19.230  40.353   3.834
28403W        W89824  29.536  12.240  11.588
28404W        W89825  27.638  15.286   3.787
28405W        W89826  15.298  41.477  13.507
28406W        W89827  25.023  38.957  13.492
28407W        W89828  25.565   8.260  12.826
28408W        W89829  44.839  24.678   1.766
28409W        W89830  36.036  19.589   3.688
28410W        W89831  23.507  35.490   2.795
28411W        W89832  26.151  38.326   2.899
28412W        W89833  14.207  11.202  14.864
28413W        W89834  39.357  15.591  14.454
28414W        W89835  19.688   2.881   0.737
28415W        W89836  19.196  10.177   2.250
28416W        W89837  41.919  16.692   4.218
28417W        W89838  25.470  16.635   2.286
28418W        W89839  40.947  30.420  13.344
28419W        W89840  15.716  33.391   3.702
28420W        W89841  28.646   9.281   0.885
28421W        W89842   4.314  19.250  12.929
28422W        W89843   7.283  26.528   3.251
28423W        W89844   3.229  34.024   4.306
28424W        W89845  21.202  37.087  12.833
28425W        W89846  10.142   1.886  13.813
28426W        W89847  19.277   4.893   3.636
28427W        W89848  30.918  10.238   2.229
28428W        W89849  28.154  37.956  14.371
28429W        W89850  27.172   5.418   3.340
28430W        W89851  23.703  28.446  11.966
28431W        W89852   0.469  38.442  13.941
28432W        W89853  12.297  21.209   0.960
28433W        W89854   5.216  18.645  11.016
28434W        W89855  25.993   3.917  13.994
28435W        W89856  36.969  28.669   2.182
28436W        W89857  39.023  26.479   3.152
28437W        W89858  17.286  28.075  11.951
28438W        W89859  36.470   3.451  14.834
28439W        W89860  19.090  33.505  12.528
28440W        W89861  16.205  18.183   5.172
28441W        W89862   3.286  29.535   0.445
28442W        W89863  42.947  13.328  13.918
28443W        W89864  14.228  24.994   3.212
28444W        W89865  21.069   0.471  14.973
28445W        W89866  35.066   4.781   2.793
28446W        W89867  22.510   5.194   1.753
28447W        W89868  12.356  20.589  14.392
28448W        W89869  13.223  39.354   0.421
28449W        W89870  31.935  36.077  11.872
28450W        W89871   9.718   1.776   0.845
28451W        W89872  24.045  35.061   0.253
28452W        W89873  28.546  34.104  13.797
28453W        W89874  28.027  35.422   0.286
28454W        W89875  42.969  11.714   1.745
28455W        W89876  41.028  21.139   3.705
28456W        W89877  36.876  31.424   2.851
28457W        W89878  28.107  42.889  14.909
28458W        W89879  33.609   8.350   2.763
28459W        W89880  19.254  41.371   0.440
28460W        W89881   2.820  25.624  10.925
28461W        W89882  39.833  36.083  11.417
28462W        W89883  43.845  18.278   0.734
28463W        W89884  30.132  18.133  14.919
28464W        W89885  20.655  21.733  14.327
28465W        W89886  14.680  32.581   9.923
28466W        W89887  17.772   3.330  10.472
28467W        W89888  40.807  30.109  12.381
28468W        W89889  12.836  43.962   2.329
28469W        W89890   3.948   7.341   0.845
28470W        W89891  36.424  17.121   1.859
28471W        W89892  34.912  41.316   5.171
28472W        W89893  43.495  16.126   9.501
28473W        W89894   7.722  19.105   1.401
28474W        W89895   5.905  34.599  10.896
28475W        W89896  32.038  44.986   2.797
28476W        W89897  24.186  18.547   3.149
28477W        W89898  39.963  11.216  10.630
28478W        W89899   6.414   8.706   1.761
28479W        W89900  37.395  10.234  10.476
28480W        W89901  37.414  28.075   4.247
28481W        W89902  23.191  30.529   4.642
28482W        W89903  26.676  11.368   1.230
28483W        W89904  28.004  36.865   2.338
28484W        W89905  20.588  37.552  13.322
28485W        W89906  23.635  16.283   1.904
28486W        W89907  30.145   6.737   4.204
28487W        W89908  41.489  39.470  12.935
28488W        W89909  34.947   1.324   0.760
28489W        W89910   6.424  31.598   3.701
28490W        W89911  10.652  27.985   1.327
28491W        W89912  29.939  12.229   3.693
28492W        W89913  37.366   9.290   1.233
28493W        W89914  44.847   6.743  13.794
28494W        W89915  13.113  11.325  14.495
28495W        W89916  36.077   5.331  10.489
28496W        W89917  37.437  28.497   1.914
28497W        W89918  29.923  27.944   1.770
28498W        W89919   7.216  41.336  10.434
28499W        W89920  25.610   5.803   4.681
28500W        W89921  16.646  31.640  11.922
28501W        W89922  13.340  18.234   0.871
28502W        W89923   2.842   4.256  14.900
28503W        W89924  10.333  37.998  12.844
28504W        W89925  18.114  13.185   0.332
28505W        W89926  19.685  22.072  10.421
28506W        W89927   6.210  26.688  13.005
28507W        W89928  43.927   4.402   0.357
28508W        W89929  21.720   3.409   3.188
28509W        W89930  41.974   6.265   3.713
28510W        W89931  33.898  26.131  12.542
28511W        W89932  37.888  26.121  10.578
28512W        W89933   6.384   9.196  12.557
28513W        W89934  26.527   1.259  10.528
28514W        W89935  34.536  31.642   0.953
28515W        W89936  29.009  17.138  11.039
28516W        W89937  19.670  36.511   5.294
28517W        W89938  15.604  16.688   4.194
28518W        W89939   1.732  37.564  11.590
28519W        W89940  21.258  29.611  11.901
28520W        W89941  13.168   2.352   1.763
28521W        W89942   9.196  36.857   3.233
28522W        W89943  11.259  36.871   1.852
28523W        W89944  25.668  19.548  13.948
28524W        W89945  41.469  20.590   3.184
28525W        W89946   9.329  32.632  10.922
28526W        W89947  35.061  22.607  13.358
28527W        W89948  39.889  44.778  12.428
28528W        W89949  15.613  13.788   2.718
28529W        W89950  19.219   3.753  10.964
28530W        W89951   4.723  16.177   2.858
28531W        W89952   3.896  17.658   1.849
28532W        W89953  10.750  20.616   4.808
28533W        W89954  23.172  34.548   2.407
28534W        W89955  32.886  31.614   4.209
28535W        W89956  22.080  27.553  10.936
28536W        W89957  28.585  38.369   0.752
28537W        W89958   6.773  27.670   3.284
28538W        W89959   2.770  37.075   1.373
28539W        W89960   6.320  19.655   4.789
28540W        W89961   4.374  34.092  12.555
28541W        W89962   9.203  14.215  13.436
28542W        W89963  34.467  15.285  13.836
28543W        W89964  30.100   1.379  13.415
28544W        W89965   5.756   7.813  12.977
28545W        W89966  23.641  32.590   0.887
28546W        W89967  15.814   2.788  11.126
28547W        W89968  14.606  35.027   0.860
28548W        W89969  10.271   2.769   4.303
28549W        W89970  30.966   7.386   4.343
28550W        W89971   7.881  19.691  10.562
28551W        W89972  22.623  36.003   4.744
28552W        W89973  28.117  28.162  14.463
28553W        W89974   1.949  13.817  13.880
28554W        W89975  33.103   5.792   4.149
28555W        W89976  13.815  28.492   3.357
28556W        W89977  10.812  20.056  13.003
28557W        W89978   5.865   5.391   9.644
28558W        W89979  23.526   2.231   2.672
28559W        W89980   3.223  37.075   1.253
28560W        W89981  42.854  19.655   0.860
28561W        W89982  17.289  18.662   2.741
28562W        W89983  37.549  41.479  10.105
28563W        W89984  28.484  29.035  12.899
28564W        W89985  40.857  43.436  13.976
28565W        W89986  12.757  12.844   3.289
28566W        W89987   4.769  36.993  10.525
28567W        W89988  13.747  18.129   2.253
28568W        W89989  19.039  13.304   9.557
28569W        W89990  31.558   6.811  10.486
28570W        W89991  41.867  44.965   4.303
28571W        W89992  13.337  33.617  14.397
28572W        W89993  15.777  23.084  13.881
28573W        W89994  35.987   5.241  13.925
28574W        W89995   7.770   6.219  14.375
28575W        W89996  41.983  43.487   0.321
28576W        W89997  28.662   2.333  12.361
28577W        W89998   9.176  41.818  13.042
28578W        W89999  15.622  22.599  13.049
28579W        W90000   3.449   7.678  12.912
28580W        W90001  31.959  37.368   2.355
28581W        W90002  30.931  32.407  11.533
28582W        W90003  34.091  35.067   0.478
28583W        W90004  26.957  28.049  11.090
28584W        W90005  21.563  34.029  12.340
28585W        W90006   2.821  44.992   0.964
28586W        W90007  44.831  26.689  13.322
28587W        W90008  25.693   7.775   2.891
28588W        W90009  39.886  35.479  11.036
28589W        W90010  43.313  15.134   1.784
28590W        W90011  15.651  27.639   2.364
28591W        W90012  12.186   9.302  10.641
28592W        W90013   6.290  23.021  10.911
28593W        W90014  13.165  43.513   4.188
28594W        W90015  15.206  18.695  11.462
28595W        W90016  34.906  23.584   4.810
28596W        W90017  14.710  34.449   2.782
28597W        W90018  21.577  35.538   3.174
28598W        W90019  20.124  37.965  13.414
28599W        W90020   2.755  36.527   2.839
28600W        W90021  11.679  30.102  11.935
28601W        W90022  18.789   9.714   4.603
28602W        W90023  26.548  17.159   2.345
28603W        W90024  36.843  39.396   0.949
28604W        W90025  25.001  30.054   4.726
28605W        W90026   3.243  31.135   2.869
28606W        W90027   4.832   7.247   2.348
28607W        W90028  42.832  26.475  14.931
28608W        W90029  16.590  22.222  12.061
28609W        W90030  29.992  14.690  10.533
28610W        W90031   3.438  30.621   1.385
28611W        W90032   1.463   8.846   0.477
28612W        W90033   2.415  42.312   4.139
28613W        W90034  14.637  40.811  10.544
28614W        W90035  12.341  32.896   9.439
28615W        W90036  17.649   3.232   2.871
28616W        W90037  13.668  30.478   2.303
28617W        W90038  30.057  28.103  11.919
28618W        W90039   2.852   2.828  14.370
28619W        W90040  35.573  13.703   2.270
28620W        W90041  27.515   6.232  11.509
28621W        W90042  39.532  42.807  11.973
28622W        W90043  32.089  33.960   1.773
28623W        W90044  25.095  34.411  14.416
28624W        W90045  44.956   0.390  11.968
28625W        W90046  14.674  13.837   4.783
28626W        W90047  25.076  31.048   2.898
28627W        W90048  35.869  13.243  14.864
28628W        W90049   3.731   4.931  10.430
28629W        W90050  26.024  36.083  12.467
28630W        W90051  30.600   7.326  13.332
28631W        W90052   3.868  23.659  13.009
28632W        W90053   2.864  11.842  11.882
28633W        W90054  15.224  33.006   3.785
28634W        W90055  32.395   3.879   3.793
28635W        W90056   2.338  26.102  14.287
28636W        W90057  34.431  32.119  14.496
28637W        W90058  31.934   2.766   5.191
28638W        W90059   9.870  32.910  11.107
28639W        W90060   2.319  39.377   3.273
28640W        W90061  37.524  33.498  12.078
28641W        W90062  26.608  13.340   2.897
28642W        W90063   4.333   7.700   3.228
28643W        W90064  25.520  28.186   2.790
28644W        W90065   8.750  43.294  11.941
28645W        W90066  37.491  36.536   3.835
28646W        W90067  41.482   2.814   3.374
28647W        W90068  25.064  34.876  13.498
28648W        W90069  36.573  29.509   3.207
28649W        W90070   8.707   2.731  11.858
28650W        W90071  20.551   7.343   1.362
28651W        W90072  12.247   7.781   3.642
28652W        W90073  34.476   0.836  11.522
28653W        W90074  13.838  40.831  12.949
28654W        W90075   0.780  29.619  13.042
28655W        W90076  38.347  35.052   4.171
28656W        W90077  30.444   4.792  11.002
28657W        W90078  23.718  22.622  12.516
28658W        W90079  21.185  28.100  14.905
28659W        W90080  23.654   2.830  14.412
28660W        W90081  20.166  27.505  14.371
28661W        W90082   8.775   9.799   4.796
28662W        W90083  28.931  35.884   2.882
28663W        W90084  37.407  36.386  13.432
28664W        W90085  37.484   8.197   1.316
28665W        W90086  24.054  16.776   0.406
28666W        W90087  39.814   2.856  11.475
28667W        W90088  37.941  23.571   9.996
28668W        W90089   3.821  16.145   1.703
28669W        W90090   3.788   1.740  12.922
28670W        W90091  11.269  16.786   2.196
28671W        W90092  26.079  38.024  12.394
28672W        W90093  31.588   5.800   0.480
28673W        W90094   9.668  27.482   3.657
28674W        W90095  33.547  32.620  12.841
28675W        W90096  31.415  36.975  12.421
28676W        W90097  18.591  32.630   3.733
28677W        W90098  22.611  19.277   0.386
28678W        W90099  29.987  22.178  14.486
28679W        W90100  30.021  27.013  14.969
28680W        W90101  17.169  41.008  13.970
28681W        W90102  24.229  11.140  10.951
28682W        W90103   4.708  43.390   1.777
28683W        W90104  20.762  14.216   1.319
28684W        W90105  33.539  14.801   2.708
28685W        W90106  20.554  22.521  14.851
28686W        W90107   0.280  42.304  14.292
28687W        W90108  17.772  35.434  13.472
28688W        W90109  26.022  18.063   1.324
28689W        W90110  40.872  20.070  10.998
28690W        W90111  31.599  28.641   2.381
28691W        W90112  18.659   8.317  14.326
28692W        W90113  42.452  29.099   3.183
28693W        W90114   7.848  25.607  13.344
28694W        W90115  23.052  44.974   0.952
28695W        W90116  15.220  21.611   0.441
28696W        W90117   3.880  30.548  12.025
28697W        W90118  24.193  20.063   3.756
28698W        W90119   3.222  40.868  11.439
28699W        W90120   8.222  44.273   3.297
28700W        W90121  32.995  31.105   3.649
28701W        W90122  40.366  30.125  14.320
28702W        W90123  16.196  44.935   3.848
28703W        W90124   7.374  36.917   1.389
28704W        W90125  26.493  11.328  12.422
28705W        W90126  14.318  21.556  11.099
28706W        W90127  25.596   8.668  10.499
28707W        W90128  16.224  13.301   1.700
28708W        W90129  18.252  37.004  12.055
28709W        W90130  13.806  43.959  11.004
28710W        W90131   4.349  37.053   0.900
28711W        W90132  26.673  30.141  13.369
28712W        W90133   1.440  14.832  10.563
28713W        W90134  24.179  33.940  12.871
28714W        W90135  32.589  11.832   9.973
28715W        W90136  41.453  37.428   4.618
28716W        W90137  28.444  17.182   2.246
28717W        W90138  32.500  13.235   0.362
28718W        W90139  32.533  29.647   1.240
28719W        W90140  30.459  26.118   1.924
28720W        W90141  27.046  44.366  13.884
28721W        W90142  25.073   1.396   1.707
28722W        W90143   9.299  18.166  12.937
28723W        W90144  13.154   9.723  11.913
28724W        W90145  18.545  41.997   0.902
28725W        W90146  38.420  44.461  10.966
28726W        W90147  35.928  32.960  14.404
28727W        W90148  41.445   9.305   2.282
28728W        W90149  34.060  34.111   0.302
28729W        W90150  27.070   6.231   4.749
28730W        W90151   2.466  23.555   0.328
28731W        W90152  21.513  31.011   4.779
28732W        W90153  19.740  16.602   1.291
28733W        W90154  24.018  40.514   0.850
28734W        W90155  11.305   8.826   2.222
28735W        W90156   0.744  18.579  11.890
28736W        W90157   3.313  21.577   3.772
28737W        W90158  14.097  31.916  13.877
28738W        W90159  32.006   2.800   2.389
28739W        W90160  26.603  29.539   3.201
28740W        W90161  14.599  26.632   1.891
28741W        W90162   0.474  21.584  10.591
28742W        W90163  22.244  34.476  13.475
28743W        W90164   2.790  34.908  13.536
28744W        W90165  32.570  23.531  12.545
28745W        W90166   6.427  32.129  13.449
28746W        W90167  14.198   1.941   2.373
28747W        W90168  31.914  42.462   3.237
28748W        W90169  17.188  38.345   2.325
28749W        W90170  12.751   2.898   0.419
28750W        W90171  29.078  43.968   0.937
28751W        W90172   3.755  34.615  11.495
28752W        W90173  33.092   5.783   3.664
28753W        W90174  36.847   9.295  11.039
28754W        W90175  17.136  10.323  14.314
28755W        W90176  31.624  10.315   3.146
28756W        W90177  38.040  27.091   1.260
28757W        W90178   1.875  21.171  14.770
28758W        W90179  35.540   5.317   3.153
28759W        W90180  29.946   2.364  14.934
28760W        W90181   4.417  36.397   2.249
28761W        W90182  24.574  40.049  14.816
28762W        W90183  34.614  20.734  13.896
28763W        W90184  41.503  24.593  13.410
28764W        W90185  18.767  34.023  14.406
28765W        W90186  31.000   1.848  12.431
28766W        W90187  12.643  27.986   0.275
28767W        W90188  25.625  31.496  13.547
28768W        W90189  13.292  14.777  11.981
28769W        W90190  44.403  16.786  11.988
28770W        W90191  10.653  34.968  11.610
28771W        W90192  41.805  28.569  11.099
28772W        W90193   4.327  40.943   3.759
28773W        W90194   8.857  31.942  13.510
28774W        W90195  28.092  23.618  14.919
28775W        W90196  15.093   9.152  10.596
28776W        W90197  10.759  25.099  11.581
28777W        W90198  41.514   9.757   0.328
28778W        W90199  14.308  29.099  10.564
28779W        W90200  36.070  21.058  11.532
28780W        W90201  11.851  42.911  11.948
28781W        W90202  13.122  29.103  11.444
28782W        W90203  20.560  10.368  11.447
28783W        W90204  37.535   7.366  14.425
28784W        W90205  24.221  44.314  10.004
28785W        W90206   7.213  38.978  11.524
28786W        W90207  42.501   7.800  11.575
28787W        W90208  38.946  24.042   3.768
28788W        W90209  27.682  40.911   2.867
28789W        W90210   7.344  23.541   9.936
28790W        W90211   2.876  43.418   1.891
28791W        W90212  19.769  39.952   2.345
28792W        W90213   8.688  43.350   1.365
28793W        W90214   2.385   5.284  13.850
28794W        W90215  14.810  27.104   0.272
28795W        W90216  21.680  21.186   0.325
28796W        W90217  31.940  29.465   0.399
28797W        W90218  36.453  33.910  14.970
28798W        W90219  41.402   8.216  11.082
28799W        W90220  19.594  16.766   2.700
28800W        W90221  41.486  34.521  10.892
28801W        W90222  21.750  37.434   1.340
28802W        W90223  34.905  22.058   1.444
28803W        W90224   8.327   1.942   4.134
28804W        W90225  44.944  20.632   1.902
28805W        W90226  30.560  22.705  13.911
28806W        W90227  39.513  28.038  13.469
28807W        W90228   3.716   2.770   2.321
28808W        W90229   4.365  29.615  12.460
28809W        W90230  40.305  42.442   0.378
28810W        W90231  44.999  25.095   0.260
28811W        W90232   9.236  14.251  13.037
28812W        W90233  43.989  35.542   3.770
28813W        W90234  35.472   5.929   2.407
28814W        W90235  24.595  37.373   2.892
28815W        W90236  11.338  29.174  10.568
28816W        W90237  26.573  40.307   4.671
28817W        W90238   6.822   0.886   2.832
28818W        W90239  42.841  11.774  12.345
28819W        W90240  10.295  38.831  14.819
28820W        W90241  33.593  24.497   1.783
28821W        W90242   3.735   2.466   3.836
28822W        W90243   2.926  27.543   1.708
28823W        W90244  15.194   9.284   4.237
28824W        W90245   3.855  36.906  12.386
28825W        W90246   4.303  37.984  11.980
28826W        W90247  32.086   9.179  12.431
28827W        W90248   5.779   9.717  14.784
28828W        W90249   9.387  15.179   2.343
28829W        W90250   5.925   8.754  13.373
28830W        W90251  36.474  30.078   4.116
28831W        W90252  11.140  44.787   3.256
28832W        W90253  15.152  30.534  14.412
28833W        W90254  28.659   2.450   2.203
28834W        W90255   4.918   8.821  11.495
28835W        W90256  33.397  17.586  10.605
28836W        W90257  35.026   6.770   2.392
28837W        W90258  38.327  22.504  12.472
28838W        W90259  43.848   6.798  11.455
28839W        W90260  20.655  30.589  14.004
28840W        W90261  14.683  21.144  11.041
28841W        W90262  14.689   8.196  12.023
28842W        W90263  43.351   1.940   3.632
28843W        W90264  22.576  22.211  10.946
28844W        W90265  43.425   1.759   2.414
28845W        W90266  15.609  33.111   1.900
28846W        W90267   5.865  14.705   4.132
28847W        W90268  20.524  13.709   5.301
28848W        W90269  29.547  30.477   2.347
28849W        W90270  40.898   6.379   0.325
28850W        W90271  38.326  35.434  10.538
28851W        W90272  17.081  14.273  14.989
28852W        W90273   9.746  12.334   0.323
28853W        W90274  43.471   8.766  13.386
28854W        W90275  15.761   7.187  14.876
28855W        W90276  34.490  27.052   4.238
28856W        W90277  27.964  41.479  13.835
28857W        W90278  10.321  16.142   2.758
28858W        W90279   0.485  11.231  13.017
28859W        W90280  32.085  28.640  11.112
28860W        W90281  15.204  29.641   0.458
28861W        W90282  37.461   4.921  11.448
28862W        W90283  11.283  41.495   0.867
28863W        W90284  39.534  21.607  10.607
28864W        W90285  42.788  17.688  13.015
28865W        W90286   1.460   4.213   4.182
28866W        W90287  18.126  12.247   1.878
28867W        W90288   6.752  22.147   3.830
28868W        W90289   9.797   2.294  11.500
28869W        W90290  11.800  40.039   1.888
28870W        W90291  31.462  25.471   1.296
28871W        W90292  30.415  14.244  13.909
28872W        W90293  39.342  21.596  10.993
28873W        W90294  14.148   8.341   2.851
28874W        W90295  41.336  40.487   2.751
28875W        W90296  35.401  36.862   0.847
28876W        W90297   6.699  44.838   3.366
28877W        W90298   4.291  28.140  12.964
28878W        W90299  15.609  30.005   5.204
28879W        W90300  16.155  23.551  13.458
28880W        W90301  42.367  22.507  11.479
28881W        W90302  22.693  40.448   5.293
28882W        W90303   3.872  15.652  10.995
28883W        W90304  31.995  31.026  10.970
28884W        W90305  28.650   4.831  12.034
28885W        W90306  38.567  12.339   3.195
28886W        W90307   5.905  10.641   3.669
28887W        W90308  16.222  19.673  11.991
28888W        W90309   4.206   3.259  11.490
28889W        W90310   9.680   1.398   0.286
28890W        W90311  22.214  11.184  13.378
28891W        W90312  29.158  44.470  12.069
28892W        W90313  35.879  18.757   1.315
28893W        W90314  13.668   2.733  13.987
28894W        W90315  13.606  19.271   4.281
28895W        W90316   0.348  23.018  10.914
28896W        W90317  19.552   9.347  14.985
28897W        W90318  25.134  38.047  10.414
28898W        W90319  33.892  37.084   1.391
28899W        W90320  18.694  13.194  10.624
28900W        W90321   3.442  20.767   3.297
28901W        W90322  23.520  21.163  11.899
28902W        W90323   8.236  37.019  14.935
28903W        W90324  13.163  16.264   3.725
28904W        W90325  15.682  37.527  12.074
28905W        W90326  18.740  19.542   0.904
28906W        W90327  40.002   9.232  13.021
28907W        W90328   6.287  23.510   4.815
28908W        W90329  26.511  31.131  13.522
28909W        W90330  17.203  19.571  13.991
28910W        W90331  41.516   2.760   3.649
28911W        W90332  11.167  11.703  14.360
28912W        W90333  29.436  13.662   2.802
28913W        W90334   2.425  41.506   3.851
28914W        W90335  34.943  15.115   2.722
28915W        W90336  28.485  28.448  12.007
28916W        W90337  44.387  31.442   3.294
28917W        W90338   8.344  14.187  14.945
28918W        W90339  20.614  10.227   3.334
28919W        W90340  29.076  22.517   0.802
28920W        W90341   7.819  13.218   5.152
28921W        W90342  27.075  23.612   2.227
28922W        W90343  39.424  23.686   0.465
28923W        W90344  31.902  40.408  13.028
28924W        W90345  24.121  21.756   3.381
28925W        W90346   0.415  42.803   3.227
28926W        W90347  34.906   1.272  10.643
28927W        W90348  18.782   8.767   5.318
28928W        W90349  18.606  23.232  14.020
28929W        W90350  39.919  28.112  11.940
28930W        W90351  42.851  14.597  10.532
28931W        W90352  39.958   3.369  14.425
28932W        W90353   9.871  19.156   0.478
28933W        W90354   6.365  38.852  13.057
28934W        W90355  29.939  11.165   3.168
28935W        W90356  34.870  14.748  10.632
28936W        W90357   3.296  14.661   1.324
28937W        W90358  35.368  32.427  13.437
28938W        W90359   5.720  30.504  13.364
28939W        W90360  37.534  32.044  11.422
28940W        W90361  44.377   6.785   4.671
28941W        W90362   3.442  37.531  14.487
28942W        W90363   8.875  25.184  12.009
28943W        W90364  44.284  24.720  12.347
28944W        W90365  21.100  12.235   1.874
28945W        W90366   2.333  38.445  11.963
28946W        W90367  37.353  40.031  14.900
28947W        W90368   1.811  10.181   1.295
28948W        W90369  42.918   8.845   2.229
28949W        W90370  21.052  29.968   2.226
28950W        W90371  24.015  42.406  12.569
28951W        W90372  22.141  28.929   3.806
28952W        W90373  18.247  36.514   2.765
28953W        W90374  27.504   7.198   1.817
28954W        W90375  25.570  24.638  12.882
28955W        W90376  14.333   6.345   0.297
28956W        W90377   3.342   0.315  12.865
28957W        W90378  32.031   0.957   0.462
28958W        W90379  42.954  30.485  13.310
28959W        W90380  28.438  22.064  12.469
28960W        W90381  31.476  27.002   3.329
28961W        W90382  22.082   3.797  11.526
28962W        W90383  44.769  16.675  12.434
28963W        W90384   7.872  22.114   4.700
28964W        W90385   2.964  17.576  14.403
28965W        W90386  19.695  33.099  10.953
28966W        W90387  20.623  23.582   2.236
28967W        W90388  22.033   9.225   0.481
28968W        W90389  16.133  34.998  12.883
28969W        W90390  32.008  39.484   3.365
28970W        W90391   5.760  10.299   2.847
28971W        W90392  22.131  39.946  12.824
28972W        W90393  28.616  37.051   0.442
28973W        W90394  29.651  29.969   3.251
28974W        W90395  37.541  10.207   0.434
28975W        W90396  26.547   3.349   0.962
28976W        W90397  10.668  10.376  10.574
28977W        W90398   2.418  27.511  10.629
28978W        W90399  24.017   3.833  11.381
28979W        W90400  27.036  25.092  14.017
28980W        W90401  22.240  27.081   2.889
28981W        W90402  13.226  30.031   5.230
28982W        W90403  34.517  31.949  13.378
28983W        W90404  10.181  40.836   0.812
28984W        W90405  40.393   2.739  14.918
28985W        W90406  29.641   8.237  13.433
28986W        W90407  44.425  18.684   4.655
28987W        W90408  28.115  35.010   2.409
28988W        W90409  42.434  23.531  10.999
28989W        W90410  15.667  27.650   0.877
28990W        W90411  33.623  35.480   0.480
28991W        W90412  23.557  40.328   1.710
28992W        W90413   4.738  43.332   2.766
28993W        W90414  39.998  18.566   1.274
28994W        W90415  13.133  18.254   0.429
28995W        W90416  32.094  40.306  14.285
28996W        W90417  40.443  41.005  14.014
28997W        W90418   0.296  29.627  13.459
28998W        W90419  36.568  12.163   0.915
28999W        W90420  19.202  23.191   3.639
29000W        W90421  31.017   0.867  12.359
29001W        W90422  10.272   3.302   1.724
29002W        W90423  12.164  41.935   3.328
29003W        W90424   3.288  14.823  13.025
29004W        W90425   5.388   1.795   3.659
29005W        W90426   1.372   0.430   4.136
29006W        W90427  41.898  30.446   0.930
29007W        W90428  29.975  40.889  13.020
29008W        W90429  19.648  16.664   5.227
29009W        W90430   5.321  19.205  12.027
29010W        W90431  12.615   3.855   2.743
29011W        W90432  23.603  22.080  14.476
29012W        W90433  23.701  25.076  12.996
29013W        W90434  42.488  40.478   3.327
29014W        W90435  24.228   8.688   0.301
29015W        W90436  12.237  25.524   1.729
29016W        W90437  35.496   6.727  14.891
29017W        W90438  42.357  32.939  12.903
29018W        W90439  31.109   6.911  13.490
29019W        W90440  16.282  27.091   4.191
29020W        W90441   9.165  32.062  13.466
29021W        W90442  41.922  16.749  11.118
29022W        W90443  26.633  16.073  13.905
29023W        W90444   1.286  17.233   4.291
29024W        W90445  37.870  39.988  10.594
29025W        W90446  13.260  37.030  14.366
29026W        W90447  38.992  28.028  14.766
29027W        W90448  13.301   5.345   3.333
29028W        W90449  31.635  16.698   0.894
29029W        W90450  42.794  30.152  13.921
29030W        W90451  11.298   5.223  14.871
29031W        W90452  35.914  43.346  12.460
29032W        W90453  42.416  29.921   4.657
29033W        W90454  26.192   9.326   4.333
29034W        W90455   1.255  26.973   3.162
29035W        W90456  26.150  31.536  14.471
29036W        W90457  42.308  26.590   0.873
29037W        W90458  38.829  43.929   2.777
29038W        W90459  22.551  27.489   4.650
29039W        W90460  35.886  21.529   1.222
29040W        W90461   1.448  25.611  12.976
29041W        W90462  26.180  33.551   0.833
29042W        W90463  10.318   5.280  10.644
29043W        W90464  11.305  35.959   4.340
29044W        W90465  35.911  28.049  14.777
29045W        W90466  26.602  24.487  10.633
29046W        W90467  32.039  29.104   4.274
29047W        W90468  33.995  14.095  10.442
29048W        W90469   9.215  14.755   3.297
29049W        W90470  35.483  21.638   1.927
29050W        W90471   4.271  44.370   3.314
29051W        W90472  14.233  15.326   3.178
29052W        W90473  31.997  32.945  12.937
29053W        W90474   6.813  10.176  14.337
29054W        W90475  41.869  34.507   3.218
29055W        W90476   8.746  17.307   4.807
29056W        W90477  18.713  18.635  13.860
29057W        W90478  43.497  21.582  13.393
29058W        W90479   0.345  41.793   0.897
29059W        W90480  41.293  44.324   4.801
29060W        W90481   4.719   0.472  12.978
29061W        W90482   6.340   6.345  14.810
29062W        W90483  12.295  14.295  12.042
29063W        W90484  26.973  32.002   4.327
29064W        W90485  12.762  14.720  12.379
29065W        W90486  32.600  28.507  10.521
29066W        W90487  29.063  42.819   1.253
29067W        W90488  40.974  38.832  13.794
29068W        W90489  16.804   1.294  10.468
29069W        W90490  42.320  27.077  12.499
29070W        W90491  39.959  35.457   2.763
29071W        W90492   9.293  41.820   5.664
29072W        W90493  15.580  30.491   1.695
29073W        W90494   6.237  23.558   0.733
29074W        W90495   9.806  17.614  12.910
29075W        W90496  18.764  37.853  11.089
29076W        W90497  19.285   5.774  14.330
29077W        W90498  40.460  43.392   0.783
29078W        W90499   3.805  29.600   4.330
29079W        W90500  25.696  33.953  11.046
29080W        W90501  37.929  11.324   3.175
29081W        W90502  38.420   8.367  12.394
29082W        W90503  30.446   4.765   0.360
29083W        W90504  43.932  17.266  12.027
29084W        W90505   6.765  40.990  12.095
29085W        W90506  36.578  25.629  10.494
29086W        W90507   6.261   2.401  14.009
29087W        W90508  33.572  36.029   3.215
29088W        W90509  26.576  31.927  14.948
29089W        W90510  13.178  40.459   3.789
29090W        W90511   4.270   7.289  10.532
29091W        W90512  27.568  11.200  11.971
29092W        W90513  14.598  36.030   0.393
29093W        W90514   8.186  28.157   1.306
29094W        W90515   9.292  36.416   0.377
29095W        W90516   7.666  36.011   1.334
29096W        W90517   2.410  20.267   2.720
29097W        W90518  26.461  28.493   1.395
29098W        W90519  43.396  40.035  11.592
29099W        W90520  43.908  39.834  14.284
29100W        W90521   4.772  36.971  13.960
29101W        W90522   2.244  10.864   0.866
29102W        W90523  32.404  11.816   2.391
29103W        W90524  15.164  27.626  11.490
29104W        W90525  44.999  32.553  13.392
29105W        W90526  15.315  33.917  10.054
29106W        W90527  32.561  26.051   1.730
29107W        W90528   6.907  17.169   2.202
29108W        W90529  42.366  27.102   3.173
29109W        W90530   3.236  25.683   3.862
29110W        W90531  16.720  32.615   4.766
29111W        W90532   9.841  19.211   2.208
29112W        W90533  22.126  20.115  14.514
29113W        W90534  39.351  18.724   4.758
29114W        W90535  36.574   5.745  12.449
29115W        W90536  13.260  11.186  13.441
29116W        W90537  23.125   7.898  14.342
29117W        W90538   1.819  14.777   2.673
29118W        W90539  18.101  27.145   0.388
29119W        W90540  12.714  19.660   3.303
29120W        W90541  37.855  20.609  13.825
29121W        W90542  26.693  25.610  11.584
29122W        W90543  37.914  21.594  13.811
29123W        W90544  31.625   7.250  12.579
29124W        W90545  17.625  10.766  10.541
29125W        W90546   6.283   0.883   2.254
29126W        W90547  27.487  38.518  13.436
29127W        W90548  27.524  11.288  12.451
29128W        W90549  17.227   1.398   4.831
29129W        W90550  27.623  27.679  12.383
29130W        W90551  13.290   5.201   2.301
29131W        W90552  12.731   4.435   1.925
29132W        W90553   5.359  19.229   4.345
29133W        W90554  35.471   9.797  13.475
29134W        W90555  25.023  41.958   4.162
29135W        W90556   3.298  25.593   1.732
29136W        W90557  37.548  15.797   2.385
29137W        W90558  17.278  42.370  13.840
29138W        W90559  22.579   0.274  12.975
29139W        W90560  28.977   6.248  12.930
29140W        W90561  40.525   0.275  14.327
29141W        W90562  44.959  12.699  13.937
29142W        W90563  35.586  43.274   2.274
29143W        W90564  38.962  19.750   0.830
29144W        W90565  15.324   2.418   1.860
29145W        W90566  37.025  37.360   2.830
29146W        W90567  43.891  28.501  13.941
29147W        W90568   6.292  39.031  14.850
29148W        W90569  27.005   5.237   1.320
29149W        W90570  27.016  16.812  12.863
29150W        W90571  11.722  19.077  14.009
29151W        W90572  35.602  39.039  13.496
29152W        W90573  43.852  37.066  13.862
29153W        W90574   5.243  43.816  12.434
29154W        W90575  27.977  19.723  12.895
29155W        W90576   0.962   9.670   2.403
29156W        W90577   7.794  35.378  14.980
29157W        W90578  15.242  30.464  13.430
29158W        W90579  16.169   0.961  13.951
29159W        W90580  36.356  19.614  11.414
29160W        W90581  30.076  14.100   2.416
29161W        W90582  27.646  38.978   2.222
29162W        W90583  27.483  27.690  14.863
29163W        W90584   6.848  27.448  10.495
29164W        W90585  29.499  14.718  12.981
29165W        W90586  10.350  20.563   0.481
29166W        W90587   2.741  27.533   0.920
29167W        W90588  19.056  41.365  11.093
29168W        W90589   4.784  37.557  14.345
29169W        W90590  14.142   9.312   3.648
29170W        W90591  14.819  14.608   0.455
29171W        W90592  21.208  32.565  12.063
29172W        W90593  35.087  44.395  12.488
29173W        W90594  29.058   3.287  10.485
29174W        W90595  26.101  12.684  14.942
29175W        W90596  32.434  13.266  11.521
29176W        W90597  23.558   3.935   0.437
29177W        W90598   8.323  26.677  12.378
29178W        W90599   2.437  14.720   0.955
29179W        W90600  39.936  29.046  14.275
29180W        W90601  44.441  35.555   4.733
29181W        W90602  35.028  29.574  14.924
29182W        W90603  28.453  38.555   4.720
29183W        W90604   5.757  41.841  11.026
29184W        W90605  32.515  43.308   0.435
29185W        W90606  31.488  38.469   2.186
29186W        W90607  39.326  39.826  10.483
29187W        W90608   3.439  20.183  12.897
29188W        W90609   0.969  20.095   4.650
29189W        W90610  23.172  43.470   2.735
29190W        W90611  26.155  34.100   3.775
29191W        W90612  37.937   2.946   1.761
29192W        W90613  13.182   1.464  12.962
29193W        W90614  12.655  11.173  13.391
29194W        W90615   8.285  31.932   4.184
29195W        W90616  30.638  28.145   0.480
29196W        W90617  24.158  11.301  14.790
29197W        W90618  18.570  31.618  14.432
29198W        W90619  21.155  17.166  10.508
29199W        W90620  16.212  44.863  14.025
29200W        W90621  16.647   1.791  13.357
29201W        W90622  35.990  14.761  11.563
29202W        W90623  43.448  25.064  12.950
29203W        W90624  18.141  18.237   1.771
29204W        W90625  32.557  32.919   2.755
29205W        W90626  12.241   9.195  14.454
29206W        W90627  35.539  11.660   2.248
29207W        W90628  16.625  23.534   0.472
29208W        W90629  29.572  19.221   3.720
29209W        W90630  39.893   1.286   2.833
29210W        W90631  38.906   5.778  10.479
29211W        W90632  16.117  40.510  10.548
29212W        W90633  27.016   2.363   2.209
29213W        W90634  18.736   5.869   4.294
29214W        W90635  12.718  12.840  11.116
29215W        W90636  11.704  12.767  10.951
29216W        W90637  38.456  10.687   3.291
29217W        W90638   1.254  25.029  10.551
29218W        W90639  17.166  13.153  14.332
29219W        W90640  14.796  34.075   3.361
29220W        W90641  33.083  40.885  14.402
29221W        W90642  29.472  31.494   3.379
29222W        W90643  25.023  28.932  12.406
29223W        W90644  19.651  10.700   2.310
29224W        W90645   3.887   5.229   0.960
29225W        W90646  26.643  18.138   1.761
29226W        W90647  29.066  42.026   4.329
29227W        W90648  40.386  36.923   3.847
29228W        W90649  19.595   5.392   0.956
29229W        W90650  13.217  39.434  10.498
29230W        W90651  31.099  34.900  11.914
29231W        W90652  35.906  35.077  11.114
29232W        W90653   7.391  43.409   2.696
29233W        W90654  27.534  35.054   0.927
29234W        W90655  42.873  23.132   3.221
29235W        W90656   4.844   3.270  13.391
29236W        W90657  21.607  44.391   0.850
29237W        W90658  39.399  19.622  13.885
29238W        W90659   6.269  11.645  11.037
29239W        W90660  16.269  18.243  13.542
29240W        W90661   4.428  16.177  12.891
29241W        W90662  33.512  29.525   0.822
29242W        W90663  32.007   1.475   3.208
29243W        W90664  21.570   0.483   0.479
29244W        W90665  27.615  10.776   3.220
29245W        W90666  44.812  34.502  10.906
29246W        W90667  42.020  41.974   1.439
29247W        W90668  33.602   6.306   3.373
29248W        W90669   1.444  36.949   2.714
29249W        W90670  17.794  30.486  10.507
29250W        W90671  40.432  11.802   2.786
29251W        W90672  35.368  14.711   4.753
29252W        W90673   9.658   3.753  11.887
29253W        W90674  34.563  17.578   0.953
29254W        W90675  14.201  24.579  11.596
29255W        W90676  33.595  24.490   1.427
29256W        W90677  10.786  36.945  13.426
29257W        W90678   3.719   8.690   3.187
29258W        W90679  11.670  29.926   2.861
29259W        W90680  14.228  40.490   3.774
29260W        W90681  40.901   0.298  12.995
29261W        W90682  26.518  25.097  11.949
29262W        W90683  39.406  22.012  14.433
29263W        W90684  40.539  29.449  14.006
29264W        W90685  27.030  20.590  11.942
29265W        W90686  14.685  33.418  13.531
29266W        W90687  41.354  25.692  13.842
29267W        W90688  23.008  44.807  14.378
29268W        W90689  16.268  15.742   1.282
29269W        W90690  17.192  39.939  14.515
29270W        W90691   7.812  21.723  12.412
29271W        W90692  40.305   9.674   3.760
29272W        W90693  38.056  11.254   1.879
29273W        W90694  30.465  38.842  10.632
29274W        W90695   9.161  27.138  14.008
29275W        W90696  40.319  19.086  12.374
29276W        W90697  43.363  20.219  12.879
29277W        W90698  37.952  36.013  11.063
29278W        W90699  19.772  10.182   4.294
29279W        W90700   7.388   4.860   2.780
29280W        W90701  15.137   2.819   4.115
29281W        W90702  38.883   3.756  10.920
29282W        W90703  25.058  17.192   2.748
29283W        W90704  31.007  15.679   1.918
29284W        W90705  25.059  34.991  12.527
29285W        W90706  29.993  26.574  10.132
29286W        W90707  17.226   2.287   4.746
29287W        W90708  21.098  26.125   3.684
29288W        W90709  13.814   0.381  12.042
29289W        W90710  26.098  37.948  14.767
29290W        W90711  27.492  21.535   4.309
29291W        W90712   7.214  33.937  14.403
29292W        W90713  15.700  10.836  11.413
29293W        W90714  18.117  10.647   3.293
29294W        W90715  22.569  36.375   2.292
29295W        W90716   5.892  18.773   1.443
29296W        W90717   3.803   0.988  14.958
29297W        W90718  32.519  21.574   1.451
29298W        W90719   5.241  28.643  12.884
29299W        W90720   2.864  24.562  13.799
29300W        W90721  40.318   2.424  10.905
29301W        W90722   0.908   5.284   3.380
29302W        W90723  22.589  26.022  12.468
29303W        W90724  17.601  19.237  13.933
29304W        W90725  28.494  22.648   1.784
29305W        W90726  13.669  33.496   0.847
29306W        W90727  27.496  19.085  13.813
29307W        W90728  30.107   4.282  10.932
29308W        W90729  32.059  25.604   3.285
29309W        W90730  34.546  19.707  13.031
29310W        W90731  37.054  32.067  12.863
29311W        W90732  29.516  44.973   1.922
29312W        W90733  34.489  41.003   0.821
29313W        W90734   7.840  12.736   4.664
29314W        W90735  33.393  38.059  13.934
29315W        W90736  32.571  11.212  14.442
29316W        W90737  22.539  25.182   3.350
29317W        W90738   1.339  19.089   4.757
29318W        W90739  11.370  11.635  13.026
29319W        W90740  32.466   3.420  14.397
29320W        W90741  34.997  38.500  11.577
29321W        W90742  42.811   0.416   2.825
29322W        W90743   8.873   9.849  13.039
29323W        W90744  21.089  43.887  12.479
29324W        W90745  33.001   2.949   3.778
29325W        W90746   7.303  11.721  10.605
29326W        W90747  32.492  15.618   2.213
29327W        W90748  32.056  15.714   3.754
29328W        W90749  27.104  43.928  11.876
29329W        W90750  20.196  30.589  11.438
29330W        W90751  18.284  10.852   4.221
29331W        W90752   3.893  37.862  10.611
29332W        W90753  43.843  30.603  13.955
29333W        W90754  25.176  28.168   0.962
29334W        W90755   1.945   4.275   2.330
29335W        W90756   4.884  16.608   3.266
29336W        W90757  42.978  24.103   4.772
29337W        W90758  36.452  21.522  11.526
29338W        W90759  23.165  15.780  12.563
29339W        W90760  34.091  26.688  13.395
29340W        W90761  15.578  21.697   1.762
29341W        W90762  31.972  41.789   3.150
29342W        W90763  31.541   2.873  13.960
29343W        W90764   5.857  39.374  14.466
29344W        W90765  12.728  34.417  12.502
29345W        W90766  29.468   9.828   2.348
29346W        W90767  34.560  26.083   4.193
29347W        W90768  44.278  25.594  12.053
29348W        W90769  35.993  10.775   3.256
29349W        W90770  12.619  13.111  14.392
29350W        W90771  16.653  31.559   0.745
29351W        W90772  19.591   1.859   1.701
29352W        W90773  17.722  17.579   5.188
29353W        W90774  13.784  16.198   4.686
29354W        W90775   9.658  10.818  13.348
29355W        W90776  32.607  27.571  14.915
29356W        W90777  10.739  36.389   2.750
29357W        W90778   4.406  16.221   2.849
29358W        W90779   0.342   6.251  14.908
29359W        W90780  26.971  29.053   3.715
29360W        W90781  16.236   7.312  12.890
29361W        W90782  32.619  21.105   4.641
29362W        W90783  30.081   3.338   4.182
29363W        W90784  12.298  20.723   2.335
29364W        W90785   5.778  30.418  13.039
29365W        W90786   4.903  23.692  12.525
29366W        W90787  19.673  38.008   2.356
29367W        W90788  31.078  42.003   2.215
29368W        W90789  24.014  15.278  14.411
29369W        W90790   9.813  26.989   0.952
29370W        W90791  25.653  19.597   1.869
29371W        W90792  25.046  25.607   3.374
29372W        W90793  14.704  42.911  14.472
29373W        W90794  25.970  28.521  14.889
29374W        W90795   6.851  27.186  12.482
29375W        W90796   8.848  37.962   4.120
29376W        W90797  18.703  40.403   0.888
29377W        W90798  39.952   5.218   1.319
29378W        W90799   3.953  27.632   1.757
29379W        W90800  21.715  27.578  12.545
29380W        W90801   3.357  30.966  14.846
29381W        W90802  40.538  27.673   2.187
29382W        W90803  43.894   9.659  12.503
29383W        W90804  35.602  26.203  14.877
29384W        W90805  18.243  41.486   2.178
29385W        W90806   8.198   5.923  10.555
29386W        W90807  43.983  20.208  11.991
29387W        W90808  15.764   9.340  12.528
29388W        W90809  15.128  15.744   5.149
29389W        W90810  20.642  29.012  14.024
29390W        W90811  15.163  40.883  13.034
29391W        W90812  31.066  36.552   2.716
29392W        W90813   8.856  12.187  14.760
29393W        W90814  30.066  22.638  11.105
29394W        W90815  33.486  19.698   2.245
29395W        W90816   3.891   9.295  11.955
29396W        W90817   1.924  27.113   2.293
29397W        W90818   6.310  44.467  10.620
29398W        W90819  21.213  39.411  13.402
29399W        W90820  37.568  32.509   3.828
29400W        W90821  25.554   1.431   0.478
29401W        W90822  39.508  35.592  13.494
29402W        W90823  35.360  37.412  12.527
29403W        W90824  18.135   2.953  14.804
29404W        W90825  43.425   2.829  11.007
29405W        W90826  30.943   0.786  13.944
29406W        W90827  14.130   6.227  14.280
29407W        W90828  14.206  40.523  10.560
29408W        W90829  41.300  41.341   4.275
29409W        W90830  28.063   0.838   4.125
29410W        W90831   9.804  44.413   1.220
29411W        W90832  44.501   1.836  11.872
29412W        W90833  41.995  44.766   1.295
29413W        W90834  29.595  12.647  12.964
29414W        W90835  27.033  15.594  11.906
29415W        W90836   5.919  40.460   4.238
29416W        W90837  35.104  16.256   1.325
29417W        W90838  18.787  21.172   9.922
29418W        W90839  22.153   2.748   4.655
29419W        W90840  25.626  30.561   0.427
29420W        W90841  19.247  17.103   0.344
29421W        W90842  37.983  11.247   1.341
29422W        W90843  30.583  30.050  14.859
29423W        W90844  44.267  21.712  10.453
29424W        W90845   2.795   6.388   3.839
29425W        W90846  11.744  32.886  14.377
29426W        W90847  35.085  27.548  13.409
29427W        W90848  11.214   8.287   3.652
29428W        W90849  18.712  37.481   4.702
29429W        W90850  11.342   4.393  14.866
29430W        W90851  20.669  25.150  14.777
29431W        W90852  41.797   6.296  14.997
29432W        W90853   4.389  15.189   1.738
29433W        W90854  32.577  39.836  11.099
29434W        W90855  21.731  32.610  13.467
29435W        W90856  39.879  27.005   3.818
29436W        W90857   3.804   5.804  12.842
29437W        W90858  23.535  22.611   1.863
29438W        W90859   7.680  29.129  13.844
29439W        W90860  20.625   0.320   1.226
29440W        W90861  44.968   8.666   2.680
29441W        W90862  11.640  17.709   0.906
29442W        W90863  44.894  25.482  12.424
29443W        W90864  15.774  11.761   2.713
29444W        W90865   3.461  35.388   2.681
29445W        W90866  39.926  44.965  10.421
29446W        W90867  24.132  11.248   2.772
29447W        W90868  16.572  23.205   4.276
29448W        W90869  38.073   8.865  14.974
29449W        W90870  35.962   9.190   4.732
29450W        W90871   2.366  35.517   4.232
29451W        W90872   9.287  41.972  14.387
29452W        W90873  27.028   3.902  11.007
29453W        W90874   6.212  23.696   1.438
29454W        W90875  28.034  23.153   2.892
29455W        W90876  39.968  41.921   1.752
29456W        W90877   3.459  15.757  11.439
29457W        W90878  34.892  16.110  14.869
29458W        W90879   8.661  41.507   1.405
29459W        W90880  34.601  28.548   2.359
29460W        W90881  17.641  34.563  11.517
29461W        W90882  11.275  18.055  12.495
29462W        W90883   8.719   8.887  11.937
29463W        W90884  37.051  31.992   0.374
29464W        W90885  13.271  20.230  12.871
29465W        W90886  30.601   3.906   2.707
29466W        W90887  13.801  18.156   3.219
29467W        W90888  24.195  35.924   2.319
29468W        W90889  25.134  30.014   2.375
29469W        W90890  23.034   4.700  13.519
29470W        W90891  20.234  37.966   4.143
29471W        W90892  40.440  22.613   4.173
29472W        W90893   1.948  28.603   2.404
29473W        W90894   9.850  22.159  11.548
29474W        W90895  31.522  22.555  10.497
29475W        W90896   2.375  35.950  11.011
29476W        W90897  42.985  26.565  14.289
29477W        W90898  29.661  18.180  12.507
29478W        W90899  14.777  23.194  11.941
29479W        W90900  13.837  18.596  10.519
29480W        W90901   6.722  38.924  13.328
29481W        W90902  28.667  39.981  14.983
29482W        W90903  42.310  37.465  13.028
29483W        W90904  30.450  31.502   4.610
29484W        W90905  44.352  32.396   3.226
29485W        W90906  25.520  44.443  10.977
29486W        W90907  35.001   5.333  12.836
29487W        W90908  35.859  13.177   0.733
29488W        W90909  29.550  35.969   0.347
29489W        W90910  19.108  33.124  13.365
29490W        W90911  33.612  23.155   4.246
29491W        W90912   1.940  42.311  10.460
29492W        W90913  18.732  14.757   3.159
29493W        W90914  35.505  21.116  11.594
29494W        W90915  16.235  14.329  13.415
29495W        W90916  10.683  32.455   1.924
29496W        W90917  44.908  35.026  12.958
29497W        W90918  25.569   7.776   0.346
29498W        W90919  28.614  17.771  12.850
29499W        W90920  11.132   4.299   2.369
29500W        W90921  25.506  16.317   0.313
29501W        W90922   0.464  16.189  12.993
29502W        W90923   8.684   2.939   3.199
29503W        W90924   2.347  14.288  12.491
29504W        W90925  11.739  31.911  13.064
29505W        W90926  43.363  19.636   0.420
29506W        W90927  41.483   9.787  11.123
29507W        W90928   5.792  21.176   2.365
29508W        W90929  29.544  17.679  11.082
29509W        W90930  26.512  16.748  13.507
29510W        W90931  34.951  21.535  12.851
29511W        W90932  37.486  26.594  13.797
29512W        W90933   3.406   2.443  12.878
29513W        W90934   0.855  35.107  10.544
29514W        W90935  32.934  15.214  12.043
29515W        W90936  10.703  15.683  10.138
29516W        W90937   6.680  38.048   2.291
29517W        W90938   8.254  30.019  14.299
29518W        W90939   2.278  26.101  14.952
29519W        W90940  19.571   6.390  12.982
29520W        W90941  17.615   1.260   1.441
29521W        W90942  43.912  33.554   2.268
29522W        W90943   0.936  24.226   5.099
29523W        W90944  11.746  35.940   4.793
29524W        W90945  10.677  31.437  14.387
29525W        W90946  14.668  23.593  14.506
29526W        W90947  18.626   2.465  14.311
29527W        W90948   4.206  18.282  13.798
29528W        W90949   2.392  38.896   3.808
29529W        W90950  27.575   5.902  11.871
29530W        W90951  22.585  33.011   3.343
29531W        W90952  28.178  24.990   3.783
29532W        W90953   9.184  33.379  11.926
29533W        W90954  40.401  37.457  12.340
29534W        W90955  40.508  34.557  13.456
29535W        W90956  11.333  13.234   4.147
29536W        W90957  16.657  32.122  14.301
29537W        W90958  20.586  37.885  12.449
29538W        W90959   0.787  19.061   1.729
29539W        W90960  26.585  22.164  14.016
29540W        W90961   6.807  31.638  11.978
29541W        W90962  20.147  17.795  12.908
29542W        W90963  17.246  16.253  13.402
29543W        W90964   8.212  10.642  11.126
29544W        W90965  37.508  40.030  12.079
29545W        W90966  26.047   7.749   0.410
29546W        W90967   8.870   4.290   3.856
29547W        W90968  11.215  18.094  12.897
29548W        W90969  21.753  37.861   4.225
29549W        W90970  24.547  31.944  13.392
29550W        W90971  40.954  22.052  13.349
29551W        W90972  25.002  29.484  13.963
29552W        W90973  32.625  11.271   1.352
29553W        W90974   8.706  24.162  14.009
29554W        W90975  39.452   1.814   3.276
29555W        W90976  27.607  42.515  14.417
29556W        W90977  22.594  33.544   0.424
29557W        W90978  35.427  37.921  14.793
29558W        W90979  38.451  17.183   2.686
29559W        W90980   9.644  27.028   4.746
29560W        W90981  32.622   9.709   0.377
29561W        W90982  13.763  37.922  10.457
29562W        W90983  39.050   8.871  13.002
29563W        W90984   5.259  28.445   9.930
29564W        W90985  17.248  15.206   1.769
29565W        W90986  11.863  16.075  10.517
29566W        W90987  38.936  21.242   4.666
29567W        W90988   5.881  11.317  11.978
29568W        W90989  42.332   8.670   0.453
29569W        W90990   8.224  14.621   0.845
29570W        W90991   9.876   2.324  10.463
29571W        W90992   6.738  28.555   2.331
29572W        W90993  33.020  28.437   4.636
29573W        W90994   8.843   4.356   1.863
29574W        W90995  35.490  37.529  14.404
29575W        W90996  18.186  43.387  12.340
29576W        W90997  17.199  41.407   2.340
29577W        W90998  27.012  41.453  10.642
29578W        W90999  40.817   1.922  14.346
29579W        W91000  18.133  25.479   0.445
29580W        W91001  31.437  26.514   3.163
29581W        W91002   0.251  22.710  12.985
29582W        W91003   3.301  34.936  12.978
29583W        W91004  29.053  29.154   0.356
29584W        W91005  22.690  16.739   3.703
29585W        W91006   5.797  21.671  11.970
29586W        W91007   9.869   9.820  14.286
29587W        W91008  20.693  28.533  11.885
29588W        W91009  36.096  16.750  13.962
29589W        W91010  20.241  35.854  14.972
29590W        W91011  22.145  36.874   4.129
29591W        W91012  18.639   4.852   2.817
29592W        W91013  34.121  43.924   3.667
29593W        W91014   7.799   9.391  12.041
29594W        W91015  15.814  42.995   4.745
29595W        W91016   9.221  13.714   2.896
29596W        W91017   0.841  19.759  10.048
29597W        W91018  22.565  40.516   3.854
29598W        W91019   4.922   5.348  11.486
29599W        W91020  37.462  42.906  12.064
29600W        W91021   3.765  32.602   3.384
29601W        W91022  37.972   1.411   4.309
29602W        W91023  44.989  28.648   3.731
29603W        W91024   5.423  23.990   3.385
29604W        W91025  10.232  18.207  12.953
29605W        W91026  35.436  38.935   4.323
29606W        W91027  15.684  44.276   3.867
29607W        W91028   1.814   1.814   3.705
29608W        W91029  32.125  15.198  12.997
29609W        W91030  25.207  21.615   4.312
29610W        W91031  24.083  33.039   3.236
29611W        W91032  40.929   7.665  11.381
29612W        W91033  44.321  12.261   1.909
29613W        W91034  29.935  31.062   4.299
29614W        W91035   2.312  16.734   1.706
29615W        W91036  28.541  34.084   4.619
29616W        W91037  41.398  37.352  13.844
29617W        W91038  11.735  39.421  11.923
29618W        W91039  19.123  43.495  14.904
29619W        W91040  16.659   8.191   0.918
29620W        W91041  13.767   9.150  10.511
29621W        W91042  33.037  33.931   1.704
29622W        W91043  13.248  19.534   4.312
29623W        W91044  31.427  44.450   1.216
29624W        W91045  19.095   1.783   0.464
29625W        W91046   7.844   5.330  12.475
29626W        W91047  10.659   0.442  13.813
29627W        W91048  13.344  41.307  12.556
29628W        W91049  27.125   0.494  12.092
29629W        W91050   5.718  21.135  13.938
29630W        W91051  21.750   8.812  11.036
29631W        W91052  28.122  12.136   1.211
29632W        W91053   7.239  38.390   2.897
29633W        W91054  43.443  37.839   4.217
29634W        W91055  19.137  29.153   0.800
29635W        W91056  18.752   3.945   2.690
29636W        W91057  17.692  15.314  11.983
29637W        W91058   7.689  42.953   4.332
29638W        W91059  31.528  33.509  12.518
29639W        W91060   6.382   8.195  10.466
29640W        W91061  44.321  19.711  10.096
29641W        W91062  30.035  38.913  14.297
29642W        W91063  20.674  15.196   3.818
29643W        W91064  13.636  40.491   2.769
29644W        W91065  28.935  24.111   3.710
29645W        W91066  41.338  32.590   4.184
29646W        W91067   5.423  21.239   1.812
29647W        W91068  23.673  38.842  13.506
29648W        W91069  24.993   6.754  11.568
29649W        W91070  25.634   9.150  11.051
29650W        W91071   6.770  34.599  12.347
29651W        W91072  26.457  30.444  12.558
29652W        W91073  44.460   2.381   4.757
29653W        W91074   0.808  14.779  14.030
29654W        W91075  39.362   8.687  14.796
29655W        W91076  26.527  32.620   2.760
29656W        W91077  29.572   0.934   1.882
29657W        W91078  27.968  38.962   4.200
29658W        W91079  26.177  28.140  10.975
29659W        W91080  14.675  24.230   2.872
29660W        W91081  41.401   3.733  10.477
29661W        W91082  39.850  34.051   1.218
29662W        W91083  33.517  41.387  13.506
29663W        W91084  30.493  14.738  11.396
29664W        W91085  15.236  35.474  14.433
29665W        W91086  24.977  44.971   1.884
29666W        W91087  44.006  15.182  13.471
29667W        W91088   5.312  15.768  12.095
29668W        W91089  28.157  18.173   5.093
29669W        W91090  27.480  36.477  12.457
29670W        W91091  28.622   3.408   4.121
29671W        W91092  38.057  42.951  14.465
29672W        W91093  27.549  28.681   4.666
29673W        W91094   9.696  14.264   3.842
29674W        W91095  14.281  15.714  13.929
29675W        W91096   1.799  28.498   5.268
29676W        W91097  31.632  41.813  10.482
29677W        W91098   8.265  35.408   2.901
29678W        W91099  19.679  17.577   1.444
29679W        W91100  38.494  32.565  11.927
29680W        W91101  16.706  22.550   1.350
29681W        W91102  41.823   6.811   4.166
29682W        W91103  38.488  25.482   3.708
29683W        W91104  35.080  10.182  13.426
29684W        W91105  44.460  25.484  13.524
29685W        W91106  37.958  44.433  13.019
29686W        W91107  29.099  21.733  11.589
29687W        W91108  21.556  21.696   1.822
29688W        W91109  40.331  38.373   3.320
29689W        W91110  29.998  44.973   2.696
29690W        W91111   3.766   0.403   5.651
29691W        W91112   2.793  33.028   1.326
29692W        W91113  26.147  27.115  14.408
29693W        W91114   5.214  31.911   0.476
29694W        W91115  38.444  41.380   2.250
29695W        W91116   3.831  30.538   0.474
29696W        W91117   3.233  34.936  14.468
29697W        W91118  44.489  26.687  14.935
29698W        W91119  17.062  36.884  11.055
29699W        W91120  14.680  28.131   1.324
29700W        W91121   4.843  33.423   4.615
29701W        W91122  36.887  31.150  13.813
29702W        W91123  32.635  24.503   3.658
29703W        W91124   3.398  11.172  13.487
29704W        W91125  25.519  37.482  13.357
29705W        W91126  13.787  26.525   3.789
29706W        W91127  30.566   5.865   2.802
29707W        W91128  34.943  35.081   4.745
29708W        W91129   2.396  34.493  10.018
29709W        W91130   6.240   5.852  11.436
29710W        W91131   5.728   2.967  14.024
29711W        W91132  23.208  44.383  12.985
29712W        W91133  31.638  41.927  11.913
29713W        W91134  26.623  22.104   4.149
29714W        W91135   0.779   1.889   9.968
29715W        W91136  20.153  30.629  11.050
29716W        W91137   1.422  30.141  10.427
29717W        W91138  27.573  15.785  11.466
29718W        W91139   0.358  41.391  12.887
29719W        W91140  26.601   1.282  14.996
29720W        W91141  43.333  32.616   4.280
29721W        W91142  41.519  16.108   4.181
29722W        W91143  32.545  32.125   3.868
29723W        W91144  24.719  18.088  12.032
29724W        W91145  36.565   8.880   2.822
29725W        W91146  17.198  27.044  11.029
29726W        W91147  39.405  30.518   0.246
29727W        W91148   9.791  27.556  14.402
29728W        W91149  17.702  41.808  12.932
29729W        W91150  18.282  18.555   1.241
29730W        W91151  32.136  11.150  14.941
29731W        W91152   5.329   8.852   3.838
29732W        W91153  43.002  38.447  13.382
29733W        W91154   6.894  18.090  14.833
29734W        W91155  11.151  14.275   0.944
29735W        W91156  35.978  32.101   4.171
29736W        W91157  17.577  10.715   4.198
29737W        W91158  27.010  26.480  10.062
29738W        W91159  12.249  24.697   1.347
29739W        W91160  20.171  36.878   2.813
29740W        W91161  33.492  30.454   0.766
29741W        W91162  16.250   5.265   1.382
29742W        W91163  34.525  33.085  13.379
29743W        W91164  36.009   5.209   2.832
29744W        W91165  40.485  22.183   4.194
29745W        W91166   2.338  37.430   1.711
29746W        W91167  37.469  44.384   0.752
29747W        W91168   1.902  35.487   4.124
29748W        W91169   2.333  24.086  12.359
29749W        W91170  17.126   4.753  14.326
29750W        W91171  22.104  30.477   3.735
29751W        W91172  40.496  33.443  14.854
29752W        W91173  15.707   5.416  10.478
29753W        W91174   6.863  16.779  10.636
29754W        W91175  21.662   9.179  12.994
29755W        W91176  28.140   6.328   3.631
29756W        W91177  20.122  41.040   0.917
29757W        W91178  27.994   2.826   1.272
29758W        W91179  28.471   2.852   0.928
29759W        W91180   6.318  11.350   3.222
29760W        W91181  27.619  37.391   2.259
29761W        W91182  18.071   8.784   1.284
29762W        W91183  26.025  17.232   1.262
29763W        W91184  13.302  16.177  10.994
29764W        W91185  14.758   8.818  12.868
29765W        W91186   2.860   3.741  14.878
29766W        W91187   3.359  36.096  10.451
29767W        W91188  24.050  23.725   9.928
29768W        W91189   6.324  37.442   0.940
29769W        W91190  24.145  31.147  12.375
29770W        W91191   9.860  41.454  12.895
29771W        W91192  41.792  25.145   2.875
29772W        W91193   6.250  24.647   4.604
29773W        W91194  26.980  35.853  14.792
29774W        W91195  18.244   5.896   1.861
29775W        W91196  20.666  17.153   0.421
29776W        W91197   3.816  33.530   1.234
29777W        W91198  35.434  35.933   0.948
29778W        W91199   9.332  40.927   3.345
29779W        W91200  15.292   1.286  12.857
29780W        W91201  22.730   8.240  12.449
29781W        W91202  41.832  36.400  13.880
29782W        W91203  40.472  36.455  10.632
29783W        W91204  41.010  16.313  10.508
29784W        W91205  18.686  32.430  12.873
29785W        W91206   6.262  20.035   0.779
29786W        W91207  27.028  14.716  10.622
29787W        W91208  29.974  10.761   2.264
29788W        W91209  22.162  32.941   3.691
29789W        W91210   3.896  32.547  14.964
29790W        W91211  25.043  13.794  10.631
29791W        W91212  36.475  44.914  11.441
29792W        W91213  42.983  27.643   3.787
29793W        W91214  40.888  33.067   3.149
29794W        W91215  31.472  43.808  12.959
29795W        W91216  33.914  19.122  11.018
29796W        W91217  44.396  13.198  13.395
29797W        W91218  38.529  21.208   2.736
29798W        W91219  18.780  37.842   4.201
29799W        W91220  17.608  39.855   4.634
29800W        W91221   7.267  38.032   0.352
29801W        W91222   0.831  26.673   4.268
29802W        W91223  41.027  38.416  12.940
29803W        W91224  23.996   0.987   0.809
29804W        W91225  11.307   9.217   2.864
29805W        W91226  10.281  38.388  14.363
29806W        W91227  17.274   0.329   9.967
29807W        W91228  39.552  24.573  13.801
29808W        W91229  41.375  21.218   2.891
29809W        W91230  27.956  26.645   1.780
29810W        W91231  39.556  29.459   0.425
29811W        W91232  27.589   0.975   1.783
29812W        W91233  44.374  36.591   3.176
29813W        W91234  22.673   3.449  14.301
29814W        W91235  44.365  14.133  11.487
29815W        W91236  42.000  12.820   1.718
29816W        W91237  42.380  26.474  14.772
29817W        W91238   1.275  39.340   2.230
29818W        W91239   6.715  38.457   0.865
29819W        W91240  22.017  22.195   1.259
29820W        W91241   2.785  26.033  10.959
29821W        W91242  14.806   2.381  12.431
29822W        W91243  10.214   6.245   4.283
29823W        W91244  43.319  14.829   4.616
29824W        W91245  37.495  42.446   3.668
29825W        W91246  44.962  13.812   2.205
29826W        W91247  25.555  22.098   2.878
29827W        W91248  25.011  16.305  13.507
29828W        W91249  26.097  39.945   1.426
29829W        W91250  16.775   3.720   2.835
29830W        W91251  31.057  20.590  14.988
29831W        W91252  28.116  22.217   2.390
29832W        W91253  18.561   0.908  14.413
29833W        W91254   8.766  32.943   2.284
29834W        W91255  34.069  25.606   1.902
29835W        W91256   5.773  30.103   0.781
29836W        W91257  19.632   3.793  13.866
29837W        W91258  42.854  37.405  13.509
29838W        W91259  30.977  37.351   3.295
29839W        W91260  38.388   6.331  10.480
29840W        W91261  37.365   3.279   3.257
29841W        W91262   7.319  28.633   3.168
29842W        W91263  28.450  21.181  11.561
29843W        W91264  15.110  21.601   2.875
29844W        W91265  31.070   4.388  14.842
29845W        W91266  14.158  35.450  13.486
29846W        W91267  13.146   1.904   4.610
29847W        W91268   3.276  33.939  14.483
29848W        W91269   0.337  11.646  11.940
29849W        W91270  43.493  35.031   1.356
29850W        W91271  20.714  37.550  11.022
29851W        W91272  21.521  32.097  10.062
29852W        W91273  44.496   8.337   3.653
29853W        W91274  14.692  30.969   2.411
29854W        W91275  38.036  26.136  10.942
29855W        W91276  36.525   7.908   0.281
29856W        W91277  16.242  39.853  10.913
29857W        W91278  37.540  15.783   3.714
29858W        W91279  13.655   9.732  14.512
29859W        W91280  28.126   2.961  13.824
29860W        W91281  12.849  24.634  12.885
29861W        W91282  12.689  27.118  14.455
29862W        W91283  10.206  19.633  14.382
29863W        W91284  19.136  28.556   1.385
29864W        W91285  23.241  44.806  14.889
29865W        W91286  29.650  32.103  13.378
29866W        W91287  31.451  33.882   2.667
29867W        W91288  43.888   9.195   4.352
29868W        W91289   6.761   4.711  13.915
29869W        W91290  31.597   0.248   4.205
29870W        W91291  19.245  40.905  14.790
29871W        W91292  18.629  10.748   0.802
29872W        W91293   1.351  15.655   3.282
29873W        W91294  35.070   1.348  14.834
29874W        W91295  22.738  31.963   3.307
29875W        W91296  23.693  30.139   4.691
29876W        W91297  28.931  23.234   1.395
29877W        W91298  29.042  11.742   2.382
29878W        W91299  41.886  37.359  12.868
29879W        W91300  23.075  17.119  13.510
29880W        W91301  38.518   4.707   0.892
29881W        W91302  19.538  44.293   2.195
29882W        W91303   9.259   1.970   3.357
29883W        W91304  19.626  31.971  13.048
29884W        W91305  20.192   6.754   5.122
29885W        W91306   4.262   1.843   0.260
29886W        W91307  36.349  38.018  10.478
29887W        W91308  27.010  41.537   0.365
29888W        W91309  29.625   8.184  11.025
29889W        W91310  19.100  20.274   1.416
29890W        W91311  24.138  44.796  13.331
29891W        W91312   6.875  21.070   0.841
29892W        W91313  29.125  41.976  14.816
29893W        W91314  41.407   5.757   2.292
29894W        W91315  24.081  26.528  12.960
29895W        W91316  10.142  31.088  13.018
29896W        W91317  34.879  44.899   1.864
29897W        W91318  36.093  23.986  13.490
29898W        W91319  28.601  43.883   2.236
29899W        W91320  14.690  15.608  12.960
29900W        W91321   5.324  36.566   4.215
29901W        W91322   1.814  41.390  12.578
29902W        W91323  39.519   8.303   2.239
29903W        W91324  24.087  42.474   0.764
29904W        W91325   6.425  42.916  12.968
29905W        W91326  33.549   2.357  11.443
29906W        W91327  10.810  15.287  11.917
29907W        W91328  42.014   4.715   4.344
29908W        W91329  31.571  33.399   0.361
29909W        W91330  25.212  22.061  13.449
29910W        W91331  33.921  40.827  14.328
29911W        W91332  39.933  19.762   1.315
29912W        W91333  40.460   8.326   1.327
29913W        W91334  20.179  36.423   0.456
29914W        W91335  17.298  27.062  10.098
29915W        W91336  23.011  11.301   3.170
29916W        W91337   1.314  14.299   0.820
29917W        W91338  41.456  28.005  10.446
29918W        W91339  14.230  20.528   4.296
29919W        W91340  11.264  41.963   3.186
29920W        W91341  21.539   1.819   0.953
29921W        W91342  34.440   7.207   2.680
29922W        W91343  20.241  35.387   0.332
29923W        W91344  34.518  35.457  10.961
29924W        W91345  31.479  15.305  13.802
29925W        W91346  14.165   3.460   0.967
29926W        W91347  35.857  37.525  13.532
29927W        W91348  34.405  21.715   1.415
29928W        W91349  13.685  28.635   2.739
29929W        W91350  42.423  41.927  12.496
29930W        W91351   4.320  33.601  14.423
29931W        W91352  19.742  14.733   0.727
29932W        W91353   1.763  33.991   4.658
29933W        W91354  32.083  12.227  14.871
29934W        W91355  10.747  32.020   0.329
29935W        W91356  22.677  42.814  10.438
29936W        W91357   9.196  25.055   2.696
29937W        W91358  25.620  37.582  14.972
29938W        W91359  20.176  26.010   4.177
29939W        W91360  25.662  16.640   4.244
29940W        W91361  25.652  16.122   1.268
29941W        W91362  40.944  27.055   0.369
29942W        W91363  31.408  33.064   4.688
29943W        W91364   9.386  33.132   3.765
29944W        W91365  15.604   2.365   3.370
29945W        W91366  44.353  27.013  10.413
29946W        W91367  23.164  31.480   4.820
29947W        W91368   9.851  34.448   3.726
29948W        W91369   2.727  19.144  13.326
29949W        W91370  36.433  37.348   1.820
29950W        W91371  37.031  41.982   2.403
29951W        W91372  17.272  14.755  14.379
29952W        W91373   3.325  10.786  14.340
29953W        W91374  34.103  37.492  11.877
29954W        W91375  35.586  30.151  12.085
29955W        W91376  38.028  44.315  14.016
29956W        W91377   7.897  23.227  13.042
29957W        W91378  10.726  12.280   4.150
29958W        W91379  25.978   6.423  14.929
29959W        W91380  24.704   3.253  13.820
29960W        W91381  29.645  24.689  12.364
29961W        W91382  32.440  27.124   0.893
29962W        W91383  31.949  17.691   2.404
29963W        W91384  28.514  12.792  14.823
29964W        W91385  32.520  23.638   5.102
29965W        W91386   7.400  17.111   0.785
29966W        W91387  21.565  23.225  11.597
29967W        W91388  16.103  15.758   0.347
29968W        W91389  25.176  12.137  13.892
29969W        W91390  34.415  27.483  12.527
29970W        W91391  21.752   8.367  14.954
29971W        W91392   5.855  12.830  14.021
29972W        W91393  22.058  11.641  12.522
29973W        W91394  27.006  30.070   2.323
29974W        W91395   6.893  11.207  11.934
29975W        W91396  23.661  39.966  11.080
29976W        W91397  43.008   9.315  13.425
29977W        W91398  15.107  42.411  10.469
29978W        W91399  11.251  17.094   2.754
29979W        W91400  17.074  19.619  10.145
29980W        W91401   0.785  36.402   3.251
29981W        W91402  28.587  35.534  13.417
29982W        W91403  29.519  20.613  12.500
29983W        W91404  11.851  29.487  13.506
29984W        W91405  15.301  14.622   2.763
29985W        W91406  23.568  20.245   4.281
29986W        W91407  21.664  38.846  14.781
29987W        W91408  13.756  42.326   2.247
29988W        W91409  42.358  29.067   1.795
29989W        W91410  37.434  35.100  10.915
29990W        W91411  27.140  16.287  12.017
29991W        W91412  13.616  19.132   2.295
29992W        W91413  23.094  34.444   0.726
29993W        W91414  17.139  17.145   4.208
29994W        W91415  23.168   9.254   1.294
29995W        W91416  21.581  11.278   0.358
29996W        W91417   1.931   0.952   2.253
29997W        W91418  38.502  39.890  12.857
29998W        W91419   6.385  25.577  12.834
29999W        W91420  36.984   2.900  12.869
30000W        W91421  37.385  40.390   1.330
30001W        W91422  41.330  27.048   2.249
30002W        W91423   5.854  31.037   1.818
30003W        W91424   7.866  27.538   1.367
30004W        W91425  40.391  44.317  12.471
30005W        W91426  31.061  32.037   3.661
30006W        W91427  44.993  10.186   1.402
30007W        W91428  39.514  33.402  11.037
30008W        W91429  38.030  23.491  13.871
30009W        W91430  22.157  30.979  13.991
30010W        W91431  15.627  36.395   0.732
30011W        W91432  26.976  29.524   3.329
30012W        W91433   1.461  34.491   3.662
30013W        W91434  28.153  22.102   4.769
30014W        W91435  29.163  33.935  13.948
30015W        W91436  32.927  22.190   2.711
30016W        W91437  39.971  17.637   1.810
30017W        W91438   1.797  20.686  11.477
30018W        W91439  17.278   3.824  11.407
30019W        W91440   2.845  38.886  12.544
30020W        W91441  40.464   9.672  10.599
30021W        W91442  36.405  13.232  13.899
30022W        W91443   4.249  12.201   2.794
30023W        W91444  21.133  29.014  12.063
30024W        W91445  34.517  39.540  10.952
30025W        W91446  37.937   7.365  11.979
30026W        W91447  18.209  21.170   0.420
30027W        W91448  14.624  31.618  14.319
30028W        W91449  41.476  15.243   3.251
30029W        W91450  37.344   9.314   0.955
30030W        W91451  26.639  40.447  11.059
30031W        W91452  16.692  17.707  13.948
30032W        W91453  26.641  18.721   2.356
30033W        W91454   4.780  24.103   0.398
30034W        W91455  36.054  17.637   4.211
30035W        W91456  11.643  17.063   3.792
30036W        W91457  37.580  30.127   3.148
30037W        W91458  15.801  32.008   2.846
30038W        W91459   2.828   4.807   0.748
30039W        W91460  37.418  35.470  12.835
30040W        W91461  10.681   6.310   3.275
30041W        W91462   6.819   6.791   0.748
30042W        W91463  34.036  22.173   4.129
30043W        W91464   6.806   9.378   4.289
30044W        W91465  26.168  23.183  14.380
30045W        W91466  22.240  41.893   0.916
30046W        W91467  10.854  33.996   1.874
30047W        W91468  41.787  42.853  12.095
30048W        W91469  34.997  36.865   2.181
30049W        W91470   1.247  27.119  10.908
30050W        W91471  25.020   8.224  11.471
30051W        W91472  27.572  43.332  12.903
30052W        W91473  36.024   1.929   5.638
30053W        W91474  30.562  16.717  10.966
30054W        W91475   0.849   1.867  10.631
30055W        W91476  43.469  16.263  13.531
30056W        W91477  39.408  22.538   4.204
30057W        W91478  18.625  34.984   4.335
30058W        W91479   8.666  11.716  11.398
30059W        W91480   3.954  13.750  10.589
30060W        W91481  13.720  37.545  11.033
30061W        W91482  20.531  30.104  11.467
30062W        W91483   4.383   2.386   3.339
30063W        W91484  34.073  41.504   3.379
30064W        W91485  39.415  36.457  13.465
30065W        W91486  27.640  25.530  12.835
30066W        W91487   3.435   0.977   1.878
30067W        W91488  21.532  19.610  11.074
30068W        W91489  33.039   3.408  11.599
30069W        W91490  44.265   9.184   2.723
30070W        W91491  13.603  42.937   1.831
30071W        W91492  28.549   9.389   1.419
30072W        W91493   5.812  30.917  12.000
30073W        W91494  19.188  12.654  11.431
30074W        W91495  32.023  27.996  11.976
30075W        W91496   3.823   0.932   3.657
30076W        W91497  43.965  31.116   3.756
30077W        W91498  21.634   2.232  13.429
30078W        W91499  14.710  30.030   0.245
30079W        W91500   0.374   7.705  10.630
30080W        W91501  32.072  16.605  12.545
30081W        W91502  31.099  23.693  13.547
30082W        W91503  13.610  43.490   1.255
30083W        W91504  32.044  11.163  12.962
30084W        W91505  26.060  36.521   1.323
30085W        W91506  35.004  30.988   4.337
30086W        W91507  34.032  37.831   1.897
30087W        W91508  24.542  29.431   3.848
30088W        W91509  44.863  18.588   3.280
30089W        W91510  21.634  41.534   2.327
30090W        W91511  13.642  11.209  12.569
30091W        W91512  38.957  37.853  13.498
30092W        W91513  22.506   7.356   2.310
30093W        W91514  41.880  40.331   1.767
30094W        W91515  38.479  41.806   1.215
30095W        W91516  31.438  10.244  12.462
30096W        W91517  37.901   3.763   4.349
30097W        W91518  42.286  22.090   0.395
30098W        W91519  19.173   0.248   1.264
30099W        W91520  14.215  28.161  10.994
30100W        W91521   2.312  10.269   3.830
30101W        W91522  18.272  42.855  10.576
30102W        W91523  38.855   6.257   4.211
30103W        W91524  13.244  31.914   3.769
30104W        W91525  34.024   4.918  11.126
30105W        W91526  18.680  44.812   1.393
30106W        W91527  26.151  10.377   2.737
30107W        W91528  26.002  32.968  11.897
30108W        W91529  33.965  18.706   0.339
30109W        W91530  34.412   4.268   5.276
30110W        W91531   6.697  16.786  14.894
30111W        W91532  21.753   0.459  12.435
30112W        W91533   6.852  19.116   4.332
30113W        W91534  35.873  19.758   0.294
30114W        W91535   3.849  41.484   2.875
30115W        W91536  42.854  11.655   0.304
30116W        W91537  31.431  33.465  14.501
30117W        W91538  25.652  29.938   1.705
30118W        W91539  17.123  16.792   1.285
30119W        W91540  41.432   0.861   2.409
30120W        W91541  40.896   6.859   0.967
30121W        W91542  17.654  25.021  14.449
30122W        W91543  44.487   0.896   2.373
30123W        W91544  13.768  24.498  14.315
30124W        W91545  44.968  16.119   2.774
30125W        W91546  10.700  17.688   2.869
30126W        W91547  27.049  40.377   3.705
30127W        W91548  32.421  11.352  11.464
30128W        W91549  40.320  12.798  10.121
30129W        W91550  29.154  33.065   3.269
30130W        W91551  17.734  26.513   0.367
30131W        W91552  11.794   2.846  14.331
30132W        W91553  34.412  25.707  14.966
30133W        W91554  44.795  39.444  10.986
30134W        W91555  40.428   4.864  11.550
30135W        W91556   3.932   3.816   5.090
30136W        W91557  25.526  44.288  10.553
30137W        W91558  16.600   6.890   4.745
30138W        W91559  13.268  43.968  13.841
30139W        W91560  18.787  24.525  14.966
30140W        W91561   9.859   5.388  12.396
30141W        W91562  39.900  26.493   3.185
30142W        W91563  32.558   9.681   4.751
30143W        W91564  39.910  39.398   1.764
30144W        W91565  28.001  14.294  14.420
30145W        W91566  25.695   7.210   2.733
30146W        W91567  17.168   4.227   0.318
30147W        W91568  10.833   2.405  12.553
30148W        W91569  35.572  25.560   2.811
30149W        W91570  33.608  38.518  13.820
30150W        W91571  42.455  16.709  12.376
30151W        W91572  23.628   9.813   0.961
30152W        W91573  29.515  40.543  12.008
30153W        W91574  35.019  14.770   2.324
30154W        W91575  43.447   2.833  13.805
30155W        W91576   2.287   4.247  13.035
30156W        W91577  20.184  28.094   5.119
30157W        W91578   2.732  44.840  13.841
30158W        W91579  34.965  10.366   1.405
30159W        W91580  32.922  26.648  13.460
30160W        W91581  39.550  40.013   0.785
30161W        W91582  26.076   2.726  10.544
30162W        W91583  22.705  27.164   1.319
30163W        W91584  16.602  38.435  11.519
30164W        W91585  14.715   0.847  10.891
30165W        W91586   3.830  38.374   0.939
30166W        W91587  23.025   6.367  11.395
30167W        W91588  22.736  26.111   2.185
30168W        W91589  11.677  27.148   3.164
30169W        W91590  37.374  14.707   0.855
30170W        W91591   9.348  24.654   4.171
30171W        W91592   4.727  39.349  10.557
30172W        W91593  31.119  44.843   1.444
30173W        W91594  23.143  42.993   4.733
30174W        W91595  35.966  22.147   0.793
30175W        W91596  34.063  31.022  11.973
30176W        W91597   1.414  12.680  10.457
30177W        W91598  11.360  21.065  14.787
30178W        W91599  24.985  19.124   2.851
30179W        W91600  44.357   8.837  10.582
30180W        W91601  37.371  23.551   2.395
30181W        W91602  38.997   7.839  11.382
30182W        W91603  13.169  23.171   4.769
30183W        W91604  21.254  13.718  13.499
30184W        W91605  41.999  27.547  10.551
30185W        W91606  29.534  10.876   2.246
30186W        W91607   0.441   4.867   3.360
30187W        W91608  18.197   8.717  11.042
30188W        W91609  26.076  44.960  10.500
30189W        W91610  14.674  15.791  12.062
30190W        W91611  10.303  37.448  12.525
30191W        W91612  24.058  44.383   0.776
30192W        W91613   7.728  19.252  10.969
30193W        W91614  14.772  39.342  12.838
30194W        W91615  16.165  44.396  13.973
30195W        W91616  26.626  38.510   2.373
30196W        W91617  22.096  30.608   2.857
30197W        W91618  34.004  27.100  11.917
30198W        W91619  25.156  19.678  11.881
30199W        W91620  35.885  35.401  12.962
30200W        W91621  10.237  19.045   3.807
30201W        W91622  34.601  34.393   4.718
30202W        W91623  20.679  16.653   1.798
30203W        W91624  12.660   0.478  14.387
30204W        W91625  37.873   0.471  11.051
30205W        W91626  44.466  34.952   1.921
30206W        W91627  23.043   0.434  14.970
30207W        W91628  11.154   9.346  11.093
30208W        W91629  39.973  41.520  12.899
30209W        W91630  19.727  35.429  13.991
30210W        W91631  41.006   6.354   1.254
30211W        W91632   8.692   0.748  11.534
30212W        W91633  11.826  30.645   3.190
30213W        W91634  14.611   0.864  14.451
30214W        W91635  29.464  16.118  12.507
30215W        W91636  25.182   1.441   3.287
30216W        W91637  30.993  30.024   1.850
30217W        W91638  38.470  11.169   3.824
30218W        W91639  21.135  41.323  14.794
30219W        W91640  18.790  39.512   1.319
30220W        W91641  17.167  15.598   3.268
30221W        W91642  11.797  44.499   1.772
30222W        W91643  28.601  27.964  12.401
30223W        W91644  40.040  18.737  10.524
30224W        W91645   1.810  33.624  11.090
30225W        W91646  24.707  12.222  13.037
30226W        W91647  27.122  40.999  11.895
30227W        W91648  36.878  27.191  12.004
30228W        W91649   5.797  32.491  12.063
30229W        W91650  44.892  30.534  10.992
30230W        W91651   5.206   9.382  11.948
30231W        W91652   1.348  24.125   3.249
30232W        W91653  33.022  30.140  11.002
30233W        W91654  19.097  34.530  12.070
30234W        W91655  20.707   5.266   3.342
30235W        W91656  37.066  26.167  13.885
30236W        W91657  19.546  37.965  11.119
30237W        W91658  26.495  14.237  12.989
30238W        W91659  20.053  16.154  12.378
30239W        W91660  24.688  31.605   4.598
30240W        W91661  21.075   5.759  13.951
30241W        W91662   4.936   5.206  12.428
30242W        W91663  13.827  10.701   1.783
30243W        W91664  25.963  23.655  12.984
30244W        W91665  27.618  18.779  11.863
30245W        W91666   9.193   3.387   2.323
30246W        W91667   7.731  11.261   3.786
30247W        W91668  14.593  15.206  11.521
30248W        W91669  12.159  17.107   3.382
30249W        W91670   9.677   6.271   0.400
30250W        W91671  20.705  41.408  10.887
30251W        W91672  25.586  38.055  12.959
30252W        W91673  25.119  33.470  11.510
30253W        W91674  34.520  20.585   4.309
30254W        W91675   2.411  28.035  11.957
30255W        W91676  42.001  11.203   0.873
30256W        W91677  16.802   4.218   1.913
30257W        W91678  18.127  13.651   1.761
30258W        W91679   5.723  35.524   3.241
30259W        W91680   7.912  44.488   3.239
30260W        W91681   6.324  24.608  13.471
30261W        W91682  22.656   1.865   3.688
30262W        W91683   8.294  42.973   0.919
30263W        W91684  43.480  18.697   1.313
30264W        W91685  43.923   4.854  10.474
30265W        W91686  37.073  24.546  13.969
30266W        W91687  39.463  11.132   2.284
30267W        W91688  40.505  40.943  10.936
30268W        W91689  20.046  38.964  13.050
30269W        W91690   6.864  25.053   5.298
30270W        W91691  44.286  12.137  10.595
30271W        W91692   7.261   1.902   2.291
30272W        W91693   4.256  33.053  13.461
30273W        W91694  19.606  15.309  11.512
30274W        W91695  28.028  39.920  12.530
30275W        W91696  24.148  13.668  10.540
30276W        W91697  26.498  25.077  10.455
30277W        W91698   6.255  29.437  13.797
30278W        W91699  25.063  18.625  14.909
30279W        W91700   5.724  16.633   2.187
30280W        W91701   3.889  21.691  14.449
30281W        W91702   8.895   6.291   1.842
30282W        W91703   1.877  36.948  12.495
30283W        W91704   0.341  37.519  13.942
30284W        W91705  28.518  29.621   4.121
30285W        W91706  43.440  31.484   1.785
30286W        W91707  31.464  31.964   2.837
30287W        W91708  23.658  33.085  12.094
30288W        W91709  15.770  26.997  13.025
30289W        W91710  12.776   0.784   4.707
30290W        W91711  27.151  21.157  14.774
30291W        W91712  32.051   4.807   1.350
30292W        W91713  39.430   1.353  14.944
30293W        W91714  37.568   3.229   3.670
30294W        W91715  29.667  17.095   5.138
30295W        W91716  32.463  35.107   0.824
30296W        W91717   4.833  38.569  14.940
30297W        W91718  34.932  42.513   1.260
30298W        W91719  28.547  43.388   4.642
30299W        W91720  38.916   3.942   1.284
30300W        W91721  11.646  44.765  14.402
30301W        W91722   3.283  27.952   0.286
30302W        W91723  32.399  39.499  12.930
30303W        W91724   3.900  22.231  11.058
30304W        W91725   7.293  17.754   2.257
30305W        W91726  43.374  19.210  13.979
30306W        W91727  18.213   7.340  12.867
30307W        W91728  38.964  27.664   4.186
30308W        W91729  18.637  44.318  11.568
30309W        W91730  10.292  43.275  11.113
30310W        W91731  37.337  41.998  10.964
30311W        W91732  44.798  40.419   2.745
30312W        W91733  32.115  17.599   3.742
30313W        W91734  20.611  12.244  14.857
30314W        W91735   4.374  30.521  13.792
30315W        W91736  22.070  13.141  13.868
30316W        W91737   2.323  39.535   2.804
30317W        W91738  41.524   2.461   0.262
30318W        W91739   3.911  24.033  14.969
30319W        W91740  18.737  15.287  13.986
30320W        W91741   9.250  20.134   3.849
30321W        W91742   8.697  29.614   4.639
30322W        W91743  38.410  16.572   2.211
30323W        W91744  28.121  11.370  10.631
30324W        W91745   4.698   6.767   3.809
30325W        W91746  26.516   2.784   1.232
30326W        W91747  37.946  15.135   4.827
30327W        W91748  14.140  32.402   4.262
30328W        W91749  25.702  14.101  10.005
30329W        W91750   4.336  25.182   0.777
30330W        W91751  43.395  43.456   2.302
30331W        W91752  38.018  21.251  13.388
30332W        W91753  20.732  24.592  14.779
30333W        W91754  23.704  32.121  14.385
30334W        W91755  19.706   1.904   0.255
30335W        W91756  19.557  33.417   0.395
30336W        W91757  17.240  25.687   3.863
30337W        W91758  23.132  36.985  11.957
30338W        W91759  40.538   6.684   4.142
30339W        W91760  39.558  42.504   2.359
30340W        W91761  13.249  14.313  12.990
30341W        W91762  17.591  28.998  11.970
30342W        W91763   6.841  40.905  13.845
30343W        W91764  30.108  42.015   3.730
30344W        W91765  34.512  36.962  11.866
30345W        W91766  36.845  16.283   3.803
30346W        W91767  29.650  27.025  14.454
30347W        W91768  35.537   4.371  11.933
30348W        W91769  30.580  33.594  12.906
30349W        W91770  36.403  12.283   0.287
30350W        W91771   4.325  13.163   4.298
30351W        W91772  28.173  28.655   1.230
30352W        W91773  41.518   2.926  12.924
30353W        W91774  38.455   2.343   0.936
30354W        W91775  32.079  34.476  13.309
30355W        W91776  30.627  10.383   0.781
30356W        W91777  25.191  20.077  13.894
30357W        W91778  36.366  38.355  10.940
30358W        W91779   3.720   9.316  12.981
30359W        W91780  17.686  33.519  12.029
30360W        W91781  43.981  18.180  14.319
30361W        W91782  24.201   0.938   3.839
30362W        W91783  15.639  34.976   4.606
30363W        W91784  30.519  17.723  10.916
30364W        W91785   6.806   2.952   5.602
30365W        W91786  14.603   1.856   5.259
30366W        W91787   5.211  32.459   5.633
30367W        W91788  39.419  37.380  11.497
30368W        W91789  31.498   3.950   3.148
30369W        W91790  38.844  30.097   1.429
30370W        W91791  39.946   7.358   3.699
30371W        W91792  27.948   4.925  13.809
30372W        W91793  20.266  27.174   3.638
30373W        W91794  36.937  12.643  12.823
30374W        W91795  24.037  26.540   2.806
30375W        W91796  17.230  25.611  13.051
30376W        W91797  39.909  36.377  12.997
30377W        W91798  25.068  25.495   3.799
30378W        W91799  35.446  39.853   3.778
30379W        W91800  16.113   2.456  14.414
30380W        W91801  31.469   9.187  12.946
30381W        W91802  17.241   8.177   4.654
30382W        W91803  16.702  27.565   1.709
30383W        W91804  12.694  28.064  13.439
30384W        W91805  38.342   4.863  11.062
30385W        W91806  12.840  18.563   4.198
30386W        W91807   4.216  24.530  14.807
30387W        W91808  16.779  43.850  13.842
30388W        W91809   7.782  34.442  13.797
30389W        W91810  39.392  39.505  12.051
30390W        W91811  13.151  40.549   3.274
30391W        W91812   0.793  11.846  13.456
30392W        W91813  38.824  13.749  13.984
30393W        W91814   4.935  10.295  11.481
30394W        W91815  32.903  30.435   4.770
30395W        W91816  27.090  11.716  10.543
30396W        W91817  13.299   6.234  10.445
30397W        W91818  37.042  29.643  11.543
30398W        W91819  13.311   8.734   5.177
30399W        W91820  26.093  14.696  11.018
30400W        W91821  38.035  18.146  14.474
30401W        W91822  13.146   9.201  14.844
30402W        W91823   8.709  23.665   3.303
30403W        W91824  36.549  37.452   5.110
30404W        W91825  21.592  39.849   4.205
30405W        W91826  39.433  30.427  12.348
30406W        W91827  37.497  13.252  10.540
30407W        W91828  37.521  12.213   4.641
30408W        W91829   1.940   6.708  13.410
30409W        W91830  20.057   5.368  11.959
30410W        W91831  18.172  13.658  12.960
30411W        W91832  14.747  19.696  11.892
30412W        W91833   4.814  44.456   1.919
30413W        W91834  42.933  32.482  11.876
30414W        W91835   0.398  13.628   4.681
30415W        W91836  36.408  35.868  11.550
30416W        W91837  27.089  13.819   0.373
30417W        W91838  42.449  32.526  10.443
30418W        W91839  24.649  12.325   3.185
30419W        W91840  40.825   9.747   1.899
30420W        W91841  27.560   8.688   2.193
30421W        W91842  39.440  14.183  13.452
30422W        W91843   5.793  16.700  13.408
30423W        W91844   3.815  12.309   1.345
30424W        W91845   6.205   3.753   1.833
30425W        W91846  22.575   4.364  11.402
30426W        W91847  32.561  10.384   2.264
30427W        W91848  27.978  16.580  10.104
30428W        W91849   0.390  31.638   1.259
30429W        W91850   8.239  14.752  12.879
30430W        W91851  38.437  18.150   3.654
30431W        W91852  11.755  43.274  13.943
30432W        W91853  29.582  43.799  11.532
30433W        W91854  14.244   3.247  13.881
30434W        W91855  12.170  10.172   0.882
30435W        W91856  41.449  43.384   2.219
30436W        W91857  42.432  35.507   2.298
30437W        W91858  37.543  31.482   2.353
30438W        W91859  14.607  14.661   4.151
30439W        W91860   9.353   2.299   3.152
30440W        W91861  21.253  40.310   0.436
30441W        W91862   3.348  44.354   3.642
30442W        W91863   5.386  41.300  13.462
30443W        W91864   2.838   9.268  14.904
30444W        W91865  11.625  28.661   1.262
30445W        W91866  37.854  33.948  10.888
30446W        W91867  18.282  37.570  12.024
30447W        W91868  41.926  13.225  14.394
30448W        W91869  22.996   3.834   3.707
30449W        W91870  17.240   8.747   2.219
30450W        W91871  27.595  41.858   4.228
30451W        W91872  18.173  31.950   3.802
30452W        W91873  43.429  19.283  13.050
30453W        W91874  20.237  19.142   4.255
30454W        W91875   2.901   6.772   3.369
30455W        W91876  37.933  20.594  14.424
30456W        W91877  30.558  19.046  10.519
30457W        W91878  43.341  17.586   1.381
30458W        W91879  43.420   9.328   4.182
30459W        W91880  22.171  17.128   1.282
30460W        W91881  24.142  10.160   0.275
30461W        W91882  23.152   9.755   4.219
30462W        W91883  25.549  13.140   1.803
30463W        W91884  16.136  10.143  11.119
30464W        W91885   4.926   7.379   3.835
30465W        W91886  34.000  14.818   9.445
30466W        W91887  25.004  35.454   2.730
30467W        W91888  34.075   4.275  13.369
30468W        W91889  23.587  19.751   3.266
30469W        W91890  42.313  17.068  11.480
30470W        W91891   7.283  27.195   4.316
30471W        W91892   9.380  21.681  12.462
30472W        W91893  26.674  10.249  12.907
30473W        W91894   8.205  34.437  11.598
30474W        W91895  11.799  11.132   1.450
30475W        W91896   8.803   0.409   1.353
30476W        W91897   1.351  26.566  11.128
30477W        W91898  43.946   8.862  12.440
30478W        W91899   9.820  25.636   0.871
30479W        W91900  14.165  25.554   0.912
30480W        W91901  25.528  30.575  12.952
30481W        W91902  20.162  25.710   3.681
30482W        W91903  12.126  10.861  12.887
30483W        W91904  15.143  17.760  11.382
30484W        W91905  10.845  38.500   1.277
30485W        W91906  10.795  41.883  13.902
30486W        W91907  16.689  16.299  13.057
30487W        W91908   4.449  35.525   2.705
30488W        W91909  26.502  27.111  13.974
30489W        W91910  15.798  32.416   3.719
30490W        W91911  39.351  12.704  14.832
30491W        W91912   6.293   5.733   3.842
30492W        W91913  26.517  13.714  10.507
30493W        W91914  23.020  25.116   0.841
30494W        W91915  34.506  14.788  14.963
30495W        W91916  24.662  15.212  10.968
30496W        W91917  27.140  24.626   1.384
30497W        W91918   3.850  18.741   1.439
30498W        W91919  39.539  24.096  13.802
30499W        W91920  22.659  31.514   4.125
30500W        W91921  11.350  27.088  12.384
30501W        W91922   9.389   1.454   0.322
30502W        W91923  18.551  42.821  13.961
30503W        W91924  43.799   7.733   2.889
30504W        W91925  23.156  25.098  11.542
30505W        W91926  40.844  37.365  10.579
30506W        W91927  23.130   8.360  11.374
30507W        W91928  42.340   6.365   3.646
30508W        W91929  31.614  17.112   1.418
30509W        W91930  34.906  32.534  11.450
30510W        W91931  16.147  13.783   0.965
30511W        W91932  13.667  18.196   1.886
30512W        W91933  37.026  42.881   3.766
30513W        W91934  27.087  11.280   3.254
30514W        W91935  21.188  17.238  14.424
30515W        W91936  31.494  13.272  10.466
30516W        W91937  16.662   3.326  14.513
30517W        W91938  29.554   4.267   1.799
30518W        W91939  18.060  13.797  14.787
30519W        W91940  13.269  27.509  11.031
30520W        W91941  24.180  43.324   1.753
30521W        W91942  14.724  23.034   2.206
30522W        W91943  10.226  43.867   4.627
30523W        W91944  44.789  15.619  11.914
30524W        W91945  18.063  17.265  10.957
30525W        W91946  43.904  29.010   1.737
30526W        W91947  27.991  37.465   1.389
30527W        W91948   3.868  29.647   1.418
30528W        W91949   0.363   4.401  12.932
30529W        W91950  33.478  25.659   0.413
30530W        W91951  14.142   6.274   1.260
30531W        W91952  27.458  36.474   3.380
30532W        W91953   1.352  33.083   4.781
30533W        W91954  18.555  14.334  11.510
30534W        W91955  40.429  34.021  12.485
30535W        W91956  14.299  19.179  13.386
30536W        W91957   2.330  18.146  14.466
30537W        W91958  16.769  13.135  12.346
30538W        W91959  10.170   5.840  13.971
30539W        W91960  27.976  15.316   9.593
30540W        W91961  37.506  28.051   3.309
30541W        W91962  41.834  36.974  10.995
30542W        W91963   6.227   9.885  14.873
30543W        W91964  16.196  36.424   4.276
30544W        W91965  33.003  39.400  14.010
30545W        W91966  39.862  40.507  10.963
30546W        W91967  40.480  28.629   4.325
30547W        W91968  44.774   6.795   4.780
30548W        W91969  16.732  27.110  11.548
30549W        W91970  16.283  38.350  13.819
30550W        W91971  32.572  22.178   2.234
30551W        W91972  35.008   2.889   2.337
30552W        W91973  42.478   7.286  14.014
30553W        W91974  24.511  23.590  12.093
30554W        W91975  25.536  10.873  11.560
30555W        W91976  16.173  35.878   2.888
30556W        W91977   8.662  13.599  13.352
30557W        W91978  34.077  37.447   1.443
30558W        W91979  14.703  36.385   1.919
30559W        W91980  11.339   2.929  14.342
30560W        W91981  11.330   2.732   0.744
30561W        W91982  24.022  34.477   2.704
30562W        W91983   6.216  16.265   0.244
30563W        W91984  28.093  26.993   0.465
30564W        W91985  34.410  11.161   4.792
30565W        W91986   2.910  10.656  11.118
30566W        W91987  25.999   8.817   2.226
30567W        W91988  16.110   5.693  11.905
30568W        W91989  34.614  37.358  14.832
30569W        W91990  15.234  35.063  13.059
30570W        W91991  37.503  22.132   3.340
30571W        W91992  20.640  28.505   4.341
30572W        W91993  23.224   2.926  12.896
30573W        W91994  39.433  42.872   3.669
30574W        W91995   4.280  36.460   0.815
30575W        W91996  38.507  18.672   4.683
30576W        W91997  11.694   3.818   2.232
30577W        W91998  24.129  37.463   5.282
30578W        W91999  32.450   1.826   3.194
30579W        W92000  38.999   0.287   2.260
30580W        W92001  39.978   7.333  10.893
30581W        W92002  30.487  18.724  11.109
30582W        W92003  37.955  19.640  12.926
30583W        W92004  41.428  41.826   4.201
30584W        W92005   2.393   1.904   0.436
30585W        W92006  33.065  26.659   1.924
30586W        W92007  14.285  18.219   3.782
30587W        W92008  10.229  12.251  10.988
30588W        W92009  18.126  40.852  12.540
30589W        W92010  39.463  36.510  14.275
30590W        W92011  39.942  37.992  13.057
30591W        W92012  16.745  34.978   3.382
30592W        W92013  20.633   5.371   5.253
30593W        W92014  12.225   9.871   2.219
30594W        W92015  12.170  32.084  12.054
30595W        W92016  14.141  24.091  12.082
30596W        W92017  27.507  28.940   4.319
30597W        W92018  36.845  15.131   0.428
30598W        W92019   2.354  41.930   0.922
30599W        W92020  30.601  36.056   0.870
30600W        W92021  13.832  17.670   3.221
30601W        W92022  36.933  34.096   0.837
30602W        W92023  12.273  14.702  14.925
30603W        W92024  32.070  37.930  14.991
30604W        W92025  35.506   6.384   5.206
30605W        W92026  31.915  40.529  11.565
30606W        W92027  30.158  37.376  11.017
30607W        W92028  34.971   7.342  13.413
30608W        W92029  44.914  15.620   2.284
30609W        W92030  25.631  23.094   2.335
30610W        W92031  34.601   3.827   2.363
30611W        W92032  44.927  31.963   1.320
30612W        W92033  25.974  44.832   2.853
30613W        W92034  40.459  44.805  12.961
30614W        W92035   6.908   7.837   1.747
30615W        W92036  24.164  38.501   3.369
30616W        W92037  11.240  32.897  12.485
30617W        W92038  39.822  12.765  14.859
30618W        W92039  19.696  34.523   2.816
30619W        W92040  38.825  24.168   3.314
30620W        W92041  15.606  14.692  13.917
30621W        W92042  43.287  25.138  11.081
30622W        W92043  42.974   2.461   1.805
30623W        W92044  27.180   2.773  14.515
30624W        W92045  37.885  24.184   3.846
30625W        W92046  23.631   1.753   0.285
30626W        W92047  36.512  43.877  10.902
30627W        W92048  34.471  29.105  11.963
30628W        W92049  15.602  24.717  11.523
30629W        W92050  15.679  33.620  13.953
30630W        W92051  36.444  20.639  11.484
30631W        W92052  13.657   0.304  13.392
30632W        W92053  15.616  38.413  12.555
30633W        W92054  35.576   3.419   3.634
30634W        W92055  10.868  19.216   3.701
30635W        W92056  41.948  19.196  14.437
30636W        W92057   6.828  26.057   5.296
30637W        W92058  41.834   6.680   3.647
30638W        W92059  31.454  19.043   0.463
30639W        W92060  24.167  34.391  13.498
30640W        W92061  29.580   5.700   0.848
30641W        W92062  32.016  14.204  13.545
30642W        W92063  41.360  31.109  12.865
30643W        W92064   0.316  32.133   2.408
30644W        W92065  12.319  37.343   2.835
30645W        W92066  39.951  40.837  14.763
30646W        W92067  30.439   4.797   1.260
30647W        W92068   7.825  37.923   5.763
30648W        W92069   9.656  14.638   1.319
30649W        W92070  38.529  25.114  13.392
30650W        W92071  40.960   5.769   4.644
30651W        W92072  10.305  43.502  11.403
30652W        W92073  27.545  23.729  14.897
30653W        W92074  17.564  36.856  12.524
30654W        W92075  38.395  24.081   0.286
30655W        W92076  32.570  17.272   2.696
30656W        W92077  26.201   3.873   2.323
30657W        W92078   1.415  42.024  12.982
30658W        W92079  25.138  16.076   2.829
30659W        W92080  41.832  34.058  13.317
30660W        W92081  31.552   0.369   1.875
30661W        W92082  17.733  25.478  13.368
30662W        W92083   0.890  22.514   0.395
30663W        W92084  26.508   8.801   1.287
30664W        W92085  14.776  32.956  14.443
30665W        W92086  11.752  34.412  12.095
30666W        W92087  13.234  35.374  13.394
30667W        W92088  42.377  40.524  13.327
30668W        W92089  19.237  12.630  11.025
30669W        W92090  38.998   5.714   0.255
30670W        W92091  41.319  20.641  11.602
30671W        W92092  23.724   2.959   3.241
30672W        W92093  10.151  21.668  14.484
30673W        W92094   9.681  32.046  14.961
30674W        W92095  41.957  10.380   0.463
30675W        W92096  25.567   6.873  10.502
30676W        W92097  34.049  22.025   1.303
30677W        W92098  20.720  20.167  11.095
30678W        W92099  39.015  34.564  13.043
30679W        W92100   8.704  10.804  12.903
30680W        W92101  37.031  24.030   0.395
30681W        W92102  19.165  20.043  11.516
30682W        W92103   1.749  10.284  12.064
30683W        W92104  11.810   1.325  10.636
30684W        W92105   7.344  37.036  11.048
30685W        W92106  18.714  38.914  11.584
30686W        W92107  24.213   7.177   1.700
30687W        W92108  24.724  20.636  11.013
30688W        W92109  12.297  14.195   2.815
30689W        W92110   9.299  35.450   1.818
30690W        W92111  42.507   7.897  10.991
30691W        W92112  39.811  30.935  14.340
30692W        W92113   7.756  27.095   2.279
30693W        W92114  42.406   6.922   4.735
30694W        W92115  40.426  31.978  13.886
30695W        W92116  40.438   1.445  10.612
30696W        W92117  12.715  25.558  12.856
30697W        W92118  30.123  36.512   1.281
30698W        W92119   1.320   9.701  14.911
30699W        W92120  12.138  26.177  14.785
30700W        W92121  19.647  21.074  14.026
30701W        W92122  19.684  39.893  11.866
30702W        W92123  20.194  23.490  11.856
30703W        W92124  40.306  39.546  11.980
30704W        W92125  31.954   4.430   0.418
30705W        W92126  27.027  23.117   0.324
30706W        W92127  17.263  24.646   1.337
30707W        W92128   6.361  37.374  13.547
30708W        W92129  17.774  33.966  13.338
30709W        W92130  17.212  32.017  12.424
30710W        W92131  27.508  19.274   3.229
30711W        W92132  28.456  42.887  13.456
30712W        W92133  37.473  41.340  10.965
30713W        W92134  39.462  10.638  14.401
30714W        W92135  22.551  31.640  14.948
30715W        W92136  12.279  33.385   4.705
30716W        W92137  11.321  31.496  11.575
30717W        W92138  32.525  23.219  14.336
30718W        W92139  16.293  19.771  14.837
30719W        W92140   6.905   0.924  12.935
30720W        W92141  41.028   0.392   0.887
30721W        W92142  34.463  20.558  12.443
30722W        W92143  34.888  26.598  14.485
30723W        W92144  13.153  16.728   1.303
30724W        W92145  11.659  33.457   9.969
30725W        W92146  12.229  12.737  10.531
30726W        W92147  31.938  13.678  13.967
30727W        W92148  14.652  25.146  10.492
30728W        W92149  41.007  33.405   2.254
30729W        W92150  36.478  31.513   1.880
30730W        W92151  13.693   8.870  12.405
30731W        W92152  36.508   2.859  14.963
30732W        W92153  39.426  41.327  14.381
30733W        W92154  17.105  19.765  13.538
30734W        W92155  10.799   9.662  11.585
30735W        W92156  19.550  44.956   0.813
30736W        W92157  17.131  40.799   2.365
30737W        W92158  12.848  12.675   3.766
30738W        W92159   6.260  14.643   2.783
30739W        W92160   6.336  26.627  10.632
30740W        W92161  34.102   0.787   9.946
30741W        W92162  34.945  26.515   0.250
30742W        W92163  16.802  18.251  13.901
30743W        W92164  39.374  36.490   0.879
30744W        W92165  28.654   7.808   4.797
30745W        W92166  28.148   4.882   4.346
30746W        W92167  29.008  18.139  12.832
30747W        W92168  42.873  23.588  13.435
30748W        W92169  18.194  41.376  12.864
30749W        W92170  10.249  35.891  11.857
30750W        W92171   2.406  14.613  13.391
30751W        W92172  22.075  25.027  12.953
30752W        W92173   7.696  24.696  10.159
30753W        W92174  14.192  10.355  14.794
30754W        W92175   6.185  31.132   4.746
30755W        W92176   1.433  33.559  13.501
30756W        W92177  43.844  15.677   0.359
30757W        W92178  21.600  15.103  11.953
30758W        W92179  40.901  22.206  14.810
30759W        W92180  11.769  22.661   1.381
30760W        W92181  14.788   3.324  14.406
30761W        W92182  37.078   9.221   3.722
30762W        W92183  19.169  42.508  14.417
30763W        W92184  38.965  44.341  13.535
30764W        W92185  21.078   0.927   5.302
30765W        W92186  36.428  34.095   1.796
30766W        W92187  14.590  22.614   0.287
30767W        W92188   0.971  28.453   0.777
30768W        W92189  14.255  28.021  11.571
30769W        W92190   4.241  15.700   0.847
30770W        W92191  41.325  17.069  13.393
30771W        W92192   5.225  10.221   3.833
30772W        W92193  35.899  18.694  10.908
30773W        W92194   9.205   9.275  13.842
30774W        W92195   6.869  23.182   2.254
30775W        W92196   4.784  14.760   3.310
30776W        W92197  24.585  14.726   1.241
30777W        W92198  41.026  38.506  11.116
30778W        W92199  27.118   9.381   3.711
30779W        W92200  26.585   4.913   3.223
30780W        W92201  35.436  38.484  10.983
30781W        W92202  29.027  23.589   2.677
30782W        W92203  15.781  44.807  12.466
30783W        W92204  33.963   5.858  10.918
30784W        W92205  40.999  19.623  11.044
30785W        W92206  43.884   7.789   2.355
30786W        W92207  18.082  29.988  12.895
30787W        W92208  43.841  16.661  11.503
30788W        W92209  17.230  28.675   4.311
30789W        W92210  43.320  12.238   4.600
30790W        W92211  12.841  11.229  12.992
30791W        W92212  23.607  41.335   3.243
30792W        W92213  32.113  28.653  14.308
30793W        W92214   6.263  38.327  13.836
30794W        W92215  14.213  41.387   2.222
30795W        W92216  32.054  39.556  14.819
30796W        W92217  19.706  10.308   0.935
30797W        W92218  22.095  42.311   2.242
30798W        W92219  44.008  15.617  12.360
30799W        W92220  33.942  31.037  11.078
30800W        W92221  21.058  12.658   1.374
30801W        W92222   0.964   4.847   0.919
30802W        W92223  11.347  35.954  14.407
30803W        W92224  38.338  35.885   2.220
30804W        W92225   1.242  23.661  10.636
30805W        W92226  44.308  43.379  14.785
30806W        W92227  37.078  13.696   1.285
30807W        W92228  26.123  25.188   4.805
30808W        W92229  34.080  32.940  11.514
30809W        W92230   5.245  34.519   3.798
30810W        W92231  21.263  23.659   1.315
30811W        W92232  23.135   8.801   2.888
30812W        W92233  14.149   0.811   4.213
30813W        W92234   2.758  41.803  12.880
30814W        W92235  21.073  30.136   1.725
30815W        W92236   6.298  38.548   5.697
30816W        W92237  13.844  20.631  10.589
30817W        W92238  16.254   2.262  11.566
30818W        W92239  17.241   3.319  12.391
30819W        W92240  19.103   3.846  13.542
30820W        W92241   7.401  27.519  11.386
30821W        W92242  21.684  25.062   2.364
30822W        W92243   0.766   6.757  12.445
30823W        W92244  33.438  18.733  13.375
30824W        W92245  25.157  35.096  14.873
30825W        W92246   3.920  42.938  14.364
30826W        W92247  38.901  31.637  13.495
30827W        W92248   8.314  24.109   2.678
30828W        W92249  36.869   4.799   1.348
30829W        W92250  12.768  40.835   0.347
30830W        W92251  24.589   9.217  13.907
30831W        W92252   1.889  34.073   2.736
30832W        W92253   8.356  27.193   2.722
30833W        W92254  24.037   4.351  10.552
30834W        W92255  39.507  38.416  12.891
30835W        W92256   9.331  32.431   4.804
30836W        W92257  23.033  28.179   3.731
30837W        W92258  21.540  40.858  12.048
30838W        W92259  11.681  25.105  13.847
30839W        W92260  19.558  30.646   3.816
30840W        W92261  39.824  17.230  14.876
30841W        W92262   3.728  21.225   0.864
30842W        W92263  43.301  17.085  13.838
30843W        W92264  29.041  26.113  11.390
30844W        W92265   2.336  42.418  11.049
30845W        W92266   4.776   3.230   1.228
30846W        W92267   8.747   6.739   4.281
30847W        W92268  11.775  31.962   3.703
30848W        W92269  33.896   9.839  11.509
30849W        W92270  35.424   6.324   0.746
30850W        W92271  40.545   7.849   4.244
30851W        W92272  36.417  28.468   0.339
30852W        W92273   9.180  27.673   0.958
30853W        W92274  32.133  40.998  13.483
30854W        W92275  17.230  31.578   3.350
30855W        W92276  20.591   9.679   2.820
30856W        W92277  34.098  19.065   2.898
30857W        W92278  33.985  16.203   2.715
30858W        W92279   1.920  41.338   2.699
30859W        W92280  31.039  23.162  12.831
30860W        W92281   6.769  13.655   3.190
30861W        W92282  35.592  39.953   3.153
30862W        W92283   6.799   1.317  13.915
30863W        W92284   8.795  17.246  14.024
30864W        W92285  26.570  20.231   3.633
30865W        W92286   7.351  21.757  12.520
30866W        W92287  23.628  20.610   4.332
30867W        W92288  26.630  12.826   1.841
30868W        W92289  11.167  21.079   3.823
30869W        W92290  17.614  14.198   1.884
30870W        W92291  17.079  22.201   1.786
30871W        W92292  23.666   2.230  13.818
30872W        W92293  23.594  23.094  13.821
30873W        W92294  43.801  41.493   1.230
30874W        W92295  38.508  24.573  12.372
30875W        W92296  25.593  29.525   3.692
30876W        W92297  13.659  43.385  14.352
30877W        W92298  31.115  40.421   2.273
30878W        W92299   0.438  12.277   4.687
30879W        W92300   9.770  38.437  12.495
30880W        W92301  26.473  13.698   4.181
30881W        W92302  16.301  16.745   1.762
30882W        W92303  16.599  10.364  10.003
30883W        W92304   9.205  38.419  13.798
30884W        W92305  18.637   0.412   2.870
30885W        W92306  37.064   9.725  12.467
30886W        W92307   6.426  17.692   1.857
30887W        W92308  29.033  36.980  13.971
30888W        W92309  37.407   0.346  14.390
30889W        W92310  21.610  39.980  11.542
30890W        W92311   6.285  20.170   4.790
30891W        W92312   6.721  36.861  10.420
30892W        W92313  24.140  16.121  13.499
30893W        W92314  15.777   3.257  12.908
30894W        W92315  20.189  16.300   5.127
30895W        W92316   2.894   4.295   1.264
30896W        W92317  22.074  33.902   4.224
30897W        W92318   1.907  23.083   5.237
30898W        W92319  42.498   1.387   3.870
30899W        W92320  37.447  33.938  11.606
30900W        W92321   9.741  19.169  10.418
30901W        W92322   0.398   2.237   2.366
30902W        W92323   2.784  26.151  13.991
30903W        W92324  24.172   6.194   9.986
30904W        W92325   4.376  14.265  14.963
30905W        W92326  40.302  10.375  14.871
30906W        W92327  13.630   7.197   1.773
30907W        W92328  31.430   8.798  12.429
30908W        W92329  36.355   7.810   0.949
30909W        W92330  35.560   4.213  10.950
30910W        W92331  30.572   3.369  12.001
30911W        W92332  35.888  18.639   3.743
30912W        W92333  24.005  35.039   1.912
30913W        W92334  22.733  25.172  11.954
30914W        W92335  19.629  42.347   1.438
30915W        W92336  44.361   1.780  14.285
30916W        W92337  27.197  24.597  13.321
30917W        W92338   4.835  21.229   1.254
30918W        W92339  11.345  15.136   3.844
30919W        W92340  44.925  31.475  13.506
30920W        W92341   8.720   9.263   4.837
30921W        W92342  38.456  34.903  13.979
30922W        W92343  42.851  33.407   0.411
30923W        W92344  24.681  15.218   3.675
30924W        W92345   2.299  12.286  14.298
30925W        W92346  21.087  27.481   9.921
30926W        W92347   3.333  20.183  11.512
30927W        W92348  32.573   8.338  12.429
30928W        W92349  22.701  25.579   4.195
30929W        W92350  25.083  19.754  10.480
30930W        W92351   8.242   1.923  10.538
30931W        W92352  37.832   5.342  11.958
30932W        W92353  12.760  30.984   2.263
30933W        W92354  24.607  36.948   0.456
30934W        W92355   5.779  13.832   1.870
30935W        W92356  14.804   4.215   2.256
30936W        W92357   8.273  30.052   4.690
30937W        W92358   9.177  37.488   0.454
30938W        W92359  30.064   6.286  11.033
30939W        W92360  43.423  22.121   3.817
30940W        W92361  38.440  41.457   3.168
30941W        W92362  29.625  14.206  12.900
30942W        W92363   6.920  40.882   3.864
30943W        W92364  43.388  22.659   0.902
30944W        W92365  12.845  32.508   4.349
30945W        W92366  37.927  38.504   3.302
30946W        W92367  35.929  36.375   0.368
30947W        W92368  19.157  12.177  13.801
30948W        W92369  23.012  36.906   4.622
30949W        W92370  26.671  19.688  13.337
30950W        W92371  16.736  36.952   3.670
30951W        W92372  19.613  27.125  13.862
30952W        W92373   3.750  10.286   1.410
30953W        W92374   6.692   2.237  14.404
30954W        W92375  24.721   5.770   2.401
30955W        W92376  32.484  19.732  12.422
30956W        W92377   1.450   5.756   0.911
30957W        W92378  32.582   2.431   3.636
30958W        W92379  33.065  23.993  12.519
30959W        W92380  43.835   0.426  14.826
30960W        W92381  35.445  18.612   3.795
30961W        W92382  43.301   3.713   2.359
30962W        W92383  42.292  30.991   1.737
30963W        W92384  44.924  10.667  10.902
30964W        W92385  34.085  42.353   1.806
30965W        W92386  19.700   4.292   2.866
30966W        W92387  44.807  19.732   0.299
30967W        W92388   1.398  14.801  13.053
30968W        W92389  29.971  30.065   4.265
30969W        W92390  17.273   8.363  11.965
30970W        W92391  35.083  26.687   5.174
30971W        W92392   3.784  11.178  12.920
30972W        W92393  21.100  23.039  13.453
30973W        W92394  32.512  22.069  10.988
30974W        W92395  24.037  24.620   1.348
30975W        W92396  35.047  40.514   2.789
30976W        W92397  15.587  18.689  13.984
30977W        W92398  22.549  19.594  11.485
30978W        W92399  41.525  10.865   2.369
30979W        W92400  36.859  33.481  10.634
30980W        W92401  24.515  42.312  12.493
30981W        W92402  26.675  43.815   0.354
30982W        W92403   5.728  11.868  13.921
30983W        W92404  15.594  14.136   2.277
30984W        W92405   1.767   8.359   2.686
30985W        W92406   3.424  44.822   0.930
30986W        W92407  14.827  19.652   1.307
30987W        W92408  18.668  12.275  12.988
30988W        W92409  12.642  28.013  11.992
30989W        W92410  42.923   1.916   3.241
30990W        W92411  31.952  23.034  11.975
30991W        W92412  32.601  36.554   2.193
30992W        W92413   0.914  44.447  14.362
30993W        W92414  23.115  24.597   0.431
30994W        W92415  32.550  34.031   1.915
30995W        W92416   4.794  14.685   2.186
30996W        W92417  37.384  38.392   2.762
30997W        W92418  21.519   3.770  14.952
30998W        W92419  19.206  28.570  10.961
30999W        W92420  13.661  12.776   3.187
31000W        W92421  22.030  13.267   9.671
31001W        W92422  27.989   4.284   4.214
31002W        W92423  40.442  15.212  13.390
31003W        W92424  37.382  34.926  10.557
31004W        W92425   5.264   0.461   1.397
31005W        W92426  39.930  44.892  14.387
31006W        W92427   6.878  36.511  11.387
31007W        W92428  14.682  32.429   4.804
31008W        W92429   3.818  25.517   0.827
31009W        W92430  15.771   1.246  12.993
31010W        W92431   7.772  22.567   4.767
31011W        W92432   2.470   5.242  12.846
31012W        W92433  32.411  21.044  11.383
31013W        W92434  33.416  39.554  13.970
31014W        W92435   7.218  43.018  14.920
31015W        W92436   2.457  36.559  14.799
31016W        W92437   6.773   5.379  13.367
31017W        W92438  43.017  41.317   1.762
31018W        W92439   2.736  14.608  13.934
31019W        W92440  42.960   7.673  14.992
31020W        W92441  27.072  43.467  10.992
31021W        W92442  34.916  35.935   1.394
31022W        W92443   5.343   7.384   1.354
31023W        W92444  39.810  26.121   4.813
31024W        W92445  39.880  35.022  14.838
31025W        W92446  22.650  16.710   1.423
31026W        W92447  13.704  17.670  14.784
31027W        W92448  25.606  12.135   0.784
31028W        W92449  35.090  33.059   2.856
31029W        W92450  19.141  39.972  10.891
31030W        W92451   8.674  41.036  13.973
31031W        W92452  24.713  18.634  13.537
31032W        W92453   7.667  19.219   3.304
31033W        W92454   7.711  37.988  14.763
31034W        W92455   9.862  14.208   1.381
31035W        W92456  20.761  22.009  10.601
31036W        W92457  32.456   0.486  13.018
31037W        W92458   0.387  20.061  12.919
31038W        W92459   3.926  30.000   1.336
31039W        W92460   0.284  18.696  13.050
31040W        W92461  14.139  18.284  11.924
31041W        W92462  30.916   9.232  10.424
31042W        W92463  37.986  12.846  14.806
31043W        W92464  24.484  27.072  10.613
31044W        W92465  12.206  31.116  12.469
31045W        W92466  12.721   7.177  12.354
31046W        W92467   1.478  22.032   3.303
31047W        W92468   3.304  41.324  10.911
31048W        W92469   6.359  44.475   3.839
31049W        W92470   5.330  25.697   0.373
31050W        W92471   6.726  29.554  10.602
31051W        W92472  22.077  16.752  12.097
31052W        W92473  40.937  23.576   4.809
31053W        W92474  19.272  42.788  10.901
31054W        W92475  34.541  29.133   1.913
31055W        W92476  28.652   4.806  11.475
31056W        W92477  21.571  31.624   3.810
31057W        W92478   1.450  33.938   0.814
31058W        W92479  43.823   9.830  10.568
31059W        W92480  13.342  36.470   3.837
31060W        W92481  14.624   4.800  11.583
31061W        W92482  30.420  11.744  14.949
31062W        W92483   5.224  40.022   1.908
31063W        W92484  40.415  15.652  11.431
31064W        W92485   1.827  11.329  13.834
31065W        W92486  24.224  10.343   4.119
31066W        W92487  25.662  41.828  13.925
31067W        W92488  31.417  36.477  13.938
31068W        W92489   5.771  33.608   1.378
31069W        W92490  12.729   0.284   0.890
31070W        W92491  21.729  17.750  12.862
31071W        W92492   9.391   3.773   2.858
31072W        W92493   6.206  16.572  11.865
31073W        W92494  32.546  18.662  14.032
31074W        W92495  34.948   8.704   4.804
31075W        W92496  19.109  17.788  12.530
31076W        W92497   6.789  40.020   1.386
31077W        W92498   5.748  42.348  10.936
31078W        W92499  18.284  18.152  11.877
31079W        W92500  17.599  31.101   2.688
31080W        W92501  18.703  43.401  11.903
31081W        W92502   5.268  14.302   0.825
31082W        W92503  29.966   1.443   3.850
31083W        W92504  44.975   2.296   3.314
31084W        W92505  21.222  43.917   3.211
31085W        W92506   6.308  36.566   0.768
31086W        W92507  28.023  14.146   4.836
31087W        W92508  19.273  28.959  12.000
31088W        W92509  31.485  31.583   4.168
31089W        W92510  26.569   6.390   4.619
31090W        W92511  16.712   8.780   4.668
31091W        W92512  20.210  15.796  12.867
31092W        W92513  42.526  40.510   2.306
31093W        W92514  32.470  10.243  10.155
31094W        W92515   6.254  37.566   3.812
31095W        W92516  41.386  31.082   4.332
31096W        W92517   3.857  23.042   9.947
31097W        W92518  33.075   6.281   4.190
31098W        W92519  27.174   6.825  12.869
31099W        W92520  37.402  36.844   0.832
31100W        W92521  36.064   5.818  13.913
31101W        W92522  15.248   0.381   2.284
31102W        W92523  44.316   2.890  12.081
31103W        W92524  20.197   0.301   4.716
31104W        W92525  43.515   2.915   0.412
31105W        W92526  18.282  40.510   1.718
31106W        W92527  19.146  19.077   2.220
31107W        W92528  36.559  31.066   0.464
31108W        W92529  37.859  37.943  14.487
31109W        W92530  20.629  41.945  12.868
31110W        W92531  38.869  38.863   4.279
31111W        W92532   8.873  37.943   2.665
31112W        W92533  44.308  40.391   0.929
31113W        W92534  33.959   5.693   1.800
31114W        W92535  35.413  17.242   2.321
31115W        W92536  34.407  23.615  11.974
31116W        W92537  29.125  25.169   0.855
31117W        W92538  18.288  28.641  13.505
31118W        W92539  15.733  17.680  13.844
31119W        W92540  21.202  40.518  12.353
31120W        W92541   7.824  27.110  13.504
31121W        W92542  21.690   7.846  13.988
31122W        W92543  39.926   9.685  14.310
31123W        W92544  24.173  28.180   0.264
31124W        W92545   5.797  28.991  13.421
31125W        W92546  10.645   9.674  12.832
31126W        W92547  34.927  24.587  14.275
31127W        W92548   5.886  32.068   2.834
31128W        W92549  42.291   8.248   4.681
31129W        W92550  17.708  31.521  14.321
31130W        W92551   9.669  22.143   1.337
31131W        W92552  34.095   1.354   3.819
31132W        W92553   6.689  25.063   9.593
31133W        W92554  16.790  41.365  13.329
31134W        W92555  35.070  32.085  14.796
31135W        W92556  28.120  15.326   4.162
31136W        W92557  42.311  35.581   4.147
31137W        W92558  25.573  38.826  12.856
31138W        W92559  11.280  39.433   1.221
31139W        W92560  14.202  12.734  14.024
31140W        W92561  26.120  44.010  12.941
31141W        W92562  29.965  29.954   3.686
31142W        W92563   1.928  42.015   4.834
31143W        W92564  26.551  23.206   1.342
31144W        W92565  12.617  37.390   4.745
31145W        W92566  11.690  31.445   3.742
31146W        W92567   1.845  12.846   4.326
31147W        W92568   1.853  24.119  14.401
31148W        W92569  40.889   0.814   2.328
31149W        W92570   7.210  25.490  13.395
31150W        W92571  30.448   0.956  12.033
31151W        W92572  42.491   4.214  11.891
31152W        W92573  39.491   2.795  13.848
31153W        W92574  16.278  34.035   4.775
31154W        W92575  13.289  42.971   2.855
31155W        W92576   3.333  11.320   2.239
31156W        W92577  25.587   6.277   2.698
31157W        W92578  14.765  39.560  13.397
31158W        W92579  30.497  22.670  10.591
31159W        W92580   3.302  18.671  12.572
31160W        W92581  11.357  34.580  13.902
31161W        W92582  28.513  27.977  13.986
31162W        W92583  20.597  43.854   0.760
31163W        W92584  26.974  20.746   2.805
31164W        W92585  39.501  21.713  14.478
31165W        W92586   9.377  17.741  12.392
31166W        W92587  24.509   4.784   2.303
31167W        W92588  32.000  21.608  12.564
31168W        W92589  43.433  39.399   3.864
31169W        W92590  34.897   9.253  11.949
31170W        W92591  16.667  36.018  14.323
31171W        W92592   5.391  37.463  12.955
31172W        W92593   6.753  18.092  14.312
31173W        W92594  13.661   9.153   0.899
31174W        W92595  29.623  21.027   2.258
31175W        W92596  15.675   1.953  11.447
31176W        W92597  33.564  25.660  11.095
31177W        W92598  40.500  24.683  14.785
31178W        W92599  31.041  13.343   2.813
31179W        W92600   3.788   7.280   3.315
31180W        W92601  36.098  38.055  12.042
31181W        W92602  12.668   9.356  14.344
31182W        W92603  17.141  31.560  14.944
31183W        W92604  16.666   9.388  14.442
31184W        W92605  16.140   8.714  11.028
31185W        W92606  14.603  42.479  12.561
31186W        W92607  24.037  39.059  10.581
31187W        W92608   9.231  20.260  13.535
31188W        W92609  40.860  14.682  11.998
31189W        W92610  29.497  42.830   1.262
31190W        W92611  30.614  35.473  13.920
31191W        W92612   7.744  23.541   1.283
31192W        W92613  17.272  34.958  14.988
31193W        W92614  19.670  38.523   3.374
31194W        W92615  37.457  35.446   0.324
31195W        W92616   4.856  41.409   4.249
31196W        W92617   6.901  24.183  11.527
31197W        W92618  22.543   6.679   1.290
31198W        W92619  29.968  20.537  10.910
31199W        W92620   4.244  38.388  12.467
31200W        W92621  28.543  37.993   4.838
31201W        W92622   7.236   5.378  14.499
31202W        W92623   8.316  34.058   4.132
31203W        W92624   8.704  43.310   2.238
31204W        W92625  26.501   0.786   5.111
31205W        W92626   5.412  36.055  13.900
31206W        W92627  37.043  23.237  13.971
31207W        W92628  30.152  38.422   3.807
31208W        W92629  35.450  31.093   3.682
31209W        W92630   5.313  34.526   0.954
31210W        W92631   1.768  15.715  14.032
31211W        W92632  40.522  33.601  10.536
31212W        W92633  24.636  41.814   0.879
31213W        W92634   8.845  10.200  10.576
31214W        W92635  11.735  13.655  11.894
31215W        W92636  16.575  33.115   3.152
31216W        W92637  38.533  28.665  11.002
31217W        W92638   2.878   1.345   1.763
31218W        W92639  24.998  27.141  13.335
31219W        W92640  19.727   6.384  12.517
31220W        W92641  36.970  36.882   2.179
31221W        W92642  22.648  17.650  11.561
31222W        W92643  19.570   8.888  13.410
31223W        W92644  32.602  33.885  12.421
31224W        W92645  31.069  19.171  12.570
31225W        W92646   8.687  24.702  12.578
31226W        W92647  29.466  16.082   4.790
31227W        W92648  16.616  11.642   0.755
31228W        W92649  22.536  19.674  10.472
31229W        W92650  23.527   0.765  11.045
31230W        W92651  44.261  40.314  11.508
31231W        W92652  33.551  16.634  11.517
31232W        W92653  35.480  25.080   2.672
31233W        W92654  26.698  27.629   2.890
31234W        W92655  32.481  20.080  10.437
31235W        W92656  26.132   4.325  10.608
31236W        W92657  10.232  22.630   2.749
31237W        W92658  26.145  32.142   0.291
31238W        W92659   2.940  25.661  12.380
31239W        W92660  37.965  39.050  14.847
31240W        W92661  44.461   3.361  14.905
31241W        W92662  13.714  15.257   4.124
31242W        W92663  42.303   0.272  12.051
31243W        W92664  10.862  41.393  12.368
31244W        W92665  11.129  18.731  13.938
31245W        W92666  17.180  15.722   1.438
31246W        W92667  26.087  22.035  11.434
31247W        W92668  38.062   5.241  14.279
31248W        W92669  10.159  24.135   3.770
31249W        W92670  26.646  17.712   4.179
31250W        W92671   2.842  19.238   1.799
31251W        W92672  44.958  42.794  13.875
31252W        W92673  44.912   5.196   3.256
31253W        W92674  37.496  27.580  11.477
31254W        W92675   7.300  34.869  11.432
31255W        W92676  18.782   8.861  11.950
31256W        W92677  27.103  31.950   2.309
31257W        W92678  28.020  30.048   5.278
31258W        W92679  27.624  16.109  13.035
31259W        W92680  36.029   8.827   4.297
31260W        W92681  25.172  18.778   4.269
31261W        W92682  35.929  27.597   1.818
31262W        W92683  13.715  35.577   0.949
31263W        W92684  19.669  18.574   4.304
31264W        W92685   7.728   3.312  11.930
31265W        W92686  15.644  34.521  10.537
31266W        W92687  15.785   5.361   1.451
31267W        W92688  22.240   2.884   0.947
31268W        W92689  34.892  37.845   3.717
31269W        W92690  32.971  32.977  12.868
31270W        W92691   2.313  11.193  12.025
31271W        W92692   3.790  27.155   0.393
31272W        W92693   7.882  24.631   4.797
31273W        W92694  13.782  29.663  10.891
31274W        W92695   6.837   8.194  12.402
31275W        W92696  34.380   8.258   2.887
31276W        W92697   7.674  17.145   0.951
31277W        W92698  38.030  40.530   3.203
31278W        W92699   3.345  32.990  11.610
31279W        W92700  31.082   6.347   2.670
31280W        W92701   5.368  20.091  13.516
31281W        W92702  26.063   3.313   4.738
31282W        W92703   2.396  28.564   4.263
31283W        W92704  11.654  23.616  14.846
31284W        W92705  34.532   8.283   4.275
31285W        W92706  26.192  32.484  14.966
31286W        W92707  36.972   6.255  13.953
31287W        W92708  35.541  26.461   9.982
31288W        W92709  17.561  18.224   4.122
31289W        W92710   8.696  11.823  10.501
31290W        W92711  32.945  26.977  11.050
31291W        W92712  23.097  34.985   0.781
31292W        W92713  38.077  33.545  11.993
31293W        W92714   7.249  36.895   4.154
31294W        W92715  38.000  13.119   2.736
31295W        W92716  34.503   2.893  12.452
31296W        W92717  11.225  17.099   0.872
31297W        W92718  33.498  42.915   2.389
31298W        W92719  16.737  44.288  10.889
31299W        W92720   0.891  36.931  11.949
31300W        W92721   2.425  43.424  13.033
31301W        W92722  32.483  36.937   0.330
31302W        W92723  28.120  18.052   0.920
31303W        W92724  11.275  19.723   3.194
31304W        W92725  36.585  12.171   2.675
31305W        W92726  27.030   2.959   0.267
31306W        W92727  27.682  31.520  13.424
31307W        W92728   7.195  23.547   0.922
31308W        W92729  22.631  40.869  14.432
31309W        W92730   5.730   3.396  13.326
31310W        W92731   9.770   1.805  14.904
31311W        W92732  17.217  37.854  11.085
31312W        W92733  10.347  12.651  10.589
31313W        W92734   7.855  14.196   0.452
31314W        W92735  29.531   2.789   2.821
31315W        W92736  40.433  16.657  14.989
31316W        W92737  44.396  14.266  11.888
31317W        W92738  18.728  38.882   2.308
31318W        W92739  11.155  23.189   1.698
31319W        W92740  23.597  30.165  12.346
31320W        W92741  36.054  18.229  13.965
31321W        W92742  21.041  10.326  14.362
31322W        W92743  28.495   7.182  14.782
31323W        W92744  40.544  27.081  14.328
31324W        W92745   6.302  42.836  13.981
31325W        W92746  26.202  22.072  13.045
31326W        W92747   5.296  41.890  13.543
31327W        W92748  25.582  29.125  12.087
31328W        W92749  24.024   1.315  10.511
31329W        W92750  34.530   4.886  11.403
31330W        W92751  16.154  43.450   3.806
31331W        W92752  10.832   5.709  14.408
31332W        W92753  22.242   3.876   2.182
31333W        W92754  19.631  13.121   3.330
31334W        W92755  13.740  23.030   4.601
31335W        W92756  11.837  21.536   2.323
31336W        W92757  36.025  42.526  10.491
31337W        W92758  32.615  42.349   0.418
31338W        W92759  34.991  26.081  14.347
31339W        W92760  14.734   4.703   4.751
31340W        W92761  30.589  32.527   3.754
31341W        W92762  44.800   7.201   4.802
31342W        W92763   0.367  19.580   2.309
31343W        W92764  21.050  13.168   1.236
31344W        W92765  44.445  32.941  12.013
31345W        W92766  23.109  42.443  13.378
31346W        W92767  43.921  36.480  13.971
31347W        W92768  42.943  27.673   4.767
31348W        W92769  30.648  39.854   0.283
31349W        W92770  12.799   7.722  13.844
31350W        W92771   1.447  18.674  14.344
31351W        W92772  28.002   3.901   3.745
31352W        W92773   9.697  44.316   2.698
31353W        W92774  24.067  13.140   1.404
31354W        W92775   8.241  11.801  14.895
31355W        W92776  30.513  11.802   4.706
31356W        W92777   8.257  30.549   4.318
31357W        W92778  26.131  19.638   2.191
31358W        W92779  24.656  14.190   1.260
31359W        W92780  19.085  18.084  14.286
31360W        W92781  41.383  37.968  12.886
31361W        W92782  31.152   8.396   4.834
31362W        W92783  34.931  10.714  14.882
31363W        W92784  33.502  29.587  13.797
31364W        W92785  41.333   7.911  10.515
31365W        W92786   8.285   6.362   2.778
31366W        W92787  12.760  30.628  13.953
31367W        W92788  41.454  16.131   1.780
31368W        W92789   4.343   4.307   1.848
31369W        W92790  27.960   0.780  10.020
31370W        W92791  22.166  43.329   4.187
31371W        W92792   5.382  10.700  14.832
31372W        W92793   6.904  34.387   3.846
31373W        W92794  16.269  32.407  14.440
31374W        W92795  25.982  38.570   0.314
31375W        W92796  35.575  23.683   2.207
31376W        W92797  44.871  23.134  13.917
31377W        W92798  32.104  21.107   0.306
31378W        W92799  15.704   1.915   3.827
31379W        W92800   0.845  37.429  13.428
31380W        W92801  10.735  13.141  12.071
31381W        W92802  34.445  22.033  12.007
31382W        W92803  17.142  38.044   4.307
31383W        W92804  23.517  13.189  12.016
31384W        W92805  20.674  13.143  11.384
31385W        W92806  44.823  17.127   2.195
31386W        W92807  10.363  39.518   9.470
31387W        W92808  24.010  27.583  10.891
31388W        W92809  16.671   0.346   2.315
31389W        W92810   8.336  31.476   1.913
31390W        W92811  38.518  39.543   1.349
31391W        W92812   2.877   3.439  14.915
31392W        W92813  44.934  31.985   2.789
31393W        W92814  44.890  25.585  11.868
31394W        W92815  14.173   6.753   2.815
31395W        W92816  22.727  24.484  14.390
31396W        W92817  19.220  20.214  12.885
31397W        W92818  33.573  21.087  12.064
31398W        W92819  33.985  26.522  14.291
31399W        W92820  21.558  20.678  10.430
31400W        W92821  24.655   3.367  14.402
31401W        W92822  23.024  30.041  12.484
31402W        W92823   8.250  39.959   1.694
31403W        W92824   1.352  26.469  12.558
31404W        W92825   3.339  37.362  12.480
31405W        W92826  32.899  26.550   1.373
31406W        W92827  25.086  40.403   2.866
31407W        W92828  22.615   3.378   5.271
31408W        W92829  32.434   8.229  13.512
31409W        W92830  44.430  25.006   9.942
31410W        W92831  21.615  16.312   4.602
31411W        W92832  17.733  24.498   3.230
31412W        W92833  32.942  17.150  13.417
31413W        W92834  36.521  34.083  11.041
31414W        W92835  10.720   8.361   0.806
31415W        W92836   2.321   5.328  11.088
31416W        W92837  40.447   1.437  14.816
31417W        W92838  28.519  44.424  13.858
31418W        W92839  17.611  41.390   2.662
31419W        W92840   3.326  22.696   0.365
31420W        W92841  13.776  35.400  11.388
31421W        W92842  16.623  38.933   4.695
31422W        W92843  29.039  42.787   4.800
31423W        W92844  43.849  35.865  12.549
31424W        W92845  34.479  20.207  13.799
31425W        W92846  17.568  26.024   3.661
31426W        W92847  33.012  38.960   3.277
31427W        W92848   0.844  22.727   1.315
31428W        W92849  21.579  41.327  12.859
31429W        W92850  24.681   3.909   4.151
31430W        W92851  32.432   8.800   4.810
31431W        W92852  27.530  17.654   0.426
31432W        W92853  33.607   1.359  14.307
31433W        W92854  34.525  21.165  14.807
31434W        W92855  15.259  44.398   2.755
31435W        W92856  38.975  41.845   4.785
31436W        W92857   5.821  21.674   1.869
31437W        W92858  37.528  16.115  14.981
31438W        W92859  18.747   3.780   2.220
31439W        W92860   1.821  29.635  10.962
31440W        W92861  20.227  16.270  13.493
31441W        W92862  29.044  16.207   0.815
31442W        W92863  34.369  17.127  12.526
31443W        W92864  25.486  43.338   4.196
31444W        W92865  18.183  33.587   2.819
31445W        W92866  10.361  19.239   2.704
31446W        W92867  13.665  39.314  14.841
31447W        W92868  18.778  36.887  11.396
31448W        W92869  22.056  17.783   0.784
31449W        W92870  21.718  40.370   0.767
31450W        W92871  33.009  10.692  14.795
31451W        W92872  33.496  25.970   4.212
31452W        W92873  42.482   7.793  14.368
31453W        W92874  37.487  22.501   2.783
31454W        W92875  43.469  36.978  14.791
31455W        W92876  20.077  36.372   3.215
31456W        W92877  14.191   1.299  14.891
31457W        W92878  18.157  38.366  12.007
31458W        W92879  39.992  12.780  13.397
31459W        W92880  42.962  16.126  10.117
31460W        W92881  36.585  10.183  14.875
31461W        W92882  31.469  10.635   1.847
31462W        W92883  27.155  19.601   4.179
31463W        W92884  21.243  26.004   3.171
31464W        W92885   9.785  37.510  14.296
31465W        W92886  17.649  38.896  12.496
31466W        W92887   9.384   2.402   1.359
31467W        W92888  33.114  28.501  11.453
31468W        W92889  36.903  30.596   2.792
31469W        W92890  40.363  30.607  14.897
31470W        W92891  42.024  17.581  14.501
31471W        W92892  39.045  14.312   0.809
31472W        W92893   9.190  17.082  14.973
31473W        W92894  10.728  26.670  10.115
31474W        W92895  11.205   7.825   3.772
31475W        W92896  24.163  18.580  13.464
31476W        W92897  43.777  43.402   4.722
31477W        W92898  29.085  16.606   2.752
31478W        W92899   5.378  41.376   4.260
31479W        W92900   9.257  27.011   4.166
31480W        W92901  27.603   0.941  13.486
31481W        W92902  24.526  18.188   0.827
31482W        W92903  25.208  40.347  10.467
31483W        W92904  20.642  26.982   4.339
31484W        W92905   6.716   7.271   0.790
31485W        W92906  17.771  23.020  11.395
31486W        W92907   9.291  29.645   1.236
31487W        W92908  26.087  32.011   3.746
31488W        W92909  44.767  20.155  12.387
31489W        W92910  25.664  42.375  13.917
31490W        W92911  43.834  44.394  14.445
31491W        W92912  21.249   3.372  14.030
31492W        W92913  20.636  17.190  11.943
31493W        W92914  29.976  32.975  10.897
31494W        W92915  25.034   9.161   0.335
31495W        W92916  13.819   4.221   4.710
31496W        W92917   3.420   0.853  13.483
31497W        W92918  43.833   9.851   4.230
31498W        W92919  43.328   4.734  13.839
31499W        W92920  22.578   7.866  13.441
31500W        W92921   2.230  18.752  11.547
31501W        W92922  27.607   3.729   1.380
31502W        W92923  27.689  13.701  11.067
31503W        W92924   3.360  38.487   0.455
31504W        W92925  32.116  35.106  14.922
31505W        W92926  26.057   3.234   0.832
31506W        W92927   1.821  26.602  14.511
31507W        W92928  15.775   0.299   3.728
31508W        W92929  26.679  30.966   4.347
31509W        W92930   5.909  22.086   1.828
31510W        W92931  23.546  30.914  11.091
31511W        W92932   6.889  28.029  13.020
31512W        W92933  32.911  18.565   1.447
31513W        W92934  23.997  21.111   3.811
31514W        W92935  12.853  35.033  10.596
31515W        W92936  37.000  18.554  13.428
31516W        W92937   4.324  31.462  12.492
31517W        W92938   1.875   4.844   0.945
31518W        W92939  28.048  22.033  13.408
31519W        W92940  18.752  20.047  13.451
31520W        W92941  35.428   2.422  12.906
31521W        W92942  22.027  30.424   4.732
31522W        W92943  40.963  37.555   1.433
31523W        W92944  35.414  33.480  12.973
31524W        W92945  26.954   1.273  12.934
31525W        W92946  20.590  36.014  11.112
31526W        W92947  37.383  29.546   5.206
31527W        W92948  43.421  17.582  10.476
31528W        W92949  29.650  28.628   1.914
31529W        W92950  38.462  19.575   2.415
31530W        W92951   0.258  38.429  11.992
31531W        W92952  29.552  19.152  11.900
31532W        W92953   4.280  18.117   0.264
31533W        W92954  26.115  30.591  13.027
31534W        W92955  39.812   0.487  10.992
31535W        W92956  14.100  41.378   1.934
31536W        W92957  40.505  38.469   2.337
31537W        W92958  44.988  37.955   1.325
31538W        W92959  13.764  28.960   0.461
31539W        W92960  39.460  11.241   5.566
31540W        W92961  12.843   0.252   3.685
31541W        W92962  39.963  30.967   3.854
31542W        W92963  24.211   4.257   5.122
31543W        W92964   9.274  16.607  14.508
31544W        W92965  42.313  23.083  12.009
31545W        W92966  33.062  36.897  14.445
31546W        W92967  11.687  17.258  13.862
31547W        W92968  32.056  26.094   2.889
31548W        W92969   6.726   7.406   2.817
31549W        W92970   3.901  38.465   2.748
31550W        W92971  14.197  10.664  12.436
31551W        W92972  29.994  33.961   2.826
31552W        W92973  11.756  15.747   1.845
31553W        W92974  12.305  43.985   4.827
31554W        W92975  40.868   3.803   4.333
31555W        W92976  15.267  18.729   3.235
31556W        W92977  25.182  25.688   5.147
31557W        W92978  10.308  40.340   2.813
31558W        W92979  19.276   5.692   3.264
31559W        W92980  12.660  14.678   2.313
31560W        W92981  13.826   0.912   0.747
31561W        W92982  13.670  26.550  11.086
31562W        W92983   4.840   9.213   0.467
31563W        W92984  12.119   8.297   3.222
31564W        W92985  18.748  36.906  12.482
31565W        W92986  10.819  15.320  14.415
31566W        W92987  41.905  28.933   1.792
31567W        W92988  43.344  42.343  13.323
31568W        W92989  33.960  34.491  11.563
31569W        W92990  16.651  10.354  11.048
31570W        W92991  37.883  25.503  10.920
31571W        W92992   1.870  31.154  12.493
31572W        W92993  22.995  16.194  11.483
31573W        W92994  24.231  17.107   2.878
31574W        W92995  30.477  31.916   1.251
31575W        W92996  44.277  23.216   4.768
31576W        W92997  23.603  27.092  13.017
31577W        W92998  25.570   8.366  14.309
31578W        W92999   2.893   8.744  13.452
31579W        W93000  30.936  30.970   0.920
31580W        W93001  30.997  16.198  11.418
31581W        W93002  39.810   3.330  13.056
31582W        W93003  37.564  26.988   3.670
31583W        W93004  27.679  26.102   4.759
31584W        W93005  42.003  20.586  11.596
31585W        W93006  15.614  38.908  13.963
31586W        W93007  40.341   4.285  14.882
31587W        W93008   4.878   8.816  14.871
31588W        W93009  37.425  41.293   1.395
31589W        W93010  37.571  22.078  12.575
31590W        W93011   0.902   0.400   0.877
31591W        W93012  42.777  28.582   0.362
31592W        W93013  11.760   1.818  13.910
31593W        W93014  38.955  28.474   3.713
31594W        W93015  12.681  28.530  13.844
31595W        W93016  27.006  36.543   2.776
31596W        W93017  10.147  27.659  14.968
31597W        W93018  44.309  14.730  12.868
31598W        W93019  18.165  43.816  10.959
31599W        W93020   1.447   2.913  14.963
31600W        W93021   7.240  38.012   4.137
31601W        W93022  10.305  19.587  13.524
31602W        W93023  44.884   9.819   1.393
31603W        W93024  19.541   1.264   1.812
31604W        W93025  17.260  41.515  13.000
31605W        W93026  41.486  36.075   1.413
31606W        W93027  40.858  44.847   0.428
31607W        W93028   8.270  17.220  11.003
31608W        W93029  30.627  30.506   4.738
31609W        W93030  25.166  11.178   1.862
31610W        W93031  17.728  41.379  11.566
31611W        W93032  37.954  19.214   3.295
31612W        W93033  37.478  25.196   1.757
31613W        W93034  28.537  23.064  11.898
31614W        W93035  16.575  30.041   2.327
31615W        W93036  34.042   1.399   0.296
31616W        W93037  12.789  35.087  12.926
31617W        W93038  15.094  41.386   2.733
31618W        W93039  20.204  26.681   5.082
31619W        W93040  44.281  31.433   3.637
31620W        W93041  43.787  20.759   0.363
31621W        W93042  25.707  25.218   3.703
31622W        W93043   8.676  25.014   1.257
31623W        W93044  35.567  22.016   2.214
31624W        W93045  39.535   9.805   2.846
31625W        W93046   9.858  16.252  10.532
31626W        W93047  16.586  20.068   0.395
31627W        W93048  41.318   6.192  14.311
31628W        W93049  33.095  25.145   4.675
31629W        W93050  12.723  34.046   1.330
31630W        W93051  15.615  15.228  10.559
31631W        W93052  27.526  42.821   4.789
31632W        W93053   7.227   9.676  10.531
31633W        W93054  12.703  23.674   2.816
31634W        W93055  17.609  43.914  10.634
31635W        W93056   7.842  37.996   4.248
31636W        W93057   3.877  30.503  13.000
31637W        W93058  39.387  27.570   0.384
31638W        W93059  28.569  38.072   3.324
31639W        W93060  43.444  20.243   2.236
31640W        W93061   9.203  15.641  14.886
31641W        W93062  32.959   7.277   3.249
31642W        W93063  30.443  43.372   3.169
31643W        W93064  20.768  26.564  13.809
31644W        W93065   3.321  40.838  11.049
31645W        W93066   8.808  21.592   1.880
31646W        W93067  10.339  33.960  13.064
31647W        W93068  40.488  35.903  12.881
31648W        W93069  14.832  35.387   3.385
31649W        W93070  24.216  18.229  12.513
31650W        W93071  13.833  37.339   2.728
31651W        W93072   0.876  31.062   3.797
31652W        W93073  21.242   5.870  12.825
31653W        W93074  32.887  43.017  13.964
31654W        W93075  18.683  31.642  13.510
31655W        W93076   2.862  32.492   0.733
31656W        W93077   3.260   8.219  12.946
31657W        W93078   3.927   4.746   3.639
31658W        W93079  26.520   3.275   1.916
31659W        W93080  21.515   8.732   0.920
31660W        W93081  23.989   3.427   3.347
31661W        W93082  22.738  39.041  11.969
31662W        W93083   2.375  41.868  13.820
31663W        W93084  13.655  19.203   3.693
31664W        W93085  39.941  39.940  14.880
31665W        W93086  39.045  14.666   2.182
31666W        W93087  11.135  10.207   0.309
31667W        W93088  19.159  32.942   4.664
31668W        W93089  41.326  29.544  12.907
31669W        W93090  33.483   5.703  12.840
31670W        W93091   7.220  30.009   2.226
31671W        W93092   1.391  21.237   4.256
31672W        W93093   4.879  24.583  14.951
31673W        W93094   8.366  42.007   0.423
31674W        W93095   3.724  34.584  13.371
31675W        W93096  21.183   8.873  13.470
31676W        W93097   7.805  20.153  10.992
31677W        W93098  28.457  16.618   4.199
31678W        W93099  25.560  15.799  12.007
31679W        W93100   1.949   0.351  13.419
31680W        W93101  43.445  37.404  10.952
31681W        W93102  25.640  12.639  11.001
31682W        W93103  16.175  43.390   4.806
31683W        W93104  25.476  40.883  14.965
31684W        W93105   2.239  19.196  14.994
31685W        W93106  33.932  15.721  12.349
31686W        W93107  10.254  41.854  13.816
31687W        W93108  41.854   8.292   0.939
31688W        W93109   2.900  31.151   0.756
31689W        W93110  21.128   9.359  10.944
31690W        W93111  31.576  27.510   4.142
31691W        W93112  34.402  15.303   1.819
31692W        W93113  17.764  22.578   3.790
31693W        W93114  34.010  11.255   2.715
31694W        W93115  16.232   8.891  11.869
31695W        W93116  44.903  38.844   3.330
31696W        W93117   6.340  38.010  14.009
31697W        W93118  15.786  28.949  14.771
31698W        W93119  27.457  13.288   3.280
31699W        W93120  25.039  43.363  12.354
31700W        W93121  16.129  27.004  14.977
31701W        W93122  30.491  23.076   1.788
31702W        W93123  43.284  34.554   2.805
31703W        W93124   2.402   1.317   9.651
31704W        W93125  39.951  34.115  10.945
31705W        W93126   7.674  14.238   3.212
31706W        W93127  12.357  17.125  14.462
31707W        W93128   9.723   9.890   2.286
31708W        W93129   7.780  35.881   5.243
31709W        W93130   9.729  44.773   2.340
31710W        W93131  25.677   0.251  10.532
31711W        W93132  21.513  30.049  11.862
31712W        W93133  19.743   5.432   5.772
31713W        W93134  43.829   6.683  13.475
31714W        W93135   9.667   2.867  14.885
31715W        W93136  32.442  30.473  11.544
31716W        W93137  28.049  14.765   2.249
31717W        W93138   9.816  10.828  11.084
31718W        W93139  24.606  23.047   4.272
31719W        W93140  33.451   0.389   9.609
31720W        W93141  16.781  40.814   0.959
31721W        W93142  23.041  39.024   2.838
31722W        W93143  18.054  27.106  14.398
31723W        W93144  28.510  10.649   2.878
31724W        W93145  32.977  39.319  13.026
31725W        W93146  30.139  16.769  14.837
31726W        W93147   6.798  39.359  12.558
31727W        W93148  15.674  16.314   2.414
31728W        W93149  13.800   7.367   4.727
31729W        W93150   9.777   4.366  11.534
31730W        W93151  21.060  18.690  14.763
31731W        W93152  25.989  39.382   2.795
31732W        W93153  35.084  25.097   0.799
31733W        W93154  17.734  41.969   3.223
31734W        W93155  15.314  42.397  12.433
31735W        W93156  16.095  39.463   4.230
31736W        W93157  18.252  13.121   0.807
31737W        W93158  34.987  22.604  12.009
31738W        W93159  28.047   2.248  10.606
31739W        W93160  23.681  32.411   4.157
31740W        W93161  22.658  11.662  12.994
31741W        W93162   5.390  33.064  12.486
31742W        W93163  31.911   4.424   1.330
31743W        W93164   3.431   7.264   1.422
31744W        W93165  21.751  36.561   0.804
31745W        W93166  14.797  15.655  11.578
31746W        W93167  36.046  14.113   2.725
31747W        W93168   6.290  15.681   9.961
31748W        W93169  24.191  40.303   0.393
31749W        W93170  38.020  26.200  14.303
31750W        W93171  29.514  17.259  13.377
31751W        W93172   3.416  36.089  14.998
31752W        W93173  25.133  16.139  12.345
31753W        W93174  41.341  13.242  11.487
31754W        W93175   7.325  24.586  14.973
31755W        W93176   5.425  13.239   0.444
31756W        W93177  34.577  39.045  14.438
31757W        W93178  16.311  19.201   4.700
31758W        W93179   2.952  11.323   3.310
31759W        W93180  39.856  23.661  12.557
31760W        W93181  10.213  22.063  11.582
31761W        W93182  20.072  44.401  14.285
31762W        W93183  36.047  29.458  13.049
31763W        W93184  23.064  29.002   0.477
31764W        W93185  18.175  13.318   3.295
31765W        W93186  42.912  12.178   3.315
31766W        W93187  18.665   4.369  14.401
31767W        W93188  36.892  13.669  14.933
31768W        W93189  38.460  16.723  13.878
31769W        W93190  44.848  41.438   2.398
31770W        W93191   3.412  18.743  13.399
31771W        W93192  43.464  21.082   1.237
31772W        W93193  20.086   1.853   1.428
31773W        W93194  12.267  22.606   1.312
31774W        W93195   6.896   0.921  14.444
31775W        W93196   3.829  32.913   5.188
31776W        W93197  14.646  33.468   2.729
31777W        W93198   5.344   3.756  13.862
31778W        W93199  22.560  36.901   4.123
31779W        W93200   9.375  36.375  13.804
31780W        W93201   0.396  37.439  12.851
31781W        W93202   2.785  32.989   2.294
31782W        W93203  33.116  11.658   4.350
31783W        W93204  20.639  21.123  13.506
31784W        W93205  16.229  30.467   1.244
31785W        W93206   9.774  41.822  10.623
31786W        W93207  12.159  15.096  13.007
31787W        W93208   2.395   5.707   0.410
31788W        W93209  39.321  39.496  14.468
31789W        W93210   2.285  13.781  13.003
31790W        W93211  38.471  36.984   1.795
31791W        W93212  38.378  24.107  12.446
31792W        W93213   6.380  38.830   3.313
31793W        W93214  32.919  10.311   1.902
31794W        W93215  10.679   7.725  13.888
31795W        W93216  38.493  27.039  11.875
31796W        W93217  15.129  43.422   0.860
31797W        W93218  33.105  15.687  14.363
31798W        W93219   6.910  22.160  10.556
31799W        W93220   8.672  43.918   4.268
31800W        W93221  20.735  38.482   2.690
31801W        W93222  28.669   4.451  11.976
31802W        W93223  33.427  43.861  13.345
31803W        W93224  21.031   2.732   2.701
31804W        W93225  26.061  31.988   1.887
31805W        W93226  29.646  39.428   1.706
31806W        W93227  27.624  10.378   3.322
31807W        W93228  24.173   6.865   0.872
31808W        W93229  26.608  25.185   2.690
31809W        W93230  17.170   1.282   2.892
31810W        W93231  39.997  24.988  12.565
31811W        W93232   4.708   5.894  11.600
31812W        W93233  35.992  41.361   2.227
31813W        W93234   7.723  27.140  12.900
31814W        W93235   9.740  29.020  12.574
31815W        W93236   3.811  16.309  11.379
31816W        W93237   0.781  13.641   2.192
31817W        W93238  19.601   7.274   1.418
31818W        W93239   0.906  42.363  13.935
31819W        W93240   9.341   8.832   1.395
31820W        W93241  24.086  35.518  12.036
31821W        W93242  39.403  19.179   3.816
31822W        W93243  19.677  11.328   3.694
31823W        W93244  27.065  38.896  12.971
31824W        W93245  13.173  32.055  14.833
31825W        W93246  30.465  40.843   2.802
31826W        W93247  26.160  30.075   2.401
31827W        W93248   4.906  20.711  10.969
31828W        W93249  29.957  42.982   0.455
31829W        W93250  31.619   5.256   0.277
31830W        W93251   3.269   3.909  11.426
31831W        W93252  10.643   2.871   4.175
31832W        W93253  30.542  19.759  10.441
31833W        W93254  11.716  38.873   3.209
31834W        W93255  28.173  39.554   3.713
31835W        W93256  31.449  24.140   4.673
31836W        W93257  11.143  33.568  13.509
31837W        W93258  33.110  35.875  13.049
31838W        W93259  38.032  39.353  13.384
31839W        W93260  29.493  20.611   0.483
31840W        W93261  26.653   2.739   4.183
31841W        W93262   9.254   3.899  13.791
31842W        W93263  21.083  38.389   4.231
31843W        W93264   3.881  29.073  13.522
31844W        W93265   1.781  44.857  13.898
31845W        W93266  35.030  36.888   0.766
31846W        W93267   5.726   6.695   3.796
31847W        W93268  25.004  12.633   4.235
31848W        W93269  34.977  13.350  10.459
31849W        W93270  27.083  34.085   0.754
31850W        W93271  39.489  14.336   3.339
31851W        W93272   8.824   2.281   4.628
31852W        W93273  20.062  19.773  10.481
31853W        W93274   8.723  15.083   0.270
31854W        W93275   8.845  17.281  14.478
31855W        W93276   8.312  42.993   1.287
31856W        W93277   8.196   4.896  11.077
31857W        W93278  26.627  39.934  11.946
31858W        W93279  27.127   3.873  12.008
31859W        W93280  11.775  32.057   2.720
31860W        W93281   8.884   9.214   0.321
31861W        W93282   6.828  43.937   0.944
31862W        W93283  19.611  17.603  10.070
31863W        W93284  38.903  27.673   9.972
31864W        W93285   9.182  22.207   1.848
31865W        W93286  10.806  42.352   4.341
31866W        W93287   5.332  15.320   3.629
31867W        W93288  26.589  17.797  12.487
31868W        W93289  33.497   1.323   0.841
31869W        W93290  12.840  22.683   2.250
31870W        W93291  22.159   8.678   4.831
31871W        W93292  35.520   3.857  13.509
31872W        W93293  21.702  42.009  12.854
31873W        W93294  21.222   8.340  13.052
31874W        W93295  38.005   3.887  12.926
31875W        W93296  38.918  41.926  10.131
31876W        W93297  24.527  39.039   4.354
31877W        W93298  14.801  29.016  14.354
31878W        W93299   3.934  24.640   2.761
31879W        W93300  42.446  22.156  12.534
31880W        W93301  26.150  40.518   4.669
31881W        W93302   7.670  34.883  14.784
31882W        W93303  18.676  37.997   2.728
31883W        W93304  21.710  29.658  11.608
31884W        W93305  23.086  40.929   2.239
31885W        W93306   0.357  32.469   5.196
31886W        W93307  33.553  22.714  11.606
31887W        W93308  20.062  16.808  13.341
31888W        W93309  41.944  34.414   2.419
31889W        W93310  44.844  35.973  11.042
31890W        W93311  24.018  18.152   0.380
31891W        W93312  22.609  37.956   4.190
31892W        W93313  34.486  39.060   0.940
31893W        W93314  19.253  40.384  10.555
31894W        W93315   1.474  34.879   0.888
31895W        W93316   9.202   8.753  14.362
31896W        W93317  35.040   3.939   0.395
31897W        W93318  38.894  33.000  14.884
31898W        W93319  34.530   6.773   3.293
31899W        W93320  28.505   3.905   1.352
31900W        W93321  42.876   2.900  14.804
31901W        W93322  30.613  36.368   1.225
31902W        W93323   1.257  38.422  11.992
31903W        W93324   5.776  29.066  10.475
31904W        W93325  39.435  12.223  14.421
31905W        W93326  40.378  36.348   0.938
31906W        W93327   9.777  23.532  12.061
31907W        W93328   0.339  12.294   3.194
31908W        W93329  27.567  27.057  11.899
31909W        W93330  24.001  10.657   0.853
31910W        W93331  20.194  31.569   2.666
31911W        W93332  40.925  25.976  10.571
31912W        W93333  34.044   5.782   4.823
31913W        W93334   3.848  20.086  13.910
31914W        W93335   2.722  15.306  12.573
31915W        W93336  35.899  37.959   2.766
31916W        W93337   2.894  24.714  14.441
31917W        W93338  10.331  35.937   4.239
31918W        W93339  33.031  10.716   3.710
31919W        W93340   0.383  28.075   3.675
31920W        W93341  36.404   2.958   1.905
31921W        W93342   6.252  38.565  10.888
31922W        W93343  29.036   5.331   2.759
31923W        W93344  27.093   4.790  13.961
31924W        W93345  32.419  44.452   3.183
31925W        W93346  33.408  27.161   3.169
31926W        W93347  23.557  39.027   3.349
31927W        W93348   8.698   3.807   3.305
31928W        W93349  43.849  26.974  12.999
31929W        W93350  43.490  38.058  11.089
31930W        W93351  42.002  14.115  13.888
31931W        W93352  42.468  24.542  13.428
31932W        W93353   9.210   7.249  14.383
31933W        W93354  22.715  42.313   4.809
31934W        W93355  41.943   5.927   1.909
31935W        W93356   6.752   3.785   2.260
31936W        W93357  32.473  35.515  11.460
31937W        W93358  36.550   6.360  10.458
31938W        W93359  42.953  24.623  11.124
31939W        W93360  36.930   4.758  11.029
31940W        W93361   2.245  33.112  11.457
31941W        W93362  32.477   1.835  11.600
31942W        W93363  29.481  11.719   2.793
31943W        W93364  27.111  17.112  13.364
31944W        W93365  34.558  19.563   3.180
31945W        W93366  10.205  20.046  14.275
31946W        W93367  27.603  44.388   0.253
31947W        W93368  15.281  29.975   9.469
31948W        W93369  42.027   9.843  13.414
31949W        W93370  16.286   8.289  11.076
31950W        W93371   5.284  23.026  12.549
31951W        W93372  24.043   7.337   4.159
31952W        W93373  34.008   8.372  11.954
31953W        W93374  34.982  36.514   3.163
31954W        W93375   7.344  26.134   3.739
31955W        W93376   1.752   1.917   0.482
31956W        W93377   4.249  41.042  12.948
31957W        W93378   0.874  44.425  11.020
31958W        W93379  12.815  41.979  11.446
31959W        W93380  38.030  24.045   0.281
31960W        W93381   7.780  37.929   0.884
31961W        W93382  40.330  41.530  10.953
31962W        W93383   3.243  19.717   2.872
31963W        W93384  11.752  33.591  14.926
31964W        W93385   1.802   5.742  10.545
31965W        W93386  29.126  40.037  13.411
31966W        W93387   5.387   3.711   0.424
31967W        W93388  13.659  41.510  11.519
31968W        W93389  13.812  33.550   2.382
31969W        W93390   5.869   1.345   3.184
31970W        W93391   0.935  15.243   2.228
31971W        W93392  16.700   0.773   0.367
31972W        W93393  25.036  13.665  11.573
31973W        W93394  21.690  31.127  12.070
31974W        W93395  19.582  24.622   4.318
31975W        W93396  29.458  24.973  13.990
31976W        W93397  29.428   6.715  13.843
31977W        W93398   3.260  18.720  14.325
31978W        W93399   4.242  29.048  14.349
31979W        W93400  28.597  38.984  12.421
31980W        W93401  15.594  34.945   3.671
31981W        W93402  12.257   0.982  10.450
31982W        W93403   4.907  25.616  13.044
31983W        W93404  43.335  16.165   0.300
31984W        W93405  44.393  11.833   3.733
31985W        W93406  36.516  32.901   2.793
31986W        W93407  32.589  31.044  10.625
31987W        W93408   7.212  17.799   0.768
31988W        W93409  41.407  23.209   2.266
31989W        W93410  22.745  13.112  14.969
31990W        W93411   4.780  32.933   3.157
31991W        W93412  29.656  32.543   0.787
31992W        W93413  39.957   7.353   0.447
31993W        W93414  30.144  34.043   1.450
31994W        W93415  21.697  12.143   3.844
31995W        W93416   3.892  14.221   4.835
31996W        W93417   4.932  30.530   1.931
31997W        W93418  33.977   7.789   3.318
31998W        W93419  32.998  28.127   2.195
31999W        W93420  26.561   7.226  10.959
32000W        W93421  38.970  40.410   3.843
32001W        W93422  41.968  29.073   0.760
32002W        W93423  39.979  15.754   1.794
32003W        W93424  19.727  32.394   0.255
32004W        W93425  20.171  42.886   3.837
32005W        W93426  37.832  25.679   0.849
32006W        W93427  16.693   2.283  12.896
32007W        W93428  16.703   0.294   0.893
32008W        W93429  11.627   8.395   1.832
32009W        W93430  13.288   9.212   0.763
32010W        W93431  35.444  19.091   2.797
32011W        W93432  30.607  30.596  13.003
32012W        W93433  13.308   0.368   0.331
32013W        W93434  24.636  10.374   3.738
32014W        W93435   6.739   2.829  11.034
32015W        W93436  20.047   8.680   4.810
32016W        W93437  39.559  40.930   1.357
32017W        W93438  14.278   4.383  12.884
32018W        W93439   0.752  11.167  13.361
32019W        W93440  20.597  43.895   4.683
32020W        W93441   1.372  26.021  12.576
32021W        W93442  23.015  29.959  13.526
32022W        W93443  28.027  10.854   0.444
32023W        W93444  35.977  43.874  13.876
32024W        W93445  18.070   6.277  12.569
32025W        W93446   6.255  31.003  12.442
32026W        W93447  33.435  32.993   4.121
32027W        W93448  25.021  18.222  14.486
32028W        W93449  12.790  40.042  14.362
32029W        W93450   3.882  30.413   3.307
32030W        W93451   4.762  23.041  14.983
32031W        W93452  42.784  43.009   5.294
32032W        W93453   3.301  40.977   3.781
32033W        W93454   0.749  17.754  10.411
32034W        W93455  40.936  40.829   3.220
32035W        W93456  35.497   8.377   0.849
32036W        W93457   8.284   5.351  13.032
32037W        W93458   6.884  44.368  11.378
32038W        W93459  35.515  32.397   0.815
32039W        W93460  21.708  28.145  10.036
32040W        W93461  14.791   1.817   2.705
32041W        W93462  28.648  26.484  12.830
32042W        W93463  37.051  19.762   1.835
32043W        W93464  15.236  39.931  13.411
32044W        W93465  26.199  39.361  11.577
32045W        W93466  27.092  18.662   0.387
32046W        W93467  37.086  30.095   1.358
32047W        W93468  18.760  25.214   2.824
32048W        W93469  32.444  12.261  14.411
32049W        W93470  21.701  23.187   1.386
32050W        W93471   7.890  43.911  12.382
32051W        W93472  27.990  38.392   2.284
32052W        W93473  21.540  33.454  11.496
32053W        W93474  30.657  35.029   4.287
32054W        W93475  18.678  42.481  12.449
32055W        W93476  42.981  33.555  14.399
32056W        W93477  35.109  44.995   2.196
32057W        W93478  15.274   2.248  11.417
32058W        W93479  20.047  10.781  14.828
32059W        W93480   9.842   2.385  13.935
32060W        W93481  33.508  30.114   1.713
32061W        W93482  17.231   8.365   1.325
32062W        W93483  25.679  42.287  11.923
32063W        W93484   5.761  18.295  12.360
32064W        W93485  33.574   1.971  11.536
32065W        W93486   0.929  24.992   3.211
32066W        W93487  43.369   2.269   2.724
32067W        W93488   9.186  35.413   3.378
32068W        W93489  36.974  33.106   1.408
32069W        W93490  29.081   2.238   4.710
32070W        W93491   3.880   3.319   0.383
32071W        W93492  35.589  41.903   1.858
32072W        W93493  16.680  37.832  11.518
32073W        W93494  39.359   3.871   4.297
32074W        W93495  13.107  38.499  14.508
32075W        W93496  13.107  42.804   9.935
32076W        W93497  16.577  14.185   3.327
32077W        W93498  20.618  15.639   1.259
32078W        W93499  10.642  39.525   5.210
32079W        W93500  34.953  40.955  13.423
32080W        W93501  32.392  44.787  11.920
32081W        W93502  25.132  23.052  14.443
32082W        W93503  10.851  40.907   0.407
32083W        W93504  37.031  30.449   1.846
32084W        W93505  27.069  42.470   2.361
32085W        W93506  18.583  26.458   3.291
32086W        W93507  32.114  18.717  13.335
32087W        W93508  40.365  28.535  12.373
32088W        W93509   5.277  16.593  12.558
32089W        W93510  13.612  20.736  14.923
32090W        W93511  24.544   6.814   0.321
32091W        W93512  16.169   8.835   3.680
32092W        W93513   2.352  22.128  10.427
32093W        W93514  40.417   0.796   3.382
32094W        W93515   9.387  16.170  12.539
32095W        W93516  12.647   3.854   3.191
32096W        W93517  42.997  41.911   0.253
32097W        W93518   8.708   5.879  12.467
32098W        W93519  30.140  44.411  10.467
32099W        W93520  20.612   2.360  12.512
32100W        W93521   4.392  25.504  13.990
32101W        W93522  22.036  17.574   2.686
32102W        W93523  14.609  11.135  11.499
32103W        W93524  39.987  44.959  11.935
32104W        W93525  15.608   9.780  10.578
32105W        W93526  36.461  31.072  14.767
32106W        W93527  12.611  13.212  11.128
32107W        W93528   1.974   7.872   0.903
32108W        W93529  21.745  32.071   4.169
32109W        W93530  25.169  23.017   4.629
32110W        W93531   5.390   7.802   2.874
32111W        W93532   1.930  21.191  13.371
32112W        W93533  11.818  23.523   4.709
32113W        W93534  40.397  33.968   0.840
32114W        W93535  39.834  25.995   4.190
32115W        W93536  21.234  30.511   0.402
32116W        W93537  28.969  13.662   4.299
32117W        W93538  28.026  35.099  10.101
32118W        W93539   3.832  37.457  11.087
32119W        W93540  32.120   9.182   1.326
32120W        W93541  29.616  10.727   2.750
32121W        W93542  29.531   1.434  13.967
32122W        W93543   8.748  35.432   2.386
32123W        W93544   5.220  39.837  11.497
32124W        W93545  10.854  20.267  14.983
32125W        W93546  42.912  27.111   3.741
32126W        W93547  10.185   5.806   9.994
32127W        W93548  44.925   8.287  12.942
32128W        W93549  34.599  25.566   0.789
32129W        W93550  18.742  23.727  12.364
32130W        W93551   5.827   3.334   4.204
32131W        W93552  41.941  38.474  11.516
32132W        W93553  37.414  44.358   0.468
32133W        W93554  41.027  24.134   4.330
32134W        W93555   2.394  21.656   0.867
32135W        W93556  11.169   5.864  14.015
32136W        W93557  38.332  23.638  14.927
32137W        W93558  15.274   6.780  11.403
32138W        W93559  17.659  33.429  12.984
32139W        W93560   5.339  44.415   2.373
32140W        W93561  42.297  36.563   4.234
32141W        W93562  27.535  21.566  12.876
32142W        W93563  16.761  36.493  11.032
32143W        W93564  40.941   2.951   4.635
32144W        W93565  11.220  33.434   2.346
32145W        W93566  26.013  35.442   2.822
32146W        W93567   6.797  15.218   1.700
32147W        W93568  34.094   7.844   2.207
32148W        W93569  35.589  10.147   3.351
32149W        W93570   0.475  44.778   1.278
32150W        W93571  24.647  12.147   4.250
32151W        W93572  31.076  38.971   2.777
32152W        W93573  31.151  10.692   2.208
32153W        W93574  42.522  13.672   9.436
32154W        W93575   0.780  25.108  11.491
32155W        W93576  18.759   4.870  12.340
32156W        W93577  28.618  30.156  13.390
32157W        W93578   1.260   6.381  14.305
32158W        W93579  11.169  32.612   4.614
32159W        W93580  16.085  33.985  11.599
32160W        W93581  44.271   4.217  11.937
32161W        W93582  16.308   8.342   1.239
32162W        W93583   1.356  17.640  12.888
32163W        W93584  23.041   8.323   3.203
32164W        W93585  44.490  20.599   0.872
32165W        W93586  32.975  10.825   3.161
32166W        W93587  32.614  29.981   2.669
32167W        W93588  36.522  21.227  13.828
32168W        W93589  35.369  14.716  12.869
32169W        W93590  13.748  37.523  12.054
32170W        W93591   9.269  25.509   0.899
32171W        W93592  28.111  23.191   0.916
32172W        W93593  21.032  29.596   4.826
32173W        W93594  22.693  38.068  14.294
32174W        W93595   6.687  18.789  11.102
32175W        W93596  29.046  35.485   3.333
32176W        W93597  20.761  20.742   3.834
32177W        W93598   5.754   8.704   4.265
32178W        W93599   4.359  36.088  14.951
32179W        W93600  31.989  10.869   3.821
32180W        W93601   4.907  30.496  14.987
32181W        W93602   1.432  15.624   2.718
32182W        W93603  16.767  10.346  12.555
32183W        W93604  38.962   9.693  14.418
32184W        W93605  15.274  21.707   2.298
32185W        W93606  17.663  35.916  12.412
32186W        W93607   6.243  24.702   2.238
32187W        W93608  41.863  40.474  11.477
32188W        W93609  24.169   4.345  13.953
32189W        W93610  35.944  44.908  10.408
32190W        W93611  43.856   8.276  14.910
32191W        W93612   5.398  17.697  11.958
32192W        W93613  12.625  32.104  11.478
32193W        W93614   6.233  21.742  14.386
32194W        W93615  28.078  42.923   2.215
32195W        W93616  33.565   3.951   3.364
32196W        W93617  20.132  16.615  14.354
32197W        W93618   2.882  35.970   1.224
32198W        W93619  11.827  41.379   4.222
32199W        W93620   5.411  33.967  10.578
32200W        W93621  37.365  36.001   1.810
32201W        W93622  36.468  20.144   4.207
32202W        W93623  17.185  41.418  13.877
32203W        W93624  35.448  22.533   2.861
32204W        W93625  28.012  31.563  13.456
32205W        W93626  24.503   7.832  10.960
32206W        W93627  27.003  24.062  12.352
32207W        W93628  34.424  44.391   3.824
32208W        W93629  11.706  14.691   4.708
32209W        W93630  43.831  12.785   3.367
32210W        W93631  38.855   0.782   1.728
32211W        W93632   4.817  20.690  12.385
32212W        W93633  19.669  25.967  14.437
32213W        W93634   7.353  23.652  11.946
32214W        W93635  11.138   3.879  10.942
32215W        W93636  41.883  34.002  13.897
32216W        W93637  15.646   3.822  11.002
32217W        W93638  34.063   8.715   3.660
32218W        W93639  42.927  33.467  13.949
32219W        W93640  21.200  33.510   5.206
32220W        W93641  22.521   8.384  11.090
32221W        W93642  30.553   2.418  13.844
32222W        W93643  15.083  15.811  12.030
32223W        W93644  18.270  20.558  13.849
32224W        W93645  12.622  42.471  12.492
32225W        W93646  31.101  11.335   0.403
32226W        W93647  20.677  40.862   0.739
32227W        W93648   3.264  20.121  14.312
32228W        W93649   5.193  40.453   1.770
32229W        W93650   3.863  18.620  13.805
32230W        W93651  40.921  10.781   1.402
32231W        W93652  22.593  26.615  10.459
32232W        W93653  27.451  38.517  11.420
32233W        W93654  39.484  41.515  12.354
32234W        W93655  41.896  21.611  14.760
32235W        W93656  24.665  25.099   0.443
32236W        W93657  31.127   4.425   0.824
32237W        W93658   4.793  44.317  12.871
32238W        W93659  10.735  11.233  14.312
32239W        W93660   4.859  10.722   2.268
32240W        W93661   8.812  32.475   2.344
32241W        W93662   5.869  17.799  14.373
32242W        W93663  32.125  10.367  13.483
32243W        W93664  20.145   3.382  11.522
32244W        W93665  10.175  37.382  10.901
32245W        W93666  32.095   0.463  12.957
32246W        W93667  16.705  22.600  13.308
32247W        W93668  44.406   5.765   3.325
32248W        W93669   3.336  28.664   4.837
32249W        W93670  23.216  16.566   4.784
32250W        W93671  42.906   9.328   1.728
32251W        W93672   0.750  34.981   5.255
32252W        W93673   7.282  23.172   2.259
32253W        W93674  13.666   8.654   4.334
32254W        W93675  33.097   9.390   4.629
32255W        W93676  34.989  44.411   5.208
32256W        W93677  23.129   6.851   1.333
32257W        W93678  28.030  31.104  10.569
32258W        W93679  22.115  27.578  14.003
32259W        W93680   0.471   0.803  12.969
32260W        W93681  41.826   9.840   4.626
32261W        W93682  13.631  15.617   4.132
32262W        W93683  29.568  17.261   4.261
32263W        W93684  29.534  23.709  14.284
32264W        W93685  25.967   5.735   0.841
32265W        W93686  29.512  22.076   3.327
32266W        W93687  19.246  31.129   2.244
32267W        W93688  39.984   3.802  13.501
32268W        W93689  41.438  43.277  12.412
32269W        W93690  29.945  38.523   1.704
32270W        W93691   4.356  22.067  11.969
32271W        W93692   8.338  35.406   3.683
32272W        W93693   5.691  39.818   5.147
32273W        W93694  21.019  32.405  13.382
32274W        W93695  26.700   3.875  14.973
32275W        W93696  37.411  41.965   3.642
32276W        W93697  31.525   3.251   4.264
32277W        W93698  15.095  23.571  14.474
32278W        W93699  43.811  40.972  11.437
32279W        W93700  12.816  35.567  14.985
32280W        W93701  28.021  24.034   1.894
32281W        W93702   9.165  37.410  13.372
32282W        W93703  25.599  18.694  12.436
32283W        W93704  14.128  14.665  11.399
32284W        W93705  25.144   0.817   4.698
32285W        W93706  28.086   8.758  12.440
32286W        W93707  41.510  28.665  10.409
32287W        W93708   1.470  34.454  12.052
32288W        W93709  26.635  23.189   2.759
32289W        W93710  28.543  39.903  14.282
32290W        W93711   4.857  29.535  14.010
32291W        W93712  28.018   4.744   1.868
32292W        W93713  36.029  29.535   4.752
32293W        W93714  38.448   5.759   2.687
32294W        W93715  16.278  22.243  12.560
32295W        W93716  21.590  34.596   2.314
32296W        W93717  30.638  18.263  10.934
32297W        W93718  12.325  25.574  11.520
32298W        W93719  23.659  18.201  12.944
32299W        W93720  14.167  21.541   1.400
32300W        W93721  40.859  29.005  11.557
32301W        W93722  13.345  40.886   4.300
32302W        W93723   7.221  37.915   3.638
32303W        W93724   9.806  15.758  11.864
32304W        W93725   6.332  41.912   2.742
32305W        W93726  15.601  37.451   5.189
32306W        W93727  30.992   5.894  12.076
32307W        W93728  27.032   4.269   1.928
32308W        W93729  38.470  35.919   3.197
32309W        W93730   9.385   1.280   3.718
32310W        W93731   1.319  36.861   3.842
32311W        W93732  15.777  36.859   3.304
32312W        W93733  28.466  26.963   4.639
32313W        W93734  42.413   7.840   4.740
32314W        W93735  25.560   8.764   9.980
32315W        W93736  22.568  32.627  12.578
32316W        W93737  34.900  20.220   4.213
32317W        W93738  43.827   2.797   4.216
32318W        W93739  10.634  43.928  11.894
32319W        W93740  23.683  34.987   4.174
32320W        W93741  26.197  25.489   0.264
32321W        W93742  38.401  23.091   3.775
32322W        W93743  14.230  25.194  10.009
32323W        W93744   7.355   5.369  13.414
32324W        W93745  41.510   7.780   1.323
32325W        W93746  32.048  40.881   4.778
32326W        W93747  40.332   2.395   0.469
32327W        W93748  43.377  44.361  12.509
32328W        W93749   2.928  35.000   1.364
32329W        W93750  32.015  32.585   1.437
32330W        W93751  22.068   9.770  10.563
32331W        W93752  30.112  43.002  13.329
32332W        W93753  35.494  35.932   4.702
32333W        W93754  43.366   4.855   0.772
32334W        W93755  19.607   9.199   3.827
32335W        W93756   6.823   9.832  12.537
32336W        W93757  23.007  25.631   3.779
32337W        W93758  14.615  42.938  10.628
32338W        W93759  41.465   4.224   2.803
32339W        W93760  43.398  24.514  11.080
32340W        W93761  18.138  23.689  14.305
32341W        W93762  25.165  29.975   0.299
32342W        W93763  31.057  17.715  11.432
32343W        W93764   9.267   4.774  10.915
32344W        W93765  25.705  37.557  10.526
32345W        W93766   2.468  43.902  14.782
32346W        W93767  37.451  21.033   4.634
32347W        W93768  16.808   7.829  12.967
32348W        W93769  13.268  41.518  13.945
32349W        W93770   6.401  35.891  10.147
32350W        W93771  44.370  29.488   5.318
32351W        W93772  27.974  37.925   1.376
32352W        W93773  36.582  29.003  12.909
32353W        W93774  38.508   4.352   0.356
32354W        W93775  44.009  36.502  11.928
32355W        W93776  38.327  21.162  13.400
32356W        W93777  40.870  36.445  11.027
32357W        W93778  43.462  40.924   2.792
32358W        W93779  24.619  26.643  13.449
32359W        W93780   3.325  42.916   4.677
32360W        W93781  39.948  12.317  14.450
32361W        W93782  11.156   7.694   1.934
32362W        W93783  31.524   7.351   2.747
32363W        W93784  41.906  41.876  10.427
32364W        W93785  42.813  22.531  14.342
32365W        W93786  37.947   1.453  12.376
32366W        W93787  15.153  12.776  11.587
32367W        W93788  35.567  15.284  10.463
32368W        W93789  18.614  20.718  13.047
32369W        W93790  25.971   1.323  13.005
32370W        W93791   1.265  30.644  11.590
32371W        W93792  40.813   0.914  12.977
32372W        W93793  31.069  12.675   2.390
32373W        W93794  24.993  13.327  12.506
32374W        W93795  11.132  25.643  13.807
32375W        W93796  22.526  31.461   2.691
32376W        W93797  11.764  14.825  13.487
32377W        W93798   9.373  44.404   9.951
32378W        W93799   8.256  10.751   2.776
32379W        W93800  42.429  41.420   3.229
32380W        W93801  42.806  11.700   4.166
32381W        W93802   6.704  29.966  13.467
32382W        W93803  25.483   4.861   2.271
32383W        W93804  10.872  11.289   1.710
32384W        W93805  10.295  33.626   0.373
32385W        W93806  37.897   4.851   4.629
32386W        W93807  29.509   2.238  11.414
32387W        W93808  33.390  23.096   4.803
32388W        W93809  16.316  34.586   3.204
32389W        W93810   9.719  20.034  11.403
32390W        W93811   1.263   3.838   0.353
32391W        W93812  24.513  29.501  13.498
32392W        W93813  32.965  40.427  13.511
32393W        W93814   5.308  40.035   5.155
32394W        W93815  43.983  31.152   1.276
32395W        W93816  36.845  24.544  12.479
32396W        W93817  13.106  25.161   1.830
32397W        W93818  29.439  25.628  10.458
32398W        W93819  29.472  44.286   4.813
32399W        W93820  26.648   1.315   2.258
32400W        W93821  21.089  23.052   3.794
32401W        W93822  18.070  37.979  12.397
32402W        W93823  42.935  40.005   2.345
32403W        W93824  37.387  29.944   0.849
32404W        W93825   6.918   7.351   1.755
32405W        W93826  22.514  23.561   2.752
32406W        W93827   7.231  12.755  12.357
32407W        W93828  26.135  28.171   2.736
32408W        W93829   6.281  40.882  14.920
32409W        W93830  43.347  40.467   0.857
32410W        W93831  39.505  17.793  12.852
32411W        W93832   0.964  19.712  11.006
32412W        W93833  10.250  14.642  11.526
32413W        W93834  44.980  12.752   0.345
32414W        W93835   9.766   6.677  13.053
32415W        W93836   6.201  20.598  11.595
32416W        W93837  37.522  25.044   0.789
32417W        W93838  13.291  36.565   4.142
32418W        W93839  14.599  43.906   2.289
32419W        W93840  32.448  36.380   3.854
32420W        W93841  10.632  22.177   4.255
32421W        W93842   6.273   0.249  11.603
32422W        W93843  19.087   4.349   1.267
32423W        W93844   6.729  27.613  12.829
32424W        W93845  33.989  17.199   0.245
32425W        W93846  36.892  10.635   2.223
32426W        W93847  30.481  36.871   2.187
32427W        W93848  22.701  18.267  11.414
32428W        W93849  13.685  27.652  12.019
32429W        W93850  16.798   4.827   0.289
32430W        W93851   7.214  36.038  13.990
32431W        W93852   4.721  32.922  12.417
32432W        W93853  23.591   0.458   2.710
32433W        W93854   4.763  27.131   5.290
32434W        W93855  27.057  44.766   1.341
32435W        W93856  33.012  31.603   2.204
32436W        W93857   2.966  14.637  14.934
32437W        W93858  33.562  26.505  14.853
32438W        W93859   7.742  18.176  13.031
32439W        W93860  17.750  28.566  12.409
32440W        W93861  24.163  25.564  11.041
32441W        W93862  35.868  34.494   4.615
32442W        W93863   8.867  26.627   2.363
32443W        W93864  29.056  21.102   1.741
32444W        W93865   5.289  15.213   1.925
32445W        W93866  12.643  31.071   1.414
32446W        W93867  39.323  32.937   0.326
32447W        W93868   1.453  43.343  11.909
32448W        W93869  13.323  38.032  11.052
32449W        W93870  22.054  14.212  13.370
32450W        W93871  34.919   2.376  11.374
32451W        W93872  17.229  14.792   0.934
32452W        W93873  25.556   0.277   4.821
32453W        W93874  30.100   7.319  12.850
32454W        W93875  34.566  17.173  14.447
32455W        W93876  30.622  24.218   0.457
32456W        W93877   1.812   3.439   2.736
32457W        W93878  20.091  44.481  10.035
32458W        W93879  10.219  18.083  11.908
32459W        W93880  44.965  23.550   1.800
32460W        W93881   9.273  13.348   4.246
32461W        W93882  28.991  39.539   3.211
32462W        W93883  15.595  21.540  13.335
32463W        W93884   4.880  18.756   0.906
32464W        W93885   0.262  25.648   4.693
32465W        W93886  35.496  31.431  11.516
32466W        W93887  42.918  18.783   0.283
32467W        W93888  22.518  14.595  13.364
32468W        W93889  34.482  31.055  11.024
32469W        W93890  39.437  19.069  14.837
32470W        W93891  29.064  35.496  14.780
32471W        W93892  43.915  30.514   1.836
32472W        W93893   9.389   7.873   0.877
32473W        W93894  20.748  15.721  12.040
32474W        W93895  15.290   9.665  12.580
32475W        W93896   4.278   6.828  10.508
32476W        W93897  12.792   7.845  14.847
32477W        W93898  28.501  11.718   3.681
32478W        W93899  26.964  18.789   2.284
32479W        W93900  32.974  41.825   0.336
32480W        W93901  10.282  10.335   5.309
32481W        W93902  25.682  22.596  14.477
32482W        W93903  22.163  13.691  11.948
32483W        W93904  35.385  16.261  10.893
32484W        W93905  41.912  20.650   4.808
32485W        W93906  34.600   7.415   3.331
32486W        W93907   9.644  11.216   0.911
32487W        W93908   9.342  27.579  11.445
32488W        W93909  33.604   1.913  12.832
32489W        W93910  35.034   8.397  12.398
32490W        W93911   9.660  14.670   0.857
32491W        W93912  24.636  10.675  12.566
32492W        W93913   2.316  16.810   0.283
32493W        W93914  15.225  11.716  12.931
32494W        W93915  18.611  33.485   3.661
32495W        W93916   0.809   0.890   2.662
32496W        W93917  34.385  25.608   3.775
32497W        W93918  12.291  40.509   2.257
32498W        W93919  26.147  31.939  11.510
32499W        W93920  24.124  27.190  11.393
32500W        W93921  24.674  27.551   4.755
32501W        W93922   3.403  40.382   0.355
32502W        W93923  24.512  11.695  14.312
32503W        W93924  24.519  23.702   0.389
32504W        W93925  14.335  10.700  14.303
32505W        W93926  41.943  21.745  12.893
32506W        W93927   6.869  33.380   3.370
32507W        W93928  13.842   2.304   1.812
32508W        W93929   4.932  24.084   3.851
32509W        W93930   5.220  31.641  10.503
32510W        W93931   8.378  21.710   0.842
32511W        W93932  29.119   5.894  12.895
32512W        W93933   5.901  10.778   0.333
32513W        W93934   5.406  35.479  12.565
32514W        W93935  38.450  14.251  14.889
32515W        W93936  19.607  32.414   4.680
32516W        W93937  26.149  39.965  11.086
32517W        W93938   4.391  27.035   0.426
32518W        W93939  26.465  10.784  12.572
32519W        W93940  20.059  22.194   2.721
32520W        W93941  27.065  36.437  11.575
32521W        W93942  15.724  32.617  12.949
32522W        W93943  16.216  14.677   3.336
32523W        W93944  43.278  40.999  13.981
32524W        W93945  10.302  41.868   4.193
32525W        W93946  39.342  14.636   0.467
32526W        W93947  34.912  37.344   2.865
32527W        W93948   1.252   0.804   0.884
32528W        W93949  41.894  17.121   9.968
32529W        W93950  17.292  28.610  14.476
32530W        W93951   8.241   4.401  11.432
32531W        W93952   7.860  44.759  10.494
32532W        W93953  22.181  22.041   0.947
32533W        W93954  32.567  42.867  13.922
32534W        W93955  44.949  12.841  12.850
32535W        W93956  15.186  38.952   2.724
32536W        W93957  20.767  11.807   2.361
32537W        W93958   6.293  18.216   4.117
32538W        W93959   1.864  26.464  13.310
32539W        W93960   7.335   8.347  10.530
32540W        W93961  15.745  31.031  13.852
32541W        W93962  25.103  38.509  12.380
32542W        W93963  18.193  39.359   4.300
32543W        W93964   9.761  13.304   0.433
32544W        W93965  32.503  19.541  11.590
32545W        W93966  14.246  13.729   1.701
32546W        W93967  17.117  12.222  13.497
32547W        W93968  40.356  28.053   0.443
32548W        W93969   2.876   9.774  11.128
32549W        W93970  35.862  44.914  14.921
32550W        W93971  16.695  10.699  11.110
32551W        W93972  33.590  40.051  13.444
32552W        W93973  39.858  22.148  12.965
32553W        W93974  30.995   7.700   1.727
32554W        W93975  36.463  44.861   0.815
32555W        W93976   9.216  44.846   4.322
32556W        W93977  36.540  13.286  14.451
32557W        W93978  41.895   7.209  11.115
32558W        W93979  34.415  35.526  14.475
32559W        W93980   5.759  21.029  12.552
32560W        W93981  38.909  25.021   2.778
32561W        W93982  22.111   0.474   3.693
32562W        W93983  20.153   4.226   0.426
32563W        W93984  13.314  23.026  12.934
32564W        W93985  16.306   7.236  11.499
32565W        W93986  27.606   3.361  14.373
32566W        W93987  13.809  44.005  10.643
32567W        W93988  36.057  32.024   0.765
32568W        W93989  32.435  37.884   0.748
32569W        W93990  26.614   5.770   4.263
32570W        W93991  44.956  11.662  11.986
32571W        W93992   2.832  32.919  12.902
32572W        W93993  18.205  35.518   1.933
32573W        W93994   2.278  26.973  11.910
32574W        W93995  42.839  36.534  12.859
32575W        W93996  21.102  22.715  10.465
32576W        W93997  23.218   6.400   1.717
32577W        W93998  34.443   0.460   4.641
32578W        W93999  29.037  36.996  12.515
32579W        W94000  13.287  20.746   1.354
32580W        W94001  40.321  44.007   2.387
32581W        W94002   7.870  28.649   2.811
32582W        W94003  20.712  15.116   2.200
32583W        W94004   4.763  30.085   4.766
32584W        W94005  38.912  25.709   0.250
32585W        W94006  29.449  31.414   1.785
32586W        W94007   6.272  29.669  14.769
32587W        W94008  30.956  28.539   1.900
32588W        W94009  37.018  40.875  13.816
32589W        W94010  29.617  39.956  12.008
32590W        W94011  41.316   0.869  13.384
32591W        W94012  36.889   8.689  12.442
32592W        W94013  17.759   0.818   4.814
32593W        W94014  15.302   8.175  14.304
32594W        W94015  18.166  36.393   3.758
32595W        W94016  15.152   0.305  13.841
32596W        W94017  35.469   0.941   4.236
32597W        W94018   9.355  36.964   1.238
32598W        W94019  19.058  15.786   9.988
32599W        W94020  26.185  13.631  11.124
32600W        W94021  35.535  10.274  10.563
32601W        W94022  25.098   8.816   0.258
32602W        W94023  42.801  14.629   2.691
32603W        W94024  33.600  14.300  12.832
32604W        W94025  14.735  27.096  14.759
32605W        W94026   0.805   2.382   3.653
32606W        W94027  15.722  29.040  13.439
32607W        W94028   3.934   0.429  11.485
32608W        W94029  30.066   8.192  12.013
32609W        W94030  12.326   2.917   1.235
32610W        W94031  21.559   6.328   0.851
32611W        W94032   4.844  30.050   0.865
32612W        W94033   0.771  32.996   0.335
32613W        W94034   1.876   9.381   2.315
32614W        W94035  37.515  12.665  14.888
32615W        W94036  20.203  28.585   0.787
32616W        W94037  30.976  24.590   3.283
32617W        W94038  30.091  16.712  13.361
32618W        W94039  11.189  42.306  11.920
32619W        W94040  30.164  15.822  10.418
32620W        W94041  20.083   1.453   0.822
32621W        W94042   9.710  20.634  14.434
32622W        W94043  14.596  17.256  12.991
32623W        W94044   6.372  15.242  12.390
32624W        W94045  36.455  39.464  13.907
32625W        W94046  31.023  19.777  14.921
32626W        W94047  22.668  18.084  14.018
32627W        W94048  13.619  30.062  10.486
32628W        W94049  44.379  29.001  12.891
32629W        W94050  24.481  18.189  13.959
32630W        W94051  29.427  10.871   1.338
32631W        W94052  11.245  14.810  12.480
32632W        W94053  15.296  40.394  13.475
32633W        W94054   7.665  27.578   3.320
32634W        W94055  22.226   6.260   1.900
32635W        W94056  12.270  31.460   0.445
32636W        W94057   9.319  12.195   4.229
32637W        W94058  18.270  29.016  13.428
32638W        W94059  32.600  24.625  13.990
32639W        W94060   4.816   6.698  12.013
32640W        W94061   8.682  44.915   3.289
32641W        W94062  26.091  36.461   3.207
32642W        W94063   4.741  27.053  11.024
32643W        W94064  13.645   0.989   1.808
32644W        W94065  18.112   6.287   4.273
32645W        W94066  33.595   6.724   3.361
32646W        W94067  43.512   1.474  11.989
32647W        W94068  29.427   5.211   0.939
32648W        W94069   4.315  11.682   3.285
32649W        W94070   3.390  23.630  13.469
32650W        W94071  32.938  32.444   0.939
32651W        W94072  28.065  26.996   4.799
32652W        W94073  11.179  38.065   3.387
32653W        W94074  14.825   4.761  11.948
32654W        W94075  27.071   2.812  13.959
32655W        W94076   3.866  14.169  14.372
32656W        W94077  18.184   9.204  10.601
32657W        W94078  29.472  40.871   4.169
32658W        W94079  23.543  13.776  13.800
32659W        W94080  39.511  12.789  11.110
32660W        W94081  10.824  15.656   4.702
32661W        W94082  40.356  20.597   2.709
32662W        W94083  41.398  22.203   1.326
32663W        W94084  35.510  36.365  12.896
32664W        W94085   6.417  34.611   0.838
32665W        W94086   9.210  14.095  14.785
32666W        W94087  33.434   7.361   4.344
32667W        W94088  36.530  33.973   0.471
32668W        W94089   8.159  37.085   3.298
32669W        W94090  35.574  38.980  10.603
32670W        W94091  31.957  32.539  14.389
32671W        W94092  33.615   5.881   1.341
32672W        W94093  35.466   1.854   1.353
32673W        W94094  29.118   6.193   1.312
32674W        W94095  28.659  34.535   0.363
32675W        W94096   8.171  27.195  10.404
32676W        W94097  40.953  41.807  11.480
32677W        W94098  38.397   4.364   4.720
32678W        W94099  15.655  33.423   2.883
32679W        W94100  31.423  25.642  11.555
32680W        W94101  32.923  30.442  12.420
32681W        W94102  15.229  17.610  12.567
32682W        W94103  16.185  22.098   0.443
32683W        W94104  19.184  25.025   4.631
32684W        W94105  20.666  15.177   3.343
32685W        W94106   8.791  16.574  11.023
32686W        W94107  40.486   1.956  11.459
32687W        W94108  31.527  30.431  14.368
32688W        W94109   6.188  19.776  12.435
32689W        W94110   0.882  29.512   4.267
32690W        W94111   3.831  41.297  13.839
32691W        W94112   2.395  21.607  13.416
32692W        W94113  19.111  37.434   1.709
32693W        W94114  30.527  26.048  12.352
32694W        W94115  27.533  16.700   0.888
32695W        W94116  44.317  33.410   4.793
32696W        W94117   3.302  13.229  12.490
32697W        W94118  32.475   2.280   3.293
32698W        W94119   8.819  24.106   2.195
32699W        W94120   4.840  25.669   3.361
32700W        W94121  28.655  21.187   4.747
32701W        W94122   1.409  37.856   1.863
32702W        W94123  27.942   8.275   2.863
32703W        W94124  18.606  29.548   0.896
32704W        W94125  36.852   2.242  14.444
32705W        W94126   5.199  11.131  10.916
32706W        W94127  43.876  15.625  11.857
32707W        W94128  41.522  24.997  14.809
32708W        W94129   9.214  22.147   2.703
32709W        W94130  37.078  11.656  12.557
32710W        W94131  31.003   3.790  12.992
32711W        W94132   0.420  43.393   0.818
32712W        W94133   6.339  14.800   0.475
32713W        W94134  21.729  21.083  12.490
32714W        W94135  32.122  37.022  13.371
32715W        W94136  42.808  31.075  13.474
32716W        W94137  43.815  27.009   4.817
32717W        W94138  38.462  44.417   4.698
32718W        W94139   6.828  17.212   0.336
32719W        W94140  11.325  31.039   1.307
32720W        W94141  24.637  14.258  12.013
32721W        W94142  29.113  44.969   3.802
32722W        W94143  42.300  22.569   2.380
32723W        W94144  17.095  24.223   3.715
32724W        W94145  27.191  21.677   4.719
32725W        W94146  44.821  22.235  12.960
32726W        W94147   3.241   8.855  12.356
32727W        W94148  44.432  29.554  13.009
32728W        W94149   3.816  27.668  13.908
32729W        W94150  32.409  35.529   3.177
32730W        W94151   5.249  17.691   0.333
32731W        W94152   8.685  43.905  12.438
32732W        W94153  13.297  34.899  10.075
32733W        W94154  10.332  23.614   0.363
32734W        W94155  33.395  44.825  12.470
32735W        W94156  24.562  13.111   3.696
32736W        W94157   6.290  13.708  12.835
32737W        W94158  26.089  26.125   3.836
32738W        W94159  15.695  29.577   1.711
32739W        W94160  39.422  38.441  11.458
32740W        W94161  32.093  20.560  12.833
32741W        W94162  40.483  31.004   3.793
32742W        W94163   1.474  20.176   3.678
32743W        W94164  22.746  31.904  14.778
32744W        W94165   8.763  15.280  12.441
32745W        W94166  38.899  13.753  13.042
32746W        W94167  20.578  24.582  10.569
32747W        W94168  19.759  10.328  13.540
32748W        W94169   6.758   3.386  13.914
32749W        W94170  29.463  11.292  12.546
32750W        W94171  25.595   5.716   0.267
32751W        W94172  16.785  32.005  13.055
32752W        W94173   1.304  29.550  14.999
32753W        W94174   5.699  21.075   2.731
32754W        W94175  41.320  41.382  14.027
32755W        W94176  25.468  24.711   1.856
32756W        W94177   3.723   5.708  12.051
32757W        W94178  29.071  29.461  10.439
32758W        W94179  22.580  36.944  13.843
32759W        W94180  14.644  23.062   1.374
32760W        W94181  24.671  33.933  12.859
32761W        W94182  24.197  19.746   4.343
32762W        W94183  36.883  15.140   5.165
32763W        W94184   1.414   0.908   3.259
32764W        W94185  39.527   5.306   2.406
32765W        W94186  15.643  36.387  13.366
32766W        W94187   4.911  14.589  13.469
32767W        W94188  41.323  37.964  10.990
32768W        W94189  23.713  32.057  11.565
32769W        W94190  25.975  12.659  11.953
32770W        W94191  23.667  27.522   3.319
32771W        W94192  44.410   4.808   0.351
32772W        W94193  22.723   2.321  10.593
32773W        W94194  20.090   5.933   0.839
32774W        W94195  23.654  36.428  13.924
32775W        W94196  30.027  42.329  11.568
32776W        W94197  11.832  11.848   4.277
32777W        W94198  30.928  20.146  12.514
32778W        W94199  16.247  25.686   3.157
32779W        W94200   3.338  42.298  13.464
32780W        W94201   3.928  21.107   5.189
32781W        W94202  43.852   9.736  11.965
32782W        W94203   5.933  13.647  10.546
32783W        W94204  43.419  17.743  12.046
32784W        W94205  12.275   3.863   4.191
32785W        W94206  43.968  13.691   2.214
32786W        W94207  19.104  17.224  13.943
32787W        W94208  35.489  24.230  12.955
32788W        W94209   8.213  32.527   4.707
32789W        W94210   9.843  24.120  14.508
32790W        W94211  37.527  16.644   2.820
32791W        W94212  27.638  15.120  10.059
32792W        W94213  37.560  24.164  10.429
32793W        W94214   8.161  13.693  12.447
32794W        W94215  31.600  28.087   0.888
32795W        W94216  32.579   5.914  10.488
32796W        W94217  14.191  34.563  13.477
32797W        W94218  43.888  40.520  12.455
32798W        W94219  34.995  35.415  12.382
32799W        W94220  43.794  30.572   2.856
32800W        W94221  15.720  34.953  10.137
32801W        W94222   3.918   7.899  14.289
32802W        W94223  16.212  35.397   0.916
32803W        W94224   1.457   7.817   2.826
32804W        W94225   6.824  15.280   0.321
32805W        W94226  30.004  11.833   1.297
32806W        W94227   7.242   1.932   3.798
32807W        W94228  11.137  39.333  13.026
32808W        W94229  32.010  38.971   3.176
32809W        W94230  20.140   5.788  10.924
32810W        W94231  30.066  15.235  14.414
32811W        W94232  37.894  32.619  14.411
32812W        W94233   4.373   1.430  14.926
32813W        W94234  18.144  22.182  12.833
32814W        W94235  32.914   9.780  13.467
32815W        W94236  27.036  31.132   2.361
32816W        W94237  36.559  33.436  10.420
32817W        W94238   6.891   6.354   1.853
32818W        W94239  15.211  38.974   3.728
32819W        W94240  17.142  34.984   1.909
32820W        W94241  28.127   1.924   5.253
32821W        W94242  25.626  31.989   4.772
32822W        W94243  13.834  36.501   0.470
32823W        W94244  20.727  28.936   3.350
32824W        W94245  26.587  30.066   3.682
32825W        W94246  11.748  24.140  13.038
32826W        W94247  25.639  15.255   0.471
32827W        W94248  23.548  13.679   4.117
32828W        W94249  40.984  36.990   2.327
32829W        W94250  26.535  29.009  12.401
32830W        W94251  36.402  13.268  14.998
32831W        W94252  14.295  31.581  13.354
32832W        W94253  40.382   4.845  13.802
32833W        W94254   4.748  11.795   9.968
32834W        W94255  13.251  31.449   1.433
32835W        W94256  13.746  42.480   3.205
32836W        W94257  20.558  20.640   4.770
32837W        W94258  13.713  22.070   1.807
32838W        W94259   0.907  22.170   0.938
32839W        W94260  36.846  21.675  14.014
32840W        W94261  29.086   0.824   2.828
32841W        W94262  12.236  24.620  12.356
32842W        W94263  22.034   6.258   2.718
32843W        W94264  28.631  27.163   1.912
32844W        W94265  43.412  36.018   4.743
32845W        W94266  37.065  15.106  10.423
32846W        W94267   2.764  29.661  14.909
32847W        W94268   0.261  13.324   4.312
32848W        W94269  39.872  44.280   0.373
32849W        W94270  25.659   8.219  13.970
32850W        W94271  29.974  37.071   2.180
32851W        W94272  26.134   1.737   2.874
32852W        W94273  39.351   1.830   4.262
32853W        W94274  30.008  16.137   4.646
32854W        W94275  32.629  23.535  12.831
32855W        W94276  15.745  28.469   4.228
32856W        W94277   6.295  27.064  14.310
32857W        W94278  23.125  19.216   3.328
32858W        W94279  37.852  15.267  11.020
32859W        W94280  14.305  19.042  14.321
32860W        W94281  10.159  25.567  12.388
32861W        W94282  34.964   4.254  13.990
32862W        W94283   4.726  26.680   0.882
32863W        W94284  31.591   7.225  12.019
32864W        W94285  39.817  32.464  11.977
32865W        W94286  30.021   2.439  11.003
32866W        W94287   0.755   8.704   1.444
32867W        W94288  19.762  36.949  11.036
32868W        W94289  40.835   6.315   2.879
32869W        W94290  32.486  34.955   4.205
32870W        W94291  35.993  40.844   3.242
32871W        W94292   6.404  18.754  12.568
32872W        W94293   9.227  30.630  12.477
32873W        W94294  22.617  29.942   2.825
32874W        W94295  26.466  19.647  10.592
32875W        W94296  42.334  20.573  12.971
32876W        W94297  20.691   1.801  12.861
32877W        W94298   0.359   1.802  12.084
32878W        W94299  37.956  15.298  10.527
32879W        W94300  42.889   7.752   1.431
32880W        W94301  29.597  36.582   4.684
32881W        W94302   1.909  20.723   3.683
32882W        W94303  16.304  25.514  14.799
32883W        W94304   0.867  42.427  11.932
32884W        W94305   3.877  28.967   0.301
32885W        W94306  28.092  10.231   1.450
32886W        W94307  16.574  33.477  13.427
32887W        W94308  44.760  42.395   0.404
32888W        W94309  32.070  33.528  13.902
32889W        W94310  18.144  36.930   4.788
32890W        W94311   6.715  10.190  12.501
32891W        W94312  12.721  43.331  11.855
32892W        W94313  22.583  21.127   0.888
32893W        W94314  26.103  10.843   2.262
32894W        W94315  26.169  44.989  13.949
32895W        W94316   7.880  17.113   0.428
32896W        W94317  34.008  13.826   9.658
32897W        W94318  34.472  41.932  14.469
32898W        W94319  21.540   8.759  13.310
32899W        W94320  10.244  34.955   4.238
32900W        W94321  16.708  35.954   4.818
32901W        W94322  35.109   0.930   0.780
32902W        W94323   9.710  34.866   4.706
32903W        W94324  41.868  30.622  10.044
32904W        W94325  36.005   8.339   2.892
32905W        W94326   7.872  35.077  10.952
32906W        W94327  38.346  29.172   3.336
32907W        W94328  31.481  29.939   1.243
32908W        W94329  44.501  20.619   1.314
32909W        W94330  17.681  36.936   1.914
32910W        W94331  31.587  41.381   0.421
32911W        W94332  26.613  34.884   1.352
32912W        W94333  40.853  36.589   3.694
32913W        W94334   6.423  12.698  13.057
32914W        W94335   3.413  22.667   3.232
32915W        W94336  33.551  12.814   2.716
32916W        W94337  12.688  21.226   2.867
32917W        W94338  40.844  23.152  12.088
32918W        W94339  43.970  26.698   2.356
32919W        W94340  28.147  32.934  11.413
32920W        W94341  37.963  44.971   1.353
32921W        W94342   0.869  20.077   3.165
32922W        W94343  37.834  34.974   4.277
32923W        W94344  42.301  21.205   2.777
32924W        W94345  24.117  41.305  13.505
32925W        W94346  44.809  36.423   2.333
32926W        W94347  29.659   7.257  14.864
32927W        W94348   7.229  22.169   0.883
32928W        W94349   6.320  10.274   0.870
32929W        W94350  33.912  17.620   0.437
32930W        W94351  34.106   1.885  11.014
32931W        W94352  37.499  24.104   2.215
32932W        W94353   7.411   1.339   0.750
32933W        W94354   6.737  15.239  10.554
32934W        W94355  32.133  31.926  13.886
32935W        W94356  33.998  19.268  12.358
32936W        W94357  41.427  24.513  14.440
32937W        W94358  11.217  25.504  10.453
32938W        W94359   4.773  13.808  10.445
32939W        W94360  30.652  44.881   1.864
32940W        W94361  11.792  33.445   2.360
32941W        W94362   9.710  13.182  12.892
32942W        W94363  21.080  13.218   4.132
32943W        W94364  17.691  32.029   4.758
32944W        W94365  23.736   0.467  11.389
32945W        W94366  11.819  36.523  12.017
32946W        W94367  32.401  29.550  13.504
32947W        W94368  20.541   6.699  11.082
32948W        W94369   8.208  36.997   3.750
32949W        W94370   4.734  44.445   2.736
32950W        W94371  21.616  39.006   0.342
32951W        W94372   2.727   5.902  10.586
32952W        W94373   1.277   3.263   3.245
32953W        W94374  30.422  43.891   2.390
32954W        W94375  34.974   5.398   5.312
32955W        W94376  36.991  13.183   4.827
32956W        W94377  35.962   4.924  12.063
32957W        W94378  27.107  35.079   4.785
32958W        W94379   6.243  10.748   1.758
32959W        W94380  20.562  24.723  11.408
32960W        W94381  42.981  30.961  12.025
32961W        W94382  12.617   5.249  10.630
32962W        W94383  26.471   1.771   4.716
32963W        W94384  27.038  17.307   0.818
32964W        W94385  33.904  13.808   1.836
32965W        W94386  10.658  27.072   4.318
32966W        W94387   8.675  20.246   1.791
32967W        W94388  33.605  29.950   4.311
32968W        W94389  39.519   2.344   3.147
32969W        W94390  10.269  37.527  11.987
32970W        W94391  16.573  13.838   3.803
32971W        W94392  41.822  40.530   2.227
32972W        W94393  30.011   0.827   3.651
32973W        W94394  27.490  40.448  12.429
32974W        W94395  30.009  11.163  11.509
32975W        W94396  12.778  41.483  12.986
32976W        W94397   1.798  22.554  13.874
32977W        W94398  27.074  29.051   4.154
32978W        W94399  35.508  15.815  10.090
32979W        W94400   3.863   2.826  11.979
32980W        W94401  20.087   2.889   0.332
32981W        W94402   1.366  24.038   9.511
32982W        W94403  10.349   2.448  11.469
32983W        W94404  34.472  15.699   3.769
32984W        W94405   2.450  30.148   3.730
32985W        W94406  38.917  12.153  11.069
32986W        W94407   3.855  19.763  14.835
32987W        W94408  13.634  41.025  10.959
32988W        W94409  27.577  25.096  12.436
32989W        W94410  30.150   1.394  11.055
32990W        W94411   0.382   8.304   0.412
32991W        W94412  25.590  39.985   2.332
32992W        W94413  31.413  11.305   4.667
32993W        W94414  10.757   5.293   4.206
32994W        W94415  13.287   5.248  10.922
32995W        W94416  11.195  18.131   4.121
32996W        W94417  27.548   6.424  13.919
32997W        W94418  18.598  16.700   9.955
32998W        W94419  28.523   8.890  13.010
32999W        W94420  34.372  41.983   4.711
33000W        W94421  26.062  35.378   4.791
33001W        W94422   1.788  44.304   0.422
33002W        W94423   1.807  41.346   0.429
33003W        W94424   2.896  20.215   0.938
33004W        W94425   7.298  22.997   2.880
33005W        W94426  19.757  21.618   4.644
33006W        W94427  38.537  16.594   2.677
33007W        W94428  39.966  39.332  12.978
33008W        W94429  31.939  16.614  11.517
33009W        W94430  33.050  18.252   2.220
33010W        W94431   8.184  29.579  10.443
33011W        W94432   9.826  22.142  14.976
33012W        W94433  26.682  28.936   2.310
33013W        W94434   1.952   2.327   3.383
33014W        W94435  31.584  35.550   4.776
33015W        W94436  33.094  25.130   1.842
33016W        W94437  34.911  42.825   9.959
33017W        W94438  14.102  12.339  14.809
33018W        W94439  43.357  28.479   4.805
33019W        W94440  34.598  24.058   1.236
33020W        W94441  22.586  41.910   2.407
33021W        W94442  22.518   0.822   0.741
33022W        W94443  37.003  42.304  13.481
33023W        W94444  24.144  37.936   3.659
33024W        W94445  22.179  44.374  13.501
33025W        W94446  18.073  19.160  14.934
33026W        W94447  32.065  37.927  10.552
33027W        W94448  26.171  30.026   0.357
33028W        W94449  24.054  20.754  13.334
33029W        W94450  16.310  25.528   3.758
33030W        W94451  15.740  40.807  12.381
33031W        W94452  30.998   1.934  10.499
33032W        W94453   6.316  37.015  13.812
33033W        W94454   5.312  22.216  13.396
33034W        W94455  41.893  20.158   2.247
33035W        W94456  42.961   9.383  11.122
33036W        W94457  21.248  40.947   4.630
33037W        W94458  36.483  25.183  12.459
33038W        W94459  24.563  35.895  12.472
33039W        W94460  37.433  13.619  12.479
33040W        W94461  36.931   5.332   2.313
33041W        W94462  35.914   0.742   2.729
33042W        W94463  33.069  43.427  14.452
33043W        W94464  24.658  38.361  11.925
33044W        W94465  14.771  24.084  13.855
33045W        W94466  39.969   2.342   0.734
33046W        W94467  42.520  24.510   3.151
33047W        W94468  21.573  26.492   2.232
33048W        W94469  11.173  13.197  13.913
33049W        W94470  25.575  16.578  14.796
33050W        W94471  11.153  19.588  11.398
33051W        W94472  20.216  17.658   1.707
33052W        W94473  15.818  19.272   3.649
33053W        W94474  13.787  28.132   0.342
33054W        W94475  25.544  42.977   3.221
33055W        W94476  18.250  40.357   2.369
33056W        W94477  10.226  10.359  13.529
33057W        W94478  39.531   1.877  13.920
33058W        W94479  42.973   6.395  11.988
33059W        W94480  15.667  19.778   1.337
33060W        W94481   1.442  36.383  10.471
33061W        W94482   4.889  15.275  13.498
33062W        W94483  26.048  37.896   4.742
33063W        W94484  25.560  26.697   0.481
33064W        W94485  40.494  42.983  14.991
33065W        W94486  19.754   8.678  14.442
33066W        W94487  39.040  39.958   9.963
33067W        W94488  20.155  37.364   1.341
33068W        W94489   4.752  26.504  13.481
33069W        W94490   0.287  40.445  10.915
33070W        W94491   6.370  34.411   2.885
33071W        W94492  32.951   6.812   4.114
33072W        W94493   4.836  39.850  10.031
33073W        W94494  31.969  33.414  11.896
33074W        W94495  36.448  11.133  10.533
33075W        W94496   4.258  40.384  10.624
33076W        W94497   1.402   9.833   4.229
33077W        W94498   4.937  22.523  11.381
33078W        W94499  28.571  15.142  12.563
33079W        W94500   3.796  24.014   0.399
33080W        W94501  36.934  31.090   1.276
33081W        W94502   3.331  36.374   4.236
33082W        W94503   9.788  34.973  13.038
33083W        W94504  12.676   9.680  13.309
33084W        W94505  18.658   6.805   1.226
33085W        W94506  12.329   0.780  13.028
33086W        W94507  30.160  25.020   0.365
33087W        W94508  37.904  37.414  11.529
33088W        W94509  21.643  20.131   3.245
33089W        W94510  11.745  44.796  12.476
33090W        W94511  25.678  27.946   0.853
33091W        W94512  22.543  11.312   4.649
33092W        W94513   1.438  33.962   1.824
33093W        W94514   3.401  26.191  10.102
33094W        W94515  39.368   7.316   3.726
33095W        W94516  44.943  14.106   3.790
33096W        W94517  15.129  11.683  14.298
33097W        W94518  17.297  31.129   3.253
33098W        W94519  39.876  15.252  11.035
33099W        W94520  27.172  42.969  10.594
33100W        W94521  29.553  35.505  13.864
33101W        W94522  31.614  18.650  13.831
33102W        W94523  20.747  39.471   1.365
33103W        W94524  30.019  31.071   0.942
33104W        W94525  43.979  16.133  11.014
33105W        W94526  28.535  36.974  12.345
33106W        W94527   9.225  41.461  14.492
33107W        W94528   6.867  30.008   4.618
33108W        W94529  16.750   5.863  10.976
33109W        W94530  12.748  16.272   3.341
33110W        W94531  27.951  24.114   0.440
33111W        W94532  21.181   4.398  14.434
33112W        W94533  42.946   7.358  10.435
33113W        W94534  22.200  11.744  10.896
33114W        W94535  17.750  32.085  11.970
33115W        W94536  14.222  19.680   1.221
33116W        W94537  31.456  33.062  13.047
33117W        W94538  41.406  39.371  10.436
33118W        W94539  33.391  12.705   0.394
33119W        W94540  15.233   5.329  11.483
33120W        W94541  41.987  38.073  13.950
33121W        W94542  24.154  18.674  11.440
33122W        W94543   3.741   6.762   4.308
33123W        W94544  13.272  33.965   3.793
33124W        W94545  23.077   6.877  14.510
33125W        W94546  13.290   9.201   2.734
33126W        W94547  17.068  37.442  11.565
33127W        W94548  31.469   3.342  13.862
33128W        W94549  17.749   7.292  13.995
33129W        W94550  27.479   8.813   1.210
33130W        W94551  27.511  23.010  14.028
33131W        W94552  24.103  38.966  11.496
33132W        W94553  36.068  16.099  10.563
33133W        W94554   7.795   3.294   3.327
33134W        W94555  11.667  24.665  10.440
33135W        W94556  21.555   8.345   1.359
33136W        W94557  39.978  17.198   4.215
33137W        W94558  20.083  19.057   1.268
33138W        W94559  42.834  36.515  13.405
33139W        W94560   1.343  17.305   2.317
33140W        W94561  32.031   3.920   2.232
33141W        W94562  23.189  42.330  10.908
33142W        W94563  33.946   5.754   1.243
33143W        W94564  41.439   2.271   1.895
33144W        W94565  43.830  36.378   2.266
33145W        W94566  26.507  22.508  13.487
33146W        W94567  41.452  19.147  14.023
33147W        W94568   0.440  31.028   2.319
33148W        W94569  31.016  43.334   3.189
33149W        W94570  24.132  42.864   4.708
33150W        W94571  21.513  17.648   2.697
33151W        W94572  25.213  35.971   4.200
33152W        W94573  43.367  43.272   2.717
33153W        W94574  43.979   7.221  12.915
33154W        W94575   8.232  18.151   1.885
33155W        W94576  11.629  19.589  12.867
33156W        W94577  40.509  27.167  13.994
33157W        W94578  37.539  37.558  10.462
33158W        W94579  31.607  19.685   0.871
33159W        W94580   6.702   6.424   0.855
33160W        W94581   1.888  14.658   3.842
33161W        W94582  23.997   8.230   4.323
33162W        W94583  37.478  24.503  13.898
33163W        W94584  10.638   6.257   2.750
33164W        W94585  24.149  39.954   2.364
33165W        W94586   0.986  36.514  11.392
33166W        W94587  14.252  11.747  13.517
33167W        W94588  17.114  27.491  12.385
33168W        W94589  24.006  21.747  12.344
33169W        W94590  26.528   3.219   3.629
33170W        W94591  13.285   7.791  14.885
33171W        W94592  16.258  42.991  11.875
33172W        W94593  19.595  43.915  14.804
33173W        W94594   0.978  17.624  10.957
33174W        W94595   0.460  22.708   3.666
33175W        W94596  32.490  37.443   1.838
33176W        W94597  21.222   0.482   1.328
33177W        W94598  39.932   2.334  14.295
33178W        W94599  11.631  26.663   0.286
33179W        W94600   3.340  12.610  14.300
33180W        W94601   2.428  15.193  12.457
33181W        W94602  30.087  18.250   4.136
33182W        W94603  41.993  17.087   0.767
33183W        W94604  15.276  28.151  11.985
33184W        W94605  10.691   3.801   3.208
33185W        W94606  25.531  44.773   2.248
33186W        W94607  29.579  27.524   4.694
33187W        W94608  34.609  33.445  11.564
33188W        W94609  10.184  25.085  11.063
33189W        W94610  42.795  34.044   0.265
33190W        W94611  28.632  18.780   1.862
33191W        W94612  16.140  30.542  14.424
33192W        W94613  31.081  30.442  12.062
33193W        W94614  44.466  37.965  14.440
33194W        W94615   9.792  17.196  14.981
33195W        W94616  20.206  21.037   2.406
33196W        W94617   6.744   5.349   1.871
33197W        W94618  39.824  40.973   2.858
33198W        W94619  32.130   3.364  10.156
33199W        W94620  22.011  42.865   3.669
33200W        W94621  16.678  25.120   4.831
33201W        W94622  23.574   5.899  13.795
33202W        W94623   8.747  29.008   4.151
33203W        W94624  36.591  21.588   2.784
33204W        W94625  23.639  28.648   4.727
33205W        W94626  25.077  12.312   1.329
33206W        W94627   5.931  21.150  13.311
33207W        W94628   5.843  32.068  13.483
33208W        W94629   3.434  15.816   1.315
33209W        W94630  21.512  18.739   4.735
33210W        W94631  27.567  36.997   1.248
33211W        W94632  30.152  28.026  11.523
33212W        W94633  20.753  39.439   4.338
33213W        W94634   1.774  15.794  11.444
33214W        W94635   4.884  25.989  12.850
33215W        W94636   7.682  44.788   3.853
33216W        W94637  20.736  39.058  11.991
33217W        W94638  33.457  37.368  10.066
33218W        W94639  10.741  13.806   1.293
33219W        W94640  37.050  10.692   0.885
33220W        W94641  41.941  16.697   1.874
33221W        W94642   1.952  40.500   4.806
33222W        W94643  25.526  10.224   0.448
33223W        W94644  35.092   5.251   1.293
33224W        W94645  14.119  31.473  11.987
33225W        W94646  11.733  33.051   1.255
33226W        W94647  15.176  12.851   4.305
33227W        W94648  41.296  20.247   0.445
33228W        W94649  20.192   2.346  14.377
33229W        W94650  26.142  39.511   4.345
33230W        W94651   7.197  16.190  13.985
33231W        W94652   2.244  39.486  11.894
33232W        W94653   0.358  36.863   0.469
33233W        W94654  23.117  13.703  12.343
33234W        W94655  40.900  32.134   1.926
33235W        W94656  25.066  21.124  14.907
33236W        W94657  22.024  43.352   2.254
33237W        W94658  44.393   7.372   4.148
33238W        W94659  35.862  41.474  14.416
33239W        W94660  24.544  22.022   0.339
33240W        W94661  44.915  16.211  12.363
33241W        W94662  30.589   8.748  12.405
33242W        W94663  16.110  27.636   1.922
33243W        W94664  20.590  13.615   0.763
33244W        W94665  24.168  36.431   4.278
33245W        W94666  41.407  23.996  10.527
33246W        W94667  40.383   7.826   0.958
33247W        W94668  27.642  10.145   0.885
33248W        W94669  34.019  14.615   1.787
33249W        W94670  44.869   1.736   4.666
33250W        W94671  36.007  42.872  13.341
33251W        W94672   1.875  24.099   4.326
33252W        W94673  26.074  31.993   4.627
33253W        W94674  35.081  15.676  14.771
33254W        W94675  10.316  21.202  12.443
33255W        W94676  21.215  15.118  14.763
33256W        W94677  14.190  29.562   3.827
33257W        W94678  44.775  36.483   1.725
33258W        W94679   0.281   6.331  11.481
33259W        W94680  15.249  22.643   1.851
33260W        W94681  34.972  23.151  11.881
33261W        W94682   3.436   4.890   3.357
33262W        W94683  44.295   1.915   0.272
33263W        W94684   4.419   0.318   5.756
33264W        W94685  29.133   5.372   0.421
33265W        W94686   7.309  20.032   0.864
33266W        W94687   1.431  14.652   2.236
33267W        W94688  28.113  43.431  14.941
33268W        W94689  21.576   7.756   3.336
33269W        W94690  21.557  17.119   2.276
33270W        W94691  34.604  18.166  10.509
33271W        W94692   6.725  25.673   4.215
33272W        W94693   2.444  16.615  12.955
33273W        W94694   5.883  39.472   5.724
33274W        W94695  28.649  17.723  13.384
33275W        W94696  32.906  33.921  14.828
33276W        W94697  17.557  33.616  13.350
33277W        W94698   6.307  20.632  10.919
33278W        W94699  17.213  24.570   0.804
33279W        W94700  29.657   3.880  12.489
33280W        W94701  21.730   7.301  13.828
33281W        W94702  38.886  23.599   5.139
33282W        W94703  15.293  26.995   2.399
33283W        W94704  40.884  37.061  10.921
33284W        W94705  23.091  15.612  11.405
33285W        W94706  14.644  23.027  14.474
33286W        W94707  29.151   0.332  14.981
33287W        W94708   1.472  11.223   2.298
33288W        W94709  20.648  19.058   0.365
33289W        W94710  28.026  18.164   4.350
33290W        W94711  31.131  31.566  12.892
33291W        W94712  27.975   1.441   1.818
33292W        W94713  11.307   8.791  11.497
33293W        W94714  28.566  11.289   0.798
33294W        W94715  37.063   4.747  14.371
33295W        W94716   7.386   0.272   2.399
33296W        W94717  17.178  28.489  11.988
33297W        W94718  15.210  22.035  10.640
33298W        W94719  43.794  12.214   1.716
33299W        W94720  25.965  35.484   1.919
33300W        W94721  32.503  26.573   3.325
33301W        W94722   7.728  21.710  11.921
33302W        W94723  41.037  23.994  10.487
33303W        W94724   2.424  14.162   1.702
33304W        W94725  29.544  43.343  10.960
33305W        W94726   1.874  29.466   0.301
33306W        W94727  22.577   7.665  10.088
33307W        W94728  15.284   1.270   3.664
33308W        W94729  33.085  42.402  14.508
33309W        W94730  36.074  19.058   0.341
33310W        W94731  40.832   4.327   0.750
33311W        W94732   7.253   6.865  14.989
33312W        W94733  30.017  40.440   2.799
33313W        W94734   2.771  43.771  11.465
33314W        W94735  19.544   6.822   3.725
33315W        W94736   4.266  39.471   1.871
33316W        W94737  35.036  17.794   1.697
33317W        W94738  36.996  14.670   4.305
33318W        W94739  31.408   9.745  11.009
33319W        W94740  43.795  34.871  12.912
33320W        W94741  17.289  19.751  12.495
33321W        W94742  33.043  26.467   0.333
33322W        W94743  23.550  36.905  11.597
33323W        W94744  29.606   4.753   4.679
33324W        W94745   0.749  20.762  12.085
33325W        W94746  33.985   0.400  12.396
33326W        W94747  23.632   9.191   5.154
33327W        W94748   7.398   1.948   4.243
33328W        W94749  14.174   6.189   0.877
33329W        W94750  41.394  20.148   2.341
33330W        W94751  24.673  18.122  13.412
33331W        W94752  15.804  13.128   3.168
33332W        W94753  23.583  38.448  10.520
33333W        W94754  13.195  42.009  13.403
33334W        W94755  38.358  34.462   3.358
33335W        W94756  30.924  17.179   0.807
33336W        W94757  43.275  31.954   0.430
33337W        W94758   8.789  24.181  10.635
33338W        W94759   0.950  42.909  14.894
33339W        W94760  24.017  16.176  11.474
33340W        W94761  41.941  44.954  10.460
33341W        W94762  13.332  33.510  14.902
33342W        W94763  23.073  20.084  11.858
33343W        W94764   5.201  16.245  11.498
33344W        W94765  31.622  26.204   4.646
33345W        W94766  22.717  16.802  12.399
33346W        W94767   4.740  40.481  13.957
33347W        W94768  22.580  43.004   2.892
33348W        W94769  18.078  30.541   0.752
33349W        W94770  35.029   9.827  12.877
33350W        W94771  39.870  11.185  12.534
33351W        W94772   1.317  43.789   2.245
33352W        W94773  38.508  17.753   4.814
33353W        W94774  37.511  43.278  11.574
33354W        W94775  38.367  13.241   2.212
33355W        W94776  21.522  23.623  14.960
33356W        W94777   0.432   9.769   2.693
33357W        W94778  16.567   4.232   3.722
33358W        W94779  17.226  29.424   1.441
33359W        W94780   3.948  10.374   5.221
33360W        W94781  38.997  15.757   1.823
33361W        W94782  25.144  38.459   1.411
33362W        W94783   4.799  37.581   5.237
33363W        W94784   4.897  21.695  13.872
33364W        W94785   0.298  37.403   1.722
33365W        W94786   0.863  40.046   0.338
33366W        W94787   0.807  25.082   1.238
33367W        W94788  13.240  11.156  12.034
33368W        W94789  16.586   2.316  13.975
33369W        W94790  12.632  21.683   1.744
33370W        W94791  37.051  34.613   0.796
33371W        W94792  16.208  35.561  14.778
33372W        W94793  27.962  35.429   4.792
33373W        W94794  14.782  33.515  12.414
33374W        W94795  22.247  31.994  14.296
33375W        W94796  31.006  26.108  10.506
33376W        W94797  16.697   6.787   2.189
33377W        W94798  41.326   5.754   0.262
33378W        W94799  16.681  16.711  13.050
33379W        W94800   2.851  34.091   1.911
33380W        W94801   4.836  39.558  13.473
33381W        W94802  44.941  17.767   4.656
33382W        W94803  28.084  35.435   2.891
33383W        W94804  34.538  30.505  14.441
33384W        W94805   7.188  32.568   3.336
33385W        W94806  32.595  13.105   5.769
33386W        W94807  36.984  33.539   0.894
33387W        W94808  29.937  38.343  10.898
33388W        W94809  32.123  33.603   0.447
33389W        W94810  23.501  40.427  10.975
33390W        W94811  38.989  21.115   3.729
33391W        W94812   2.825  20.073   3.706
33392W        W94813  44.455  12.163   2.333
33393W        W94814  37.547   6.398   1.215
33394W        W94815   7.404  22.189  13.478
33395W        W94816  36.462  18.226  14.417
33396W        W94817  33.548   7.270   4.660
33397W        W94818  44.997  14.160   4.268
33398W        W94819  18.232  32.578  14.491
33399W        W94820  38.854   4.868   2.671
33400W        W94821  28.079   3.427   1.242
33401W        W94822  17.564  14.645   0.457
33402W        W94823  27.472  11.222   1.326
33403W        W94824  40.476  19.643  11.948
33404W        W94825  12.212  41.374   1.721
33405W        W94826  11.216  13.256   1.435
33406W        W94827  18.082  25.701   2.685
33407W        W94828  33.931  21.736  10.502
33408W        W94829  34.497  16.130  11.575
33409W        W94830   0.494  31.017  14.309
33410W        W94831  23.190  25.531  12.997
33411W        W94832   5.732  15.682  14.771
33412W        W94833  23.508   4.791  14.301
33413W        W94834  23.225  31.993   2.876
33414W        W94835  12.810   3.455   3.197
33415W        W94836   7.749   3.757   3.171
33416W        W94837  28.944  44.267   3.258
33417W        W94838   5.703   8.313  14.500
33418W        W94839  22.196  42.868   2.903
33419W        W94840  13.109  29.455  13.919
33420W        W94841  14.801  23.206  10.410
33421W        W94842   0.751  19.752  10.589
33422W        W94843   5.779  15.711   1.799
33423W        W94844  42.444   1.852   1.810
33424W        W94845  22.623   2.410   3.381
33425W        W94846   2.335   1.866  11.123
33426W        W94847   5.779  36.042  10.453
33427W        W94848  30.537  17.072   0.302
33428W        W94849   1.934  17.607  10.459
33429W        W94850  40.910  16.174  13.497
33430W        W94851   4.381   3.289   3.817
33431W        W94852  21.577  34.940   4.620
33432W        W94853   8.823  21.744   4.122
33433W        W94854  24.037  24.025  14.298
33434W        W94855   6.743   8.289   2.240
33435W        W94856   5.716  30.579   4.209
33436W        W94857  42.382  30.557   4.662
33437W        W94858  26.622  23.051  14.006
33438W        W94859   0.964  18.157  11.421
33439W        W94860  32.581  13.176  14.979
33440W        W94861  40.805  27.570  13.439
33441W        W94862  39.842  30.647  14.836
33442W        W94863  15.741  28.155   2.680
33443W        W94864  34.930  37.877   3.332
33444W        W94865  34.600  20.672   2.387
33445W        W94866   1.784  24.617   3.288
33446W        W94867   8.386  22.587   3.281
33447W        W94868  41.013  34.906  10.960
33448W        W94869  31.555  22.505  11.931
33449W        W94870   4.214  34.955  10.644
33450W        W94871  29.079  19.725  11.592
33451W        W94872  20.160  26.969  11.129
33452W        W94873  22.550  43.364   2.741
33453W        W94874  36.941  17.791  11.977
33454W        W94875  23.057   3.714  11.392
33455W        W94876  10.711  13.715  11.522
33456W        W94877  13.318  15.325  13.863
33457W        W94878  14.650  27.004   4.329
33458W        W94879  32.053  23.710  14.889
33459W        W94880   0.872  38.867   4.330
33460W        W94881  31.099  35.470   2.346
33461W        W94882  22.709  40.493   0.460
33462W        W94883  21.665   6.910   2.836
33463W        W94884  23.099  32.525  14.493
33464W        W94885  20.718  41.421   0.756
33465W        W94886  35.539  29.478   2.881
33466W        W94887   4.721  27.612   2.380
33467W        W94888  18.772  13.607   3.758
33468W        W94889  17.729  17.647  13.902
33469W        W94890  36.951  36.404   2.308
33470W        W94891  25.096  18.660  13.440
33471W        W94892  35.007  40.473   4.235
33472W        W94893   6.787  12.838  12.382
33473W        W94894  41.380  30.499   4.223
33474W        W94895  24.710  25.552  11.080
33475W        W94896   1.474  41.824   4.210
33476W        W94897  40.878  15.811   1.448
33477W        W94898  18.578  30.031   4.293
33478W        W94899   1.881  30.449  12.375
33479W        W94900  35.882  33.495   0.833
33480W        W94901  11.713   8.787   2.768
33481W        W94902  22.172  22.742  12.448
33482W        W94903  14.316  17.703   4.668
33483W        W94904  11.756   3.897   1.793
33484W        W94905  19.259  44.312  10.452
33485W        W94906  44.823  19.711  11.091
33486W        W94907  25.697   5.773   2.861
33487W        W94908  17.797  16.801   3.220
33488W        W94909   7.726  44.960   2.686
33489W        W94910  14.285  43.007   4.256
33490W        W94911  23.730  38.458   1.928
33491W        W94912  38.562  12.804  11.924
33492W        W94913   9.677  10.776  11.973
33493W        W94914  25.154   5.889  13.902
33494W        W94915  15.268  36.982  10.923
33495W        W94916  41.043  22.249  13.044
33496W        W94917  20.145  41.528   3.146
33497W        W94918  11.654  10.811  14.012
33498W        W94919  14.592   4.239   0.727
33499W        W94920  14.626  27.527   0.962
33500W        W94921   6.809  17.240  11.551
33501W        W94922  41.480  16.085   0.251
33502W        W94923   0.456   4.710   2.846
33503W        W94924  13.755  37.087   1.420
33504W        W94925  14.328  14.164   5.082
33505W        W94926   5.436  38.351  12.096
33506W        W94927  22.157  39.440  13.316
33507W        W94928  15.717  22.146  14.305
33508W        W94929  21.535  35.993   5.227
33509W        W94930  40.934  44.503   2.738
33510W        W94931  44.860  42.444   1.911
33511W        W94932  25.154  16.636   3.652
33512W        W94933  39.453  44.926  13.829
33513W        W94934  20.052  33.429  12.507
33514W        W94935  12.643  22.689  14.428
33515W        W94936  25.179  30.612  14.375
33516W        W94937  11.225  17.061  12.074
33517W        W94938  39.527  32.913   2.764
33518W        W94939  29.985  13.690  13.880
33519W        W94940  15.142  27.982   4.708
33520W        W94941  43.487  26.619   5.112
33521W        W94942  18.586  39.028  14.765
33522W        W94943  12.297   0.779  11.413
33523W        W94944  16.585  41.982   3.673
33524W        W94945  25.612  15.757  14.965
33525W        W94946  24.149  23.555  11.475
33526W        W94947  35.028   4.436  12.013
33527W        W94948  11.347   6.197  14.781
33528W        W94949  29.654  43.974   4.125
33529W        W94950  25.159  44.830  12.832
33530W        W94951  10.669  35.107   2.218
33531W        W94952  38.013  42.954  11.869
33532W        W94953  37.534  42.397  11.497
33533W        W94954  31.087   7.806  10.996
33534W        W94955  18.686  13.736   1.696
33535W        W94956   0.926  11.338  11.064
33536W        W94957  25.123   4.841  13.465
33537W        W94958   3.730  15.280  11.888
33538W        W94959  33.626  35.404   2.315
33539W        W94960  43.270  30.478  12.996
33540W        W94961  20.098  42.400   3.643
33541W        W94962  23.197  32.530  10.921
33542W        W94963  26.632  22.648  10.985
33543W        W94964  31.419   5.750   2.726
33544W        W94965  39.468  16.728   2.837
33545W        W94966  19.575   7.860   0.468
33546W        W94967  40.366  40.391  12.344
33547W        W94968  43.819  32.991  10.635
33548W        W94969  30.419  31.647  10.964
33549W        W94970  38.854  21.026  10.634
33550W        W94971  10.227  32.033  12.899
33551W        W94972  25.576  23.503  11.554
33552W        W94973  39.896   0.361  10.532
33553W        W94974  16.747  28.666  13.346
33554W        W94975  25.129   2.302  12.896
33555W        W94976  29.149  34.374   1.788
33556W        W94977   9.670  36.513  14.373
33557W        W94978  29.563  28.063  10.439
33558W        W94979  33.988  30.130   4.688
33559W        W94980  35.363  32.141  12.868
33560W        W94981  21.191  42.999   0.938
33561W        W94982  26.459  36.019   3.379
33562W        W94983  24.543   3.952   0.287
33563W        W94984  32.111  40.387  13.929
33564W        W94985  37.526  27.031  10.441
33565W        W94986  32.570   2.807   5.661
33566W        W94987  38.369  33.068  14.292
33567W        W94988  22.205  41.824   3.236
33568W        W94989  39.485  20.139   3.672
33569W        W94990  22.519  23.104   0.738
33570W        W94991   6.892   1.802   0.376
33571W        W94992   6.760  11.258   2.734
33572W        W94993   9.753   4.724   1.273
33573W        W94994   7.745  37.871   2.674
33574W        W94995  20.067   3.378  12.988
33575W        W94996  34.557  34.527  12.426
33576W        W94997   6.283  38.945   9.560
33577W        W94998  35.071  21.160  12.472
33578W        W94999  13.758  34.115  12.992
33579W        W95000  36.047  31.901   0.410
33580W        W95001  15.799   8.362   2.209
33581W        W95002  26.999  44.989   1.830
33582W        W95003  31.430  17.271   2.721
33583W        W95004  12.820   4.933   4.602
33584W        W95005  15.716   1.868   9.996
33585W        W95006   7.318  42.002  12.945
33586W        W95007  27.045  27.183   4.183
33587W        W95008  25.144  15.218  11.995
33588W        W95009  27.165  19.162   4.178
33589W        W95010  38.874   3.713   1.728
33590W        W95011  38.996  41.845  10.485
33591W        W95012  30.923  28.183   9.965
33592W        W95013  23.182  33.898  14.323
33593W        W95014   1.926  38.509  10.980
33594W        W95015  43.815  34.474   2.254
33595W        W95016  25.639   5.867  14.020
33596W        W95017  27.656  24.098   1.755
33597W        W95018  36.359   3.770   0.404
33598W        W95019  29.976  36.038  10.933
33599W        W95020  22.212  12.618  14.288
33600W        W95021   5.215  13.273   4.828
33601W        W95022  16.796  19.561  11.593
33602W        W95023  36.038  13.351   1.425
33603W        W95024  13.339  42.854   1.893
33604W        W95025  10.676  13.627  14.952
33605W        W95026   1.972  41.409   3.359
33606W        W95027  24.605   7.250   3.276
33607W        W95028  24.534   4.217   1.834
33608W        W95029   8.660  33.053   3.698
33609W        W95030  41.347  13.716   0.920
33610W        W95031  28.531  10.825   3.278
33611W        W95032  44.876  40.863  13.047
33612W        W95033  43.303  38.928  10.537
33613W        W95034   3.880   9.396  12.554
33614W        W95035  37.380  26.077   1.226
33615W        W95036   7.785  34.066  12.462
33616W        W95037  33.984  15.579   4.762
33617W        W95038  44.425   6.762  12.529
33618W        W95039  13.650  29.590  12.088
33619W        W95040  12.799  19.209   1.402
33620W        W95041  26.997  42.325   3.352
33621W        W95042  35.382  24.149  14.938
33622W        W95043  35.078  21.046   3.693
33623W        W95044  27.116  35.888   3.728
33624W        W95045  32.469   6.763   2.701
33625W        W95046   1.403  29.642  13.421
33626W        W95047   1.898   7.338  10.616
33627W        W95048  22.239   8.889  13.511
33628W        W95049  30.046  21.090   4.760
33629W        W95050  30.582   4.364  11.409
33630W        W95051  30.539   6.725   0.950
33631W        W95052   5.361  40.956   1.887
33632W        W95053   4.707  40.037  11.405
33633W        W95054   8.781  40.947  12.523
33634W        W95055  32.402   8.849   0.889
33635W        W95056  17.078  16.610  10.567
33636W        W95057  23.993  10.333  13.444
33637W        W95058  44.909   5.361  12.924
33638W        W95059  22.742  36.002  12.062
33639W        W95060  19.093  17.759   0.832
33640W        W95061   6.249   2.443  11.500
33641W        W95062  26.456  13.623   1.337
33642W        W95063   4.709  17.787  10.597
33643W        W95064  37.061  26.462   2.191
33644W        W95065  12.827  35.999  13.367
33645W        W95066  28.480  36.387  14.965
33646W        W95067  37.449  41.375  13.791
33647W        W95068  19.206  12.331   2.893
33648W        W95069   1.860  10.781  14.878
33649W        W95070  35.506  19.247   0.316
33650W        W95071   4.302   1.262  12.963
33651W        W95072  28.106  42.304  10.515
33652W        W95073  11.265  10.195  10.614
33653W        W95074  16.269  11.816   4.241
33654W        W95075   5.712   3.413  11.931
33655W        W95076  30.008  22.233   0.275
33656W        W95077  33.561  25.698  14.774
33657W        W95078  14.302   9.187   2.242
33658W        W95079   7.236  14.110   4.276
33659W        W95080  31.998   3.343   5.571
33660W        W95081  33.521  39.855  14.921
33661W        W95082  24.201  38.937  12.422
33662W        W95083   4.902  26.137   2.401
33663W        W95084  37.548  11.163   1.845
33664W        W95085  13.215  19.142  11.579
33665W        W95086  11.864  19.248   4.691
33666W        W95087  24.604  19.234  11.490
33667W        W95088  26.624  34.420  10.899
33668W        W95089  36.361   5.705   1.383
33669W        W95090  15.591  36.919   1.810
33670W        W95091  28.094  35.532   2.402
33671W        W95092   1.919  13.249  11.892
33672W        W95093  32.898  38.916   0.857
33673W        W95094  16.137  33.500   1.406
33674W        W95095  21.174   1.335   1.318
33675W        W95096  40.304  42.353   4.275
33676W        W95097  18.071  43.484   0.963
33677W        W95098  36.406  33.029   2.356
33678W        W95099  25.648  36.870   1.390
33679W        W95100  26.069   6.218  12.564
33680W        W95101  32.003  17.712   3.146
33681W        W95102  31.959  35.037   3.214
33682W        W95103  34.375  15.670  13.972
33683W        W95104  20.230  40.885   1.866
33684W        W95105  11.764   9.236   2.843
33685W        W95106  31.151  31.431   1.893
33686W        W95107  17.128  11.301   3.231
33687W        W95108  33.956  23.162  12.499
33688W        W95109  17.268  11.704   0.269
33689W        W95110  11.831  38.826   0.403
33690W        W95111  43.283  43.896   1.436
33691W        W95112  29.087   2.922   0.470
33692W        W95113   1.295  35.566  14.991
33693W        W95114  38.909  40.866   0.378
33694W        W95115  25.694  22.601   4.667
33695W        W95116  32.534   8.278   1.761
33696W        W95117  19.611  16.789  10.489
33697W        W95118  14.679  19.588   1.816
33698W        W95119  19.208  16.657   5.145
33699W        W95120  12.256  30.035   9.940
33700W        W95121   7.226  13.236   3.784
33701W        W95122   8.772  27.952   0.825
33702W        W95123  39.019  34.019  14.018
33703W        W95124  39.536  11.650  13.807
33704W        W95125  14.173  31.569  12.826
33705W        W95126   6.305  35.372   2.252
33706W        W95127  17.158  31.153   2.788
33707W        W95128  39.362  39.343  10.510
33708W        W95129  19.073  44.886   4.671
33709W        W95130   1.766  25.597   2.302
33710W        W95131   9.224  15.127  11.970
33711W        W95132  41.968  36.040   2.744
33712W        W95133  11.666  24.542  12.401
33713W        W95134  36.349  26.462   9.988
33714W        W95135  38.335  12.728   5.081
33715W        W95136   8.274  27.098   3.288
33716W        W95137  33.527   1.453  13.942
33717W        W95138  32.611  38.338   4.244
33718W        W95139  27.630  18.231   4.806
33719W        W95140  41.525   8.800   2.414
33720W        W95141   1.238   9.285   3.662
33721W        W95142  22.624  44.345  14.278
33722W        W95143  17.077  11.151   0.427
33723W        W95144   5.257   5.210   3.765
33724W        W95145  20.536  21.593  10.448
33725W        W95146  31.072  27.185   3.312
33726W        W95147  27.090   9.791   2.874
33727W        W95148  41.893   4.444   0.824
33728W        W95149   3.710   1.287  13.927
33729W        W95150  35.021  23.607  12.578
33730W        W95151   9.783   4.401  12.823
33731W        W95152  38.957  17.610   4.623
33732W        W95153   0.964  27.061   0.787
33733W        W95154  19.260  43.514  13.368
33734W        W95155   6.352   2.837  12.009
33735W        W95156   8.744  29.476  11.545
33736W        W95157  39.437   7.294   1.389
33737W        W95158  19.057  17.171  14.764
33738W        W95159   0.899   1.428  12.924
33739W        W95160  31.572  36.947   0.424
33740W        W95161   9.249   0.877   3.206
33741W        W95162  21.096  31.416  13.476
33742W        W95163  10.337   7.874  12.456
33743W        W95164  21.133  21.622   4.675
33744W        W95165  30.088   3.903   0.391
33745W        W95166  24.980  22.072   2.224
33746W        W95167  23.628  28.989  13.394
33747W        W95168   0.444  35.001   0.747
33748W        W95169  27.969  23.991  13.329
33749W        W95170  41.931  30.976  12.367
33750W        W95171  33.569  43.343   1.807
33751W        W95172  28.511  25.087  11.535
33752W        W95173  43.384   7.237  11.963
33753W        W95174  31.033  32.636   2.204
33754W        W95175   8.290  22.574   2.217
33755W        W95176  34.979  43.389   0.882
33756W        W95177  30.500  10.832   0.383
33757W        W95178  18.783  37.863   4.727
33758W        W95179  18.159  31.046   1.816
33759W        W95180  39.041  42.461  13.998
33760W        W95181  11.265   5.303   0.882
33761W        W95182  25.709  39.829  11.598
33762W        W95183  15.660   8.203   3.669
33763W        W95184  22.594  10.334  11.865
33764W        W95185   2.739  15.733   1.769
33765W        W95186   1.964  32.415   2.198
33766W        W95187  18.714  25.505   2.400
33767W        W95188   0.302  20.192  12.538
33768W        W95189  42.505  16.114  10.990
33769W        W95190   3.348  16.199  13.944
33770W        W95191   0.314   9.764  12.080
33771W        W95192  34.383  32.941  10.483
33772W        W95193  35.564  26.207  11.509
33773W        W95194   3.365  35.501   0.373
33774W        W95195  23.682  43.470   2.249
33775W        W95196  14.767  41.953  14.366
33776W        W95197  12.236  23.104   1.334
33777W        W95198  29.171  12.322   1.696
33778W        W95199  44.415   1.295  14.762
33779W        W95200  38.541  38.431   2.738
33780W        W95201  24.067  33.615  11.512
33781W        W95202  31.629  26.620  10.919
33782W        W95203   4.832   9.707   0.961
33783W        W95204  32.480   5.828  13.467
33784W        W95205  16.257  23.720  13.940
33785W        W95206   4.746   7.184  13.849
33786W        W95207   9.834  41.970   3.649
33787W        W95208  12.299  38.497  11.592
33788W        W95209  29.982  32.393  12.992
33789W        W95210   7.703   1.960   2.885
33790W        W95211  22.011  15.637   4.302
33791W        W95212  20.246  17.688  12.407
33792W        W95213  36.529  19.178   1.894
33793W        W95214   6.354  30.087   4.118
33794W        W95215  21.122  11.670  11.898
33795W        W95216  38.930  28.950   0.903
33796W        W95217  23.141  10.158   0.454
33797W        W95218  24.484  22.164  12.525
33798W        W95219  39.945  15.091   5.145
33799W        W95220  29.175  41.999  14.410
33800W        W95221  24.484  41.430   4.281
33801W        W95222  43.270  22.507   9.962
33802W        W95223  28.058  33.405   0.939
33803W        W95224  35.375  10.149  11.115
33804W        W95225  13.662  24.125   3.785
33805W        W95226  37.002  28.602   0.879
33806W        W95227  35.015  33.130   4.681
33807W        W95228  40.464  26.459   1.324
33808W        W95229  18.701  22.715   4.132
33809W        W95230  23.158  10.153  13.350
33810W        W95231  37.876  34.465   2.734
33811W        W95232  42.514  37.849  13.345
33812W        W95233   1.948  39.046   3.758
33813W        W95234   2.354  15.174   1.413
33814W        W95235  12.785  26.982   4.205
33815W        W95236   7.730  28.440  11.030
33816W        W95237  10.291  31.899   2.339
33817W        W95238  29.614   7.869   0.925
33818W        W95239  12.760  27.555  10.592
33819W        W95240  35.427   0.885  12.484
33820W        W95241  40.882  33.456   1.262
33821W        W95242  33.613   0.936  10.447
33822W        W95243  31.123  19.258  13.311
33823W        W95244  24.228  19.645   1.837
33824W        W95245  24.504  40.507  10.541
33825W        W95246  14.300  14.773  14.968
33826W        W95247  37.966  26.000   1.842
33827W        W95248  35.407  30.163  10.485
33828W        W95249   8.813  11.688   5.151
33829W        W95250   5.894  34.433  14.802
33830W        W95251  37.509  14.122  14.276
33831W        W95252  15.697  42.824   2.205
33832W        W95253  30.520  43.281  12.839
33833W        W95254  44.441  35.103  13.816
33834W        W95255  14.776  23.130   2.898
33835W        W95256  27.023  29.501  14.378
33836W        W95257  25.578   0.985  11.076
33837W        W95258  38.441  11.664   0.840
33838W        W95259  24.984  30.555   3.219
33839W        W95260  32.593  40.973   2.804
33840W        W95261   6.422  38.538   0.865
33841W        W95262  16.217  17.747  12.529
33842W        W95263  14.188  21.088  13.496
33843W        W95264  15.109  28.534  12.426
33844W        W95265   4.938  34.054  13.507
33845W        W95266   8.797  32.398  14.993
33846W        W95267  28.109  42.416  13.896
33847W        W95268   1.313  35.504   2.842
33848W        W95269  18.730  15.725   1.908
33849W        W95270  29.072  36.588   3.860
33850W        W95271  19.145  13.818   3.333
33851W        W95272  39.973  26.953  13.851
33852W        W95273   7.862  32.050  13.483
33853W        W95274  27.968  29.012   3.727
33854W        W95275  32.998   5.339   1.279
33855W        W95276  33.909  44.862   4.835
33856W        W95277  38.009  23.517  11.102
33857W        W95278  34.113  34.032  14.446
33858W        W95279  34.371  28.532   0.967
33859W        W95280   0.385  27.676   1.811
33860W        W95281  20.586  27.021   2.858
33861W        W95282  10.727  19.584  10.921
33862W        W95283  33.436  43.974   4.355
33863W        W95284  26.975  32.633  10.560
33864W        W95285  28.015  13.711  11.426
33865W        W95286   0.952  36.580  14.762
33866W        W95287  10.825  38.330   1.877
33867W        W95288  30.075  15.216  10.980
33868W        W95289  14.254  30.414  12.969
33869W        W95290  43.990  16.241   2.285
33870W        W95291  12.346  16.164  14.821
33871W        W95292  23.084  12.737  11.865
33872W        W95293  27.028   9.883   1.802
33873W        W95294  26.954  36.590  12.534
33874W        W95295  38.481  28.490   1.291
33875W        W95296  18.282  11.656   5.746
33876W        W95297  14.195   2.288  13.980
33877W        W95298  34.087  13.635   0.318
33878W        W95299  30.006  30.920   1.223
33879W        W95300  14.817  39.986  14.369
33880W        W95301  12.188  33.588  13.000
33881W        W95302  43.972  43.810   1.251
33882W        W95303   3.289  20.546  10.133
33883W        W95304   7.749  18.115   1.771
33884W        W95305  19.208   6.285   4.279
33885W        W95306   6.420  35.543  12.530
33886W        W95307  18.211  25.653  12.048
33887W        W95308   8.713   0.957  12.068
33888W        W95309  42.915  33.416  11.493
33889W        W95310   7.880  41.034   2.213
33890W        W95311   8.772   7.727  12.578
33891W        W95312  29.549  37.526   1.396
33892W        W95313  35.070  22.737   0.811
33893W        W95314  13.626  14.198   4.243
33894W        W95315  12.274  18.750   4.114
33895W        W95316  26.008  18.214   2.285
33896W        W95317  40.957  27.108   4.635
33897W        W95318   8.802  16.670   1.789
33898W        W95319  29.164  29.546  12.890
33899W        W95320  24.130   2.231  13.019
33900W        W95321   7.173   4.781  14.362
33901W        W95322  30.648  42.940   1.427
33902W        W95323  32.592  25.528   1.416
33903W        W95324  33.970   4.424  13.964
33904W        W95325  28.459  10.243   3.160
33905W        W95326  38.534   2.927  13.366
33906W        W95327  44.817  36.013   1.907
33907W        W95328  15.788  44.280  13.535
33908W        W95329  28.570  35.051   3.318
33909W        W95330  27.658  35.387   3.852
33910W        W95331  35.898  31.558   0.343
33911W        W95332   1.241  15.277  10.903
33912W        W95333   9.225  30.069   3.849
33913W        W95334  17.213  28.045  14.969
33914W        W95335  10.763  26.976   3.769
33915W        W95336  24.164  40.994  10.948
33916W        W95337  18.183  10.632   2.861
33917W        W95338   9.172  21.111  12.535
33918W        W95339   5.415  10.313  12.520
33919W        W95340  19.623  27.578  14.340
33920W        W95341   3.901  39.936   2.849
33921W        W95342  43.380   6.879   0.735
33922W        W95343  12.641   6.850   2.270
33923W        W95344  10.252  33.899   2.190
33924W        W95345   9.754   5.329   1.760
33925W        W95346  43.405  19.672   2.870
33926W        W95347  12.790  19.233  11.953
33927W        W95348   6.794  11.848  11.465
33928W        W95349   8.349  17.786   2.250
33929W        W95350  25.482  15.243   1.875
33930W        W95351  17.572  32.427   4.791
33931W        W95352  15.142  26.639   2.235
33932W        W95353   2.926  21.613  10.555
33933W        W95354   4.248   8.348   1.834
33934W        W95355  25.566  25.584  11.909
33935W        W95356  27.988   7.844  12.400
33936W        W95357  13.332   2.365   4.659
33937W        W95358  30.435  34.569  14.774
33938W        W95359  21.200  26.129   1.870
33939W        W95360  13.117   4.755   4.829
33940W        W95361  23.716  44.841  11.929
33941W        W95362  36.581   0.422   0.270
33942W        W95363  30.968   0.476  14.502
33943W        W95364  17.266  37.353  12.577
33944W        W95365  12.763  23.719  10.917
33945W        W95366  37.972   7.899  13.851
33946W        W95367  14.695  34.518   1.704
33947W        W95368  28.968   3.243   0.441
33948W        W95369  23.625  42.914  10.046
33949W        W95370  39.815  23.068   4.144
33950W        W95371   6.806  38.875  12.008
33951W        W95372   8.663  24.505  14.467
33952W        W95373  32.965  17.173  12.451
33953W        W95374   4.759  35.428   0.471
33954W        W95375  29.586   3.897  14.906
33955W        W95376  43.998  40.022  11.863
33956W        W95377  17.626  23.527   3.714
33957W        W95378   5.275  21.691  13.951
33958W        W95379  39.350  18.552   0.825
33959W        W95380  11.244  40.524  13.930
33960W        W95381  32.087  39.846   2.664
33961W        W95382  31.030   0.492   2.765
33962W        W95383  10.163  24.143  14.887
33963W        W95384  34.580  21.589  12.466
33964W        W95385  26.539  36.887  10.964
33965W        W95386  20.576  37.075  11.870
33966W        W95387  38.343  19.597  14.949
33967W        W95388  44.418  15.581   3.647
33968W        W95389  23.685  34.501  12.376
33969W        W95390  23.111  18.561   0.747
33970W        W95391  15.582  20.120  13.791
33971W        W95392  34.114  29.978   0.454
33972W        W95393  43.364  10.733  11.488
33973W        W95394  12.249  26.155  10.415
33974W        W95395  21.066  37.515  10.048
33975W        W95396   0.343  32.424  10.960
33976W        W95397   0.945   0.319  10.584
33977W        W95398   7.313  40.814  13.036
33978W        W95399   2.447  42.284  14.449
33979W        W95400  43.901   2.744   0.385
33980W        W95401   0.872  28.059  11.075
33981W        W95402  15.814  21.635  11.500
33982W        W95403  24.526  44.264   2.841
33983W        W95404  24.013  39.977   4.211
33984W        W95405   8.661   5.316   1.262
33985W        W95406  43.003  28.576   3.148
33986W        W95407  20.712  15.617  12.884
33987W        W95408  44.447  37.471  12.512
33988W        W95409  15.226   0.902  12.576
33989W        W95410  19.577  35.110   1.375
33990W        W95411  42.794  33.429  14.920
33991W        W95412  42.447  17.592   0.314
33992W        W95413   2.403   1.278   0.453
33993W        W95414  36.384  38.916  12.373
33994W        W95415  26.489  26.576  11.504
33995W        W95416   8.403  19.536  13.050
33996W        W95417  43.305   5.899   4.332
33997W        W95418  40.882  20.090   0.862
33998W        W95419  20.069  39.442  14.424
33999W        W95420   9.339  14.332   9.988
34000W        W95421   7.294  33.598   3.704
34001W        W95422  19.557  35.448  11.496
34002W        W95423  13.341   1.318   0.367
34003W        W95424   2.337   8.694  14.955
34004W        W95425   9.736  13.646   1.341
34005W        W95426  15.670  33.960   2.683
34006W        W95427  42.816  44.446   0.389
34007W        W95428   1.819  19.081   1.441
34008W        W95429   6.870  15.157  13.935
34009W        W95430  31.525  28.107  13.930
34010W        W95431  16.292  28.466  10.439
34011W        W95432   6.226  12.666   4.164
34012W        W95433  27.617  22.602   3.719
34013W        W95434  38.445  19.663   4.242
34014W        W95435  36.060  35.901  14.773
34015W        W95436  23.645  40.925   2.780
34016W        W95437  22.554  16.144  14.831
34017W        W95438  12.189  21.713   2.752
34018W        W95439  42.979  14.294  13.916
34019W        W95440  15.236  10.257   4.238
34020W        W95441  15.690  37.051  11.575
34021W        W95442  24.545  24.059   3.181
34022W        W95443  24.178   4.233   3.337
34023W        W95444  35.457  11.187  14.315
34024W        W95445  42.424  26.466  12.949
34025W        W95446  41.486  36.035   0.847
34026W        W95447   4.248   5.250  11.871
34027W        W95448  41.426  41.486  10.614
34028W        W95449  36.944  10.249   9.922
34029W        W95450  19.780  36.055   0.441
34030W        W95451   1.794  31.914   3.863
34031W        W95452  29.551   8.683  14.804
34032W        W95453  18.648  20.148  12.573
34033W        W95454  14.739   0.762  11.946
34034W        W95455   1.919  12.141  12.982
34035W        W95456  25.983  11.634   2.756
34036W        W95457  15.146  30.467  13.920
34037W        W95458  44.952   2.731  11.078
34038W        W95459  33.117  40.899   0.277
34039W        W95460  20.068  13.742  14.476
34040W        W95461  20.749  33.114  11.975
34041W        W95462   5.818   8.254   2.689
34042W        W95463  30.159  22.738  11.962
34043W        W95464  27.189  24.670   0.733
34044W        W95465  42.890  13.341   3.247
34045W        W95466  43.403  12.334  14.288
34046W        W95467   2.760  39.361  10.497
34047W        W95468  34.469   6.803  14.444
34048W        W95469  23.494   3.730   2.404
34049W        W95470  26.091  41.333   4.119
34050W        W95471  29.987  42.009   2.329
34051W        W95472  33.010   4.215   3.817
34052W        W95473   8.718   6.337   1.334
34053W        W95474   8.161   0.417  10.494
34054W        W95475   4.777  41.364   1.912
34055W        W95476  34.575  23.098   4.193
34056W        W95477  34.580   8.876  12.449
34057W        W95478   9.353  41.887  13.327
34058W        W95479   5.426  37.516  14.760
34059W        W95480  44.976  34.476   2.785
34060W        W95481  25.027  43.461  11.462
34061W        W95482   7.292  12.764  13.487
34062W        W95483   5.439  38.976  10.629
34063W        W95484  37.033  43.866   1.440
34064W        W95485  27.518  35.983  14.290
34065W        W95486   7.779  26.461   1.298
34066W        W95487  12.676  13.238  12.520
34067W        W95488  32.922   6.714  11.118
34068W        W95489   5.375   6.404   3.322
34069W        W95490   6.340  14.647  14.907
34070W        W95491  19.754  30.461   2.880
34071W        W95492  43.385  44.357   4.280
34072W        W95493  29.109  19.734   1.392
34073W        W95494   3.745  37.956  14.808
34074W        W95495  17.071  16.166   3.284
34075W        W95496  24.193  35.498   1.365
34076W        W95497   8.279  25.020  10.556
34077W        W95498  22.727  26.967   2.349
34078W        W95499  13.599  43.282  10.572
34079W        W95500  16.076  18.131  11.925
34080W        W95501  24.181  25.642  14.338
34081W        W95502  28.494  15.109  14.451
34082W        W95503  36.923  17.159  13.836
34083W        W95504  13.635  11.351   0.888
34084W        W95505  23.576  25.712   4.621
34085W        W95506  19.148  22.562  13.981
34086W        W95507  19.117  18.137  13.404
34087W        W95508  22.244  38.066  13.524
34088W        W95509  35.529  11.167  12.057
34089W        W95510   5.338  37.886   0.446
34090W        W95511   9.224  33.539  10.030
34091W        W95512  42.861  42.815  13.889
34092W        W95513   0.373  22.666  12.445
34093W        W95514  13.639  20.197   3.695
34094W        W95515  31.947   1.758   9.665
34095W        W95516  38.422  25.035  11.933
34096W        W95517  38.956  21.188   4.321
34097W        W95518  29.087   7.770   3.634
34098W        W95519  18.109  29.536  13.848
34099W        W95520  14.653  15.692  10.053
34100W        W95521  44.856  18.693  11.065
34101W        W95522  26.113  19.751  13.969
34102W        W95523  27.645  29.109   0.407
34103W        W95524  33.603  30.076   4.792
34104W        W95525   4.787  32.043   9.971
34105W        W95526  12.152  12.243  10.898
34106W        W95527  16.258  36.962   4.282
34107W        W95528  22.569  33.478  11.375
34108W        W95529  23.210  32.406   4.243
34109W        W95530  37.866  10.829   2.720
34110W        W95531  34.595  23.074   1.919
34111W        W95532  30.459  17.190   1.735
34112W        W95533   1.305   0.398  11.095
34113W        W95534  31.416  16.211  12.560
34114W        W95535  26.475  14.284  12.442
34115W        W95536  15.245  10.806  12.923
34116W        W95537  44.757  21.593   4.769
34117W        W95538  37.975  44.912   3.675
34118W        W95539  36.535  35.047   2.239
34119W        W95540   1.316   3.876  13.438
34120W        W95541  10.633  24.996   1.244
34121W        W95542  18.768  35.887   3.817
34122W        W95543  38.388  36.892  10.635
34123W        W95544  38.936  31.963  12.478
34124W        W95545  25.066  40.539  14.410
34125W        W95546   4.344  42.877  10.430
34126W        W95547  10.224  28.935   0.383
34127W        W95548  29.638  35.003   4.829
34128W        W95549  27.992   1.301   1.391
34129W        W95550  40.877  44.488   1.934
34130W        W95551  22.141  12.309  11.423
34131W        W95552   2.822   6.841  12.036
34132W        W95553  42.488  21.175   1.303
34133W        W95554  24.563  37.998  13.475
34134W        W95555  39.338  44.326   1.236
34135W        W95556   6.252  22.072   3.693
34136W        W95557  39.990   2.762   1.774
34137W        W95558   5.697  41.299   5.686
34138W        W95559  21.675  11.819   1.255
34139W        W95560  41.810  41.013   1.718
34140W        W95561  42.933  33.442  13.309
34141W        W95562   6.204  27.005  12.510
34142W        W95563  21.053  24.116  13.443
34143W        W95564  30.995   9.758   9.997
34144W        W95565   3.399  19.569  11.014
34145W        W95566  35.559  38.470   0.303
34146W        W95567  33.584  42.812   3.671
34147W        W95568   7.874  39.441   1.416
34148W        W95569  40.856  15.113   1.890
34149W        W95570   4.284  31.044  11.600
34150W        W95571  26.646  32.892  11.451
34151W        W95572  18.205  40.435  12.842
34152W        W95573   8.885  28.062   3.229
34153W        W95574  12.680  30.048  13.361
34154W        W95575   2.297  14.624  10.596
34155W        W95576   6.266   6.754  12.477
34156W        W95577  14.615  43.434  14.830
34157W        W95578   3.740  26.660  10.923
34158W        W95579  40.313  27.561   1.336
34159W        W95580  37.837  28.536   1.898
34160W        W95581   9.790  34.458  14.318
34161W        W95582  33.043  15.263   1.780
34162W        W95583  28.952  43.936  11.855
34163W        W95584   4.391   8.292   0.473
34164W        W95585   7.417   4.800   3.263
34165W        W95586   7.374  19.628  10.536
34166W        W95587  24.137  11.638  13.041
34167W        W95588   0.869  37.520   9.968
34168W        W95589  28.115  37.945  13.452
34169W        W95590  17.164  23.669   4.798
34170W        W95591  26.543  42.934   0.418
34171W        W95592  12.243  23.612   2.271
34172W        W95593   4.417  43.767   5.231
34173W        W95594  10.355   0.391   0.868
34174W        W95595  34.978   1.265  14.349
34175W        W95596   4.215   3.837  13.319
34176W        W95597  10.672   2.921  11.912
34177W        W95598  35.926  21.602   2.373
34178W        W95599   1.466  11.804  12.478
34179W        W95600   0.826  26.966   2.338
34180W        W95601  44.458  40.805   4.143
34181W        W95602  12.157  32.441  11.078
34182W        W95603  10.316  21.077   4.248
34183W        W95604  35.428  36.991  13.412
34184W        W95605  29.489  43.346   0.386
34185W        W95606  30.148  15.223   4.139
34186W        W95607  28.627  17.153  11.461
34187W        W95608  15.758   9.660   1.918
34188W        W95609   5.309  22.602   0.384
34189W        W95610  30.990  32.629   0.243
34190W        W95611  33.450  37.878  14.845
34191W        W95612  42.954  31.566   2.717
34192W        W95613  29.148  37.943   2.766
34193W        W95614  14.175  23.083   1.450
34194W        W95615  12.812  41.379  13.921
34195W        W95616   8.714  14.716   1.721
34196W        W95617   7.188   1.447  11.566
34197W        W95618  35.466  18.087  14.946
34198W        W95619  28.167   8.658  14.011
34199W        W95620  13.659   9.238  12.377
34200W        W95621  35.578  27.096  11.482
34201W        W95622  44.998  44.262  14.330
34202W        W95623   8.733  19.147   4.182
34203W        W95624  19.733  29.030   1.841
34204W        W95625  34.452   3.315   5.782
34205W        W95626  36.353  26.989   4.348
34206W        W95627  25.061  16.147   2.347
34207W        W95628  25.138  35.892   2.343
34208W        W95629   0.388  39.980  11.893
34209W        W95630  33.990   0.379   4.655
34210W        W95631   0.951  40.013  12.423
34211W        W95632  23.689   3.753   3.788
34212W        W95633  22.063  16.719  14.428
34213W        W95634  43.407  17.140  12.036
34214W        W95635   2.323  34.601   1.438
34215W        W95636  28.006  18.112  12.511
34216W        W95637  42.852  29.144   1.213
34217W        W95638   5.219   9.157   0.738
34218W        W95639  19.767  38.956  11.042
34219W        W95640   4.207   0.951  10.916
34220W        W95641  43.282  41.917  11.041
34221W        W95642  34.931  34.901  11.042
34222W        W95643  27.486   7.874  11.557
34223W        W95644  42.956   0.267   0.387
34224W        W95645   8.266  20.152   3.724
34225W        W95646  13.307   4.236  10.905
34226W        W95647  35.939   2.841   2.825
34227W        W95648   8.724  30.652   4.347
34228W        W95649   7.889   9.771  12.451
34229W        W95650   4.769  30.949   4.244
34230W        W95651  13.716  26.147   2.184
34231W        W95652  17.300  37.562   9.922
34232W        W95653   8.855  27.527   3.814
34233W        W95654  13.313  24.189   2.308
34234W        W95655   8.778  39.938  12.838
34235W        W95656   5.412  37.554  11.078
34236W        W95657  43.764   2.312   0.396
34237W        W95658  32.485   9.174   1.919
34238W        W95659  37.952   4.773  11.881
34239W        W95660  28.140  10.303   3.746
34240W        W95661  40.315  39.943   5.207
34241W        W95662  37.014  43.503  12.992
34242W        W95663   7.227  15.269   0.760
34243W        W95664   9.802   9.837  11.586
34244W        W95665  12.294  37.059  14.306
34245W        W95666  32.477  22.549   0.306
34246W        W95667  44.352  38.389   4.677
34247W        W95668   4.258  43.311  11.109
34248W        W95669  41.421   8.284  14.768
34249W        W95670  43.009  26.581  11.934
34250W        W95671  31.407  17.116   3.155
34251W        W95672  14.661  18.145   4.650
34252W        W95673  17.755  34.014  12.356
34253W        W95674  43.939   9.880  14.027
34254W        W95675  36.576  18.112  14.792
34255W        W95676  12.836  40.390  11.855
34256W        W95677  15.734  44.437  14.798
34257W        W95678  17.218  10.749   3.278
34258W        W95679   0.316  38.058   1.304
34259W        W95680  33.414  23.672   0.459
34260W        W95681   2.905  31.546   0.287
34261W        W95682   8.880  25.043   0.249
34262W        W95683  41.983  26.506  12.347
34263W        W95684  12.727  43.006  10.609
34264W        W95685  30.436  32.391  12.453
34265W        W95686  21.246  27.112   1.378
34266W        W95687  18.203  32.515  14.972
34267W        W95688   6.286  27.603   2.265
34268W        W95689  33.556  36.363  14.841
34269W        W95690  34.468   8.166   1.311
34270W        W95691  33.400  29.979  13.446
34271W        W95692  39.443   3.918  14.831
34272W        W95693  29.984  26.084   4.735
34273W        W95694  10.855  41.796  14.477
34274W        W95695  14.770  33.107   1.343
34275W        W95696  29.033  23.713  13.418
34276W        W95697  29.097  26.172  12.917
34277W        W95698   6.740  43.487  12.908
34278W        W95699  27.464  43.306   0.257
34279W        W95700   2.393  39.939   5.166
34280W        W95701  36.501  13.784  14.918
34281W        W95702   8.212  11.359   3.843
34282W        W95703   7.712  37.463   9.471
34283W        W95704  16.243   9.322   3.170
34284W        W95705  16.806  41.930   4.707
34285W        W95706  44.353  35.518  14.817
34286W        W95707   8.337  19.080  10.533
34287W        W95708  20.756  15.823   4.821
34288W        W95709  37.366  11.859   4.258
34289W        W95710  18.632  11.863   0.808
34290W        W95711   3.795  35.107  12.908
34291W        W95712  20.567  18.197  14.800
34292W        W95713  21.594   7.690  12.444
34293W        W95714  35.474  38.485  13.940
34294W        W95715  19.218  35.581   4.126
34295W        W95716  37.579  11.777  10.965
34296W        W95717  18.546   0.481   3.689
34297W        W95718  34.552  23.703   4.151
34298W        W95719  28.512  37.406  13.858
34299W        W95720  24.603  32.541   3.329
34300W        W95721  30.575  28.609   1.743
34301W        W95722   3.346  17.590   1.921
34302W        W95723  31.031  30.495   2.201
34303W        W95724  32.083  28.937   1.836
34304W        W95725  21.155  12.248   2.372
34305W        W95726   3.221  22.050   2.211
34306W        W95727   3.761   6.751   2.799
34307W        W95728   2.319   8.375  12.882
34308W        W95729  37.943  10.816  10.938
34309W        W95730  38.513   0.373  10.415
34310W        W95731   7.842  41.454  10.078
34311W        W95732  28.585  26.684   3.678
34312W        W95733  12.660  39.332  14.315
34313W        W95734  10.875  38.370   4.820
34314W        W95735   0.778  33.105  13.008
34315W        W95736  44.866  14.617   1.918
34316W        W95737  44.936  24.168  12.558
34317W        W95738   2.433  30.066  13.393
34318W        W95739   6.382  24.616  11.445
34319W        W95740  28.558   4.397  13.940
34320W        W95741  12.799  24.495   0.432
34321W        W95742   7.240  26.567   2.361
34322W        W95743  33.029  38.969   3.679
34323W        W95744  26.101  26.183  11.893
34324W        W95745  28.967  40.363   2.861
34325W        W95746  27.453  14.743   3.322
34326W        W95747  11.813  13.206   3.177
34327W        W95748   0.268  12.199   2.692
34328W        W95749  27.034  24.628   2.272
34329W        W95750   8.322  25.050  14.002
34330W        W95751   3.827  37.538   5.300
34331W        W95752  38.929  35.067   3.333
34332W        W95753  16.685  27.042   0.306
34333W        W95754  36.987  30.048  11.898
34334W        W95755  26.028   6.769  12.850
34335W        W95756  32.936  15.823  12.033
34336W        W95757  24.538  23.208   3.183
34337W        W95758  23.028  37.001   1.709
34338W        W95759   2.228  28.186   2.889
34339W        W95760   0.393  14.591   4.218
34340W        W95761  15.619  29.035   0.415
34341W        W95762  40.858  43.348   4.177
34342W        W95763   5.352   9.214   1.729
34343W        W95764  29.941  41.975   4.799
34344W        W95765  17.255   0.385  12.499
34345W        W95766  31.988   1.878  10.489
34346W        W95767   0.424   6.771   1.920
34347W        W95768  18.576  40.415   4.833
34348W        W95769  43.839  36.352   1.356
34349W        W95770  10.264  23.673  11.371
34350W        W95771  17.094  25.177  13.905
34351W        W95772  21.097   6.744  11.032
34352W        W95773  23.697  39.337  11.430
34353W        W95774   4.288  39.430   4.160
34354W        W95775  16.788   6.908  10.629
34355W        W95776  35.387   4.354   4.698
34356W        W95777   1.469  13.174  14.804
34357W        W95778  42.834  13.680  13.979
34358W        W95779   1.960  22.194  11.959
34359W        W95780  19.660  17.225  10.008
34360W        W95781  37.976  44.435  14.395
34361W        W95782  25.114  30.138  13.517
34362W        W95783  11.772   1.883  13.476
34363W        W95784  12.286  17.064  11.422
34364W        W95785  38.900  37.490   2.385
34365W        W95786  20.042   9.849   4.709
34366W        W95787  13.137  15.741   4.782
34367W        W95788  17.689  16.137   0.834
34368W        W95789  43.367  36.586   0.293
34369W        W95790  30.557   0.269   2.393
34370W        W95791  15.301   5.774  13.961
34371W        W95792  11.635  12.652  14.323
34372W        W95793  27.547   5.263  14.362
34373W        W95794  33.614  15.164  10.553
34374W        W95795  43.330  39.456  13.911
34375W        W95796  40.824  43.392  12.375
34376W        W95797  25.100  22.525   3.654
34377W        W95798  24.529   8.355  11.099
34378W        W95799  15.301   5.246  12.401
34379W        W95800  21.529   4.217   4.715
34380W        W95801   9.240   6.803   1.748
34381W        W95802  23.594  24.725  12.087
34382W        W95803  32.543  32.590   2.230
34383W        W95804   7.384  17.701  12.079
34384W        W95805  31.105  26.696   9.950
34385W        W95806  16.086  24.648   1.875
34386W        W95807   4.349  37.934  14.011
34387W        W95808  41.933  33.888  14.467
34388W        W95809  20.734   3.712   4.192
34389W        W95810  10.751   6.814  10.487
34390W        W95811  38.344  13.764  14.956
34391W        W95812   8.741  36.981  14.917
34392W        W95813  28.015  28.025  10.941
34393W        W95814  35.492  36.562  11.524
34394W        W95815  44.980  36.583   2.682
34395W        W95816  26.569  13.837   2.198
34396W        W95817  27.663  23.642   0.345
34397W        W95818  36.452  14.802  14.315
34398W        W95819  17.697  28.060  10.964
34399W        W95820  18.084  14.773   0.964
34400W        W95821  11.639  24.213   4.150
34401W        W95822  39.974  11.234   2.301
34402W        W95823  30.437  33.503  14.888
34403W        W95824   2.737   1.736  12.580
34404W        W95825  10.678   7.909  14.455
34405W        W95826  36.416  11.185  12.399
34406W        W95827   4.443  43.316   0.250
34407W        W95828  31.987  33.963   2.187
34408W        W95829  12.151  32.007   2.798
34409W        W95830   2.470  26.606  13.949
34410W        W95831  36.525  11.672   3.222
34411W        W95832  17.163   0.758  13.434
34412W        W95833   2.828   0.263  14.969
34413W        W95834   2.280  15.194   1.883
34414W        W95835  21.670  21.208  10.137
34415W        W95836  11.802   1.973   5.119
34416W        W95837   2.337  44.431   3.330
34417W        W95838  20.761   9.275   4.794
34418W        W95839  27.189  25.216  12.887
34419W        W95840  27.943  22.614   4.339
34420W        W95841  16.138  28.522  11.601
34421W        W95842  38.974  17.724   1.293
34422W        W95843  10.277  37.515  10.537
34423W        W95844  24.188  21.237  12.013
34424W        W95845  42.788   8.897   0.333
34425W        W95846  33.954  31.960  14.799
34426W        W95847  21.072   7.768  12.987
34427W        W95848   5.727  34.076  14.793
34428W        W95849  23.039  39.377  11.893
34429W        W95850  40.480  25.130  13.997
34430W        W95851   7.303  38.854   2.278
34431W        W95852  27.985  33.125   1.241
34432W        W95853   5.338  32.611  12.828
34433W        W95854  42.820  43.952  11.893
34434W        W95855  38.071  18.676  12.546
34435W        W95856  23.226  44.303   2.188
34436W        W95857  12.317   4.362  10.480
34437W        W95858   0.935  16.770   0.796
34438W        W95859  27.032  20.555  12.868
34439W        W95860  11.696  35.034  11.580
34440W        W95861   7.847   8.381  10.547
34441W        W95862  14.821  21.161   0.901
34442W        W95863  39.436   5.402   1.887
34443W        W95864   6.805  16.176   1.835
34444W        W95865  13.202   1.862   5.279
34445W        W95866   0.900  27.047   1.843
34446W        W95867  38.017  28.079   0.835
34447W        W95868  25.134  12.721   0.800
34448W        W95869  14.779  36.866   2.710
34449W        W95870   7.251  43.779  14.452
34450W        W95871   9.793   4.290   4.614
34451W        W95872  25.120  24.227  13.841
34452W        W95873  28.078  40.859  12.826
34453W        W95874   3.872  36.068   1.716
34454W        W95875   9.651  31.948  13.913
34455W        W95876   8.244  43.770  14.814
34456W        W95877   3.327  27.153  10.945
34457W        W95878  11.336  20.103   2.677
34458W        W95879  11.791   4.827   2.243
34459W        W95880  32.045   3.390  11.409
34460W        W95881  37.564  37.830   0.442
34461W        W95882  39.030  41.364  14.299
34462W        W95883  13.677  32.106  12.044
34463W        W95884  11.136  30.134  10.574
34464W        W95885  29.633   6.209   3.784
34465W        W95886  23.995  37.040  12.877
34466W        W95887  41.943  12.720   0.332
34467W        W95888  42.357  21.072   0.304
34468W        W95889  39.047   8.297  13.800
34469W        W95890  44.297  20.056   2.849
34470W        W95891   7.797  33.444   4.152
34471W        W95892  27.561  20.672  11.005
34472W        W95893  33.622   7.692  12.536
34473W        W95894  13.789  25.531   4.309
34474W        W95895  42.782  35.603  10.464
34475W        W95896  14.148  16.226   3.755
34476W        W95897  11.307  17.759  14.840
34477W        W95898  26.034  12.227  11.064
34478W        W95899  37.431  25.165   3.866
34479W        W95900  33.051  38.965   0.245
34480W        W95901  39.000  33.470  13.360
34481W        W95902  32.039  44.497   1.289
34482W        W95903  41.858  35.859  10.125
34483W        W95904  34.966   8.241   4.291
34484W        W95905  44.436  36.483  10.968
34485W        W95906  20.684  29.614   3.677
34486W        W95907   0.396  35.058   1.817
34487W        W95908  35.575   8.168  14.438
34488W        W95909   1.917  17.697   1.931
34489W        W95910  11.677  27.044   2.872
34490W        W95911  29.026  28.636  12.989
34491W        W95912  25.080  38.377  11.926
34492W        W95913   8.180   2.380   0.945
34493W        W95914   4.812   6.917  11.542
34494W        W95915  32.567  11.259   2.890
34495W        W95916  36.955  19.645   4.814
34496W        W95917  31.604   1.260  12.087
34497W        W95918  10.211  31.456   0.295
34498W        W95919  30.026  22.234  12.413
34499W        W95920   5.283  43.289  12.367
34500W        W95921  20.683  13.737   0.424
34501W        W95922   9.742  35.092  12.023
34502W        W95923  13.169  44.959  11.937
34503W        W95924   6.286  32.494   1.448
34504W        W95925  24.128  21.073  14.937
34505W        W95926  12.701  16.781  13.439
34506W        W95927  27.524  41.982  14.375
34507W        W95928  30.930   1.943  12.030
34508W        W95929  18.051  37.029  13.357
34509W        W95930  14.186  16.168  14.355
34510W        W95931   1.896  33.416  13.890
34511W        W95932  35.991  28.945  10.507
34512W        W95933   6.415  32.047   4.161
34513W        W95934  39.419  34.376   3.666
34514W        W95935  24.172  41.022   0.387
34515W        W95936  31.030  34.998  13.979
34516W        W95937  19.773  17.149   3.630
34517W        W95938  11.293  31.521   4.661
34518W        W95939  17.660  19.734  12.835
34519W        W95940  31.009   3.830   0.885
34520W        W95941  32.608   2.260  13.937
34521W        W95942   7.298   3.771  12.870
34522W        W95943  20.737   2.264   4.154
34523W        W95944  12.807  27.580  13.907
34524W        W95945   7.720  10.384  10.563
34525W        W95946  23.021  12.143  13.531
34526W        W95947  14.212  16.701   3.685
34527W        W95948  10.364   7.394  12.844
34528W        W95949  17.272  35.017   5.314
34529W        W95950  19.733   9.344   2.865
34530W        W95951  23.717   2.249  12.388
34531W        W95952  26.493  20.071   1.888
34532W        W95953   5.889  33.878   3.726
34533W        W95954  37.969  18.102  13.938
34534W        W95955   8.766   3.392   2.877
34535W        W95956  12.230  30.447   2.200
34536W        W95957  27.049  12.730   4.339
34537W        W95958  19.535  11.264   4.786
34538W        W95959  18.627  12.198   2.827
34539W        W95960  39.330  22.209  13.441
34540W        W95961  34.520  15.733   0.771
34541W        W95962  20.534   9.869  12.002
34542W        W95963  28.122  23.541   1.777
34543W        W95964  35.420  12.732  11.880
34544W        W95965  12.672   4.358  11.946
34545W        W95966  21.569  12.706   9.999
34546W        W95967  42.447  40.482   1.299
34547W        W95968   3.350  19.748   3.632
34548W        W95969   4.748  11.800   0.290
34549W        W95970   9.373  13.190   0.324
34550W        W95971  18.789   5.838   0.912
34551W        W95972   8.666  42.386  13.915
34552W        W95973   8.899   5.230  11.383
34553W        W95974  38.043  13.193  11.487
34554W        W95975  38.474  38.984  13.494
34555W        W95976  11.808  11.270  14.885
34556W        W95977  29.669   7.760   2.713
34557W        W95978   3.384  12.786   9.981
34558W        W95979   0.815  11.694  11.438
34559W        W95980  41.512  31.496   1.849
34560W        W95981   2.240  37.410   1.319
34561W        W95982  14.198  10.344   1.222
34562W        W95983  17.187  42.517  12.488
34563W        W95984  22.016  34.532  12.868
34564W        W95985   9.291   8.345  10.473
34565W        W95986  24.679  29.153  14.403
34566W        W95987   8.274   9.848  11.517
34567W        W95988  12.356   3.226   4.347
34568W        W95989  41.466  19.729   4.331
34569W        W95990  23.506  36.026  11.463
34570W        W95991  31.628  17.134   0.368
34571W        W95992  19.557   8.385   4.649
34572W        W95993  28.615  27.024   4.266
34573W        W95994   5.904  30.993  12.991
34574W        W95995  43.923  39.406   1.803
34575W        W95996  16.798  10.865   2.308
34576W        W95997  10.753   9.790  10.606
34577W        W95998   2.764  16.699  11.105
34578W        W95999  39.545  41.845   1.881
34579W        W96000   2.895  42.017   2.794
34580W        W96001   3.381  10.806  12.918
34581W        W96002  26.506  31.646  14.360
34582W        W96003  41.870  24.669  12.471
34583W        W96004  43.797  44.389   2.782
34584W        W96005   6.190  18.726   0.482
34585W        W96006  20.597   0.970  11.101
34586W        W96007  21.602  22.087  14.470
34587W        W96008  34.969  35.057   3.817
34588W        W96009   5.330  11.235   3.222
34589W        W96010   0.781  40.346  12.851
34590W        W96011  20.650  10.227  12.351
34591W        W96012  29.982  43.983   3.196
34592W        W96013  22.727   3.375  12.941
34593W        W96014  37.041  23.225  12.483
34594W        W96015  22.152  26.124   4.197
34595W        W96016   8.833  13.641  10.965
34596W        W96017  11.784  12.171  12.463
34597W        W96018  21.665  23.058   1.727
34598W        W96019  16.212  35.377  14.500
34599W        W96020  35.588  35.589  13.979
34600W        W96021  12.810  14.761   1.361
34601W        W96022  23.002  33.012   3.361
34602W        W96023   9.709  37.858   1.847
34603W        W96024   3.875  44.902   1.804
34604W        W96025  16.272  18.261   1.233
34605W        W96026  38.902  30.929   3.295
34606W        W96027  36.984  36.038  13.902
34607W        W96028   4.901  18.717   3.266
34608W        W96029  27.985  30.141   2.746
34609W        W96030  16.585  15.258  11.084
34610W        W96031  39.020  27.161  12.046
34611W        W96032  44.781   9.333   2.897
34612W        W96033  44.975  22.162   3.768
34613W        W96034  15.580  15.775   0.871
34614W        W96035  28.499   5.711   1.894
34615W        W96036  29.665  14.220   4.353
34616W        W96037  32.998  29.494  11.929
34617W        W96038  36.859   7.808   0.781
34618W        W96039  41.840   5.788  14.941
34619W        W96040   5.849  35.561  11.022
34620W        W96041   6.208  10.688  13.933
34621W        W96042  22.714   5.824  12.354
34622W        W96043  43.312  21.591   4.290
34623W        W96044  35.952  26.032  11.601
34624W        W96045  43.508  13.215   2.715
34625W        W96046  16.644  39.547   0.888
34626W        W96047  21.110  28.035  13.535
34627W        W96048  14.647  32.960   3.775
34628W        W96049  40.054  19.556   3.384
34629W        W96050   6.735  16.697   3.314
34630W        W96051  43.980  36.500  11.081
34631W        W96052   5.215  30.973  12.076
34632W        W96053  28.083   9.264   1.795
34633W        W96054   4.395   4.408   2.727
34634W        W96055   8.305  39.953   2.752
34635W        W96056  27.614   7.802  10.424
34636W        W96057  22.145  29.664  13.400
34637W        W96058  35.442  19.046  10.554
34638W        W96059  30.562  16.159   1.788
34639W        W96060  28.154  31.095   2.765
34640W        W96061  18.087  21.669   1.842
34641W        W96062  17.627  10.193  13.348
34642W        W96063  31.027  21.206   4.668
34643W        W96064  34.056   5.924   3.713
34644W        W96065  38.339  22.588   2.218
34645W        W96066   1.393  16.072  14.442
34646W        W96067   7.680  31.086   4.719
34647W        W96068  14.132  26.538   0.798
34648W        W96069   9.276  23.992  10.630
34649W        W96070  35.006   6.782   2.870
34650W        W96071  23.647   8.243  13.384
34651W        W96072   3.748  38.522  10.528
34652W        W96073  25.655   4.317   1.279
34653W        W96074  36.024  39.455   0.869
34654W        W96075  31.543  11.268  14.837
34655W        W96076   4.270   1.367  13.834
34656W        W96077  44.366  12.798   2.839
34657W        W96078  10.162  35.496  11.569
34658W        W96079  10.772   8.724  10.955
34659W        W96080  33.470  44.968   3.214
34660W        W96081   6.862  34.404   2.216
34661W        W96082  25.705  16.777  13.889
34662W        W96083  34.955  19.654  13.482
34663W        W96084  11.316  27.191  12.056
34664W        W96085  22.077  31.623   3.636
34665W        W96086   0.743  29.075  12.875
34666W        W96087  32.133  39.361   2.380
34667W        W96088  42.383  24.481   0.260
34668W        W96089   4.723  34.061   2.336
34669W        W96090  40.515   0.340   3.306
34670W        W96091  44.820   3.814   4.816
34671W        W96092  33.125   0.873  14.837
34672W        W96093   8.680  33.878  14.503
34673W        W96094  38.878  15.134  14.770
34674W        W96095  15.818  40.335   0.782
34675W        W96096  42.958  41.892  13.361
34676W        W96097  17.124  36.570  14.408
34677W        W96098  32.927  43.362  11.455
34678W        W96099  33.876  16.175  12.393
34679W        W96100  29.670  42.414  11.097
34680W        W96101   0.858  41.470   3.330
34681W        W96102  29.137   2.297   1.871
34682W        W96103   9.227  20.153   3.221
34683W        W96104  24.067   0.789   5.221
34684W        W96105  22.197  34.067   1.727
34685W        W96106  33.492  40.395   2.698
34686W        W96107   3.758  42.825  12.085
34687W        W96108  26.681  19.544   1.731
34688W        W96109  19.604  42.449   1.696
34689W        W96110  25.544  11.227  12.951
34690W        W96111  25.690  43.484   0.862
34691W        W96112  44.831   5.872   1.246
34692W        W96113  15.110   1.749   0.252
34693W        W96114   8.400   3.366   1.280
34694W        W96115  20.251  44.360   1.719
34695W        W96116  33.972   0.461   4.167
34696W        W96117   3.373   6.270  12.066
34697W        W96118  25.064  43.329   1.798
34698W        W96119  32.932  41.799  10.511
34699W        W96120  26.700   1.856   1.322
34700W        W96121  22.132  12.163  10.426
34701W        W96122   0.344  27.642   4.255
34702W        W96123   3.828   9.742  13.013
34703W        W96124  34.383  17.145   1.396
34704W        W96125  11.840   1.445   1.731
34705W        W96126  26.029  13.600   2.346
34706W        W96127   4.317   5.702   3.768
34707W        W96128  26.539   0.833  12.868
34708W        W96129  25.006  26.567   0.352
34709W        W96130  33.566  29.123   1.363
34710W        W96131   9.876  19.139  14.836
34711W        W96132  16.185  37.025   1.917
34712W        W96133  11.809  14.178  12.972
34713W        W96134  38.030  19.628  14.984
34714W        W96135  19.145  15.152   3.299
34715W        W96136  10.818   6.394  14.881
34716W        W96137  24.668   6.228   3.358
34717W        W96138  11.687  21.634  11.395
34718W        W96139  33.445   0.827   1.286
34719W        W96140  25.624  20.738   1.859
34720W        W96141  24.029  26.463  11.060
34721W        W96142  28.110  28.646  11.948
34722W        W96143  14.185  30.945   2.710
34723W        W96144  16.091  25.198  13.426
34724W        W96145  17.279  12.767   0.373
34725W        W96146  42.356  17.616  11.066
34726W        W96147   2.762  19.226   0.902
34727W        W96148  23.491  13.717  14.878
34728W        W96149  15.807  37.402  12.983
34729W        W96150  44.473  25.156   4.139
34730W        W96151  19.239   2.773   2.236
34731W        W96152  24.000  38.876   4.240
34732W        W96153  12.188  34.041  13.506
34733W        W96154   0.424  19.622   2.816
34734W        W96155   8.258  29.950  11.377
34735W        W96156  21.036  23.070  12.443
34736W        W96157  10.372  29.071  13.535
34737W        W96158  23.157   9.764  13.499
34738W        W96159   9.372  16.642   4.226
34739W        W96160  14.249  38.471  12.887
34740W        W96161  36.014  21.704  14.968
34741W        W96162  33.061  15.720   2.668
34742W        W96163  24.149  15.293   1.795
34743W        W96164  42.838  42.512  14.322
34744W        W96165  43.005  34.098  13.418
34745W        W96166  35.442  11.845   3.763
34746W        W96167  44.291   2.283  13.531
34747W        W96168  26.045  12.788  13.040
34748W        W96169  29.929  29.476  14.448
34749W        W96170  16.718  23.709  14.429
34750W        W96171   2.766  40.376   4.272
34751W        W96172  36.030  35.580  13.405
34752W        W96173  11.747  35.477   4.694
34753W        W96174  24.696  38.903  13.831
34754W        W96175   7.290   6.910  12.482
34755W        W96176  39.054  16.793  13.399
34756W        W96177  43.970  12.254  13.376
34757W        W96178   5.314   2.273  14.865
34758W        W96179  31.618  16.245   1.711
34759W        W96180  21.696  21.209  13.499
34760W        W96181   1.351  23.188   3.728
34761W        W96182   3.783  20.233   3.222
34762W        W96183  11.787  16.612   1.359
34763W        W96184  16.214  26.499   1.931
34764W        W96185   0.979   4.721  13.831
34765W        W96186  13.164  34.035  14.343
34766W        W96187  20.625  17.766   1.820
34767W        W96188  11.738   5.839   2.823
34768W        W96189   1.417   5.375   1.350
34769W        W96190  29.478  11.806   5.167
34770W        W96191   5.239  42.475   0.334
34771W        W96192  27.101   8.186   3.824
34772W        W96193  29.099   2.383  11.028
34773W        W96194   5.364  28.994  13.395
34774W        W96195  28.048  32.439   0.791
34775W        W96196  16.296  10.702   4.193
34776W        W96197  44.407   3.447  10.043
34777W        W96198   4.699  11.136   3.367
34778W        W96199  25.567   8.279   4.172
34779W        W96200  13.226  36.523   2.259
34780W        W96201  16.294  24.153   2.277
34781W        W96202  19.115   3.921   1.269
34782W        W96203  28.097   9.247   4.165
34783W        W96204   9.874   7.312   1.759
34784W        W96205  20.609  10.140   1.878
34785W        W96206  39.918  43.916   3.250
34786W        W96207  12.657  41.534  10.608
34787W        W96208   5.756   6.676  10.975
34788W        W96209   7.273  41.312   0.247
34789W        W96210  10.799  22.610  12.441
34790W        W96211   3.344   7.277   3.156
34791W        W96212  29.032  14.294  11.606
34792W        W96213  41.885   2.273   2.377
34793W        W96214   7.314  30.922   3.734
34794W        W96215  28.065  12.164   2.789
34795W        W96216   1.328  40.541  13.385
34796W        W96217   9.829  33.387   0.377
34797W        W96218  20.622  12.761   1.329
34798W        W96219   3.217   3.783   4.321
34799W        W96220  37.458  44.500   2.857
34800W        W96221  22.688  28.499   2.681
34801W        W96222  22.643  14.141  10.486
34802W        W96223  18.249  35.558   3.861
34803W        W96224   5.390  11.748   2.346
34804W        W96225  23.059  11.806   2.841
34805W        W96226   4.240  16.662   3.653
34806W        W96227  30.925  11.678   5.202
34807W        W96228  31.960  29.120  11.605
34808W        W96229  16.633   0.782  10.511
34809W        W96230  17.564  40.951   2.232
34810W        W96231  23.653  37.904  12.574
34811W        W96232  33.958  39.981   4.210
34812W        W96233  28.068  42.973  12.050
34813W        W96234   6.351  32.940   1.880
34814W        W96235  17.567  40.547  10.435
34815W        W96236   1.768   8.162  11.890
34816W        W96237  41.502  33.001   3.634
34817W        W96238  40.393   6.916  13.324
34818W        W96239  43.321  21.612  11.492
34819W        W96240  11.805  15.275   4.314
34820W        W96241  24.228  29.490  14.361
34821W        W96242  36.061   4.363  10.509
34822W        W96243   7.266   0.490   2.713
34823W        W96244  41.807  13.154   1.844
34824W        W96245  17.579  40.907   4.281
34825W        W96246  10.196  20.155  13.491
34826W        W96247  11.250  17.128   1.795
34827W        W96248  29.641  20.225  14.861
34828W        W96249  38.924  14.739   0.792
34829W        W96250  12.117  19.674  14.862
34830W        W96251   5.823   0.319   2.287
34831W        W96252  28.052  19.204   2.309
34832W        W96253   5.772  29.532   0.283
34833W        W96254  20.693  29.512  14.867
34834W        W96255  10.836  32.436   2.239
34835W        W96256  40.894  42.876  10.923
34836W        W96257  15.169  40.319   3.316
34837W        W96258  11.199  43.775   4.334
34838W        W96259  30.976  31.481   2.224
34839W        W96260   4.380   2.820   0.762
34840W        W96261   6.350  38.020  12.998
34841W        W96262  30.089   5.416   0.351
34842W        W96263  32.939  25.118  11.427
34843W        W96264  17.599  37.984  12.955
34844W        W96265  20.641  19.734   0.451
34845W        W96266  22.078   9.745   2.714
34846W        W96267  17.640  14.236  13.513
34847W        W96268  33.550  17.676  13.874
34848W        W96269   2.834  35.962   4.721
34849W        W96270  35.555  40.986   3.766
34850W        W96271  36.388  31.940  12.055
34851W        W96272  15.282   0.976  12.838
34852W        W96273  14.202  20.681   2.406
34853W        W96274  12.676  40.537   4.228
34854W        W96275   5.887  34.429  12.073
34855W        W96276  31.567  24.143   4.235
34856W        W96277  36.002  33.435  12.082
34857W        W96278  32.978  10.326  12.379
34858W        W96279  25.210  21.077   5.205
34859W        W96280  11.647  20.262   1.366
34860W        W96281  37.984  24.175   3.292
34861W        W96282  22.056  22.639   3.178
34862W        W96283  10.379  44.817   4.150
34863W        W96284  12.224  31.624  10.996
34864W        W96285  21.079  23.657  11.406
34865W        W96286   2.400   9.390   3.249
34866W        W96287  42.806  36.472  12.401
34867W        W96288  35.470  17.076   0.759
34868W        W96289  32.968  21.058  11.402
34869W        W96290  14.157  20.614  12.374
34870W        W96291  42.003  33.565  12.029
34871W        W96292  39.889   3.366  13.449
34872W        W96293  43.888   9.693  14.800
34873W        W96294  30.628  25.180  13.922
34874W        W96295  31.968  16.090   0.283
34875W        W96296  33.429   6.817  14.911
34876W        W96297   1.747  11.705   1.354
34877W        W96298  38.011  42.505  10.993
34878W        W96299  20.066  27.628  12.029
34879W        W96300  39.538  21.556  11.409
34880W        W96301  13.770  34.040  13.982
34881W        W96302   6.210  22.099   2.380
34882W        W96303   2.395  34.912  13.847
34883W        W96304   8.267  16.568   1.368
34884W        W96305  22.011  21.192   1.443
34885W        W96306  36.422  38.333  12.882
34886W        W96307  38.550  26.650   1.302
34887W        W96308  14.679  33.029   4.623
34888W        W96309  10.848   3.394  13.957
34889W        W96310  22.737  39.878   2.884
34890W        W96311   9.808  14.239   4.636
34891W        W96312   0.818   9.881   3.640
34892W        W96313  34.898  41.487  13.965
34893W        W96314  36.988  24.011   3.169
34894W        W96315  44.794  11.775   2.225
34895W        W96316  37.952  17.280   4.309
34896W        W96317  33.926  13.793   2.222
34897W        W96318  30.112  23.105   3.245
34898W        W96319  29.014  18.168   2.266
34899W        W96320  41.303  37.063   4.719
34900W        W96321  25.184  40.512   0.395
34901W        W96322  26.081  44.352  14.371
34902W        W96323   0.881  24.025  13.873
34903W        W96324   0.441  26.701  11.518
34904W        W96325  25.062  27.489   0.471
34905W        W96326  13.248   1.305   3.326
34906W        W96327  28.991   9.861   4.240
34907W        W96328  15.752  11.734  12.874
34908W        W96329  12.354   3.710   2.269
34909W        W96330  25.531   5.403   0.333
34910W        W96331  11.759  15.714  13.342
34911W        W96332  15.793  31.129   0.444
34912W        W96333  38.471  11.303  11.933
34913W        W96334   3.840   6.304  12.375
34914W        W96335  35.367  13.181   2.296
34915W        W96336  33.450  33.948  12.025
34916W        W96337   5.727  11.825  12.049
34917W        W96338  14.815   9.826   3.174
34918W        W96339  38.512  10.737   3.777
34919W        W96340  16.176  12.307   4.778
34920W        W96341  36.016   3.414   0.754
34921W        W96342  19.698  42.983   1.800
34922W        W96343  17.125  23.607  12.947
34923W        W96344  19.691  23.682   3.822
34924W        W96345  36.593  23.092  14.777
34925W        W96346  39.524  10.288  12.559
34926W        W96347   1.328  30.455   5.631
34927W        W96348  42.418   7.820   0.288
34928W        W96349  17.708  11.787  12.081
34929W        W96350   7.361  20.708   0.936
34930W        W96351  12.777  42.484   2.735
34931W        W96352   9.863   7.681  14.929
34932W        W96353   7.266  33.451  14.775
34933W        W96354  23.624  28.031  13.799
34934W        W96355   8.245   0.318   0.924
34935W        W96356   1.263  11.744   1.302
34936W        W96357   7.722  29.618   3.270
34937W        W96358  24.136  38.437  12.368
34938W        W96359   3.418  44.006  13.483
34939W        W96360  10.794  42.362  10.512
34940W        W96361  21.735  25.544   4.700
34941W        W96362  13.821  40.014   1.840
34942W        W96363  18.587   8.779  12.522
34943W        W96364  11.833  38.839   4.323
34944W        W96365  32.517  11.796  13.798
34945W        W96366  31.598  13.843   3.325
34946W        W96367  29.940  21.142   4.281
34947W        W96368  16.148  15.160   0.958
34948W        W96369   5.794  14.190   0.435
34949W        W96370  22.536   0.882  11.475
34950W        W96371  14.221  42.808   3.766
34951W        W96372  18.117  20.122  14.865
34952W        W96373  20.641  16.568   3.176
34953W        W96374  29.566  33.486   3.156
34954W        W96375  29.039  28.177   3.816
34955W        W96376  14.138  38.511   3.842
34956W        W96377  23.046  12.674  11.000
34957W        W96378  21.702  27.103   4.306
34958W        W96379  33.119  18.106  12.825
34959W        W96380  31.138  21.733  13.873
34960W        W96381  36.480  25.581  12.002
34961W        W96382   9.277  30.984  12.971
34962W        W96383   4.791  21.734   0.727
34963W        W96384  38.883  16.761   3.853
34964W        W96385  26.537  24.721   3.280
34965W        W96386  27.639  30.965   0.824
34966W        W96387   7.909   1.479   3.847
34967W        W96388  15.657  38.995   3.678
34968W        W96389  34.943  34.538   0.418
34969W        W96390  17.647  23.718   0.765
34970W        W96391  25.103  20.044   1.702
34971W        W96392   4.815  25.499   1.320
34972W        W96393   3.435  35.594  10.909
34973W        W96394  32.622  35.578  10.466
34974W        W96395  43.427   0.852   1.316
34975W        W96396  12.308  43.395  14.809
34976W        W96397  33.063  26.095  14.432
34977W        W96398  24.699  38.414  13.057
34978W        W96399  10.331  14.318   3.208
34979W        W96400  37.966  43.825   2.277
34980W        W96401  17.694  10.203  11.908
34981W        W96402  37.488  14.675  12.073
34982W        W96403   8.259  19.660   3.638
34983W        W96404  37.423  15.215  12.553
34984W        W96405  34.060  22.102   2.271
34985W        W96406  34.925   7.854   5.146
34986W        W96407  34.940  18.726  14.958
34987W        W96408  30.578  12.244   3.858
34988W        W96409  20.588   4.931  12.424
34989W        W96410  24.124  44.354  13.992
34990W        W96411   2.233  23.635   2.764
34991W        W96412  22.051  33.963  10.927
34992W        W96413  40.424   7.862  14.368
34993W        W96414  24.986  27.041  11.964
34994W        W96415  22.605  37.356   5.234
34995W        W96416  24.664   7.288   1.397
34996W        W96417  22.505   2.938   4.245
34997W        W96418  31.444   3.287   2.682
34998W        W96419  41.434  10.859  11.111
34999W        W96420  22.606  13.699  14.285
35000W        W96421   4.381  34.887  10.932
35001W        W96422  34.873  20.096   3.315
35002W        W96423  13.151  40.900  13.482
35003W        W96424  22.674   2.344   3.748
35004W        W96425   3.224  37.830  11.074
35005W        W96426  14.701  32.565   0.819
35006W        W96427  27.020  35.388   2.860
35007W        W96428  27.957   6.859   2.179
35008W        W96429   3.324   7.296  14.999
35009W        W96430   8.210  31.061  11.002
35010W        W96431  33.472  39.940   4.264
35011W        W96432  38.456  41.330  13.349
35012W        W96433  10.804   4.838  12.910
35013W        W96434  31.134  30.951   4.269
35014W        W96435  30.982  37.895  14.373
35015W        W96436   9.682  31.062   2.295
35016W        W96437  20.566  15.708   3.215
35017W        W96438  33.597  41.361   0.739
35018W        W96439   3.298   4.439  10.899
35019W        W96440  38.469   3.869   1.814
35020W        W96441  25.166  43.476  10.891
35021W        W96442  40.820  36.414  10.409
35022W        W96443  27.454  33.543  10.937
35023W        W96444  27.678  39.465  13.430
35024W        W96445  39.337  32.040  14.890
35025W        W96446   5.328  27.505  10.918
35026W        W96447  13.734  10.286  14.371
35027W        W96448  35.583   9.880   0.748
35028W        W96449  29.495   0.459  10.466
35029W        W96450   5.207  30.603   3.712
35030W        W96451  32.118   5.271  13.466
35031W        W96452  36.994   7.743   4.801
35032W        W96453  18.623  13.275   3.341
35033W        W96454  41.915   3.852   0.863
35034W        W96455  39.889  37.019   3.737
35035W        W96456  17.109  33.616  12.376
35036W        W96457  30.508  28.603  14.842
35037W        W96458  17.591  10.740  11.563
35038W        W96459  14.816  22.745  13.530
35039W        W96460  11.200  31.083   3.702
35040W        W96461  35.503  18.080   2.781
35041W        W96462   8.173  40.368  14.491
35042W        W96463  13.750  42.012  13.505
35043W        W96464  33.487  36.857  10.519
35044W        W96465  31.553  17.730   1.878
35045W        W96466  24.550  20.649  11.862
35046W        W96467  34.048  13.626   0.902
35047W        W96468  13.236   4.700   2.663
35048W        W96469  32.925  36.892   4.146
35049W        W96470  21.087  26.170  12.991
35050W        W96471  13.150  13.842   4.319
35051W        W96472  20.754   7.723  10.524
35052W        W96473  20.647  26.963   0.288
35053W        W96474  18.648  15.664   3.329
35054W        W96475  25.061  32.475   3.809
35055W        W96476  23.048  36.958   0.911
35056W        W96477  34.495  21.614  14.450
35057W        W96478  42.438  30.975   2.901
35058W        W96479  14.220  38.385  11.094
35059W        W96480  16.268  36.852  12.049
35060W        W96481  26.524  36.570  11.098
35061W        W96482  17.565  18.582  10.424
35062W        W96483  42.452  27.059  11.055
35063W        W96484  32.524  27.516  11.537
35064W        W96485  27.070  40.978  10.610
35065W        W96486   2.424  42.860   2.366
35066W        W96487  23.087   0.278   4.694
35067W        W96488  18.571  44.385   3.803
35068W        W96489   0.461   1.795   3.667
35069W        W96490  42.450   2.399  13.508
35070W        W96491   5.875  20.720  11.931
35071W        W96492  17.674  37.934  11.048
35072W        W96493  33.945  35.436   1.926
35073W        W96494  22.515  42.789   4.686
35074W        W96495  27.145   5.748  11.079
35075W        W96496  18.639  19.205  12.511
35076W        W96497  38.987   0.773  12.566
35077W        W96498  31.114  11.246  11.017
35078W        W96499  30.456  30.576  12.433
35079W        W96500   3.363  39.516  11.916
35080W        W96501  43.770   1.247   4.125
35081W        W96502  40.395  44.858  10.536
35082W        W96503   0.791  42.523   1.781
35083W        W96504  19.197  38.985  11.974
35084W        W96505   7.392  23.588   4.143
35085W        W96506  41.920   2.824   2.880
35086W        W96507   1.782  37.925  11.977
35087W        W96508  29.006  11.218   0.439
35088W        W96509  28.672   7.260  13.482
35089W        W96510   5.237  22.150  10.517
35090W        W96511   0.870  10.338   3.798
35091W        W96512   6.337   5.309   4.691
35092W        W96513  26.681  23.591   0.451
35093W        W96514  30.502  14.309  11.455
35094W        W96515   0.399  41.829   4.625
35095W        W96516  44.437  30.538   4.137
35096W        W96517  42.807  10.254   5.182
35097W        W96518   1.901  31.136   4.701
35098W        W96519  38.475  41.452   4.679
35099W        W96520  28.173  10.705  14.512
35100W        W96521  21.596  39.961   4.729
35101W        W96522  15.660  38.820  11.585
35102W        W96523  40.391   7.826   2.241
35103W        W96524   1.811  39.907   4.736
35104W        W96525  32.537   3.273  13.543
35105W        W96526  20.739  13.679  10.040
35106W        W96527  35.422  44.278   1.324
35107W        W96528  19.774   2.800  12.911
35108W        W96529  16.567  18.178   0.274
35109W        W96530  17.156  24.137   1.853
35110W        W96531  18.275   3.246  12.942
35111W        W96532  34.066  23.530  14.420
35112W        W96533   4.354  36.094  10.946
35113W        W96534  19.096   2.834  14.506
35114W        W96535   3.916  24.986  13.521
35115W        W96536  36.026  42.933   3.310
35116W        W96537  37.083  44.462   3.308
35117W        W96538   3.954   0.950   4.148
35118W        W96539  25.987  14.619   3.330
35119W        W96540  22.028  24.158   1.757
35120W        W96541  22.501  29.962   3.190
35121W        W96542   2.406  23.147   2.665
35122W        W96543  13.316  13.789   2.263
35123W        W96544  10.251   8.742   2.684
35124W        W96545  14.268  22.052  13.796
35125W        W96546   0.337  19.195  10.528
35126W        W96547  38.053  20.242   4.837
35127W        W96548  10.733  37.979   3.183
35128W        W96549  17.093  22.206   4.648
35129W        W96550   5.256  44.461  10.009
35130W        W96551  28.531  37.408  13.368
35131W        W96552   5.432  24.165  13.933
35132W        W96553  15.282   2.743   2.206
35133W        W96554  37.898  17.602   3.263
35134W        W96555  25.141  26.641  12.422
35135W        W96556  19.568  10.823  14.023
35136W        W96557  40.389  24.226  14.773
35137W        W96558  32.407  31.511   4.601
35138W        W96559  34.560  32.618  11.453
35139W        W96560  25.583  38.967   1.363
35140W        W96561  23.000   3.846   5.642
35141W        W96562   2.242   3.384   5.082
35142W        W96563   3.747  27.196   2.797
35143W        W96564  31.141  22.230   2.856
35144W        W96565  30.143  41.427   0.259
35145W        W96566   3.743  33.463  14.765
35146W        W96567  21.516  20.219  11.094
35147W        W96568  28.530  33.621   0.453
35148W        W96569  38.888   4.795  10.505
35149W        W96570   0.907  26.064  14.426
35150W        W96571  40.460  30.586  14.309
35151W        W96572  29.641  44.394   5.089
35152W        W96573  32.030  24.054   4.168
35153W        W96574  35.076  12.812   0.322
35154W        W96575  43.875  37.339   2.868
35155W        W96576  25.493  39.847  10.894
35156W        W96577  31.459  18.160  14.770
35157W        W96578  16.568  43.963  14.823
35158W        W96579  15.089  13.332  14.281
35159W        W96580  38.337  29.494   3.718
35160W        W96581   2.296   9.163   2.363
35161W        W96582  28.651  17.096   0.466
35162W        W96583   1.475   6.213  12.491
35163W        W96584  10.213  16.635   3.333
35164W        W96585  32.982  36.943   2.288
35165W        W96586   2.930   6.319  13.364
35166W        W96587  43.927  28.181   0.820
35167W        W96588   4.741   7.827  13.902
35168W        W96589   0.331  41.885  14.032
35169W        W96590  25.467  20.539   0.842
35170W        W96591  33.508  22.534   2.310
35171W        W96592  28.642  41.299  13.028
35172W        W96593   8.878  10.800  12.569
35173W        W96594  22.050  19.197   3.304
35174W        W96595  44.979  38.351  12.492
35175W        W96596  40.511  32.887   0.324
35176W        W96597  19.210  12.707  14.946
35177W        W96598  41.843   5.210  14.392
35178W        W96599  37.533  30.111  11.422
35179W        W96600  12.332  20.156   4.132
35180W        W96601  37.937  30.060   1.873
35181W        W96602   3.258   1.743  12.003
35182W        W96603  23.026  19.626  11.564
35183W        W96604  37.958  28.094   4.182
35184W        W96605   6.341  29.994   2.738
35185W        W96606  43.427  17.156  14.433
35186W        W96607  43.505   7.393   2.222
35187W        W96608  20.743  36.863   1.706
35188W        W96609  32.049  41.335   4.754
35189W        W96610  28.671  44.481   0.311
35190W        W96611  40.498   9.766  14.834
35191W        W96612  21.088  29.623  13.797
35192W        W96613  19.754  13.230  12.005
35193W        W96614  32.947  33.471   9.987
35194W        W96615  23.587   4.347  12.483
35195W        W96616  15.663  42.027   0.410
35196W        W96617   2.781   2.267  13.927
35197W        W96618  26.188   5.911   0.360
35198W        W96619  30.601  23.609   2.839
35199W        W96620  29.668  16.075  13.882
35200W        W96621  41.837   0.934  13.010
35201W        W96622  43.494  21.218  11.094
35202W        W96623   1.264  27.102   0.751
35203W        W96624   1.305  17.300  12.089
35204W        W96625  36.484  40.453   3.258
35205W        W96626  12.265  13.199  11.973
35206W        W96627   3.837   8.805   4.159
35207W        W96628   6.848   5.909  11.908
35208W        W96629  19.049  36.547  12.899
35209W        W96630  23.556  34.605  13.937
35210W        W96631  22.015  36.522  10.539
35211W        W96632  20.523   7.751  11.488
35212W        W96633  14.252  30.919   1.851
35213W        W96634  25.167  44.967  10.476
35214W        W96635  19.608   7.364   2.754
35215W        W96636  38.342  14.597  14.804
35216W        W96637  21.167  43.337  12.432
35217W        W96638  12.816  25.202   1.369
35218W        W96639  20.747  22.552   3.352
35219W        W96640  35.420  17.084  11.862
35220W        W96641  28.610  15.709  12.878
35221W        W96642   8.344  25.185  12.463
35222W        W96643   3.935  12.159  13.056
35223W        W96644  27.149  26.186  14.778
35224W        W96645  24.161  38.495   4.649
35225W        W96646   3.856  18.296  12.499
35226W        W96647  41.353  38.899  13.417
35227W        W96648  25.521  37.897   0.946
35228W        W96649  33.904  19.633  13.921
35229W        W96650   4.729  11.202   0.951
35230W        W96651  21.111   9.244   1.722
35231W        W96652  24.025  24.660   0.768
35232W        W96653  10.142  14.144   3.769
35233W        W96654  28.595   8.357  14.960
35234W        W96655  20.709  40.975   0.426
35235W        W96656  44.465   0.386   1.792
35236W        W96657  41.502   0.264  14.472
35237W        W96658   9.868   0.329   3.277
35238W        W96659  20.194  14.218  12.908
35239W        W96660   6.307  31.090  13.419
35240W        W96661  43.377  31.417  13.418
35241W        W96662  18.282  43.843  14.292
35242W        W96663  43.975   4.699  13.904
35243W        W96664  21.638  23.042   0.756
35244W        W96665  43.802  27.048  13.460
35245W        W96666  42.487  30.934  12.356
35246W        W96667   5.904  38.351  10.941
35247W        W96668  25.981   3.805  11.456
35248W        W96669  14.300   0.335  14.852
35249W        W96670  23.616  35.462  12.063
35250W        W96671  10.167   4.831  11.874
35251W        W96672  20.214   0.494   2.730
35252W        W96673  15.306  36.590   4.203
35253W        W96674  41.406   9.706  11.412
35254W        W96675   6.323  32.412  11.414
35255W        W96676  36.850   9.177  13.499
35256W        W96677  23.057  11.277   2.838
35257W        W96678   1.885  24.563  12.975
35258W        W96679  33.469  19.209   0.387
35259W        W96680  41.911  31.516   3.209
35260W        W96681   9.829  38.325   1.436
35261W        W96682  32.544   4.413   2.865
35262W        W96683  43.865  27.149  13.981
35263W        W96684  12.690  44.398   3.145
35264W        W96685   9.266  25.565  12.849
35265W        W96686  33.054  22.637   4.208
35266W        W96687  28.556  33.608   2.221
35267W        W96688  34.054  26.666  11.040
35268W        W96689  30.432   0.420   3.261
35269W        W96690  19.657  23.718   4.317
35270W        W96691  37.530   9.696   3.147
35271W        W96692  23.521  13.109  11.534
35272W        W96693  31.966  31.526   3.235
35273W        W96694  25.661   9.251   1.301
35274W        W96695  11.206   5.932  14.454
35275W        W96696  10.753  18.690  12.912
35276W        W96697  34.614  26.464   0.795
35277W        W96698  15.787   3.340   2.681
35278W        W96699  38.345  17.101  11.562
35279W        W96700  32.050  36.020  14.931
35280W        W96701  25.625   6.848   0.432
35281W        W96702  38.894  32.098   2.897
35282W        W96703  33.048  16.250   4.631
35283W        W96704  33.078  33.079   1.805
35284W        W96705  31.544  26.066   2.857
35285W        W96706  11.773  30.639  11.602
35286W        W96707  32.428  33.436  10.538
35287W        W96708  22.230  12.277  13.458
35288W        W96709  27.185  13.200  13.901
35289W        W96710   5.294  35.100  13.929
35290W        W96711  24.974  19.699   1.449
35291W        W96712   8.402   8.766   1.379
35292W        W96713  23.203  42.446  14.438
35293W        W96714  23.996   9.847   4.202
35294W        W96715  19.624  27.947  11.542
35295W        W96716  42.443  11.174   3.337
35296W        W96717  31.451  38.339  14.786
35297W        W96718   1.305  12.292  12.095
35298W        W96719  21.147  14.108   0.942
35299W        W96720  12.783   0.952  14.466
35300W        W96721  36.890  18.628  12.495
35301W        W96722  15.144   9.239   0.311
35302W        W96723  39.556  34.998  11.438
35303W        W96724  15.200  42.992   2.875
35304W        W96725  23.075  30.086   2.315
35305W        W96726  32.943  31.079   3.254
35306W        W96727  14.193  22.092  10.565
35307W        W96728  25.668  13.813   1.767
35308W        W96729  30.071  23.697  10.499
35309W        W96730  20.232  32.577   3.864
35310W        W96731   4.938  44.409   0.458
35311W        W96732   7.394   0.410  13.905
35312W        W96733  18.197  14.336  12.964
35313W        W96734  11.790  32.471  12.498
35314W        W96735  21.159   2.936  10.441
35315W        W96736  16.277  12.751  10.888
35316W        W96737  42.880  18.278   4.236
35317W        W96738   9.780   5.860  14.354
35318W        W96739  34.442  16.665   4.282
35319W        W96740  16.755  43.921   2.721
35320W        W96741  33.029   1.805   5.767
35321W        W96742  12.177  24.113  13.317
35322W        W96743  41.916  44.321  12.866
35323W        W96744   4.267  24.559   2.333
35324W        W96745  16.691   4.831  11.589
35325W        W96746  12.647  36.515  12.044
35326W        W96747  33.001  28.580  13.415
35327W        W96748  18.156  27.541  13.905
35328W        W96749  11.787  21.253   0.879
35329W        W96750  17.138  37.981  11.474
35330W        W96751  39.423   7.298  14.896
35331W        W96752  17.699   4.207   4.230
35332W        W96753   4.415  38.849  13.969
35333W        W96754  37.911  28.038  12.970
35334W        W96755   0.868  10.189  11.961
35335W        W96756  25.028  13.743   1.430
35336W        W96757   0.961   6.340   2.732
35337W        W96758  41.946  37.885   1.926
35338W        W96759  34.098  44.399  13.831
35339W        W96760  41.843   9.253  11.601
35340W        W96761   3.777  23.022   2.844
35341W        W96762  39.473   1.295  12.401
35342W        W96763  41.368   5.371  12.068
35343W        W96764  15.307  42.345  11.115
35344W        W96765   9.810   2.367  12.519
35345W        W96766   0.924  22.041   1.237
35346W        W96767   2.729   8.246  12.899
35347W        W96768  16.235  40.867  14.882
35348W        W96769   9.275  41.341   2.879
35349W        W96770  35.480  16.274  14.840
35350W        W96771  11.254  17.671  11.532
35351W        W96772  12.342  22.522  13.968
35352W        W96773  25.576   3.915  10.976
35353W        W96774  42.492  33.510  12.027
35354W        W96775  37.364  13.327   3.353
35355W        W96776  29.174  33.597  14.018
35356W        W96777  14.139  24.607   4.245
35357W        W96778  14.206  26.672   2.664
35358W        W96779  33.913  11.245   0.345
35359W        W96780  29.491  41.492   3.843
35360W        W96781  34.410  25.513   1.876
35361W        W96782  13.290  23.120  12.549
35362W        W96783  14.226  38.380  14.288
35363W        W96784  34.427  35.946   0.825
35364W        W96785   9.794  44.457  13.911
35365W        W96786  34.986   3.942   1.383
35366W        W96787  23.123  19.223  13.314
35367W        W96788   6.200  39.947  14.916
35368W        W96789  31.010  27.530  11.555
35369W        W96790  18.665  33.490  14.334
35370W        W96791  19.088  38.071  13.058
35371W        W96792   9.346  38.076   4.289
35372W        W96793  25.600  37.995   0.265
35373W        W96794  13.716  32.561   1.822
35374W        W96795   5.404   6.302  12.460
35375W        W96796  21.118  11.249   0.862
35376W        W96797  14.788  22.674   5.186
35377W        W96798  33.034  29.643  14.358
35378W        W96799  44.349   0.381  12.563
35379W        W96800   5.214  30.471  11.433
35380W        W96801  20.168  42.844   0.314
35381W        W96802  37.055  24.491  14.854
35382W        W96803   8.853   7.780   4.264
35383W        W96804   6.309  25.993  11.396
35384W        W96805  14.684  35.891   2.408
35385W        W96806  28.443  24.481   2.713
35386W        W96807   4.701  39.984   1.851
35387W        W96808  13.697  12.134   4.701
35388W        W96809   7.232  42.486   0.842
35389W        W96810  11.673  15.586   0.836
35390W        W96811  32.101  11.320  14.478
35391W        W96812   5.720  22.108   2.860
35392W        W96813  33.918  12.301  14.979
35393W        W96814   0.927  40.989  14.821
35394W        W96815  31.490   3.715  11.456
35395W        W96816  31.070  37.400  10.561
35396W        W96817   8.702  29.122  13.349
35397W        W96818  43.862  40.498  11.979
35398W        W96819  38.424  34.081  13.331
35399W        W96820  43.878  36.562   4.150
35400W        W96821  18.564  27.449  11.110
35401W        W96822   9.814  12.665   3.300
35402W        W96823  25.206  23.599   0.423
35403W        W96824   6.856  16.195  11.893
35404W        W96825  30.126  40.465  10.505
35405W        W96826   9.707   6.775  12.087
35406W        W96827   2.745  29.463   2.869
35407W        W96828  18.757   9.837   2.274
35408W        W96829  30.995  41.885   4.270
35409W        W96830  22.745  42.323   0.309
35410W        W96831  32.534   2.745  12.901
35411W        W96832  35.997   5.922  14.941
35412W        W96833  41.398   7.387  11.095
35413W        W96834  35.921  10.377  11.104
35414W        W96835   7.881  32.953   4.824
35415W        W96836  29.453  33.883  10.510
35416W        W96837   3.346   4.777  11.114
35417W        W96838  18.252  41.858  10.459
35418W        W96839   8.736  14.618  13.928
35419W        W96840  21.216  24.169  12.093
35420W        W96841  41.894  12.239   3.868
35421W        W96842  26.051  42.476   3.239
35422W        W96843  14.201  23.574  11.018
35423W        W96844  29.581   2.899   2.283
35424W        W96845  44.280  17.582  11.454
35425W        W96846   1.357  26.178   4.739
35426W        W96847  26.475  33.953  13.495
35427W        W96848  18.672  19.671   1.869
35428W        W96849   3.806  21.135  11.899
35429W        W96850   2.907  15.216  10.510
35430W        W96851  40.921  24.185   1.698
35431W        W96852  12.331  28.125  13.507
35432W        W96853   1.856  43.969   3.798
35433W        W96854   3.328  16.187   3.156
35434W        W96855  23.057   2.263   2.198
35435W        W96856  36.574  17.683   2.412
35436W        W96857   6.348  38.359  10.412
35437W        W96858   9.206  39.411   0.772
35438W        W96859  20.200  42.391  12.034
35439W        W96860  25.182  37.405   0.900
35440W        W96861  31.959  16.168  12.901
35441W        W96862  39.969  27.556  14.032
35442W        W96863   8.891   5.406  11.963
35443W        W96864   4.904  22.560  11.097
35444W        W96865   2.895  19.582   1.800
35445W        W96866  44.465  32.040   1.225
35446W        W96867  13.222  24.505   2.342
35447W        W96868  21.220  27.193   3.327
35448W        W96869   1.248   8.822  14.775
35449W        W96870  42.354  18.203   4.611
35450W        W96871  15.747  40.943  10.406
35451W        W96872  42.859  11.622   3.750
35452W        W96873  12.296  10.726   1.379
35453W        W96874  24.010   3.459   0.829
35454W        W96875   7.738  37.345   3.202
35455W        W96876  22.022  38.409  13.807
35456W        W96877   8.894  37.080  12.429
35457W        W96878  23.686  31.410  12.526
35458W        W96879   1.749  14.789  12.005
35459W        W96880  26.623  20.271   0.767
35460W        W96881  14.225  29.571  14.293
35461W        W96882  15.682  44.444   5.232
35462W        W96883  43.395   5.402   1.782
35463W        W96884  29.140  11.344  14.421
35464W        W96885  34.106   3.777   4.229
35465W        W96886   2.364  11.673  11.416
35466W        W96887  34.996  29.611   0.472
35467W        W96888  10.780  27.150  12.892
35468W        W96889  39.856  20.141   0.443
35469W        W96890  20.600  11.719   3.782
35470W        W96891  24.008  43.319   3.770
35471W        W96892  17.617  21.224   1.221
35472W        W96893  23.651   3.768  12.064
35473W        W96894  22.580  14.285  10.012
35474W        W96895   6.233  10.715   2.800
35475W        W96896  19.078  19.719   1.935
35476W        W96897   9.361  20.095   4.742
35477W        W96898  20.611   4.879   2.735
35478W        W96899  13.298  26.464   4.611
35479W        W96900  32.423  36.005   1.230
35480W        W96901  20.219   2.361   4.810
35481W        W96902  21.718   1.342  13.540
35482W        W96903  32.630   6.786   0.902
35483W        W96904   4.871  21.128  10.494
35484W        W96905  30.488  30.527   1.421
35485W        W96906  29.981  18.785  11.974
35486W        W96907   5.780  34.091   4.819
35487W        W96908  21.161  10.856  13.417
35488W        W96909  35.427  26.512   4.264
35489W        W96910  30.533  16.162   0.837
35490W        W96911  19.582   8.244   2.841
35491W        W96912  14.327   9.326   4.793
35492W        W96913  29.608  31.508  13.512
35493W        W96914  42.477  42.526   3.668
35494W        W96915  40.859  25.474   1.422
35495W        W96916  40.900  27.491   1.399
35496W        W96917  13.690  23.630  14.295
35497W        W96918   1.344  18.262  10.964
35498W        W96919  43.885  26.091  13.329
35499W        W96920  41.525  41.918  11.005
35500W        W96921  20.157  22.602   2.727
35501W        W96922  22.545  17.229   0.841
35502W        W96923  33.461  23.627   1.371
35503W        W96924   0.808   2.353  12.437
35504W        W96925  40.921  42.804   3.691
35505W        W96926  36.517  43.830  13.792
35506W        W96927  20.126   5.909  10.506
35507W        W96928  14.691  23.590  12.564
35508W        W96929  30.030  37.384  11.460
35509W        W96930  42.899  12.687   1.915
35510W        W96931   5.427   1.739  11.466
35511W        W96932  40.889   1.304  12.874
35512W        W96933  24.095  15.814   5.094
35513W        W96934  24.025  23.062  14.956
35514W        W96935  28.063  29.171  14.425
35515W        W96936  24.226  31.929   5.295
35516W        W96937  25.076  39.394  14.803
35517W        W96938  38.399  28.497   4.768
35518W        W96939  17.297  29.037  14.346
35519W        W96940   1.333  21.165   3.229
35520W        W96941  44.924  18.295   2.307
35521W        W96942  15.585   6.743  14.394
35522W        W96943  19.198  43.387  11.910
35523W        W96944  42.305  14.777   4.350
35524W        W96945  29.447   8.797  11.546
35525W        W96946  15.591  11.176   3.257
35526W        W96947  44.933  41.507  13.323
35527W        W96948   1.334   3.882  11.417
35528W        W96949  14.132  15.103  10.932
35529W        W96950  23.194  32.990  12.972
35530W        W96951  26.559   1.325  14.009
35531W        W96952  43.840  33.969  14.857
35532W        W96953  28.955  21.246  14.014
35533W        W96954  17.074   3.340   3.278
35534W        W96955   1.391  10.779   1.224
35535W        W96956  38.445  42.922   3.660
35536W        W96957  38.940   9.806  12.416
35537W        W96958  36.011  43.955   4.776
35538W        W96959   2.780  25.496   5.655
35539W        W96960  19.156  21.214  14.395
35540W        W96961   0.474  23.074  13.835
35541W        W96962  26.590  16.639  14.484
35542W        W96963  29.498  17.238  10.478
35543W        W96964   0.373  36.565   4.623
35544W        W96965  18.270  40.046  14.342
35545W        W96966  19.577  20.136   0.463
35546W        W96967  25.080  23.178   4.131
35547W        W96968  20.240  29.648   4.759
35548W        W96969  41.812  24.009  11.056
35549W        W96970  40.345  33.398  13.354
35550W        W96971  30.430  40.818  14.928
35551W        W96972   3.833  37.549  12.555
35552W        W96973  24.113  17.793   4.194
35553W        W96974  33.483   3.863  14.855
35554W        W96975  13.280  39.008   1.365
35555W        W96976  28.130  15.585   0.459
35556W        W96977  37.352  13.785   9.962
35557W        W96978  18.651  19.154   2.703
35558W        W96979  27.136  10.156   9.958
35559W        W96980  21.230  33.874   3.225
35560W        W96981  10.800  36.570  11.459
35561W        W96982  25.962  20.150  13.524
35562W        W96983   7.285  32.459  13.041
35563W        W96984  33.477  13.617   0.734
35564W        W96985   1.276   7.909   0.342
35565W        W96986  17.561  36.882  14.390
35566W        W96987   7.265   4.271   4.700
35567W        W96988   2.748  14.218  13.517
35568W        W96989   2.409  44.006  11.972
35569W        W96990  18.173  36.392  12.990
35570W        W96991   1.287   4.725   2.235
35571W        W96992  23.586  20.060   3.781
35572W        W96993  38.012   7.345   9.949
35573W        W96994  38.953  15.245   1.316
35574W        W96995   0.758  41.480   0.438
35575W        W96996  16.087  10.286   3.845
35576W        W96997  39.926  28.601  13.523
35577W        W96998  41.909  21.537   3.146
35578W        W96999  21.046  12.662   4.614
35579W        W97000  22.030   1.852  12.447
35580W        W97001  33.505   1.800   1.261
35581W        W97002  31.536  30.464  12.837
35582W        W97003   7.375  28.439  10.484
35583W        W97004  14.323  10.343   2.752
35584W        W97005   8.274  20.717  13.309
35585W        W97006   0.942  18.216  13.800
35586W        W97007  23.490   0.398   4.721
35587W        W97008  12.610  44.288   1.299
35588W        W97009  11.846   5.316   1.268
35589W        W97010  39.832   6.230  13.445
35590W        W97011  39.918  26.076  12.545
35591W        W97012  29.649  21.638  12.017
35592W        W97013  15.602   0.939   4.683
35593W        W97014  12.197  23.175   4.712
35594W        W97015  29.959  32.439  13.341
35595W        W97016  31.416  17.184   0.901
35596W        W97017   1.259  29.973   9.462
35597W        W97018   5.418  21.237   0.433
35598W        W97019  31.647  27.527  13.844
35599W        W97020  41.811  11.349   4.341
35600W        W97021  30.577  36.348  14.350
35601W        W97022  27.518  14.663   0.924
35602W        W97023  12.190  23.653  14.973
35603W        W97024  39.555   4.864   4.276
35604W        W97025  15.699  19.581   4.833
35605W        W97026  39.471  40.938   3.295
35606W        W97027  20.580  42.860  13.388
35607W        W97028  36.067  38.956  14.783
35608W        W97029  36.380  13.202   0.343
35609W        W97030  20.673  29.110   0.734
35610W        W97031  12.345   0.838  12.486
35611W        W97032  14.227  11.849   3.871
35612W        W97033  13.648   5.217  14.878
35613W        W97034  11.313  20.701  14.443
35614W        W97035  13.120  30.993   1.711
35615W        W97036  28.110  12.340  14.779
35616W        W97037  24.479  43.856  13.403
35617W        W97038  44.928  38.971  12.345
35618W        W97039  38.933  22.607  12.541
35619W        W97040  21.616  24.574  12.507
35620W        W97041  44.980  34.933  10.640
35621W        W97042   5.860  18.191   0.830
35622W        W97043  12.650   6.228  10.535
35623W        W97044   0.406  44.886   0.326
35624W        W97045   6.319  14.237   3.171
35625W        W97046   8.741   7.795  11.004
35626W        W97047  10.349  44.472   2.842
35627W        W97048   4.817   6.900  13.509
35628W        W97049   4.859   8.176   3.757
35629W        W97050   2.827  21.630   1.301
35630W        W97051  34.447  43.273   0.798
35631W        W97052  42.950   6.877  11.524
35632W        W97053   6.393  28.088   4.710
35633W        W97054  11.835  25.025   3.746
35634W        W97055  15.278   4.798  14.492
35635W        W97056   5.725  25.623  13.056
35636W        W97057  42.950   8.662  11.387
35637W        W97058  20.255  37.348  14.346
35638W        W97059  23.221  16.152  12.384
35639W        W97060  19.103  41.873  10.420
35640W        W97061  35.951  25.029   0.305
35641W        W97062  18.762  38.380   2.257
35642W        W97063  29.023   3.945   1.878
35643W        W97064  23.106  32.932  13.845
35644W        W97065  43.933  40.365   4.686
35645W        W97066  28.945  28.673   0.400
35646W        W97067  15.815  33.917   3.157
35647W        W97068  19.569   5.844   2.773
35648W        W97069  37.364  38.347  13.908
35649W        W97070  43.300   1.821   1.280
35650W        W97071  44.298   4.706   3.752
35651W        W97072  10.837  33.093   2.802
35652W        W97073  24.674  12.347   0.771
35653W        W97074  12.166  35.046   2.217
35654W        W97075  20.053  30.646  12.882
35655W        W97076  15.820  27.067   2.725
35656W        W97077  42.814  17.198   4.241
35657W        W97078  41.018  13.831   2.337
35658W        W97079  32.893  34.562   3.268
35659W        W97080   9.775   4.371  12.481
35660W        W97081  22.538  11.782  13.310
35661W        W97082  15.097   4.788   4.229
35662W        W97083  41.921  25.468   3.677
35663W        W97084   1.736  17.255   0.840
35664W        W97085  30.047   7.803  11.602
35665W        W97086   1.904   6.683  10.582
35666W        W97087   0.322  26.157   1.357
35667W        W97088  11.177   0.818  11.434
35668W        W97089  16.173  23.044   0.448
35669W        W97090  25.661  26.174   3.764
35670W        W97091  11.670  28.026  13.337
35671W        W97092  15.246  30.590   3.707
35672W        W97093  38.047  25.022  14.426
35673W        W97094  22.178  42.317  13.351
35674W        W97095  18.687  12.283   0.946
35675W        W97096   6.735  23.691  14.455
35676W        W97097  27.664  17.285   0.379
35677W        W97098  43.400  21.685   0.902
35678W        W97099  13.172  18.663  10.588
35679W        W97100  31.525  43.497   2.690
35680W        W97101  33.978  15.699  12.849
35681W        W97102   0.377   1.829   0.323
35682W        W97103  44.474   0.288   4.694
35683W        W97104  37.365  12.721   2.885
35684W        W97105   5.292  10.731   2.385
35685W        W97106  26.058  31.897   2.866
35686W        W97107  14.801   0.432   3.384
35687W        W97108  14.815  26.620  12.528
35688W        W97109  29.089   9.205   4.168
35689W        W97110   7.832  31.028   2.408
35690W        W97111  30.041  22.070  11.608
35691W        W97112  39.947  15.752  13.821
35692W        W97113  23.175   1.471   1.393
35693W        W97114  24.108  20.536   1.900
35694W        W97115   8.698  23.005   0.756
35695W        W97116  41.003  44.896  12.458
35696W        W97117  20.711  34.527   1.218
35697W        W97118  15.662  32.986   4.835
35698W        W97119   5.317  25.618  13.962
35699W        W97120  34.036  20.549   1.745
35700W        W97121  23.569  41.793  14.026
35701W        W97122   3.282  26.087   3.365
35702W        W97123  28.578  38.908   1.830
35703W        W97124  34.600  36.471  12.077
35704W        W97125   3.253  44.976   2.816
35705W        W97126  17.556  42.378   4.160
35706W        W97127   2.781  18.215  12.996
35707W        W97128  29.518  23.722   1.329
35708W        W97129   2.741  18.778  14.853
35709W        W97130   2.761  15.745  12.343
35710W        W97131  38.076  18.719   2.403
35711W        W97132  41.516  21.612   2.851
35712W        W97133   7.881  33.598   2.704
35713W        W97134  34.605  28.163   3.730
35714W        W97135  12.644  30.998   4.609
35715W        W97136  13.153   9.379   1.831
35716W        W97137  29.437  10.368   5.303
35717W        W97138   0.410   4.399   4.335
35718W        W97139  40.345   3.405   3.190
35719W        W97140  32.589  21.128  14.888
35720W        W97141  43.994   9.193   0.474
35721W        W97142  14.184  21.093  12.850
35722W        W97143  13.846  11.805   2.279
35723W        W97144  27.189  38.337  12.899
35724W        W97145  15.275  25.996   4.624
35725W        W97146   3.740  25.189   0.307
35726W        W97147  11.252  33.897  11.948
35727W        W97148  31.036  21.755   2.688
35728W        W97149  40.385  37.052  13.867
35729W        W97150  44.479   6.917   4.324
35730W        W97151   4.929  18.596   1.433
35731W        W97152   6.819  28.154   0.467
35732W        W97153  29.025  43.789  10.960
35733W        W97154  25.001  30.018   1.333
35734W        W97155  21.181  30.593  10.936
35735W        W97156  21.036  10.296   3.320
35736W        W97157   0.842   5.245  13.798
35737W        W97158   8.363  26.581  14.835
35738W        W97159  27.081  10.300  12.833
35739W        W97160  21.138   6.725   2.749
35740W        W97161  28.585  39.822   2.676
35741W        W97162   1.908  11.273   3.207
35742W        W97163  13.775  23.010  12.920
35743W        W97164  25.997  22.042  10.625
35744W        W97165   7.768  12.667   0.296
35745W        W97166  12.310   2.247  14.976
35746W        W97167  35.081   4.709   0.392
35747W        W97168  31.096  40.912   0.463
35748W        W97169  38.489  14.179   1.227
35749W        W97170  40.965  12.625  13.887
35750W        W97171   9.283  13.318   1.314
35751W        W97172   3.796   3.861  10.436
35752W        W97173   6.885  28.114  14.348
35753W        W97174  31.546   6.391  10.512
35754W        W97175  40.885  20.689  14.007
35755W        W97176  42.964  31.602  14.488
35756W        W97177   2.466  35.407   1.313
35757W        W97178  33.062  19.725  10.526
35758W        W97179  22.636   1.468  14.377
35759W        W97180  20.079  28.647   1.886
35760W        W97181  13.108  14.172  14.442
35761W        W97182  32.969   2.927   0.830
35762W        W97183   7.340  28.045  11.922
35763W        W97184  11.253  24.722  12.381
35764W        W97185  24.988  35.879  10.058
35765W        W97186  32.089  30.420  14.289
35766W        W97187  12.218  37.858  10.458
35767W        W97188   1.335  17.698   2.856
35768W        W97189  33.488  43.461  11.393
35769W        W97190  38.441  33.969   1.372
35770W        W97191   9.316  42.428   4.634
35771W        W97192  38.935  36.543  10.479
35772W        W97193  14.303  22.595  14.941
35773W        W97194  25.095  12.763  13.392
35774W        W97195  27.090  41.014  12.403
35775W        W97196  18.064   8.246   1.746
35776W        W97197   7.294  16.747   0.331
35777W        W97198  33.013   7.339   1.828
35778W        W97199   0.874   3.721   2.808
35779W        W97200   3.279   4.908  13.449
35780W        W97201  40.315   6.738  12.484
35781W        W97202  10.748  33.410  12.501
35782W        W97203   4.908  20.229   1.383
35783W        W97204   4.865  31.978  14.323
35784W        W97205  44.937   6.699  12.942
35785W        W97206  15.649  10.368   0.756
35786W        W97207   3.954  22.654   0.925
35787W        W97208  24.509   4.742  13.954
35788W        W97209   9.373   6.714  14.466
35789W        W97210  24.974  23.092   3.234
35790W        W97211  37.978  41.839  14.922
35791W        W97212   7.701   9.723  10.425
35792W        W97213  12.306  23.534  13.860
35793W        W97214  30.160   5.295  14.311
35794W        W97215  28.476  24.006  11.386
35795W        W97216  38.392  35.485  13.983
35796W        W97217  27.175  16.698   0.843
35797W        W97218  18.719  29.591  10.043
35798W        W97219  32.514  26.628  11.477
35799W        W97220   3.941   0.410  10.114
35800W        W97221  13.665  16.107   0.933
35801W        W97222  32.460   3.222  14.811
35802W        W97223  41.963   6.414   4.660
35803W        W97224  23.085   0.755  10.420
35804W        W97225  13.612  26.960  13.539
35805W        W97226  44.957  29.155   3.329
35806W        W97227  21.124  38.900  14.392
35807W        W97228  18.113  35.369   0.298
35808W        W97229  34.427  35.110   1.367
35809W        W97230   8.294  29.617  14.848
35810W        W97231   4.831  33.558   0.899
35811W        W97232   1.326  35.501   5.279
35812W        W97233  19.151  32.401  10.507
35813W        W97234  21.518  42.984   9.938
35814W        W97235  15.187  23.042  10.575
35815W        W97236  32.913  25.182  14.948
35816W        W97237   0.923   3.340   3.707
35817W        W97238  11.165  33.057   2.273
35818W        W97239  34.577  35.101  12.823
35819W        W97240  40.311  18.105  14.767
35820W        W97241  35.994  25.689  11.997
35821W        W97242   3.898  29.048   4.164
35822W        W97243   8.247  17.269   3.751
35823W        W97244  12.189  24.207   1.854
35824W        W97245   9.763  16.757  13.350
35825W        W97246  39.360  27.453   3.180
35826W        W97247  13.838  22.058  13.428
35827W        W97248   6.315  29.590   4.140
35828W        W97249  11.240  34.995   2.227
35829W        W97250  42.791  35.929  11.087
35830W        W97251   6.774  33.494  14.498
35831W        W97252  15.289  24.201  14.890
35832W        W97253  10.764  23.715  12.967
35833W        W97254  36.999  32.605  12.854
35834W        W97255   1.330  29.490   1.930
35835W        W97256  33.436  27.687   2.387
35836W        W97257   9.876  21.205  14.841
35837W        W97258  29.529  13.675   1.889
35838W        W97259  38.341   2.846  11.548
35839W        W97260   6.723  33.052   0.459
35840W        W97261  37.517  41.997  14.028
35841W        W97262   4.930  19.744   0.835
35842W        W97263  40.372  30.947   0.922
35843W        W97264  14.688  20.028   0.749
35844W        W97265  35.584  25.049  11.034
35845W        W97266   1.470  21.519  10.643
35846W        W97267  39.895  33.030  13.936
35847W        W97268  22.148   7.824  10.418
35848W        W97269  39.015  18.681   4.194
35849W        W97270  23.191  21.212  11.936
35850W        W97271  42.800  23.720   1.372
35851W        W97272  15.608   4.374   5.109
35852W        W97273  25.183  10.679   3.816
35853W        W97274  18.718   0.487   0.380
35854W        W97275  29.958   8.818  14.309
35855W        W97276   7.752  25.698   2.859
35856W        W97277  37.365  43.014  13.063
35857W        W97278  40.941  22.647   3.653
35858W        W97279  38.567  21.205   1.222
35859W        W97280  15.254  44.975  13.985
35860W        W97281   4.873  31.949  11.032
35861W        W97282  35.554  35.931  12.411
35862W        W97283  14.789   7.887  13.854
35863W        W97284  11.623  44.953  10.493
35864W        W97285   8.740  31.064   0.459
35865W        W97286  30.112  44.362   0.963
35866W        W97287  29.973  41.464  10.978
35867W        W97288  19.616  12.356  11.599
35868W        W97289  12.259  10.188  13.382
35869W        W97290  10.311  25.616   4.633
35870W        W97291   0.961  33.026   3.714
35871W        W97292  21.062  16.154  13.864
35872W        W97293   9.841   7.747  12.902
35873W        W97294   6.869  31.065  13.463
35874W        W97295  14.140  40.447  13.873
35875W        W97296  44.968  22.231   2.377
35876W        W97297   6.264  32.115   3.680
35877W        W97298  13.290  11.351   3.652
35878W        W97299  11.800  14.102   4.643
35879W        W97300   7.772  28.053   3.813
35880W        W97301  27.612  20.272   2.815
35881W        W97302  25.985  39.315   2.339
35882W        W97303  22.628  10.323  11.545
35883W        W97304  20.766  29.038   1.793
35884W        W97305  44.836  20.648   1.370
35885W        W97306  26.050  38.837  11.921
35886W        W97307  12.743   8.835  14.017
35887W        W97308   2.284  32.069   4.347
35888W        W97309  20.699   7.259  10.547
35889W        W97310  27.156  25.634  10.564
35890W        W97311  31.423  21.554  13.367
35891W        W97312  13.689   8.278  10.951
35892W        W97313   2.271  27.595  12.986
35893W        W97314  44.806  27.096  11.389
35894W        W97315   9.869  25.007  13.440
35895W        W97316  20.138   0.447  13.946
35896W        W97317  23.184   6.712  11.446
35897W        W97318  13.276  12.131   0.301
35898W        W97319  20.534  13.785  11.494
35899W        W97320   1.910  10.648  12.519
35900W        W97321  32.578   3.321  12.967
35901W        W97322  33.083  11.289   3.724
35902W        W97323  28.643  13.651   3.341
35903W        W97324  20.167  13.611   1.888
35904W        W97325   0.866  34.931   1.227
35905W        W97326  26.602  35.046  13.971
35906W        W97327  39.548  37.538   2.815
35907W        W97328  38.922  21.150  14.794
35908W        W97329  27.972   4.864   5.086
35909W        W97330   0.755   8.295   3.147
35910W        W97331  20.247  25.129  12.979
35911W        W97332  29.445   8.399  13.974
35912W        W97333  25.007   5.250   3.384
35913W        W97334  38.426  41.514  13.062
35914W        W97335   0.399   5.195   2.753
35915W        W97336  21.176  28.651   3.659
35916W        W97337  18.603   2.466   4.832
35917W        W97338  27.989   7.277  13.446
35918W        W97339   0.314  10.816  13.829
35919W        W97340  11.638  17.700   4.791
35920W        W97341  32.567  18.581   4.338
35921W        W97342  34.420  31.038   4.271
35922W        W97343  43.333  24.042  14.806
35923W        W97344  22.544  39.414  13.484
35924W        W97345   3.920  26.111  13.314
35925W        W97346  24.644   4.810   5.206
35926W        W97347   3.893  16.177  13.457
35927W        W97348  15.218  22.679  11.548
35928W        W97349  13.615  44.341   0.292
35929W        W97350  17.279  24.545  14.927
35930W        W97351   5.814  11.183  10.481
35931W        W97352  25.556   8.851   4.652
35932W        W97353  21.726  37.530  12.391
35933W        W97354  40.363  25.522  10.920
35934W        W97355  22.206  21.513   3.364
35935W        W97356  29.438  18.713  14.926
35936W        W97357  20.167  26.511  14.796
35937W        W97358  37.010  35.383   0.818
35938W        W97359  38.854   9.340   4.609
35939W        W97360  21.742  38.008   0.961
35940W        W97361  20.763  43.924   3.775
35941W        W97362  19.780  42.019  12.861
35942W        W97363  42.862   0.763  10.998
35943W        W97364  18.086   9.167  13.907
35944W        W97365  36.037  20.126   0.279
35945W        W97366  28.114   9.718  11.123
35946W        W97367  29.605  30.924  11.918
35947W        W97368   3.873   2.444   0.451
35948W        W97369  42.462  27.451   0.362
35949W        W97370   5.791  19.098   2.207
35950W        W97371   6.316   8.693  12.550
35951W        W97372  17.294  41.504   0.392
35952W        W97373  15.623  27.974  11.120
35953W        W97374  19.674  42.407   3.281
35954W        W97375  42.797  13.761  11.930
35955W        W97376  15.140  12.119   3.162
35956W        W97377   6.865  20.635  11.594
35957W        W97378   3.344  35.563   1.327
35958W        W97379  16.243   4.735  14.394
35959W        W97380  10.746  37.555  12.557
35960W        W97381  11.202  19.064   1.323
35961W        W97382  23.046  43.843  14.300
35962W        W97383  36.921  19.224  12.534
35963W        W97384   0.744  18.638   0.749
35964W        W97385  13.715  35.938   2.350
35965W        W97386  17.575   9.829   1.304
35966W        W97387  27.130  25.039   2.720
35967W        W97388   5.929  42.989   4.782
35968W        W97389  11.862  23.005   2.359
35969W        W97390   0.319  33.983  11.912
35970W        W97391  18.118  44.376   3.178
35971W        W97392   0.250  42.999   3.721
35972W        W97393  30.654  23.527   3.812
35973W        W97394  34.884  26.616  10.547
35974W        W97395  23.114  26.600  14.954
35975W        W97396   5.901   2.870   1.352
35976W        W97397   0.334  12.310   1.914
35977W        W97398  31.500  29.425  12.983
35978W        W97399  27.576  39.392   4.296
35979W        W97400  29.460  24.064   4.634
35980W        W97401  21.138  14.147  11.965
35981W        W97402  38.565  11.363  12.842
35982W        W97403  10.848  43.409   1.844
35983W        W97404  22.143  23.643  11.005
35984W        W97405  11.190  40.023  11.124
35985W        W97406  25.028  42.509  10.423
35986W        W97407   8.740   6.677   0.750
35987W        W97408  37.408   8.312   0.399
35988W        W97409  23.018  22.026   3.785
35989W        W97410   9.153  40.037   0.341
35990W        W97411  15.770   5.737  13.840
35991W        W97412  22.676   4.430   2.786
35992W        W97413   9.255  18.621   0.953
35993W        W97414   8.197   9.148   2.202
35994W        W97415  17.689   2.756   4.352
35995W        W97416  26.673  21.526  12.488
35996W        W97417  12.144  12.353  12.392
35997W        W97418  12.229  20.258   4.650
35998W        W97419  16.284   6.219   2.318
35999W        W97420  22.642  33.390   1.273
36000W        W97421  35.554  29.932  12.856
36001W        W97422  10.797  32.624  11.592
36002W        W97423  35.888  42.988   0.954
36003W        W97424  28.151  19.565  12.014
36004W        W97425  13.149  41.433  13.517
36005W        W97426  13.668  18.102  11.988
36006W        W97427  18.075  12.681   3.709
36007W        W97428  28.634  34.484   3.753
36008W        W97429  10.363  28.534   2.256
36009W        W97430  23.118  26.472   2.362
36010W        W97431   9.742  21.070  11.913
36011W        W97432  33.380  34.405  14.844
36012W        W97433  12.826   4.312  12.979
36013W        W97434  33.122  16.261   2.353
36014W        W97435  35.998  13.842   1.709
36015W        W97436  34.869  13.346  14.916
36016W        W97437  15.191  42.348   2.283
36017W        W97438  15.657  28.642  14.442
36018W        W97439   4.245  10.380  14.451
36019W        W97440  28.119   9.285  14.923
36020W        W97441   0.822   3.713  11.566
36021W        W97442  36.040  34.448   1.443
36022W        W97443  16.671  40.456   2.793
36023W        W97444  44.976  44.815   1.445
36024W        W97445  14.602  14.656  10.481
36025W        W97446  35.021   6.720   0.446
36026W        W97447  11.145  20.728   3.849
36027W        W97448  43.413  23.675   5.296
36028W        W97449  38.049   5.868   4.669
36029W        W97450  23.588  37.483   3.231
36030W        W97451  30.116  17.240   3.262
36031W        W97452  33.447  43.452  10.598
36032W        W97453  17.644  35.039   1.740
36033W        W97454  15.191   0.974   0.340
36034W        W97455  30.938  30.568  13.495
36035W        W97456   3.830  41.456  10.140
36036W        W97457  33.075  39.980   0.409
36037W        W97458  22.148   6.807  11.878
36038W        W97459   5.208  31.974  14.839
36039W        W97460  21.129  39.821  13.407
36040W        W97461   7.322  20.732  14.500
36041W        W97462   5.894  41.410  11.870
36042W        W97463  14.105  20.724   1.271
36043W        W97464  40.990   4.422  10.642
36044W        W97465  15.767   8.250  12.975
36045W        W97466  24.659   2.794  10.966
36046W        W97467  20.605  41.312  12.984
36047W        W97468  32.983  29.646  13.309
36048W        W97469  22.668   1.304   3.667
36049W        W97470  14.129  24.633   4.674
36050W        W97471  21.581   5.928   3.206
36051W        W97472  40.798  44.854   1.318
36052W        W97473  39.909  12.668   4.311
36053W        W97474  14.304  10.670  12.061
36054W        W97475  20.109  18.251  12.948
36055W        W97476  29.116  17.280   3.773
36056W        W97477  24.699  29.610  10.938
36057W        W97478  10.199  23.634   9.944
36058W        W97479  36.980   9.339  14.448
36059W        W97480   6.207  28.138   0.803
36060W        W97481  44.853  14.668  10.547
36061W        W97482  22.148  17.784  14.505
36062W        W97483  16.794  44.898  12.966
36063W        W97484   3.324  22.187   0.852
36064W        W97485  18.596  22.147  13.894
36065W        W97486  23.560   6.733   0.889
36066W        W97487  26.571  20.146  14.345
36067W        W97488  41.893  41.330   0.331
36068W        W97489   2.460   3.305  13.486
36069W        W97490  44.853  17.778   0.810
36070W        W97491  21.165  37.940  11.045
36071W        W97492  38.953  41.975   2.193
36072W        W97493  42.341  43.291   1.766
36073W        W97494  36.446   6.283   2.762
36074W        W97495  31.607   6.773  13.340
36075W        W97496  20.236  39.400  11.492
36076W        W97497  11.761  44.817   2.901
36077W        W97498  24.665  16.644  12.535
36078W        W97499  30.499  34.455  12.458
36079W        W97500   4.777  29.478  12.421
36080W        W97501  20.539  10.291   2.306
36081W        W97502  26.511  15.758  12.578
36082W        W97503  14.823  22.530  14.276
36083W        W97504  28.611  43.933  11.611
36084W        W97505  32.603   6.257   3.757
36085W        W97506  32.052  21.525   0.402
36086W        W97507  20.731   6.414  10.600
36087W        W97508  19.619  41.786  14.442
36088W        W97509  27.041  43.507  14.421
36089W        W97510  24.171  16.215  10.512
36090W        W97511   3.342   1.768   2.804
36091W        W97512  36.567   6.366   4.130
36092W        W97513  29.620   7.193  10.525
36093W        W97514  18.753  16.650  13.026
36094W        W97515   1.299  25.147   1.335
36095W        W97516   0.821  21.041   2.198
36096W        W97517  10.806  39.862   3.721
36097W        W97518  22.139  43.976  14.343
36098W        W97519  35.044   0.894   0.248
36099W        W97520  13.628   5.757  11.555
36100W        W97521  33.622   1.269   9.565
36101W        W97522  37.358  28.589   4.331
36102W        W97523   5.828  23.523  14.440
36103W        W97524  23.028  28.602  13.496
36104W        W97525  36.898  16.737   2.815
36105W        W97526  20.760   0.943  10.470
36106W        W97527  33.129  36.868  13.859
36107W        W97528   4.303  40.957   1.384
36108W        W97529  11.713  13.233  11.561
36109W        W97530  14.180  23.123   1.730
36110W        W97531  44.406  43.962   2.701
36111W        W97532  26.552  31.419   3.736
36112W        W97533  29.611  29.539   0.943
36113W        W97534  25.569  38.848   0.901
36114W        W97535  27.157   2.269  10.515
36115W        W97536  35.600   5.804  11.883
36116W        W97537  11.157  38.394  10.641
36117W        W97538  30.437  13.181  14.884
36118W        W97539  43.909  20.627  12.389
36119W        W97540  41.323  32.471   1.276
36120W        W97541  32.452   5.342  14.479
36121W        W97542  17.740  34.045   2.850
36122W        W97543  25.155  40.445   4.223
36123W        W97544  13.266   3.932   1.256
36124W        W97545  17.172  14.217   1.933
36125W        W97546  41.292  42.483  11.405
36126W        W97547  40.464   7.247  14.295
36127W        W97548  36.541  31.498  13.994
36128W        W97549  19.189  18.651  13.987
36129W        W97550   0.883  11.320  13.946
36130W        W97551   5.275  36.958  12.856
36131W        W97552  21.514   0.979   2.331
36132W        W97553  35.519  21.520   1.356
36133W        W97554  31.533   2.449   0.744
36134W        W97555  19.129  14.589   1.859
36135W        W97556  13.775   3.327   3.648
36136W        W97557  16.120  22.593  13.508
36137W        W97558  24.026  26.191   0.483
36138W        W97559  25.110  27.988   1.383
36139W        W97560  21.168  19.693   3.310
36140W        W97561  34.918  30.613  13.837
36141W        W97562  33.894  10.864   1.731
36142W        W97563   4.375  33.467  10.958
36143W        W97564   7.691  37.908  11.575
36144W        W97565  36.062  20.566   0.389
36145W        W97566  20.753  14.227   3.323
36146W        W97567  38.562  15.299   0.413
36147W        W97568  11.759  32.535  11.871
36148W        W97569  29.068  28.170  11.459
36149W        W97570   6.909  31.938   0.764
36150W        W97571  14.779  14.711  12.561
36151W        W97572  26.690   1.442   4.704
36152W        W97573  43.838   8.327  12.573
36153W        W97574  18.263  41.385   2.690
36154W        W97575  14.210  10.644  13.350
36155W        W97576  26.030  20.040   2.898
36156W        W97577   4.803  42.308   4.114
36157W        W97578  24.998  30.446   1.756
36158W        W97579  16.788  44.340   2.378
36159W        W97580  43.812  27.514  12.875
36160W        W97581  26.016   5.435  14.821
36161W        W97582  32.949  11.243  13.876
36162W        W97583  34.447  38.511   3.160
36163W        W97584  18.227   9.766   2.316
36164W        W97585  38.434  34.938   1.710
36165W        W97586   7.675  42.468   2.298
36166W        W97587  13.109  31.431   2.738
36167W        W97588   2.735  10.288   5.176
36168W        W97589  26.078  41.916  11.034
36169W        W97590   3.938  44.857   3.666
36170W        W97591  36.996  12.635  12.501
36171W        W97592   6.698  18.762   1.406
36172W        W97593  22.518  29.158   4.698
36173W        W97594  22.070  26.050  10.560
36174W        W97595  13.760  26.461   1.903
36175W        W97596   6.719  33.887   4.712
36176W        W97597  25.546  27.545   0.344
36177W        W97598   5.714  22.114   3.326
36178W        W97599  42.794  35.949  10.462
36179W        W97600   8.837  10.344  12.886
36180W        W97601  42.884  21.188   3.382
36181W        W97602  40.344  10.848  14.793
36182W        W97603   9.160  31.077   3.739
36183W        W97604   4.832  40.849   2.691
36184W        W97605  33.482  34.921  12.982
36185W        W97606   3.351  23.097  14.875
36186W        W97607  22.742   6.319   2.387
36187W        W97608  43.273  31.460   0.254
36188W        W97609  41.324  43.838   3.371
36189W        W97610  36.073  41.891   2.271
36190W        W97611  15.247  22.602   3.339
36191W        W97612  23.020  23.006  14.988
36192W        W97613  30.972  36.911  11.425
36193W        W97614  39.042  42.982   2.791
36194W        W97615  38.487   9.294  11.449
36195W        W97616  38.033  42.812   0.751
36196W        W97617  27.448  37.581  10.949
36197W        W97618  26.571  15.798   1.819
36198W        W97619  30.546  12.248  11.864
36199W        W97620  13.675  14.649  12.428
36200W        W97621  29.082  26.666   4.701
36201W        W97622   4.922  25.067  14.857
36202W        W97623  26.624   5.290  11.570
36203W        W97624  32.584  15.663  13.052
36204W        W97625   8.396  28.166   2.761
36205W        W97626  23.044  32.937   4.792
36206W        W97627   0.468  41.857  14.302
36207W        W97628  21.179  12.623  10.090
36208W        W97629  30.526  39.899  12.392
36209W        W97630   0.778  22.721   4.232
36210W        W97631  38.830  22.150   0.746
36211W        W97632   1.422  26.011   1.803
36212W        W97633  15.665  29.436  11.424
36213W        W97634  26.147  15.212   4.827
36214W        W97635  17.204   2.284  13.499
36215W        W97636  39.843  43.343  14.448
36216W        W97637  10.200  31.049  11.597
36217W        W97638  21.755  38.892   2.322
36218W        W97639   2.785  11.638   3.365
36219W        W97640   6.264  32.972   2.360
36220W        W97641  21.536  40.544   4.196
36221W        W97642  34.046   8.655   3.319
36222W        W97643   1.861  34.032  12.438
36223W        W97644  39.365  27.947  12.504
36224W        W97645  30.126  34.449   0.284
36225W        W97646   3.438  17.092  12.007
36226W        W97647  15.124  34.984  13.918
36227W        W97648  40.025  33.496  12.490
36228W        W97649  36.008  28.578  14.874
36229W        W97650  36.870  33.117   3.280
36230W        W97651  20.684  21.184  14.344
36231W        W97652  44.993  28.680   3.348
36232W        W97653  34.571  39.409  10.597
36233W        W97654  30.630  16.221  10.541
36234W        W97655  23.618  36.888  13.318
36235W        W97656  10.313  14.283   5.115
36236W        W97657   9.187  29.027  10.935
36237W        W97658   4.942  15.601  12.067
36238W        W97659  17.661  22.135  11.420
36239W        W97660   4.859  10.742   1.451
36240W        W97661  19.284  19.143   1.805
36241W        W97662  21.070   5.350   0.261
36242W        W97663  39.820   0.784   4.326
36243W        W97664  13.759  15.135  12.857
36244W        W97665  14.283  37.399   3.773
36245W        W97666  28.061  19.058   0.407
36246W        W97667  38.438  24.982  14.506
36247W        W97668   0.449  21.032   3.683
36248W        W97669  21.052   6.270   2.387
36249W        W97670  33.382  16.291  14.295
36250W        W97671  42.432  39.465   4.155
36251W        W97672  24.984  32.105  13.895
36252W        W97673   6.358  16.696   0.324
36253W        W97674  11.135  29.962  12.388
36254W        W97675  22.238  31.005   0.749
36255W        W97676   6.918   9.350  12.390
36256W        W97677  41.956  44.412   0.411
36257W        W97678  12.317  30.049  10.498
36258W        W97679   7.326  13.295  12.444
36259W        W97680  26.604  36.929  11.948
36260W        W97681   6.259   8.325   1.448
36261W        W97682  42.780  33.386   5.239
36262W        W97683  16.287  10.258   2.311
36263W        W97684   0.814   1.857  10.925
36264W        W97685   3.284  42.994   2.370
36265W        W97686  37.558   6.364   4.214
36266W        W97687  22.097  44.880   1.918
36267W        W97688  26.062  34.396  14.457
36268W        W97689  11.332  15.662   4.657
36269W        W97690  10.858   2.911   1.364
36270W        W97691   7.845  10.789   4.636
36271W        W97692  10.779  38.426  13.340
36272W        W97693  36.495   6.869  13.036
36273W        W97694   8.292  15.784  12.343
36274W        W97695  14.211  36.519  11.377
36275W        W97696  33.111  28.181   2.882
36276W        W97697  40.494  25.156  10.114
36277W        W97698  27.639  40.809   0.361
36278W        W97699   5.424   8.376  10.530
36279W        W97700  26.651  41.431  13.319
36280W        W97701  28.507  23.030   3.806
36281W        W97702   1.352   6.378  14.030
36282W        W97703   0.480  31.140  14.965
36283W        W97704  14.783  25.562  13.963
36284W        W97705   7.850  25.582  14.491
36285W        W97706   8.300  26.639   0.386
36286W        W97707  26.152  18.672   4.140
36287W        W97708   2.879  30.927   1.356
36288W        W97709  23.560   9.183  14.376
36289W        W97710  39.355  20.041  13.375
36290W        W97711  43.319  42.882  12.079
36291W        W97712  40.387  29.114   1.350
36292W        W97713   0.945  33.596   2.674
36293W        W97714   9.238  16.584   2.733
36294W        W97715   8.894  18.176  14.989
36295W        W97716  38.344  15.213  12.965
36296W        W97717  14.123   2.451  12.400
36297W        W97718  13.651  36.974   0.345
36298W        W97719   7.268  36.877   1.700
36299W        W97720  36.410  23.670   0.416
36300W        W97721   0.436   2.341  14.385
36301W        W97722  26.684  24.073   2.668
36302W        W97723  28.054  18.141   2.284
36303W        W97724  44.304  21.246   5.128
36304W        W97725  16.142  16.135  14.925
36305W        W97726  20.162  28.666   3.314
36306W        W97727  13.227  39.043   3.776
36307W        W97728  14.215  15.729  12.921
36308W        W97729  10.796  39.002  14.465
36309W        W97730  33.940  23.989   1.835
36310W        W97731   6.766   4.926   0.942
36311W        W97732   8.729  26.611   1.222
36312W        W97733  25.500  39.485  11.470
36313W        W97734  43.504   7.740   4.676
36314W        W97735  31.517  11.839  12.537
36315W        W97736  29.110  29.597  12.471
36316W        W97737  22.183  22.512   0.421
36317W        W97738   4.295  11.240  12.490
36318W        W97739  14.603  14.164   5.239
36319W        W97740  28.979   4.397  13.807
36320W        W97741  31.645  31.004  10.618
36321W        W97742   6.714  37.380  14.360
36322W        W97743  42.517  22.598   0.358
36323W        W97744  36.523  30.619   4.266
36324W        W97745  27.152   7.285   5.258
36325W        W97746  13.646  44.781  12.573
36326W        W97747  29.647  21.744  14.984
36327W        W97748   7.297   2.937  14.765
36328W        W97749  17.678  37.085  11.117
36329W        W97750  21.680  33.929  11.110
36330W        W97751  11.205  25.131   4.790
36331W        W97752  17.570  19.249   2.754
36332W        W97753   6.875   7.865  12.031
36333W        W97754  10.373  12.658  12.879
36334W        W97755   3.871  31.586   0.423
36335W        W97756  16.111  41.379   2.810
36336W        W97757  29.642  34.562  11.457
36337W        W97758  15.776  42.479  11.499
36338W        W97759  28.458   7.674   2.270
36339W        W97760  28.957  24.647   2.663
36340W        W97761   4.251  32.914   3.825
36341W        W97762  23.196  43.970   2.871
36342W        W97763  27.606  20.253  12.569
36343W        W97764  33.084  16.293   0.953
36344W        W97765   5.739   5.385   2.865
36345W        W97766  24.711  10.693  11.471
36346W        W97767  37.556  28.960   1.704
36347W        W97768   2.326   6.396   0.799
36348W        W97769   6.424  26.036   0.435
36349W        W97770  19.124   3.287  10.491
36350W        W97771  34.378  24.990   3.770
36351W        W97772  28.473  14.833   1.246
36352W        W97773   3.263  16.606  13.004
36353W        W97774  22.732  37.466   1.869
36354W        W97775   7.847  24.027  12.515
36355W        W97776  10.206  31.904   0.411
36356W        W97777  24.032   4.391  12.471
36357W        W97778   7.665  41.909   1.401
36358W        W97779   2.736  25.035   1.417
36359W        W97780  16.158  26.621  13.463
36360W        W97781  11.859   6.393  10.573
36361W        W97782   2.314  37.948  10.410
36362W        W97783  23.149  11.809  13.928
36363W        W97784   9.277  13.187  11.869
36364W        W97785  42.387  27.992   3.295
36365W        W97786  33.985  21.216   3.664
36366W        W97787  20.170  12.189   2.714
36367W        W97788  18.291  35.877   1.374
36368W        W97789  17.664  28.067  14.018
36369W        W97790   2.927  15.102  14.504
36370W        W97791  36.054  28.440   0.365
36371W        W97792  10.802  19.665  13.799
36372W        W97793  16.176  21.189  13.813
36373W        W97794  35.406  14.316   4.333
36374W        W97795  19.673  16.681   1.835
36375W        W97796  16.719  21.613  14.341
36376W        W97797   3.860  21.703   1.210
36377W        W97798  26.530  16.685  10.908
36378W        W97799   5.794  17.274  14.295
36379W        W97800  39.041  19.552  10.924
36380W        W97801  23.730  39.892   2.290
36381W        W97802  21.256   3.783   4.773
36382W        W97803  39.555  13.282  14.799
36383W        W97804   9.194  42.504   1.397
36384W        W97805   8.701   2.295  14.852
36385W        W97806  43.013   7.849   2.337
36386W        W97807  37.542  22.710   4.116
36387W        W97808  24.664  30.562  14.391
36388W        W97809  28.512  19.261   0.400
36389W        W97810  21.101  44.268   4.263
36390W        W97811   7.308  29.950   3.722
36391W        W97812  18.608  33.107  10.462
36392W        W97813  17.709  33.463  10.589
36393W        W97814  36.073  11.839  11.952
36394W        W97815  17.182  43.990   4.619
36395W        W97816  35.474  39.521   4.734
36396W        W97817  42.017  10.269  13.918
36397W        W97818  28.509  24.196   1.812
36398W        W97819  14.626  22.723   1.772
36399W        W97820  23.532  19.661  14.434
36400W        W97821  12.198  19.684  10.448
36401W        W97822  37.410  24.584   1.696
36402W        W97823  30.506  29.594  11.524
36403W        W97824  29.953  41.864  14.336
36404W        W97825  10.765  19.184  12.387
36405W        W97826  26.154  44.360  11.940
36406W        W97827  36.566  37.413  13.870
36407W        W97828  21.095  34.045   1.859
36408W        W97829   6.680   5.219   0.321
36409W        W97830   2.287  20.107   0.779
36410W        W97831  26.685   2.391  11.434
36411W        W97832  38.030  44.296  11.553
36412W        W97833  14.263  44.501   3.836
36413W        W97834  17.597  44.870   4.248
36414W        W97835  15.782   6.345   0.902
36415W        W97836   6.277  27.609   3.386
36416W        W97837  29.013  20.169   2.219
36417W        W97838  17.793   1.809  13.873
36418W        W97839   4.232  32.522   1.246
36419W        W97840  26.586  43.003   1.732
36420W        W97841   9.378   0.777   1.274
36421W        W97842  11.856  38.515  11.558
36422W        W97843  21.127  14.220   0.341
36423W        W97844  25.659  30.546  11.103
36424W        W97845   9.174  30.622   9.945
36425W        W97846  38.846   9.393  10.063
36426W        W97847  20.072  18.101   5.295
36427W        W97848  13.345  33.919  12.892
36428W        W97849   9.298  28.047   3.157
36429W        W97850   5.918  27.519   2.669
36430W        W97851   8.180  39.478  11.592
36431W        W97852   0.759  21.577  10.548
36432W        W97853   1.924   3.357  12.874
36433W        W97854  32.600  36.930  11.546
36434W        W97855  29.604  44.319   1.345
36435W        W97856  42.950  35.440   0.830
36436W        W97857   4.911  37.498  12.380
36437W        W97858  20.669  10.310  12.957
36438W        W97859  11.252   6.686   3.677
36439W        W97860  34.103   6.778   1.296
36440W        W97861  21.259   2.375   4.712
36441W        W97862  43.274  22.241  12.025
36442W        W97863  22.678  10.706   2.250
36443W        W97864  19.198   0.251  11.939
36444W        W97865  19.102  38.034  12.054
36445W        W97866  36.018  17.195  12.350
36446W        W97867  40.007  42.864   0.748
36447W        W97868  11.667  13.141   4.317
36448W        W97869  10.732  43.387   3.238
36449W        W97870  15.577   1.838  14.871
36450W        W97871  19.087  10.668   3.759
36451W        W97872  16.703  24.564   4.727
36452W        W97873  21.645  26.466   2.809
36453W        W97874  32.905  13.344  14.773
36454W        W97875   3.395  40.353   3.182
36455W        W97876  25.555  14.749   0.780
36456W        W97877  17.624  40.915   3.174
36457W        W97878  20.197  11.137   3.825
36458W        W97879  42.945  20.750   1.750
36459W        W97880  40.897  27.590  10.560
36460W        W97881  40.438  14.746   1.910
36461W        W97882  17.120  14.781   2.354
36462W        W97883  22.148  42.879   4.797
36463W        W97884  10.362   0.944  12.569
36464W        W97885  26.151  21.245  12.848
36465W        W97886  13.302  39.972   3.757
36466W        W97887  18.192  31.106   1.443
36467W        W97888  21.617   0.930  12.445
36468W        W97889  11.181  40.416   3.214
36469W        W97890  23.146   2.917  13.325
36470W        W97891  24.087  39.856   3.199
36471W        W97892  35.378  22.193  13.935
36472W        W97893   9.392  35.949   0.481
36473W        W97894  34.577  10.203  14.780
36474W        W97895  38.832   1.879   4.134
36475W        W97896  25.606  31.992  11.994
36476W        W97897  39.448  16.768   4.674
36477W        W97898   3.951   8.869   0.433
36478W        W97899  27.668  25.158   3.764
36479W        W97900  30.419  32.123  11.955
36480W        W97901  37.360   9.212   4.131
36481W        W97902   0.409  35.387  10.601
36482W        W97903  33.880  42.958   2.233
36483W        W97904  27.956  37.566  11.064
36484W        W97905  30.016  33.000   4.244
36485W        W97906  40.816  24.993   0.852
36486W        W97907  19.616  33.388   0.884
36487W        W97908  11.813  27.113  11.946
36488W        W97909   7.393   3.831  12.493
36489W        W97910  29.508  39.547  11.470
36490W        W97911  38.850   8.376  14.936
36491W        W97912   0.295  23.068  14.337
36492W        W97913  35.076  36.571   2.396
36493W        W97914  30.573  40.979  10.896
36494W        W97915  21.623  13.646   1.718
36495W        W97916   6.195  30.125   2.394
36496W        W97917   5.758   6.885  10.537
36497W        W97918   2.312  32.452   2.706
36498W        W97919  34.863  31.484   0.955
36499W        W97920  34.071  24.167   3.702
36500W        W97921  16.671  25.601   3.749
36501W        W97922  31.511   0.891  11.127
36502W        W97923  44.945  12.163   4.608
36503W        W97924  22.151  19.132   3.722
36504W        W97925  12.829  27.034  13.820
36505W        W97926  25.642   3.366   4.247
36506W        W97927  30.055  44.767   0.904
36507W        W97928  43.836   3.766  10.441
36508W        W97929  35.033  29.094  14.796
36509W        W97930  19.556  27.019   0.856
36510W        W97931  26.646  41.858   3.216
36511W        W97932  44.265  31.148   2.225
36512W        W97933  12.331  42.825   4.218
36513W        W97934  34.107  20.059  12.892
36514W        W97935  34.486   5.727  13.461
36515W        W97936  36.466  34.048   3.774
36516W        W97937  21.606  15.295  10.973
36517W        W97938   4.708  30.002  10.637
36518W        W97939  26.629  32.097  14.362
36519W        W97940  30.003  13.795   2.735
36520W        W97941   6.296  34.375  10.107
36521W        W97942  27.017  27.632  11.050
36522W        W97943   4.277  36.842  14.333
36523W        W97944   9.231  44.830   4.768
36524W        W97945   1.880  44.754   0.746
36525W        W97946  23.726  40.939  12.934
36526W        W97947  17.763  28.493   1.755
36527W        W97948  33.984  21.690  14.302
36528W        W97949  36.956  16.674   4.662
36529W        W97950  33.946  27.965   2.861
36530W        W97951  23.206  41.840   4.218
36531W        W97952   6.849   3.354   5.139
36532W        W97953   0.937  18.094   3.296
36533W        W97954  11.171  41.846  12.548
36534W        W97955  12.796  37.057   0.397
36535W        W97956  16.807   3.306   3.184
36536W        W97957  37.419  19.778   1.379
36537W        W97958  22.201  41.883   1.815
36538W        W97959  42.926   2.379   3.256
36539W        W97960  33.475  37.560  12.983
36540W        W97961  27.465  29.636  10.587
36541W        W97962  28.656  18.670  14.453
36542W        W97963  18.589  10.716  11.993
36543W        W97964  31.900  29.426   0.778
36544W        W97965  12.778  25.542  14.443
36545W        W97966   7.700  27.991  14.346
36546W        W97967  18.702  22.546  13.032
36547W        W97968  34.068  15.186  14.990
36548W        W97969   2.281  42.501   3.639
36549W        W97970  13.175   5.694  10.469
36550W        W97971  13.802  34.045   2.770
36551W        W97972   1.335  43.502   4.248
36552W        W97973  12.759  25.609  11.462
36553W        W97974   7.668   7.742  14.454
36554W        W97975  14.729  35.513  13.312
36555W        W97976  35.516  19.095  13.491
36556W        W97977  39.491   9.207  14.908
36557W        W97978   0.277   1.938   2.270
36558W        W97979  32.460   7.229   3.739
36559W        W97980  42.969  11.257   1.765
36560W        W97981   6.193   4.870  13.040
36561W        W97982  32.891  39.901   2.744
36562W        W97983   6.848  24.642  10.920
36563W        W97984   9.379  34.434   2.793
36564W        W97985  36.442  32.930  13.363
36565W        W97986   2.291   6.772  12.846
36566W        W97987  36.890  10.750  11.456
36567W        W97988  39.423   2.437  13.473
36568W        W97989  28.167  35.867  13.502
36569W        W97990  44.368  15.137   3.780
36570W        W97991  14.314   3.400   1.329
36571W        W97992  10.208  41.361  14.431
36572W        W97993  31.973  35.066   3.688
36573W        W97994   5.878  35.034   3.278
36574W        W97995  44.386  31.604  12.487
36575W        W97996  17.270  25.478   3.182
36576W        W97997   2.861  36.928  10.503
36577W        W97998  36.590  13.175   3.336
36578W        W97999  40.891  12.289  13.346
36579W        W98000   0.808  34.404   4.299
36580W        W98001  10.669  15.810  10.509
36581W        W98002  14.238  43.918  12.559
36582W        W98003  16.760   6.251   1.370
36583W        W98004  11.746   3.392   4.182
36584W        W98005  22.126   7.875  12.955
36585W        W98006   8.837  13.760   1.913
36586W        W98007   1.306  36.090   4.810
36587W        W98008  43.802  24.108   3.305
36588W        W98009   3.235   5.265  14.885
36589W        W98010   9.839  16.279  11.608
36590W        W98011  31.435  21.050   2.820
36591W        W98012  29.626  42.998   2.820
36592W        W98013   6.808  17.141  13.429
36593W        W98014  39.947   0.969   4.776
36594W        W98015  38.507   9.718   3.699
36595W        W98016  39.995  26.972   4.239
36596W        W98017  28.995  35.581   0.813
36597W        W98018  29.486   4.917  13.533
36598W        W98019  28.120  12.688  12.399
36599W        W98020  18.282  12.304  13.320
36600W        W98021  14.153   7.891  12.993
36601W        W98022  29.481  37.339   3.817
36602W        W98023   3.236   6.427   3.234
36603W        W98024   8.307  10.236   3.381
36604W        W98025  33.885  40.377  12.880
36605W        W98026  19.244   0.950  12.513
36606W        W98027  42.832  29.051  14.480
36607W        W98028  20.243  10.366  13.531
36608W        W98029  13.136  28.108   4.759
36609W        W98030  14.608  42.799   0.928
36610W        W98031  36.347   9.678   3.868
36611W        W98032  20.034  38.967   2.831
36612W        W98033  27.947  33.395   2.198
36613W        W98034  26.109  34.565   3.827
36614W        W98035  29.131  10.633   3.260
36615W        W98036  10.223  42.851   3.698
36616W        W98037  16.604  41.817  14.324
36617W        W98038  35.604  19.731  13.797
36618W        W98039  36.930   2.951   9.928
36619W        W98040  41.403   5.877  12.503
36620W        W98041  19.667  11.757  12.505
36621W        W98042  22.656   2.853   2.392
36622W        W98043  12.357  22.569  12.972
36623W        W98044   1.932   0.331  11.881
36624W        W98045   6.315  37.013  10.558
36625W        W98046  42.942  17.641  12.555
36626W        W98047  10.270  35.048  12.452
36627W        W98048  26.097  28.435   2.286
36628W        W98049  20.226  44.278   2.879
36629W        W98050  36.484  28.954  13.358
36630W        W98051  24.001  23.032   4.320
36631W        W98052  25.686  22.223  11.979
36632W        W98053   6.821  39.999  14.845
36633W        W98054   4.877  23.138   1.366
36634W        W98055  26.991   5.803   4.738
36635W        W98056  20.568  14.270  13.941
36636W        W98057   5.843  38.866  11.929
36637W        W98058  17.775   9.194  11.529
36638W        W98059  36.010   5.798   0.774
36639W        W98060  43.313   4.701   1.341
36640W        W98061  33.935  41.318   0.753
36641W        W98062  29.563  12.631   2.750
36642W        W98063  24.021  26.095  13.310
36643W        W98064  38.831  33.562  14.002
36644W        W98065   3.294   2.751  14.962
36645W        W98066  31.148  26.456  12.408
36646W        W98067  38.512  27.635  11.467
36647W        W98068  43.879  37.407  13.051
36648W        W98069   1.848  26.702  14.802
36649W        W98070  37.837  34.076  14.837
36650W        W98071  41.491  38.975   1.284
36651W        W98072  19.726  35.029  13.846
36652W        W98073  28.555  25.982   3.355
36653W        W98074   6.678   0.759  10.484
36654W        W98075  40.828  11.131   4.219
36655W        W98076  26.462  21.151  14.781
36656W        W98077  39.372  33.478   2.344
36657W        W98078  15.190  38.428   1.764
36658W        W98079  22.591  13.631  12.848
36659W        W98080  35.060  37.470  14.423
36660W        W98081   4.356  32.407  13.397
36661W        W98082  36.854   2.263   0.347
36662W        W98083   7.903   8.786  12.835
36663W        W98084  29.104  15.585   3.291
36664W        W98085  17.144  19.269   3.256
36665W        W98086  19.039  35.531   1.311
36666W        W98087  28.615  28.945   2.809
36667W        W98088   4.413   4.839   4.670
36668W        W98089  22.707  35.053  14.924
36669W        W98090  38.385   7.750   0.951
36670W        W98091  14.259  14.189  13.524
36671W        W98092  22.190  34.958   0.852
36672W        W98093  40.447  43.896   0.925
36673W        W98094  29.559  37.373   9.950
36674W        W98095   9.802  31.908   3.795
36675W        W98096  41.302  27.098  12.044
36676W        W98097  42.848  16.813  11.536
36677W        W98098   6.854  33.962   2.266
36678W        W98099  22.538  35.364  12.540
36679W        W98100   6.426  24.532   5.645
36680W        W98101  17.749  30.571   2.266
36681W        W98102  19.537   6.691  13.028
36682W        W98103   3.851   7.882   0.963
36683W        W98104   6.768  25.021   9.952
36684W        W98105  31.523  22.568  11.373
36685W        W98106  13.268   1.830   2.864
36686W        W98107  16.233  41.002   3.185
36687W        W98108  17.771  32.021   3.331
36688W        W98109   0.284  35.860   3.180
36689W        W98110  28.519  34.973  10.506
36690W        W98111  42.976  41.903  11.549
36691W        W98112  32.042  32.559  10.910
36692W        W98113   5.882  15.781   4.200
36693W        W98114  20.720  34.562   0.907
36694W        W98115   5.874  12.652  11.108
36695W        W98116  14.613  23.493   4.615
36696W        W98117  36.930  13.141   1.697
36697W        W98118  12.807  15.592  12.889
36698W        W98119  11.219  13.694   3.304
36699W        W98120   9.200  28.491  13.448
36700W        W98121  21.582  44.332  13.965
36701W        W98122  21.732  23.115  14.487
36702W        W98123  41.814  39.518   2.778
36703W        W98124  19.663  19.535   4.800
36704W        W98125   1.246  30.994  13.385
36705W        W98126   8.742  34.991   3.787
36706W        W98127  34.501  38.949  11.128
36707W        W98128   5.362  42.859   0.376
36708W        W98129   7.224  21.121  10.405
36709W        W98130  36.554  18.705  14.372
36710W        W98131   8.745  38.077   0.788
36711W        W98132   3.907  22.559   4.161
36712W        W98133  24.577  28.013  11.958
36713W        W98134  37.524   2.383   2.317
36714W        W98135  39.321   9.670   4.321
36715W        W98136  13.127   8.790   1.326
36716W        W98137   8.876  42.333  12.952
36717W        W98138   4.810   3.376  12.989
36718W        W98139  26.644   2.338  12.383
36719W        W98140  19.630  38.494   0.418
36720W        W98141  26.188  23.222   1.293
36721W        W98142  23.615  15.290  14.848
36722W        W98143  26.530  21.728  11.030
36723W        W98144  29.452   0.780   3.189
36724W        W98145  41.998  18.186   1.440
36725W        W98146  30.008  40.016   4.746
36726W        W98147  35.496  36.524   4.820
36727W        W98148  43.839  20.154  11.404
36728W        W98149   5.263   3.890  11.510
36729W        W98150  30.602   6.427  13.999
36730W        W98151  44.362  13.155  14.957
36731W        W98152   0.432  36.020  14.320
36732W        W98153  42.862  15.216  13.038
36733W        W98154  37.832  37.483  14.846
36734W        W98155  24.685  20.114  13.515
36735W        W98156  35.904   1.759  12.916
36736W        W98157  38.403  40.849  12.362
36737W        W98158  21.588  27.990  13.498
36738W        W98159  37.491  36.455   4.315
36739W        W98160  31.124  12.252   4.624
36740W        W98161  35.555  38.563  14.391
36741W        W98162  17.678  42.282   2.224
36742W        W98163  40.538  19.698  12.928
36743W        W98164   8.887  21.213   4.795
36744W        W98165   4.893   4.705   4.682
36745W        W98166  21.667  27.575   0.898
36746W        W98167   3.371  29.092   0.331
36747W        W98168  29.996   1.815   1.364
36748W        W98169  43.946  35.990   2.763
36749W        W98170  19.596  10.789   2.808
36750W        W98171   5.228  43.921   1.745
36751W        W98172  28.166   6.267   1.381
36752W        W98173   1.240  41.350   3.318
36753W        W98174  11.624  28.985  13.859
36754W        W98175  40.809   6.733  14.409
36755W        W98176   6.368  33.938  10.564
36756W        W98177  40.854  26.575  13.044
36757W        W98178  26.701  15.231   1.430
36758W        W98179  25.673  39.482  13.525
36759W        W98180  26.674   7.399  12.014
36760W        W98181  11.747  17.127   2.690
36761W        W98182   1.858  12.646   1.861
36762W        W98183   9.835  36.556  11.507
36763W        W98184  17.640  34.033   3.802
36764W        W98185  24.032   8.348  13.916
36765W        W98186   1.247  41.926  14.777
36766W        W98187   7.841  16.698   0.952
36767W        W98188  11.364  14.183   2.317
36768W        W98189  16.587  11.162  12.396
36769W        W98190   8.299  22.663  14.290
36770W        W98191  10.699  28.588   1.274
36771W        W98192  25.543  29.073   1.876
36772W        W98193  43.500  15.327   9.677
36773W        W98194   3.311   7.867   2.236
36774W        W98195  25.468  21.196   4.114
36775W        W98196   6.716  16.696  13.853
36776W        W98197  21.683  40.312   0.281
36777W        W98198  26.570   1.869   0.336
36778W        W98199  31.045  17.083  14.380
36779W        W98200  38.871  40.809  10.029
36780W        W98201  28.587  20.755   0.899
36781W        W98202  42.369  34.445   1.817
36782W        W98203  33.934  16.224  13.014
36783W        W98204  41.009  25.975  12.404
36784W        W98205  30.594  11.368   9.986
36785W        W98206  36.503   4.718   0.294
36786W        W98207  22.008  40.397  11.530
36787W        W98208  29.593  31.068  13.954
36788W        W98209  37.575  40.375   2.694
36789W        W98210  30.486  41.443   1.751
36790W        W98211  17.115  19.731  10.991
36791W        W98212  37.575   1.853   4.691
36792W        W98213  14.119  34.072  12.461
36793W        W98214   7.394  44.932   3.247
36794W        W98215  36.408  11.845   3.689
36795W        W98216  29.934  29.148   0.438
36796W        W98217  36.557   2.385   5.222
36797W        W98218  36.369   1.411   4.141
36798W        W98219   2.386  27.482  12.573
36799W        W98220  10.670  21.737   0.326
36800W        W98221  13.214  16.798   2.675
36801W        W98222   9.250  35.911  10.933
36802W        W98223  23.709   2.812   3.680
36803W        W98224   5.887   3.944  13.535
36804W        W98225  29.139  33.398   1.239
36805W        W98226  32.432  26.196  13.018
36806W        W98227  41.816  26.161   3.815
36807W        W98228  22.088  26.558   0.441
36808W        W98229  40.893   4.376  11.430
36809W        W98230   1.372   7.375  11.027
36810W        W98231  36.950  16.703  11.573
36811W        W98232   7.396  24.531   3.345
36812W        W98233  33.928   6.358   1.318
36813W        W98234  27.612  28.122  12.371
36814W        W98235  11.766  17.127   1.807
36815W        W98236  38.436   9.875   0.458
36816W        W98237   4.870  18.202   0.907
36817W        W98238  35.368   8.817   5.207
36818W        W98239  30.040  37.841   2.679
36819W        W98240  19.685  39.483  12.951
36820W        W98241  18.645  23.661   9.966
36821W        W98242  30.432  27.140   1.873
36822W        W98243  31.420  19.139   1.325
36823W        W98244  16.124   9.705   4.221
36824W        W98245   7.806  41.346  14.882
36825W        W98246  30.941   4.327  11.490
36826W        W98247  16.581  43.301  10.430
36827W        W98248  44.332  21.168  11.493
36828W        W98249  23.159  16.174  10.890
36829W        W98250  25.023  23.606   0.911
36830W        W98251  35.952   7.209   2.239
36831W        W98252  21.145  39.048  10.639
36832W        W98253  37.493  30.919   3.698
36833W        W98254  34.900   9.709   1.869
36834W        W98255  39.062  10.259  14.454
36835W        W98256  13.704  14.797  13.009
36836W        W98257  36.867  42.019   0.797
36837W        W98258   3.232   9.839  13.354
36838W        W98259  37.441  29.020   0.409
36839W        W98260  27.019   0.960   4.209
36840W        W98261  34.930   9.326   2.353
36841W        W98262  19.159  40.974  10.632
36842W        W98263  20.767  37.358  10.425
36843W        W98264  25.581  25.050  14.862
36844W        W98265  37.031   6.840   2.298
36845W        W98266  19.105   5.402  12.444
36846W        W98267  11.174   6.857  12.040
36847W        W98268  20.205   2.954  13.840
36848W        W98269  16.274  34.552   5.792
36849W        W98270  37.004   4.768  13.543
36850W        W98271  40.486  30.055   4.350
36851W        W98272  13.178  15.787   1.739
36852W        W98273  27.445  43.833   0.447
36853W        W98274  38.984  23.032  11.544
36854W        W98275  24.985  14.714   4.210
36855W        W98276  30.482  26.178  11.386
36856W        W98277  23.503  15.274  11.017
36857W        W98278  37.896  17.766   1.397
36858W        W98279   5.254  17.096   1.367
36859W        W98280   3.712  16.806  10.559
36860W        W98281  35.003   2.899  11.576
36861W        W98282  36.463  36.891  14.366
36862W        W98283   3.296  28.004  12.013
36863W        W98284   4.729  37.853  11.993
36864W        W98285  16.596  20.180  13.833
36865W        W98286   5.412  29.561  12.568
36866W        W98287  17.176  15.303  14.433
36867W        W98288  17.185  42.935  11.389
36868W        W98289  38.400  29.535   2.362
36869W        W98290  41.026  16.762   0.400
36870W        W98291  38.468   7.844  13.923
36871W        W98292  28.168  33.483  14.999
36872W        W98293  36.098   0.814  12.868
36873W        W98294  16.075  20.733  10.433
36874W        W98295  25.649  24.988  11.529
36875W        W98296  22.603  19.655   3.658
36876W        W98297   8.749  29.568   0.437
36877W        W98298   9.293  32.525  14.762
36878W        W98299  15.123   3.365  11.060
36879W        W98300  19.681  21.126  11.434
36880W        W98301  33.438  26.026  11.958
36881W        W98302   6.915   2.723   0.438
36882W        W98303   8.898  37.354   3.313
36883W        W98304  35.973  24.504  13.873
36884W        W98305  33.426  23.158  14.772
36885W        W98306  20.092  30.629   4.176
36886W        W98307  21.640  37.489  13.832
36887W        W98308  31.115  24.174  12.067
36888W        W98309  26.167  16.129   2.891
36889W        W98310  13.661  12.361  12.958
36890W        W98311  16.689  40.916   3.711
36891W        W98312  38.470   8.174   1.355
36892W        W98313  27.619   1.340  10.498
36893W        W98314  11.803  40.488  10.954
36894W        W98315  29.667  31.909   4.612
36895W        W98316   5.417   3.251   4.683
36896W        W98317  32.457  27.959   1.796
36897W        W98318   8.215   9.786  14.377
36898W        W98319  35.483  39.428  11.567
36899W        W98320  18.202  19.072  14.348
36900W        W98321   8.671  34.984   4.158
36901W        W98322  26.029  38.525  13.442
36902W        W98323  40.356   9.855  11.404
36903W        W98324  31.912  32.418  10.446
36904W        W98325  21.224  34.041   2.780
36905W        W98326   7.408   5.354   1.901
36906W        W98327  26.536  30.476  14.837
36907W        W98328  25.040  41.381   0.726
36908W        W98329  15.658  13.694  13.045
36909W        W98330  20.686   0.954   0.726
36910W        W98331  34.028  10.705   0.741
36911W        W98332  43.962  26.120   4.331
36912W        W98333   8.176   0.980   4.747
36913W        W98334   0.933   5.304  11.916
36914W        W98335  20.570  42.887   0.936
36915W        W98336  16.719  40.006   3.329
36916W        W98337  27.592  37.906   1.382
36917W        W98338   2.369  17.138   4.233
36918W        W98339   2.307   5.310   3.193
36919W        W98340   6.731  40.413   3.869
36920W        W98341  19.664  43.270   5.199
36921W        W98342  29.150  19.735  14.292
36922W        W98343  39.995  21.672  13.387
36923W        W98344  27.151  34.613  13.463
36924W        W98345  39.828  35.926  13.383
36925W        W98346   3.855  42.508   3.751
36926W        W98347  26.985  27.027  12.461
36927W        W98348  27.008  32.059   4.704
36928W        W98349  34.065  34.603  12.563
36929W        W98350   3.926  30.618  13.992
36930W        W98351   1.764  37.477   2.878
36931W        W98352   0.869  23.046   2.248
36932W        W98353  24.003  12.140  11.103
36933W        W98354  39.546  38.508  11.127
36934W        W98355  17.292  42.412   3.219
36935W        W98356  44.402   5.761  11.101
36936W        W98357  10.672  17.292  11.866
36937W        W98358  37.540  39.393   4.337
36938W        W98359  40.303  11.641  12.544
36939W        W98360  10.695   3.425  14.290
36940W        W98361  42.966  31.123   3.687
36941W        W98362  24.689  41.523  11.474
36942W        W98363  40.828  29.953   1.800
36943W        W98364   5.777  41.952  11.482
36944W        W98365  39.959  20.088  11.382
36945W        W98366  38.476  40.843  13.427
36946W        W98367  37.335  41.841   2.843
36947W        W98368  33.015  33.550   2.856
36948W        W98369  42.415  38.969  14.318
36949W        W98370  20.532  25.579  14.516
36950W        W98371  31.420  13.736  11.902
36951W        W98372  41.455   6.832   1.727
36952W        W98373  32.078  35.908   0.948
36953W        W98374  22.056  23.044  13.525
36954W        W98375  22.186  42.017   2.849
36955W        W98376  28.637  18.705  12.053
36956W        W98377  41.454  42.488   1.321
36957W        W98378  12.617  22.727  14.804
36958W        W98379  29.621  31.074   0.962
36959W        W98380  27.526  12.700  13.521
36960W        W98381  36.400  30.609  12.340
36961W        W98382  20.541  32.114   4.170
36962W        W98383   0.851  43.341   2.810
36963W        W98384  20.175   9.167   1.240
36964W        W98385  25.550  32.612  13.477
36965W        W98386  33.905  12.287   9.471
36966W        W98387  39.360  21.607   2.307
36967W        W98388  18.176  20.575   3.784
36968W        W98389  32.084  35.390   1.340
36969W        W98390  42.359  25.987  10.888
36970W        W98391   9.863  28.555   2.787
36971W        W98392  10.306  13.780   3.781
36972W        W98393  34.410  36.903   4.153
36973W        W98394  20.658   9.312  10.907
36974W        W98395  41.441  28.119   3.262
36975W        W98396  40.866  18.097   2.716
36976W        W98397  30.421   1.864  12.971
36977W        W98398  19.631   5.213   9.523
36978W        W98399  43.306   2.861   3.385
36979W        W98400   0.486  37.831   1.901
36980W        W98401   9.686  37.548   4.682
36981W        W98402  29.601  20.527   4.817
36982W        W98403  14.271   1.874   2.792
36983W        W98404  26.556  13.265  10.499
36984W        W98405   0.795  18.583   2.699
36985W        W98406  40.054  31.071   4.819
36986W        W98407  18.692  38.414   1.932
36987W        W98408   3.838   5.304   1.845
36988W        W98409   9.261   2.265  12.041
36989W        W98410  43.434  40.906  11.573
36990W        W98411   6.346  34.928   2.740
36991W        W98412  34.440  14.277  14.446
36992W        W98413  10.328  15.127   1.894
36993W        W98414  37.935  43.407   4.195
36994W        W98415  33.397   8.344  13.357
36995W        W98416  30.913  24.665  11.047
36996W        W98417  34.896  10.186  12.019
36997W        W98418  34.864  20.173   3.722
36998W        W98419  21.668  34.579   0.933
36999W        W98420   9.192  17.634  13.457
37000W        W98421  31.631  26.197   3.864
37001W        W98422  21.188  33.072   0.472
37002W        W98423  11.694   1.910   0.260
37003W        W98424   0.781  10.285  11.436
37004W        W98425  34.386  15.663  11.514
37005W        W98426  27.150  10.732  13.907
37006W        W98427  14.723   5.722   3.312
37007W        W98428  32.582  21.135  10.024
37008W        W98429  13.614  22.620  10.909
37009W        W98430  11.345   1.289  14.449
37010W        W98431   8.777  42.925  11.612
37011W        W98432  27.104  17.116   4.313
37012W        W98433   6.681  31.105   4.131
37013W        W98434   3.454  11.346  11.915
37014W        W98435  44.424   7.689   4.703
37015W        W98436  14.674   3.710  10.550
37016W        W98437  36.059  28.636  13.870
37017W        W98438  31.957   1.922   3.713
37018W        W98439  21.246  29.144  10.542
37019W        W98440  33.429  34.472  10.594
37020W        W98441  23.516  17.101  11.502
37021W        W98442   4.280  40.811   0.462
37022W        W98443  30.067   3.407   2.322
37023W        W98444  29.093  36.842   3.758
37024W        W98445  17.719   6.260   0.326
37025W        W98446  18.250  41.786  12.927
37026W        W98447   7.865  23.176  14.789
37027W        W98448   2.390  12.638  13.880
37028W        W98449  31.578  17.181   9.980
37029W        W98450  38.859  13.834  14.833
37030W        W98451  38.524   6.712   0.962
37031W        W98452  37.869  40.452   1.768
37032W        W98453   5.721   7.814   1.807
37033W        W98454   5.752  21.550   2.350
37034W        W98455  15.084   1.915   0.898
37035W        W98456  37.340  21.262  14.304
37036W        W98457  21.621  19.562  14.990
37037W        W98458  34.018  38.403   1.297
37038W        W98459  26.458  35.434  13.394
37039W        W98460  16.789  38.890   2.811
37040W        W98461  10.194  31.126   2.786
37041W        W98462  24.977  28.018   2.232
37042W        W98463  16.780   9.737   0.749
37043W        W98464  19.585  22.570  11.028
37044W        W98465  20.757  37.528   3.290
37045W        W98466  28.148   8.304  10.552
37046W        W98467  40.472  22.586   9.981
37047W        W98468  26.584  30.565   3.304
37048W        W98469  12.267  32.010   3.797
37049W        W98470  40.429   5.350  12.909
37050W        W98471  10.351  37.023   4.637
37051W        W98472  18.655  34.381   3.377
37052W        W98473  35.433  38.982  13.815
37053W        W98474  29.429  37.005  13.857
37054W        W98475  20.687  14.734   2.389
37055W        W98476  24.724  16.567   3.236
37056W        W98477  38.432   5.760  11.546
37057W        W98478  24.584   0.461  14.938
37058W        W98479  20.263  26.652  10.637
37059W        W98480  10.365   2.851  14.353
37060W        W98481   6.914  32.605   2.816
37061W        W98482  20.612  23.537  13.418
37062W        W98483   0.392  16.785  12.398
37063W        W98484  36.532  30.509  14.976
37064W        W98485   9.764  11.342  13.328
37065W        W98486  38.037  20.660   3.251
37066W        W98487  22.681  30.152  11.089
37067W        W98488  42.382  27.503  12.535
37068W        W98489   9.243  34.565  12.501
37069W        W98490  11.163  40.377   9.922
37070W        W98491  42.459  38.486  12.900
37071W        W98492  37.500  40.937   0.272
37072W        W98493   9.774  44.796   0.787
37073W        W98494  35.871  32.577  12.568
37074W        W98495   2.245  36.896   0.805
37075W        W98496   5.831  11.344   1.385
37076W        W98497  34.369   8.858  11.950
37077W        W98498  44.325   9.738  14.973
37078W        W98499  38.524  38.525  10.496
37079W        W98500  17.120   8.281  14.872
37080W        W98501  30.135  26.489   1.847
37081W        W98502   6.777   3.415   1.886
37082W        W98503   2.257  37.376   2.667
37083W        W98504  30.106   2.433  12.899
37084W        W98505   6.729  39.029   3.299
37085W        W98506  43.862  31.143  11.048
37086W        W98507   6.786  19.620   3.731
37087W        W98508  27.617  13.164   0.831
37088W        W98509   8.843  11.836   1.238
37089W        W98510  10.773  34.609  10.544
37090W        W98511  33.513   9.871  12.868
37091W        W98512   7.715   2.812   1.238
37092W        W98513  21.639  14.655   3.869
37093W        W98514  22.129  15.643  12.954
37094W        W98515   6.775  30.428   4.643
37095W        W98516   7.892  20.734   1.431
37096W        W98517  19.751  29.527  11.989
37097W        W98518  41.305  16.118   9.496
37098W        W98519  22.149  21.579   4.333
37099W        W98520  18.657  23.497  14.766
37100W        W98521  26.138  25.478   2.853
37101W        W98522   4.304  11.277   3.244
37102W        W98523   1.954   9.770   0.395
37103W        W98524  27.181  21.102   4.645
37104W        W98525   8.812  42.474  10.460
37105W        W98526   4.240  18.125  12.507
37106W        W98527   5.197  35.979   2.384
37107W        W98528  36.552  43.504   1.247
37108W        W98529  21.241  10.679   1.443
37109W        W98530   3.443   6.193   5.108
37110W        W98531  12.665  17.172   0.791
37111W        W98532  33.535   7.906   5.199
37112W        W98533  15.205  43.890  14.442
37113W        W98534  12.231  35.858   3.169
37114W        W98535  25.046  26.124   0.912
37115W        W98536  27.020   4.881  10.642
37116W        W98537  39.555  20.264  12.519
37117W        W98538  27.467  23.668  13.462
37118W        W98539  34.981   9.208   4.613
37119W        W98540   5.218   0.753  14.835
37120W        W98541  24.599  41.793   2.359
37121W        W98542  42.902  44.495   4.125
37122W        W98543   5.281  17.207   4.160
37123W        W98544  40.336  12.230  13.059
37124W        W98545  10.637  17.231   4.766
37125W        W98546  16.771  29.544  13.798
37126W        W98547  19.713  27.159   3.385
37127W        W98548  20.257  22.612   1.890
37128W        W98549  26.650  39.013  11.397
37129W        W98550   3.951  43.969   4.814
37130W        W98551   1.875  12.232   3.280
37131W        W98552  29.661  23.214   1.799
37132W        W98553  26.603   5.246   1.733
37133W        W98554  42.965  22.046   1.341
37134W        W98555  37.487  36.518   2.277
37135W        W98556  44.758  13.332  10.486
37136W        W98557  22.215  11.732   2.753
37137W        W98558  21.572  27.031  10.407
37138W        W98559  22.717  38.914  11.604
37139W        W98560   6.264   9.157   3.747
37140W        W98561  33.617  32.998   3.297
37141W        W98562  25.704  20.177  13.931
37142W        W98563  16.802  27.191  14.275
37143W        W98564  24.684   2.379   1.406
37144W        W98565  30.058  43.449   0.927
37145W        W98566  26.545  22.139   3.726
37146W        W98567  27.072   1.733  10.551
37147W        W98568   9.743   1.471  10.464
37148W        W98569  14.695   1.437   3.289
37149W        W98570   7.335  29.569   0.840
37150W        W98571  33.879  29.050   3.723
37151W        W98572   5.269  27.575   0.766
37152W        W98573   7.187   1.350  11.966
37153W        W98574  24.149  24.708   2.373
37154W        W98575  29.949   4.839  11.963
37155W        W98576   8.815   0.869  11.110
37156W        W98577   4.814  12.125   0.381
37157W        W98578  22.247  13.818  12.522
37158W        W98579  43.943  13.754  13.875
37159W        W98580  36.029  38.827   0.740
37160W        W98581   9.709  13.331  10.568
37161W        W98582  41.473  41.947  13.411
37162W        W98583   1.437  30.993  13.935
37163W        W98584  41.909  19.103  13.309
37164W        W98585  21.185  29.518  10.413
37165W        W98586  29.033  14.655   3.320
37166W        W98587   9.763   4.734  13.352
37167W        W98588  30.470   6.807  10.444
37168W        W98589  44.304  38.025   4.155
37169W        W98590  31.421  28.613   0.271
37170W        W98591  23.585  27.071   4.241
37171W        W98592   2.332  14.173   4.718
37172W        W98593   0.383  28.443  11.102
37173W        W98594  40.993  23.705  14.372
37174W        W98595   3.360  40.008  11.996
37175W        W98596  32.056  13.185  14.811
37176W        W98597   9.675  12.816  10.552
37177W        W98598  41.355  35.892  12.949
37178W        W98599  17.623  41.919  12.557
37179W        W98600  39.516  43.957   2.325
37180W        W98601  32.082  25.209   9.990
37181W        W98602  10.680  14.209   2.228
37182W        W98603  41.376   7.682  14.002
37183W        W98604  43.795  27.092   2.749
37184W        W98605  34.491   7.825  11.566
37185W        W98606  38.035  21.558   3.373
37186W        W98607  31.471   5.315   9.527
37187W        W98608  42.459   3.908  10.906
37188W        W98609  17.119  14.681  12.014
37189W        W98610  21.599  28.932  13.825
37190W        W98611  31.497  12.146  11.967
37191W        W98612  11.843  26.079   3.240
37192W        W98613  21.044   1.252  14.922
37193W        W98614  36.496  34.477   4.349
37194W        W98615  11.693  28.186  14.939
37195W        W98616  29.997  40.798   2.896
37196W        W98617  22.512  35.380   0.433
37197W        W98618  12.137  17.283  13.446
37198W        W98619  23.156   4.287   0.729
37199W        W98620  43.821  35.408  14.962
37200W        W98621   1.920  18.282  14.489
37201W        W98622  14.145  33.908  11.948
37202W        W98623  32.469   9.712   3.286
37203W        W98624  12.770  43.910   0.377
37204W        W98625  12.808  23.496  11.603
37205W        W98626  33.581  25.973  12.858
37206W        W98627  40.309  23.549   2.291
37207W        W98628  23.183  40.878   1.319
37208W        W98629  19.713   6.690  10.516
37209W        W98630   0.875  40.526   5.205
37210W        W98631  37.529  27.176  11.505
37211W        W98632  22.091  15.168  14.811
37212W        W98633   5.368  13.657   2.827
37213W        W98634  25.625  27.522   2.722
37214W        W98635  29.955  17.155   0.940
37215W        W98636   5.309  19.537   5.241
37216W        W98637  35.529  13.177  10.532
37217W        W98638   2.341  38.489  14.374
37218W        W98639  35.947   1.422  11.497
37219W        W98640  19.122  37.837  10.467
37220W        W98641  24.674  43.000   1.748
37221W        W98642  34.963  22.512   4.785
37222W        W98643  26.634  20.540   1.272
37223W        W98644  16.786  21.719   0.754
37224W        W98645   8.198  10.750   0.734
37225W        W98646  16.794  10.747   0.841
37226W        W98647  38.490  44.834  11.532
37227W        W98648   1.882  25.201   1.772
37228W        W98649  10.773  27.609   0.781
37229W        W98650  43.942  23.541   0.377
37230W        W98651   7.727  44.883   1.396
37231W        W98652  33.426  42.931   5.164
37232W        W98653   7.799  22.556  10.124
37233W        W98654  16.262  27.964  13.890
37234W        W98655  24.479  32.400   1.854
37235W        W98656  34.421  44.299  14.400
37236W        W98657   1.375  14.192   2.336
37237W        W98658  25.067  18.576  11.959
37238W        W98659   3.744  15.651  14.860
37239W        W98660  40.485  42.448   4.838
37240W        W98661  35.469  10.828   2.849
37241W        W98662  23.709  27.565   4.695
37242W        W98663  43.432  15.105   2.862
37243W        W98664  12.708  30.470  12.362
37244W        W98665  23.620  31.906  12.042
37245W        W98666   4.790  38.819  10.599
37246W        W98667  31.101  34.056   3.261
37247W        W98668  43.356  13.701   2.780
37248W        W98669   5.400  42.001  14.431
37249W        W98670  20.219  42.297   1.717
37250W        W98671  23.690   5.774   3.212
37251W        W98672  38.887  44.941   0.767
37252W        W98673  39.476  30.043  12.085
37253W        W98674  42.934  43.867  12.875
37254W        W98675  42.842  38.057   1.306
37255W        W98676  28.152  13.186  12.506
37256W        W98677  18.121  32.438   4.310
37257W        W98678  14.106  20.111  14.861
37258W        W98679  31.447  29.142   0.277
37259W        W98680  29.651   3.247  11.082
37260W        W98681  19.209  12.200  11.064
37261W        W98682   8.660  43.488   1.798
37262W        W98683   1.782  42.937   5.215
37263W        W98684   0.299  30.049  11.501
37264W        W98685   3.807  13.710   0.876
37265W        W98686  43.011  37.889   2.893
37266W        W98687  27.670  35.361   1.424
37267W        W98688  40.984  34.020  12.082
37268W        W98689  36.390   4.774   0.950
37269W        W98690  12.717  43.792  11.381
37270W        W98691  10.314  11.669   1.889
37271W        W98692  15.703  42.999  14.387
37272W        W98693  20.196  35.081   1.210
37273W        W98694   8.197  19.195   4.834
37274W        W98695  29.474  25.061   4.348
37275W        W98696  28.185  16.206  11.075
37276W        W98697  13.801  28.575   4.668
37277W        W98698  28.519  13.166  10.029
37278W        W98699  33.397  29.013   0.897
37279W        W98700  32.932  29.088  14.876
37280W        W98701   5.310  35.419   1.846
37281W        W98702  12.147   0.887   3.383
37282W        W98703   4.312  23.725   2.828
37283W        W98704  41.905  39.339  11.860
37284W        W98705  20.710  43.939  10.929
37285W        W98706  35.917  42.008  10.620
37286W        W98707  13.337   4.449   0.428
37287W        W98708  19.574  10.186   1.291
37288W        W98709  42.819  18.132   3.336
37289W        W98710  28.594   9.176  12.853
37290W        W98711  28.597  27.530  10.934
37291W        W98712  17.770  15.709   1.861
37292W        W98713  38.561  21.147  11.978
37293W        W98714  44.765  34.006   4.703
37294W        W98715  41.361   9.647  14.936
37295W        W98716  35.543  19.633   0.297
37296W        W98717  20.657   2.940  13.866
37297W        W98718  34.074  27.950  14.361
37298W        W98719  21.018   3.228   1.279
37299W        W98720  32.044  17.613  11.114
37300W        W98721   4.892   9.312   2.330
37301W        W98722  14.791  19.567   3.690
37302W        W98723   7.736  12.118   0.796
37303W        W98724  15.249  34.939   2.901
37304W        W98725  14.174   3.427  11.411
37305W        W98726  21.664  42.516  14.961
37306W        W98727  15.115  41.435   2.178
37307W        W98728  25.066  18.255   1.725
37308W        W98729   6.702  37.846  14.971
37309W        W98730  22.662  36.404   0.792
37310W        W98731  14.595  12.757   4.303
37311W        W98732   1.779  44.284  12.880
37312W        W98733  11.201  12.811   2.787
37313W        W98734   6.815  38.389   3.800
37314W        W98735  15.692   2.302   0.293
37315W        W98736  31.481  23.181   3.178
37316W        W98737  13.801   1.325  11.943
37317W        W98738  17.674  43.373  10.553
37318W        W98739  42.331   1.958   0.321
37319W        W98740   6.247  42.804  14.506
37320W        W98741  12.178  36.466  11.416
37321W        W98742   8.745  19.709   4.649
37322W        W98743  20.072  13.262  13.489
37323W        W98744  12.280   0.471  12.936
37324W        W98745  11.190  22.187  14.795
37325W        W98746  28.667  12.284  11.415
37326W        W98747  11.722   0.278   3.837
37327W        W98748  25.218  27.034  13.898
37328W        W98749  41.486  35.551   0.419
37329W        W98750  15.640  22.693  10.603
37330W        W98751  34.023   4.222  10.606
37331W        W98752   1.246  34.024   2.347
37332W        W98753   7.402  39.850  14.902
37333W        W98754  42.362  28.681  12.409
37334W        W98755  28.515   0.856  11.600
37335W        W98756   5.195  16.199   3.706
37336W        W98757  30.425  27.025   4.221
37337W        W98758  22.733  11.750  10.586
37338W        W98759  18.187  10.652  13.956
37339W        W98760  32.042  14.139   0.408
37340W        W98761  23.624  40.362   2.302
37341W        W98762  44.445  37.359   1.380
37342W        W98763  14.682   1.425   2.851
37343W        W98764  12.134  32.579   4.244
37344W        W98765  33.047  15.594  10.605
37345W        W98766   3.889   7.740  10.521
37346W        W98767  15.579  31.007   2.763
37347W        W98768  10.336  17.638   0.317
37348W        W98769  36.440  11.848   2.416
37349W        W98770   2.875  20.051  11.002
37350W        W98771  21.204   1.309  14.330
37351W        W98772  14.670   7.353   1.360
37352W        W98773  22.558  14.230  13.449
37353W        W98774  29.670   4.258  13.318
37354W        W98775  20.180   8.882   0.440
37355W        W98776  29.500  44.995   4.824
37356W        W98777  12.347  41.293  11.095
37357W        W98778  21.552  42.817  13.978
37358W        W98779  28.980  37.497   0.323
37359W        W98780  12.320  29.063  12.524
37360W        W98781  36.386   0.436   4.122
37361W        W98782  19.131  27.187  12.015
37362W        W98783  32.471   7.791   4.321
37363W        W98784  38.968  35.494  11.870
37364W        W98785   3.293  12.150  12.991
37365W        W98786  22.218  31.560   1.776
37366W        W98787  24.230  34.507   3.641
37367W        W98788  17.572  44.833  12.058
37368W        W98789  34.032  18.717   3.774
37369W        W98790  29.537  23.109   0.941
37370W        W98791  28.946   4.852   4.181
37371W        W98792  43.798  41.042  12.345
37372W        W98793  44.922  11.145  12.011
37373W        W98794  43.431  17.276   3.732
37374W        W98795  24.053   4.411  11.485
37375W        W98796  37.466  33.386   4.115
37376W        W98797  16.641  17.768   0.403
37377W        W98798  32.955   9.297   1.236
37378W        W98799  16.739   7.278   2.185
37379W        W98800   0.343  43.461   4.324
37380W        W98801  42.427  27.079   0.267
37381W        W98802  11.644  40.522   0.443
37382W        W98803   0.800  40.509   4.617
37383W        W98804  11.717  13.275  13.007
37384W        W98805  43.375  42.385   0.909
37385W        W98806   1.859   8.336   4.247
37386W        W98807   0.849  25.502  14.937
37387W        W98808  30.458   4.344  11.085
37388W        W98809  43.428  26.066   3.672
37389W        W98810  25.557  20.746   2.806
37390W        W98811  12.644  34.959   3.288
37391W        W98812  13.236  14.295  13.333
37392W        W98813  19.640  37.036  14.360
37393W        W98814  40.048  38.521  11.968
37394W        W98815  25.526  26.628  14.012
37395W        W98816  41.304  36.986  12.023
37396W        W98817  43.277  16.114   1.733
37397W        W98818  11.266  39.815   4.753
37398W        W98819  32.536  24.083   0.403
37399W        W98820  28.942  40.043   0.959
37400W        W98821  38.956  38.865   1.442
37401W        W98822  17.201  18.590  11.424
37402W        W98823  29.111  33.503  12.566
37403W        W98824   8.237   0.842  10.485
37404W        W98825  27.962   3.224   2.231
37405W        W98826  41.292   4.428   4.316
37406W        W98827  35.489   4.853  12.517
37407W        W98828  39.918   5.720  10.514
37408W        W98829  37.017  11.750   3.178
37409W        W98830  11.858  39.863  11.911
37410W        W98831  18.062  22.169   2.840
37411W        W98832   9.702  29.557  11.089
37412W        W98833  28.184  16.706  12.508
37413W        W98834  32.508  16.215   0.309
37414W        W98835  19.749  26.666   2.351
37415W        W98836  13.216  22.064  11.930
37416W        W98837  29.534   3.382  14.459
37417W        W98838  34.601  10.165   0.937
37418W        W98839  33.589  25.153  12.873
37419W        W98840  16.784  22.008  13.444
37420W        W98841   6.387  34.447  14.989
37421W        W98842  39.400  43.863  13.952
37422W        W98843  28.089  42.376  14.405
37423W        W98844  22.995  17.082   2.831
37424W        W98845  41.519  38.836   2.858
37425W        W98846   7.855  17.273  12.970
37426W        W98847  11.731  27.505   0.355
37427W        W98848   1.885  22.593  14.306
37428W        W98849  19.554  43.840   0.300
37429W        W98850  33.057  44.275   4.656
37430W        W98851  26.495  32.041   1.859
37431W        W98852  44.477  42.844   2.698
37432W        W98853  20.083   0.461  14.380
37433W        W98854  27.953  27.166  10.924
37434W        W98855  16.614  40.413  12.388
37435W        W98856  19.747  43.870   3.149
37436W        W98857   1.898  25.035  12.846
37437W        W98858  26.039  42.971  12.470
37438W        W98859  11.684  28.958   4.152
37439W        W98860  40.014   4.424   1.237
37440W        W98861  22.228  17.307   4.597
37441W        W98862   2.472  31.624  11.415
37442W        W98863  25.709  26.479  14.512
37443W        W98864  27.530  39.330  14.355
37444W        W98865  28.964  14.602  14.954
37445W        W98866  21.221  34.020  11.376
37446W        W98867   5.805   3.240  10.924
37447W        W98868  34.498   6.217  14.442
37448W        W98869  41.833  11.698  11.491
37449W        W98870  11.631   9.699   3.303
37450W        W98871  33.951   4.711   1.311
37451W        W98872  27.559   7.311  11.051
37452W        W98873  34.431  25.676  13.363
37453W        W98874  31.041  35.476  12.344
37454W        W98875   4.844   4.352  10.546
37455W        W98876  36.442  30.645   1.934
37456W        W98877   3.892   0.941   0.883
37457W        W98878  35.478   3.883   4.271
37458W        W98879  19.649  33.594  13.382
37459W        W98880  16.212   6.809   4.188
37460W        W98881  16.165  40.546  12.866
37461W        W98882   3.729  11.323   2.258
37462W        W98883  43.284   9.378   2.819
37463W        W98884  13.674  21.076   1.343
37464W        W98885   7.673  22.185  11.568
37465W        W98886  37.898  39.539   4.167
37466W        W98887  17.638  14.791   0.958
37467W        W98888   5.336   3.391   2.184
37468W        W98889   6.768  14.139  13.421
37469W        W98890   6.921   2.765  10.003
37470W        W98891  32.932  18.667  12.438
37471W        W98892  33.529  26.643  11.986
37472W        W98893  33.542  23.582   4.349
37473W        W98894  26.092  13.164  12.059
37474W        W98895   9.693  16.180  14.027
37475W        W98896  22.052  42.826  14.988
37476W        W98897   0.897  30.073   3.707
37477W        W98898  18.085  39.018  10.920
37478W        W98899  36.483  41.367   1.783
37479W        W98900  37.456  26.182   0.868
37480W        W98901   6.364  22.587  11.122
37481W        W98902  22.193  22.575   1.786
37482W        W98903  32.989  43.480  13.025
37483W        W98904  29.641  25.596  11.026
37484W        W98905  28.974  26.956  13.027
37485W        W98906  22.663   7.172  10.156
37486W        W98907  40.006  12.665   0.484
37487W        W98908  30.463   5.269   2.248
37488W        W98909   4.283  26.609   5.650
37489W        W98910  44.483  30.996  13.971
37490W        W98911  26.569  23.655  11.461
37491W        W98912  43.788   3.367   2.769
37492W        W98913  24.672   7.385  10.450
37493W        W98914   6.362  11.795   2.237
37494W        W98915  32.628   5.430   2.395
37495W        W98916  32.986  35.446  13.326
37496W        W98917  34.078  21.099  14.825
37497W        W98918  29.165  16.272  14.507
37498W        W98919   5.810  12.253  12.540
37499W        W98920   7.787  13.644   1.796
37500W        W98921   9.852  10.184  10.986
37501W        W98922  39.551   8.781   0.739
37502W        W98923  44.872  10.759   3.233
37503W        W98924  16.216  39.964   4.679
37504W        W98925  39.472  31.569   3.168
37505W        W98926  19.079  41.028  11.925
37506W        W98927  42.905  27.090   5.177
37507W        W98928  10.362  35.380   3.654
37508W        W98929  20.768  20.125  13.394
37509W        W98930  13.679  19.242  10.488
37510W        W98931   3.285  22.141  12.518
37511W        W98932  40.340  18.718   3.809
37512W        W98933  26.187   8.189   3.217
37513W        W98934  32.594  39.051  12.444
37514W        W98935  15.652  19.643  11.403
37515W        W98936   4.436  14.625  13.044
37516W        W98937  11.177  24.615   2.779
37517W        W98938  43.460  20.706  11.044
37518W        W98939  27.461  12.797   3.673
37519W        W98940   7.875  14.148   2.191
37520W        W98941  41.826   7.701   3.738
37521W        W98942  38.037  20.200  13.815
37522W        W98943  33.940  19.266  11.477
37523W        W98944  10.844  23.085   2.780
37524W        W98945  31.900  41.040   1.882
37525W        W98946  28.069  30.932  11.011
37526W        W98947   6.752  18.183   4.796
37527W        W98948   0.270  32.129  13.448
37528W        W98949  32.971  20.523  11.587
37529W        W98950  27.644  11.653   4.605
37530W        W98951   1.925  17.587   3.864
37531W        W98952   3.769   0.945  14.509
37532W        W98953  42.904   9.886  11.955
37533W        W98954  26.586   4.315   4.684
37534W        W98955  35.597  33.444   4.788
37535W        W98956   1.913   0.406  12.885
37536W        W98957  13.337   1.739   1.253
37537W        W98958  19.636  31.085   1.929
37538W        W98959  13.703   5.803  12.501
37539W        W98960  36.565  15.301   3.173
37540W        W98961  10.698   7.858   3.751
37541W        W98962  13.819  17.225  14.322
37542W        W98963   9.688   4.716  14.838
37543W        W98964  16.177   8.256   0.768
37544W        W98965  24.498  44.376  12.372
37545W        W98966  23.120  42.815   5.190
37546W        W98967  28.097  33.024   0.908
37547W        W98968  11.286  26.045  11.450
37548W        W98969  33.570  35.478   4.661
37549W        W98970   2.791  13.348  14.282
37550W        W98971  27.053  12.244  10.981
37551W        W98972   6.264   4.333  14.505
37552W        W98973   1.428  25.651   2.851
37553W        W98974  32.027  36.358   3.345
37554W        W98975  39.325  41.427  13.846
37555W        W98976  41.511  43.945  10.407
37556W        W98977  39.534  36.028  12.418
37557W        W98978  31.976  26.195   0.911
37558W        W98979  31.127  30.970  12.570
37559W        W98980   8.823  35.901  11.982
37560W        W98981   2.864  37.993  10.613
37561W        W98982  19.056  25.062  10.545
37562W        W98983   7.713  16.696  13.062
37563W        W98984  34.399  31.480  12.881
37564W        W98985  37.430  31.567   3.719
37565W        W98986  34.380  25.521  11.474
37566W        W98987  34.519  23.032  11.067
37567W        W98988   8.786   4.749   0.342
37568W        W98989   2.830   1.257  14.905
37569W        W98990   1.241   5.361   3.729
37570W        W98991   7.889  24.613   3.851
37571W        W98992   0.423  26.113  12.942
37572W        W98993  25.566  29.963   4.190
37573W        W98994   4.713  21.566   3.731
37574W        W98995  21.258   7.717   1.428
37575W        W98996  18.737   5.427   4.341
37576W        W98997  35.585  16.155  14.462
37577W        W98998  42.005  38.859   3.205
37578W        W98999  44.812  27.999  14.290
37579W        W99000   0.837  43.831   4.673
37580W        W99001  30.989   6.247   3.759
37581W        W99002  41.939  18.735   0.309
37582W        W99003  24.107   3.414  12.015
37583W        W99004  24.613  43.974  14.402
37584W        W99005  18.068  16.595  14.921
37585W        W99006  33.005  17.198   4.749
37586W        W99007   4.349  23.024   5.212
37587W        W99008  30.456  22.029  13.840
37588W        W99009  25.505  35.048   3.366
37589W        W99010  42.296  18.731   0.941
37590W        W99011  23.173  18.086   2.418
37591W        W99012  30.920   5.234   3.671
37592W        W99013   5.429   5.376   0.776
37593W        W99014  18.164   6.793  14.017
37594W        W99015  32.967  23.219   4.345
37595W        W99016  33.878  32.610   1.763
37596W        W99017  42.509  20.646  14.971
37597W        W99018  13.169  15.206   2.863
37598W        W99019   2.875  41.423   2.822
37599W        W99020  23.146   8.246   4.173
37600W        W99021  43.902  14.322  13.919
37601W        W99022   4.897  33.420   2.690
37602W        W99023  42.961  34.410  11.910
37603W        W99024  34.967  39.038  10.154
37604W        W99025  44.931  10.357   2.724
37605W        W99026   1.381  35.998  14.916
37606W        W99027   5.762  17.780  14.788
37607W        W99028  28.128  44.765   0.798
37608W        W99029  41.975  11.796  13.320
37609W        W99030  40.382  28.981   5.222
37610W        W99031  24.527  32.981   3.831
37611W        W99032  22.548  16.201   1.808
37612W        W99033   8.209  15.193  13.999
37613W        W99034  42.887   5.431  13.016
37614W        W99035  23.063   4.783   2.319
37615W        W99036  40.928  25.610   3.244
37616W        W99037  20.100  18.054  10.033
37617W        W99038  31.411  42.330   4.669
37618W        W99039  10.274   7.378  10.129
37619W        W99040  13.181  15.305  12.063
37620W        W99041  11.747  43.772   3.727
37621W        W99042  13.628   6.847   1.336
37622W        W99043  26.982  21.089  11.029
37623W        W99044  31.457  36.924   4.133
37624W        W99045  41.808  18.608   1.862
37625W        W99046  33.120  13.692  13.423
37626W        W99047  13.773  33.020  11.056
37627W        W99048   4.709   5.267   4.221
37628W        W99049   2.930  27.164  10.890
37629W        W99050  29.109  21.755   0.932
37630W        W99051  18.595  17.771  13.006
37631W        W99052  26.502   8.193  13.837
37632W        W99053   3.931  31.094  12.448
37633W        W99054  43.295  38.483   3.640
37634W        W99055  12.644  11.191  14.916
37635W        W99056  10.775  23.541   2.243
37636W        W99057  40.375  14.831  13.827
37637W        W99058  32.945  38.933  13.979
37638W        W99059  40.026  41.887   3.199
37639W        W99060  33.478  23.132  12.075
37640W        W99061   7.859   6.757   4.688
37641W        W99062   8.677  23.621   1.863
37642W        W99063  20.604   2.288  10.492
37643W        W99064   6.742  34.042  12.889
37644W        W99065  28.989   0.828  11.990
37645W        W99066  28.942  20.649  12.874
37646W        W99067  28.161  14.103  11.858
37647W        W99068  27.569  32.934   0.815
37648W        W99069  43.469   8.780  14.005
37649W        W99070  16.282   7.178   0.276
37650W        W99071  14.735   0.958  12.932
37651W        W99072  27.518  32.404   4.625
37652W        W99073   9.834  36.854   4.140
37653W        W99074   4.788  24.599   1.232
37654W        W99075  42.415   0.931  14.888
37655W        W99076  43.493   6.414  13.982
37656W        W99077  12.240  15.818   0.401
37657W        W99078  11.709  20.704   1.392
37658W        W99079   1.429   7.374  13.433
37659W        W99080  14.149  28.139   2.412
37660W        W99081  33.468  11.315  10.567
37661W        W99082  43.276  24.617   2.340
37662W        W99083   4.724  11.333   2.264
37663W        W99084  29.441  20.203   4.265
37664W        W99085  43.408  28.174  12.517
37665W        W99086   5.877   0.445   0.414
37666W        W99087  10.364  12.245   3.713
37667W        W99088   8.739  36.500  14.836
37668W        W99089  29.564  36.913  11.561
37669W        W99090  37.981   9.793  13.534
37670W        W99091  32.095  43.960   2.785
37671W        W99092   3.812  34.089   0.296
37672W        W99093   4.296  26.959  13.495
37673W        W99094  15.651  42.286   4.611
37674W        W99095  43.424  42.821   0.783
37675W        W99096   1.290   2.414  14.467
37676W        W99097  21.743  20.746   3.680
37677W        W99098  18.079   8.664   3.797
37678W        W99099  43.314  29.587   4.168
37679W        W99100  19.165  13.219   2.783
37680W        W99101  42.349   7.825   4.226
37681W        W99102   2.893  31.465   3.331
37682W        W99103  22.100   3.865   9.538
37683W        W99104  20.759  14.334   0.382
37684W        W99105  15.242  20.158  13.963
37685W        W99106  40.857  41.876  12.040
37686W        W99107  10.691  17.283  12.936
37687W        W99108  10.714  42.941   2.283
37688W        W99109  27.610  21.578   3.853
37689W        W99110  11.657  29.938  11.044
37690W        W99111  33.392  35.410   4.310
37691W        W99112   6.900  40.547  10.903
37692W        W99113  42.997  27.058   1.921
37693W        W99114  24.003   5.258  11.943
37694W        W99115   0.752  38.973  10.016
37695W        W99116  14.215  44.478  10.074
37696W        W99117  42.498  40.354  12.825
37697W        W99118  43.310   4.366  14.859
37698W        W99119   5.370  25.633  13.473
37699W        W99120  18.148  41.802  13.983
37700W        W99121  12.820  24.999   4.714
37701W        W99122  22.078   8.709  11.432
37702W        W99123  29.083  13.806   1.803
37703W        W99124  11.187   6.722   2.394
37704W        W99125  34.084   0.743   5.643
37705W        W99126  36.058  26.528   0.883
37706W        W99127  35.984  15.675   1.875
37707W        W99128   7.905  32.021   5.320
37708W        W99129  41.900  29.634  12.946
37709W        W99130  30.981   8.725   1.323
37710W        W99131   4.823  42.777  11.030
37711W        W99132  25.632  17.634  12.090
37712W        W99133  12.681  36.542  13.443
37713W        W99134  22.128  20.766  10.584
37714W        W99135  26.664  25.167   3.364
37715W        W99136  29.115  36.438   2.759
37716W        W99137  38.936  20.141   2.725
37717W        W99138  10.218  33.999   0.279
37718W        W99139   4.379   8.821  12.388
37719W        W99140  10.325  40.811   2.809
37720W        W99141  39.022  10.215  11.981
37721W        W99142  17.789  34.917  12.557
37722W        W99143   7.762   4.329  10.979
37723W        W99144  34.896  14.170  11.020
37724W        W99145  13.796  28.111   4.341
37725W        W99146  31.037  15.139   0.830
37726W        W99147  31.538  25.523   4.741
37727W        W99148   0.810  24.586  14.303
37728W        W99149  34.869   4.840   3.308
37729W        W99150  10.339   7.681  11.514
37730W        W99151  12.160  21.171  11.038
37731W        W99152  38.506  26.063   2.212
37732W        W99153  43.420  11.830  13.839
37733W        W99154   9.216  25.486   2.219
37734W        W99155   0.983  38.993  12.068
37735W        W99156  24.711   0.473   3.245
37736W        W99157  42.348   5.251  12.386
37737W        W99158  13.249  22.056   1.847
37738W        W99159  20.042  30.937   2.896
37739W        W99160  32.526  43.317   1.758
37740W        W99161   8.249   8.682  12.092
37741W        W99162  43.849   1.874  12.893
37742W        W99163   0.938  28.456   1.375
37743W        W99164  10.664   0.888   4.704
37744W        W99165  15.602  41.451  15.000
37745W        W99166  16.203  35.956  12.965
37746W        W99167  37.416  20.571  12.416
37747W        W99168  19.589  25.980  13.906
37748W        W99169  37.942  18.786   1.808
37749W        W99170   9.365  11.356   1.820
37750W        W99171  33.540  39.043   4.282
37751W        W99172  41.033   0.415   3.848
37752W        W99173  22.036   8.394   0.893
37753W        W99174  21.734   7.833  12.090
37754W        W99175  32.993  21.056  13.045
37755W        W99176   9.150   0.893   3.746
37756W        W99177  24.707   4.813   0.889
37757W        W99178  16.257  19.747   2.400
37758W        W99179  18.135  39.851   0.910
37759W        W99180  14.607  24.718   0.777
37760W        W99181  20.545  29.557  11.489
37761W        W99182  28.581   5.905   0.287
37762W        W99183  30.603   0.396  11.402
37763W        W99184  20.532   7.760  13.060
37764W        W99185   1.942  22.747  10.934
37765W        W99186  44.856  29.172   4.167
37766W        W99187  14.741  11.319  14.854
37767W        W99188  41.296  14.334   0.283
37768W        W99189   8.194  10.678   3.730
37769W        W99190  15.150  29.152  12.400
37770W        W99191  27.550   0.933   0.923
37771W        W99192  42.423  33.032   0.962
37772W        W99193  37.359  20.139  12.570
37773W        W99194  30.988  15.114  12.384
37774W        W99195  34.016  43.450   1.890
37775W        W99196   2.756   8.391  14.895
37776W        W99197  38.009   5.323  10.411
37777W        W99198  21.557  20.640   0.338
37778W        W99199  25.212  15.276   3.847
37779W        W99200   2.230   9.662   1.856
37780W        W99201   8.205  31.100   4.745
37781W        W99202  37.552  23.568  12.024
37782W        W99203  10.818   7.359   1.391
37783W        W99204  29.004  29.047   1.755
37784W        W99205  34.114  38.464  14.888
37785W        W99206  22.252  15.772   4.707
37786W        W99207  39.884  23.185   3.253
37787W        W99208  19.579  18.583   1.743
37788W        W99209  24.656   1.366  12.507
37789W        W99210  29.583  43.310  14.405
37790W        W99211  38.959  14.766   2.689
37791W        W99212  22.581  21.555   0.963
37792W        W99213  13.785  10.839   2.769
37793W        W99214   6.759  24.687  13.310
37794W        W99215  35.025  20.151  14.778
37795W        W99216  36.877   8.897  14.329
37796W        W99217  35.358  24.064  12.419
37797W        W99218   2.729  19.101   4.790
37798W        W99219  26.068  33.512   4.817
37799W        W99220  41.020  14.263   3.249
37800W        W99221  18.194  18.647  13.951
37801W        W99222   8.219   8.375  11.909
37802W        W99223  15.210  41.529   4.826
37803W        W99224  38.913  34.041  10.484
37804W        W99225  17.150  19.699   0.399
37805W        W99226   4.889   4.309   2.274
37806W        W99227  41.506  34.032   2.867
37807W        W99228   7.716  32.601  10.938
37808W        W99229  12.214  42.458  12.572
37809W        W99230   8.768   6.410   2.689
37810W        W99231  36.026  30.946   0.284
37811W        W99232  23.528   0.774   4.610
37812W        W99233  27.641  13.659   2.712
37813W        W99234  34.948  13.167  14.279
37814W        W99235  42.448  29.166   3.722
37815W        W99236  32.913  34.877  12.523
37816W        W99237   1.265  26.130   4.228
37817W        W99238  35.604   1.827   0.325
37818W        W99239  25.675  41.294   2.309
37819W        W99240  40.466  25.066   5.193
37820W        W99241  22.041   9.834   1.712
37821W        W99242   6.332  13.230  12.083
37822W        W99243   5.772  44.344  13.440
37823W        W99244  27.999  23.655   3.165
37824W        W99245  36.056  32.027  12.464
37825W        W99246  23.149  43.876  12.463
37826W        W99247   3.399  21.594  14.427
37827W        W99248  17.687  16.631   4.259
37828W        W99249  29.991   8.358   4.342
37829W        W99250  10.153  27.610  11.605
37830W        W99251  36.493  23.123   1.742
37831W        W99252  13.257   8.838   4.299
37832W        W99253  17.759  13.236  11.390
37833W        W99254   9.320  15.180   1.317
37834W        W99255  20.120   6.326  12.968
37835W        W99256  14.590  16.587  11.906
37836W        W99257  16.737  32.393  13.869
37837W        W99258   2.348   3.347  12.468
37838W        W99259   6.366  42.400  13.853
37839W        W99260  24.698  21.149  12.485
37840W        W99261   7.830   8.744  10.422
37841W        W99262  44.761   4.891  14.372
37842W        W99263   2.469  10.215  12.901
37843W        W99264  41.846  12.293   3.348
37844W        W99265  22.676  23.136  13.902
37845W        W99266   9.169  22.739   1.260
37846W        W99267   8.167  40.838   1.232
37847W        W99268  19.710  33.513  11.428
37848W        W99269  23.541  34.463   2.308
37849W        W99270  15.794  27.485  13.794
37850W        W99271  36.863  40.448  11.073
37851W        W99272  19.596   5.769  12.860
37852W        W99273   4.244  16.279   2.242
37853W        W99274  35.374  30.969  11.525
37854W        W99275  18.289  14.288   0.829
37855W        W99276  18.757  10.184   2.185
37856W        W99277  25.011   6.195  10.581
37857W        W99278  43.465  12.347  11.928
37858W        W99279  15.269   4.253   3.301
37859W        W99280   2.469  28.532   3.811
37860W        W99281   3.811  23.665   9.549
37861W        W99282   0.966  37.404  12.834
37862W        W99283  18.097  29.521  10.075
37863W        W99284   8.747  41.957  10.007
37864W        W99285  27.081  20.204  13.527
37865W        W99286   5.356  39.453  13.018
37866W        W99287  32.471   5.757  11.602
37867W        W99288   0.364  39.397   1.365
37868W        W99289  33.540   7.190  11.073
37869W        W99290  44.274  10.763  14.902
37870W        W99291  33.922  26.548  10.139
37871W        W99292  12.733  17.187  10.995
37872W        W99293  18.052  18.714   1.878
37873W        W99294  27.040  11.826  14.398
37874W        W99295   8.286  19.596   0.957
37875W        W99296  35.462  43.858   3.753
37876W        W99297  41.499  34.558   3.191
37877W        W99298  27.946  30.963   1.216
37878W        W99299  36.050  37.461  12.843
37879W        W99300   3.388  13.703  14.421
37880W        W99301  15.751  41.402   9.964
37881W        W99302  43.394  21.555  14.820
37882W        W99303   5.264  13.146  13.905
37883W        W99304  42.878  37.036  10.543
37884W        W99305   6.354  34.875   1.864
37885W        W99306  41.435   2.291  13.803
37886W        W99307  14.123  37.505  10.602
37887W        W99308  29.502  14.189   3.226
37888W        W99309  31.952  15.192  13.452
37889W        W99310   7.232  12.708  13.060
37890W        W99311  31.615  11.155  10.887
37891W        W99312  16.683  34.095  14.354
37892W        W99313  41.428  21.560  12.410
37893W        W99314  24.138  40.415  11.061
37894W        W99315  38.852   1.414   0.253
37895W        W99316   6.854   9.154   4.765
37896W        W99317   7.394  42.306   1.276
37897W        W99318  44.495  38.936   3.762
37898W        W99319  40.314  24.201   2.774
37899W        W99320  26.111  12.360  11.868
37900W        W99321  28.116  32.478  13.954
37901W        W99322  28.959  30.027  11.043
37902W        W99323  26.599  28.681  11.979
37903W        W99324  19.730  28.142   3.236
37904W        W99325  33.395  10.337   2.392
37905W        W99326   4.768  20.751  13.015
37906W        W99327  42.015   7.747   4.626
37907W        W99328   8.800  30.526   4.770
37908W        W99329  44.300  39.512  13.801
37909W        W99330  25.647  28.040   3.650
37910W        W99331  20.534  44.405   4.126
37911W        W99332  12.307  40.911   1.697
37912W        W99333  12.272  24.149   4.830
37913W        W99334   3.273  44.399   1.763
37914W        W99335  37.427  21.757   4.689
37915W        W99336  33.040  43.498  12.432
37916W        W99337  24.038  29.137  10.556
37917W        W99338  43.948   4.375   4.753
37918W        W99339  36.078   2.270  12.580
37919W        W99340  37.516   0.904  14.941
37920W        W99341  15.263   8.399  11.879
37921W        W99342  19.774  21.225   3.184
37922W        W99343  22.022  34.420  14.991
37923W        W99344  42.362  12.737   3.335
37924W        W99345  25.659  24.026   2.875
37925W        W99346  43.985  12.654   1.217
37926W        W99347  43.847   2.388   3.238
37927W        W99348  23.606  35.057  14.928
37928W        W99349  30.588  11.237   1.422
37929W        W99350  14.683  18.780   3.367
37930W        W99351  41.902  30.150   2.689
37931W        W99352  40.314  41.475  13.820
37932W        W99353  12.738   1.418   0.479
37933W        W99354  40.804  40.010   0.947
37934W        W99355   7.301   9.292  13.978
37935W        W99356   6.309   0.986  12.925
37936W        W99357  40.340  11.136  14.378
37937W        W99358  26.184  17.756   2.669
37938W        W99359  33.891  35.552  11.400
37939W        W99360   2.429   2.418  11.970
37940W        W99361  41.856  32.557  13.846
37941W        W99362  41.862   4.935  14.783
37942W        W99363  41.464   6.338   1.223
37943W        W99364  30.162  13.188  14.468
37944W        W99365  11.789  29.116   3.202
37945W        W99366   1.465  12.216  11.495
37946W        W99367  25.570  43.845  14.355
37947W        W99368  37.949  26.597   1.737
37948W        W99369  16.637   8.209  11.468
37949W        W99370  18.622  12.235  13.353
37950W        W99371  28.510  18.653   0.393
37951W        W99372  30.438   7.231  10.534
37952W        W99373  15.094  16.302  11.527
37953W        W99374  21.217  29.472  14.913
37954W        W99375   2.372  20.558   1.303
37955W        W99376  16.729  21.040  14.390
37956W        W99377   6.396  15.710  11.431
37957W        W99378  11.297  30.139  14.434
37958W        W99379  35.547  43.952   0.254
37959W        W99380  38.051  13.786   3.247
37960W        W99381   3.806  19.552   4.228
37961W        W99382  23.543   7.749  14.291
37962W        W99383  20.078  10.355   0.805
37963W        W99384   5.934  35.597   4.318
37964W        W99385   5.923  17.294  13.984
37965W        W99386   4.884  21.681   1.417
37966W        W99387  40.836  20.744   3.640
37967W        W99388  22.202  24.172   3.361
37968W        W99389  18.623  24.580   4.307
37969W        W99390  21.682   1.817   2.333
37970W        W99391  41.952   3.869  12.353
37971W        W99392  14.778  43.005   1.844
37972W        W99393  33.609  14.670  11.433
37973W        W99394  17.722   8.165  11.910
37974W        W99395  29.149  26.654   3.871
37975W        W99396   5.878  44.386  12.340
37976W        W99397   1.422  22.698  12.434
37977W        W99398  18.591  11.308  10.047
37978W        W99399  18.745  31.644   0.289
37979W        W99400  16.318   0.332   0.783
37980W        W99401  38.892   3.273   5.232
37981W        W99402  30.007  25.662   2.869
37982W        W99403  21.158  34.379  14.281
37983W        W99404  28.172  28.131  13.502
37984W        W99405   7.795  40.532  11.865
37985W        W99406   9.754  31.447   0.442
37986W        W99407  23.529  17.115   2.222
37987W        W99408  44.886   3.351  14.861
37988W        W99409   1.784   7.884  13.510
37989W        W99410  42.785  34.056  12.001
37990W        W99411  28.131   2.395  14.973
37991W        W99412  20.765   6.339  11.880
37992W        W99413  25.052  17.575   3.150
37993W        W99414  21.212  18.193  11.043
37994W        W99415   9.190   1.855  11.969
37995W        W99416  44.341  41.466   0.777
37996W        W99417  33.086  22.547   3.712
37997W        W99418  23.704  14.617  14.028
37998W        W99419   0.867   6.296  14.913
37999W        W99420  31.500  43.495   4.272
38000W        W99421  21.127  34.028  13.955
38001W        W99422   0.884  28.651  14.903
38002W        W99423  10.272  41.516   0.293
38003W        W99424  32.024   5.803  12.531
38004W        W99425  14.170   5.437   0.421
38005W        W99426   3.416  37.031   3.304
38006W        W99427  18.261   8.235   1.227
38007W        W99428  35.076  10.215  14.877
38008W        W99429  31.641  32.567  10.627
38009W        W99430  33.115  42.810   1.811
38010W        W99431  23.218  36.844   1.344
38011W        W99432  28.098   5.823  13.363
38012W        W99433  28.637  15.177   4.244
38013W        W99434  36.020   0.907  13.385
38014W        W99435  37.911  36.963  14.509
38015W        W99436  28.959  35.361  12.371
38016W        W99437  30.623  12.702  11.865
38017W        W99438  36.951  30.959   1.701
38018W        W99439  15.208  10.716  11.412
38019W        W99440   9.368   6.722   0.806
38020W        W99441  22.507  37.546  12.032
38021W        W99442  28.042  21.517  11.931
38022W        W99443  19.619  40.337  10.983
38023W        W99444  20.585  32.980  10.470
38024W        W99445  39.526   1.815   2.251
38025W        W99446  25.487  34.015  14.940
38026W        W99447  28.157  14.591  11.384
38027W        W99448  26.119  23.542   2.826
38028W        W99449  28.962  19.536  13.963
38029W        W99450  27.151  29.617   9.949
38030W        W99451  22.636  25.474  13.998
38031W        W99452  10.322  16.089  14.949
38032W        W99453  28.657  13.765   4.793
38033W        W99454   7.176  31.521   1.713
38034W        W99455  31.453   9.875   5.169
38035W        W99456  14.741  37.923   1.385
38036W        W99457  27.064   7.890  12.453
38037W        W99458  32.584  10.777   3.783
38038W        W99459   9.694  30.416   0.786
38039W        W99460  18.625  11.132  12.051
38040W        W99461  22.012  29.546  13.864
38041W        W99462   7.705  11.294  11.438
38042W        W99463  12.827   0.413   4.686
38043W        W99464  40.353  20.161  13.376
38044W        W99465  41.319  35.965   0.338
38045W        W99466  23.531  20.180   4.796
38046W        W99467   0.887  30.609  10.606
38047W        W99468  34.934  39.916   5.237
38048W        W99469  22.538  16.277   3.258
38049W        W99470  30.111   6.376   1.384
38050W        W99471  26.646   5.283  14.026
38051W        W99472  31.039  40.890  13.992
38052W        W99473  36.893  42.489  10.630
38053W        W99474  25.692  15.199   3.229
38054W        W99475   7.681  18.202   5.266
38055W        W99476  23.145  15.167   4.681
38056W        W99477  27.974  30.146  11.945
38057W        W99478   3.805  26.043  14.795
38058W        W99479  35.381  40.540  11.870
38059W        W99480  42.406  11.213  14.982
38060W        W99481  41.996   9.806  10.638
38061W        W99482  20.753  40.030  14.411
38062W        W99483   1.236  17.584   3.790
38063W        W99484  41.458  23.498  11.079
38064W        W99485  16.598  16.171   4.797
38065W        W99486  41.007  41.915  14.400
38066W        W99487  15.717   9.737  11.480
38067W        W99488  38.005  10.334   3.661
38068W        W99489  39.832  41.450  12.011
38069W        W99490   1.283  22.725   2.889
38070W        W99491  29.984   0.940  14.351
38071W        W99492   1.301   6.887  13.049
38072W        W99493  34.538   5.897  13.985
38073W        W99494  39.554   7.769  14.433
38074W        W99495  18.616  19.139  10.952
38075W        W99496  14.679  19.624  10.067
38076W        W99497  18.084  24.002  13.405
38077W        W99498  31.017  36.057   2.308
38078W        W99499  26.992  10.854  10.953
38079W        W99500   0.899  34.428  14.479
38080W        W99501  10.306   5.298  10.976
38081W        W99502  19.161  42.033   2.409
38082W        W99503  18.059   5.437  11.592
38083W        W99504   4.806  39.361   3.720
38084W        W99505   9.304   5.757  14.345
38085W        W99506  30.099  15.266   3.306
38086W        W99507  10.789  25.674   3.322
38087W        W99508  11.159  28.000   3.191
38088W        W99509  42.526  12.276  12.842
38089W        W99510  18.710  26.139   0.904
38090W        W99511  13.247  23.072   0.432
38091W        W99512  21.530  33.518  14.011
38092W        W99513  43.347  42.312  12.885
38093W        W99514  18.655  44.421  13.932
38094W        W99515  13.223  43.958  11.584
38095W        W99516  39.859  30.468   3.722
38096W        W99517  11.806  22.172  10.512
38097W        W99518  23.570  40.983   4.742
38098W        W99519   8.868  43.874   2.776
38099W        W99520   0.264  27.588  12.941
38100W        W99521  14.651  29.056  10.074
38101W        W99522  37.026  35.054  11.084
38102W        W99523  29.517  12.687   0.327
38103W        W99524  32.391   8.695  14.302
38104W        W99525   0.404  41.863   0.342
38105W        W99526  11.294  44.770  12.874
38106W        W99527  29.446  41.846   2.685
38107W        W99528  18.191  42.283  14.996
38108W        W99529  43.800  17.771   4.749
38109W        W99530  26.025  19.699   0.481
38110W        W99531  10.344  34.042  14.496
38111W        W99532  44.341  25.637   0.284
38112W        W99533   8.846  33.617   1.450
38113W        W99534  30.593  20.128   0.875
38114W        W99535  20.762  18.203  12.874
38115W        W99536  37.494  27.569   4.630
38116W        W99537  33.488  13.323   4.340
38117W        W99538  15.317  33.597  11.540
38118W        W99539   3.894  36.087  13.491
38119W        W99540  29.480  19.564  13.046
38120W        W99541  34.422  13.297  14.481
38121W        W99542  33.494  14.679  10.629
38122W        W99543  22.224   0.442   3.356
38123W        W99544   7.268  21.542  14.279
38124W        W99545   0.334  44.928  11.968
38125W        W99546   3.437  29.023  11.464
38126W        W99547  33.506  38.415   4.762
38127W        W99548  38.453  33.948   0.759
38128W        W99549  22.601  43.858   3.294
38129W        W99550   3.263   6.418   2.401
38130W        W99551  25.485   5.744  10.075
38131W        W99552   5.206  18.238   0.830
38132W        W99553  33.961  44.787  13.434
38133W        W99554   8.734  42.454   4.179
38134W        W99555  13.345  26.184  10.530
38135W        W99556  40.989  28.671   0.875
38136W        W99557  39.375  22.147  14.910
38137W        W99558  27.594  12.206   4.761
38138W        W99559   6.902   3.767   1.410
38139W        W99560  33.528  15.807   2.204
38140W        W99561  37.951  23.006   4.730
38141W        W99562  35.061  30.150   4.810
38142W        W99563  25.600  27.593  13.846
38143W        W99564  30.425  17.273  10.155
38144W        W99565  22.119   0.283  13.929
38145W        W99566  24.705  19.186   2.729
38146W        W99567  15.589  14.324   0.381
38147W        W99568   5.836   5.934  12.086
38148W        W99569   4.364  40.472  14.338
38149W        W99570  16.649  39.552   1.296
38150W        W99571  30.923  12.239   0.464
38151W        W99572   7.738  21.137   4.813
38152W        W99573  27.160  30.516  14.868
38153W        W99574  31.129  37.859  10.433
38154W        W99575  34.580  19.774  10.420
38155W        W99576  42.343  16.673   4.262
38156W        W99577  29.058  31.499  10.625
38157W        W99578  29.147  27.049  12.463
38158W        W99579  34.610  44.774   4.297
38159W        W99580  18.208  17.183  11.517
38160W        W99581  10.216  41.870  12.041
38161W        W99582  39.516   7.734   3.260
38162W        W99583  40.047  17.287  13.438
38163W        W99584   1.874  40.980   2.723
38164W        W99585  35.505  10.308  11.540
38165W        W99586  31.632  35.973  12.846
38166W        W99587  40.846  43.852  13.441
38167W        W99588  41.417  25.988   0.289
38168W        W99589   4.735  16.729  12.555
38169W        W99590  36.373  42.826  10.430
38170W        W99591  43.877  40.387   1.697
38171W        W99592  27.044  29.028  11.109
38172W        W99593  31.601   1.405   4.230
38173W        W99594  41.997  18.653  10.593
38174W        W99595  41.324  44.356  13.419
38175W        W99596  27.447   6.320  14.894
38176W        W99597  17.672  38.401  12.958
38177W        W99598  35.967   5.263  12.004
38178W        W99599  11.261  17.212   1.298
38179W        W99600  17.169  14.173  14.495
38180W        W99601  11.320  37.464  11.080
38181W        W99602   1.300  19.577  11.598
38182W        W99603  17.239  17.291  13.524
38183W        W99604  18.152  14.590   2.256
38184W        W99605  31.469  39.447  10.488
38185W        W99606  15.619  35.365   0.916
38186W        W99607  41.822   4.725  10.115
38187W        W99608  21.237  17.233   2.376
38188W        W99609  37.072  21.542  11.373
38189W        W99610  35.001  31.517   3.801
38190W        W99611   0.775   0.329   1.786
38191W        W99612  25.212   1.265  11.067
38192W        W99613   1.751   0.801  10.986
38193W        W99614  26.124  43.470  14.352
38194W        W99615  32.896  36.997  13.007
38195W        W99616  20.031  37.877   0.312
38196W        W99617  44.368  27.986  14.942
38197W        W99618  34.496  25.069   1.269
38198W        W99619  44.927  39.020   2.241
38199W        W99620  12.741  38.332   3.330
38200W        W99621  26.495   1.418  11.566
38201W        W99622  38.397  37.574  14.792
38202W        W99623  22.234  22.169   2.245
38203W        W99624  36.029  35.379  13.886
38204W        W99625  29.036  29.168   2.741
38205W        W99626  36.939   6.876   0.474
38206W        W99627  21.554  40.399   1.887
38207W        W99628  18.549  44.453   0.288
38208W        W99629   9.393   7.409  12.023
38209W        W99630  31.479  30.647   0.369
38210W        W99631  43.805  26.514   4.627
38211W        W99632   4.701  27.483  13.855
38212W        W99633  18.721  27.676  12.085
38213W        W99634  33.919  42.966  11.475
38214W        W99635   5.266  18.153   4.159
38215W        W99636  15.739  36.403   4.700
38216W        W99637  44.923  21.755  10.456
38217W        W99638   0.445   0.360   2.691
38218W        W99639  26.488  34.475   3.705
38219W        W99640   9.869  16.588  14.399
38220W        W99641  21.600  31.541  11.976
38221W        W99642  30.126  28.946   2.341
38222W        W99643  34.925  44.787   2.809
38223W        W99644  11.660   2.305   4.261
38224W        W99645   4.249  37.556   0.770
38225W        W99646  24.539  22.198   1.432
38226W        W99647  44.279  29.046  13.512
38227W        W99648  10.829  34.528  12.503
38228W        W99649  42.344   2.774  12.540
38229W        W99650   9.833  10.830   3.848
38230W        W99651   1.331  20.173   4.739
38231W        W99652  22.058  29.981  12.388
38232W        W99653   9.201  32.122   0.457
38233W        W99654   6.414   1.864  14.276
38234W        W99655   5.283  15.172  14.467
38235W        W99656  39.910  18.685   0.932
38236W        W99657  23.093  18.682  10.546
38237W        W99658  29.482   6.426  14.804
38238W        W99659  41.348  12.743  10.897
38239W        W99660  18.651  23.620   0.963
38240W        W99661   9.323  32.458  14.428
38241W        W99662  39.551  35.540  14.303
38242W        W99663   8.277  37.562   2.746
38243W        W99664  32.636  29.074  12.042
38244W        W99665  27.954  31.506   1.224
38245W        W99666  42.814  35.369  11.914
38246W        W99667  25.000   8.204   0.379
38247W        W99668  36.039  38.561  10.949
38248W        W99669   1.270  23.698   4.599
38249W        W99670  17.146  11.794  11.093
38250W        W99671  18.253  19.774   2.389
38251W        W99672  37.365  22.672  11.409
38252W        W99673  33.503   1.441   3.659
38253W        W99674   2.884  42.920  14.511
38254W        W99675  24.144  44.453  12.555
38255W        W99676  41.991  27.149  13.509
38256W        W99677  33.891  16.229  10.473
38257W        W99678  43.992  19.632  13.312
38258W        W99679  11.369  23.715   1.721
38259W        W99680  13.264  41.321  12.857
38260W        W99681  43.270  11.845   3.339
38261W        W99682  25.097   5.304  12.998
38262W        W99683  16.630  27.608   4.152
38263W        W99684  40.997  27.670   3.774
38264W        W99685   0.453  42.925  14.511
38265W        W99686   1.829  25.639   5.113
38266W        W99687   7.272  12.728  11.892
38267W        W99688  36.989  22.201   3.290
38268W        W99689  11.656  15.629  12.954
38269W        W99690  17.297  34.559  13.544
38270W        W99691  38.032   7.394   1.872
38271W        W99692  19.633   4.889   3.792
38272W        W99693  40.999  15.270  14.844
38273W        W99694  22.593  15.611  12.922
38274W        W99695  36.971   1.778  11.963
38275W        W99696  37.526  29.943  13.401
38276W        W99697  40.530  10.815   2.675
38277W        W99698  43.365  26.121   4.206
38278W        W99699  41.408   1.847  10.997
38279W        W99700  11.316  31.570  14.820
38280W        W99701  22.026  15.661   1.787
38281W        W99702   3.353  11.128   4.201
38282W        W99703  24.099  44.840   1.222
38283W        W99704   4.350  11.723   2.782
38284W        W99705  12.791  19.628  12.912
38285W        W99706  14.145   2.329  11.605
38286W        W99707  24.073  15.654  14.933
38287W        W99708  16.730  35.496   3.301
38288W        W99709   4.869  23.183   4.684
38289W        W99710   5.866  43.878   4.815
38290W        W99711  10.272  31.994   4.318
38291W        W99712  21.148  42.312   1.884
38292W        W99713  35.594  26.521   3.151
38293W        W99714  41.928   5.410  13.963
38294W        W99715  42.904  14.231  10.551
38295W        W99716  31.636  25.199  11.445
38296W        W99717  41.977  25.207   2.405
38297W        W99718  22.586  18.690  13.059
38298W        W99719  17.566  19.280   1.819
38299W        W99720  37.087  18.597   2.388
38300W        W99721  44.409  21.551  11.007
38301W        W99722  30.990  23.499   9.967
38302W        W99723  26.102   7.852  11.035
38303W        W99724  44.462  40.890  13.021
38304W        W99725  23.539   5.194   0.405
38305W        W99726  38.539  26.586   0.468
38306W        W99727  40.386  24.598   2.687
38307W        W99728  13.689  39.345   1.882
38308W        W99729  25.649  17.698   1.715
38309W        W99730  22.237  22.103  10.471
38310W        W99731  32.018  30.582   4.136
38311W        W99732  10.197  31.125   1.294
38312W        W99733  21.688  43.003   2.306
38313W        W99734  21.114  31.631  11.111
38314W        W99735  33.534  35.999  13.945
38315W        W99736   4.702   5.877  11.109
38316W        W99737  32.507  44.789  13.310
38317W        W99738  26.478  43.898   4.687
38318W        W99739  16.111   6.919  12.910
38319W        W99740  15.193  10.859  12.497
38320W        W99741  17.117   4.209  12.841
38321W        W99742   7.311  43.794   0.805
38322W        W99743   1.385  33.003  13.805
38323W        W99744   9.206  11.265  12.535
38324W        W99745  15.735  41.977   3.738
38325W        W99746  39.908  13.188  13.954
38326W        W99747  40.330  34.105  11.015
38327W        W99748  34.459  41.899   4.205
38328W        W99749  36.862  27.957   3.223
38329W        W99750  21.697  32.434  14.433
38330W        W99751  36.843   3.351  13.026
38331W        W99752   7.281  26.673   3.748
38332W        W99753  37.863  38.482   1.409
38333W        W99754  31.464  11.182  14.497
38334W        W99755  28.025  44.928  13.961
38335W        W99756   1.799  42.943   9.943
38336W        W99757  27.189   2.468  13.941
38337W        W99758   5.353  15.644  13.423
38338W        W99759   1.343  32.978  11.397
38339W        W99760   1.897   1.256  13.414
38340W        W99761  21.626  43.424   4.759
38341W        W99762  38.072   4.439   4.662
38342W        W99763   4.930  12.674  10.148
38343W        W99764  25.609  34.428   0.800
38344W        W99765  36.485  38.388   0.458
38345W        W99766  21.141   3.387   2.769
38346W        W99767   6.416  44.762   0.300
38347W        W99768  23.548   7.209   4.113
38348W        W99769   7.699  40.381  10.963
38349W        W99770  27.945  40.335  11.095
38350W        W99771  29.564   5.827   1.934
38351W        W99772  39.409  24.081   2.257
38352W        W99773  22.592  15.149   5.189
38353W        W99774   4.245  10.239   3.842
38354W        W99775  19.270   4.858   2.865
38355W        W99776  21.112  12.243  11.511
38356W        W99777  26.001   8.736  12.403
38357W        W99778   1.364  33.385   2.800
38358W        W99779  38.460  33.382   0.772
38359W        W99780   1.447   4.287  11.534
38360W        W99781  24.671  19.591  14.319
38361W        W99782  27.513  14.311   5.272
38362W        W99783  19.550   2.831   2.725
38363W        W99784  19.229  13.114  11.448
38364W        W99785   5.750  17.620  10.612
38365W        W99786  19.187  31.118  11.876
38366W        W99787  23.052  40.958   0.288
38367W        W99788   2.775   0.887   0.322
38368W        W99789  40.831   9.259   2.316
38369W        W99790   9.228  16.288  14.789
38370W        W99791  30.947  42.981   1.432
38371W        W99792  19.601  19.146   2.793
38372W        W99793  33.038  32.137   3.669
38373W        W99794  31.606   3.900   2.352
38374W        W99795  29.560  19.609  13.450
38375W        W99796  33.545  43.002  14.403
38376W        W99797  20.763   9.323   2.666
38377W        W99798  10.253   7.247  12.477
38378W        W99799   6.749  36.867  14.393
38379W        W99800   7.744  19.566  13.308
38380W        W99801   0.817  31.135  13.827
38381W        W99802  42.895   1.861  12.027
38382W        W99803  42.889  14.716  11.048
38383W        W99804  43.921  10.714  11.869
38384W        W99805  18.588   4.818   3.197
38385W        W99806  27.130  30.063   0.964
38386W        W99807  34.491  40.392   1.781
38387W        W99808  36.522   8.309  10.445
38388W        W99809  43.475   0.401   4.829
38389W        W99810   6.735  24.584  12.482
38390W        W99811  37.010   4.445   4.712
38391W        W99812  31.420  28.587  11.969
38392W        W99813  39.943  21.556   0.744
38393W        W99814  28.633  21.088   4.349
38394W        W99815  29.980  24.095   1.223
38395W        W99816  42.945   1.342  11.505
38396W        W99817  21.082  36.021   0.781
38397W        W99818  27.005  28.543   0.891
38398W        W99819  36.572  35.029  12.859
38399W        W99820  14.332  32.990   2.404
38400W        W99821  27.972  24.147  12.345
38401W        W99822  43.011  36.981  13.058
38402W        W99823  24.038   7.371  12.969
38403W        W99824  31.568  31.505   1.330
38404W        W99825  29.058  35.497  11.489
38405W        W99826   9.319  19.094  14.882
38406W        W99827   4.765  11.253   2.880
38407W        W99828  36.089  17.146   1.423
38408W        W99829  10.254  32.061  14.819
38409W        W99830  27.013  21.142  11.929
38410W        W99831  37.899  30.435   0.283
38411W        W99832  44.301  22.076  10.028
38412W        W99833  37.464  39.550  13.458
38413W        W99834  10.809  32.905   4.320
38414W        W99835  35.065  19.562   3.376
38415W        W99836   7.816  12.760   0.910
38416W        W99837  15.682  16.604  11.602
38417W        W99838   9.160  10.808  14.895
38418W        W99839   2.741  43.499   0.727
38419W        W99840   1.754  12.344  10.483
38420W        W99841  24.150  20.218   0.462
38421W        W99842   4.801  17.115   1.706
38422W        W99843   0.383  22.685  11.953
38423W        W99844  41.310  11.156  14.000
38424W        W99845   5.753   8.220  10.538
38425W        W99846  21.261  36.956   1.742
38426W        W99847   6.398  32.557   4.730
38427W        W99848  32.114  39.951   1.438
38428W        W99849   9.662   6.804   3.235
38429W        W99850  33.618  16.756   1.796
38430W        W99851  27.658  38.528   0.281
38431W        W99852  25.682  40.498   5.236
38432W        W99853  40.883  37.378  10.930
38433W        W99854  14.817  24.977  12.431
38434W        W99855  14.112  37.865  11.430
38435W        W99856   1.782  15.655  11.940
38436W        W99857  31.582  14.814  11.102
38437W        W99858  41.422   0.276  13.849
38438W        W99859  18.651  43.881   2.340
38439W        W99860  18.124   0.399  11.114
38440W        W99861  11.786  35.599   0.958
38441W        W99862  44.332  40.016   3.313
38442W        W99863  25.149  18.689  11.449
38443W        W99864  21.754  24.101   1.798
38444W        W99865  27.060   4.931   0.322
38445W        W99866  18.740  28.027   2.783
38446W        W99867  14.653  24.048   0.767
38447W        W99868  10.821  37.579  13.995
38448W        W99869  36.076  21.660   3.237
38449W        W99870  24.178  37.490   2.417
38450W        W99871  42.930  33.614   2.732
38451W        W99872  27.005  29.513   0.747
38452W        W99873  31.095  39.399  11.496
38453W        W99874  36.976  29.122   1.849
38454W        W99875  36.938  30.979  12.977
38455W        W99876  15.614  40.363   3.146
38456W        W99877  27.028  37.075   1.732
38457W        W99878   6.839  14.164  11.590
38458W        W99879  11.332   1.440   1.849
38459W        W99880   5.336  13.779   4.128
38460W        W99881  30.561  41.507  12.952
38461W        W99882   3.878  19.771  11.442
38462W        W99883  27.033  10.142  14.379
38463W        W99884  29.482  29.118   2.865
38464W        W99885  33.970  35.006  13.808
38465W        W99886  27.618  15.146   4.801
38466W        W99887   2.395  26.702   0.935
38467W        W99888  11.359  43.874   3.271
38468W        W99889  14.819  20.568  14.945
38469W        W99890  37.386  18.595  11.928
38470W        W99891   0.258  15.613  14.453
38471W        W99892  13.822  19.615   3.856
38472W        W99893  10.655  28.539  14.019
38473W        W99894  20.122   9.301   0.440
38474W        W99895  44.454  12.216  13.966
38475W        W99896  41.396  15.671  11.896
38476W        W99897   4.772  41.007   0.306
38477W        W99898   5.745  10.382  10.461
38478W        W99899  24.117  28.033  12.466
38479W        W99900  33.482  31.119  11.058
38480W        W99901  34.543   0.271   4.201
38481W        W99902  42.516   0.958   2.237
38482W        W99903  25.017  27.500  11.582
38483W        W99904  11.228  22.163  13.389
38484W        W99905   4.774  26.703   3.155
38485W        W99906  26.040   8.160  10.480
38486W        W99907  39.494  30.551  14.371
38487W        W99908  41.964  14.719  14.323
38488W        W99909  15.123   1.915  11.596
38489W        W99910  30.152  36.562  11.035
38490W        W99911  26.485  42.501   2.380
38491W        W99912  21.703  32.905   2.352
38492W        W99913  34.020  22.589   1.316
38493W        W99914  12.713  18.767  10.528
38494W        W99915  10.761  30.917  10.563
38495W        W99916   7.896  20.271  14.331
38496W        W99917  12.657  41.034  12.890
38497W        W99918  38.525  30.603  12.966
38498W        W99919  44.357  24.630  12.027
38499W        W99920  18.606  43.335  13.997
38500W        W99921  26.174  43.326   4.268
38501W        W99922  17.256   6.211   3.833
38502W        W99923   2.286  42.807  10.471
38503W        W99924  30.632   0.904   1.404
38504W        W99925  23.988  42.305   2.371
38505W        W99926   6.309   4.377  10.633
38506W        W99927  11.312   2.228   1.765
38507W        W99928  29.955  16.706   4.185
38508W        W99929   2.227  33.902  11.005
38509W        W99930  43.849  18.660   2.243
38510W        W99931  36.903  42.859  10.617
38511W        W99932  33.555  10.351   0.786
38512W        W99933  26.644  44.276   2.178
38513W        W99934  24.652  10.690   2.207
38514W        W99935  35.075  23.508   4.277
38515W        W99936  22.677  41.933  14.778
38516W        W99937   0.880  43.294  12.063
38517W        W99938  16.188  44.410   0.844
38518W        W99939  41.903   8.193   4.130
38519W        W99940  42.032  27.151  10.520
38520W        W99941  31.974  10.768  13.484
38521W        W99942  30.558  33.443  13.531
38522W        W99943  44.774  29.047   2.795
38523W        W99944  29.652   3.435   4.298
38524W        W99945  19.212  37.486   3.837
38525W        W99946  12.183  44.897   4.830
38526W        W99947  37.929  33.985   1.400
38527W        W99948  26.579  13.651   3.163
38528W        W99949  31.122  17.726  10.916
38529W        W99950   1.482   4.369   1.243
38530W        W99951  37.490   7.216   2.701
38531W        W99952  12.655   9.752   4.177
38532W        W99953  15.700  36.957   1.414
38533W        W99954   0.406   6.842   3.233
38534W        W99955  15.584   0.828  10.634
38535W        W99956  35.952   4.341  11.125
38536W        W99957  37.932  41.817   2.178
38537W        W99958  38.015  21.745   1.251
38538W        W99959   4.364  33.965  11.911
38539W        W99960  40.053  32.037   4.298
38540W        W99961  33.908  15.327  13.450
38541W        W99962  36.357  33.571  12.403
38542W        W99963  22.602  23.575  13.955
38543W        W99964  42.353  11.671  12.910
38544W        W99965  28.948   6.839   1.845
38545W        W99966  22.742  20.270   2.394
38546W        W99967   2.317  22.700  11.390
38547W        W99968   6.272   9.200  13.449
38548W        W99969  26.066  23.533  11.059
38549W        W99970  14.147  34.519  10.108
38550W        W99971  31.645  25.490  13.534
38551W        W99972   8.372   9.364  13.047
38552W        W99973   5.744   9.765  14.030
38553W        W99974  16.650  20.687   4.715
38554W        W99975  31.926  42.033  14.276
38555W        W99976  11.344  37.495  13.868
38556W        W99977  14.693   9.745   2.258
38557W        W99978  40.342  15.309  12.851
38558W        W99979  25.506   9.849  13.833
38559W        W99980  28.121   8.188  10.094
38560W        W99981  32.044  11.206   2.874
38561W        W99982   1.735   4.784   3.792
38562W        W99983   4.835  20.180   4.628
38563W        W99984  29.953   1.276   2.896
38564W        W99985  37.888  36.933   0.339
38565W        W99986   7.841  17.798  13.859
38566W        W99987   6.684  29.579  10.934
38567W        W99988   5.876  16.141  13.405
38568W        W99989  14.133  22.655   2.179
38569W        W99990  19.163  10.673  14.012
38570W        W99991  14.155  18.295  12.882
38571W        W99992  36.476  14.796   4.791
38572W        W99993  25.006  27.557  10.407
38573W        W99994   8.689  41.521   3.670
38574W        W99995   3.775  37.884  13.494
38575W        W99996  16.189  30.605   3.379
38576W        W99997  36.396  16.757   3.274
38577W        W99998  13.124  10.345  11.974
38578W        W99999   1.837  19.624  13.326
38579W        W    0  24.997   1.339  13.961
38580W        W    1  22.580  13.216   3.248
38581W        W    2  14.753  43.010   0.461
38582W        W    3   4.222  18.605  11.476
38583W        W    4  30.917  12.291  11.936
38584W        W    5  28.973   2.917  11.590
38585W        W    6   5.275  20.730  13.808
38586W        W    7   7.397  27.498  12.512
38587W        W    8  34.020  26.002   4.144
38588W        W    9   9.284   1.883  13.540
38589W        W   10   4.837  18.708   0.370
38590W        W   11  18.604  15.629  10.540
38591W        W   12  28.047  38.850  11.581
38592W        W   13  29.976   3.837   2.353
38593W        W   14   6.405  10.236  14.781
38594W        W   15   8.169  16.791   1.732
38595W        W   16  36.005  30.999  14.937
38596W        W   17  41.418  24.118   0.930
38597W        W   18   5.745   8.781   4.720
38598W        W   19  14.252  42.391  12.415
38599W        W   20  23.531   3.284   0.435
38600W        W   21   2.817  36.461  11.485
38601W        W   22  44.389   3.388   1.426
38602W        W   23   0.771  23.226  14.810
38603W        W   24  11.266  40.519   0.872
38604W        W   25  23.576  12.183  14.967
38605W        W   26  43.406  32.114  14.850
38606W        W   27  39.383  36.453  12.568
38607W        W   28  21.231  35.914  12.858
38608W        W   29  19.708  43.931   1.210
38609W        W   30  28.599   2.738   3.300
38610W        W   31  25.115  12.121   2.232
38611W        W   32   7.174  19.544  14.377
38612W        W   33  27.559   3.745   4.657
38613W        W   34   1.396  28.537  12.405
38614W        W   35  16.150  33.537   2.343
38615W        W   36  21.535  24.206  14.783
38616W        W   37  36.358  42.469   2.871
38617W        W   38  35.981  28.541  11.462
38618W        W   39  31.600   9.723  12.479
38619W        W   40  39.489  12.281   5.248
38620W        W   41  27.086   7.258   1.933
38621W        W   42  14.095  10.828  14.938
38622W        W   43   1.752   0.769  13.548
38623W        W   44  29.652  14.813  12.023
38624W        W   45  22.586  43.921  10.066
38625W        W   46  15.684   3.235  11.046
38626W        W   47  10.156  28.102  11.373
38627W        W   48  18.639  12.810   0.786
38628W        W   49  19.263   8.169   2.387
38629W        W   50   5.409  28.581  14.956
38630W        W   51   1.920   0.830   4.117
38631W        W   52  12.823  20.523   4.132
38632W        W   53  16.240   7.879  14.463
38633W        W   54  20.629  11.693   3.291
38634W        W   55  24.157  18.670   3.848
38635W        W   56  18.709  16.302   3.734
38636W        W   57  16.134  17.215   3.188
38637W        W   58  19.738   2.384  12.371
38638W        W   59  24.092   9.311  12.344
38639W        W   60  24.509  23.082   2.864
38640W        W   61   1.934  44.414   3.653
38641W        W   62  33.092  40.341   4.269
38642W        W   63  38.009  41.019   1.773
38643W        W   64  38.819  44.491   0.964
38644W        W   65   3.374  39.043   4.343
38645W        W   66  17.193  22.690   4.187
38646W        W   67  39.843  33.481   3.675
38647W        W   68  10.270  13.711  12.437
38648W        W   69  28.018   4.255  12.089
38649W        W   70  23.050  28.653   0.889
38650W        W   71  20.157  21.160  10.561
38651W        W   72  15.271   3.460   3.753
38652W        W   73  22.230  39.395   0.440
38653W        W   74  21.647  41.454  13.362
38654W        W   75  12.226   3.300   1.340
38655W        W   76  18.238  14.740   3.670
38656W        W   77   1.893  26.149   0.372
38657W        W   78  11.696   8.721   5.110
38658W        W   79  37.990  20.739  11.474
38659W        W   80  18.693  25.069   3.665
38660W        W   81  38.445  38.422   0.944
38661W        W   82  35.538   4.365   3.169
38662W        W   83  44.877  24.997  14.486
38663W        W   84   7.344  16.787   3.656
38664W        W   85  21.044  26.057  12.493
38665W        W   86  44.854  28.566  14.018
38666W        W   87  41.946  16.727  13.409
38667W        W   88  40.395  20.128   2.837
38668W        W   89  21.217  23.633   3.300
38669W        W   90  40.322  22.166   0.474
38670W        W   91  43.797  26.502  13.973
38671W        W   92  22.665  22.729  12.570
38672W        W   93  16.796  40.530  10.912
38673W        W   94  11.322  20.610   4.245
38674W        W   95  34.370  18.622  11.375
38675W        W   96  18.099  19.152   0.954
38676W        W   97  30.065  36.483   1.736
38677W        W   98  15.760  18.608  11.918
38678W        W   99  14.239  18.224  13.811
38679W        W  100   0.877  31.623  11.488
38680W        W  101  34.055  24.511   4.672
38681W        W  102  37.538  28.673  14.845
38682W        W  103   3.766  19.628   2.305
38683W        W  104  28.125  38.869  10.512
38684W        W  105  10.652  31.909  13.910
38685W        W  106   2.878  34.977  12.920
38686W        W  107   5.737   7.239  13.355
38687W        W  108  16.754  36.095   0.273
38688W        W  109  38.389  16.106   2.306
38689W        W  110  26.518   4.208  14.760
38690W        W  111  37.408  31.619   4.655
38691W        W  112   9.808  11.815   0.399
38692W        W  113  30.624  24.038   2.261
38693W        W  114  36.557   3.949   4.208
38694W        W  115   1.279  21.020   4.721
38695W        W  116  17.236   1.319  13.413
38696W        W  117  18.232   7.229   0.766
38697W        W  118  19.575  14.136   2.737
38698W        W  119  10.793  39.946   0.308
38699W        W  120  25.599  32.455  11.591
38700W        W  121  44.975  30.991  13.473
38701W        W  122   3.865  10.851   4.708
38702W        W  123  22.081  23.703   4.623
38703W        W  124  28.617  25.587   3.766
38704W        W  125  34.563  31.120  11.404
38705W        W  126  13.109   5.878   3.215
38706W        W  127   7.352  14.296  12.368
38707W        W  128  38.961   1.426   2.806
38708W        W  129  33.585  15.093  11.979
38709W        W  130   4.788   9.383  13.866
38710W        W  131  21.131  37.486   0.285
38711W        W  132  32.615  35.429   2.290
38712W        W  133  30.489   6.679   3.367
38713W        W  134  15.755  37.385   1.344
38714W        W  135  40.403  16.198   3.754
38715W        W  136  14.750  38.827  11.932
38716W        W  137  26.136  10.197   4.628
38717W        W  138  25.690  23.107   1.924
38718W        W  139  39.322  21.051  10.512
38719W        W  140  24.599   5.296  11.857
38720W        W  141   0.359  31.029   2.807
38721W        W  142  26.203  20.034  14.357
38722W        W  143  29.461  37.348   0.344
38723W        W  144  41.436  26.581  14.019
38724W        W  145  26.200   6.379  13.343
38725W        W  146  41.312  25.073  10.627
38726W        W  147   2.410  24.636   1.301
38727W        W  148   4.738  24.058  14.784
38728W        W  149  23.157  34.989   4.176
38729W        W  150  11.271   0.346  13.963
38730W        W  151   6.737  12.727  13.046
38731W        W  152  29.563  32.569  14.333
38732W        W  153   3.443  23.502   4.283
38733W        W  154  36.470  19.064   3.347
38734W        W  155  35.046  15.753   1.431
38735W        W  156  17.778  32.890  14.321
38736W        W  157  24.208  21.160   3.370
38737W        W  158  34.452  31.996   3.847
38738W        W  159   5.761  19.185  10.534
38739W        W  160  35.865   3.435  13.310
38740W        W  161   1.378  14.338  14.359
38741W        W  162  35.992  29.482  12.447
38742W        W  163  32.970   3.295  14.764
38743W        W  164  41.978  13.318   0.760
38744W        W  165  40.382  14.715  10.915
38745W        W  166  12.250  25.218  14.488
38746W        W  167  38.536  32.108  13.312
38747W        W  168  26.123  17.595   1.439
38748W        W  169  27.043   9.168  13.532
38749W        W  170  33.447  26.061  11.039
38750W        W  171  34.999  36.994  10.982
38751W        W  172  22.657  23.662  13.338
38752W        W  173  33.470  40.333   1.377
38753W        W  174  19.730   8.347  10.606
38754W        W  175  14.298  27.489   3.823
38755W        W  176  41.006  16.600  10.016
38756W        W  177  42.435  26.068  13.506
38757W        W  178  18.726  29.566  10.462
38758W        W  179  26.174  17.794  12.054
38759W        W  180  37.375  32.023   3.260
38760W        W  181  13.235  12.150  13.920
38761W        W  182  27.506   1.920  14.420
38762W        W  183  43.495  37.461  14.413
38763W        W  184  14.200   4.942   0.305
38764W        W  185  18.055   5.335   1.437
38765W        W  186  26.646  29.604   2.196
38766W        W  187  16.082   2.329   3.329
38767W        W  188  21.179   0.816   2.707
38768W        W  189  17.639   3.724   4.291
38769W        W  190  13.246  29.661  12.479
38770W        W  191  12.661  38.841   1.752
38771W        W  192  43.446   5.291   2.817
38772W        W  193  33.488  40.315  14.307
38773W        W  194  44.474  16.140   4.718
38774W        W  195   7.906  39.008  13.050
38775W        W  196  29.972  39.382   2.716
38776W        W  197  25.623  33.999  11.555
38777W        W  198   9.303  17.160  11.470
38778W        W  199   4.232  10.377  10.918
38779W        W  200  41.404  19.710  14.382
38780W        W  201  29.662  35.876  13.478
38781W        W  202  32.601  33.877   4.173
38782W        W  203  30.624  41.834   1.867
38783W        W  204  42.809  37.838  13.500
38784W        W  205  36.529  11.742  11.898
38785W        W  206  36.000  27.040   2.276
38786W        W  207  32.448  27.094  10.571
38787W        W  208  35.577  26.184   3.211
38788W        W  209   1.840  14.795   2.377
38789W        W  210  28.547   8.237   4.149
38790W        W  211  33.406  13.798  14.352
38791W        W  212   3.723  24.129  12.870
38792W        W  213  23.608  34.964   3.273
38793W        W  214   1.970   4.239   0.262
38794W        W  215  40.406  22.628   2.393
38795W        W  216  22.175   8.714  10.967
38796W        W  217  16.704  33.094   2.391
38797W        W  218  41.440   8.228  12.498
38798W        W  219  11.693  36.523  14.826
38799W        W  220  20.673  31.018   1.291
38800W        W  221   1.964  37.883  11.376
38801W        W  222  12.360   6.230  12.495
38802W        W  223  16.738  34.067   4.642
38803W        W  224  11.765  14.600  10.562
38804W        W  225  10.687  19.065   0.904
38805W        W  226  44.788  18.603   1.783
38806W        W  227  42.289  39.849   2.864
38807W        W  228  31.973   2.841   9.924
38808W        W  229   8.758  42.803  10.551
38809W        W  230   3.790  44.453   0.913
38810W        W  231   9.743   9.731  13.914
38811W        W  232  37.566  29.106  12.892
38812W        W  233  33.943  18.715   1.369
38813W        W  234  35.371  27.563   1.439
38814W        W  235  42.972  12.211   1.413
38815W        W  236  15.620   2.465  10.472
38816W        W  237  42.947  12.734  13.375
38817W        W  238  18.169  11.220  14.759
38818W        W  239  25.129  41.796  13.460
38819W        W  240   5.746  23.126   1.263
38820W        W  241  30.445   2.251   0.443
38821W        W  242  30.138  28.546   0.403
38822W        W  243  19.256  16.760  14.875
38823W        W  244  42.511   0.375   2.667
38824W        W  245  44.990  32.007  12.374
38825W        W  246   2.365  40.439   2.315
38826W        W  247   0.871  14.165  12.533
38827W        W  248  14.644  14.618   2.760
38828W        W  249  34.976   4.438   3.287
38829W        W  250  22.745  41.338  14.963
38830W        W  251  18.683  38.950   3.829
38831W        W  252  40.998   7.669  10.495
38832W        W  253   6.917  21.256  14.431
38833W        W  254  28.674  40.467   2.866
38834W        W  255  16.745   9.212   4.735
38835W        W  256  19.595  24.722   4.646
38836W        W  257  31.407  25.617  14.986
38837W        W  258  23.158  25.661   4.322
38838W        W  259  21.573  38.473  11.083
38839W        W  260   2.426  26.102   1.417
38840W        W  261  25.659   0.764  10.522
38841W        W  262  20.702   4.805  14.766
38842W        W  263  31.530   9.885   3.801
38843W        W  264  34.499  25.485   4.271
38844W        W  265  19.722  28.182  10.637
38845W        W  266  33.486  33.623  14.978
38846W        W  267  34.490  16.604  10.978
38847W        W  268  43.490  13.349   1.900
38848W        W  269  22.082  19.654  11.032
38849W        W  270  37.932  14.303  12.439
38850W        W  271  36.082   7.751  14.334
38851W        W  272  26.129  18.207   4.709
38852W        W  273  42.029   1.351  14.858
38853W        W  274  20.246   6.871  11.410
38854W        W  275  34.527  29.517  11.563
38855W        W  276   7.380  37.063   5.265
38856W        W  277  23.186  34.868  13.512
38857W        W  278  32.451   6.410  10.526
38858W        W  279  28.045  22.125   3.746
38859W        W  280  17.171  27.975   4.123
38860W        W  281  21.728  42.307   0.916
38861W        W  282  17.068  36.501  10.434
38862W        W  283  31.144  13.144  13.996
38863W        W  284  11.373   6.359  11.979
38864W        W  285   2.448  43.363   1.837
38865W        W  286  12.282  42.935   0.409
38866W        W  287  20.271   3.363   0.469
38867W        W  288  26.667  38.857   2.803
38868W        W  289   3.725   7.866   4.301
38869W        W  290  17.083  23.602  11.945
38870W        W  291  27.635  26.600  10.453
38871W        W  292   5.257   3.358   5.294
38872W        W  293  24.212  20.168  14.955
38873W        W  294  23.119   5.912  12.912
38874W        W  295  11.330   8.721  12.831
38875W        W  296  19.658   6.823  13.964
38876W        W  297  15.589  36.504   2.392
38877W        W  298   5.395   7.755   1.879
38878W        W  299  16.636  27.152  11.892
38879W        W  300  30.595  18.739   4.114
38880W        W  301  34.047  42.028  11.427
38881W        W  302  31.135  13.307   4.611
38882W        W  303   5.792  26.518   1.764
38883W        W  304  18.219  32.534  11.516
38884W        W  305  15.099  20.253  12.412
38885W        W  306  42.508  35.093   2.681
38886W        W  307  40.313  37.082   1.892
38887W        W  308  13.346  13.323  10.634
38888W        W  309  21.738   1.377  14.949
38889W        W  310  25.574  30.647   1.390
38890W        W  311  27.165  32.550  13.928
38891W        W  312  13.648  44.328   4.827
38892W        W  313  29.593  37.500   4.730
38893W        W  314   5.412   8.793  13.506
38894W        W  315  24.589  28.049   0.891
38895W        W  316  19.631   9.215  14.010
38896W        W  317  32.927  25.666   0.448
38897W        W  318  21.212  26.547  12.020
38898W        W  319   0.253  33.094   4.616
38899W        W  320   4.444  42.961   5.190
38900W        W  321  11.214  13.832  11.087
38901W        W  322  37.561   1.459  13.843
38902W        W  323  26.660   8.182  13.389
38903W        W  324  23.132  10.207  12.410
38904W        W  325  37.414  24.051   5.304
38905W        W  326  27.174   9.361  12.560
38906W        W  327   6.915  20.241   2.688
38907W        W  328  15.300  41.836   4.792
38908W        W  329  27.455  14.719   5.209
38909W        W  330  33.049  31.128   4.151
38910W        W  331  43.022  24.036   3.348
38911W        W  332  21.619  38.029  11.034
38912W        W  333  43.793  28.434   4.229
38913W        W  334   1.431  37.396   0.328
38914W        W  335   6.805  21.552  13.859
38915W        W  336  28.153   5.693   0.271
38916W        W  337  41.486  27.947  14.393
38917W        W  338  23.573  16.594   4.283
38918W        W  339  17.637  26.668   4.313
38919W        W  340   8.194  22.037  13.331
38920W        W  341  13.242  22.738   2.357
38921W        W  342  16.193   7.394  14.480
38922W        W  343  38.356  44.460  13.839
38923W        W  344  11.211  21.199  11.454
38924W        W  345  30.434   7.820  12.536
38925W        W  346   8.297  14.285  14.328
38926W        W  347  31.581   2.428  11.419
38927W        W  348  15.130  17.204   4.180
38928W        W  349  31.572  34.568   2.762
38929W        W  350  34.431  15.758  10.635
38930W        W  351  35.952  30.136  14.341
38931W        W  352  12.334  34.387   1.902
38932W        W  353  28.022  31.605  11.470
38933W        W  354  42.808   4.919   1.929
38934W        W  355  29.633  10.362  12.875
38935W        W  356  32.973   6.323  14.413
38936W        W  357  12.249  14.642   1.859
38937W        W  358  42.306   3.731  12.929
38938W        W  359  25.978  35.092   2.397
38939W        W  360  21.224  21.171  14.787
38940W        W  361  19.571  25.633   4.305
38941W        W  362   7.181  27.089  11.041
38942W        W  363  21.183  17.219   3.704
38943W        W  364  38.555  12.193   1.765
38944W        W  365   7.839  25.974   1.824
38945W        W  366  26.134  12.137  11.570
38946W        W  367   7.680  21.237  14.500
38947W        W  368  25.179   2.846   2.370
38948W        W  369  25.136  38.047   2.326
38949W        W  370  29.929  17.285  13.836
38950W        W  371  28.998  44.812   4.808
38951W        W  372   9.158  44.408   3.293
38952W        W  373   0.392  39.526  14.467
38953W        W  374   0.479  38.871   2.181
38954W        W  375  11.821  44.266   0.911
38955W        W  376  22.642  31.063   3.719
38956W        W  377  26.629   1.842   9.925
38957W        W  378   3.732  20.580  11.028
38958W        W  379  27.645  13.335   4.139
38959W        W  380   9.824  17.259  10.460
38960W        W  381  19.270  35.484  10.459
38961W        W  382  44.934  39.832  14.840
38962W        W  383   3.818  37.566  11.399
38963W        W  384   6.204  13.245  13.538
38964W        W  385   9.705   8.674  12.453
38965W        W  386  42.987  16.739   4.817
38966W        W  387  39.817  18.274   4.679
38967W        W  388  33.940  24.696   0.779
38968W        W  389   7.323  27.093  12.888
38969W        W  390   4.280  18.284   2.745
38970W        W  391  40.848  34.876  12.371
38971W        W  392  14.261  22.034   3.386
38972W        W  393  42.993  11.805   1.274
38973W        W  394  30.975  29.532   4.695
38974W        W  395  30.642  36.523  12.943
38975W        W  396  41.333   8.192   0.338
38976W        W  397  40.865  33.384   3.758
38977W        W  398  14.629   3.827   1.432
38978W        W  399  36.851  21.732  13.041
38979W        W  400  23.508  42.010   1.229
38980W        W  401  36.047  28.000   2.311
38981W        W  402  26.477  34.883  13.345
38982W        W  403  23.064  36.980   4.145
38983W        W  404  38.920  34.409   3.259
38984W        W  405  44.395   8.307  10.431
38985W        W  406  23.674   6.730  12.417
38986W        W  407  42.421  27.093  10.409
38987W        W  408  33.591  27.953  14.762
38988W        W  409   6.806  35.934  13.361
38989W        W  410   7.792  21.529  11.446
38990W        W  411  25.974   1.883  11.116
38991W        W  412  42.406  13.245   1.769
38992W        W  413   5.811  21.603  11.071
38993W        W  414   7.199   3.416  10.985
38994W        W  415  35.000  23.509   1.231
38995W        W  416  15.604   1.390  14.481
38996W        W  417  44.346  11.192  14.830
38997W        W  418  18.054   3.230   1.346
38998W        W  419  36.446  39.322   0.740
38999W        W  420  30.149  18.636   0.949
39000W        W  421   2.879  12.289  12.070
39001W        W  422   5.762  20.545  14.758
39002W        W  423  18.119  17.683  12.040
39003W        W  424   8.666  20.608  13.309
39004W        W  425   9.189  17.692  14.328
39005W        W  426  20.178  37.881   3.262
39006W        W  427  35.026  20.637  13.528
39007W        W  428   0.882  37.904   2.256
39008W        W  429  16.670  31.991  11.562
39009W        W  430   2.248  43.986  14.422
39010W        W  431  23.705   3.363   2.827
39011W        W  432  29.589   0.494   0.939
39012W        W  433  15.211   9.852   3.851
39013W        W  434  15.678  44.319   1.415
39014W        W  435  33.420  21.526  10.933
39015W        W  436  17.558   7.872   1.893
39016W        W  437  14.806  21.044  13.426
39017W        W  438  17.627  13.644  10.591
39018W        W  439  30.017   7.827  13.361
39019W        W  440  19.130  15.736   3.278
39020W        W  441   4.239  20.269   2.330
39021W        W  442  12.238  42.881   1.854
39022W        W  443  27.961  40.352   3.233
39023W        W  444  17.067  44.490  11.391
39024W        W  445  15.209   1.421  12.341
39025W        W  446  24.664   6.804  13.459
39026W        W  447  25.661  37.513   4.830
39027W        W  448  33.465  31.495   0.823
39028W        W  449  29.944  36.905   0.808
39029W        W  450   7.306  39.038  13.875
39030W        W  451  12.612  30.566   5.310
39031W        W  452  39.918  44.376   4.783
39032W        W  453  15.625  43.440   1.782
39033W        W  454  22.014  31.585  11.923
39034W        W  455  43.929  29.630   2.343
39035W        W  456  26.958  27.479  13.529
39036W        W  457  11.737  38.350   3.295
39037W        W  458  34.516  27.969   2.378
39038W        W  459  40.006   1.477  13.387
39039W        W  460  30.548  29.528  12.960
39040W        W  461  20.043  15.234   2.331
39041W        W  462  27.519   1.377   2.305
39042W        W  463  34.026  24.486  12.568
39043W        W  464  23.148  37.385   3.182
39044W        W  465  22.662  24.027   3.733
39045W        W  466  29.619  23.649  10.000
39046W        W  467   3.781  10.817   1.295
39047W        W  468  36.429  40.836   1.856
39048W        W  469  33.467  12.235   2.845
39049W        W  470  24.610  27.499   3.169
39050W        W  471  10.729   5.342   1.935
39051W        W  472   2.259  40.510  11.117
39052W        W  473  12.229  33.528   4.268
39053W        W  474   1.795  33.581  11.446
39054W        W  475  24.685   1.740   1.274
39055W        W  476  25.101  24.024   2.231
39056W        W  477  32.966  16.691  13.057
39057W        W  478  22.716  23.208  12.360
39058W        W  479  24.177   3.770  13.803
39059W        W  480   8.383   1.472   0.780
39060W        W  481  33.527  41.968  10.926
39061W        W  482  44.259  12.204  14.851
39062W        W  483  33.962  15.249  13.044
39063W        W  484  10.256   3.418  13.542
39064W        W  485  37.511   6.805   3.305
39065W        W  486  28.937   2.856   2.731
39066W        W  487  30.572  36.077   0.311
39067W        W  488   1.820   3.782   0.434
39068W        W  489   6.742   6.784  10.978
39069W        W  490  22.216  35.904   2.283
39070W        W  491  35.363  44.907  12.899
39071W        W  492  27.149  39.380   0.394
39072W        W  493  22.023  39.527   1.312
39073W        W  494  10.163   1.397  13.803
39074W        W  495  44.268  22.712   0.315
39075W        W  496   2.868  10.374   0.441
39076W        W  497  10.281  39.830   0.425
39077W        W  498   8.800  34.962   1.866
39078W        W  499  35.089   0.837  13.851
39079W        W  500  42.467  29.510   3.737
39080W        W  501  40.521  18.595  11.539
39081W        W  502  21.061  10.838  14.416
39082W        W  503   8.251  21.538   4.165
39083W        W  504   7.273  12.836   1.861
39084W        W  505  28.102  42.527   3.809
39085W        W  506  12.663  41.830  14.983
39086W        W  507  14.259  41.404  12.898
39087W        W  508  10.795  37.357  10.563
39088W        W  509   9.874   8.202  10.446
39089W        W  510   6.237  33.445   9.994
39090W        W  511   9.227  18.280  10.630
39091W        W  512  35.465   0.352  12.044
39092W        W  513  15.241   0.483  12.384
39093W        W  514  34.953  36.079   2.758
39094W        W  515   8.253   1.807   1.931
39095W        W  516  41.011  31.146   3.789
39096W        W  517  26.106  27.467  13.362
39097W        W  518  43.915   5.798   1.794
39098W        W  519  13.131   9.233  11.543
39099W        W  520  39.963  35.953   1.716
39100W        W  521  17.749  28.968   0.780
39101W        W  522  33.915  31.626   0.280
39102W        W  523  42.438  27.633   4.351
39103W        W  524  11.829   7.179  12.845
39104W        W  525  32.098  16.617  14.389
39105W        W  526  36.977  18.641   4.194
39106W        W  527  40.903  10.309  14.006
39107W        W  528  24.495   7.289   4.674
39108W        W  529  31.589   4.419   1.313
39109W        W  530  29.976  33.127   2.333
39110W        W  531  25.544  30.013   3.265
39111W        W  532  12.618  10.319   4.775
39112W        W  533  42.776  42.336   1.831
39113W        W  534  27.982  37.864   4.195
39114W        W  535  28.657   0.967   0.866
39115W        W  536   6.698   3.262  10.447
39116W        W  537   5.236  22.080  12.360
39117W        W  538   4.448  16.732  11.596
39118W        W  539  34.562  38.373  13.052
39119W        W  540   6.405   7.316   2.262
39120W        W  541  38.328   4.337  11.974
39121W        W  542   5.267   5.368  10.998
39122W        W  543  11.301   4.800  11.908
39123W        W  544   6.290  21.240  11.567
39124W        W  545   2.894  15.173  11.406
39125W        W  546   7.348  24.607   9.592
39126W        W  547  41.318   4.380   2.184
39127W        W  548  12.278  26.560  13.460
39128W        W  549  39.426  29.049   1.788
39129W        W  550  10.672  33.565   2.891
39130W        W  551   5.689   6.296  12.426
39131W        W  552  23.613  17.243  12.000
39132W        W  553  24.979  13.692  12.905
39133W        W  554  11.251  37.528  11.526
39134W        W  555  44.952  32.436   1.360
39135W        W  556  18.277  38.384   4.294
39136W        W  557  25.145  39.866  13.538
39137W        W  558  21.644   4.229   4.179
39138W        W  559  18.191  44.459   4.816
39139W        W  560  14.622  10.199  14.011
39140W        W  561  32.001  13.199   1.821
39141W        W  562  12.217  36.515  10.451
39142W        W  563  11.833  31.086   2.282
39143W        W  564  17.293  43.953  14.009
39144W        W  565   7.265  35.476   1.731
39145W        W  566  23.576  37.554   0.818
39146W        W  567  18.217  36.842   0.803
39147W        W  568  21.660  27.475  11.410
39148W        W  569   4.417   8.814   1.235
39149W        W  570  43.950  39.452  14.923
39150W        W  571  10.329  15.286   0.372
39151W        W  572  24.587  14.640   2.241
39152W        W  573  20.634  15.723  14.799
39153W        W  574  37.951  40.473   3.652
39154W        W  575   1.283  10.255  12.380
39155W        W  576   4.847  38.498   5.103
39156W        W  577  31.501  12.186   3.675
39157W        W  578  28.566   5.404  10.915
39158W        W  579  17.245  19.197   2.194
39159W        W  580  33.494   2.416   2.208
39160W        W  581   0.745   5.234   0.367
39161W        W  582  41.519  37.417  14.286
39162W        W  583  33.505  17.069   3.313
39163W        W  584  34.111  21.204  10.479
39164W        W  585  24.608  42.492   3.335
39165W        W  586  18.284   0.403  12.047
39166W        W  587  29.085   0.938   4.121
39167W        W  588  39.426  40.434  10.562
39168W        W  589  24.076  23.650   4.598
39169W        W  590  37.520  13.691   2.308
39170W        W  591  34.965  42.300  10.499
39171W        W  592  17.656  41.830  14.482
39172W        W  593   3.293  43.019   1.722
39173W        W  594   6.347  14.246  10.513
39174W        W  595  44.875  17.592  13.476
39175W        W  596   4.353   7.354   3.356
39176W        W  597   1.422   1.766   0.912
39177W        W  598  21.058  22.179  12.041
39178W        W  599  35.032   0.438  11.042
39179W        W  600  20.763  19.722  14.849
39180W        W  601  17.596  12.702   3.735
39181W        W  602  27.445   9.169  11.401
39182W        W  603  36.028   7.302  11.584
39183W        W  604   2.841  27.076  12.373
39184W        W  605   2.928  19.724   4.608
39185W        W  606  37.982  30.015   3.282
39186W        W  607  31.103  28.038   3.290
39187W        W  608  23.691   0.372   1.263
39188W        W  609  24.507  39.376   3.214
39189W        W  610  11.816  22.669   0.282
39190W        W  611  39.479  14.695  11.990
39191W        W  612  15.725   6.407  12.989
39192W        W  613   4.875  33.475  12.517
39193W        W  614  16.590  44.353   3.279
39194W        W  615  30.657   1.279   3.258
39195W        W  616  35.907  23.988  13.832
39196W        W  617  26.649   5.805   4.781
39197W        W  618  15.135  41.942  10.923
39198W        W  619   8.175  33.603   3.630
39199W        W  620  25.533  38.988  10.951
39200W        W  621  40.867  11.733   3.149
39201W        W  622  39.930   1.359   0.480
39202W        W  623  12.238   4.843   0.370
39203W        W  624  25.541   5.223  12.072
39204W        W  625  28.090  17.136   4.165
39205W        W  626   6.290   8.328   3.181
39206W        W  627  26.675  10.376   1.335
39207W        W  628  23.220   9.283  10.956
39208W        W  629   0.829  16.657  12.087
39209W        W  630  12.695  30.575   0.346
39210W        W  631  43.388  19.099   0.894
39211W        W  632  11.688   7.378  11.595
39212W        W  633  42.472  36.984  12.363
39213W        W  634   3.791  36.017  10.636
39214W        W  635  26.205   2.828  11.115
39215W        W  636  28.048   9.330   2.664
39216W        W  637  44.854  15.310  11.532
39217W        W  638   6.387  19.763   3.719
39218W        W  639  14.211  19.060   0.769
39219W        W  640  32.932   6.689   2.255
39220W        W  641   9.219  24.107   0.481
39221W        W  642  34.986   2.735   3.829
39222W        W  643  15.132  32.628  13.430
39223W        W  644  37.850  29.078   4.271
39224W        W  645  29.556  31.008   2.196
39225W        W  646  21.628  42.455   1.279
39226W        W  647   1.295  11.344   1.395
39227W        W  648  36.069  18.175  12.541
39228W        W  649   0.863  15.172  11.607
39229W        W  650  43.813  21.727  10.942
39230W        W  651  26.636   7.799  10.549
39231W        W  652  18.656  35.018  14.982
39232W        W  653  26.562  34.615  14.402
39233W        W  654  41.953  36.386  10.581
39234W        W  655  30.537  28.642   2.399
39235W        W  656  41.814  27.950   4.615
39236W        W  657  37.027  38.411   1.807
39237W        W  658  26.975   5.337  10.631
39238W        W  659  24.223  36.511   1.310
39239W        W  660  12.831  34.950   3.814
39240W        W  661  41.431   3.822  14.474
39241W        W  662  18.196   3.888  13.545
39242W        W  663  41.854  19.689   0.848
39243W        W  664   6.333  33.504   2.267
39244W        W  665  21.218  31.041  13.504
39245W        W  666  18.072  18.212   4.687
39246W        W  667  37.930  12.180   2.410
39247W        W  668  32.514   1.450   2.378
39248W        W  669  44.889  36.044  13.964
39249W        W  670  21.214   6.235   9.968
39250W        W  671  29.495  18.714   1.273
39251W        W  672  12.239   6.310   3.706
39252W        W  673  22.668   2.302  12.959
39253W        W  674   4.933  15.144   9.951
39254W        W  675  28.494   3.731   4.251
39255W        W  676  42.781  43.323   3.211
39256W        W  677   0.279  18.614  12.561
39257W        W  678  35.080  22.632  12.824
39258W        W  679  18.771  31.496   2.264
39259W        W  680  27.671  11.630   3.709
39260W        W  681  19.636  36.944  14.821
39261W        W  682  21.026   9.836  14.810
39262W        W  683  24.694  28.461  12.897
39263W        W  684  26.049  36.501   4.136
39264W        W  685  44.364  21.751   1.253
39265W        W  686  11.861  31.143   1.888
39266W        W  687   5.300   9.656  10.574
39267W        W  688   6.349  31.584   2.803
39268W        W  689   5.281   1.970   3.292
39269W        W  690  14.311   7.385   9.957
39270W        W  691  21.257   7.259  11.427
39271W        W  692  14.221  39.959   4.328
39272W        W  693  32.615  16.643   1.927
39273W        W  694  29.545  15.814  10.113
39274W        W  695  35.900  14.803   4.354
39275W        W  696  26.029  34.539  10.480
39276W        W  697   1.399  42.300  13.368
39277W        W  698  43.905  33.048  12.413
39278W        W  699   6.792  27.106  14.359
39279W        W  700   6.225   7.767   3.347
39280W        W  701   8.880  38.363  13.317
39281W        W  702  40.978  30.915  14.934
39282W        W  703  38.851  11.253   3.207
39283W        W  704  18.552  31.535  12.357
39284W        W  705  43.407  29.462   3.804
39285W        W  706  10.736   3.740  11.885
39286W        W  707  33.087  25.515   4.294
39287W        W  708  24.655  11.712  14.861
39288W        W  709  15.154   7.753   3.161
39289W        W  710  36.517  40.907   4.767
39290W        W  711  13.707  12.667   1.224
39291W        W  712  30.938  19.149   0.467
39292W        W  713  32.422  33.579   3.285
39293W        W  714  30.955   8.273   2.727
39294W        W  715  34.103  31.527  13.362
39295W        W  716  43.887  19.728   3.282
39296W        W  717  41.308   5.800   3.233
39297W        W  718   2.767  43.817   2.292
39298W        W  719   4.311  18.063   4.617
39299W        W  720  29.562  15.119  10.954
39300W        W  721  38.477  35.591   0.921
39301W        W  722  35.501   8.827   0.385
39302W        W  723  11.825  15.233  13.018
39303W        W  724  16.744  27.082   3.728
39304W        W  725   4.807  22.019   0.375
39305W        W  726  17.784  12.288   0.403
39306W        W  727  40.370  16.633   2.326
39307W        W  728  31.109  28.061   0.879
39308W        W  729  21.112   0.441  13.987
39309W        W  730  32.024   0.833   3.175
39310W        W  731  11.706  37.452  11.481
39311W        W  732  31.135  25.123   9.936
39312W        W  733  44.803   7.834  12.459
39313W        W  734  39.375  11.208   2.826
39314W        W  735  31.639  27.553  14.403
39315W        W  736   9.777  16.756   3.330
39316W        W  737   5.756  29.028  11.579
39317W        W  738   9.161  44.869  14.393
39318W        W  739  20.042  33.384  14.955
39319W        W  740   7.287  35.964   4.678
39320W        W  741  44.913  29.974  14.779
39321W        W  742   0.786  44.974  10.892
39322W        W  743  34.926  43.443   1.426
39323W        W  744  19.747  43.390   0.940
39324W        W  745   7.769   2.788  11.016
39325W        W  746  36.974  37.420   3.733
39326W        W  747  40.465  31.446  14.341
39327W        W  748   7.386  29.426   2.281
39328W        W  749  17.624  13.693   3.256
39329W        W  750  34.572  14.635  13.904
39330W        W  751   3.940   8.838   1.218
39331W        W  752   7.343   2.876  13.374
39332W        W  753  11.202  16.725   0.877
39333W        W  754  19.569  17.630  13.802
39334W        W  755  24.702   9.249   3.760
39335W        W  756  12.684  18.119   0.482
39336W        W  757  13.254   8.303  12.938
39337W        W  758  10.235  19.663  11.490
39338W        W  759  38.445   0.902   2.697
39339W        W  760  36.847  11.865   2.669
39340W        W  761  36.525  38.508   4.798
39341W        W  762  23.549   5.324  13.475
39342W        W  763  35.439  39.546  13.468
39343W        W  764  26.052  41.402  14.428
39344W        W  765   0.872  31.921  11.494
39345W        W  766   6.837   1.828  13.393
39346W        W  767  33.536  27.951   2.770
39347W        W  768   4.795  23.578  14.867
39348W        W  769  39.997  37.464  10.980
39349W        W  770   4.814  24.568  11.895
39350W        W  771   8.719  33.931   0.397
39351W        W  772   5.312  19.729  11.049
39352W        W  773   8.814   9.823  12.432
39353W        W  774  41.044  37.476   3.746
39354W        W  775  29.524   2.956   4.203
39355W        W  776  23.035  24.210  12.501
39356W        W  777  32.936   5.258  13.373
39357W        W  778   0.313   0.252  10.521
39358W        W  779  27.594   8.862  13.541
39359W        W  780  10.873  16.706   2.839
39360W        W  781  12.782  21.064   4.334
39361W        W  782  36.091  18.102  11.053
39362W        W  783   7.239  31.423  11.903
39363W        W  784  43.820  20.587   2.416
39364W        W  785  15.158  23.491  11.599
39365W        W  786  15.764   5.434   0.466
39366W        W  787  31.625   7.198  13.956
39367W        W  788  13.631  26.632  12.461
39368W        W  789  28.153  35.071   1.742
39369W        W  790   0.771  41.892  10.470
39370W        W  791  40.030  12.293   5.646
39371W        W  792  18.774  33.418  13.808
39372W        W  793   1.294  22.011   0.847
39373W        W  794  20.216   4.764   1.393
39374W        W  795  36.471  14.189  13.402
39375W        W  796  19.667  12.214  11.871
39376W        W  797  12.215   0.755  10.917
39377W        W  798  11.717  37.986  11.392
39378W        W  799  23.615  35.493   1.393
39379W        W  800   8.884  37.540   0.288
39380W        W  801  11.793   0.919   2.395
39381W        W  802  15.199  14.322   0.752
39382W        W  803  34.049  15.767   0.375
39383W        W  804  26.034  25.966   0.765
39384W        W  805   1.263  23.183   0.279
39385W        W  806  44.308   8.338  14.472
39386W        W  807  14.771  22.652  10.019
39387W        W  808  10.776  26.006   1.785
39388W        W  809  24.021  17.298   0.284
39389W        W  810   3.928   5.711  10.644
39390W        W  811   9.246  24.560  11.461
39391W        W  812  33.926  32.612   1.435
39392W        W  813  16.169  13.743   2.687
39393W        W  814  22.589  31.554   4.623
39394W        W  815  33.930   6.760  10.913
39395W        W  816  35.865  21.241  13.540
39396W        W  817  44.482  19.760  14.856
39397W        W  818  31.039  40.834  12.964
39398W        W  819  29.155  27.964   0.781
39399W        W  820   0.420   7.694   3.788
39400W        W  821  29.504  21.695  12.434
39401W        W  822   4.297   0.470  14.758
39402W        W  823   7.696   6.891  14.874
39403W        W  824  17.291   8.267  11.465
39404W        W  825  35.368  40.850  14.375
39405W        W  826  27.164  37.577   1.410
39406W        W  827  22.666  39.897   4.218
39407W        W  828  40.947  41.958   1.840
39408W        W  829  27.449  20.601  14.508
39409W        W  830  43.357  16.662   2.184
39410W        W  831   5.815  37.856   1.315
39411W        W  832  38.855  30.155  12.980
39412W        W  833  28.623  13.343   1.373
39413W        W  834  21.648  34.937  12.489
39414W        W  835  25.531  28.581  13.439
39415W        W  836  15.647  38.475  10.592
39416W        W  837   5.850   2.864  14.403
39417W        W  838  21.634  19.265   2.396
39418W        W  839  19.568   9.812  14.423
39419W        W  840  17.229  26.143   3.809
39420W        W  841   4.892  40.376  13.455
39421W        W  842  39.489  14.682   2.845
39422W        W  843   2.826   3.337  12.904
39423W        W  844  12.239  36.019  14.014
39424W        W  845   5.818  26.503   1.288
39425W        W  846  17.122  27.136   3.290
39426W        W  847  44.844  35.404   4.188
39427W        W  848  12.229  42.840  12.569
39428W        W  849  40.953  17.109   3.331
39429W        W  850  36.040   5.840  12.883
39430W        W  851  11.245  23.094  10.913
39431W        W  852  39.011  42.396  14.775
39432W        W  853   0.378  32.511   2.879
39433W        W  854   1.330  14.706  13.853
39434W        W  855   3.296  18.724   4.709
39435W        W  856  33.391  20.234   1.878
39436W        W  857   8.735  41.299   3.155
39437W        W  858  21.232  12.813   0.288
39438W        W  859  12.316  42.968   2.859
39439W        W  860  34.499  41.792  13.053
39440W        W  861  41.316   7.229   1.776
39441W        W  862  28.107  40.405  12.569
39442W        W  863  39.889  15.265  11.412
39443W        W  864  22.097  13.639   9.600
39444W        W  865  23.651  18.282   4.820
39445W        W  866  42.984  18.231   3.770
39446W        W  867  34.989  29.500   4.116
39447W        W  868  42.355  33.965  14.761
39448W        W  869  14.228  25.574  13.960
39449W        W  870  19.076   9.708   2.682
39450W        W  871  10.834  27.622   1.882
39451W        W  872  43.301  25.642   2.307
39452W        W  873  35.397  12.146  12.920
39453W        W  874  23.642   6.875  12.850
39454W        W  875  13.346  37.493   1.859
39455W        W  876  25.543  21.512  13.401
39456W        W  877  27.094  28.014   0.858
39457W        W  878  20.649  41.306   1.363
39458W        W  879  10.823   9.871  13.952
39459W        W  880   7.689  40.953   1.387
39460W        W  881  20.755  37.516   0.422
39461W        W  882  19.218   8.832  10.600
39462W        W  883   1.390  37.080   0.257
39463W        W  884  31.897  10.215  11.443
39464W        W  885  19.654  32.592  10.445
39465W        W  886  24.668  44.491  11.474
39466W        W  887  39.393   8.231   0.904
39467W        W  888  12.227  26.069   1.714
39468W        W  889  44.499   9.677  11.453
39469W        W  890  32.574  22.199   0.796
39470W        W  891  32.426   7.215  10.627
39471W        W  892  34.528  32.562   2.328
39472W        W  893  18.134  11.341   4.702
39473W        W  894  43.363  38.888   4.631
39474W        W  895  25.967  19.565   3.185
39475W        W  896  43.968  36.401  14.448
39476W        W  897  36.038  37.376   3.188
39477W        W  898   9.698  20.081  12.031
39478W        W  899  18.680   3.383   5.086
39479W        W  900  38.886  30.925  12.071
39480W        W  901  11.624  30.156  14.485
39481W        W  902  44.273  28.103  10.068
39482W        W  903  38.535  21.233  12.832
39483W        W  904  17.703  40.000  12.351
39484W        W  905  41.890  30.069   3.314
39485W        W  906   0.351   6.722   4.822
39486W        W  907  38.948  36.047   4.823
39487W        W  908  38.900  20.176  13.962
39488W        W  909  39.340   0.948  13.828
39489W        W  910  12.157  15.591   2.732
39490W        W  911  14.619  20.110  11.372
39491W        W  912  20.106  36.889  11.569
39492W        W  913   4.355  25.032   4.640
39493W        W  914  32.996  38.414   1.427
39494W        W  915  11.637  19.068  12.988
39495W        W  916   6.893  17.212   2.731
39496W        W  917  15.154  34.887  14.503
39497W        W  918  21.663  11.693  10.575
39498W        W  919  44.309  41.874  12.958
39499W        W  920  33.979  31.508  11.388
39500W        W  921  41.881  17.260  12.854
39501W        W  922  13.157  23.222   1.913
39502W        W  923  15.178  42.492  11.978
39503W        W  924  30.999  34.867   4.620
39504W        W  925   2.336  12.724   3.219
39505W        W  926  28.037  35.951   0.258
39506W        W  927   7.693  19.536   2.217
39507W        W  928  20.743  38.378  14.482
39508W        W  929  28.585  16.752   2.306
39509W        W  930  41.411   3.809  13.813
39510W        W  931  33.385  26.496  12.984
39511W        W  932  22.131  12.191  11.869
39512W        W  933  24.640  27.064   4.833
39513W        W  934  34.982  30.917  10.932
39514W        W  935  11.805   8.705  10.412
39515W        W  936  31.433  17.711   0.314
39516W        W  937  18.162  27.997  11.924
39517W        W  938  16.776  18.545  12.358
39518W        W  939  27.503  21.156  10.501
39519W        W  940   6.887  12.208  10.924
39520W        W  941  32.983  15.242  14.289
39521W        W  942   6.786  44.358  12.981
39522W        W  943  25.655   6.248  13.799
39523W        W  944  29.117  16.237  11.414
39524W        W  945  28.154  33.972   0.440
39525W        W  946  34.873   5.920   4.160
39526W        W  947   7.715  38.424  12.946
39527W        W  948   1.922  32.058   2.766
39528W        W  949   5.205  18.791  12.578
39529W        W  950  44.933   1.470  12.483
39530W        W  951  32.076  31.511  14.951
39531W        W  952  19.237  16.299  13.467
39532W        W  953  18.258   4.801   1.721
39533W        W  954  10.253   6.415   1.343
39534W        W  955   9.831  29.955   1.297
39535W        W  956  20.658   9.244  14.970
39536W        W  957   2.452  13.646  11.078
39537W        W  958  18.656  44.464  14.461
39538W        W  959  19.102  37.566   9.999
39539W        W  960  19.723  23.643  12.010
39540W        W  961  38.377  10.854   2.720
39541W        W  962   2.731  26.151  11.559
39542W        W  963  16.169  20.227  13.023
39543W        W  964  42.357   4.740  12.824
39544W        W  965  31.426  13.192   0.792
39545W        W  966  25.522  23.718  14.436
39546W        W  967   5.328  33.415  10.618
39547W        W  968  29.981  22.022   4.165
39548W        W  969  39.319  12.193   0.948
39549W        W  970   4.730  15.173  10.635
39550W        W  971  34.913  34.967  13.453
39551W        W  972  19.203  41.465  11.432
39552W        W  973  26.106  35.969   4.710
39553W        W  974   0.268  10.164   1.714
39554W        W  975  20.594  15.613   2.670
39555W        W  976   7.830  27.590   4.144
39556W        W  977  16.131   4.327   2.762
39557W        W  978  41.348  13.818  12.352
39558W        W  979  30.977   9.818  13.023
39559W        W  980   6.309  26.087  14.021
39560W        W  981   3.916   1.968   1.866
39561W        W  982  12.332  29.174   4.311
39562W        W  983  26.669  42.997   3.186
39563W        W  984  27.657  36.368   2.341
39564W        W  985  24.623   9.717   4.813
39565W        W  986   1.956  28.072  12.990
39566W        W  987   0.821  32.430   2.882
39567W        W  988  30.535  35.108   1.883
39568W        W  989  10.872  24.189  12.434
39569W        W  990  19.624  37.050  12.987
39570W        W  991  13.643  16.207   3.743
39571W        W  992  37.361  35.959   2.192
39572W        W  993  32.004   8.335   3.656
39573W        W  994   2.404   5.742   3.192
39574W        W  995  20.160  26.677  12.892
39575W        W  996   9.650  21.692  13.534
39576W        W  997   6.819  31.630   3.317
39577W        W  998  19.263  36.905  10.480
39578W        W  999   5.712  25.038   2.890
39579W        W 1000  27.185  39.836  13.850
39580W        W 1001   0.461  13.762  13.855
39581W        W 1002   5.880  32.630   1.739
39582W        W 1003  31.476  34.927  12.391
39583W        W 1004  29.630  24.553  13.917
39584W        W 1005  41.979  24.515  13.872
39585W        W 1006  25.215   6.922   2.752
39586W        W 1007   8.385  15.132  13.474
39587W        W 1008  17.759   0.314  14.484
39588W        W 1009  24.492  23.016   0.448
39589W        W 1010  34.871   5.874   1.232
39590W        W 1011  12.124   6.225  12.953
39591W        W 1012  35.932  34.912  13.811
39592W        W 1013  15.087   0.892   2.336
39593W        W 1014  34.926  42.328  13.915
39594W        W 1015   3.414   7.200   0.734
39595W        W 1016  13.351  23.576  14.881
39596W        W 1017  15.246  35.039   3.149
39597W        W 1018  14.185  11.338  11.414
39598W        W 1019  37.560   6.379   0.280
39599W        W 1020  37.368  44.389   5.211
39600W        W 1021   1.765  39.963   2.798
39601W        W 1022  14.619  24.032   3.342
39602W        W 1023   7.797   1.428  10.617
39603W        W 1024  20.207   4.341  10.477
39604W        W 1025  26.999   9.763  11.871
39605W        W 1026  31.457  32.141  12.995
39606W        W 1027  39.939  37.469   1.888
39607W        W 1028  17.736   6.427  13.403
39608W        W 1029  36.058   4.391   2.323
39609W        W 1030  28.000   8.178   4.664
39610W        W 1031  23.022  18.101   1.760
39611W        W 1032  44.877  21.621  11.047
39612W        W 1033  40.381  38.992   2.298
39613W        W 1034  20.708   6.331   1.305
39614W        W 1035  11.737  41.355   2.810
39615W        W 1036  13.128  15.682  14.515
39616W        W 1037  35.950  42.780  14.415
39617W        W 1038   0.252  37.014   1.356
39618W        W 1039  16.801  24.606   0.438
39619W        W 1040  28.956  36.967   2.876
39620W        W 1041  23.600  37.568  14.969
39621W        W 1042  14.785   3.399   0.387
39622W        W 1043  10.854  21.718   0.823
39623W        W 1044   6.779   4.231   4.674
39624W        W 1045  43.988   5.835   2.324
39625W        W 1046   0.446   5.908  14.404
39626W        W 1047   9.209  35.570   4.338
39627W        W 1048  16.689  18.207  12.466
39628W        W 1049  43.794  30.036   0.923
39629W        W 1050  28.469  39.877   1.367
39630W        W 1051  19.100  27.655   4.616
39631W        W 1052  37.488  17.726  11.371
39632W        W 1053  18.732   8.272  13.810
39633W        W 1054  42.523   9.155   1.392
39634W        W 1055   8.745  29.590  14.933
39635W        W 1056  44.963   2.381  13.890
39636W        W 1057   7.363  11.652  12.391
39637W        W 1058  43.808  35.532  10.511
39638W        W 1059  23.092  26.611  11.977
39639W        W 1060   0.759   4.730   5.304
39640W        W 1061  43.275   4.235   2.328
39641W        W 1062  10.228  43.765   2.187
39642W        W 1063  15.661  23.493  11.435
39643W        W 1064   3.922  29.645  14.816
39644W        W 1065   4.361  36.586   4.168
39645W        W 1066  31.566   8.224  11.390
39646W        W 1067   6.349   3.453   2.810
39647W        W 1068  27.620  17.779   1.245
39648W        W 1069   3.777  41.920  10.951
39649W        W 1070  31.133   7.873  12.454
39650W        W 1071  17.630  35.436  14.924
39651W        W 1072   4.223  13.813  10.404
39652W        W 1073  27.131  34.059   4.731
39653W        W 1074   2.881  24.557  12.552
39654W        W 1075   2.797   3.241   1.772
39655W        W 1076  33.381  14.789  13.903
39656W        W 1077   7.819   0.950  10.997
39657W        W 1078   6.327  26.049  13.002
39658W        W 1079  28.084  19.601   1.306
39659W        W 1080  25.632   6.904  12.408
39660W        W 1081   1.302  40.384  11.973
39661W        W 1082  17.622  22.574   2.776
39662W        W 1083  11.137   8.773  13.533
39663W        W 1084   8.751  26.071   3.828
39664W        W 1085  32.938  23.109   0.860
39665W        W 1086  40.895   3.225   2.226
39666W        W 1087   5.727  16.742   3.355
39667W        W 1088  33.594  17.129   0.243
39668W        W 1089  35.385  32.064   4.215
39669W        W 1090  26.541  40.432  12.968
39670W        W 1091  32.498  27.505  14.344
39671W        W 1092  38.466  19.082  13.041
39672W        W 1093  29.140  42.477   2.860
39673W        W 1094  24.992   4.337   2.765
39674W        W 1095  34.481  13.109  11.032
39675W        W 1096  29.923  20.594   3.174
39676W        W 1097  10.684  12.279  11.934
39677W        W 1098   5.432  33.425   4.176
39678W        W 1099  10.710  25.577   4.697
39679W        W 1100   9.204  41.382   0.306
39680W        W 1101  14.233  41.978   4.195
39681W        W 1102  31.573  34.087  14.024
39682W        W 1103  19.153  31.897   2.234
39683W        W 1104   3.351  19.118   2.724
39684W        W 1105   9.248   7.763   3.820
39685W        W 1106   5.777  32.001  14.797
39686W        W 1107  36.039  24.645  13.464
39687W        W 1108  14.101   5.378   1.417
39688W        W 1109  29.489  31.961  14.873
39689W        W 1110  21.625  10.319   2.903
39690W        W 1111  23.735   2.938   1.229
39691W        W 1112   3.736  39.432   0.871
39692W        W 1113  36.409  16.109  13.317
39693W        W 1114  28.638   0.901  14.026
39694W        W 1115  44.789  23.607  15.000
39695W        W 1116  29.658  10.230  14.873
39696W        W 1117  15.632   7.743   3.337
39697W        W 1118  14.688  38.491   1.273
39698W        W 1119  29.168  35.396  14.339
39699W        W 1120  26.011  30.454   0.414
39700W        W 1121  34.480  12.671   1.934
39701W        W 1122  17.610   1.265   2.887
39702W        W 1123  10.258  37.006   2.741
39703W        W 1124  40.833  25.050  11.553
39704W        W 1125  22.225   6.229  13.993
39705W        W 1126  36.946  40.389   3.777
39706W        W 1127   7.837  37.573   5.641
39707W        W 1128  12.655  31.992   2.190
39708W        W 1129  19.571  25.698  12.087
39709W        W 1130  14.734  40.933   4.662
39710W        W 1131   2.357  39.521  13.037
39711W        W 1132  29.947  34.042  12.351
39712W        W 1133  27.139  43.871  14.408
39713W        W 1134  42.930   8.386  10.895
39714W        W 1135  44.005  14.337  12.933
39715W        W 1136  36.871  41.434   1.388
39716W        W 1137  13.168  30.997   1.357
39717W        W 1138   8.767  33.010  14.866
39718W        W 1139  31.433   1.895   4.794
39719W        W 1140  17.144  32.960   0.821
39720W        W 1141  40.837  17.272  11.119
39721W        W 1142  20.580   7.896  11.878
39722W        W 1143  10.271  33.915  12.364
39723W        W 1144  32.430  10.653   4.257
39724W        W 1145   2.299  35.458   4.836
39725W        W 1146  38.454   5.691  11.861
39726W        W 1147  44.266  40.397   3.272
39727W        W 1148   7.360   8.855   2.899
39728W        W 1149  44.860  19.645   4.174
39729W        W 1150  13.227  12.719  11.090
39730W        W 1151  23.011  43.388  13.423
39731W        W 1152  26.031  26.515   2.223
39732W        W 1153  32.900  23.607  10.939
39733W        W 1154  23.115  35.409   4.666
39734W        W 1155  19.281   6.841   0.297
39735W        W 1156   4.410   4.311  14.806
39736W        W 1157   8.212   0.447  13.955
39737W        W 1158  31.468   1.460  10.417
39738W        W 1159  42.493  15.118  10.086
39739W        W 1160  23.618  28.677   2.876
39740W        W 1161  39.558  34.506  12.082
39741W        W 1162  15.175  43.815  13.505
39742W        W 1163   8.284  36.494  14.963
39743W        W 1164   5.203  36.477  10.910
39744W        W 1165  44.284  13.231  13.869
39745W        W 1166  32.001  33.488  10.920
39746W        W 1167  17.185  34.485  12.838
39747W        W 1168  19.749  15.193  13.433
39748W        W 1169  16.106  36.547  14.890
39749W        W 1170  25.034  17.226  12.033
39750W        W 1171   9.216   2.748   4.186
39751W        W 1172  23.112  43.456   1.921
39752W        W 1173  15.194  14.768  14.453
39753W        W 1174   6.302   1.331   3.354
39754W        W 1175  22.244  31.106  12.397
39755W        W 1176  34.385  33.502   0.762
39756W        W 1177  25.122  39.335  10.404
39757W        W 1178  16.682  29.426   1.301
39758W        W 1179  40.861  37.891  11.476
39759W        W 1180  13.617  31.616  14.967
39760W        W 1181  44.787  39.427   1.935
39761W        W 1182  22.589  29.445  13.029
39762W        W 1183  20.641   5.835   2.741
39763W        W 1184  24.160  16.655  10.643
39764W        W 1185  19.044  22.175  12.972
39765W        W 1186   5.296  25.062   2.807
39766W        W 1187  40.394  35.985  11.045
39767W        W 1188  43.431   9.166  13.411
39768W        W 1189   1.770  38.063   1.701
39769W        W 1190  11.272   1.402   0.780
39770W        W 1191  12.261  24.225   2.283
39771W        W 1192   3.421  38.060   3.233
39772W        W 1193  23.632  27.165   0.891
39773W        W 1194  44.959  13.816   4.666
39774W        W 1195  24.228   7.221   1.357
39775W        W 1196  30.096  10.288   9.545
39776W        W 1197  39.488  16.264  11.094
39777W        W 1198  26.509  40.978  11.917
39778W        W 1199  40.333  44.300   2.662
39779W        W 1200  16.810  35.893   3.268
39780W        W 1201  13.714  35.079   1.876
39781W        W 1202   0.900  36.579   3.849
39782W        W 1203   4.314  31.002   0.364
39783W        W 1204   6.843  24.495   0.964
39784W        W 1205   1.815   4.766  13.432
39785W        W 1206   8.390  31.060   3.314
39786W        W 1207  28.673  31.427  14.483
39787W        W 1208  19.534  23.109  10.626
39788W        W 1209  26.155  27.057   1.776
39789W        W 1210  43.468  40.305  13.058
39790W        W 1211   0.869   2.906  14.778
39791W        W 1212  21.641  19.584   3.323
39792W        W 1213  29.082   3.258  11.499
39793W        W 1214  20.616  28.663  13.379
39794W        W 1215   1.450   0.297  14.976
39795W        W 1216  28.169  26.605  10.539
39796W        W 1217   9.843   9.695  12.050
39797W        W 1218  25.182  10.290   0.243
39798W        W 1219  21.684  10.214  12.479
39799W        W 1220   6.297  17.178   3.227
39800W        W 1221  21.724  25.553   1.304
39801W        W 1222  34.613  31.426  11.118
39802W        W 1223  31.572   6.854   3.842
39803W        W 1224  15.689   1.412   1.348
39804W        W 1225  12.135   0.797  14.456
39805W        W 1226  11.787   3.938  11.000
39806W        W 1227  14.235  35.369   3.847
39807W        W 1228  24.572  39.023  14.995
39808W        W 1229  16.739   5.256  12.025
39809W        W 1230  42.498  28.976   0.307
39810W        W 1231  28.029   5.411   0.332
39811W        W 1232  32.054  15.812   2.713
39812W        W 1233  38.477  22.014   2.281
39813W        W 1234   5.908  36.862  11.547
39814W        W 1235  42.017   0.443  13.800
39815W        W 1236  27.978   1.259  12.992
39816W        W 1237  13.342  13.827   1.871
39817W        W 1238  10.733  37.577   1.923
39818W        W 1239  21.715  21.254  12.944
39819W        W 1240  32.983  21.542   0.283
39820W        W 1241   0.327  37.429   0.264
39821W        W 1242   1.284  34.586  13.968
39822W        W 1243  20.644  20.075  12.363
39823W        W 1244  17.205  39.391   3.776
39824W        W 1245  44.009  27.606   3.182
39825W        W 1246  40.961  17.146   2.856
39826W        W 1247  28.005  38.477  10.954
39827W        W 1248  22.033  41.479  13.514
39828W        W 1249   8.357  31.953  12.435
39829W        W 1250   2.792  19.716   4.278
39830W        W 1251  21.195  30.443   3.350
39831W        W 1252  14.825   3.895   1.850
39832W        W 1253  15.272  18.100  14.818
39833W        W 1254   6.413  24.505   4.329
39834W        W 1255  11.315  25.520   1.252
39835W        W 1256   0.961  10.814  14.380
39836W        W 1257  31.487   2.765   4.246
39837W        W 1258  37.946  38.009  11.991
39838W        W 1259  28.495  24.059   2.868
39839W        W 1260  17.112  26.051  10.512
39840W        W 1261  43.813  34.468  13.979
39841W        W 1262   8.817  43.422  11.015
39842W        W 1263  24.666  39.857  14.493
39843W        W 1264  18.122  26.976  13.874
39844W        W 1265  37.894  22.697   1.366
39845W        W 1266  31.959  27.091  10.959
39846W        W 1267  21.101  38.061  14.907
39847W        W 1268  25.094  20.607   3.788
39848W        W 1269  42.782   3.383  11.862
39849W        W 1270  30.008  23.573  12.828
39850W        W 1271  10.808  30.485   2.256
39851W        W 1272  33.450  29.996   1.408
39852W        W 1273  15.717  36.568  12.009
39853W        W 1274  15.701   1.942   1.702
39854W        W 1275  23.118  23.141  13.056
39855W        W 1276  20.219  13.839   2.755
39856W        W 1277  15.818  31.972   0.930
39857W        W 1278  22.673  42.877   0.291
39858W        W 1279  32.927  15.256  13.875
39859W        W 1280  31.137  42.398   0.784
39860W        W 1281  24.601  33.479   3.267
39861W        W 1282  10.668  42.887   5.116
39862W        W 1283  14.595  13.253   3.182
39863W        W 1284  30.933  24.479  10.448
39864W        W 1285  26.649  13.118   3.844
39865W        W 1286  10.339  24.604   0.914
39866W        W 1287   5.774  40.418   4.717
39867W        W 1288   4.410  24.091  13.882
39868W        W 1289  33.575  41.388  14.776
39869W        W 1290  12.671  23.676   2.373
39870W        W 1291  37.445  43.958  10.955
39871W        W 1292  37.406  30.422   3.198
39872W        W 1293  40.048   0.308   1.226
39873W        W 1294  24.536  24.517   2.727
39874W        W 1295  15.115  28.112   3.667
39875W        W 1296  24.173  26.166  13.818
39876W        W 1297  35.431  22.134  12.448
39877W        W 1298  35.432  13.695  14.395
39878W        W 1299  21.706  29.564   0.865
39879W        W 1300  14.711  23.540  14.001
39880W        W 1301  19.085  12.803   5.719
39881W        W 1302  30.987  11.289  14.308
39882W        W 1303  26.529  29.441   0.389
39883W        W 1304  37.960  30.068  11.013
39884W        W 1305  27.522  18.734   4.787
39885W        W 1306   3.335  42.024   1.933
39886W        W 1307  23.052  20.722  14.955
39887W        W 1308  34.573   4.443   9.663
39888W        W 1309  19.158  19.744   1.218
39889W        W 1310  40.011  10.812   2.722
39890W        W 1311  24.553  33.432   0.776
39891W        W 1312   2.888  40.369  10.631
39892W        W 1313  13.724  38.384   1.366
39893W        W 1314  42.900  42.377   0.919
39894W        W 1315   4.741   7.724   1.885
39895W        W 1316  23.000  14.159   1.817
39896W        W 1317  14.716   8.309   1.425
39897W        W 1318   5.820  26.114  12.025
39898W        W 1319   2.772  32.527   1.273
39899W        W 1320   4.807  16.578  14.336
39900W        W 1321  41.811  16.709   2.304
39901W        W 1322   6.333   2.410  12.059
39902W        W 1323  33.120  12.148  11.444
39903W        W 1324   4.346  31.478  12.042
39904W        W 1325  41.952  24.973  11.946
39905W        W 1326  12.349  26.527   2.697
39906W        W 1327  39.992  30.574  10.563
39907W        W 1328  33.480  39.429   0.271
39908W        W 1329  23.719  28.489  10.927
39909W        W 1330  42.411   5.891  12.576
39910W        W 1331   4.792  33.919  14.343
39911W        W 1332  30.534   8.223   3.755
39912W        W 1333  18.729  43.990   4.623
39913W        W 1334  17.742   4.218  14.884
39914W        W 1335  30.096  43.901   1.896
39915W        W 1336  21.128  28.089   3.349
39916W        W 1337   3.864  10.648   2.225
39917W        W 1338  30.058   7.864  10.451
39918W        W 1339  35.042  24.638  10.517
39919W        W 1340  11.350  37.513  13.322
39920W        W 1341  35.533   8.289   4.673
39921W        W 1342   3.352   8.777   4.194
39922W        W 1343   4.374  18.130   3.193
39923W        W 1344  43.358  41.959   3.791
39924W        W 1345  32.595  42.827  14.960
39925W        W 1346  18.624  16.228  11.007
39926W        W 1347  35.091  18.574   4.265
39927W        W 1348   5.300  44.363  11.985
39928W        W 1349  14.221   1.816  11.540
39929W        W 1350   2.858  29.006   0.756
39930W        W 1351  24.615  16.605  14.890
39931W        W 1352  28.533  19.690  14.897
39932W        W 1353  30.950  23.648   3.694
39933W        W 1354  24.598  27.516  14.888
39934W        W 1355  38.460  36.480   3.830
39935W        W 1356  13.826  30.585   1.232
39936W        W 1357  39.000  29.013   1.426
39937W        W 1358  33.521  20.205  11.977
39938W        W 1359  11.801   2.785  12.019
39939W        W 1360   0.790  37.439  13.981
39940W        W 1361  39.319  31.450  11.410
39941W        W 1362   8.725  19.275  11.421
39942W        W 1363  40.983  12.781  14.437
39943W        W 1364  34.048  33.545  11.878
39944W        W 1365   7.825  27.488  13.056
39945W        W 1366  13.646   4.726   3.630
39946W        W 1367  29.033  17.669  13.354
39947W        W 1368  40.332  38.434   3.761
39948W        W 1369  39.877   2.416  13.038
39949W        W 1370  15.676   1.782  13.333
39950W        W 1371   1.469  28.574   9.961
39951W        W 1372  38.958  16.267   2.200
39952W        W 1373  14.685  29.459   0.405
39953W        W 1374  12.794   5.827   2.671
39954W        W 1375  39.478  36.402   3.818
39955W        W 1376  20.642  10.300  13.972
39956W        W 1377  34.932  30.103   4.303
39957W        W 1378  35.965  40.452   4.610
39958W        W 1379  43.808  12.197   0.465
39959W        W 1380  26.545  11.800   2.721
39960W        W 1381  39.946   9.298  11.592
39961W        W 1382  37.038  40.028  14.388
39962W        W 1383  28.528  10.324   0.405
39963W        W 1384  27.101  22.644   4.320
39964W        W 1385   5.246  27.089   1.296
39965W        W 1386  12.347   1.420   2.275
39966W        W 1387  10.260  15.750  11.084
39967W        W 1388   6.386  15.732   1.383
39968W        W 1389  22.588   0.493  14.849
39969W        W 1390  41.976   8.663  11.507
39970W        W 1391  11.625  19.594  10.536
39971W        W 1392   9.284   2.772  10.494
39972W        W 1393  15.654  17.244  10.914
39973W        W 1394  32.587  19.667   4.818
39974W        W 1395  10.290  38.041  10.408
39975W        W 1396   4.834  16.593  10.980
39976W        W 1397  14.102  27.070  13.944
39977W        W 1398  36.421  26.998   2.847
39978W        W 1399  14.192  32.467   1.718
39979W        W 1400  16.081  27.050  10.612
39980W        W 1401   3.824  40.918  11.859
39981W        W 1402   6.893   0.266   9.955
39982W        W 1403  10.817  26.134   2.271
39983W        W 1404  28.172  19.746  10.099
39984W        W 1405  35.599  40.335   2.250
39985W        W 1406  34.548  40.510  12.451
39986W        W 1407  44.005   8.669   4.651
39987W        W 1408  38.857   4.710  13.417
39988W        W 1409  17.184  23.489   3.706
39989W        W 1410  25.030  18.622  10.591
39990W        W 1411  39.045  11.343  13.802
39991W        W 1412  33.419  23.720  12.004
39992W        W 1413   2.784  14.252   0.908
39993W        W 1414  43.901   4.778   0.789
39994W        W 1415  41.023  23.577   0.908
39995W        W 1416  12.782  15.683   4.160
39996W        W 1417   7.395  43.949  10.617
39997W        W 1418  30.433  33.092   3.647
39998W        W 1419  16.765  12.304  14.454
39999W        W 1420  12.620   8.298  14.778
40000W        W 1421  24.192  19.108   4.650
40001W        W 1422   1.391  41.485   2.879
40002W        W 1423  20.631  37.378  14.959
40003W        W 1424   0.250  15.315  14.875
40004W        W 1425  42.506  19.708   3.351
40005W        W 1426   1.246  42.306   1.435
40006W        W 1427  43.269   2.265  12.067
40007W        W 1428  27.025   3.351  14.893
40008W        W 1429  17.710  17.064   1.800
40009W        W 1430  14.753   4.922  14.908
40010W        W 1431  25.557  31.509  13.054
40011W        W 1432  33.923  43.308   0.779
40012W        W 1433  10.178  22.536  14.316
40013W        W 1434  17.562  32.593  13.329
40014W        W 1435  10.335  21.642  10.407
40015W        W 1436  32.522  17.207   2.354
40016W        W 1437   3.227  31.922   2.315
40017W        W 1438  38.844   3.370   1.285
40018W        W 1439  38.371  31.618  12.562
40019W        W 1440  35.065  37.951  10.983
40020W        W 1441  38.031  38.066   3.273
40021W        W 1442  33.123  29.116  10.437
40022W        W 1443  13.303  11.627   4.813
40023W        W 1444   8.178  15.243   3.675
40024W        W 1445  34.499  35.046  12.578
40025W        W 1446  12.294  12.822   0.752
40026W        W 1447  16.608  29.529  12.933
40027W        W 1448  31.065  21.691   4.716
40028W        W 1449  14.116  17.279  13.369
40029W        W 1450  26.534  21.166  11.407
40030W        W 1451  22.039  38.506  10.951
40031W        W 1452  41.527  25.022   1.748
40032W        W 1453  25.582  18.724   4.643
40033W        W 1454  30.977  26.143   3.328
40034W        W 1455   5.715   0.452  10.610
40035W        W 1456  18.086  32.089  11.401
40036W        W 1457  14.106  42.020   1.401
40037W        W 1458  31.920  10.777   0.275
40038W        W 1459   8.373   9.218   3.310
40039W        W 1460   5.391  37.898  14.866
40040W        W 1461  27.085  10.362   4.650
40041W        W 1462  38.525  25.143   4.234
40042W        W 1463  15.285  20.241   3.319
40043W        W 1464  16.633  33.430   1.244
40044W        W 1465   0.820  30.008   1.443
40045W        W 1466  37.076   0.911  12.347
40046W        W 1467  42.526  37.448  14.869
40047W        W 1468  18.789   2.946   2.727
40048W        W 1469   6.308   4.287   2.786
40049W        W 1470  24.086  30.599   3.865
40050W        W 1471  26.516  25.592  12.953
40051W        W 1472  19.673   9.805  11.425
40052W        W 1473  22.054  42.030   3.870
40053W        W 1474   0.885   5.403   4.149
40054W        W 1475  23.096  19.621   3.173
40055W        W 1476   9.705  28.097   1.373
40056W        W 1477  27.650   3.894  11.444
40057W        W 1478  34.041  14.240  14.475
40058W        W 1479  36.585   3.723   1.882
40059W        W 1480  39.518  30.419  10.912
40060W        W 1481  13.843  27.594  13.025
40061W        W 1482  24.006  39.482  14.966
40062W        W 1483  40.485  34.000   1.271
40063W        W 1484  13.194  24.568  12.342
40064W        W 1485  12.696  25.683  14.798
40065W        W 1486  42.363  25.584   4.821
40066W        W 1487   8.290  39.391   0.359
40067W        W 1488  38.006   3.776  14.969
40068W        W 1489  23.217   6.259  14.313
40069W        W 1490  38.392  28.034   3.833
40070W        W 1491   5.404   9.884   4.788
40071W        W 1492  40.407  28.678   1.410
40072W        W 1493   5.749  13.309   0.859
40073W        W 1494  19.111  21.194  12.423
40074W        W 1495  25.690  40.429   1.796
40075W        W 1496  44.443  24.217   5.172
40076W        W 1497  29.141  13.168   1.810
40077W        W 1498  10.375  25.080   0.445
40078W        W 1499  38.479  37.562   0.410
40079W        W 1500  17.300  44.466   1.844
40080W        W 1501  13.315  19.143   4.702
40081W        W 1502  41.314  14.656   1.793
40082W        W 1503  24.129  24.000  10.540
40083W        W 1504  18.650  26.993   4.306
40084W        W 1505  29.445  21.574   2.737
40085W        W 1506  42.282  24.635  11.396
40086W        W 1507  29.943  43.392   2.273
40087W        W 1508  44.376   7.670   2.836
40088W        W 1509   8.313  34.030  12.339
40089W        W 1510  39.022  10.647  14.460
40090W        W 1511  36.528  22.041  14.477
40091W        W 1512  36.956   2.434   3.785
40092W        W 1513  28.638  12.726   2.412
40093W        W 1514   4.275  44.888  11.404
40094W        W 1515  35.462  14.328  13.816
40095W        W 1516   1.863  22.679  14.916
40096W        W 1517  26.182  33.409  13.547
40097W        W 1518  42.837  37.563   2.323
40098W        W 1519   7.763  39.855   3.822
40099W        W 1520  21.220  43.463   2.261
40100W        W 1521  14.327  33.970   1.379
40101W        W 1522  19.116  32.540   4.283
40102W        W 1523  29.146  30.909  14.274
40103W        W 1524  16.102   8.340  14.798
40104W        W 1525  30.571  15.317   5.760
40105W        W 1526  29.445  24.611  14.285
40106W        W 1527  27.539   1.904  11.419
40107W        W 1528  36.881  23.055   3.218
40108W        W 1529  35.072  35.032  12.358
40109W        W 1530   5.726  20.033  14.027
40110W        W 1531  26.539  10.702   4.229
40111W        W 1532   1.437  27.944  10.482
40112W        W 1533  30.918   4.405  12.894
40113W        W 1534  15.617  11.191  14.334
40114W        W 1535  15.320  21.581   0.945
40115W        W 1536  23.146  34.594  12.524
40116W        W 1537  44.358  19.727   3.856
40117W        W 1538  20.160  32.972  14.371
40118W        W 1539  32.900  28.112   1.338
40119W        W 1540  20.186  12.817   4.289
40120W        W 1541  27.479  23.012   0.739
40121W        W 1542  11.168  26.560  11.876
40122W        W 1543  11.179  16.138   2.703
40123W        W 1544  32.890  27.537  10.901
40124W        W 1545  28.117  39.838   9.986
40125W        W 1546  10.199  34.565  14.510
40126W        W 1547  37.974   4.210   3.216
40127W        W 1548  41.332   6.211   4.776
40128W        W 1549  18.592  44.390   1.268
40129W        W 1550  18.580   7.879   0.766
40130W        W 1551  15.688   5.280   2.669
40131W        W 1552   2.310  44.368   2.790
40132W        W 1553  32.139  17.072   0.899
40133W        W 1554   9.155   0.971  12.367
40134W        W 1555  14.727  28.671   0.764
40135W        W 1556  29.489  28.948  14.500
40136W        W 1557   5.712  24.587   2.895
40137W        W 1558  23.712  31.468  10.628
40138W        W 1559  27.666  37.458   0.841
40139W        W 1560  20.112   5.331   1.787
40140W        W 1561  27.483  11.326   1.748
40141W        W 1562  15.637  40.506   2.254
40142W        W 1563  37.471  41.902  14.368
40143W        W 1564   9.756  33.027  14.008
40144W        W 1565  33.549   8.663  14.962
40145W        W 1566  36.911  30.501   2.327
40146W        W 1567  25.971   6.897   4.134
40147W        W 1568  27.475  22.704  11.916
40148W        W 1569   6.698   9.273  14.388
40149W        W 1570  32.028  37.449  10.441
40150W        W 1571  38.440  18.547   3.766
40151W        W 1572  35.916  40.347  14.791
40152W        W 1573  24.706  35.585   1.334
40153W        W 1574   8.824  32.047   3.216
40154W        W 1575  22.119  18.571   3.832
40155W        W 1576   6.751  42.791   5.112
40156W        W 1577  16.577  43.469   4.697
40157W        W 1578  21.148  14.706  13.010
40158W        W 1579  16.786   1.751  11.572
40159W        W 1580  39.851  26.086  12.949
40160W        W 1581  14.774  16.647   4.602
40161W        W 1582   5.292  23.612   4.704
40162W        W 1583  29.661  42.802  11.059
40163W        W 1584  35.368  25.705  13.867
40164W        W 1585  12.653  40.912  10.891
40165W        W 1586  31.461  34.100  10.484
40166W        W 1587   2.323  13.843  14.959
40167W        W 1588  18.092  35.921   4.248
40168W        W 1589  42.866  41.538  12.397
40169W        W 1590  16.679  36.521  13.031
40170W        W 1591   0.885  14.095  10.957
40171W        W 1592   6.886  10.642  14.377
40172W        W 1593   2.750  42.965  13.324
40173W        W 1594  41.006  33.035   3.789
40174W        W 1595   4.784   4.345  14.770
40175W        W 1596   9.839  13.678   3.323
40176W        W 1597   8.768   8.353   3.768
40177W        W 1598  21.263   7.700   3.271
40178W        W 1599   9.384  20.581   0.792
40179W        W 1600  20.250  20.138  12.972
40180W        W 1601  35.563  40.511   4.338
40181W        W 1602  39.929   9.859  13.802
40182W        W 1603  44.781   5.203   4.729
40183W        W 1604  30.626   9.757   5.257
40184W        W 1605  23.091  36.497  13.324
40185W        W 1606  19.757  26.198   1.882
40186W        W 1607  41.824  29.975   1.210
40187W        W 1608  31.027  34.108  11.126
40188W        W 1609  37.377  43.878   1.850
40189W        W 1610   2.948  27.565   0.356
40190W        W 1611  11.199  22.147   2.237
40191W        W 1612  27.470  13.696  14.398
40192W        W 1613   4.886  44.813   3.802
40193W        W 1614  33.430   9.351   2.741
40194W        W 1615  21.248  20.663  14.440
40195W        W 1616   9.888  42.486  10.419
40196W        W 1617  27.958   6.850   3.629
40197W        W 1618  14.755  31.033  12.853
40198W        W 1619  25.128  28.005   3.366
40199W        W 1620  12.362   2.439   4.728
40200W        W 1621  12.628  33.429   5.286
40201W        W 1622   9.716  43.925  14.373
40202W        W 1623  14.199  19.774   3.679
40203W        W 1624  10.267  36.349  11.467
40204W        W 1625  38.565   9.288   1.838
40205W        W 1626  40.349  38.042   0.249
40206W        W 1627   5.860   1.285   5.261
40207W        W 1628  13.281  18.780  12.464
40208W        W 1629  22.687   2.844   4.700
40209W        W 1630  36.087  11.158   2.681
40210W        W 1631   9.180  44.840   3.740
40211W        W 1632   4.303  32.452  12.939
40212W        W 1633  35.882  14.675  12.915
40213W        W 1634  36.402   6.718  14.877
40214W        W 1635  24.130  11.842  11.421
40215W        W 1636  35.465   8.845   1.801
40216W        W 1637  12.846   0.363  10.517
40217W        W 1638  38.874   6.717   0.377
40218W        W 1639  22.058   6.778   5.194
40219W        W 1640   5.305  41.455  14.950
40220W        W 1641  20.106  41.851  13.966
40221W        W 1642  25.539  25.061  10.067
40222W        W 1643  21.101   2.766   1.849
40223W        W 1644  20.654   6.816  14.475
40224W        W 1645   3.381  41.448  12.547
40225W        W 1646  34.979  40.001  10.973
40226W        W 1647  35.961  24.193  14.771
40227W        W 1648  10.859  15.823   2.372
40228W        W 1649  20.078  11.359  10.546
40229W        W 1650   2.889  23.163   3.316
40230W        W 1651   4.348   6.345   1.900
40231W        W 1652  21.198   2.734   0.355
40232W        W 1653  21.125  38.513  13.436
40233W        W 1654  11.271  36.510   0.256
40234W        W 1655  26.655  43.346   3.785
40235W        W 1656  11.205   7.887  11.500
40236W        W 1657  15.103  21.224  14.446
40237W        W 1658  16.595  28.443   2.812
40238W        W 1659  33.523  18.229   2.204
40239W        W 1660   4.844  42.471   0.372
40240W        W 1661  27.563  15.697   3.210
40241W        W 1662  21.619  19.645   1.934
40242W        W 1663  42.966  20.041   3.356
40243W        W 1664  44.830  30.943   3.269
40244W        W 1665  44.270  31.546  13.957
40245W        W 1666  27.190  25.633   3.237
40246W        W 1667  29.519  35.907  10.567
40247W        W 1668  36.022   8.310   3.680
40248W        W 1669   2.415  28.553   5.228
40249W        W 1670  32.433  38.902  11.970
40250W        W 1671   4.795  21.040   5.169
40251W        W 1672  14.106  33.949   3.296
40252W        W 1673  43.997  10.757  11.113
40253W        W 1674  42.963  35.393   3.216
40254W        W 1675   0.964  14.593   1.840
40255W        W 1676  41.863  15.324  10.994
40256W        W 1677  38.452  13.695   2.248
40257W        W 1678  26.077  11.336  13.042
40258W        W 1679  32.481   1.791  13.868
40259W        W 1680  14.301  42.995   2.327
40260W        W 1681  34.885   1.405  11.902
40261W        W 1682  37.489  10.316  12.371
40262W        W 1683   2.434  35.071  14.499
40263W        W 1684  35.572   9.644   4.788
40264W        W 1685  36.349  11.830  14.822
40265W        W 1686  33.418  33.025  10.578
40266W        W 1687   3.363  17.285   3.375
40267W        W 1688  34.509  16.657  13.505
40268W        W 1689  14.234   8.691  11.875
40269W        W 1690  25.070  25.043  10.443
40270W        W 1691   2.309  26.996  10.924
40271W        W 1692   3.731  19.168  11.045
40272W        W 1693  40.323  35.591  11.582
40273W        W 1694  22.641   6.206   0.340
40274W        W 1695  10.810  34.580  13.013
40275W        W 1696  43.309  25.064   3.200
40276W        W 1697  16.225  35.923   0.341
40277W        W 1698   1.775  38.361   2.824
40278W        W 1699  16.577   3.233  13.366
40279W        W 1700  42.870  19.676   1.285
40280W        W 1701  22.019   3.730  12.914
40281W        W 1702  43.443  38.377   4.770
40282W        W 1703  42.028  23.630   4.651
40283W        W 1704  12.612  20.092   2.266
40284W        W 1705  15.207  11.788  11.965
40285W        W 1706  19.170  38.479  11.060
40286W        W 1707  21.141  39.370  13.823
40287W        W 1708   8.194   4.755   1.780
40288W        W 1709  27.066  15.158   4.136
40289W        W 1710  11.369  35.040  14.323
40290W        W 1711  29.469  34.062   3.813
40291W        W 1712   1.971  31.914   4.751
40292W        W 1713  27.000  35.484  11.906
40293W        W 1714  39.944   4.881   0.352
40294W        W 1715  29.930   5.880  12.577
40295W        W 1716  37.976   6.246  14.384
40296W        W 1717  20.728   0.787  14.961
40297W        W 1718  23.136  15.679   9.991
40298W        W 1719  19.772  11.204   1.442
40299W        W 1720  34.096   4.295  13.016
40300W        W 1721  43.501  30.056  11.421
40301W        W 1722   6.896  32.631   0.351
40302W        W 1723  37.841  29.589   3.271
40303W        W 1724  33.887  11.233  11.443
40304W        W 1725   4.854  33.051   3.856
40305W        W 1726  19.078  36.474  12.475
40306W        W 1727   5.789  25.521   3.741
40307W        W 1728   7.326  42.846  12.506
40308W        W 1729  22.708   1.927   1.223
40309W        W 1730  35.930  30.592  11.960
40310W        W 1731   3.439   8.197  10.574
40311W        W 1732   0.915  12.349   4.151
40312W        W 1733  26.047   5.273   5.292
40313W        W 1734  42.010  24.177   1.313
40314W        W 1735   5.702  14.750   2.188
40315W        W 1736  29.632  35.590   4.700
40316W        W 1737  19.757  43.928   3.845
40317W        W 1738  44.802  15.318   1.331
40318W        W 1739  41.484  28.541   2.811
40319W        W 1740  11.691  37.849   2.894
40320W        W 1741  18.184   1.768  13.011
40321W        W 1742  43.970  39.342  12.459
40322W        W 1743  14.154  15.694   0.421
40323W        W 1744  30.478   9.869  10.095
40324W        W 1745  29.509  30.136  13.519
40325W        W 1746  17.105  37.426   4.160
40326W        W 1747  34.930  36.440   3.869
40327W        W 1748  41.457   2.261  13.053
40328W        W 1749  36.478   5.196   5.253
40329W        W 1750  42.831  24.644   2.735
40330W        W 1751  37.995  34.553  14.021
40331W        W 1752  20.269  34.103   0.445
40332W        W 1753  12.243  10.768  10.983
40333W        W 1754  17.578  11.665  11.604
40334W        W 1755  26.499  20.723  13.923
40335W        W 1756  16.699  11.800   2.370
40336W        W 1757  27.001  14.315   4.290
40337W        W 1758  24.515  39.384  11.528
40338W        W 1759  10.258  24.006  12.575
40339W        W 1760  30.908  17.066  11.382
40340W        W 1761  13.666  27.943  14.393
40341W        W 1762  40.432  41.322   3.367
40342W        W 1763  20.601  41.800  14.764
40343W        W 1764  12.675  31.110   0.794
40344W        W 1765  21.600  35.063   1.237
40345W        W 1766  20.242  31.142  11.538
40346W        W 1767   1.354   3.281   0.753
40347W        W 1768  15.253  30.040   2.752
40348W        W 1769   6.380   5.766  14.948
40349W        W 1770   8.215  12.719  14.822
40350W        W 1771  19.646  26.066   4.319
40351W        W 1772  13.651  38.924   0.805
40352W        W 1773  19.058  33.947  14.878
40353W        W 1774  27.941   5.296   4.202
40354W        W 1775  29.113   3.250   2.271
40355W        W 1776  24.223  11.755   2.777
40356W        W 1777  34.028  33.082  13.520
40357W        W 1778  39.942  20.055  10.935
40358W        W 1779   6.201   1.368  14.322
40359W        W 1780   0.446  12.776   0.760
40360W        W 1781  30.643  44.872   4.661
40361W        W 1782  40.432  38.884  10.514
40362W        W 1783  35.447   7.362   2.197
40363W        W 1784  27.452  44.787  11.387
40364W        W 1785  27.609  11.826  10.443
40365W        W 1786  17.116  10.851   4.813
40366W        W 1787  17.088  40.500  14.024
40367W        W 1788   8.291  20.636   4.239
40368W        W 1789  19.255  32.088   1.805
40369W        W 1790   4.351   3.907  11.559
40370W        W 1791  39.553  27.049   4.782
40371W        W 1792  14.262  31.468  11.535
40372W        W 1793  42.830   7.742  12.849
40373W        W 1794   8.837   0.369  14.412
40374W        W 1795  25.967  31.509  10.973
40375W        W 1796   6.848  10.268   2.295
40376W        W 1797  38.921  15.735   4.180
40377W        W 1798  37.581   8.677   3.816
40378W        W 1799  41.532  42.343   0.303
40379W        W 1800  20.613  14.803   0.255
40380W        W 1801  24.567   5.275  13.865
40381W        W 1802  20.744   7.900  13.423
40382W        W 1803  26.113  19.710  12.525
40383W        W 1804  41.969  25.659  13.342
40384W        W 1805  42.435  30.497   0.259
40385W        W 1806  15.300   9.663   4.772
40386W        W 1807  37.975  23.212   3.338
40387W        W 1808  24.696  21.046   3.693
40388W        W 1809  31.137   3.306   2.321
40389W        W 1810  17.756  18.238  11.889
40390W        W 1811  32.125  21.755   4.200
40391W        W 1812  39.993  16.715   3.280
40392W        W 1813  29.927  22.696  14.281
40393W        W 1814  31.103  25.145  13.370
40394W        W 1815  36.845  27.039   0.277
40395W        W 1816  32.510   7.909   1.731
40396W        W 1817  43.797  14.149  11.075
40397W        W 1818  23.205  23.002   4.333
40398W        W 1819  23.052  30.029  14.384
40399W        W 1820  12.225  39.897   4.600
40400W        W 1821  38.044   7.879   1.813
40401W        W 1822   3.265  40.503  12.453
40402W        W 1823   2.429  40.832  12.339
40403W        W 1824   2.909  44.910  12.425
40404W        W 1825  38.337  29.075   0.890
40405W        W 1826  33.920  11.730  11.117
40406W        W 1827  22.712  41.993   1.437
40407W        W 1828  41.901  28.115  13.935
40408W        W 1829  34.105   9.775   0.391
40409W        W 1830  42.301  30.586  14.337
40410W        W 1831  25.974  28.523   4.707
40411W        W 1832  11.679  21.022  12.900
40412W        W 1833  34.594   2.728  13.925
40413W        W 1834  38.876   3.416   0.295
40414W        W 1835  38.875  42.935   1.373
40415W        W 1836   2.302  28.470   0.773
40416W        W 1837  13.820  32.005  10.492
40417W        W 1838  44.309  17.752   3.748
40418W        W 1839  18.290  23.177  13.830
40419W        W 1840  12.796  28.499  14.483
40420W        W 1841  28.060   8.342  14.325
40421W        W 1842  16.766   9.753   1.744
40422W        W 1843  17.618  20.731   0.826
40423W        W 1844  44.304   9.245   1.702
40424W        W 1845   3.750  32.521   0.299
40425W        W 1846  34.864  42.370   4.598
40426W        W 1847  16.789  16.709  12.536
40427W        W 1848  12.339  13.643  13.845
40428W        W 1849   7.357  37.918  14.418
40429W        W 1850  26.572  28.110  12.513
40430W        W 1851  13.675  41.917   1.297
40431W        W 1852  40.993  30.642  12.410
40432W        W 1853  23.493  29.138  14.453
40433W        W 1854  44.968  36.011  13.464
40434W        W 1855  11.233  12.212  11.602
40435W        W 1856  41.486  29.597   1.785
40436W        W 1857  40.827   2.304   1.420
40437W        W 1858  29.009   5.808   3.804
40438W        W 1859  37.857  27.551  14.837
40439W        W 1860  20.186  17.109   2.855
40440W        W 1861  25.060  17.618  14.286
40441W        W 1862   9.834  35.435  14.859
40442W        W 1863  38.464  36.367  11.562
40443W        W 1864  13.273  42.334   2.686
40444W        W 1865  18.140  35.567  12.403
40445W        W 1866  37.392  30.542   4.338
40446W        W 1867  33.008   2.251   0.841
40447W        W 1868   1.833  30.523   1.840
40448W        W 1869   1.297   8.182  14.514
40449W        W 1870  21.514  15.625  12.404
40450W        W 1871  18.788  10.249  10.634
40451W        W 1872  12.156  34.452  11.985
40452W        W 1873  19.273  15.300  14.363
40453W        W 1874  43.396  40.803  10.490
40454W        W 1875   6.691  37.426   2.784
40455W        W 1876  21.743  14.204   3.375
40456W        W 1877  36.925   3.384   3.639
40457W        W 1878   6.694  38.438  13.450
40458W        W 1879  26.123  25.051   1.902
40459W        W 1880  21.516  40.055  13.418
40460W        W 1881  31.973  37.572  14.991
40461W        W 1882  30.062  32.412   1.355
40462W        W 1883  15.818  28.668  11.545
40463W        W 1884  15.213   1.838  12.438
40464W        W 1885   0.840  24.994  14.328
40465W        W 1886   1.844  17.688  11.461
40466W        W 1887   4.828  34.453  11.938
40467W        W 1888  38.002  37.505  14.433
40468W        W 1889  38.819  34.888  14.474
40469W        W 1890  36.483  43.348  12.053
40470W        W 1891  42.909  17.752   2.684
40471W        W 1892  36.372  43.474   4.353
40472W        W 1893  27.140  44.959   2.405
40473W        W 1894  16.602  38.357  12.373
40474W        W 1895  29.925  39.560   1.853
40475W        W 1896   7.374  18.155   1.809
40476W        W 1897  35.914   7.240   4.612
40477W        W 1898  44.995  28.996   3.848
40478W        W 1899  30.448  23.183   4.347
40479W        W 1900  25.137  20.117  12.013
40480W        W 1901  17.250  32.578  10.970
40481W        W 1902  28.111   9.785   3.769
40482W        W 1903  31.566  40.962  12.414
40483W        W 1904  29.106  25.688  14.002
40484W        W 1905   3.790  29.174   3.648
40485W        W 1906  42.924  14.598  10.076
40486W        W 1907  37.056   3.451  11.546
40487W        W 1908  12.687   8.372   4.632
40488W        W 1909  24.590  34.456  13.308
40489W        W 1910   2.817  23.168  12.981
40490W        W 1911  20.105  16.586  11.581
40491W        W 1912  42.373  36.406  11.590
40492W        W 1913   4.351  20.186   4.680
40493W        W 1914  35.999  31.103  10.426
40494W        W 1915  21.133   7.860   2.181
40495W        W 1916  19.544  16.737  14.012
40496W        W 1917  12.147   4.805  10.040
40497W        W 1918  44.799   3.932   0.752
40498W        W 1919  40.312  24.205  10.897
40499W        W 1920  21.749   5.712  14.498
40500W        W 1921  12.344  18.237  14.963
40501W        W 1922  30.148  38.865  10.451
40502W        W 1923  26.171  23.128   4.634
40503W        W 1924  15.230  36.591   0.743
40504W        W 1925  32.606  41.356   3.856
40505W        W 1926   7.842   7.853  13.427
40506W        W 1927  43.788  39.025  12.877
40507W        W 1928  41.857   4.726  12.419
40508W        W 1929  14.274  28.046  12.855
40509W        W 1930  12.644  26.079   4.228
40510W        W 1931  35.554  24.177   3.816
40511W        W 1932   3.293  41.021   0.270
40512W        W 1933  25.120  35.423   0.432
40513W        W 1934  12.763  24.501   3.652
40514W        W 1935   8.312  19.742   1.769
40515W        W 1936  29.984  10.725  11.090
40516W        W 1937  34.490  19.740  11.893
40517W        W 1938  17.097  22.739   0.261
40518W        W 1939   0.403  28.035  11.035
40519W        W 1940  22.556  36.007   1.783
40520W        W 1941   2.459  19.768   0.950
40521W        W 1942  25.040  27.057  10.520
40522W        W 1943  34.098  44.278   4.675
40523W        W 1944  44.417   7.253   3.215
40524W        W 1945  40.343  16.572  11.527
40525W        W 1946  22.724   1.481  11.897
40526W        W 1947  15.145  21.200  11.409
40527W        W 1948  27.512  16.149   4.145
40528W        W 1949   1.476  32.068   2.349
40529W        W 1950  13.270  20.749  10.482
40530W        W 1951  14.316  14.147   4.675
40531W        W 1952  37.353  17.085  14.922
40532W        W 1953  14.174  17.145  10.551
40533W        W 1954   8.381  12.302   4.144
40534W        W 1955  30.440   2.904   0.958
40535W        W 1956  22.696  21.676  14.983
40536W        W 1957  16.663  39.461  11.492
40537W        W 1958   9.384   9.647   1.308
40538W        W 1959  23.579  42.844  12.577
40539W        W 1960  29.542  43.504   4.695
40540W        W 1961   5.391  41.457  10.891
40541W        W 1962  16.803   2.761   2.280
40542W        W 1963  29.044  14.701   4.121
40543W        W 1964  38.913  15.093  14.025
40544W        W 1965   8.669  22.008   4.720
40545W        W 1966  10.717  40.926  13.890
40546W        W 1967  43.357  24.086  13.433
40547W        W 1968  24.126  14.593   0.333
40548W        W 1969  28.065  38.447   3.271
40549W        W 1970  29.059  42.872  14.945
40550W        W 1971   5.347   5.827   3.146
40551W        W 1972  25.041   2.807   4.277
40552W        W 1973  31.625  17.158  14.883
40553W        W 1974  32.542   5.772   2.264
40554W        W 1975   9.763  28.071  11.995
40555W        W 1976  30.427  23.632   0.295
40556W        W 1977  24.994  33.046  14.785
40557W        W 1978   1.867  33.455   5.266
40558W        W 1979  20.679   2.422  14.001
40559W        W 1980  30.435  16.719  12.980
40560W        W 1981  23.168   7.770   9.994
40561W        W 1982  44.483   3.728  11.409
40562W        W 1983   2.397  30.925  12.026
40563W        W 1984  38.901  35.525  10.523
40564W        W 1985  35.919   0.317  13.818
40565W        W 1986   3.863   5.307  12.580
40566W        W 1987  25.514  13.235  12.527
40567W        W 1988  40.354  15.649  10.911
40568W        W 1989  13.626   1.298  13.942
40569W        W 1990  23.036  29.083  12.436
40570W        W 1991  43.392  17.635   1.756
40571W        W 1992  40.006   1.745   0.479
40572W        W 1993   5.217  20.637  10.997
40573W        W 1994  12.120   0.765   4.202
40574W        W 1995  39.019   7.213  10.496
40575W        W 1996  16.318  38.502  11.987
40576W        W 1997  42.286  21.736  14.834
40577W        W 1998  12.279  35.460   3.323
40578W        W 1999  39.872  41.826  14.506
40579W        W 2000   1.391  40.005   4.646
40580W        W 2001   5.818  23.701  14.823
40581W        W 2002   1.368  22.743   1.748
40582W        W 2003  29.633  19.185  13.512
40583W        W 2004  41.911  34.981   3.145
40584W        W 2005   8.824  17.769  12.072
40585W        W 2006  42.945  26.182   2.709
40586W        W 2007  27.118   1.291   0.729
40587W        W 2008  33.011  34.120   0.789
40588W        W 2009  23.021  17.229  11.391
40589W        W 2010   7.257  26.113  12.561
40590W        W 2011   8.802  27.514  11.387
40591W        W 2012  23.014  13.643   3.214
40592W        W 2013  21.192  31.095   1.295
40593W        W 2014   7.310  13.753  14.897
40594W        W 2015  29.034  24.571   4.696
40595W        W 2016  39.889  23.712  10.996
40596W        W 2017  11.770   7.879  13.395
40597W        W 2018   4.785  36.460  13.507
40598W        W 2019  18.291   9.346   3.794
40599W        W 2020  30.110  17.654  14.976
40600W        W 2021  29.052  35.070  14.425
40601W        W 2022  24.606   5.315  14.317
40602W        W 2023  42.327  16.757   2.683
40603W        W 2024  44.299  14.719   2.843
40604W        W 2025  42.972  10.863  12.569
40605W        W 2026  14.770  32.076   0.898
40606W        W 2027   5.767  28.650  10.988
40607W        W 2028  27.656  28.508  11.094
40608W        W 2029   0.303  17.123  10.435
40609W        W 2030  27.552  42.878  14.376
40610W        W 2031  26.055   5.728  11.958
40611W        W 2032  40.318  37.022  10.475
40612W        W 2033  33.508  22.112  14.947
40613W        W 2034  32.083   4.425   4.117
40614W        W 2035  10.814   8.747  10.629
40615W        W 2036  18.293  13.803   2.370
40616W        W 2037  39.533  15.646   2.357
40617W        W 2038  16.118  33.088  14.423
40618W        W 2039   2.386  43.498  12.460
40619W        W 2040  15.249  13.683   0.439
40620W        W 2041  44.344  30.614   1.319
40621W        W 2042  37.070  33.904  12.892
40622W        W 2043  44.396   6.359  12.833
40623W        W 2044  42.378  20.150  12.087
40624W        W 2045  28.100  30.655   2.409
40625W        W 2046  18.675  37.384  12.347
40626W        W 2047  26.693  39.996  11.379
40627W        W 2048  29.518   7.176   2.359
40628W        W 2049  22.572  35.391  13.990
40629W        W 2050   7.674  28.440   4.621
40630W        W 2051  33.386  27.447   4.604
40631W        W 2052  26.501  20.613   4.248
40632W        W 2053  30.478  22.739   0.423
40633W        W 2054  19.723  27.447   0.270
40634W        W 2055  26.992  23.709  14.367
40635W        W 2056  30.453  33.925   2.718
40636W        W 2057   7.672  41.919  14.461
40637W        W 2058  17.692  40.045   0.470
40638W        W 2059  43.311   2.817   0.964
40639W        W 2060   3.938  30.533  11.488
40640W        W 2061  30.589  29.662   4.618
40641W        W 2062  10.662   6.790  11.559
40642W        W 2063  36.936  42.791   0.949
40643W        W 2064  16.214  41.041  13.832
40644W        W 2065   0.949  14.125  13.023
40645W        W 2066  17.115  33.923  11.998
40646W        W 2067  27.953  32.575  14.957
40647W        W 2068  28.077  19.071  12.845
40648W        W 2069   3.354  12.653   0.941
40649W        W 2070  12.842  10.840  14.939
40650W        W 2071  19.239  35.521   2.369
40651W        W 2072  43.431  40.308  13.475
40652W        W 2073  31.919  15.126  14.968
40653W        W 2074  18.564   7.353  11.053
40654W        W 2075  43.490   9.838   2.405
40655W        W 2076  41.384  27.462   2.316
40656W        W 2077  36.975   6.285  10.941
40657W        W 2078  36.545  15.298   1.304
40658W        W 2079   1.446  21.652  14.351
40659W        W 2080  35.931  20.069   4.137
40660W        W 2081  35.542  30.039   1.213
40661W        W 2082  11.668  36.074   0.846
40662W        W 2083  24.612  20.068  13.908
40663W        W 2084   3.330  42.514  11.040
40664W        W 2085   4.373  34.469  11.897
40665W        W 2086  15.145  32.078  13.995
40666W        W 2087   2.434  11.139  14.003
40667W        W 2088  24.688  16.179   2.826
40668W        W 2089  42.384  20.698   4.163
40669W        W 2090  12.838  28.479  10.638
40670W        W 2091  27.195  27.982  12.930
40671W        W 2092  22.140  30.080   0.734
40672W        W 2093  35.434  25.644   3.735
40673W        W 2094  31.429   9.785   4.603
40674W        W 2095   3.754   3.905   9.573
40675W        W 2096   1.838   6.232   1.867
40676W        W 2097  20.070  17.095  11.925
40677W        W 2098  33.560  15.322  12.407
40678W        W 2099  16.759  25.974   0.748
40679W        W 2100  11.348  20.153   1.421
40680W        W 2101  44.914   7.753   1.277
40681W        W 2102   3.235  43.805   2.842
40682W        W 2103  26.612  24.138   4.652
40683W        W 2104  37.452  22.571   2.323
40684W        W 2105  40.909  14.697   3.642
40685W        W 2106  17.566  33.075   1.755
40686W        W 2107  34.106   0.927  13.515
40687W        W 2108  10.149  28.121  10.496
40688W        W 2109  11.298   4.860  13.450
40689W        W 2110  39.046  42.968  11.548
40690W        W 2111  44.303  36.528  11.979
40691W        W 2112  34.371  15.627  13.540
40692W        W 2113   2.430  25.480   2.848
40693W        W 2114  44.953  34.077  11.414
40694W        W 2115  39.509  28.060   1.804
40695W        W 2116  40.887  15.720  10.122
40696W        W 2117  35.521  19.694   1.928
40697W        W 2118   7.704  31.458  11.554
40698W        W 2119  26.589  39.443  14.932
40699W        W 2120   3.794  13.266   0.365
40700W        W 2121  11.299  29.491   1.289
40701W        W 2122  18.548  35.959   4.308
40702W        W 2123   3.815  32.484  10.451
40703W        W 2124  19.186  33.118   3.732
40704W        W 2125  43.770   1.912  13.376
40705W        W 2126   4.216  37.432   0.475
40706W        W 2127  26.003  33.538   1.787
40707W        W 2128  15.313  21.056  13.452
40708W        W 2129  18.566  28.601  13.390
40709W        W 2130  41.428  36.393  12.580
40710W        W 2131  31.006  37.375  12.576
40711W        W 2132  11.265  30.486   2.899
40712W        W 2133  40.422   5.306   1.784
40713W        W 2134  33.010  40.419   3.842
40714W        W 2135  38.496  18.050  11.550
40715W        W 2136  15.297   8.659  13.891
40716W        W 2137  32.429   4.728  14.010
40717W        W 2138  35.887  13.739   2.797
40718W        W 2139  13.814  36.588  12.023
40719W        W 2140  20.169  41.924   0.308
40720W        W 2141  32.050  41.345  14.802
40721W        W 2142  42.498  38.039   4.819
40722W        W 2143   3.741   8.713   0.893
40723W        W 2144   9.669  40.412   2.705
40724W        W 2145  32.404  12.770  12.042
40725W        W 2146  29.647  25.154  11.073
40726W        W 2147  32.521   3.815   4.270
40727W        W 2148   0.470  24.119  11.871
40728W        W 2149  37.867  24.658   4.796
40729W        W 2150  28.983  15.313   2.891
40730W        W 2151  13.646  42.890   3.757
40731W        W 2152  32.420  42.923   5.207
40732W        W 2153  20.158  33.938  10.963
40733W        W 2154   3.764  43.815   0.882
40734W        W 2155  28.129  26.014   4.788
40735W        W 2156  22.740  42.946   0.879
40736W        W 2157   9.383  31.460  11.464
40737W        W 2158  25.565  15.754   3.173
40738W        W 2159  32.488  17.233  11.389
40739W        W 2160  23.010  24.088   4.646
40740W        W 2161  21.116  29.164   2.350
40741W        W 2162  33.617   9.707   1.425
40742W        W 2163  29.435  37.957  11.960
40743W        W 2164  11.323  44.453  14.290
40744W        W 2165  40.797  36.438   4.201
40745W        W 2166  14.258  31.487  12.536
40746W        W 2167  18.095   9.347   1.746
40747W        W 2168   2.274  21.210  10.978
40748W        W 2169  30.162  35.602   3.274
40749W        W 2170  29.069  11.788  10.050
40750W        W 2171   6.906  33.005  13.841
40751W        W 2172  20.190  39.994   0.813
40752W        W 2173   3.252  16.680   2.796
40753W        W 2174  32.455  29.969   0.915
40754W        W 2175  40.357  27.115  10.917
40755W        W 2176  21.198  36.543  14.345
40756W        W 2177   6.242  28.647   2.814
40757W        W 2178  22.523  11.186  14.880
40758W        W 2179  23.170  24.043  13.910
40759W        W 2180   7.686   9.664   4.610
40760W        W 2181   0.854  29.089  12.029
40761W        W 2182   4.705  33.443  11.487
40762W        W 2183  17.709  33.971  12.958
40763W        W 2184  20.527   3.847  12.502
40764W        W 2185  37.929  22.530   0.906
40765W        W 2186  20.625  39.481  10.469
40766W        W 2187  21.665   6.380  14.387
40767W        W 2188  44.892   9.207   3.804
40768W        W 2189   3.826  24.723   1.918
40769W        W 2190   2.347  26.035   2.258
40770W        W 2191  23.095   6.755   5.294
40771W        W 2192  27.547  35.481   2.262
40772W        W 2193  11.810  39.938   1.280
40773W        W 2194  31.438  23.637  11.067
40774W        W 2195  44.892  22.202  11.470
40775W        W 2196  30.526  24.057   0.917
40776W        W 2197  10.157  33.564   2.197
40777W        W 2198   7.889  11.159   0.940
40778W        W 2199  14.655  12.187   0.328
40779W        W 2200  24.076  11.252  10.409
40780W        W 2201  24.195  44.843   4.175
40781W        W 2202  41.390  11.351   0.292
40782W        W 2203   4.882   4.841  12.345
40783W        W 2204   7.752  25.003  11.963
40784W        W 2205   8.783  35.593  11.122
40785W        W 2206   5.303  38.425   4.674
40786W        W 2207  10.147  13.730  13.449
40787W        W 2208  11.769  21.081  12.008
40788W        W 2209  35.490  27.944   3.303
40789W        W 2210   9.382  17.616  11.446
40790W        W 2211  40.448   7.864   4.615
40791W        W 2212  32.009  31.926  14.794
40792W        W 2213  37.064  34.875   0.381
40793W        W 2214  10.834  32.143   3.230
40794W        W 2215  16.729  27.530  12.577
40795W        W 2216  35.939  42.880   1.220
40796W        W 2217  37.918  21.535  13.004
40797W        W 2218   4.359  19.201  12.537
40798W        W 2219   0.877  27.084   3.217
40799W        W 2220  22.241  13.812  13.985
40800W        W 2221  35.900  30.041  13.537
40801W        W 2222  14.149  13.795  13.041
40802W        W 2223  43.830  28.942  13.941
40803W        W 2224  36.387  33.411   3.688
40804W        W 2225  20.238  32.618  13.406
40805W        W 2226   2.465  39.855   0.311
40806W        W 2227  30.145  28.518  13.056
40807W        W 2228  11.747  23.143   4.211
40808W        W 2229   8.656  33.552  11.925
40809W        W 2230  22.505   8.698  14.509
40810W        W 2231  16.797  19.191  10.522
40811W        W 2232   3.912  23.036   0.901
40812W        W 2233  22.657  25.205   1.933
40813W        W 2234  17.578   2.733   4.831
40814W        W 2235  35.064  16.773  11.387
40815W        W 2236   8.654   1.430   0.421
40816W        W 2237  41.807  36.444   3.347
40817W        W 2238   2.790  30.936   2.382
40818W        W 2239  16.715  35.046  12.014
40819W        W 2240  13.243  32.103  13.898
40820W        W 2241  18.659   7.875   3.730
40821W        W 2242   5.847  38.839  14.909
40822W        W 2243  35.939  41.944  12.966
40823W        W 2244  32.946  13.610  13.828
40824W        W 2245  32.420  28.672   1.931
40825W        W 2246  25.597   5.773  14.960
40826W        W 2247   5.753  31.613   0.918
40827W        W 2248  22.558  39.448  14.283
40828W        W 2249  28.092  13.272   1.449
40829W        W 2250   8.231  27.985   0.373
40830W        W 2251  23.213  22.997   4.661
40831W        W 2252  17.100  37.077   3.363
40832W        W 2253  31.937   5.265   1.388
40833W        W 2254   8.689   3.806  11.607
40834W        W 2255  31.099  19.633   4.218
40835W        W 2256  38.050  11.714   2.375
40836W        W 2257   1.776  20.602  14.794
40837W        W 2258  25.204  26.010  14.388
40838W        W 2259  28.182  39.867  10.461
40839W        W 2260  16.262   4.380  13.902
40840W        W 2261  44.450  42.984  13.850
40841W        W 2262   4.880  30.995  13.484
40842W        W 2263   8.194   9.672  10.604
40843W        W 2264  12.126  10.769   1.832
40844W        W 2265  39.320   8.734  13.532
40845W        W 2266  43.778  24.687  10.518
40846W        W 2267   1.265   2.435   1.853
40847W        W 2268  22.637  44.394   2.764
40848W        W 2269   7.212  39.345   1.246
40849W        W 2270  26.026  39.449  13.935
40850W        W 2271  32.424  21.738  14.964
40851W        W 2272  13.601  30.459   4.642
40852W        W 2273  38.358  28.941   2.765
40853W        W 2274   4.745   6.418   0.431
40854W        W 2275   8.863  30.931   3.265
40855W        W 2276  36.374  32.096  10.569
40856W        W 2277  34.064  43.001  13.978
40857W        W 2278  35.482  40.015   0.807
40858W        W 2279  31.537  44.826  14.458
40859W        W 2280  19.578  14.673   0.348
40860W        W 2281  12.824   9.254   3.342
40861W        W 2282  40.364  16.094   2.385
40862W        W 2283  35.544  33.609   0.959
40863W        W 2284  16.770   7.831  14.852
40864W        W 2285  11.233   2.379   1.322
40865W        W 2286  33.470   8.241   2.278
40866W        W 2287   4.924  20.106   1.929
40867W        W 2288  13.181  31.596  11.601
40868W        W 2289  31.958   2.262   2.688
40869W        W 2290  41.347  18.160   3.351
40870W        W 2291  34.433  24.569  10.902
40871W        W 2292   5.214   6.267   4.328
40872W        W 2293  20.178  24.061   1.857
40873W        W 2294  33.064  20.235  14.011
40874W        W 2295  18.207  24.041  14.882
40875W        W 2296  32.532  23.520   4.215
40876W        W 2297  27.508  18.732  10.528
40877W        W 2298  37.055  22.210   1.354
40878W        W 2299   2.756   0.753  11.500
40879W        W 2300   7.225  11.362  13.956
40880W        W 2301   0.878  15.282  12.360
40881W        W 2302  20.707   0.744   3.728
40882W        W 2303   4.813  23.149  12.487
40883W        W 2304  16.172   6.734  12.549
40884W        W 2305  24.692  36.514  14.378
40885W        W 2306  21.109  19.776  13.878
40886W        W 2307  41.978   8.799  10.908
40887W        W 2308  26.661  40.032   4.750
40888W        W 2309  36.043  13.658  10.576
40889W        W 2310  27.540   9.380  11.096
40890W        W 2311  39.886  43.464   0.802
40891W        W 2312  10.745  22.679   0.769
40892W        W 2313  21.526  40.331  10.432
40893W        W 2314  38.978   5.201  12.399
40894W        W 2315   6.259  18.150  10.455
40895W        W 2316  28.519  44.405  13.035
40896W        W 2317  40.311  43.315  12.472
40897W        W 2318  44.380  29.086  14.807
40898W        W 2319  18.079  10.220   4.776
40899W        W 2320  16.109  14.734   4.821
40900W        W 2321  30.917  40.979   2.796
40901W        W 2322  19.599  41.985   2.842
40902W        W 2323  21.631  29.921   2.860
40903W        W 2324  14.134  16.805   0.309
40904W        W 2325  21.738  20.080  12.948
40905W        W 2326  14.784  39.852  12.048
40906W        W 2327  32.013  30.158   4.600
40907W        W 2328  30.462  44.343   3.281
40908W        W 2329  29.127  42.366   4.758
40909W        W 2330  20.038  29.972  11.432
40910W        W 2331   7.722  42.378   4.661
40911W        W 2332   5.403  18.758  14.463
40912W        W 2333   1.780  29.645  13.931
40913W        W 2334  39.501   9.855  10.952
40914W        W 2335   5.398  43.827  14.314
40915W        W 2336  26.520  40.849  10.522
40916W        W 2337  44.982  29.555  12.836
40917W        W 2338  16.743   4.801  13.893
40918W        W 2339   5.337  16.694   1.215
40919W        W 2340  34.997   7.791   2.256
40920W        W 2341  34.118  35.042   2.847
40921W        W 2342   4.735  28.070   4.252
40922W        W 2343  23.174  21.713  11.583
40923W        W 2344   8.160  31.603  14.363
40924W        W 2345  41.962   4.938  13.815
40925W        W 2346   4.712  34.542  11.041
40926W        W 2347  19.144  14.236  11.510
40927W        W 2348  20.274   9.831   2.178
40928W        W 2349  43.777  19.069   4.742
40929W        W 2350   9.368   5.422  13.971
40930W        W 2351  30.536  32.484  11.915
40931W        W 2352  37.832  18.150   1.921
40932W        W 2353  22.608  14.333   4.761
40933W        W 2354  12.244  37.065   1.385
40934W        W 2355  21.657  38.913  13.355
40935W        W 2356  37.041  25.528   4.348
40936W        W 2357   2.953  37.500   3.849
40937W        W 2358  30.079  37.500   2.753
40938W        W 2359  39.051   4.332   3.764
40939W        W 2360   0.925  11.671   2.734
40940W        W 2361  25.508   6.337  10.550
40941W        W 2362  33.943  38.871  12.528
40942W        W 2363   1.827  42.899   2.202
40943W        W 2364  37.498  21.717   3.701
40944W        W 2365  15.707   8.796   1.417
40945W        W 2366  20.268  11.823   4.806
40946W        W 2367  16.589  19.270   0.960
40947W        W 2368  16.248  32.016  13.040
40948W        W 2369  15.610  30.132  11.578
40949W        W 2370  10.360  37.904  10.953
40950W        W 2371   1.782  44.353   4.640
40951W        W 2372  17.206   8.216   2.851
40952W        W 2373  33.384  20.749  10.967
40953W        W 2374  19.283  43.300   2.823
40954W        W 2375  34.489  18.682   1.696
40955W        W 2376  20.580  43.956  11.942
40956W        W 2377   9.242  39.981  14.799
40957W        W 2378  20.765   8.856   3.657
40958W        W 2379  29.596  35.052   9.976
40959W        W 2380   5.735  23.582  13.017
40960W        W 2381  36.483  33.560  10.070
40961W        W 2382  34.550   5.246  11.991
40962W        W 2383  22.719  41.448   3.226
40963W        W 2384  16.201  44.368   4.763
40964W        W 2385  41.535  23.735   4.799
40965W        W 2386  23.520  34.428   1.270
40966W        W 2387  24.663  14.620   4.354
40967W        W 2388  13.118  27.681   2.683
40968W        W 2389  20.577  32.084   1.750
40969W        W 2390  20.266  27.994   0.396
40970W        W 2391  10.762  34.024  13.866
40971W        W 2392   1.778  38.472   0.946
40972W        W 2393   1.356  44.979   0.931
40973W        W 2394  22.715  35.993   3.274
40974W        W 2395   4.715  39.836  12.875
40975W        W 2396  22.246  35.948  13.937
40976W        W 2397   7.290  22.564   3.862
40977W        W 2398  33.406  27.652   9.922
40978W        W 2399  11.236  24.135  12.011
40979W        W 2400  29.586  12.833   3.378
40980W        W 2401  41.364  17.629   0.736
40981W        W 2402  27.583  11.227  13.973
40982W        W 2403  19.232  15.626   1.716
40983W        W 2404  15.097  44.473  12.924
40984W        W 2405  36.067  38.940  10.969
40985W        W 2406  43.883  37.984   3.310
40986W        W 2407  30.993  31.065  13.042
40987W        W 2408  12.178  13.308   3.289
40988W        W 2409  10.842   0.826   3.783
40989W        W 2410  27.058   8.281  14.296
40990W        W 2411  31.075  40.314  10.487
40991W        W 2412  30.948  36.057  11.040
40992W        W 2413  34.988  35.939   3.305
40993W        W 2414  35.431  25.074   4.152
40994W        W 2415  22.124   1.478  10.459
40995W        W 2416  29.090   9.732  14.386
40996W        W 2417  35.536  34.413   3.638
40997W        W 2418  44.761  36.365  10.430
40998W        W 2419  44.505  20.540   1.919
40999W        W 2420  11.759   8.273  12.549
41000W        W 2421  13.668  18.168   3.867
41001W        W 2422  32.991  11.806   2.749
41002W        W 2423   0.405  18.650   0.475
41003W        W 2424  30.103  18.192  12.561
41004W        W 2425  19.556  39.517   4.791
41005W        W 2426  34.083  17.605   2.419
41006W        W 2427  33.503  36.887   1.838
41007W        W 2428  26.974  10.832  14.424
41008W        W 2429  33.404  19.158   3.374
41009W        W 2430  15.733   2.432  10.998
41010W        W 2431  39.530  37.490  11.101
41011W        W 2432  44.871  24.010  12.072
41012W        W 2433  27.098  24.075  13.489
41013W        W 2434  29.630  14.318   2.223
41014W        W 2435  38.888  41.320   3.776
41015W        W 2436   8.844  18.736  12.891
41016W        W 2437  13.302  29.169  13.848
41017W        W 2438  37.030  37.579   3.163
41018W        W 2439  17.104  36.515   0.959
41019W        W 2440  31.908  20.596  12.084
41020W        W 2441  13.106  37.474   4.650
41021W        W 2442  40.848  40.912  14.983
41022W        W 2443  38.372   1.257  11.925
41023W        W 2444   6.389  31.001   2.194
41024W        W 2445  30.439   5.851   4.831
41025W        W 2446  36.426  16.729  12.957
41026W        W 2447  23.112  33.051   1.912
41027W        W 2448   9.721  37.339  11.550
41028W        W 2449   2.753  37.355   4.748
41029W        W 2450   1.868  32.132  12.920
41030W        W 2451  18.053  41.390  12.510
41031W        W 2452  31.612  17.250   4.653
41032W        W 2453  33.891  12.129   3.866
41033W        W 2454  26.507  23.645  12.393
41034W        W 2455   4.394  19.147   3.737
41035W        W 2456  30.933  43.010  11.455
41036W        W 2457  29.106  44.504   2.777
41037W        W 2458   0.413  35.026  10.514
41038W        W 2459  42.026  25.108   0.771
41039W        W 2460  11.196  39.864   1.318
41040W        W 2461   3.380  24.207  13.356
41041W        W 2462  29.556   1.403  14.438
41042W        W 2463   0.341  29.496  13.981
41043W        W 2464  15.721  43.767   0.938
41044W        W 2465  22.164  23.129   0.423
41045W        W 2466   9.666  16.808   1.725
41046W        W 2467  38.825   9.339   1.706
41047W        W 2468  32.951   3.805  12.427
41048W        W 2469   2.387   3.309  10.453
41049W        W 2470  35.881  39.373   1.935
41050W        W 2471   6.421  10.175  10.432
41051W        W 2472  13.764  19.261   0.471
41052W        W 2473  30.531   3.366  11.450
41053W        W 2474   7.240  16.224  13.375
41054W        W 2475  31.089  39.314   1.418
41055W        W 2476   8.805  24.118  12.987
41056W        W 2477  37.534   4.209   4.602
41057W        W 2478  40.852  34.609  14.997
41058W        W 2479  27.962   7.852  11.087
41059W        W 2480  20.751  35.594   2.245
41060W        W 2481  38.025   6.778   1.700
41061W        W 2482  41.341  10.145   1.212
41062W        W 2483   6.371  44.010   2.412
41063W        W 2484  10.341  39.387   0.260
41064W        W 2485  30.918  20.754   4.228
41065W        W 2486  39.039  40.856   1.765
41066W        W 2487  24.042  21.568  11.902
41067W        W 2488  17.677  11.359   1.698
41068W        W 2489  13.632   6.380   4.351
41069W        W 2490   0.251  14.291  14.892
41070W        W 2491  15.235  16.313  13.959
41071W        W 2492  34.006  29.450  12.877
41072W        W 2493  41.443   7.835  14.410
41073W        W 2494  37.957  31.644  13.385
41074W        W 2495  25.154  20.712  13.050
41075W        W 2496  18.065  25.174  11.558
41076W        W 2497  37.461  13.299   0.360
41077W        W 2498  38.337  11.822   1.724
41078W        W 2499  13.196  40.318  10.903
41079W        W 2500  41.839  31.539  12.555
41080W        W 2501  13.764  18.191   2.767
41081W        W 2502  28.143  15.786  14.380
41082W        W 2503  23.052   6.336  14.984
41083W        W 2504  25.558   6.372   5.785
41084W        W 2505  44.469  22.076   2.252
41085W        W 2506  30.099  14.240  14.991
41086W        W 2507  39.541   3.785   0.799
41087W        W 2508  37.900  34.397  12.956
41088W        W 2509   9.263  15.322  13.055
41089W        W 2510   9.889  17.279  13.985
41090W        W 2511  26.985  22.128   2.367
41091W        W 2512  28.072  31.492   3.804
41092W        W 2513  34.505  16.236  12.923
41093W        W 2514  30.124   7.862   1.354
41094W        W 2515  27.484  15.309   9.451
41095W        W 2516   6.888   6.250  12.535
41096W        W 2517  27.614  14.226   4.294
41097W        W 2518  38.052  13.117  12.424
41098W        W 2519   6.389  18.559   3.694
41099W        W 2520   3.770  44.911  11.425
41100W        W 2521   0.921  11.161  12.392
41101W        W 2522  20.672  41.324   3.222
41102W        W 2523   4.428   1.744  12.474
41103W        W 2524  35.371  13.312  12.067
41104W        W 2525  19.567  38.416  13.968
41105W        W 2526  14.831  23.223  11.077
41106W        W 2527  18.675  10.355  13.484
41107W        W 2528   7.842  39.344   0.386
41108W        W 2529  35.031   8.711   1.902
41109W        W 2530  15.663  27.118   0.882
41110W        W 2531  39.356   9.233  12.851
41111W        W 2532  12.142  42.363   1.795
41112W        W 2533  32.939   0.434  13.961
41113W        W 2534  35.600   5.921   1.867
41114W        W 2535  21.173  41.025   2.224
41115W        W 2536  17.289   7.798   0.369
41116W        W 2537  43.401  36.346   4.734
41117W        W 2538   7.714  13.335   3.259
41118W        W 2539   7.851  16.257  13.883
41119W        W 2540   1.438   2.357   2.402
41120W        W 2541  32.123  22.745  13.959
41121W        W 2542  44.358   6.301  14.873
41122W        W 2543  35.469  19.108  13.032
41123W        W 2544   4.260  17.125  14.418
41124W        W 2545  18.775   0.895   4.830
41125W        W 2546  34.937  16.647  12.018
41126W        W 2547  33.425  38.991  10.408
41127W        W 2548  21.084  12.648   2.395
41128W        W 2549  20.202   4.346   4.304
41129W        W 2550  21.682   9.643  14.513
41130W        W 2551   2.312  21.570   1.286
41131W        W 2552  33.558   5.360   2.351
41132W        W 2553   4.420  36.543  11.953
41133W        W 2554  33.476  41.508   2.372
41134W        W 2555  20.723  41.372  14.358
41135W        W 2556  11.174   9.654  11.919
41136W        W 2557  18.248  26.561   1.246
41137W        W 2558  23.590   2.929   1.716
41138W        W 2559  22.521  19.726   1.903
41139W        W 2560   1.888   2.289   1.241
41140W        W 2561  43.863  36.991   1.775
41141W        W 2562   0.934  38.978   0.834
41142W        W 2563  10.335  12.675   4.138
41143W        W 2564   9.368   7.822   4.705
41144W        W 2565  44.279  22.711  12.828
41145W        W 2566  26.961  28.458  11.095
41146W        W 2567  38.474   3.926  10.558
41147W        W 2568  33.875  30.533  11.398
41148W        W 2569   9.360   0.342  12.022
41149W        W 2570   3.285  19.543   4.158
41150W        W 2571  13.141   1.408   1.303
41151W        W 2572  37.577   2.899  14.873
41152W        W 2573  36.919  21.073  14.488
41153W        W 2574   9.342  41.034   1.913
41154W        W 2575   2.229  10.790   2.761
41155W        W 2576  35.524  27.057   0.286
41156W        W 2577  38.842  37.398   4.137
41157W        W 2578  37.004   4.314  13.879
41158W        W 2579  20.178  17.648   5.130
41159W        W 2580  10.634   1.302  12.397
41160W        W 2581  20.085   5.810   4.208
41161W        W 2582  25.529  29.042  14.989
41162W        W 2583  24.991  14.813  12.578
41163W        W 2584  23.598  42.900  13.810
41164W        W 2585  20.658   5.869  11.882
41165W        W 2586  26.505  20.734   3.360
41166W        W 2587  11.330  32.139   3.693
41167W        W 2588  38.882  19.763  11.396
41168W        W 2589  37.556  32.574  12.407
41169W        W 2590  37.079  14.678  12.925
41170W        W 2591  17.203  31.554   1.335
41171W        W 2592  35.394  19.649  10.528
41172W        W 2593   7.269  20.090   4.601
41173W        W 2594  25.626  28.153  11.095
41174W        W 2595  36.426  41.850   4.643
41175W        W 2596  10.271   5.392  11.980
41176W        W 2597   0.260  23.010   1.699
41177W        W 2598   0.488   0.340  13.437
41178W        W 2599   5.222   6.877   1.767
41179W        W 2600  37.410   6.196  12.470
41180W        W 2601   0.941  20.104  14.366
41181W        W 2602   0.985  22.616  11.969
41182W        W 2603  16.634  37.012   4.657
41183W        W 2604  42.325  30.927   1.301
41184W        W 2605  10.862  22.027  13.048
41185W        W 2606  34.054  34.950  13.542
41186W        W 2607   7.249  31.960  14.467
41187W        W 2608  19.573  10.855   4.286
41188W        W 2609  16.597  27.041  10.925
41189W        W 2610   1.344  35.491   0.854
41190W        W 2611  39.042  34.561  11.989
41191W        W 2612  27.188  29.670   2.399
41192W        W 2613  10.281  29.989   3.644
41193W        W 2614  13.657  44.341  12.034
41194W        W 2615  13.642  19.610  14.437
41195W        W 2616  37.972  17.112  14.333
41196W        W 2617  34.566  38.327  12.523
41197W        W 2618  40.918  39.371   3.732
41198W        W 2619  43.967   6.836   1.275
41199W        W 2620  38.957  28.500   3.184
41200W        W 2621  40.818  15.815  13.914
41201W        W 2622  26.694  38.029   0.758
41202W        W 2623  35.886  11.736  14.844
41203W        W 2624   3.366  40.428  13.833
41204W        W 2625  11.710  26.119   2.685
41205W        W 2626  37.391  11.856  10.562
41206W        W 2627  20.653  30.024   1.786
41207W        W 2628  28.083   0.855   3.653
41208W        W 2629  19.765  39.876  14.871
41209W        W 2630  23.673  17.763  12.484
41210W        W 2631  29.490   5.339   4.117
41211W        W 2632  14.612  28.943  14.953
41212W        W 2633  28.178   4.699  11.077
41213W        W 2634  32.089  37.423  12.497
41214W        W 2635  32.518  26.678   4.167
41215W        W 2636  17.134  38.945  10.148
41216W        W 2637  39.533  11.189   3.767
41217W        W 2638   2.268   9.822  13.499
41218W        W 2639  13.218  35.992   2.341
41219W        W 2640  30.051  34.447   3.859
41220W        W 2641  33.103  39.881  11.524
41221W        W 2642   6.698  16.300   3.184
41222W        W 2643   6.409  31.096   0.304
41223W        W 2644  34.430   4.921   4.656
41224W        W 2645  41.944  36.065  14.859
41225W        W 2646  21.141  23.100  11.496
41226W        W 2647   3.906  34.569   5.264
41227W        W 2648  28.096  40.848   2.299
41228W        W 2649  38.491  37.844  13.875
41229W        W 2650  26.696  14.637   2.881
41230W        W 2651  35.361  44.318  13.479
41231W        W 2652  22.208  41.497   1.238
41232W        W 2653   5.301  33.880  10.930
41233W        W 2654  42.436  36.391  14.911
41234W        W 2655  13.127  35.562   0.904
41235W        W 2656  14.717  17.735  11.076
41236W        W 2657  16.289   3.461  10.437
41237W        W 2658  43.462  11.283   3.631
41238W        W 2659  37.931  16.106   1.430
41239W        W 2660  40.461   9.706   2.301
41240W        W 2661  23.567  25.624   2.271
41241W        W 2662   7.250   4.813   2.402
41242W        W 2663   0.279  30.517   1.753
41243W        W 2664   3.731  17.788   0.941
41244W        W 2665  31.442  28.534   0.751
41245W        W 2666  35.109  23.018  10.411
41246W        W 2667  33.041  27.600   4.164
41247W        W 2668   1.311  33.479  11.886
41248W        W 2669   5.309  10.869  10.442
41249W        W 2670  37.982  21.076   1.930
41250W        W 2671  31.606  38.847  14.338
41251W        W 2672  40.933  33.395  14.961
41252W        W 2673  43.272  34.063   3.257
41253W        W 2674  13.118  44.274   1.858
41254W        W 2675  43.790  38.386   3.311
41255W        W 2676  19.233  23.151  12.570
41256W        W 2677  33.106  21.745   4.301
41257W        W 2678  11.283   9.788  10.534
41258W        W 2679  42.021   9.843  13.918
41259W        W 2680  17.644   8.345  11.077
41260W        W 2681  20.191  31.978   1.355
41261W        W 2682   4.215  33.454  11.880
41262W        W 2683  19.722   3.390  14.348
41263W        W 2684   6.808  26.585  10.996
41264W        W 2685  23.057  35.969   1.358
41265W        W 2686  38.387   8.760  14.278
41266W        W 2687  41.469  26.078  11.066
41267W        W 2688  38.452   5.734  13.915
41268W        W 2689  29.003  18.148   3.173
41269W        W 2690  14.150  23.703  10.477
41270W        W 2691   9.194  23.636   3.804
41271W        W 2692   4.858  16.077   3.708
41272W        W 2693  10.239  18.587   1.703
41273W        W 2694  14.238   1.310   3.168
41274W        W 2695  15.248  28.599   5.278
41275W        W 2696   0.959  30.638  14.425
41276W        W 2697   8.868  30.920  11.944
41277W        W 2698  38.375  26.029  13.976
41278W        W 2699  38.480  33.885   4.807
41279W        W 2700   1.938   3.863   1.224
41280W        W 2701  28.475  17.256  14.471
41281W        W 2702  28.176   8.856   1.383
41282W        W 2703  11.624  14.749  12.560
41283W        W 2704  16.121   7.362   3.202
41284W        W 2705   9.301  43.434  14.967
41285W        W 2706  39.558  41.453   3.682
41286W        W 2707   0.370   9.828  10.954
41287W        W 2708  16.102  32.915   4.128
41288W        W 2709   0.816  37.057   1.728
41289W        W 2710  23.536  33.906   2.897
41290W        W 2711  25.481  20.711  14.970
41291W        W 2712  25.197   0.910  14.979
41292W        W 2713  22.594   2.921   0.728
41293W        W 2714  38.439  35.985   0.959
41294W        W 2715  10.352  34.486   1.377
41295W        W 2716  43.860  19.060   1.247
41296W        W 2717  32.127  25.181   1.815
41297W        W 2718   8.180  17.801   0.271
41298W        W 2719  39.326  42.455   1.361
41299W        W 2720   3.817   4.840   0.263
41300W        W 2721  38.023  36.990  11.954
41301W        W 2722   7.194  14.153  13.515
41302W        W 2723  33.440  36.534  12.416
41303W        W 2724   0.778  31.137  11.503
41304W        W 2725   3.369  31.602  13.330
41305W        W 2726  23.522   9.886  10.457
41306W        W 2727  26.479  40.473   2.288
41307W        W 2728  30.133  17.695   4.119
41308W        W 2729  21.679  42.485  11.962
41309W        W 2730   1.920  26.081   2.395
41310W        W 2731   3.218  24.089  12.530
41311W        W 2732   1.302  34.428   1.431
41312W        W 2733  37.861   3.718  11.061
41313W        W 2734  25.994  33.010   1.299
41314W        W 2735  34.961  17.300  11.503
41315W        W 2736  11.150  19.577  14.948
41316W        W 2737  16.191  22.211  11.096
41317W        W 2738  37.360  12.160   2.188
41318W        W 2739  25.535  26.477  12.897
41319W        W 2740  27.997  35.994  11.503
41320W        W 2741   4.445  21.035  11.593
41321W        W 2742   9.372  30.949   4.126
41322W        W 2743  34.869  21.751  14.954
41323W        W 2744   4.926  28.525   1.855
41324W        W 2745  40.871  16.240  13.865
41325W        W 2746  29.648  26.957   4.295
41326W        W 2747  26.590  13.284   1.812
41327W        W 2748  28.994   7.688  13.523
41328W        W 2749  35.483  21.705   0.368
41329W        W 2750  33.608  36.098   1.916
41330W        W 2751  40.881  11.725  10.441
41331W        W 2752  13.270   2.815  11.972
41332W        W 2753  27.602  30.960   3.188
41333W        W 2754  41.296  16.755  10.413
41334W        W 2755   1.937  30.489  14.838
41335W        W 2756   5.800   9.741  14.463
41336W        W 2757  11.262  40.384   5.190
41337W        W 2758  40.390   6.206  11.372
41338W        W 2759  35.103  15.709  10.128
41339W        W 2760  42.915  14.675  13.046
41340W        W 2761  10.834  10.855   1.363
41341W        W 2762  28.093  25.561  11.117
41342W        W 2763  19.155   5.301   0.336
41343W        W 2764  41.881  21.616   1.901
41344W        W 2765   3.937   0.942   3.239
41345W        W 2766  26.691  27.502  14.444
41346W        W 2767  30.580   0.856   0.935
41347W        W 2768   3.763  15.732   2.259
41348W        W 2769  27.688  36.885   0.375
41349W        W 2770  11.783   2.468  12.850
41350W        W 2771   7.176  10.232  14.277
41351W        W 2772   7.407   9.728   2.824
41352W        W 2773  20.573  36.979   0.811
41353W        W 2774  39.497  28.446  11.569
41354W        W 2775  39.865   6.225   4.247
41355W        W 2776  16.797  33.574   0.859
41356W        W 2777  30.415  38.394   4.279
41357W        W 2778   2.836  44.755   5.231
41358W        W 2779  25.180   3.761  12.550
41359W        W 2780  35.397  17.073   2.781
41360W        W 2781  18.106  42.480  13.446
41361W        W 2782  27.155  35.502   2.377
41362W        W 2783  25.469  41.320  11.449
41363W        W 2784  41.017  11.150   3.303
41364W        W 2785  32.534  24.595  11.473
41365W        W 2786  36.523  40.480   1.791
41366W        W 2787  44.000  14.784  11.862
41367W        W 2788  31.530  16.224   1.434
41368W        W 2789  33.932  18.135  11.577
41369W        W 2790  10.303   6.796   2.368
41370W        W 2791   1.968  33.916  11.388
41371W        W 2792   0.816   2.897  13.348
41372W        W 2793  21.233  42.935  12.958
41373W        W 2794  36.428  39.864  12.837
41374W        W 2795  37.439  29.549   4.265
41375W        W 2796  31.959  17.292   3.304
41376W        W 2797  44.837  14.158  10.561
41377W        W 2798  10.800  16.188   4.234
41378W        W 2799   0.777  21.188  11.072
41379W        W 2800  26.082  43.427   4.722
41380W        W 2801   2.772  16.266   3.364
41381W        W 2802  20.680   1.245  14.882
41382W        W 2803   4.393  43.876   1.295
41383W        W 2804   0.276  22.186   1.829
41384W        W 2805  33.601  26.982  14.339
41385W        W 2806  11.858  36.427  11.471
41386W        W 2807  19.751  33.939  14.493
41387W        W 2808   6.849  31.928  11.871
41388W        W 2809  29.149  13.298   5.767
41389W        W 2810  19.606   2.463  10.940
41390W        W 2811  21.593  23.515   2.894
41391W        W 2812  26.473  33.122  13.474
41392W        W 2813  24.714  25.992   0.907
41393W        W 2814  34.090  11.259  12.883
41394W        W 2815  14.315   0.914  14.809
41395W        W 2816  25.141  36.456   3.830
41396W        W 2817  38.873  40.517   2.789
41397W        W 2818   2.882  20.625   1.436
41398W        W 2819  24.670  23.567   1.268
41399W        W 2820   7.328  44.286   2.784
41400W        W 2821  30.142  22.016   0.919
41401W        W 2822  43.289  11.336   1.384
41402W        W 2823   9.271   8.175   0.923
41403W        W 2824  25.006  22.508   2.252
41404W        W 2825  38.971  11.261   4.240
41405W        W 2826  18.714   2.843  14.787
41406W        W 2827  32.127  18.547   3.303
41407W        W 2828  24.205  20.092   3.343
41408W        W 2829  42.344  37.831  11.479
41409W        W 2830   4.395  14.133  11.128
41410W        W 2831  16.144  42.981   5.130
41411W        W 2832  31.097  32.070  11.536
41412W        W 2833  37.030  34.017   3.782
41413W        W 2834  32.525  10.680   2.319
41414W        W 2835  11.288  20.223  13.393
41415W        W 2836  36.489   8.255  13.893
41416W        W 2837  30.616  27.554   0.330
41417W        W 2838  23.167  10.772   4.630
41418W        W 2839  30.950  36.360   3.252
41419W        W 2840   6.334  13.831   1.213
41420W        W 2841  13.209  31.060  14.884
41421W        W 2842  14.831  25.021   0.266
41422W        W 2843   7.822   4.412  13.038
41423W        W 2844  18.092  34.605  11.597
41424W        W 2845  34.411  44.885  12.481
41425W        W 2846  23.235  36.886  13.458
41426W        W 2847  26.573  20.228   3.162
41427W        W 2848  16.674   5.241  13.813
41428W        W 2849   3.385   7.178   4.186
41429W        W 2850  20.269  12.206   0.253
41430W        W 2851   9.772  12.842  12.063
41431W        W 2852  42.386  44.961   0.790
41432W        W 2853  22.074  43.942   0.946
41433W        W 2854  38.885  42.824  12.929
41434W        W 2855  31.969   6.862   3.657
41435W        W 2856   6.791  44.325  11.110
41436W        W 2857  38.037  34.511  12.356
41437W        W 2858  11.652  19.564  14.384
41438W        W 2859  28.484  25.200  11.118
41439W        W 2860  43.404  33.573  14.452
41440W        W 2861  25.514   5.419   3.704
41441W        W 2862   0.764  12.848  12.427
41442W        W 2863  25.557  11.710  14.996
41443W        W 2864   5.332  23.214   1.286
41444W        W 2865  20.733  31.929   0.282
41445W        W 2866  15.753   8.864   2.382
41446W        W 2867  17.728  38.017  13.414
41447W        W 2868   6.765  19.537   0.476
41448W        W 2869  44.395  19.635  10.604
41449W        W 2870  41.859  18.579   0.831
41450W        W 2871  39.818  18.757   2.346
41451W        W 2872   0.464  27.505  14.988
41452W        W 2873  31.060  32.981   2.709
41453W        W 2874   2.386  41.367  10.910
41454W        W 2875  41.453  15.699  10.427
41455W        W 2876  38.955  33.603   2.315
41456W        W 2877   6.710  44.975  10.631
41457W        W 2878   8.226   4.710   2.902
41458W        W 2879  35.570   3.814   3.266
41459W        W 2880  26.557   9.854  11.488
41460W        W 2881  33.596  41.466   4.760
41461W        W 2882   5.752  10.830  14.871
41462W        W 2883  43.849  30.074  13.480
41463W        W 2884  30.642  22.034   0.967
41464W        W 2885  35.416   1.284  13.916
41465W        W 2886  37.560   7.752  13.909
41466W        W 2887  18.136  29.590   4.718
41467W        W 2888  43.448  28.473   1.255
41468W        W 2889  35.945  33.577  11.452
41469W        W 2890  13.180  44.362   1.407
41470W        W 2891  11.293  28.639  12.388
41471W        W 2892  39.045  13.141   0.894
41472W        W 2893  27.056  29.146   4.645
41473W        W 2894  12.694   4.275   2.687
41474W        W 2895   6.254  40.380   0.372
41475W        W 2896  10.181  12.216   0.731
41476W        W 2897  22.569  20.068   3.371
41477W        W 2898  22.120  40.368   0.287
41478W        W 2899  15.161  15.658  10.989
41479W        W 2900  28.605   5.892  14.471
41480W        W 2901   1.441   5.880  14.293
41481W        W 2902  40.899  40.831  14.493
41482W        W 2903  13.106   1.357   1.870
41483W        W 2904  41.433  30.937   3.825
41484W        W 2905  16.692  31.551   3.710
41485W        W 2906  24.490   4.288   4.769
41486W        W 2907   5.694   1.241   4.814
41487W        W 2908  10.728  40.880  11.516
41488W        W 2909   2.250  36.865   4.261
41489W        W 2910  16.702  10.337   0.749
41490W        W 2911  24.170  18.248   0.955
41491W        W 2912  25.078  24.479  10.542
41492W        W 2913  25.707  36.437  14.940
41493W        W 2914  18.692   7.247   1.315
41494W        W 2915  44.919   3.924  13.380
41495W        W 2916  37.916  38.049  14.797
41496W        W 2917  35.448   8.281   0.362
41497W        W 2918  14.096  30.044   5.697
41498W        W 2919  18.084  34.950   0.269
41499W        W 2920  42.783  28.953  10.412
41500W        W 2921   2.794  19.097  11.019
41501W        W 2922  19.728   0.936   5.205
41502W        W 2923  30.034  24.560   4.717
41503W        W 2924  40.534  13.183   4.799
41504W        W 2925  29.933  34.906  11.020
41505W        W 2926  23.536  21.511   4.136
41506W        W 2927   5.403  26.695   3.834
41507W        W 2928  11.845  36.922   0.378
41508W        W 2929  19.069  36.081  13.025
41509W        W 2930  18.647   8.295   3.368
41510W        W 2931  14.660  39.049  10.608
41511W        W 2932  14.300  38.407   1.251
41512W        W 2933  39.879  12.218   3.846
41513W        W 2934  31.137  17.566  13.967
41514W        W 2935  30.996  28.513  14.025
41515W        W 2936  15.596  16.231   4.780
41516W        W 2937  43.322  15.129   0.436
41517W        W 2938  20.253  20.564  14.385
41518W        W 2939  43.806   4.407  12.355
41519W        W 2940  21.750   8.269   1.805
41520W        W 2941  28.021  34.454  10.462
41521W        W 2942  14.314   3.803   2.696
41522W        W 2943  14.285  24.522  14.879
41523W        W 2944  28.092  30.156  11.595
41524W        W 2945  17.283  25.098   1.857
41525W        W 2946  24.129   1.399   4.769
41526W        W 2947  36.352  20.036  11.426
41527W        W 2948   3.942  40.384   3.690
41528W        W 2949   1.942  35.014  11.549
41529W        W 2950   8.750  11.261   2.687
41530W        W 2951   7.245  36.534   1.409
41531W        W 2952   7.855   7.707   3.261
41532W        W 2953  23.031  32.447   1.898
41533W        W 2954  13.255   1.926   0.883
41534W        W 2955  15.616  11.795   1.246
41535W        W 2956   8.236  33.092  11.404
41536W        W 2957  24.993  10.186   1.787
41537W        W 2958   0.435   3.775  10.560
41538W        W 2959  39.041  16.730  13.961
41539W        W 2960   1.879  13.239   1.367
41540W        W 2961  11.255  24.147   2.393
41541W        W 2962  37.524  15.688   1.337
41542W        W 2963  18.631  13.796  12.974
41543W        W 2964  33.582  38.356  14.392
41544W        W 2965  35.548  37.941  11.948
41545W        W 2966  29.579  19.649   0.444
41546W        W 2967  17.653   6.219  11.889
41547W        W 2968  18.052  44.888   3.327
41548W        W 2969   2.754  15.602  12.900
41549W        W 2970   0.369  35.575   2.824
41550W        W 2971   1.929  13.139  14.331
41551W        W 2972   2.270  23.630  13.541
41552W        W 2973  20.527  13.157   2.722
41553W        W 2974  15.131  16.601   0.409
41554W        W 2975  30.011  12.273  12.376
41555W        W 2976  39.850  15.285   1.302
41556W        W 2977   7.209  43.978   4.640
41557W        W 2978  30.493  14.201   2.864
41558W        W 2979  40.532  12.660   4.626
41559W        W 2980  31.922  25.561   1.745
41560W        W 2981  34.092  12.178  10.422
41561W        W 2982  34.997   4.787  14.501
41562W        W 2983  25.139  10.795  13.946
41563W        W 2984  29.952   0.751   4.342
41564W        W 2985  15.130  43.423  11.864
41565W        W 2986   2.371   6.740  12.027
41566W        W 2987  40.481  26.644   2.792
41567W        W 2988  28.604  38.007  13.922
41568W        W 2989   3.335  21.571   2.692
41569W        W 2990   4.351  38.965  12.528
41570W        W 2991  16.574  23.114   2.397
41571W        W 2992   2.433  28.164   1.413
41572W        W 2993   8.674  20.752  12.826
41573W        W 2994   3.335  32.410   3.846
41574W        W 2995  44.402  17.185   4.768
41575W        W 2996   1.349  40.981   0.387
41576W        W 2997  22.244  20.028  14.782
41577W        W 2998  29.666  29.046   0.925
41578W        W 2999  25.023   3.711  14.822
41579W        W 3000  23.731  24.143   3.765
41580W        W 3001  36.961   6.428   2.702
41581W        W 3002  19.725  24.036  13.863
41582W        W 3003  13.719  36.002   3.828
41583W        W 3004  19.177  36.962  14.448
41584W        W 3005  29.549  20.716  13.410
41585W        W 3006  33.605   7.752   1.392
41586W        W 3007  43.354  25.700   0.859
41587W        W 3008  34.973   8.732  14.880
41588W        W 3009   4.380  44.279  13.944
41589W        W 3010  39.841  32.915   1.237
41590W        W 3011   0.463  32.602  13.378
41591W        W 3012   5.324  12.674   4.119
41592W        W 3013  35.487  37.995   2.782
41593W        W 3014  28.064  34.555  13.512
41594W        W 3015  17.596  41.855  13.472
41595W        W 3016   6.332  25.983   4.623
41596W        W 3017  44.443  36.391   0.352
41597W        W 3018  15.303  10.328  13.857
41598W        W 3019  15.288  17.203   0.483
41599W        W 3020   1.303  36.566  11.002
41600W        W 3021  11.764  29.148  14.899
41601W        W 3022  27.147  42.808  12.932
41602W        W 3023   9.393  38.445   0.941
41603W        W 3024  30.484  36.471   0.758
41604W        W 3025  22.162  39.553  11.564
41605W        W 3026   3.302   6.200   3.806
41606W        W 3027   1.323  43.816   0.384
41607W        W 3028  24.698  36.510   4.240
41608W        W 3029  22.669  26.051  14.821
41609W        W 3030  27.025  37.506  12.520
41610W        W 3031  37.930  11.213   2.713
41611W        W 3032  37.336  42.496   4.310
41612W        W 3033   8.228  21.205   2.402
41613W        W 3034  29.552  23.063  11.084
41614W        W 3035  21.117  44.916  13.458
41615W        W 3036  26.959  27.036   4.692
41616W        W 3037   0.306  33.036  11.955
41617W        W 3038   1.305   3.430   4.830
41618W        W 3039   3.886  44.442  14.900
41619W        W 3040  27.675   8.208  11.974
41620W        W 3041  43.271  36.537  13.498
41621W        W 3042  25.132  39.508   4.604
41622W        W 3043  25.025  19.627   2.295
41623W        W 3044  18.158  32.928   2.772
41624W        W 3045   9.208  38.362   9.444
41625W        W 3046  27.503  32.995  11.386
41626W        W 3047  27.006  20.623   3.302
41627W        W 3048  14.679  18.285  10.553
41628W        W 3049  28.459   7.782  12.499
41629W        W 3050  33.018   5.914  11.516
41630W        W 3051  14.098  44.835   1.363
41631W        W 3052  42.479  24.136  13.844
41632W        W 3053  14.145  25.712  14.763
41633W        W 3054  33.380  36.069   4.182
41634W        W 3055   8.773   8.738  13.419
41635W        W 3056  21.721   7.262  11.000
41636W        W 3057  35.949  34.085   4.241
41637W        W 3058   1.809  42.454  11.973
41638W        W 3059  34.570  28.157   0.842
41639W        W 3060  15.799  32.455   5.247
41640W        W 3061  14.305  28.939   5.285
41641W        W 3062  40.838  32.599  10.436
41642W        W 3063   8.303  39.866  13.958
41643W        W 3064  20.143  16.125   0.393
41644W        W 3065  31.896  44.986   4.350
41645W        W 3066   1.447  13.113  12.415
41646W        W 3067   7.721  27.129  10.631
41647W        W 3068   6.342  34.068  13.825
41648W        W 3069  15.641  15.730   0.454
41649W        W 3070   4.377  13.623   1.364
41650W        W 3071  15.674  10.382   4.258
41651W        W 3072  19.203  15.216  11.939
41652W        W 3073   5.409  26.589  12.078
41653W        W 3074  12.215   9.654  14.840
41654W        W 3075  18.637  12.659   4.354
41655W        W 3076  10.293  40.349   1.893
41656W        W 3077  37.039  44.875  11.049
41657W        W 3078  20.113  30.469   0.822
41658W        W 3079  43.920  32.130   1.924
41659W        W 3080  29.483  14.789   3.270
41660W        W 3081  13.219  16.592   3.324
41661W        W 3082   3.887  35.051   3.199
41662W        W 3083   0.303  42.298  12.580
41663W        W 3084  42.019  18.684  13.791
41664W        W 3085  30.572  19.112   2.714
41665W        W 3086  31.109  33.972   2.386
41666W        W 3087  14.660  17.304  11.917
41667W        W 3088  30.549   9.888  14.822
41668W        W 3089  44.406  35.398  14.305
41669W        W 3090   0.405   5.425  13.840
41670W        W 3091  26.045  13.802   3.164
41671W        W 3092   3.331  26.620   3.644
41672W        W 3093  23.633   7.795   0.416
41673W        W 3094  10.313  25.173  12.353
41674W        W 3095  20.612  38.992   4.756
41675W        W 3096  25.022  36.501  10.415
41676W        W 3097  14.204  31.900  13.494
41677W        W 3098  29.054   4.747   2.276
41678W        W 3099  43.403  15.758   0.892
41679W        W 3100   6.296  32.096  14.782
41680W        W 3101  29.453  33.425  12.909
41681W        W 3102  20.058  15.123   3.276
41682W        W 3103  39.317   0.972   4.169
41683W        W 3104  30.484  42.958  14.829
41684W        W 3105  23.684   4.755   2.394
41685W        W 3106  17.723  14.192   0.436
41686W        W 3107   4.276   5.816   0.898
41687W        W 3108  17.710   2.282  14.971
41688W        W 3109   5.921  10.233  13.964
41689W        W 3110  26.134  16.074   3.240
41690W        W 3111  27.077  22.186  12.070
41691W        W 3112  25.174  41.959   4.619
41692W        W 3113   5.225  22.737   2.337
41693W        W 3114  19.663  24.174   4.794
41694W        W 3115  31.929  18.258  10.462
41695W        W 3116  13.704  38.353   2.768
41696W        W 3117  25.048  44.785   0.430
41697W        W 3118  32.984   2.289   2.816
41698W        W 3119  27.087  39.914   4.757
41699W        W 3120  42.802   7.785  11.577
41700W        W 3121  27.960  12.684   4.836
41701W        W 3122  20.163   3.850   1.250
41702W        W 3123  26.543  30.143   1.834
41703W        W 3124   1.331  31.943  12.369
41704W        W 3125  39.403   8.750   4.778
41705W        W 3126  17.096  10.879   9.988
41706W        W 3127   7.352  29.528   3.638
41707W        W 3128  27.656   9.780  10.643
41708W        W 3129  41.924  44.875   2.740
41709W        W 3130  30.087   5.819   1.250
41710W        W 3131   6.699  19.195  10.431
41711W        W 3132  32.424  34.530  11.094
41712W        W 3133  14.688   7.831  10.590
41713W        W 3134  34.028  32.500  13.809
41714W        W 3135   5.725   2.783  11.984
41715W        W 3136   6.852   8.773   4.133
41716W        W 3137  31.151  17.153   4.284
41717W        W 3138   1.250  37.883  11.030
41718W        W 3139  36.558  15.173  11.006
41719W        W 3140  29.623  26.985  13.930
41720W        W 3141  21.071  25.686   5.101
41721W        W 3142  40.450   5.252   1.314
41722W        W 3143  43.801  41.858  12.911
41723W        W 3144  15.821  27.538  10.459
41724W        W 3145   0.433  21.638   0.928
41725W        W 3146   5.215  22.082  12.996
41726W        W 3147   2.848   6.882  11.548
41727W        W 3148  33.912  28.018  11.530
41728W        W 3149   8.354  30.038   2.793
41729W        W 3150  36.063   5.206   3.799
41730W        W 3151   7.288  34.594   1.807
41731W        W 3152  29.171  36.385  11.905
41732W        W 3153  43.501  16.574  10.477
41733W        W 3154  26.155  39.906   0.481
41734W        W 3155  41.508  16.152  11.401
41735W        W 3156  25.600  38.846  14.467
41736W        W 3157  20.207  10.796  10.407
41737W        W 3158  22.189   1.257  10.973
41738W        W 3159  17.664  34.864  14.942
41739W        W 3160  36.966  29.562   2.793
41740W        W 3161   3.753  15.240   4.759
41741W        W 3162   3.806  16.762  12.922
41742W        W 3163  43.789  30.947   2.348
41743W        W 3164   9.301  34.487  11.071
41744W        W 3165   3.295   8.290   0.476
41745W        W 3166  35.044  12.358   2.198
41746W        W 3167  22.235  25.147  11.438
41747W        W 3168  39.552  21.204   2.208
41748W        W 3169  41.488  38.510   2.386
41749W        W 3170  27.138  18.154  10.435
41750W        W 3171  43.930  38.076  11.424
41751W        W 3172   4.934  22.216  10.121
41752W        W 3173  13.310  34.077   1.374
41753W        W 3174   1.466  22.577  13.811
41754W        W 3175  21.744   2.262  10.569
41755W        W 3176  30.076  43.881  11.029
41756W        W 3177  14.704  18.142  10.939
41757W        W 3178  24.094  23.666   3.688
41758W        W 3179  28.547  19.285  12.900
41759W        W 3180  18.110  13.750  14.003
41760W        W 3181   5.901  27.989   0.333
41761W        W 3182  43.382  14.197  13.508
41762W        W 3183  35.463  35.573  13.058
41763W        W 3184  11.142   9.228   3.174
41764W        W 3185  40.977  28.440   4.148
41765W        W 3186  24.494  19.125  14.848
41766W        W 3187  20.541  10.722   1.730
41767W        W 3188  39.024  31.150   0.821
41768W        W 3189  33.037  17.256  11.956
41769W        W 3190  42.304  20.129   0.749
41770W        W 3191   2.309  44.982  13.956
41771W        W 3192  41.998  12.754   0.835
41772W        W 3193   4.759  10.140   1.806
41773W        W 3194  33.109   5.294  11.549
41774W        W 3195  16.155   4.713   2.213
41775W        W 3196  19.777   5.810   4.232
41776W        W 3197  26.019  23.084  13.055
41777W        W 3198  18.562  10.261   2.684
41778W        W 3199  32.541  40.454   1.935
41779W        W 3200   7.818   7.678   0.483
41780W        W 3201   6.395  32.135  10.915
41781W        W 3202  37.041  30.465  10.922
41782W        W 3203  26.700  11.777  13.392
41783W        W 3204   9.705  12.837  14.900
41784W        W 3205  41.449  28.137   0.920
41785W        W 3206  27.641  42.943  12.039
41786W        W 3207   9.324   7.667  12.438
41787W        W 3208  14.618  32.480   0.388
41788W        W 3209  39.383  41.311   4.772
41789W        W 3210  17.645  39.351  11.605
41790W        W 3211   2.860  12.224   1.432
41791W        W 3212   3.393   1.877   0.276
41792W        W 3213   9.875  41.421  13.870
41793W        W 3214   0.797  19.072  13.012
41794W        W 3215   0.348  41.455   4.797
41795W        W 3216  40.435  15.731   4.674
41796W        W 3217  26.122   9.371   2.345
41797W        W 3218  19.125  41.322   1.793
41798W        W 3219  11.279  15.598  11.424
41799W        W 3220  14.328   2.957  14.279
41800W        W 3221  37.404  19.247   1.811
41801W        W 3222  14.604  33.095   2.341
41802W        W 3223   0.373  40.438  14.988
41803W        W 3224  14.117  33.446  14.803
41804W        W 3225  42.503  38.521  12.391
41805W        W 3226  34.895  12.170  12.095
41806W        W 3227  22.692  22.595  11.574
41807W        W 3228   0.885  20.592  12.521
41808W        W 3229  23.127  26.048  10.503
41809W        W 3230  19.620  15.162   3.834
41810W        W 3231  41.378  36.471  10.942
41811W        W 3232  26.629   9.834   3.764
41812W        W 3233  24.602  12.796  10.962
41813W        W 3234  42.481  28.608   4.134
41814W        W 3235  16.312  19.560   5.165
41815W        W 3236   9.368  29.484  14.992
41816W        W 3237  39.037  26.591  11.530
41817W        W 3238  24.648   1.276  14.793
41818W        W 3239  32.036   0.779   2.332
41819W        W 3240  35.990  22.021   0.483
41820W        W 3241  11.671  22.069   2.419
41821W        W 3242   8.329  26.044   0.319
41822W        W 3243  37.354  23.164  10.899
41823W        W 3244   4.414  29.629  14.948
41824W        W 3245  14.282  39.882   4.820
41825W        W 3246   9.769  34.587   4.623
41826W        W 3247  34.532  30.044   2.178
41827W        W 3248  16.194  13.632   3.833
41828W        W 3249  40.959   3.326   1.727
41829W        W 3250  16.316  26.677  10.604
41830W        W 3251  29.155  43.939  10.467
41831W        W 3252   0.836  36.480  12.886
41832W        W 3253  36.534  34.436  12.523
41833W        W 3254  26.995   4.297   4.129
41834W        W 3255  11.343   1.266   4.828
41835W        W 3256  44.396  36.012   2.357
41836W        W 3257  14.311   5.752   2.852
41837W        W 3258  13.758  37.414   3.278
41838W        W 3259  33.997  37.383   0.324
41839W        W 3260   4.302  24.649  14.400
41840W        W 3261  20.717   8.754  12.836
41841W        W 3262  33.131  38.481   0.842
41842W        W 3263  31.997  22.062   2.805
41843W        W 3264   9.777  34.608   0.966
41844W        W 3265  25.045  15.219  12.436
41845W        W 3266  20.048  19.201  14.427
41846W        W 3267  14.264  16.258   3.364
41847W        W 3268  19.132  43.380   1.816
41848W        W 3269  26.994  11.763   4.296
41849W        W 3270   5.821   4.884   4.707
41850W        W 3271  33.034  22.030   3.270
41851W        W 3272   1.325  35.065   4.638
41852W        W 3273  44.295  19.119   3.181
41853W        W 3274  36.075  33.007  13.433
41854W        W 3275   2.826  39.382  14.760
41855W        W 3276  26.105  39.865   4.264
41856W        W 3277  36.014  19.153  10.561
41857W        W 3278  36.524  14.220  11.894
41858W        W 3279  35.964  15.244  12.412
41859W        W 3280  24.017  13.658  14.856
41860W        W 3281  21.747  27.156  13.467
41861W        W 3282  25.549  11.868  12.366
41862W        W 3283  10.361   7.337   0.421
41863W        W 3284  42.386   3.218   0.469
41864W        W 3285  37.479  41.483  14.348
41865W        W 3286  44.332  27.515  12.839
41866W        W 3287  30.135  29.110   4.701
41867W        W 3288  12.733  40.447  14.023
41868W        W 3289   2.453  15.121   2.892
41869W        W 3290  36.422  23.513   3.262
41870W        W 3291  12.688   4.849   1.745
41871W        W 3292  29.113  24.541   3.262
41872W        W 3293  40.831  37.966  12.391
41873W        W 3294  31.971  44.392   3.281
41874W        W 3295  18.574   7.719  11.021
41875W        W 3296  20.178   0.489  14.830
41876W        W 3297  15.263   0.779  13.522
41877W        W 3298  10.731   1.934   1.928
41878W        W 3299  37.352  20.189   0.478
41879W        W 3300  43.493  10.314  13.851
41880W        W 3301  20.738  12.632   1.701
41881W        W 3302  31.639  23.547  11.884
41882W        W 3303   9.377   6.226   9.978
41883W        W 3304   7.843  14.746   4.317
41884W        W 3305  35.009  11.242   0.747
41885W        W 3306  31.115  30.621   1.428
41886W        W 3307   5.303  10.679   3.681
41887W        W 3308   4.928  33.087  12.062
41888W        W 3309  26.671  17.642   4.765
41889W        W 3310  34.381   0.387   0.420
41890W        W 3311   1.241  15.714  14.301
41891W        W 3312  39.991   7.851   2.337
41892W        W 3313  39.368  21.700  12.411
41893W        W 3314   0.890  37.541  11.473
41894W        W 3315  28.502  40.400  14.977
41895W        W 3316  32.498  27.574   4.795
41896W        W 3317  26.591  38.849  13.926
41897W        W 3318  44.759  20.140  10.446
41898W        W 3319   8.380   1.785  11.991
41899W        W 3320  25.540  38.869   2.377
41900W        W 3321  12.641  32.484   3.756
41901W        W 3322  41.301  28.977   4.637
41902W        W 3323  34.913  11.818   0.459
41903W        W 3324   2.854  43.405  14.772
41904W        W 3325  11.832  36.084   4.169
41905W        W 3326  21.017  43.471  14.332
41906W        W 3327  10.326  17.236   5.319
41907W        W 3328  22.133  26.061   0.851
41908W        W 3329   7.357  30.602  11.128
41909W        W 3330   0.424  42.021   3.782
41910W        W 3331  26.492  44.348   1.722
41911W        W 3332  18.159  36.453   1.246
41912W        W 3333  21.246  31.482   4.652
41913W        W 3334  27.656  26.463  12.446
41914W        W 3335  20.103   8.214   1.707
41915W        W 3336  44.436   4.268  14.942
41916W        W 3337  41.524   6.357   2.686
41917W        W 3338  25.128   5.831  11.472
41918W        W 3339  35.879  34.112  13.459
41919W        W 3340  19.621  12.725   0.377
41920W        W 3341  18.205  13.786   0.873
41921W        W 3342   5.223  21.725  12.070
41922W        W 3343  27.609  25.033  13.509
41923W        W 3344  17.234  36.088   1.382
41924W        W 3345  10.840   1.869   0.845
41925W        W 3346   4.919   7.275  14.810
41926W        W 3347  20.168  25.070  11.500
41927W        W 3348  10.653   0.935   0.323
41928W        W 3349  17.589  38.928  13.535
41929W        W 3350  20.547  32.400  11.923
41930W        W 3351  32.974  33.593   2.397
41931W        W 3352  34.390  24.661   3.319
41932W        W 3353  28.590  20.699   3.378
41933W        W 3354   6.757  28.010   3.195
41934W        W 3355  10.318   7.368   2.792
41935W        W 3356  35.108  42.998  12.086
41936W        W 3357  41.340  38.847   3.813
41937W        W 3358   0.396  18.073   3.766
41938W        W 3359  24.023  17.067   0.789
41939W        W 3360   0.467  19.272  14.908
41940W        W 3361  22.575  25.519  11.509
41941W        W 3362  13.615  44.483  13.481
41942W        W 3363  41.892  26.186  11.492
41943W        W 3364  32.909  44.799  14.914
41944W        W 3365  26.107  37.935  10.543
41945W        W 3366  24.116  24.220  12.444
41946W        W 3367  24.026  10.263   3.781
41947W        W 3368   1.278  42.018  11.564
41948W        W 3369   5.912  26.655   0.880
41949W        W 3370  21.025  18.680  12.538
41950W        W 3371  40.025  23.617   3.362
41951W        W 3372   3.944  11.304  14.466
41952W        W 3373  32.995  22.736   2.864
41953W        W 3374  29.065  27.530   0.249
41954W        W 3375  30.554  21.718  14.996
41955W        W 3376  12.831   8.766   3.751
41956W        W 3377  37.337  29.641   4.790
41957W        W 3378   2.929  10.794  11.468
41958W        W 3379   9.816  29.978  11.910
41959W        W 3380   0.903  42.970  11.098
41960W        W 3381  33.056   1.272  12.086
41961W        W 3382   6.860  44.430   3.632
41962W        W 3383  35.463  29.541  12.016
41963W        W 3384  44.840  19.244  12.478
41964W        W 3385  26.555  31.646   1.443
41965W        W 3386  31.922  14.109  12.883
41966W        W 3387  23.736  25.663  12.576
41967W        W 3388  23.517   1.438  11.986
41968W        W 3389  28.508   9.713  11.957
41969W        W 3390  25.059  13.175  11.590
41970W        W 3391  33.589  32.485   3.326
41971W        W 3392   8.250   9.673   4.685
41972W        W 3393  42.435  12.852   4.275
41973W        W 3394  40.392   6.807   3.653
41974W        W 3395  41.867  12.762  12.015
41975W        W 3396  11.752  35.067   5.099
41976W        W 3397  19.587  27.112  13.440
41977W        W 3398  23.036   6.736   2.892
41978W        W 3399  21.590  31.402  13.830
41979W        W 3400  35.965  30.074  14.921
41980W        W 3401  35.093  44.388   4.747
41981W        W 3402   4.426  21.572  11.462
41982W        W 3403  14.145  36.866   4.746
41983W        W 3404  21.175  17.140  11.111
41984W        W 3405  34.071  29.453  10.600
41985W        W 3406  44.819  26.175  10.600
41986W        W 3407  34.943   8.659   2.371
41987W        W 3408  26.107  21.609   2.777
41988W        W 3409  31.604  18.167   2.236
41989W        W 3410  18.253  14.289  13.843
41990W        W 3411  32.618  22.678   4.283
41991W        W 3412  21.124  28.954  12.580
41992W        W 3413  16.685  11.173   2.396
41993W        W 3414  34.081  27.446  13.546
41994W        W 3415  15.781  42.290   1.791
41995W        W 3416  19.105  21.530  12.498
41996W        W 3417   1.370  13.772  14.970
41997W        W 3418  44.931  27.169  11.899
41998W        W 3419  22.071  19.204   1.311
41999W        W 3420   8.840  34.095  13.447
42000W        W 3421  38.395  33.900   1.800
42001W        W 3422  27.056  40.869   0.379
42002W        W 3423  37.002  37.008   3.297
42003W        W 3424  43.339  35.052  14.417
42004W        W 3425  16.163  33.615  14.499
42005W        W 3426   8.358  40.048   5.234
42006W        W 3427   2.956   4.280  14.299
42007W        W 3428  11.262  32.488  12.484
42008W        W 3429  19.082  42.931  11.459
42009W        W 3430  29.520  19.227   2.811
42010W        W 3431  36.478   8.383   1.269
42011W        W 3432  34.475  32.544   4.730
42012W        W 3433   6.854   3.888   4.652
42013W        W 3434  40.493  28.495  13.022
42014W        W 3435  21.719  23.660  13.807
42015W        W 3436  31.508   1.300   4.669
42016W        W 3437  36.501  21.641   4.260
42017W        W 3438  40.933  38.531  14.458
42018W        W 3439   5.854   0.356   4.666
42019W        W 3440   3.404  17.272  12.501
42020W        W 3441   8.736  28.065  12.561
42021W        W 3442  28.132  44.957  14.775
42022W        W 3443  32.548  28.594  13.026
42023W        W 3444   9.233  25.633  11.111
42024W        W 3445  24.080  32.469  12.949
42025W        W 3446  43.497  40.843   4.256
42026W        W 3447  39.992  11.823   9.446
42027W        W 3448   6.368  17.667  11.053
42028W        W 3449  44.936  44.451  12.857
42029W        W 3450  29.128  41.312   4.618
42030W        W 3451  30.033   5.924  14.783
42031W        W 3452  13.176   2.792  13.009
42032W        W 3453  23.168  26.138   2.354
42033W        W 3454  40.050   7.843   3.190
42034W        W 3455  37.337  21.646  12.370
42035W        W 3456  13.623  28.127  12.002
42036W        W 3457   5.198  20.677   2.342
42037W        W 3458   3.228  27.528  11.055
42038W        W 3459  37.995   5.226   0.280
42039W        W 3460  20.081  35.913  10.586
42040W        W 3461  42.777  11.811   3.370
42041W        W 3462  13.219   0.852  12.069
42042W        W 3463  35.405   5.750   5.218
42043W        W 3464  28.590  42.482   2.381
42044W        W 3465  19.084  42.874  13.818
42045W        W 3466  17.707  17.697   2.756
42046W        W 3467  39.941  43.827  11.098
42047W        W 3468  10.256  14.305   1.363
42048W        W 3469   4.823  35.515   1.431
42049W        W 3470  30.117  28.026   2.267
42050W        W 3471  42.992  23.219  11.596
42051W        W 3472  41.026  21.046  11.448
42052W        W 3473  11.808  23.536   3.819
42053W        W 3474  40.463  12.180  13.479
42054W        W 3475  38.891  32.118   2.194
42055W        W 3476  42.415   9.782  10.426
42056W        W 3477   0.834   9.815   0.470
42057W        W 3478   5.268   0.840   1.899
42058W        W 3479  38.442  16.202   3.661
42059W        W 3480  15.624  44.325   0.252
42060W        W 3481  12.662  23.547  14.916
42061W        W 3482  38.558  26.510  13.042
42062W        W 3483  17.244  29.657  12.572
42063W        W 3484  36.378  11.213   1.429
42064W        W 3485  44.328  41.294   0.437
42065W        W 3486  25.080  24.161  13.407
42066W        W 3487  20.098  38.399  12.367
42067W        W 3488  13.205  20.764   1.926
42068W        W 3489  21.622  38.487   4.838
42069W        W 3490   4.896   0.491  12.536
42070W        W 3491  11.188   5.209  12.419
42071W        W 3492  20.588  11.235  13.945
42072W        W 3493  32.579  42.029   4.830
42073W        W 3494  43.398   7.872   0.293
42074W        W 3495  32.523   4.864  13.508
42075W        W 3496  22.137  32.476   0.762
42076W        W 3497  43.971   2.471  11.128
42077W        W 3498   2.774  10.789  14.505
42078W        W 3499  44.789  34.983   0.388
42079W        W 3500  34.498  40.887  12.969
42080W        W 3501  23.698  18.060  14.805
42081W        W 3502  15.106  19.214   0.907
42082W        W 3503  37.355  21.634  11.092
42083W        W 3504  18.626  34.889   2.380
42084W        W 3505  11.788  22.188  14.313
42085W        W 3506  42.453  16.715  12.903
42086W        W 3507   1.319  15.637  11.491
42087W        W 3508  39.812  43.381   4.817
42088W        W 3509  27.672  10.871   0.283
42089W        W 3510  29.617   6.738   2.418
42090W        W 3511   3.806  36.511  14.461
42091W        W 3512  39.353   3.304   1.931
42092W        W 3513  24.007  33.879   3.826
42093W        W 3514  21.037   3.875  13.923
42094W        W 3515  14.288  16.175   2.766
42095W        W 3516  23.028  39.057  13.932
42096W        W 3517  38.904  44.435  14.384
42097W        W 3518  22.606   9.799  12.496
42098W        W 3519   4.236  28.470  14.983
42099W        W 3520  12.767  13.230  11.934
42100W        W 3521  28.185  34.096   2.227
42101W        W 3522  39.391  34.871  12.908
42102W        W 3523   2.965  30.976  13.953
42103W        W 3524  28.000  12.625  10.007
42104W        W 3525  15.232  18.646  12.427
42105W        W 3526  12.291   0.422   1.807
42106W        W 3527  14.774  32.097  11.873
42107W        W 3528   0.470  38.966  13.495
42108W        W 3529  14.267  43.495  10.541
42109W        W 3530  42.922   4.425   4.199
42110W        W 3531   8.868  15.763  11.069
42111W        W 3532  15.668  43.966  14.360
42112W        W 3533  17.095  33.950   0.401
42113W        W 3534   7.830  20.661  14.958
42114W        W 3535  15.578  41.432   4.152
42115W        W 3536  36.024   6.818   1.269
42116W        W 3537   1.827   6.379  14.407
42117W        W 3538  23.123   5.770  12.024
42118W        W 3539  24.589  37.408   1.720
42119W        W 3540  27.951  30.979  13.879
42120W        W 3541  30.983  27.155  12.985
42121W        W 3542  39.853  34.876  13.363
42122W        W 3543  34.093  10.218  13.912
42123W        W 3544  11.280  44.943   2.741
42124W        W 3545  12.797  40.339  10.910
42125W        W 3546   9.221  43.392  10.605
42126W        W 3547  19.091   4.281  12.041
42127W        W 3548   6.706  25.983  12.551
42128W        W 3549  17.283   0.834   0.481
42129W        W 3550  21.653  19.217   3.171
42130W        W 3551  26.693  21.669   0.344
42131W        W 3552   6.716  37.547  12.380
42132W        W 3553  21.748  11.821   2.286
42133W        W 3554  21.525   0.456  14.823
42134W        W 3555  17.610  26.053  10.545
42135W        W 3556  12.817  15.272  10.928
42136W        W 3557  33.610  14.817   1.336
42137W        W 3558  24.505  37.430   3.692
42138W        W 3559  15.601  40.020   1.932
42139W        W 3560  31.555   5.733  11.022
42140W        W 3561  32.967  18.775   0.424
42141W        W 3562  43.295  15.204  11.970
42142W        W 3563  21.560  32.016  13.459
42143W        W 3564  29.948  27.995   4.196
42144W        W 3565  36.391  34.462   3.757
42145W        W 3566   0.338  44.833   4.191
42146W        W 3567   9.204  14.777  14.287
42147W        W 3568  13.185  12.286  11.372
42148W        W 3569  11.309  16.303  11.471
42149W        W 3570  16.747  14.622  13.530
42150W        W 3571   2.871  40.924   0.392
42151W        W 3572  37.416  14.643   1.406
42152W        W 3573  15.713   5.865   3.809
42153W        W 3574  31.589  22.700   4.618
42154W        W 3575  22.245  28.657  11.416
42155W        W 3576   9.835  41.502   3.747
42156W        W 3577  14.722  36.540   4.133
42157W        W 3578  19.669  32.098  12.091
42158W        W 3579   1.919  24.502   0.367
42159W        W 3580  15.188  32.126   4.244
42160W        W 3581   6.781  18.118  11.930
42161W        W 3582  43.984  29.929  11.404
42162W        W 3583  24.114   5.345   1.337
42163W        W 3584  36.927  41.886   1.324
42164W        W 3585  40.906   5.324  10.500
42165W        W 3586   8.761  41.886  13.932
42166W        W 3587  26.665  40.436   0.948
42167W        W 3588  16.805   0.860   3.282
42168W        W 3589  19.683  10.257  12.389
42169W        W 3590   2.388  29.008  12.833
42170W        W 3591  22.222   2.731  14.307
42171W        W 3592  31.981  31.953   3.276
42172W        W 3593  33.992  17.660   3.160
42173W        W 3594  23.495  34.948  13.956
42174W        W 3595  34.076  30.099  14.876
42175W        W 3596  38.437  27.030   1.354
42176W        W 3597  27.493  36.046  11.465
42177W        W 3598  38.336  29.017  10.578
42178W        W 3599  38.392  23.007  10.945
42179W        W 3600  13.205  31.439  11.966
42180W        W 3601  32.102  44.425  14.761
42181W        W 3602  43.461  25.601  13.802
42182W        W 3603  40.967  28.537  10.506
42183W        W 3604  19.682  35.005   0.805
42184W        W 3605  39.833  26.476   1.836
42185W        W 3606  10.261   7.909   0.736
42186W        W 3607   7.853   4.320  14.920
42187W        W 3608  17.642   9.851   4.275
42188W        W 3609  19.246  42.893   3.154
42189W        W 3610  41.986   5.299  11.610
42190W        W 3611  40.874   3.747   2.246
42191W        W 3612  22.663   0.950   2.698
42192W        W 3613  38.847  42.360   0.836
42193W        W 3614  11.810  10.680  12.855
42194W        W 3615   1.812  20.744   0.812
42195W        W 3616  17.235  16.091  10.447
42196W        W 3617  34.046  44.277  10.019
42197W        W 3618   4.842  41.444  12.020
42198W        W 3619   8.356  13.110  13.009
42199W        W 3620  29.494  16.593   4.663
42200W        W 3621  24.129  39.931  13.938
42201W        W 3622  44.330   5.772   0.278
42202W        W 3623  44.324   5.893   4.656
42203W        W 3624   3.858  16.809  11.931
42204W        W 3625  14.678  18.231   0.877
42205W        W 3626  32.992  13.677  10.068
42206W        W 3627   5.245  10.826   3.224
42207W        W 3628  39.403  13.141  11.577
42208W        W 3629  22.157  44.305  14.895
42209W        W 3630  12.649  40.420  14.373
42210W        W 3631  27.947   4.334   2.369
42211W        W 3632  24.182  40.458   5.085
42212W        W 3633  42.939   4.347  14.423
42213W        W 3634   2.856  31.995  10.603
42214W        W 3635  21.513  36.864   4.342
42215W        W 3636  17.660  38.439  10.992
42216W        W 3637  35.085  17.649   4.336
42217W        W 3638  14.659  17.275   1.291
42218W        W 3639  13.646   2.310  13.509
42219W        W 3640  11.134  35.525   1.417
42220W        W 3641  15.799   8.241  12.054
42221W        W 3642  16.580   7.734   4.199
42222W        W 3643   3.938   9.856   1.855
42223W        W 3644  13.713  17.773  10.596
42224W        W 3645  41.390  41.937   1.836
42225W        W 3646  29.065   1.472   0.304
42226W        W 3647  19.147  21.587  14.362
42227W        W 3648  10.656   1.741  10.565
42228W        W 3649   0.262  14.321   2.698
42229W        W 3650   9.644  41.496   2.901
42230W        W 3651   6.801  42.784  14.495
42231W        W 3652   7.295  34.056  13.489
42232W        W 3653   3.759  42.805   0.290
42233W        W 3654   5.750  25.650  10.464
42234W        W 3655  35.103  33.504   4.280
42235W        W 3656   1.870  28.028   2.686
42236W        W 3657   7.689  16.744   3.289
42237W        W 3658   5.352  27.170   5.772
42238W        W 3659  30.485  16.201  13.439
42239W        W 3660  11.668  31.435   1.306
42240W        W 3661  21.605  12.224   4.279
42241W        W 3662  40.872  12.813   0.422
42242W        W 3663  39.424  42.430   4.189
42243W        W 3664  26.984   4.744   1.849
42244W        W 3665  25.975  10.655  14.384
42245W        W 3666  23.618  15.229   0.329
42246W        W 3667  18.152  28.673   1.383
42247W        W 3668  25.194  33.414   0.764
42248W        W 3669  22.146  25.705  12.853
42249W        W 3670   2.458  24.554   4.188
42250W        W 3671  13.603   0.757  13.492
42251W        W 3672  26.971  33.494   3.260
42252W        W 3673  21.511  28.635  14.447
42253W        W 3674   5.901  36.872  14.382
42254W        W 3675   2.273   7.358  12.561
42255W        W 3676   5.378  23.215  14.895
42256W        W 3677  36.469  12.319   3.270
42257W        W 3678   3.332  28.651  10.894
42258W        W 3679  21.726  36.843   1.827
42259W        W 3680  22.610  37.564   0.865
42260W        W 3681  25.527  41.294  12.089
42261W        W 3682  27.516  19.184   4.326
42262W        W 3683  18.171  20.677  14.408
42263W        W 3684  21.126   8.819   1.271
42264W        W 3685  40.875  14.096  12.378
42265W        W 3686  11.182  34.613  11.064
42266W        W 3687  43.856   4.710   4.784
42267W        W 3688  32.543  24.215   2.777
42268W        W 3689  35.854  40.342   2.672
42269W        W 3690  29.656  20.033   2.412
42270W        W 3691   2.328  30.108  10.107
42271W        W 3692  34.934  37.930  12.870
42272W        W 3693  22.071  11.206   1.808
42273W        W 3694  21.087  19.211   2.832
42274W        W 3695  12.338   8.335   3.655
42275W        W 3696  29.578  10.147  13.478
42276W        W 3697  23.220  35.870  12.508
42277W        W 3698  11.732  44.282  10.456
42278W        W 3699  38.501  14.597  13.009
42279W        W 3700   0.456  39.509   4.219
42280W        W 3701  43.473  10.243  13.450
42281W        W 3702  44.273  38.569  13.349
42282W        W 3703  26.168  42.289   1.718
42283W        W 3704  12.124  39.054   4.726
42284W        W 3705  17.693  39.328   3.384
42285W        W 3706   2.916  16.108   2.688
42286W        W 3707  23.233  35.982  11.106
42287W        W 3708   1.808   4.395   4.757
42288W        W 3709  14.318  17.105  14.422
42289W        W 3710   1.316  19.631  13.880
42290W        W 3711  34.451  15.628  10.078
42291W        W 3712  16.222   2.934  13.360
42292W        W 3713  21.213   9.268   1.382
42293W        W 3714  36.855  39.833  12.881
42294W        W 3715  38.491  16.250  11.569
42295W        W 3716  42.517  11.204  11.034
42296W        W 3717  18.118  33.475  14.806
42297W        W 3718  24.036  18.070   1.258
42298W        W 3719  41.358  38.861   2.308
42299W        W 3720  37.861  26.647  12.511
42300W        W 3721  39.547  11.732   0.752
42301W        W 3722   5.720   3.263   2.850
42302W        W 3723  40.503  39.874   1.293
42303W        W 3724   8.757  42.819   0.812
42304W        W 3725  19.046  18.718   2.751
42305W        W 3726  26.470   0.432  10.952
42306W        W 3727  16.790  44.822   3.203
42307W        W 3728  10.644   8.783   3.378
42308W        W 3729  12.832  43.352   3.215
42309W        W 3730  41.504  33.056  10.598
42310W        W 3731  17.665  10.246   9.953
42311W        W 3732  16.711  23.646   1.772
42312W        W 3733  28.455  43.803  12.836
42313W        W 3734  20.197  30.042   0.850
42314W        W 3735   7.307  25.983   4.721
42315W        W 3736  22.539  43.908   4.643
42316W        W 3737  21.233  21.572   1.298
42317W        W 3738  39.992  37.876   1.444
42318W        W 3739   2.442  32.053  14.455
42319W        W 3740  18.608  38.845  13.024
42320W        W 3741   2.927  21.220  14.386
42321W        W 3742  24.515  25.043   1.887
42322W        W 3743  32.529  43.457   0.876
42323W        W 3744  36.031  23.236   1.259
42324W        W 3745   5.747  21.113  13.004
42325W        W 3746  11.662  13.134  14.355
42326W        W 3747  31.942  21.589   3.798
42327W        W 3748  32.946  11.833  14.296
42328W        W 3749  43.379  11.261  11.963
42329W        W 3750  35.426  11.694  13.353
42330W        W 3751  36.894  28.527  14.434
42331W        W 3752  33.432  24.109  13.511
42332W        W 3753   8.720  30.489   0.356
42333W        W 3754  43.978  31.131  12.007
42334W        W 3755  14.117  42.886   3.263
42335W        W 3756  13.280  25.188   4.300
42336W        W 3757  25.028  26.193   1.269
42337W        W 3758  44.978  35.037   3.247
42338W        W 3759  19.128  19.598  12.963
42339W        W 3760  14.613  42.911   4.168
42340W        W 3761  18.228  44.961  13.991
42341W        W 3762  22.662  23.586   1.931
42342W        W 3763  36.951  43.937  11.417
42343W        W 3764   2.370  37.927   4.799
42344W        W 3765  43.311  42.498  11.412
42345W        W 3766  21.606  38.978   4.239
42346W        W 3767  36.361  31.050   1.440
42347W        W 3768  33.068  16.793   3.856
42348W        W 3769  37.064  19.651  11.547
42349W        W 3770   6.284  21.162   5.201
42350W        W 3771  14.826   5.852  11.985
42351W        W 3772  30.148   4.371   1.874
42352W        W 3773  24.643  16.185   4.217
42353W        W 3774  18.076   0.323  14.331
42354W        W 3775  12.342   2.820   3.808
42355W        W 3776   6.393  31.046  12.861
42356W        W 3777  13.780  25.177  13.872
42357W        W 3778   3.238   3.320   0.443
42358W        W 3779  32.518   2.755   0.768
42359W        W 3780  41.786  10.782  12.884
42360W        W 3781  41.953   7.903   4.190
42361W        W 3782   2.424   6.846  11.079
42362W        W 3783   2.458  42.969  12.410
42363W        W 3784   0.484  42.360   2.703
42364W        W 3785   7.366  19.719   4.675
42365W        W 3786  27.648  10.310   4.725
42366W        W 3787   7.172  42.506  12.000
42367W        W 3788   8.247   4.905  12.398
42368W        W 3789  16.695  14.312   2.674
42369W        W 3790  20.185  37.018   0.366
42370W        W 3791  17.714  29.113  14.787
42371W        W 3792  21.049  34.600  11.432
42372W        W 3793  19.179   8.295  14.913
42373W        W 3794   2.837  11.234  11.983
42374W        W 3795   4.816  34.582  14.316
42375W        W 3796   4.699   1.456  14.277
42376W        W 3797  26.570  28.656   4.828
42377W        W 3798  14.253   2.741   3.176
42378W        W 3799  29.956   1.760  13.796
42379W        W 3800  35.568  33.985  11.030
42380W        W 3801  10.329  17.295  14.339
42381W        W 3802  31.907  16.298   1.427
42382W        W 3803  32.566  34.904  11.598
42383W        W 3804   7.262  30.516  13.905
42384W        W 3805  31.951  42.972  10.987
42385W        W 3806  31.947  28.006  13.328
42386W        W 3807  29.068  36.049  14.031
42387W        W 3808  26.474  10.806  14.793
42388W        W 3809  41.318   4.376  12.050
42389W        W 3810  19.683  20.130  13.444
42390W        W 3811  34.947   5.220   0.458
42391W        W 3812   5.923  26.534  11.375
42392W        W 3813  33.487  10.254  14.478
42393W        W 3814   8.792   0.755   0.871
42394W        W 3815  44.830  42.795   3.205
42395W        W 3816  22.703  11.170   0.301
42396W        W 3817   4.305  24.704  14.019
42397W        W 3818  26.691  37.513   2.872
42398W        W 3819  20.226  43.273   1.428
42399W        W 3820  34.478  22.195  11.462
42400W        W 3821  18.724  28.091  10.575
42401W        W 3822  31.060  12.832  13.463
42402W        W 3823  33.943   5.696  13.314
42403W        W 3824  21.092  17.272   4.746
42404W        W 3825  11.763   4.372   4.330
42405W        W 3826  35.602  23.518   4.236
42406W        W 3827  20.119  28.550   3.825
42407W        W 3828  26.191   6.312   4.307
42408W        W 3829  19.635  26.601  13.535
42409W        W 3830  21.101  17.581   3.646
42410W        W 3831  22.040  11.751   0.282
42411W        W 3832  22.151  42.932  11.860
42412W        W 3833  32.912  17.183  10.433
42413W        W 3834   1.409  34.866  10.514
42414W        W 3835  30.943   6.688  14.362
42415W        W 3836  21.545   6.381  12.092
42416W        W 3837  14.337  19.125  12.549
42417W        W 3838  15.088  23.165  10.898
42418W        W 3839  12.808  20.538  10.593
42419W        W 3840   7.306  15.248   4.128
42420W        W 3841  40.481   8.819  11.071
42421W        W 3842  21.177  22.223   4.837
42422W        W 3843  11.843   2.260  10.508
42423W        W 3844  44.283  24.489   1.800
42424W        W 3845  17.726  43.464   2.295
42425W        W 3846  34.549  20.701  11.430
42426W        W 3847   8.862  41.905   0.816
42427W        W 3848   1.747  29.072   0.376
42428W        W 3849   9.300  37.837  11.948
42429W        W 3850  13.241   7.886  10.521
42430W        W 3851  34.104  12.667   3.252
42431W        W 3852  11.192  40.912  10.930
42432W        W 3853  29.057   0.904  14.353
42433W        W 3854  24.149  33.512   1.385
42434W        W 3855   4.213  17.123   0.738
42435W        W 3856   3.279   0.462   4.768
42436W        W 3857   7.880  35.861  13.014
42437W        W 3858  40.321  28.178  10.027
42438W        W 3859   7.278  28.474  14.950
42439W        W 3860  33.908   6.806  12.437
42440W        W 3861   4.929  26.578   4.755
42441W        W 3862  15.291  16.647  12.493
42442W        W 3863  20.580  30.154  13.032
42443W        W 3864  13.664   5.867  13.929
42444W        W 3865  24.646  23.054  14.437
42445W        W 3866   8.780  17.761   0.371
42446W        W 3867  41.433  36.525   3.765
42447W        W 3868   0.309   0.955   2.234
42448W        W 3869  38.956  33.534  10.912
42449W        W 3870  37.044  37.451  10.529
42450W        W 3871  41.513  44.310   2.259
42451W        W 3872   4.876  37.500  11.484
42452W        W 3873  36.488  24.053  10.413
42453W        W 3874  44.376  32.597   2.207
42454W        W 3875  40.880  41.506  12.557
42455W        W 3876  24.593  35.542  13.036
42456W        W 3877  25.104  35.065   2.414
42457W        W 3878   6.235  38.884   5.604
42458W        W 3879   3.767  28.476  14.284
42459W        W 3880   1.752  38.873  12.420
42460W        W 3881  25.001  18.777   0.944
42461W        W 3882   0.839  28.010   0.434
42462W        W 3883  30.552  36.561   3.761
42463W        W 3884  12.672  41.816  14.007
42464W        W 3885   3.803   0.333   1.296
42465W        W 3886  33.961  23.027  11.499
42466W        W 3887   0.879  27.001   3.674
42467W        W 3888  39.918   8.371  14.800
42468W        W 3889  14.695  34.948  11.065
42469W        W 3890  26.492  44.343   0.850
42470W        W 3891  42.365  41.527  13.927
42471W        W 3892  19.559  19.576  10.922
42472W        W 3893  12.353  31.523  14.866
42473W        W 3894   2.290  29.561  11.926
42474W        W 3895  41.352   7.876   1.824
42475W        W 3896  16.176  39.357  14.403
42476W        W 3897  16.694  24.721  11.931
42477W        W 3898  11.339  28.094  11.049
42478W        W 3899  10.270  35.950  12.489
42479W        W 3900  20.608  14.606  12.402
42480W        W 3901   0.896  12.707   3.290
42481W        W 3902   1.753  23.995   1.895
42482W        W 3903  20.042  22.113   0.287
42483W        W 3904  16.684  43.389  14.480
42484W        W 3905  15.191  13.111   0.958
42485W        W 3906  30.421  20.684   0.740
42486W        W 3907   0.454  26.685   1.408
42487W        W 3908   0.760  26.196  12.390
42488W        W 3909  33.509  12.118   1.328
42489W        W 3910  25.486   5.722   0.905
42490W        W 3911  15.777  27.025   4.229
42491W        W 3912  10.741  29.489   2.734
42492W        W 3913  13.300  33.490  12.010
42493W        W 3914   7.781  13.221  12.575
42494W        W 3915  22.083  44.379  14.442
42495W        W 3916   1.732   9.393  11.965
42496W        W 3917  16.273  31.579   0.426
42497W        W 3918  27.479  16.727  13.453
42498W        W 3919  37.964  23.162  14.975
42499W        W 3920  11.758  24.670  13.314
42500W        W 3921   4.867  24.051  13.949
42501W        W 3922  40.043  27.182   3.351
42502W        W 3923  27.028  13.647  12.082
42503W        W 3924  24.119  16.267  12.870
42504W        W 3925  11.627  20.094   2.238
42505W        W 3926  10.754  39.051   3.771
42506W        W 3927  10.704  32.566   2.785
42507W        W 3928  31.992  25.583  12.046
42508W        W 3929  13.258  15.252   0.760
42509W        W 3930   3.359  44.838   0.341
42510W        W 3931   0.802  14.639  11.920
42511W        W 3932  15.822  41.510   3.157
42512W        W 3933  38.976  29.482  13.548
42513W        W 3934  40.431  29.619  14.961
42514W        W 3935  24.136  34.956  12.884
42515W        W 3936   7.761  36.878  14.819
42516W        W 3937  31.416  39.962   1.901
42517W        W 3938  44.382  25.646   3.800
42518W        W 3939  23.541  22.653   0.747
42519W        W 3940   4.270  32.076   1.263
42520W        W 3941   2.871  15.784  11.009
42521W        W 3942   1.942  26.476  13.800
42522W        W 3943   2.317  18.588  12.340
42523W        W 3944   4.365  16.681  10.970
42524W        W 3945   6.746  43.966   4.820
42525W        W 3946  24.070   1.282  11.933
42526W        W 3947  26.486  11.637  13.821
42527W        W 3948  29.647   4.758  12.443
42528W        W 3949  38.458  22.055   1.860
42529W        W 3950  20.182  15.095  11.875
42530W        W 3951   0.393   0.317  11.061
42531W        W 3952  22.053   6.832  12.400
42532W        W 3953   0.909  10.301   3.254
42533W        W 3954  10.327  26.483  13.964
42534W        W 3955  39.525  15.297   4.143
42535W        W 3956  24.587  29.471  11.916
42536W        W 3957   9.727  28.088  12.995
42537W        W 3958  15.695  40.016  13.521
42538W        W 3959  36.964  34.975   1.395
42539W        W 3960  21.689  41.040   3.260
42540W        W 3961  26.169   7.719  11.511
42541W        W 3962   7.190  16.763  13.346
42542W        W 3963  44.773  35.592  12.075
42543W        W 3964   1.343  16.119  11.117
42544W        W 3965  17.065  13.845   4.621
42545W        W 3966   9.729   7.678   0.831
42546W        W 3967  39.007  25.068  14.906
42547W        W 3968  28.029  40.460   5.318
42548W        W 3969   4.764  14.207  12.057
42549W        W 3970  41.446  13.787   3.160
42550W        W 3971  33.491  36.866   5.132
42551W        W 3972   1.397  33.542  11.535
42552W        W 3973  19.743  17.645   3.663
42553W        W 3974   4.832  36.377  11.420
42554W        W 3975  16.096  42.522   3.735
42555W        W 3976  41.020  10.145   4.795
42556W        W 3977  25.115   2.261   2.704
42557W        W 3978  30.148  33.938  13.348
42558W        W 3979  33.047  36.567  12.367
42559W        W 3980  16.293  29.565  13.362
42560W        W 3981  39.845  25.139   2.374
42561W        W 3982  37.361  11.639  12.926
42562W        W 3983  44.344  44.936   2.722
42563W        W 3984  19.260   5.753   1.831
42564W        W 3985  39.824   8.771  11.400
42565W        W 3986  16.772   6.249   3.740
42566W        W 3987  36.997  25.476  14.913
42567W        W 3988   6.412  14.096   1.448
42568W        W 3989  41.013  11.245  14.803
42569W        W 3990  22.210  36.041   1.933
42570W        W 3991  32.100  37.472   4.161
42571W        W 3992  38.043  40.431   2.222
42572W        W 3993   6.743  32.535  14.460
42573W        W 3994  41.896  24.683   1.243
42574W        W 3995   7.799  13.819  13.012
42575W        W 3996  36.999  32.017   4.268
42576W        W 3997   5.853  32.458  13.864
42577W        W 3998   7.360   1.423   5.202
42578W        W 3999   9.327   1.369  11.933
42579W        W 4000   0.257  11.792   1.277
42580W        W 4001  42.815   2.378   2.237
42581W        W 4002  33.465  42.383   2.821
42582W        W 4003  13.760  37.411  12.848
42583W        W 4004  23.675  33.115   0.754
42584W        W 4005  24.091  23.172  13.402
42585W        W 4006   1.376   6.341  12.932
42586W        W 4007  23.069  17.266  13.962
42587W        W 4008  23.706   8.863  14.958
42588W        W 4009  18.789  21.568   0.885
42589W        W 4010   3.811  27.034   2.397
42590W        W 4011   5.259  10.869  13.865
42591W        W 4012  22.527  14.181  14.000
42592W        W 4013  11.759   0.786   1.896
42593W        W 4014  10.792  35.417  11.550
42594W        W 4015   9.681  33.989  13.520
42595W        W 4016  14.809  33.592  14.393
42596W        W 4017  44.315   3.779  11.943
42597W        W 4018  17.269  14.660  13.913
42598W        W 4019  34.031  30.561   1.784
42599W        W 4020  18.769   8.822   0.436
42600W        W 4021   8.777   7.203   2.871
42601W        W 4022  23.063  42.405   1.905
42602W        W 4023   5.412  42.488   4.772
42603W        W 4024   2.857  31.518  13.948
42604W        W 4025  16.202   3.366  12.356
42605W        W 4026  17.251  27.159  14.014
42606W        W 4027  23.155  29.950  11.963
42607W        W 4028  26.632  18.174  13.924
42608W        W 4029  15.771   6.863  10.438
42609W        W 4030  12.333  15.236   0.339
42610W        W 4031  16.644  43.823  12.899
42611W        W 4032  29.466  40.312   3.263
42612W        W 4033  43.514  32.973  14.989
42613W        W 4034  44.343  35.955  10.014
42614W        W 4035  18.080  36.370   3.247
42615W        W 4036  37.920  25.542   1.333
42616W        W 4037   9.657  38.570  11.013
42617W        W 4038   6.337  15.590  12.498
42618W        W 4039  14.327  34.949  11.966
42619W        W 4040  41.857  15.580   0.274
42620W        W 4041   7.823   5.207  13.471
42621W        W 4042  32.538  14.179   2.903
42622W        W 4043  18.085   1.856  10.618
42623W        W 4044  16.216   4.801   4.197
42624W        W 4045   3.831  42.985  11.477
42625W        W 4046   5.388  18.651  11.570
42626W        W 4047  30.476  32.503  11.062
42627W        W 4048  25.201  27.174  10.935
42628W        W 4049  21.082  33.581  12.389
42629W        W 4050  22.020  35.547   0.941
42630W        W 4051  43.960  23.653   2.218
42631W        W 4052  18.586  10.685  11.050
42632W        W 4053  31.072  39.457  12.032
42633W        W 4054  28.478  17.232  14.897
42634W        W 4055  15.173  20.166  11.437
42635W        W 4056  42.286   6.267   1.702
42636W        W 4057  18.160  14.788  12.883
42637W        W 4058  20.691  30.547   2.856
42638W        W 4059   9.297  24.998   0.956
42639W        W 4060   1.931   9.777   3.660
42640W        W 4061  42.008  12.684   2.790
42641W        W 4062  10.187  24.684  11.983
42642W        W 4063  17.166  17.064  13.867
42643W        W 4064  12.665  35.065  12.343
42644W        W 4065  32.989  24.155  11.511
42645W        W 4066  14.117  30.659   0.345
42646W        W 4067  22.505   4.780  12.988
42647W        W 4068   0.800  22.093  12.488
42648W        W 4069  32.940  29.583   3.376
42649W        W 4070  30.509  12.729  12.892
42650W        W 4071  40.315  16.572  11.047
42651W        W 4072  16.195  38.983   3.708
42652W        W 4073  41.014  13.348  12.871
42653W        W 4074  31.034  34.580  12.068
42654W        W 4075  42.818  21.082  12.030
42655W        W 4076  35.427  32.622  11.907
42656W        W 4077   8.697  21.139  12.949
42657W        W 4078  17.224   1.785  13.951
42658W        W 4079  28.934  22.098   1.427
42659W        W 4080  15.245  11.345   4.815
42660W        W 4081  35.369  16.110   2.879
42661W        W 4082  14.655  11.847  10.597
42662W        W 4083  31.109   1.341  11.386
42663W        W 4084  20.270  12.726  12.989
42664W        W 4085  24.575  12.675   1.341
42665W        W 4086  38.854  11.757   2.295
42666W        W 4087  35.080  19.154   0.440
42667W        W 4088   7.406   7.193  14.326
42668W        W 4089  25.502   0.259   0.359
42669W        W 4090  21.111  14.210   2.224
42670W        W 4091  12.658  21.210  13.016
42671W        W 4092   7.779   4.298   3.289
42672W        W 4093   8.260  18.664   3.362
42673W        W 4094  18.566  19.064  14.331
42674W        W 4095  31.953  44.422   3.784
42675W        W 4096   1.320  43.983  10.565
42676W        W 4097   3.804  13.342  13.428
42677W        W 4098  19.257  24.135   3.751
42678W        W 4099   4.439   7.872   2.255
42679W        W 4100   5.320  37.927  11.516
42680W        W 4101  11.277   1.868  13.827
42681W        W 4102  40.304  27.125  12.952
42682W        W 4103  20.063   5.194   3.370
42683W        W 4104  38.835   6.390  11.404
42684W        W 4105  35.559  32.430   4.164
42685W        W 4106  21.532  41.441   4.118
42686W        W 4107  16.813  37.498  10.556
42687W        W 4108  21.694  14.144   2.399
42688W        W 4109  26.181  39.879  13.895
42689W        W 4110  16.288  37.840   0.276
42690W        W 4111  12.686  44.002  11.946
42691W        W 4112  20.700  26.545  14.348
42692W        W 4113  35.591   9.340  10.548
42693W        W 4114  39.352  44.276   1.879
42694W        W 4115  40.427  17.253   3.239
42695W        W 4116   0.462  25.612  10.544
42696W        W 4117  38.508  31.056   3.736
42697W        W 4118  25.644  42.333   4.737
42698W        W 4119  33.586  23.693  10.423
42699W        W 4120  26.667  17.263  14.844
42700W        W 4121  22.635  17.118   3.755
42701W        W 4122  32.937  29.542  11.517
42702W        W 4123   0.305  15.107   0.795
42703W        W 4124  25.506  16.739   1.716
42704W        W 4125  37.405  19.039  11.110
42705W        W 4126  37.003  32.106  11.595
42706W        W 4127  36.513  36.941   4.663
42707W        W 4128  31.139  34.040  14.006
42708W        W 4129  36.409  28.001   4.180
42709W        W 4130  23.121  40.404   0.900
42710W        W 4131  13.753  22.067  11.023
42711W        W 4132  28.537  37.987  14.866
42712W        W 4133   0.442  15.102  10.913
42713W        W 4134   5.224  22.628  10.464
42714W        W 4135  22.234  25.687  14.463
42715W        W 4136  34.976   1.348   1.233
42716W        W 4137  18.275  40.804  10.409
42717W        W 4138  38.396   2.967  11.009
42718W        W 4139   2.931  11.237  13.446
42719W        W 4140   4.353  16.671  13.437
42720W        W 4141  28.579  20.601   4.603
42721W        W 4142  40.983  18.120  12.953
42722W        W 4143  29.091   8.359  14.023
42723W        W 4144  12.805  17.759   2.222
42724W        W 4145  31.514   8.670  10.556
42725W        W 4146  37.037   5.919  10.609
42726W        W 4147   4.396  28.046   0.784
42727W        W 4148  12.311   5.812  10.497
42728W        W 4149  39.908  13.164   3.685
42729W        W 4150  32.619  29.104   2.834
42730W        W 4151  20.225  27.611   1.229
42731W        W 4152   1.952  40.931   4.779
42732W        W 4153  13.723  40.387  10.631
42733W        W 4154   1.754  17.253  11.391
42734W        W 4155  11.165   5.380   2.874
42735W        W 4156   9.658  25.133   1.864
42736W        W 4157  29.551  22.559  10.493
42737W        W 4158  31.500  36.452   1.355
42738W        W 4159   3.819  13.106  14.491
42739W        W 4160  25.492  29.118   3.865
42740W        W 4161  34.938  38.561   3.187
42741W        W 4162   1.389  39.335  12.349
42742W        W 4163   2.426  28.674   1.250
42743W        W 4164   6.698   7.769  14.326
42744W        W 4165   8.794  22.108  10.508
42745W        W 4166  33.402   1.947  12.500
42746W        W 4167  38.879   1.314  10.509
42747W        W 4168  21.042  34.081  12.387
42748W        W 4169  23.219   6.280  13.401
42749W        W 4170  17.244   9.262   4.820
42750W        W 4171   2.733  38.990  10.535
42751W        W 4172  21.736   1.961   5.127
42752W        W 4173  27.021   2.885   0.751
42753W        W 4174  13.785  25.526  14.018
42754W        W 4175  21.633  13.739  13.542
42755W        W 4176   9.676  14.592  12.866
42756W        W 4177   2.893  26.975  13.799
42757W        W 4178  42.447  16.074  11.536
42758W        W 4179   2.458  14.270  14.028
42759W        W 4180  17.680   6.749  14.383
42760W        W 4181  31.128  13.638   0.449
42761W        W 4182   1.482  20.065  10.904
42762W        W 4183  17.599  32.936   2.394
42763W        W 4184   6.783  23.027   4.757
42764W        W 4185  23.015   2.404  12.096
42765W        W 4186  21.746  37.412  12.952
42766W        W 4187  21.559  20.739   0.823
42767W        W 4188  13.110  43.360   1.839
42768W        W 4189  26.589   0.851  10.996
42769W        W 4190   0.872  18.181   1.837
42770W        W 4191  18.556  15.212   0.352
42771W        W 4192  13.346  39.341  13.547
42772W        W 4193  18.615  24.112  12.480
42773W        W 4194  30.626  27.101  13.402
42774W        W 4195  38.926  12.159   1.266
42775W        W 4196  40.839  38.476   4.779
42776W        W 4197  18.236  22.092  14.965
42777W        W 4198   1.806  39.419   3.642
42778W        W 4199  30.505   0.868  12.926
42779W        W 4200  39.529  31.446  10.915
42780W        W 4201  37.449  19.674   0.429
42781W        W 4202  26.501  24.694  11.862
42782W        W 4203  31.097  11.247   2.201
42783W        W 4204  24.975  11.362  13.538
42784W        W 4205  40.485  10.140   0.738
42785W        W 4206   0.373   1.349   0.962
42786W        W 4207   1.954  35.996   3.372
42787W        W 4208  37.025  19.586   2.313
42788W        W 4209  29.643   1.835  11.379
42789W        W 4210  25.184  22.037   4.222
42790W        W 4211  23.732  32.925  11.422
42791W        W 4212  11.665  23.129  14.889
42792W        W 4213  10.862   2.849  13.329
42793W        W 4214   4.363  30.119  14.493
42794W        W 4215  14.599  12.840  12.352
42795W        W 4216   4.450  16.289  11.584
42796W        W 4217  31.946  17.178  12.549
42797W        W 4218  40.503  14.785   3.308
42798W        W 4219  31.637  17.073  12.941
42799W        W 4220  36.520  23.655   2.190
42800W        W 4221  29.600  14.711   1.783
42801W        W 4222   3.366  35.499  11.994
42802W        W 4223  16.141  25.584   0.866
42803W        W 4224  35.050  32.940   1.876
42804W        W 4225  22.647   7.341   5.779
42805W        W 4226  31.423  34.952   0.735
42806W        W 4227  20.158  44.869   1.763
42807W        W 4228  44.453  24.046  12.005
42808W        W 4229  14.773  36.348  11.406
42809W        W 4230  39.557  20.221  12.899
42810W        W 4231  21.107  38.979  12.041
42811W        W 4232  30.415  38.490  11.063
42812W        W 4233  32.137   8.769  10.911
42813W        W 4234  41.009  31.026  10.493
42814W        W 4235  33.125  40.903   4.607
42815W        W 4236   6.183  20.232  10.980
42816W        W 4237  28.039  13.226   0.762
42817W        W 4238   7.345  18.712   2.344
42818W        W 4239  34.911  41.315  14.825
42819W        W 4240  19.753   6.381   4.211
42820W        W 4241  39.397   7.361  11.470
42821W        W 4242  11.675  25.699  13.861
42822W        W 4243  18.765   0.743   3.747
42823W        W 4244  10.316   6.911  11.923
42824W        W 4245  23.639   0.752   4.343
42825W        W 4246  21.035   3.394  13.307
42826W        W 4247  39.853  20.224  10.562
42827W        W 4248  31.577   6.784   4.709
42828W        W 4249  34.503  22.097  12.473
42829W        W 4250   7.364  25.086   0.797
42830W        W 4251  43.765  24.570   1.406
42831W        W 4252  32.087   8.225   0.298
42832W        W 4253  29.976  28.963   4.228
42833W        W 4254  32.464   4.222  14.373
42834W        W 4255  29.433  23.613   4.242
42835W        W 4256  16.251  30.960   3.791
42836W        W 4257   8.697  25.127   5.194
42837W        W 4258   6.830  34.869  10.981
42838W        W 4259  35.956  35.889  12.978
42839W        W 4260  35.999  26.125  14.989
42840W        W 4261  16.731  26.015   2.671
42841W        W 4262  36.348  32.088   0.844
42842W        W 4263  33.583  39.409   1.934
42843W        W 4264  28.483   2.920   4.668
42844W        W 4265  32.603  42.394  12.036
42845W        W 4266  30.419  40.831   1.783
42846W        W 4267  42.465  14.756  12.544
42847W        W 4268  24.531  11.135  13.812
42848W        W 4269   5.740   4.361  12.540
42849W        W 4270  35.991   8.305  13.915
42850W        W 4271  33.931  15.206   0.289
42851W        W 4272  43.402  26.052  13.308
42852W        W 4273  24.587   0.471  12.873
42853W        W 4274  24.644  11.176  13.490
42854W        W 4275   9.740  13.771   2.773
42855W        W 4276  18.718  12.730   3.782
42856W        W 4277   6.191  31.915  11.560
42857W        W 4278   6.891  30.971   2.684
42858W        W 4279   2.450  36.064  12.385
42859W        W 4280  14.291  38.404  12.549
42860W        W 4281  10.651  16.273  14.980
42861W        W 4282  38.958  40.903   3.253
42862W        W 4283  35.905  40.845  14.450
42863W        W 4284   8.197   8.248  13.397
42864W        W 4285  35.917   6.845   4.750
42865W        W 4286  42.005  15.180   1.884
42866W        W 4287  36.855  13.298   0.886
42867W        W 4288  29.092  39.353  14.513
42868W        W 4289  29.947  33.548   0.768
42869W        W 4290  14.143  30.486   1.851
42870W        W 4291  27.970   1.293  11.016
42871W        W 4292  44.502  15.784  13.403
42872W        W 4293  33.561  31.064   2.707
42873W        W 4294  43.944  38.451   4.712
42874W        W 4295   5.196  13.734  11.490
42875W        W 4296  37.443  21.078  10.434
42876W        W 4297  31.482   9.691  11.986
42877W        W 4298  25.201  21.083   4.167
42878W        W 4299  32.084  28.578  11.945
42879W        W 4300  42.398  23.647   2.815
42880W        W 4301  17.624  24.692  14.880
42881W        W 4302  27.075  21.629   0.299
42882W        W 4303  41.867  35.532   1.425
42883W        W 4304   7.341  27.475  10.569
42884W        W 4305  27.634  24.628   1.352
42885W        W 4306  14.831  10.848  11.410
42886W        W 4307  37.009  37.990   3.792
42887W        W 4308  12.664  19.136   0.837
42888W        W 4309  28.457  35.573  10.925
42889W        W 4310  30.451  13.656  11.488
42890W        W 4311  17.649  23.720   1.891
42891W        W 4312   0.375  41.374   3.361
42892W        W 4313  10.732  23.588  11.394
42893W        W 4314   0.843  10.247   0.741
42894W        W 4315  19.099  41.322  12.037
42895W        W 4316  21.758  16.631   2.247
42896W        W 4317   5.253  36.903  11.556
42897W        W 4318  16.258  32.497   4.155
42898W        W 4319  26.476   1.416   0.777
42899W        W 4320  44.301  15.265   3.171
42900W        W 4321  38.842  12.681   4.245
42901W        W 4322  15.626  14.594   0.759
42902W        W 4323  19.762  31.407  11.395
42903W        W 4324   9.209  42.823  14.514
42904W        W 4325  34.038   5.916  11.905
42905W        W 4326  36.590   7.878  12.347
42906W        W 4327  37.439  29.449  12.841
42907W        W 4328  27.013   5.302  11.122
42908W        W 4329   2.464   0.447  12.547
42909W        W 4330  18.665  23.578   3.187
42910W        W 4331  34.015   1.371   2.241
42911W        W 4332   6.285  43.911   3.284
42912W        W 4333  43.348  40.969   1.292
42913W        W 4334  12.183   6.919  13.358
42914W        W 4335  19.580  19.105   1.277
42915W        W 4336  31.442  44.920  13.810
42916W        W 4337  10.805  31.014   2.839
42917W        W 4338  15.711   7.835  12.869
42918W        W 4339   5.331  12.677  13.333
42919W        W 4340  37.394  25.566   2.741
42920W        W 4341  21.185  11.762  13.541
42921W        W 4342  26.537   7.802   3.863
42922W        W 4343  33.006  30.450   1.825
42923W        W 4344  40.871  24.600  14.883
42924W        W 4345  39.453  40.511   3.708
42925W        W 4346   9.264  18.562  13.872
42926W        W 4347  22.127  17.657   4.687
42927W        W 4348   6.380  16.270  12.361
42928W        W 4349  29.996  28.618   4.186
42929W        W 4350  14.321  33.461   1.816
42930W        W 4351   1.904  41.413  11.999
42931W        W 4352  22.091  44.955   3.303
42932W        W 4353  42.481   1.267   4.324
42933W        W 4354  30.644  41.535   3.344
42934W        W 4355   6.368  32.627   3.652
42935W        W 4356  43.310  32.043  11.998
42936W        W 4357  16.314  35.513   4.235
42937W        W 4358  10.786   5.238   0.260
42938W        W 4359   5.268  30.591  13.846
42939W        W 4360   7.758  30.650  11.863
42940W        W 4361  38.821  11.249   2.829
42941W        W 4362  28.609  41.296  13.927
42942W        W 4363  24.677  27.621   1.875
42943W        W 4364  14.127  13.715  14.483
42944W        W 4365  37.968   2.952   3.818
42945W        W 4366  44.445  15.201  10.508
42946W        W 4367  23.730   5.831  12.829
42947W        W 4368   5.931   5.701   0.810
42948W        W 4369  11.755  25.165  11.119
42949W        W 4370  27.514   7.901   1.372
42950W        W 4371   5.225  32.029  14.474
42951W        W 4372  40.450   4.310  12.428
42952W        W 4373  35.529  18.751  14.979
42953W        W 4374  22.679  21.647  12.369
42954W        W 4375  31.061  18.664   0.345
42955W        W 4376   8.383  21.147   1.706
42956W        W 4377  22.239  13.770  14.486
42957W        W 4378   8.178  12.290  13.337
42958W        W 4379  37.459  28.492  12.949
42959W        W 4380  24.703  37.421  14.324
42960W        W 4381  35.022  39.384   2.903
42961W        W 4382  32.915  44.857  12.347
42962W        W 4383  19.533  23.180  14.390
42963W        W 4384   6.729   5.707  12.375
42964W        W 4385  29.468   2.269  13.971
42965W        W 4386  43.812  42.811  13.872
42966W        W 4387  23.603  22.679  10.952
42967W        W 4388   6.418  21.684  13.482
42968W        W 4389  13.842   5.702   4.338
42969W        W 4390  25.087  11.157   2.726
42970W        W 4391   9.259   9.696   1.847
42971W        W 4392  28.546  11.262   0.293
42972W        W 4393  27.549  25.101  11.866
42973W        W 4394  28.676  13.638   5.119
42974W        W 4395  37.402   1.428   2.419
42975W        W 4396  32.039  38.481   0.796
42976W        W 4397  37.441  40.922   4.803
42977W        W 4398  28.948   6.329   0.797
42978W        W 4399  17.740  31.112  11.888
42979W        W 4400  34.434  16.280  13.396
42980W        W 4401   2.875  21.038   3.203
42981W        W 4402   9.197  26.504   2.211
42982W        W 4403  11.210  16.577   3.337
42983W        W 4404   4.439  26.195   4.629
42984W        W 4405  40.798  16.232  10.939
42985W        W 4406  42.404   0.862  11.075
42986W        W 4407   2.336  14.246  12.862
42987W        W 4408  36.881   5.809  12.516
42988W        W 4409  31.446  29.006   1.855
42989W        W 4410  30.980   0.750  11.061
42990W        W 4411  22.193  31.469   4.187
42991W        W 4412  10.702   7.310  13.520
42992W        W 4413  23.015  17.767  13.045
42993W        W 4414  43.868  35.999  13.874
42994W        W 4415   8.717  24.045  13.540
42995W        W 4416   7.904  16.205  12.834
42996W        W 4417   7.763  13.603  14.784
42997W        W 4418  20.190  42.909   9.922
42998W        W 4419   8.388   6.312   0.266
42999W        W 4420  26.078  28.153   3.795
43000W        W 4421  39.478  42.866  14.016
43001W        W 4422   1.447   2.337   4.806
43002W        W 4423  32.635  21.081  11.985
43003W        W 4424  20.560  35.559  14.950
43004W        W 4425  28.146  37.993   3.206
43005W        W 4426  22.051   2.453  13.932
43006W        W 4427   5.868  12.825   4.684
43007W        W 4428  44.796  18.132  14.340
43008W        W 4429   5.809  42.780  10.618
43009W        W 4430  17.635  39.940  12.029
43010W        W 4431  40.035  35.062   4.720
43011W        W 4432  33.908  38.454  11.103
43012W        W 4433  13.301  27.063  10.618
43013W        W 4434  12.282  18.110   1.303
43014W        W 4435  38.559  25.005  12.414
43015W        W 4436  30.499  20.709  12.518
43016W        W 4437  24.501  35.904   4.720
43017W        W 4438  29.163  19.095  13.980
43018W        W 4439  37.504  20.201   5.162
43019W        W 4440  28.971   1.878   3.642
43020W        W 4441  27.191  31.417   1.899
43021W        W 4442  29.965  17.707  11.980
43022W        W 4443  10.827   0.282   3.221
43023W        W 4444  11.709  22.737   4.654
43024W        W 4445   4.719  32.894  11.565
43025W        W 4446   7.695   1.952  13.001
43026W        W 4447  19.146  27.446  12.020
43027W        W 4448   3.755  29.155   2.672
43028W        W 4449   1.285  16.319  11.884
43029W        W 4450   0.844   5.240   2.397
43030W        W 4451   6.763   5.923   2.824
43031W        W 4452  24.590  26.700   4.747
43032W        W 4453   7.704  29.963  11.508
43033W        W 4454   1.399  38.468   1.766
43034W        W 4455  24.043  26.101  11.573
43035W        W 4456  30.567  38.360  12.470
43036W        W 4457  42.401  35.505  12.488
43037W        W 4458  31.434  13.813  11.458
43038W        W 4459   8.166  36.899   1.858
43039W        W 4460  19.242  11.718   4.641
43040W        W 4461  19.598  44.371  11.986
43041W        W 4462  27.646   0.386   4.823
43042W        W 4463  15.743  40.426  13.433
43043W        W 4464  12.235  38.891  14.409
43044W        W 4465  10.700   2.759   4.720
43045W        W 4466  21.208  17.166  12.442
43046W        W 4467  15.790  21.130   2.191
43047W        W 4468   0.390  12.327  13.000
43048W        W 4469  14.261   2.297  14.466
43049W        W 4470   1.884  10.713   3.163
43050W        W 4471  12.768  34.868   0.898
43051W        W 4472  32.007  14.286  13.821
43052W        W 4473  25.973   6.375  11.857
43053W        W 4474  27.014  29.107  11.863
43054W        W 4475  43.493  22.589   1.292
43055W        W 4476   8.655   4.262  14.317
43056W        W 4477  34.901   6.816  14.899
43057W        W 4478   5.815  24.227  11.478
43058W        W 4479  42.871   7.183  12.987
43059W        W 4480  19.148  28.438  12.441
43060W        W 4481   3.888  41.802  11.974
43061W        W 4482   4.725   5.265   4.634
43062W        W 4483  41.322  15.806   4.801
43063W        W 4484   4.776  43.271  14.334
43064W        W 4485  22.650  23.645  10.580
43065W        W 4486  33.502   1.335  10.945
43066W        W 4487  41.382  17.683  10.530
43067W        W 4488  37.858  23.195   0.811
43068W        W 4489  28.626  12.188  10.973
43069W        W 4490  44.761  40.375   0.453
43070W        W 4491  35.078  28.551   3.216
43071W        W 4492  20.617  16.126   4.122
43072W        W 4493  34.091  21.247   2.721
43073W        W 4494  26.200   0.317   1.771
43074W        W 4495  35.426  17.769   2.902
43075W        W 4496  44.388  17.633   0.264
43076W        W 4497  36.356  10.756  12.356
43077W        W 4498  29.153  30.654   2.821
43078W        W 4499  25.146   2.436   1.255
43079W        W 4500  20.718   0.351   1.861
43080W        W 4501  40.371  16.700  14.349
43081W        W 4502  36.855  38.402   2.182
43082W        W 4503  34.539  23.005   2.881
43083W        W 4504  14.664  37.008  14.986
43084W        W 4505  20.176  11.360   2.408
43085W        W 4506  15.221  16.664   3.193
43086W        W 4507  31.020  41.393   4.333
43087W        W 4508  15.754  22.562   5.304
43088W        W 4509   3.359  35.032   4.186
43089W        W 4510  33.909  38.516  14.291
43090W        W 4511  32.467  18.247   4.157
43091W        W 4512   0.896  43.828   1.438
43092W        W 4513  17.272   4.336  14.398
43093W        W 4514   1.430   5.260   1.864
43094W        W 4515  16.258   0.979  10.511
43095W        W 4516  21.675  21.677   2.234
43096W        W 4517   9.675  33.995   0.858
43097W        W 4518  25.080  33.606  10.996
43098W        W 4519  44.354  20.077   0.785
43099W        W 4520  30.475  41.886   3.817
43100W        W 4521  25.488  40.366  13.320
43101W        W 4522  14.753  23.176  13.969
43102W        W 4523  35.886  36.363   3.197
43103W        W 4524  16.669   5.799   3.148
43104W        W 4525   5.366  44.287   0.355
43105W        W 4526   8.754   0.931  14.396
43106W        W 4527   7.213  36.041   5.272
43107W        W 4528  40.014  20.630   1.736
43108W        W 4529  21.609  11.363   3.228
43109W        W 4530  15.603  28.135   5.145
43110W        W 4531  21.103   6.687   0.815
43111W        W 4532  25.152  15.749  13.839
43112W        W 4533   9.645  14.616   3.717
43113W        W 4534  32.010  31.933   1.322
43114W        W 4535  26.472  38.536  10.498
43115W        W 4536  29.438  37.451  13.059
43116W        W 4537  23.642  14.249   4.192
43117W        W 4538   6.900  37.945   3.350
43118W        W 4539  23.994   3.445  11.441
43119W        W 4540  23.535  12.846  13.509
43120W        W 4541  41.320   1.931  14.984
43121W        W 4542  32.091  12.260   1.391
43122W        W 4543  10.298  31.980  10.551
43123W        W 4544  27.615  39.918   1.853
43124W        W 4545  14.780  34.526   3.685
43125W        W 4546   0.486  32.901   2.664
43126W        W 4547  22.565  32.094   0.750
43127W        W 4548  11.763  29.543   2.866
43128W        W 4549  37.382  29.587   3.184
43129W        W 4550  31.946  39.904  13.058
43130W        W 4551  23.196   9.725   3.646
43131W        W 4552  27.487  10.334  11.963
43132W        W 4553  25.131  24.518  10.967
43133W        W 4554  10.700   1.236  11.575
43134W        W 4555  31.134  39.901   4.350
43135W        W 4556   0.761   7.700  13.483
43136W        W 4557  14.649  16.705   1.339
43137W        W 4558  21.084   5.896   2.361
43138W        W 4559  24.087  25.161   1.780
43139W        W 4560  28.528   4.279   0.406
43140W        W 4561   5.928  36.941   1.418
43141W        W 4562  42.954   3.777   2.216
43142W        W 4563  33.952  22.073  13.415
43143W        W 4564   0.259  43.995  13.791
43144W        W 4565   1.796  38.423   4.838
43145W        W 4566  28.991  30.514   4.300
43146W        W 4567  21.516  16.253  11.888
43147W        W 4568   3.433   5.753   5.244
43148W        W 4569  32.519  42.466   2.707
43149W        W 4570   2.335   3.767  12.867
43150W        W 4571  20.620  10.826  13.853
43151W        W 4572  40.945   3.853  10.892
43152W        W 4573  12.343  23.232   0.753
43153W        W 4574  11.232  44.482  13.851
43154W        W 4575  26.057  35.959  13.880
43155W        W 4576  15.794  18.717  12.469
43156W        W 4577   9.301   1.792  12.984
43157W        W 4578  26.519  22.641   2.871
43158W        W 4579  35.098   7.221   3.720
43159W        W 4580  15.773  20.531  14.853
43160W        W 4581   3.410  10.297   1.236
43161W        W 4582  33.421   4.701   1.375
43162W        W 4583  24.982  26.531  13.465
43163W        W 4584  30.654  32.490   4.231
43164W        W 4585  36.956   2.360  11.004
43165W        W 4586  13.705  44.824  12.933
43166W        W 4587   5.785  41.337   2.812
43167W        W 4588  21.158  44.964   2.233
43168W        W 4589  39.053   1.319  10.111
43169W        W 4590  18.218   1.920  14.023
43170W        W 4591  40.366  37.356  13.423
43171W        W 4592  21.080  25.565  14.908
43172W        W 4593  10.805  12.153  13.366
43173W        W 4594  41.430  35.856  13.791
43174W        W 4595  17.749  14.222   3.270
43175W        W 4596  42.023  44.418  14.350
43176W        W 4597  11.679  18.267   1.742
43177W        W 4598  41.949  32.894   1.313
43178W        W 4599  35.361  16.566   4.226
43179W        W 4600  34.120  38.877   2.873
43180W        W 4601  36.374  21.177   1.899
43181W        W 4602  21.105   4.715  11.095
43182W        W 4603  33.912  27.485   3.774
43183W        W 4604  11.166   7.872   2.826
43184W        W 4605  29.513  32.038   3.231
43185W        W 4606  12.701  11.171  10.621
43186W        W 4607  23.510   2.374  11.498
43187W        W 4608  23.089  35.052   3.232
43188W        W 4609  20.050   8.258   2.800
43189W        W 4610  41.804   0.784  14.978
43190W        W 4611  38.366  42.488  11.863
43191W        W 4612  23.200  28.516   4.700
43192W        W 4613   4.297   0.343   4.675
43193W        W 4614  14.232  19.668  10.624
43194W        W 4615   6.699  35.557   4.673
43195W        W 4616  18.665   8.279   2.224
43196W        W 4617  13.122  25.969  14.306
43197W        W 4618  34.566   1.460  10.072
43198W        W 4619  27.523  25.562  14.470
43199W        W 4620  19.670   8.753   2.845
43200W        W 4621  39.863  28.547   0.941
43201W        W 4622  25.473   3.326  10.896
43202W        W 4623  33.476  11.280   1.722
43203W        W 4624  15.778  30.639   3.373
43204W        W 4625   3.310   4.751  10.451
43205W        W 4626  39.863   8.775   1.872
43206W        W 4627   3.345  19.691   4.702
43207W        W 4628  28.041   3.349  13.892
43208W        W 4629  33.916  44.995  12.036
43209W        W 4630   6.198   0.341  11.016
43210W        W 4631  42.820  10.786  10.548
43211W        W 4632  16.689   2.305  12.428
43212W        W 4633  30.635  40.387  14.763
43213W        W 4634  35.918  16.661  14.992
43214W        W 4635  17.770  12.240   3.331
43215W        W 4636  14.302  32.002   1.238
43216W        W 4637  28.978  35.549  12.967
43217W        W 4638   9.871  34.920   0.913
43218W        W 4639  25.094  44.431   3.668
43219W        W 4640   8.260   3.879  10.900
43220W        W 4641  37.357  23.241   4.645
43221W        W 4642  41.355  15.703   2.341
43222W        W 4643  27.550  35.551  13.528
43223W        W 4644  14.289   9.762   3.237
43224W        W 4645  29.596  32.957   1.736
43225W        W 4646   2.821  41.463   3.288
43226W        W 4647  17.614  17.581  13.426
43227W        W 4648  13.303  27.461   0.257
43228W        W 4649   5.224   4.844  13.316
43229W        W 4650  43.338  14.811   9.670
43230W        W 4651  35.408  30.608  14.366
43231W        W 4652   0.423  36.444  10.917
43232W        W 4653  32.074  18.150  11.082
43233W        W 4654  10.656   5.770   3.833
43234W        W 4655  40.025  44.299  13.361
43235W        W 4656  19.055  11.170  11.977
43236W        W 4657   7.348   5.765   0.886
43237W        W 4658  25.212  44.396   4.700
43238W        W 4659  18.710  10.821  14.787
43239W        W 4660  26.044  28.501   4.322
43240W        W 4661  23.575  17.076   1.437
43241W        W 4662  27.187  43.774   2.828
43242W        W 4663   4.204   6.722  11.387
43243W        W 4664  35.876  14.168   4.272
43244W        W 4665   6.368   6.330  13.401
43245W        W 4666  34.527  36.982   1.329
43246W        W 4667  36.842  29.035   1.303
43247W        W 4668  33.421  16.248   4.265
43248W        W 4669  12.668  31.082   2.863
43249W        W 4670  20.045   3.897   2.681
43250W        W 4671  17.607  17.745   0.924
43251W        W 4672   9.875  23.212   1.746
43252W        W 4673  16.190  19.283  12.503
43253W        W 4674   0.367  33.494   3.156
43254W        W 4675  31.611  24.607  10.507
43255W        W 4676  10.832   6.292   0.406
43256W        W 4677  20.603   4.771   0.866
43257W        W 4678  32.111  16.613   4.664
43258W        W 4679  10.726  43.350  13.399
43259W        W 4680  33.106  32.633  11.381
43260W        W 4681  13.287  20.141   2.839
43261W        W 4682   0.942  35.965  10.546
43262W        W 4683   5.395  36.037  12.001
43263W        W 4684  28.531  27.495  13.411
43264W        W 4685  19.209  42.964   0.848
43265W        W 4686  31.448  33.393  14.955
43266W        W 4687  13.174   4.744  11.371
43267W        W 4688  43.379   2.924   4.135
43268W        W 4689   2.842  40.960  13.002
43269W        W 4690   3.220  26.001   5.097
43270W        W 4691  44.846  13.759   1.435
43271W        W 4692   5.843  43.270  11.883
43272W        W 4693  43.508  36.520  11.490
43273W        W 4694  12.616  19.685   2.667
43274W        W 4695  33.391  38.937  13.905
43275W        W 4696  27.037  20.235   1.819
43276W        W 4697  35.586  25.690  14.787
43277W        W 4698  10.798  30.639  10.930
43278W        W 4699  31.531  32.507   2.706
43279W        W 4700  28.138  21.233  13.895
43280W        W 4701  10.367  24.697   3.723
43281W        W 4702  41.845   4.356   0.291
43282W        W 4703  43.487   1.325  12.400
43283W        W 4704   7.331  11.268   4.774
43284W        W 4705  35.506   9.238   0.907
43285W        W 4706  12.161   7.781   0.388
43286W        W 4707   3.753  26.606   2.901
43287W        W 4708  26.580   3.803  12.993
43288W        W 4709  32.057   2.921   1.898
43289W        W 4710  31.119  14.797   2.258
43290W        W 4711  34.098   8.179  12.463
43291W        W 4712  18.670  12.771  14.010
43292W        W 4713  28.512  22.728  11.013
43293W        W 4714  39.855  10.779   3.744
43294W        W 4715  24.636  12.661   3.316
43295W        W 4716  21.525  22.238   4.195
43296W        W 4717  19.707  22.544  11.588
43297W        W 4718   1.367  40.350  13.988
43298W        W 4719  41.424  25.599  12.877
43299W        W 4720  37.042   2.808   3.686
43300W        W 4721  23.069  44.372  10.126
43301W        W 4722  42.510  23.700   3.799
43302W        W 4723  19.206  19.765  14.866
43303W        W 4724  21.546   2.448  14.387
43304W        W 4725  16.175  33.966  12.897
43305W        W 4726  36.051  26.081   0.271
43306W        W 4727  25.189   5.931  14.504
43307W        W 4728  10.281  30.526   0.455
43308W        W 4729  19.752  31.930  11.076
43309W        W 4730  20.608  16.183   2.843
43310W        W 4731  23.123   7.875  13.978
43311W        W 4732  14.234  34.966   2.375
43312W        W 4733   9.207   1.959   4.181
43313W        W 4734   5.302  28.938   3.330
43314W        W 4735  26.458  36.907  14.918
43315W        W 4736  13.770  20.154   2.379
43316W        W 4737  14.296  30.616  12.576
43317W        W 4738  34.591  40.031  11.589
43318W        W 4739  29.024  14.308  11.091
43319W        W 4740  19.241  18.131  13.980
43320W        W 4741  43.829  19.741   4.727
43321W        W 4742  41.846  34.957   4.663
43322W        W 4743  33.900  28.500   1.437
43323W        W 4744  33.982   2.854   3.750
43324W        W 4745  20.213   2.910   0.755
43325W        W 4746  42.868  42.961  11.113
43326W        W 4747  33.937   5.804  13.010
43327W        W 4748  27.998   7.694  11.525
43328W        W 4749  17.757  39.506   4.610
43329W        W 4750  39.442  39.382  11.481
43330W        W 4751  31.586  43.019   0.879
43331W        W 4752  32.983  35.494   3.695
43332W        W 4753  38.431   4.249  10.906
43333W        W 4754  34.917  10.781   0.781
43334W        W 4755  29.963  42.988   3.749
43335W        W 4756  37.023   1.304  14.884
43336W        W 4757  27.035  35.910  14.463
43337W        W 4758  44.893   2.904   4.172
43338W        W 4759   2.455  37.529  12.486
43339W        W 4760  40.427   0.846  10.548
43340W        W 4761  10.229  40.470  12.443
43341W        W 4762  44.775  18.267  12.923
43342W        W 4763   8.696  14.753   4.268
43343W        W 4764  33.470  21.599  13.833
43344W        W 4765  28.996  22.022   4.137
43345W        W 4766  42.409   8.785  12.439
43346W        W 4767  22.106   3.841   0.390
43347W        W 4768  32.452   6.294  12.357
43348W        W 4769  37.380  21.127   0.935
43349W        W 4770  36.515  44.285  12.093
43350W        W 4771  41.811  27.103   2.883
43351W        W 4772   7.841   4.445   4.290
43352W        W 4773  24.549  31.524   3.284
43353W        W 4774  12.166   2.384  14.428
43354W        W 4775   9.271   5.841   2.734
43355W        W 4776   3.843   3.729  14.510
43356W        W 4777  23.647  37.853  11.930
43357W        W 4778  12.282  36.961   1.838
43358W        W 4779  14.593   2.389  12.009
43359W        W 4780  28.465   2.226   4.120
43360W        W 4781  39.053  41.454   1.262
43361W        W 4782   2.292  44.937   0.900
43362W        W 4783  17.260  19.047  12.485
43363W        W 4784  30.108  32.054   2.217
43364W        W 4785   9.293  18.150   4.127
43365W        W 4786  41.446  21.159   1.213
43366W        W 4787  38.963  14.765   4.724
43367W        W 4788  25.012  44.261  10.938
43368W        W 4789  28.453   6.709   0.286
43369W        W 4790  21.127  16.792  14.402
43370W        W 4791  44.400  19.063   2.330
43371W        W 4792  42.852   7.701  10.958
43372W        W 4793   6.834  29.089  12.837
43373W        W 4794  38.933  14.205  10.924
43374W        W 4795   2.956   1.940   2.761
43375W        W 4796   3.323  22.737  10.616
43376W        W 4797  41.349  18.223  11.563
43377W        W 4798  21.023  34.936   4.175
43378W        W 4799  22.087   9.157   1.303
43379W        W 4800   7.232   1.768   3.207
43380W        W 4801  19.135  41.357   1.250
43381W        W 4802  42.012  37.924   0.427
43382W        W 4803  25.621   9.350  13.991
43383W        W 4804  39.971   7.907  14.840
43384W        W 4805  41.517   9.185   1.916
43385W        W 4806  24.670  39.915   0.256
43386W        W 4807  30.579  22.145  14.871
43387W        W 4808   5.347  43.361   3.633
43388W        W 4809  15.246  19.645  13.863
43389W        W 4810  43.857  18.134   2.183
43390W        W 4811  32.478   9.377   3.157
43391W        W 4812   7.744   8.181   4.833
43392W        W 4813   9.249  27.515   4.807
43393W        W 4814   0.426  42.857  14.828
43394W        W 4815  40.513   4.703   0.471
43395W        W 4816   9.805  11.303   3.709
43396W        W 4817  38.821  10.776   0.890
43397W        W 4818  31.153  37.066  14.504
43398W        W 4819  26.578   8.327   1.890
43399W        W 4820  20.241  15.687  12.009
43400W        W 4821   5.797  19.769   3.285
43401W        W 4822   0.433  16.239  11.436
43402W        W 4823  29.936  15.188  11.409
43403W        W 4824   8.235  16.120   0.780
43404W        W 4825  26.178  43.481   2.289
43405W        W 4826  15.291  33.874   3.179
43406W        W 4827  41.312  25.704   5.293
43407W        W 4828  38.463   7.383  14.980
43408W        W 4829   3.241  10.733  11.587
43409W        W 4830  35.365  15.211  10.930
43410W        W 4831   2.328   3.831   2.850
43411W        W 4832  14.782   2.788   3.205
43412W        W 4833   9.709  18.120   3.843
43413W        W 4834  26.184  10.657   4.135
43414W        W 4835  18.747  30.476  12.562
43415W        W 4836  15.290   9.291   4.740
43416W        W 4837  28.647  15.656   3.238
43417W        W 4838   5.791  22.187  14.869
43418W        W 4839   6.238  32.037  12.500
43419W        W 4840  44.877  25.056   3.149
43420W        W 4841  39.357  15.577  11.595
43421W        W 4842   1.841  29.055  10.133
43422W        W 4843  16.784  33.466   4.123
43423W        W 4844  11.762   6.849   4.613
43424W        W 4845  36.497  35.095  11.480
43425W        W 4846   9.857   5.922  12.037
43426W        W 4847  13.750  29.574   2.264
43427W        W 4848  33.544  17.580   0.426
43428W        W 4849  32.409  14.293  12.353
43429W        W 4850  26.497   1.902  14.835
43430W        W 4851  16.195  44.811  13.323
43431W        W 4852  17.115  21.072  13.429
43432W        W 4853  34.432   6.216   2.818
43433W        W 4854   4.286  10.295  13.977
43434W        W 4855   6.265  15.280   2.189
43435W        W 4856  39.488   1.374  10.584
43436W        W 4857  30.429  39.553   1.726
43437W        W 4858  20.238  21.569  14.952
43438W        W 4859  41.887   4.844   2.789
43439W        W 4860  11.350  13.748   4.623
43440W        W 4861  20.563   6.691  14.781
43441W        W 4862  10.244  16.725   2.669
43442W        W 4863   0.301  38.881   0.787
43443W        W 4864  39.379   1.792  12.366
43444W        W 4865  16.676   9.272  12.543
43445W        W 4866  22.123  26.157  12.510
43446W        W 4867  39.850  41.442  14.379
43447W        W 4868   6.408   6.350   0.414
43448W        W 4869  34.423  38.936   1.929
43449W        W 4870  35.471  11.650  11.866
43450W        W 4871  18.125  20.188   4.244
43451W        W 4872  33.591   0.901  12.014
43452W        W 4873  22.719   3.798   1.743
43453W        W 4874   2.820  38.413  14.778
43454W        W 4875  22.194  14.718  13.537
43455W        W 4876   8.235  24.501  14.465
43456W        W 4877  38.359  40.835  11.015
43457W        W 4878   2.883  22.588  12.063
43458W        W 4879  27.064  18.727   1.435
43459W        W 4880  15.682  35.442   2.353
43460W        W 4881  11.721  20.638  11.915
43461W        W 4882  38.550   1.887   0.766
43462W        W 4883  22.610  13.230  13.875
43463W        W 4884  19.747  11.763   0.249
43464W        W 4885   4.847  39.996   3.362
43465W        W 4886   9.335  31.635  14.013
43466W        W 4887  20.082  38.006   3.750
43467W        W 4888  12.359  42.389  14.021
43468W        W 4889   8.851  16.197   2.347
43469W        W 4890   2.469  44.417   4.184
43470W        W 4891  29.963   9.388   1.773
43471W        W 4892  21.252   1.902  13.452
43472W        W 4893   2.838  31.922   0.354
43473W        W 4894  43.960  23.690  11.503
43474W        W 4895  40.435   2.796  11.574
43475W        W 4896   7.893  23.543  14.384
43476W        W 4897  34.094  32.013  11.063
43477W        W 4898  38.949  40.374   1.895
43478W        W 4899  38.525  16.625  14.369
43479W        W 4900   0.923  41.491  14.470
43480W        W 4901  29.011   5.749   4.831
43481W        W 4902  36.871  20.114  11.531
43482W        W 4903  30.942  42.836   0.425
43483W        W 4904  30.081   7.770   1.783
43484W        W 4905  39.875   1.372  10.420
43485W        W 4906   3.324   4.319  14.858
43486W        W 4907  32.593  37.481   1.446
43487W        W 4908  21.568  28.459   4.655
43488W        W 4909  38.063  39.053   2.683
43489W        W 4910  37.374  22.081   2.687
43490W        W 4911  15.716  19.072   4.336
43491W        W 4912   0.414  11.258   3.673
43492W        W 4913  40.916  18.739  11.558
43493W        W 4914   3.361  39.019  12.531
43494W        W 4915  31.102  20.131   3.242
43495W        W 4916  10.279   4.285   0.460
43496W        W 4917  33.986  10.866   3.825
43497W        W 4918  10.216   8.232   2.776
43498W        W 4919  23.549  22.137   0.305
43499W        W 4920  29.950   9.327  14.824
43500W        W 4921  25.693  40.549  11.462
43501W        W 4922  16.277  17.150  14.845
43502W        W 4923  44.366  12.306  13.517
43503W        W 4924  29.169  24.713  14.900
43504W        W 4925   3.857   9.316   3.745
43505W        W 4926  39.005  41.867  11.590
43506W        W 4927  15.239  39.019  13.347
43507W        W 4928  19.167  43.367  12.493
43508W        W 4929  25.151   7.402   4.743
43509W        W 4930  33.594  10.824   3.706
43510W        W 4931   1.387  32.111  13.988
43511W        W 4932  25.565   2.863   4.312
43512W        W 4933  32.112   0.486  12.560
43513W        W 4934  26.630  33.479  12.375
43514W        W 4935  38.042  41.908   4.253
43515W        W 4936   7.830  38.868  13.827
43516W        W 4937   7.325  32.138  10.548
43517W        W 4938  17.092  33.583   4.830
43518W        W 4939  43.766  21.259   0.261
43519W        W 4940  27.592  35.055  14.922
43520W        W 4941   7.772   4.333  11.428
43521W        W 4942  23.532  34.609   4.642
43522W        W 4943  43.883  17.169   3.766
43523W        W 4944  39.513  20.194  10.999
43524W        W 4945  35.928  19.136  10.927
43525W        W 4946  24.139  22.174  12.390
43526W        W 4947  23.526  10.288   2.234
43527W        W 4948  28.571  26.090   0.439
43528W        W 4949   4.222  44.441   3.815
43529W        W 4950   8.179   8.406   4.659
43530W        W 4951  15.131   4.920  10.635
43531W        W 4952  38.895  20.601   1.349
43532W        W 4953  30.422  42.029   4.198
43533W        W 4954  19.692  44.462   2.857
43534W        W 4955  25.589  36.480   2.225
43535W        W 4956   1.754  17.620   4.240
43536W        W 4957  24.048  31.024  14.764
43537W        W 4958  31.576  24.226  11.091
43538W        W 4959  37.376  30.480   2.197
43539W        W 4960  35.978  12.712   2.252
43540W        W 4961  16.124  25.988   4.128
43541W        W 4962   1.964  13.348   2.852
43542W        W 4963  10.319  24.157   1.816
43543W        W 4964  25.541  31.476  11.574
43544W        W 4965  35.502  33.394  11.382
43545W        W 4966  20.549  39.473  11.872
43546W        W 4967   3.808  22.120   5.182
43547W        W 4968  18.550   2.392   4.128
43548W        W 4969  14.253  28.593   0.879
43549W        W 4970  17.306  20.223  12.917
43550W        W 4971  35.604  17.669  11.522
43551W        W 4972  21.680  39.526  14.447
43552W        W 4973  18.122   0.369   4.258
43553W        W 4974   0.298  37.371   1.292
43554W        W 4975   0.448  33.108   3.256
43555W        W 4976  29.936   5.409   0.947
43556W        W 4977  12.362  11.713   2.419
43557W        W 4978  29.171   1.829  13.536
43558W        W 4979  38.471  35.920   3.644
43559W        W 4980  40.465  40.976   3.689
43560W        W 4981   6.361  27.158  12.858
43561W        W 4982  18.064  16.171   4.628
43562W        W 4983  27.645   3.810  14.497
43563W        W 4984  38.376   1.917  14.879
43564W        W 4985  20.728  44.944  12.451
43565W        W 4986  13.261  34.095   4.276
43566W        W 4987  34.369  22.660  12.401
43567W        W 4988  15.300   8.677   5.206
43568W        W 4989  41.417   5.395   1.774
43569W        W 4990   5.315  27.035  14.827
43570W        W 4991   9.672  36.000   4.185
43571W        W 4992  36.384  25.527  14.783
43572W        W 4993  22.242   5.897   1.257
43573W        W 4994   1.395  11.850   3.264
43574W        W 4995  34.446  26.558   4.332
43575W        W 4996  39.925   7.290  14.844
43576W        W 4997  37.921   8.406  11.898
43577W        W 4998  26.111  39.002   2.240
43578W        W 4999  29.650  13.310   0.299
43579W        W 5000   1.476  30.025  12.987
43580W        W 5001  12.651  10.295   2.805
43581W        W 5002  35.434  43.897  13.813
43582W        W 5003  17.235  44.962  13.409
43583W        W 5004  20.218  21.251  11.409
43584W        W 5005  44.314  38.941  13.515
43585W        W 5006  16.570  41.530  12.435
43586W        W 5007   4.415  30.610  13.419
43587W        W 5008  33.064  24.547  12.465
43588W        W 5009  15.093  33.577  13.929
43589W        W 5010  23.223  10.830  11.420
43590W        W 5011  32.594  10.670   0.250
43591W        W 5012   7.241   6.308  13.880
43592W        W 5013   9.773  20.606   0.315
43593W        W 5014  37.854   4.724  12.560
43594W        W 5015  28.073  42.813   5.085
43595W        W 5016  33.585  38.070   1.730
43596W        W 5017   6.831  27.616  13.834
43597W        W 5018   6.339  44.814   3.791
43598W        W 5019  20.586   8.237   4.169
43599W        W 5020  19.701  42.920   3.312
43600W        W 5021  25.070  16.131  14.346
43601W        W 5022  32.905  25.000  13.432
43602W        W 5023  29.459  31.925  14.395
43603W        W 5024  28.445   8.353   0.863
43604W        W 5025  20.717  27.105   3.744
43605W        W 5026  33.548   1.880  14.302
43606W        W 5027  41.930  32.467   0.746
43607W        W 5028  14.834  10.796   4.292
43608W        W 5029  14.686  19.068   3.279
43609W        W 5030  15.718  24.541   1.862
43610W        W 5031  41.385  20.230   2.676
43611W        W 5032  35.503  16.129   0.467
43612W        W 5033  10.813  25.685   1.890
43613W        W 5034   8.691  27.101  11.077
43614W        W 5035  27.498  34.572   4.272
43615W        W 5036  43.884  35.098  11.985
43616W        W 5037   5.368  38.963  10.915
43617W        W 5038  16.602  26.064   3.766
43618W        W 5039  15.129  31.493  13.807
43619W        W 5040  20.248   5.336   2.892
43620W        W 5041  37.521  30.040   4.623
43621W        W 5042  10.660  29.644  11.409
43622W        W 5043  16.162  23.609   3.205
43623W        W 5044  44.458  35.045  12.016
43624W        W 5045   4.787  38.981  12.958
43625W        W 5046  24.533   4.930   3.152
43626W        W 5047   3.723  17.193   2.836
43627W        W 5048  11.170  24.664  10.949
43628W        W 5049  13.107  21.553   1.782
43629W        W 5050  10.704   0.836  12.987
43630W        W 5051  30.446   9.275  11.944
43631W        W 5052   7.702  43.442   3.297
43632W        W 5053   9.814  26.579  12.840
43633W        W 5054  16.206  40.418   3.770
43634W        W 5055  42.836  21.512  13.906
43635W        W 5056  38.886  32.443   1.213
43636W        W 5057   5.810  23.536   0.362
43637W        W 5058  22.081   0.804   1.838
43638W        W 5059   9.665  18.084  14.857
43639W        W 5060  41.814   7.721  13.837
43640W        W 5061  11.782  30.936  13.319
43641W        W 5062  32.400  40.824   0.282
43642W        W 5063   7.197  35.950  14.934
43643W        W 5064   8.808  32.614   0.860
43644W        W 5065   8.393  42.364   2.417
43645W        W 5066  15.247  16.273   4.792
43646W        W 5067  41.526   7.731  13.472
43647W        W 5068  42.850  17.714   1.229
43648W        W 5069  18.172   5.382   4.766
43649W        W 5070   4.353  31.445  14.340
43650W        W 5071  17.575  41.012  13.484
43651W        W 5072  41.805  29.000  13.924
43652W        W 5073  17.071  41.425   3.695
43653W        W 5074  22.228   9.185  12.956
43654W        W 5075  11.721  22.151  13.887
43655W        W 5076  24.205  41.022  12.029
43656W        W 5077  15.083  11.775  13.338
43657W        W 5078  35.019  39.978  13.424
43658W        W 5079   6.828  10.174   0.374
43659W        W 5080  13.225  13.772  14.455
43660W        W 5081  19.742  40.801  12.542
43661W        W 5082  27.960  10.354  14.845
43662W        W 5083  37.046  17.754   0.416
43663W        W 5084  15.083  24.706   0.303
43664W        W 5085  10.316  34.869  14.983
43665W        W 5086  25.493  23.147  14.379
43666W        W 5087  25.048  21.712  10.564
43667W        W 5088  35.487  25.507  10.523
43668W        W 5089  12.262  26.590   0.793
43669W        W 5090  10.324  23.555   1.778
43670W        W 5091  37.378  38.934  12.868
43671W        W 5092  23.656  44.414   0.398
43672W        W 5093  12.829   8.163  13.816
43673W        W 5094  24.486  29.990   2.676
43674W        W 5095  19.610  13.279   1.386
43675W        W 5096  22.092  32.574   2.889
43676W        W 5097  41.310   5.369   4.260
43677W        W 5098  24.055  15.682   2.777
43678W        W 5099   7.747  35.853  13.999
43679W        W 5100  18.711   2.339  12.549
43680W        W 5101  37.998  18.646  11.537
43681W        W 5102   7.788  28.951   0.775
43682W        W 5103  44.810  31.933  13.367
43683W        W 5104  17.589  38.347   2.759
43684W        W 5105  42.948  35.584   2.414
43685W        W 5106  21.706  35.976   2.859
43686W        W 5107  10.381  17.787  10.912
43687W        W 5108  38.929  17.783   2.743
43688W        W 5109  16.192  19.625  11.592
43689W        W 5110   2.262   0.380  10.907
43690W        W 5111  24.645   7.245   0.785
43691W        W 5112  14.098  38.910  11.587
43692W        W 5113  29.985  21.144  11.911
43693W        W 5114  16.307   3.937  11.553
43694W        W 5115  18.205  34.005  11.933
43695W        W 5116  29.439   6.384   0.478
43696W        W 5117  15.634  38.979  11.123
43697W        W 5118  26.980  21.548   3.371
43698W        W 5119  31.970  28.029   4.131
43699W        W 5120  41.475  24.978   1.380
43700W        W 5121   4.741  12.815  14.426
43701W        W 5122   4.228  12.208  13.340
43702W        W 5123  37.016  37.921   1.930
43703W        W 5124  43.344  40.546  12.413
43704W        W 5125  16.133  39.064   2.294
43705W        W 5126  11.327  29.602   4.290
43706W        W 5127  21.171  42.515   2.870
43707W        W 5128  26.022  17.558   0.380
43708W        W 5129   1.477   0.770  12.966
43709W        W 5130  33.381  30.610  14.970
43710W        W 5131  30.911  36.885   2.263
43711W        W 5132  36.966  31.007  10.534
43712W        W 5133  15.768   8.841  10.933
43713W        W 5134  31.544  40.909  11.609
43714W        W 5135  18.246  16.709  13.948
43715W        W 5136  35.418  37.519   1.286
43716W        W 5137  16.594  13.689   1.376
43717W        W 5138  27.968  29.124  12.862
43718W        W 5139  33.905  14.319   1.229
43719W        W 5140   6.320   1.868  14.971
43720W        W 5141   5.884   5.319  10.894
43721W        W 5142  10.646  42.333   1.215
43722W        W 5143  37.497  14.301  10.512
43723W        W 5144  18.277  40.948  12.904
43724W        W 5145  12.324   9.763   4.122
43725W        W 5146   7.669  10.718  11.573
43726W        W 5147  19.540  34.465  13.977
43727W        W 5148   8.223   6.863   2.780
43728W        W 5149  39.912  18.232   0.902
43729W        W 5150  37.456   2.802   4.337
43730W        W 5151   9.325  34.000  14.397
43731W        W 5152  10.863  10.366  12.380
43732W        W 5153   0.461   3.909  12.513
43733W        W 5154   8.350  15.664   4.626
43734W        W 5155  29.950   9.225   4.245
43735W        W 5156  40.360  25.145   2.179
43736W        W 5157   8.403  14.252   1.876
43737W        W 5158  31.124  32.391   3.766
43738W        W 5159  24.698  38.532   4.682
43739W        W 5160  10.366  38.968  10.010
43740W        W 5161  12.662  28.940  13.975
43741W        W 5162  39.389   4.776   1.885
43742W        W 5163  41.793  31.130   3.794
43743W        W 5164  37.958  20.525  11.968
43744W        W 5165   5.277   9.190   2.255
43745W        W 5166  18.714   7.345  13.905
43746W        W 5167   7.224  31.067   1.321
43747W        W 5168   8.794  23.605  14.506
43748W        W 5169  41.895  19.252  11.416
43749W        W 5170  42.833  36.448   4.144
43750W        W 5171  38.396  20.739  12.938
43751W        W 5172  10.213   2.396  10.537
43752W        W 5173  30.086  13.721  12.400
43753W        W 5174  43.411   7.410   2.868
43754W        W 5175   9.210  37.996   1.286
43755W        W 5176  21.527  15.638  14.831
43756W        W 5177  17.210  30.118   2.326
43757W        W 5178  35.473   1.855   9.636
43758W        W 5179  35.578   1.309  12.077
43759W        W 5180   4.275  23.013   2.329
43760W        W 5181  35.527  43.382   4.632
43761W        W 5182  15.257  16.128   3.649
43762W        W 5183  33.552  38.022  12.829
43763W        W 5184  11.226  34.903   1.367
43764W        W 5185   0.982  22.605   3.285
43765W        W 5186   7.739  43.374  14.445
43766W        W 5187   6.330  32.593  14.864
43767W        W 5188   9.878  25.131   3.152
43768W        W 5189  18.753   0.453   1.705
43769W        W 5190   2.299  14.740   3.796
43770W        W 5191  44.777   7.703   4.249
43771W        W 5192  11.838  26.572   3.284
43772W        W 5193  41.988  13.330  13.527
43773W        W 5194   8.184  41.397  12.361
43774W        W 5195  20.245  28.466  10.954
43775W        W 5196  41.431   9.653   3.632
43776W        W 5197  16.183  28.129  14.354
43777W        W 5198   9.850  36.894   2.210
43778W        W 5199  35.047  23.663  12.083
43779W        W 5200   5.734  16.613  12.828
43780W        W 5201  19.718   6.268   2.295
43781W        W 5202  20.131  27.644   3.782
43782W        W 5203  13.214  39.044  10.069
43783W        W 5204  26.142  17.227   3.214
43784W        W 5205  12.851   3.860   4.154
43785W        W 5206  30.433  21.572  10.605
43786W        W 5207   9.746  18.649  13.875
43787W        W 5208  23.174  30.512  10.515
43788W        W 5209  29.527  19.195   1.700
43789W        W 5210  12.806  30.568   2.721
43790W        W 5211  26.540   6.189  12.491
43791W        W 5212  30.658   4.805  14.854
43792W        W 5213  23.552   7.178   2.854
43793W        W 5214  15.679  16.676  13.944
43794W        W 5215  26.515   8.272   4.729
43795W        W 5216  31.960  35.910   1.860
43796W        W 5217   1.944  24.618  13.911
43797W        W 5218  21.698   6.845   3.814
43798W        W 5219   5.397  39.481  11.402
43799W        W 5220   1.266  26.692  14.299
43800W        W 5221   1.764   5.209   0.473
43801W        W 5222  26.586   6.686  10.925
43802W        W 5223  35.365  17.102   1.929
43803W        W 5224   0.475  24.090   3.706
43804W        W 5225  23.176  39.878  12.426
43805W        W 5226  24.039  39.414   1.842
43806W        W 5227  16.174  36.996   0.806
43807W        W 5228  14.733  13.648   4.137
43808W        W 5229  40.367   3.836  13.546
43809W        W 5230  10.378  10.788  13.517
43810W        W 5231  21.150  41.041  13.521
43811W        W 5232   8.672  44.427   3.320
43812W        W 5233  17.123  23.138   3.641
43813W        W 5234  10.713  13.798  13.918
43814W        W 5235  42.860  38.530   1.390
43815W        W 5236  34.907   3.911   3.151
43816W        W 5237  36.469  37.017  14.790
43817W        W 5238  20.725  42.473  12.063
43818W        W 5239  37.018  28.516   3.181
43819W        W 5240  24.141  15.733   1.385
43820W        W 5241   6.860  18.127  13.922
43821W        W 5242  25.116  19.158  11.062
43822W        W 5243  20.751  18.635  12.921
43823W        W 5244  12.245  33.919   4.188
43824W        W 5245  41.866  10.248   4.295
43825W        W 5246  12.775  33.395   0.358
43826W        W 5247  16.748  29.110   3.742
43827W        W 5248  28.083  25.514   2.242
43828W        W 5249  33.961  15.129  10.505
43829W        W 5250  39.338  27.670  11.587
43830W        W 5251  27.662  31.610  12.529
43831W        W 5252  26.108  16.792   3.360
43832W        W 5253  22.195  33.037  14.433
43833W        W 5254   9.776  18.098  14.030
43834W        W 5255   1.862  32.593   4.642
43835W        W 5256  22.745   9.822   1.907
43836W        W 5257  36.950   2.353   3.215
43837W        W 5258  27.472  14.748  13.790
43838W        W 5259   0.895  36.495   4.785
43839W        W 5260  31.498   5.883   1.264
43840W        W 5261  27.174  31.618   3.777
43841W        W 5262  31.082  11.847  12.410
43842W        W 5263  23.201  27.105  13.473
43843W        W 5264   2.813  43.274   2.363
43844W        W 5265  34.556  34.043  12.400
43845W        W 5266  23.995  16.711  12.965
43846W        W 5267  37.559   7.872  10.610
43847W        W 5268  43.461  26.187   1.400
43848W        W 5269   7.222   3.296  14.898
43849W        W 5270  29.095   3.378  13.424
43850W        W 5271  25.512  37.569   1.825
43851W        W 5272  35.883  27.551   3.353
43852W        W 5273  21.048  44.432   0.287
43853W        W 5274  14.796  23.050   4.144
43854W        W 5275  43.472  26.184  10.915
43855W        W 5276  15.225  33.467  10.412
43856W        W 5277  12.809  17.246  14.790
43857W        W 5278  40.313  44.491  11.461
43858W        W 5279   1.883   5.333   4.809
43859W        W 5280   0.907   6.199   3.767
43860W        W 5281  42.346  26.132  11.529
43861W        W 5282  36.567  15.588  12.964
43862W        W 5283   8.704  28.979   2.180
43863W        W 5284   4.367   7.406  12.370
43864W        W 5285  11.682   5.825  12.557
43865W        W 5286  36.979   2.754  14.812
43866W        W 5287  17.602  25.579  11.885
43867W        W 5288  25.529  20.682   4.193
43868W        W 5289   2.442   0.285  13.479
43869W        W 5290   4.287  41.470  14.903
43870W        W 5291  40.499  33.990   0.383
43871W        W 5292  18.674  33.599   1.715
43872W        W 5293  36.470  41.404   2.300
43873W        W 5294   1.863  10.786   2.850
43874W        W 5295  40.375  20.113   2.247
43875W        W 5296  26.586  34.108   5.241
43876W        W 5297  10.320  44.828   4.719
43877W        W 5298  27.951   8.334   1.272
43878W        W 5299  10.309  41.865  14.912
43879W        W 5300  20.769  21.580   2.779
43880W        W 5301  40.408  34.551   4.183
43881W        W 5302  28.974  23.545  11.550
43882W        W 5303  18.698  41.864   3.798
43883W        W 5304  36.573  12.286  13.390
43884W        W 5305  32.417   4.341   0.395
43885W        W 5306  34.055  12.152   3.281
43886W        W 5307  20.057  36.933   1.892
43887W        W 5308   4.317  30.540  14.852
43888W        W 5309  15.182  41.313  10.434
43889W        W 5310  10.156  10.228   0.938
43890W        W 5311  18.293  11.191   4.173
43891W        W 5312  27.491   3.859   0.475
43892W        W 5313   3.732   8.661  13.375
43893W        W 5314   7.665   2.947  14.333
43894W        W 5315  29.146  28.105   1.893
43895W        W 5316  24.667  21.251   1.271
43896W        W 5317  28.976  42.953  13.314
43897W        W 5318   8.233   3.837   1.761
43898W        W 5319  22.094  26.478   3.358
43899W        W 5320  40.957  41.869   4.641
43900W        W 5321   8.191  33.026  12.986
43901W        W 5322   8.365  42.346   3.160
43902W        W 5323  13.231  21.154  14.322
43903W        W 5324   5.695  26.600  10.519
43904W        W 5325  22.578  29.021   0.436
43905W        W 5326   5.781  28.541   3.863
43906W        W 5327  12.327  25.097  12.514
43907W        W 5328  20.606  16.158  12.943
43908W        W 5329  33.499  37.995  12.461
43909W        W 5330  35.495  44.871  13.920
43910W        W 5331   5.804  19.678  11.499
43911W        W 5332  26.013  31.149  11.889
43912W        W 5333  20.191   5.848  14.019
43913W        W 5334  35.871   1.865   1.771
43914W        W 5335  13.641  30.656   0.837
43915W        W 5336  40.352  16.276  12.505
43916W        W 5337   9.356  34.012   2.788
43917W        W 5338   0.901  35.082  11.056
43918W        W 5339   5.812  13.195  12.056
43919W        W 5340  37.850  18.179  13.319
43920W        W 5341   9.690   3.930   2.403
43921W        W 5342   6.896  31.502   4.196
43922W        W 5343  44.848  34.414   4.148
43923W        W 5344   9.839  26.651   4.278
43924W        W 5345  24.560   7.876  11.990
43925W        W 5346   9.354  31.063  12.086
43926W        W 5347  18.593  32.634  14.022
43927W        W 5348  35.435  34.428  13.459
43928W        W 5349  32.019  39.818  10.627
43929W        W 5350  27.029  33.006   1.303
43930W        W 5351  28.177  30.608  10.612
43931W        W 5352  35.019  43.432  10.589
43932W        W 5353  32.477  28.633  13.499
43933W        W 5354  17.256  30.558  13.804
43934W        W 5355  22.213  33.993   3.348
43935W        W 5356  43.319   5.775   2.686
43936W        W 5357   0.342   9.789  11.524
43937W        W 5358  19.764  41.343   2.345
43938W        W 5359   0.799  35.579  11.107
43939W        W 5360  11.337  33.901   3.383
43940W        W 5361  29.627  27.070   2.270
43941W        W 5362  16.206  18.062  13.961
43942W        W 5363   4.842  11.332   3.684
43943W        W 5364   9.805   3.350  13.358
43944W        W 5365  36.901  36.842  12.490
43945W        W 5366  37.913  43.342   0.956
43946W        W 5367   9.207  44.503  12.512
43947W        W 5368  39.840  16.661  14.787
43948W        W 5369   6.717  23.665  10.567
43949W        W 5370  16.648  38.372  12.893
43950W        W 5371  25.020   8.687  13.005
43951W        W 5372  27.646  41.853   0.753
43952W        W 5373   1.938  40.911  12.881
43953W        W 5374  37.057  26.999  14.823
43954W        W 5375  11.355  16.265  11.015
43955W        W 5376  38.533  22.238  10.539
43956W        W 5377  25.559  30.135   2.339
43957W        W 5378   5.893  27.040   1.848
43958W        W 5379  37.507  16.201   1.354
43959W        W 5380  39.417  25.468   0.967
43960W        W 5381  19.273  30.070  14.415
43961W        W 5382  14.648  12.813   3.672
43962W        W 5383  22.668  30.479  13.929
43963W        W 5384  23.633  40.493  13.917
43964W        W 5385  32.044  29.949   1.428
43965W        W 5386   5.701  26.483   2.388
43966W        W 5387  19.268  25.082  14.013
43967W        W 5388  33.507   5.780  12.078
43968W        W 5389  38.887  26.956   1.235
43969W        W 5390  18.587  22.079   2.832
43970W        W 5391  28.944  24.186  13.428
43971W        W 5392  37.568   7.810   0.801
43972W        W 5393  17.292  37.977  12.484
43973W        W 5394   2.459   4.279  13.917
43974W        W 5395  23.984  12.617   0.956
43975W        W 5396  43.881  37.343   4.251
43976W        W 5397  22.119  22.618   4.717
43977W        W 5398  32.454   6.756   4.269
43978W        W 5399  15.630  16.731   1.826
43979W        W 5400  29.533  26.102  11.014
43980W        W 5401   6.196  15.624   2.797
43981W        W 5402  27.995  29.454   3.729
43982W        W 5403  32.058   1.949  13.517
43983W        W 5404  39.535  39.340  12.396
43984W        W 5405  10.224   0.404  14.323
43985W        W 5406  26.573   7.242   4.149
43986W        W 5407  34.385  42.454  12.865
43987W        W 5408  15.800   2.256   2.213
43988W        W 5409   1.289  15.327   3.359
43989W        W 5410  38.944  39.404   3.731
43990W        W 5411  19.241  24.080  11.401
43991W        W 5412  27.968  12.716  10.504
43992W        W 5413   8.732  24.087   0.894
43993W        W 5414  19.629  26.620   4.176
43994W        W 5415   5.401  21.155   2.288
43995W        W 5416   6.354  29.623   2.884
43996W        W 5417  13.302   4.442   4.127
43997W        W 5418  31.000  12.325  11.434
43998W        W 5419  13.722   3.825  12.372
43999W        W 5420   3.915  38.440  14.303
44000W        W 5421  32.401  10.366  10.891
44001W        W 5422  17.146  22.599   2.321
44002W        W 5423   5.715  18.717  12.527
44003W        W 5424   0.322   8.843   3.270
44004W        W 5425  38.922  11.147   0.731
44005W        W 5426  28.659  27.453  12.863
44006W        W 5427   6.280  10.187  14.398
44007W        W 5428  17.592  14.664   3.146
44008W        W 5429   3.292  41.389  11.415
44009W        W 5430  33.043   5.410  12.381
44010W        W 5431  17.234  38.876   2.681
44011W        W 5432  41.944   5.420  14.852
44012W        W 5433  31.968  38.370   1.308
44013W        W 5434  28.560  20.701   2.698
44014W        W 5435  22.741  23.601   9.987
44015W        W 5436  39.920   6.887  14.513
44016W        W 5437  18.238   9.819  14.323
44017W        W 5438   4.722  28.032  10.566
44018W        W 5439  44.378  37.400   3.324
44019W        W 5440  19.271  41.402   3.857
44020W        W 5441  23.728  16.791   0.442
44021W        W 5442  24.562  15.659   3.631
44022W        W 5443  15.181  36.365  10.613
44023W        W 5444   9.777   9.152   2.684
44024W        W 5445  11.766  21.757  12.033
44025W        W 5446  37.938   7.240   4.149
44026W        W 5447  42.781   3.940   5.220
44027W        W 5448  39.823  31.957   3.782
44028W        W 5449  20.616   8.305  12.542
44029W        W 5450  39.529  27.949   3.680
44030W        W 5451  14.095   6.199  14.793
44031W        W 5452   7.673  26.127   0.765
44032W        W 5453  36.495  37.494  13.491
44033W        W 5454  30.145  26.658  14.396
44034W        W 5455  11.276   1.740   0.900
44035W        W 5456   8.840  29.983  12.088
44036W        W 5457   2.888   9.828   4.235
44037W        W 5458   1.798  13.783   0.431
44038W        W 5459   1.278  34.026   5.749
44039W        W 5460   0.338  41.380   4.267
44040W        W 5461   0.279  35.904   3.652
44041W        W 5462  42.859  11.136  12.522
44042W        W 5463  43.469  25.619  12.422
44043W        W 5464  32.616  26.534   2.178
44044W        W 5465  42.309  33.122   0.261
44045W        W 5466  31.122   7.862  14.883
44046W        W 5467  33.952  32.968  10.580
44047W        W 5468  25.185  32.936  13.991
44048W        W 5469  36.440   1.344  11.392
44049W        W 5470  33.408   8.851   1.742
44050W        W 5471   4.818  35.587  10.432
44051W        W 5472  12.328  22.009  12.024
44052W        W 5473  10.845  38.013  10.917
44053W        W 5474  23.671   5.713  12.501
44054W        W 5475  44.789   7.236  11.471
44055W        W 5476   7.665  36.043  13.416
44056W        W 5477  12.199  29.463   2.806
44057W        W 5478  41.533  39.547  14.307
44058W        W 5479  22.055   2.723  11.121
44059W        W 5480  38.837   0.837   2.879
44060W        W 5481   3.946  43.828  11.072
44061W        W 5482   9.162   6.770  11.926
44062W        W 5483  21.097  32.527  10.453
44063W        W 5484  19.185  34.996   2.236
44064W        W 5485   1.244   9.871  12.511
44065W        W 5486  21.515  34.010   3.842
44066W        W 5487   4.287  24.645  11.916
44067W        W 5488   1.251  18.296  13.932
44068W        W 5489   8.335  35.579   4.317
44069W        W 5490   3.774  10.648  11.977
44070W        W 5491  32.394  25.173  14.432
44071W        W 5492  22.219   5.241  13.959
44072W        W 5493  22.077  43.357   3.755
44073W        W 5494  16.747  21.182   3.839
44074W        W 5495  44.305   6.801   1.322
44075W        W 5496  43.288   9.333   1.226
44076W        W 5497  40.497  11.320  13.838
44077W        W 5498  36.577  41.904  11.394
44078W        W 5499   9.198   1.265   2.788
44079W        W 5500  34.371  14.186   1.855
44080W        W 5501  39.969  38.907   0.885
44081W        W 5502  18.682  20.260   4.181
44082W        W 5503  23.094  14.292   2.299
44083W        W 5504   5.293   0.951  11.122
44084W        W 5505  20.053   7.907  11.463
44085W        W 5506   0.353  10.286  12.869
44086W        W 5507  18.231   1.412  13.475
44087W        W 5508  37.570   0.883   4.337
44088W        W 5509  44.483  30.032  10.518
44089W        W 5510   5.370  25.690   0.955
44090W        W 5511   3.904  44.360   3.202
44091W        W 5512  19.175  33.096   0.760
44092W        W 5513   1.897  41.903  12.897
44093W        W 5514  32.612  26.985  12.392
44094W        W 5515  12.819  24.526   2.277
44095W        W 5516  14.786  11.803  14.956
44096W        W 5517  25.046  20.761  13.972
44097W        W 5518  36.097  43.937   2.291
44098W        W 5519  30.910   5.281   0.799
44099W        W 5520  38.948  35.092   4.781
44100W        W 5521   3.411  22.229  10.414
44101W        W 5522  28.564  41.042   2.383
44102W        W 5523  11.710  34.081  12.874
44103W        W 5524  39.990  11.661   3.260
44104W        W 5525  23.566  13.694  13.383
44105W        W 5526  29.089  23.217   3.697
44106W        W 5527  14.175   3.865   3.660
44107W        W 5528  25.499  40.915  11.075
44108W        W 5529  14.225  15.088  12.521
44109W        W 5530  42.376  15.620   2.835
44110W        W 5531  19.265  31.601  11.420
44111W        W 5532   1.810  14.751   3.304
44112W        W 5533  16.706   9.748  13.970
44113W        W 5534  21.544   2.751  11.492
44114W        W 5535  13.333  24.585   0.280
44115W        W 5536  24.168  40.407   1.437
44116W        W 5537  42.323   1.301   0.351
44117W        W 5538  26.994  38.068   1.303
44118W        W 5539  34.037  34.441   0.839
44119W        W 5540  40.887  19.059   1.823
44120W        W 5541  28.932  27.629  14.352
44121W        W 5542  27.191  30.986   3.694
44122W        W 5543  29.918  11.814  12.452
44123W        W 5544   0.937  35.549   0.374
44124W        W 5545  40.042  21.241  14.870
44125W        W 5546  30.108  14.678   4.333
44126W        W 5547  13.725   1.866  14.887
44127W        W 5548  28.455  38.568  12.085
44128W        W 5549  30.489  10.156   2.702
44129W        W 5550  27.942  21.069   4.169
44130W        W 5551   8.751  38.892   1.718
44131W        W 5552   5.691  19.274  13.966
44132W        W 5553   4.884  10.370  14.467
44133W        W 5554  25.022  14.146  14.981
44134W        W 5555   7.685  17.609   3.736
44135W        W 5556   0.434   7.406  12.483
44136W        W 5557   8.349  36.541   0.372
44137W        W 5558   5.230  14.274  12.903
44138W        W 5559   7.207   4.243   1.835
44139W        W 5560  10.294  16.135  10.524
44140W        W 5561  42.426   5.806  13.847
44141W        W 5562   7.255  41.524  11.476
44142W        W 5563  38.524  37.464  10.542
44143W        W 5564  38.947   5.687   3.665
44144W        W 5565  11.255  11.354   3.783
44145W        W 5566   0.371  42.411   1.229
44146W        W 5567  38.051  10.250   4.672
44147W        W 5568  36.424   0.267   0.818
44148W        W 5569  23.124  35.096  12.569
44149W        W 5570  28.448  20.251  14.822
44150W        W 5571  24.101  21.688  13.888
44151W        W 5572  33.575   8.177  12.062
44152W        W 5573  19.654  22.606   3.345
44153W        W 5574   5.382  38.507  12.415
44154W        W 5575  22.563  40.520  11.381
44155W        W 5576   7.680  31.517  10.468
44156W        W 5577  21.257  15.719   3.688
44157W        W 5578  10.269  22.117   0.306
44158W        W 5579  28.580  38.959  14.500
44159W        W 5580  36.018   3.878   4.164
44160W        W 5581  32.436  34.047   2.741
44161W        W 5582   1.926   7.873  12.577
44162W        W 5583   8.706  44.291   4.297
44163W        W 5584  36.497  19.743   2.888
44164W        W 5585  36.979  16.656  10.403
44165W        W 5586   8.358  11.226   4.226
44166W        W 5587  35.068  35.105  11.991
44167W        W 5588  36.437   3.714   3.148
44168W        W 5589  19.249  33.020   3.338
44169W        W 5590  32.107  22.731   0.477
44170W        W 5591   1.971  16.078   0.774
44171W        W 5592  17.137  18.657  14.989
44172W        W 5593  10.706  24.118  11.542
44173W        W 5594  32.600  23.614  13.989
44174W        W 5595  37.544  38.466   1.892
44175W        W 5596  10.637  44.324  14.432
44176W        W 5597   1.801  24.699  14.846
44177W        W 5598  24.191  40.536  11.970
44178W        W 5599  32.939   3.874  14.404
44179W        W 5600  29.962  43.902  12.018
44180W        W 5601  43.348   1.338  14.395
44181W        W 5602  20.259  33.593  13.806
44182W        W 5603  16.178  42.293  12.902
44183W        W 5604  26.111   7.214  11.506
44184W        W 5605  41.803  31.608  14.297
44185W        W 5606  13.130  26.518   0.414
44186W        W 5607  43.452  34.538   4.319
44187W        W 5608   0.292  24.682  13.001
44188W        W 5609  12.262  31.456   1.276
44189W        W 5610   5.714  33.430   4.114
44190W        W 5611  34.978  42.796  13.904
44191W        W 5612  27.654   1.865   3.644
44192W        W 5613  22.999  25.698   3.249
44193W        W 5614   6.254  23.066   0.289
44194W        W 5615  27.962  25.060  11.381
44195W        W 5616  44.309   4.934  14.450
44196W        W 5617   4.769  30.982  12.480
44197W        W 5618  29.560   8.371   3.163
44198W        W 5619  31.632  35.359  10.889
44199W        W 5620  44.312  31.013  13.484
44200W        W 5621  11.722  24.036  14.890
44201W        W 5622   9.664   6.419  10.588
44202W        W 5623   7.878  24.644   2.820
44203W        W 5624  13.739  10.772  11.428
44204W        W 5625  44.384  19.700  11.391
44205W        W 5626  13.320   4.873   3.311
44206W        W 5627  11.655   3.421   2.758
44207W        W 5628   3.752  41.346   0.909
44208W        W 5629   3.431  23.656  13.864
44209W        W 5630  18.276  22.062  12.508
44210W        W 5631  21.233  25.077  12.076
44211W        W 5632  41.457  37.879  14.886
44212W        W 5633  34.536  30.096   0.376
44213W        W 5634  10.218   0.950   5.142
44214W        W 5635  12.277  20.148  10.963
44215W        W 5636   3.446  44.480   4.655
44216W        W 5637  39.989  28.990   4.257
44217W        W 5638  43.923   8.664   1.833
44218W        W 5639  15.256  11.736  11.389
44219W        W 5640  29.456  20.247  12.344
44220W        W 5641  40.871  41.298   2.682
44221W        W 5642  12.814  18.235   0.883
44222W        W 5643  44.339  23.541   3.370
44223W        W 5644  20.740  37.010   3.696
44224W        W 5645  22.632  38.057   4.642
44225W        W 5646   1.802  12.798   0.772
44226W        W 5647  16.725  11.229   4.231
44227W        W 5648  34.083  22.083  11.887
44228W        W 5649  20.653  34.562   3.801
44229W        W 5650  42.475  27.681   1.742
44230W        W 5651  26.071  25.699   0.847
44231W        W 5652   4.268  22.737   0.281
44232W        W 5653  26.051   6.209   0.826
44233W        W 5654  10.339  44.863  11.917
44234W        W 5655   7.734  12.644  11.004
44235W        W 5656  27.684  18.065   1.373
44236W        W 5657  24.577  19.590  14.868
44237W        W 5658  32.943  17.113  11.095
44238W        W 5659   2.745  38.409  10.494
44239W        W 5660   4.834  23.017  13.794
44240W        W 5661  21.660  19.611   4.830
44241W        W 5662  18.708  36.569  11.604
44242W        W 5663  40.379  12.143   2.245
44243W        W 5664   1.789   6.904   1.860
44244W        W 5665  16.091  22.110   0.894
44245W        W 5666  13.752   0.820  13.985
44246W        W 5667  33.980  20.085  13.993
44247W        W 5668  42.473  12.844   2.676
44248W        W 5669  12.665  28.965  14.278
44249W        W 5670   7.725   1.287   3.319
44250W        W 5671  33.568   5.399  10.637
44251W        W 5672   3.345   5.386   0.256
44252W        W 5673   6.679  33.551   3.709
44253W        W 5674  18.710  44.963   3.734
44254W        W 5675   7.905  44.460   0.335
44255W        W 5676   6.190  24.092   0.948
44256W        W 5677  22.734  37.066  13.341
44257W        W 5678  22.506  36.372   4.203
44258W        W 5679  15.232  30.142  10.624
44259W        W 5680  11.822  32.455  13.353
44260W        W 5681  34.463   4.339   1.235
44261W        W 5682   1.261   6.373   2.733
44262W        W 5683  14.334  24.122  13.355
44263W        W 5684   8.260   0.953  11.079
44264W        W 5685  32.440  19.772  10.889
44265W        W 5686  35.460  38.386   3.225
44266W        W 5687  28.560  35.101   2.240
44267W        W 5688   5.351  42.798   1.849
44268W        W 5689  44.371   7.391  14.811
44269W        W 5690  26.006  37.441   2.379
44270W        W 5691  16.680  40.397   4.804
44271W        W 5692   5.337  43.337   0.760
44272W        W 5693  42.028  30.081   4.164
44273W        W 5694  41.491  38.913  11.579
44274W        W 5695  17.237  26.689  12.972
44275W        W 5696  14.286  40.329  13.015
44276W        W 5697  44.975  13.628   3.155
44277W        W 5698  37.936  28.582  13.991
44278W        W 5699   7.820  29.444   0.847
44279W        W 5700  19.161   7.209   2.375
44280W        W 5701   8.322  29.964  13.988
44281W        W 5702   9.347  43.899   4.626
44282W        W 5703  24.167  13.667  12.559
44283W        W 5704  28.954   8.170  12.033
44284W        W 5705  32.481  42.856   3.211
44285W        W 5706   5.389  34.055   1.226
44286W        W 5707  38.429  41.443  11.051
44287W        W 5708   3.800  32.052  13.910
44288W        W 5709  36.363  10.150   1.715
44289W        W 5710  44.910  44.947  11.995
44290W        W 5711  29.153  15.736  11.524
44291W        W 5712  11.154  15.812  12.515
44292W        W 5713  15.735  17.607   1.839
44293W        W 5714  38.871  36.018  14.358
44294W        W 5715   2.258  15.169  11.438
44295W        W 5716  41.392   2.726   0.832
44296W        W 5717  33.027  34.088   2.267
44297W        W 5718  15.606  36.058   4.806
44298W        W 5719  15.257  30.603  13.018
44299W        W 5720  32.934  44.314   2.353
44300W        W 5721  24.692  22.113  10.462
44301W        W 5722  17.775   9.754  10.486
44302W        W 5723  33.420  25.167   3.337
44303W        W 5724  34.473   6.874   0.378
44304W        W 5725  24.602  20.205  12.972
44305W        W 5726  14.806  27.017  13.525
44306W        W 5727  10.730  31.935  12.407
44307W        W 5728  15.768  26.155  13.358
44308W        W 5729   6.855   6.919  10.462
44309W        W 5730  36.409  13.625   1.232
44310W        W 5731  34.939   7.769  11.953
44311W        W 5732   6.922   6.358  11.569
44312W        W 5733  25.113   8.900   2.754
44313W        W 5734   3.411  17.584  12.418
44314W        W 5735   8.394  10.144  12.935
44315W        W 5736  27.977   0.323  12.965
44316W        W 5737   7.764  11.807   5.275
44317W        W 5738  21.102  10.284  12.474
44318W        W 5739  31.944   4.407   0.823
44319W        W 5740  35.966   6.297  14.827
44320W        W 5741  11.709  26.129   4.273
44321W        W 5742  10.213  36.029  10.637
44322W        W 5743   4.804  22.012  14.459
44323W        W 5744  21.564  10.862  10.425
44324W        W 5745  27.597  41.442  12.986
44325W        W 5746  24.503  27.103  11.495
44326W        W 5747  32.518  23.640  13.504
44327W        W 5748  31.020  15.248  13.969
44328W        W 5749  30.991   6.911   0.467
44329W        W 5750  16.746  18.725  13.845
44330W        W 5751  32.425  44.787   4.354
44331W        W 5752  32.120  33.025   1.795
44332W        W 5753  44.436  23.543  13.505
44333W        W 5754  34.915  34.483   4.779
44334W        W 5755   7.187  27.992  12.879
44335W        W 5756   6.682  43.331  12.382
44336W        W 5757   7.880   7.721   4.290
44337W        W 5758  37.421  12.638   4.285
44338W        W 5759  31.412  44.883  13.435
44339W        W 5760  19.185  28.117   3.742
44340W        W 5761  22.088  16.672   9.979
44341W        W 5762  12.190  30.955   3.781
44342W        W 5763   8.257  13.275   4.800
44343W        W 5764   9.656  32.013   0.854
44344W        W 5765  25.592  29.458   4.674
44345W        W 5766  32.057  24.514  10.565
44346W        W 5767  35.001  13.314  11.581
44347W        W 5768  40.864  42.958   4.644
44348W        W 5769   5.910  34.554   1.773
44349W        W 5770  21.100   4.718  12.950
44350W        W 5771  20.141  15.190   9.563
44351W        W 5772  35.574  14.650   3.795
44352W        W 5773  32.937  14.757  10.493
44353W        W 5774  16.653  30.463   3.324
44354W        W 5775  15.213  13.106  13.947
44355W        W 5776  24.596   3.851   0.892
44356W        W 5777  26.105  33.591   3.751
44357W        W 5778  28.657  26.117   1.898
44358W        W 5779   2.408  13.737   1.324
44359W        W 5780  19.582   5.262  11.043
44360W        W 5781   0.323  10.713   2.735
44361W        W 5782  42.964  31.145   1.397
44362W        W 5783   1.422  24.639  11.463
44363W        W 5784  22.515  35.476  14.305
44364W        W 5785  18.656  23.729  13.501
44365W        W 5786  28.166  31.125   0.754
44366W        W 5787  21.080  10.792   4.678
44367W        W 5788  10.819  39.027   1.706
44368W        W 5789  12.250   6.320   2.865
44369W        W 5790  42.007  24.503  13.518
44370W        W 5791  22.532   4.336   4.156
44371W        W 5792  28.117  36.871  14.830
44372W        W 5793   8.785  17.586   1.870
44373W        W 5794  13.796   7.795  11.101
44374W        W 5795  22.236  25.095   3.646
44375W        W 5796   6.187   7.401  11.065
44376W        W 5797  18.237  31.567  10.523
44377W        W 5798  17.626  20.543   1.864
44378W        W 5799  11.623  36.432   3.843
44379W        W 5800   8.748  43.428   4.145
44380W        W 5801  19.148  25.090   2.273
44381W        W 5802  21.193  17.751  14.457
44382W        W 5803  18.707   6.348   4.149
44383W        W 5804   0.432   0.931  12.340
44384W        W 5805  35.543  38.383  12.364
44385W        W 5806  31.543  34.487  11.534
44386W        W 5807  27.548   4.719   2.347
44387W        W 5808  28.157  19.214  10.432
44388W        W 5809   5.409  33.944   0.347
44389W        W 5810  18.584  24.987  14.276
44390W        W 5811   6.892  23.713  13.376
44391W        W 5812  42.892  32.436   3.690
44392W        W 5813  41.964  33.904   1.249
44393W        W 5814   8.363   8.260  14.880
44394W        W 5815  32.424  28.009  12.018
44395W        W 5816  34.964  25.067  13.040
44396W        W 5817  17.153  28.061  14.284
44397W        W 5818   4.334   3.834   0.351
44398W        W 5819   1.408  13.205  11.105
44399W        W 5820  30.120   3.277  13.315
44400W        W 5821  19.654  22.546  13.038
44401W        W 5822  13.146  13.787   2.858
44402W        W 5823  27.006  21.176   4.342
44403W        W 5824  32.569  35.914   4.301
44404W        W 5825   4.396  38.492  14.384
44405W        W 5826  33.965  33.470  13.797
44406W        W 5827  44.948   3.373  11.902
44407W        W 5828  15.788   8.779  11.477
44408W        W 5829  24.151  40.994   3.219
44409W        W 5830  10.313   5.725   4.207
44410W        W 5831   5.302  33.028   4.147
44411W        W 5832   5.406  28.991   1.422
44412W        W 5833   6.904  26.583  12.421
44413W        W 5834  44.895  40.330   4.232
44414W        W 5835  29.157   2.892  12.061
44415W        W 5836  26.109  11.661  11.046
44416W        W 5837  28.127  44.393   5.103
44417W        W 5838   2.449  34.515  11.074
44418W        W 5839  38.370  29.486   4.833
44419W        W 5840   5.285  32.545  14.837
44420W        W 5841   5.275  33.008  12.825
44421W        W 5842  24.541   2.873   0.761
44422W        W 5843   3.344  11.714  12.972
44423W        W 5844  42.388  14.285  12.497
44424W        W 5845  22.237  26.099  13.427
44425W        W 5846   7.239  37.014   3.385
44426W        W 5847  11.655   1.260  12.029
44427W        W 5848  12.228  28.669  11.868
44428W        W 5849  21.064  33.613   1.700
44429W        W 5850   4.214  13.140  12.525
44430W        W 5851   2.249  22.711  12.950
44431W        W 5852  28.616  34.455  10.946
44432W        W 5853   6.686  16.280   0.915
44433W        W 5854   2.834  29.096  10.968
44434W        W 5855   2.891  28.561  11.120
44435W        W 5856  29.541  16.096  12.920
44436W        W 5857  18.295  17.133   3.177
44437W        W 5858  19.168  23.046  14.805
44438W        W 5859  12.626  39.038  13.838
44439W        W 5860   4.744  19.217   2.285
44440W        W 5861  33.464  42.489   0.405
44441W        W 5862  43.804   0.810  12.862
44442W        W 5863  19.266  38.526  11.903
44443W        W 5864  41.330  38.037  12.376
44444W        W 5865  44.383  38.451   3.718
44445W        W 5866   7.325  22.239  11.916
44446W        W 5867   4.704  26.010   1.902
44447W        W 5868  10.343  32.463  14.004
44448W        W 5869  35.359  40.808   4.313
44449W        W 5870  42.348  16.252   2.799
44450W        W 5871  22.216  24.691  11.937
44451W        W 5872  12.645   3.289   1.383
44452W        W 5873  42.469   9.198   4.124
44453W        W 5874  10.287   0.772   0.869
44454W        W 5875  36.865   3.304  10.591
44455W        W 5876   8.867  30.039  14.896
44456W        W 5877  11.622  31.456   4.655
44457W        W 5878  27.144  26.969  14.796
44458W        W 5879  35.382  14.173  14.832
44459W        W 5880  35.896  17.594   0.304
44460W        W 5881   2.889  16.576  10.582
44461W        W 5882  39.378  38.398   1.875
44462W        W 5883  21.658  16.787  11.908
44463W        W 5884   3.244  20.231   4.674
44464W        W 5885  44.004   6.920   0.842
44465W        W 5886  24.162   5.782  13.804
44466W        W 5887  24.486  23.997  13.918
44467W        W 5888  16.081   0.792   2.845
44468W        W 5889  18.227  10.855  11.563
44469W        W 5890  36.081  44.942   3.660
44470W        W 5891  16.076  10.273  14.815
44471W        W 5892  18.292   7.310   3.321
44472W        W 5893  11.797   3.451   3.181
44473W        W 5894  28.979   3.851  13.029
44474W        W 5895  32.508  24.631   4.143
44475W        W 5896  20.570  38.930   4.180
44476W        W 5897  35.573  18.610   4.647
44477W        W 5898  29.999  27.663   3.650
44478W        W 5899  36.588  27.570  12.989
44479W        W 5900  41.010  18.109  13.993
44480W        W 5901  21.713   8.382  11.069
44481W        W 5902  17.685  31.495  11.492
44482W        W 5903  11.756  42.888  14.284
44483W        W 5904  38.992  29.108   2.815
44484W        W 5905  24.511  19.537  13.850
44485W        W 5906  32.577  13.187  13.336
44486W        W 5907   5.824   3.939   1.260
44487W        W 5908   0.861  31.904  12.922
44488W        W 5909  23.214  37.962   2.380
44489W        W 5910   2.374  18.610   3.241
44490W        W 5911  11.177   8.255  12.340
44491W        W 5912  12.311  43.921   3.649
44492W        W 5913   7.378   5.243   3.723
44493W        W 5914  37.505  43.363   4.685
44494W        W 5915  33.081  25.080  12.470
44495W        W 5916  30.600  39.486  13.544
44496W        W 5917   4.292   6.199   5.131
44497W        W 5918  43.447  36.580  14.447
44498W        W 5919  43.934   7.721   3.842
44499W        W 5920  23.080  22.086  14.307
44500W        W 5921  37.914  27.479  14.009
44501W        W 5922  14.720   1.462  10.603
44502W        W 5923  14.104  10.381   3.776
44503W        W 5924  35.099  34.408   1.739
44504W        W 5925   0.820  42.352  13.529
44505W        W 5926   7.899   6.705   2.353
44506W        W 5927  34.468  20.198   4.269
44507W        W 5928  27.619   3.339   3.640
44508W        W 5929  17.642   9.688   0.469
44509W        W 5930  24.034   2.460   3.256
44510W        W 5931  36.437  30.103  11.576
44511W        W 5932  12.163  43.395   0.813
44512W        W 5933   5.796  29.018  11.916
44513W        W 5934  30.082  32.041   1.304
44514W        W 5935  16.653  43.504   0.355
44515W        W 5936  37.893  44.953  10.624
44516W        W 5937  29.502  37.369   2.732
44517W        W 5938  20.691   6.233  13.354
44518W        W 5939  25.551  19.671   0.352
44519W        W 5940  16.715  30.097   1.350
44520W        W 5941  24.625   0.975   1.390
44521W        W 5942   5.885  14.752   2.789
44522W        W 5943   1.751  11.278  13.348
44523W        W 5944   4.398  28.968   4.701
44524W        W 5945  30.463  37.479   4.818
44525W        W 5946   9.749  33.519  14.838
44526W        W 5947   7.221  44.976   0.402
44527W        W 5948  35.992  12.225   1.918
44528W        W 5949  36.433   6.214   3.290
44529W        W 5950  19.549   0.869   4.279
44530W        W 5951  35.471   2.826   2.281
44531W        W 5952  22.026   5.758  12.889
44532W        W 5953  21.574  40.800  13.816
44533W        W 5954   1.846  28.437   1.334
44534W        W 5955   1.876  23.065   1.441
44535W        W 5956  37.022  36.491  10.475
44536W        W 5957  13.614  27.498  13.509
44537W        W 5958  16.106  24.655  10.476
44538W        W 5959  15.820  22.666   2.714
44539W        W 5960  24.187  32.920  12.391
44540W        W 5961  24.539   0.438   3.744
44541W        W 5962   3.821  21.224   4.718
44542W        W 5963  20.134  44.789   3.784
44543W        W 5964  39.339  10.811   5.734
44544W        W 5965  34.882  40.801   3.755
44545W        W 5966  22.605  10.149   2.814
44546W        W 5967  33.398   6.720   1.410
44547W        W 5968   5.352  13.152  14.912
44548W        W 5969  19.608  40.851   3.821
44549W        W 5970   0.253   7.666  13.322
44550W        W 5971  15.300  12.639  10.637
44551W        W 5972  30.434  43.408   0.861
44552W        W 5973  20.565  14.592  12.937
44553W        W 5974  35.861  26.520  14.840
44554W        W 5975  32.473  37.386   2.303
44555W        W 5976  30.102  24.013   0.938
44556W        W 5977  38.486   3.885   2.309
44557W        W 5978  29.026   0.833  13.896
44558W        W 5979  25.533   4.724  14.834
44559W        W 5980  44.010  14.332  14.854
44560W        W 5981  16.799  16.648   3.275
44561W        W 5982  26.113  34.043   1.742
44562W        W 5983  10.853  14.274  12.087
44563W        W 5984  42.452  25.705  11.534
44564W        W 5985  10.647  28.114  10.022
44565W        W 5986  39.890  10.233  12.352
44566W        W 5987   1.423  16.708   3.843
44567W        W 5988   8.764  44.805   3.837
44568W        W 5989  28.507  11.293   4.662
44569W        W 5990  27.572  20.705  11.926
44570W        W 5991  35.964  23.988  13.058
44571W        W 5992  44.769  24.675   4.828
44572W        W 5993   8.818   6.348   5.283
44573W        W 5994  26.533  14.206   4.686
44574W        W 5995   0.932  17.177   5.260
44575W        W 5996  31.643   5.311  10.928
44576W        W 5997  14.122  30.572  13.437
44577W        W 5998   0.431  28.173   2.743
44578W        W 5999   3.888   1.736   5.100
44579W        W 6000  37.556  29.667  13.895
44580W        W 6001  38.834  38.379  12.894
44581W        W 6002  44.770   5.325   0.794
44582W        W 6003  15.756  16.723  12.980
44583W        W 6004  15.672   6.860   4.187
44584W        W 6005  20.030  38.999   5.243
44585W        W 6006   1.818   2.802   1.429
44586W        W 6007  23.218   2.742   3.683
44587W        W 6008  21.052  44.957  12.950
44588W        W 6009  31.431   3.798  12.499
44589W        W 6010   2.798  14.781   2.808
44590W        W 6011  36.030  27.552  11.086
44591W        W 6012  37.341  23.146   1.242
44592W        W 6013  28.160  30.052  10.510
44593W        W 6014  15.673  40.828   2.803
44594W        W 6015   6.297  13.121  11.002
44595W        W 6016  43.496  29.447  13.906
44596W        W 6017  37.976  24.105   2.395
44597W        W 6018  21.553  21.093   2.879
44598W        W 6019  13.746  22.029   2.280
44599W        W 6020  26.549   1.786  12.015
44600W        W 6021  10.830   8.344   0.302
44601W        W 6022  30.462   6.875   4.334
44602W        W 6023  41.833  42.475   4.156
44603W        W 6024  24.618  38.524   2.874
44604W        W 6025  38.921   9.873  10.607
44605W        W 6026  33.407  25.697  11.392
44606W        W 6027  30.628   7.723   0.327
44607W        W 6028  13.644  32.488  10.408
44608W        W 6029  37.933  35.997  12.847
44609W        W 6030  27.117  39.367   1.359
44610W        W 6031  27.666  18.092  12.071
44611W        W 6032  42.940  42.002   3.764
44612W        W 6033  18.552  39.849   4.713
44613W        W 6034  26.079  20.753  11.461
44614W        W 6035  41.014  32.438  11.049
44615W        W 6036  41.894  15.704  12.533
44616W        W 6037   4.268  30.910   1.378
44617W        W 6038  28.663  41.870  13.796
44618W        W 6039  30.617  42.385  14.468
44619W        W 6040  37.360  26.589   4.301
44620W        W 6041  40.838  24.613  12.558
44621W        W 6042  36.860  36.355  14.500
44622W        W 6043  36.032   6.202   3.765
44623W        W 6044  30.604  42.335   1.759
44624W        W 6045   0.477  26.049   3.189
44625W        W 6046  14.246  29.110   9.562
44626W        W 6047  32.016  20.049  14.848
44627W        W 6048  44.871   3.394   5.212
44628W        W 6049  26.188   3.801   3.249
44629W        W 6050   5.832   5.230  11.554
44630W        W 6051   4.427   5.759  14.991
44631W        W 6052  25.482  15.597  12.844
44632W        W 6053  36.057  26.695  13.929
44633W        W 6054  27.063  15.094  12.925
44634W        W 6055  20.088   7.206   1.818
44635W        W 6056  29.139   8.289  12.507
44636W        W 6057  24.118  44.977  11.410
44637W        W 6058  37.081  14.167  14.032
44638W        W 6059  28.468   8.169   3.646
44639W        W 6060  14.825   9.661   4.156
44640W        W 6061   2.901  21.743  12.890
44641W        W 6062  36.045  37.574  12.535
44642W        W 6063  17.676  17.234  10.943
44643W        W 6064  30.469   2.304   5.222
44644W        W 6065  22.193  13.336  12.493
44645W        W 6066  21.088  41.990  11.922
44646W        W 6067   1.864  40.341  11.555
44647W        W 6068  37.915  37.479   2.381
44648W        W 6069   4.705  11.247  13.466
44649W        W 6070  19.621  39.056  10.533
44650W        W 6071  33.470   0.826   5.271
44651W        W 6072  15.321  37.963  11.935
44652W        W 6073  31.915  39.005   5.254
44653W        W 6074  13.270  22.711   0.812
44654W        W 6075   7.858   9.178   0.407
44655W        W 6076   3.863  22.593   5.104
44656W        W 6077  13.153  25.076  13.335
44657W        W 6078  22.735   4.235   0.754
44658W        W 6079  40.906  40.438  11.525
44659W        W 6080  36.555  13.827  11.485
44660W        W 6081   3.235  16.200   1.745
44661W        W 6082  29.656   5.784  12.356
44662W        W 6083   2.247  39.465  10.950
44663W        W 6084  19.268  16.269   1.834
44664W        W 6085  24.179  14.330   0.938
44665W        W 6086  30.034  30.424  12.437
44666W        W 6087  15.581  12.748  10.020
44667W        W 6088  36.097  31.116   3.838
44668W        W 6089   7.263  27.087  14.840
44669W        W 6090  18.155   4.403  13.314
44670W        W 6091  23.209  40.434   9.986
44671W        W 6092  33.551  12.120  14.802
44672W        W 6093  11.821  35.940   5.191
44673W        W 6094  42.400  40.526  10.947
44674W        W 6095   2.861   9.790  13.540
44675W        W 6096  21.024  26.552   3.742
44676W        W 6097  37.968   4.796  13.860
44677W        W 6098  32.612  20.617  12.435
44678W        W 6099  24.028  37.906  14.805
44679W        W 6100   5.899  44.372   1.917
44680W        W 6101  42.021  16.644   0.888
44681W        W 6102  25.515  19.121  11.895
44682W        W 6103   8.224   5.913  12.539
44683W        W 6104  32.039  31.630   2.758
44684W        W 6105   6.207   6.351  11.107
44685W        W 6106  18.130  37.514  14.283
44686W        W 6107  41.313   7.286  11.547
44687W        W 6108  28.043  20.105   2.248
44688W        W 6109  27.137  20.574   4.183
44689W        W 6110  34.391  40.823  14.838
44690W        W 6111  14.139  18.292   3.216
44691W        W 6112  15.696  25.606   4.325
44692W        W 6113  40.909  18.269  11.073
44693W        W 6114  34.114  32.557   2.410
44694W        W 6115  11.648  11.279  11.480
44695W        W 6116  36.022  24.103  12.477
44696W        W 6117  15.127  25.158  11.126
44697W        W 6118   8.405   2.430  13.536
44698W        W 6119  27.680  30.620  11.535
44699W        W 6120   8.851  24.620   0.778
44700W        W 6121  31.053  33.886  11.401
44701W        W 6122   8.853  32.598  11.955
44702W        W 6123   1.772  16.199   5.094
44703W        W 6124   7.888  25.166  12.380
44704W        W 6125   4.897  31.474  14.419
44705W        W 6126  11.736  14.260  13.414
44706W        W 6127  42.882   5.926   4.230
44707W        W 6128  14.624  44.446  10.073
44708W        W 6129   2.941  30.657  14.892
44709W        W 6130   5.920  27.186   0.247
44710W        W 6131  41.471   2.319   4.295
44711W        W 6132  18.271  35.957  13.900
44712W        W 6133   6.369  32.890  14.862
44713W        W 6134  25.185   7.880  13.488
44714W        W 6135  24.193   4.704  10.913
44715W        W 6136  43.001  14.710  12.065
44716W        W 6137  42.791  44.447  11.425
44717W        W 6138   3.880  34.550  14.959
44718W        W 6139  40.350  35.920   0.349
44719W        W 6140  13.203   0.438   3.703
44720W        W 6141   5.771  30.116  12.898
44721W        W 6142  27.686  27.483   4.805
44722W        W 6143  26.978  28.152  10.096
44723W        W 6144  31.513  30.601   0.930
44724W        W 6145  26.672  13.807  14.356
44725W        W 6146   4.216  29.927  13.491
44726W        W 6147   5.855  22.674  12.984
44727W        W 6148  33.958  32.510   3.691
44728W        W 6149   1.926  31.616   4.756
44729W        W 6150  14.297   1.902   3.376
44730W        W 6151  22.123  30.922  12.903
44731W        W 6152  21.690   7.808   0.893
44732W        W 6153   3.233   3.391   3.198
44733W        W 6154  26.050  41.953   0.248
44734W        W 6155  21.737  44.901   4.234
44735W        W 6156  31.128   3.295  11.576
44736W        W 6157  10.808  30.429  10.576
44737W        W 6158  12.616  24.518  13.800
44738W        W 6159   0.882   1.350  10.634
44739W        W 6160  19.703  32.897   2.349
44740W        W 6161  34.596  26.157   2.209
44741W        W 6162  13.744  25.680   0.264
44742W        W 6163  13.328  24.622   3.245
44743W        W 6164  36.071  16.302   4.833
44744W        W 6165  25.090  18.548   1.911
44745W        W 6166  28.123  13.808  10.941
44746W        W 6167  31.600  22.204  12.351
44747W        W 6168  29.034   0.317   2.215
44748W        W 6169   9.265  10.215  13.432
44749W        W 6170  24.052  30.049  11.893
44750W        W 6171  27.027  24.493   4.771
44751W        W 6172  12.297  43.871   0.895
44752W        W 6173   8.266  14.316  11.996
44753W        W 6174  33.059  25.574  10.893
44754W        W 6175  18.643   8.223  13.487
44755W        W 6176  38.976  18.269  12.957
44756W        W 6177  29.011   4.330  13.431
44757W        W 6178  36.933  19.137   2.705
44758W        W 6179  43.899  33.490   3.645
44759W        W 6180  41.836  24.480  14.829
44760W        W 6181  12.828  10.286   0.744
44761W        W 6182  25.004  20.200   5.102
44762W        W 6183  28.638  23.539  12.864
44763W        W 6184  27.634  29.458   2.288
44764W        W 6185  11.678  14.140   2.207
44765W        W 6186  12.225  13.298   1.790
44766W        W 6187  44.757  26.562   4.273
44767W        W 6188  18.102   3.316   2.690
44768W        W 6189  19.097  43.781  11.389
44769W        W 6190  15.156  36.420  11.462
44770W        W 6191  38.957   3.914   0.792
44771W        W 6192  34.068  32.582   2.715
44772W        W 6193  37.856  27.621   4.127
44773W        W 6194  41.827  31.421   0.883
44774W        W 6195  23.989  23.536   1.290
44775W        W 6196   1.313  21.249  10.889
44776W        W 6197  36.421  11.129   3.723
44777W        W 6198   1.823   1.871   4.640
44778W        W 6199  21.101  14.649  12.381
44779W        W 6200  20.719   9.869   4.670
44780W        W 6201   7.194  21.228  14.859
44781W        W 6202   1.769  40.878   1.883
44782W        W 6203   9.225  11.791  14.507
44783W        W 6204  24.644  33.569  14.363
44784W        W 6205  38.436   4.934   4.192
44785W        W 6206  36.884   5.322  14.030
44786W        W 6207  29.566  43.936   2.727
44787W        W 6208   7.910  42.922   5.275
44788W        W 6209  26.651  15.245  12.898
44789W        W 6210  27.103   3.770   1.844
44790W        W 6211  37.433  19.541  14.510
44791W        W 6212  34.465  16.763   0.363
44792W        W 6213   5.933  36.090  12.906
44793W        W 6214  39.822  38.424  10.462
44794W        W 6215   8.373   5.775  11.976
44795W        W 6216  25.006  29.648   2.257
44796W        W 6217   8.686  37.881  14.343
44797W        W 6218   8.754  10.334  14.339
44798W        W 6219  35.432  29.938   0.311
44799W        W 6220  11.757   5.272   4.136
44800W        W 6221   4.855  21.044   4.243
44801W        W 6222  32.045  23.540  12.867
44802W        W 6223  28.042  34.427   3.659
44803W        W 6224   8.879  22.175   0.943
44804W        W 6225  41.994   1.761   3.182
44805W        W 6226  41.927  15.200   0.859
44806W        W 6227  22.655  21.079   3.682
44807W        W 6228  18.097   4.389  13.046
44808W        W 6229  42.445  30.629   4.300
44809W        W 6230  38.407  17.218  12.345
44810W        W 6231  11.792  27.650  14.826
44811W        W 6232  37.549  40.797   4.265
44812W        W 6233   0.755  21.565  13.539
44813W        W 6234  26.634  35.481  12.876
44814W        W 6235  20.245  21.536  12.965
44815W        W 6236  11.188  35.058  11.102
44816W        W 6237   4.258  31.519  14.946
44817W        W 6238   2.757  44.331   3.834
44818W        W 6239   4.309  36.091   3.759
44819W        W 6240  37.492  37.576   2.896
44820W        W 6241  21.520  32.012  12.029
44821W        W 6242  29.972  43.962   4.830
44822W        W 6243  36.539   5.758   2.846
44823W        W 6244  16.654  25.132   4.211
44824W        W 6245   6.775   2.900   1.844
44825W        W 6246  33.964  33.614  10.478
44826W        W 6247   0.284  33.112   0.423
44827W        W 6248   5.270  36.527  13.859
44828W        W 6249  15.107  20.162  13.327
44829W        W 6250  24.643  32.890   1.289
44830W        W 6251  17.197  26.065   2.709
44831W        W 6252  40.483  11.693  13.055
44832W        W 6253  43.486  10.675   0.268
44833W        W 6254   2.408  41.843   0.385
44834W        W 6255  43.304   2.421  12.975
44835W        W 6256  44.797  24.588  12.547
44836W        W 6257  15.121  40.449  11.418
44837W        W 6258  35.485  19.166  13.976
44838W        W 6259  18.059  17.277  14.877
44839W        W 6260   7.872  34.971  14.512
44840W        W 6261  35.943  27.186  10.533
44841W        W 6262  20.655  19.172  13.050
44842W        W 6263  41.443  32.945   0.745
44843W        W 6264   2.911   4.792  14.494
44844W        W 6265   9.196  28.541  11.056
44845W        W 6266   7.884  29.996  10.425
44846W        W 6267   2.880  35.541  14.879
44847W        W 6268  25.061   5.828   9.572
44848W        W 6269  11.185  33.009  10.519
44849W        W 6270  43.831  16.233  12.492
44850W        W 6271  41.038  32.562   1.380
44851W        W 6272   9.710  21.548   1.249
44852W        W 6273   9.739   4.434   1.786
44853W        W 6274   8.391   6.790   0.424
44854W        W 6275  31.093  16.646   0.463
44855W        W 6276   4.882  43.409  12.066
44856W        W 6277   7.191  29.637  11.449
44857W        W 6278  10.314  14.748  13.815
44858W        W 6279  43.992  21.115  13.858
44859W        W 6280   4.328  24.510   2.743
44860W        W 6281   0.962  40.445  10.097
44861W        W 6282  20.611  29.029   1.320
44862W        W 6283  10.205  36.449   3.225
44863W        W 6284  43.793   9.708  13.026
44864W        W 6285  42.807  10.327  12.980
44865W        W 6286  12.224  21.661  13.397
44866W        W 6287  22.109   8.801  13.928
44867W        W 6288  15.199  36.559   0.475
44868W        W 6289   8.187  19.155  12.962
44869W        W 6290  37.976  38.332   2.205
44870W        W 6291  18.671  30.524   0.923
44871W        W 6292  18.547  38.345   3.150
44872W        W 6293   0.288  26.698  14.368
44873W        W 6294   4.727  32.032   1.784
44874W        W 6295  34.480  18.251   2.293
44875W        W 6296   5.251  18.273   3.731
44876W        W 6297  36.465  34.990   2.771
44877W        W 6298  38.942  30.569   3.173
44878W        W 6299  16.294   8.847  11.374
44879W        W 6300  34.507  30.049   3.752
44880W        W 6301   1.425  14.222   2.883
44881W        W 6302   1.295  31.411   2.188
44882W        W 6303  41.483  12.817  12.890
44883W        W 6304   4.753  23.714  14.514
44884W        W 6305  29.449   9.290  14.858
44885W        W 6306  18.237  20.550  11.968
44886W        W 6307   3.312  29.575   1.763
44887W        W 6308  40.434  17.246  12.944
44888W        W 6309  39.042   4.942   1.828
44889W        W 6310  19.126  20.646  14.836
44890W        W 6311  31.454   4.373  14.485
44891W        W 6312  28.090  14.750   0.902
44892W        W 6313  42.887   7.334   4.114
44893W        W 6314  25.620  32.141  14.440
44894W        W 6315  13.250  26.549  12.491
44895W        W 6316  38.482   0.823   1.241
44896W        W 6317   0.798   3.299  11.394
44897W        W 6318  33.048  24.553  11.926
44898W        W 6319  44.939  37.509   3.160
44899W        W 6320  34.876   0.487  12.060
44900W        W 6321  33.586  36.997  13.812
44901W        W 6322  28.989   8.205  12.926
44902W        W 6323  36.585  26.580  14.808
44903W        W 6324   8.688  42.281   4.636
44904W        W 6325  42.460   2.833  12.853
44905W        W 6326  19.186  33.494  12.054
44906W        W 6327   5.211   6.253  14.339
44907W        W 6328  18.689  19.696  14.852
44908W        W 6329   8.188  34.900  12.037
44909W        W 6330  44.491  16.270  12.381
44910W        W 6331  28.627   1.967   4.147
44911W        W 6332  33.491  13.352   0.784
44912W        W 6333   0.367  30.023   0.393
44913W        W 6334  25.213  24.045   2.902
44914W        W 6335  21.758   1.251   2.811
44915W        W 6336  11.318  29.162  13.801
44916W        W 6337   2.905  19.551  13.890
44917W        W 6338  16.658  39.412  13.998
44918W        W 6339  33.505  20.073  11.603
44919W        W 6340   6.252   0.840   0.319
44920W        W 6341  23.054   8.890   0.935
44921W        W 6342  33.479  15.305   3.725
44922W        W 6343  23.128   5.818  13.865
44923W        W 6344  13.131  43.419  13.948
44924W        W 6345  44.425   1.340   4.683
44925W        W 6346   4.921  39.020   0.445
44926W        W 6347  38.992  22.683  14.897
44927W        W 6348  21.588  27.548   1.290
44928W        W 6349   2.784  11.168   0.738
44929W        W 6350  34.965  15.736  11.978
44930W        W 6351  42.912  15.168   2.811
44931W        W 6352  17.266  14.186   3.243
44932W        W 6353  32.023  28.177  12.856
44933W        W 6354  41.526  27.579  13.949
44934W        W 6355   9.809  10.789  14.799
44935W        W 6356  25.062  30.964  11.609
44936W        W 6357  37.339  18.736   0.771
44937W        W 6358  14.621  22.157  14.769
44938W        W 6359  24.513  39.434   0.754
44939W        W 6360  41.982  27.691   0.865
44940W        W 6361   8.261  28.107  14.405
44941W        W 6362   2.740  11.814   2.326
44942W        W 6363  25.585   6.401   3.858
44943W        W 6364  34.583  12.732   3.274
44944W        W 6365  39.910  36.416  11.893
44945W        W 6366  29.131   1.337  11.016
44946W        W 6367  31.932  20.753   2.887
44947W        W 6368  13.767  36.427   4.750
44948W        W 6369  10.319   8.804   1.698
44949W        W 6370  32.059  37.903   0.419
44950W        W 6371  21.549  20.629   2.838
44951W        W 6372  19.223  21.643  10.420
44952W        W 6373   6.760  41.819  12.044
44953W        W 6374  30.547  21.713  11.970
44954W        W 6375  30.633  27.163   2.185
44955W        W 6376  28.025  17.151  12.015
44956W        W 6377  43.911  26.032   0.419
44957W        W 6378  39.843  19.260  13.431
44958W        W 6379  37.418  23.689  10.516
44959W        W 6380  33.385  10.820  12.388
44960W        W 6381  20.142  37.930  14.817
44961W        W 6382   5.362  23.620   4.131
44962W        W 6383  44.772   9.314  12.533
44963W        W 6384  41.874  24.676   0.844
44964W        W 6385   4.793  18.628  11.093
44965W        W 6386  43.945  42.512   1.248
44966W        W 6387  30.089  20.758   0.416
44967W        W 6388  44.914  16.573   1.229
44968W        W 6389  34.549   4.252   5.677
44969W        W 6390  24.200  26.167  14.901
44970W        W 6391  15.738   7.250   2.360
44971W        W 6392  18.655  22.563  14.799
44972W        W 6393  36.389  21.731   1.909
44973W        W 6394  23.113  14.232  13.422
44974W        W 6395  20.129  16.296   2.312
44975W        W 6396  35.870  36.067   3.677
44976W        W 6397  21.207  25.609  11.434
44977W        W 6398  35.361  40.525   1.404
44978W        W 6399  32.899   3.746   3.862
44979W        W 6400  37.511   8.192  12.924
44980W        W 6401   9.795  38.326  10.146
44981W        W 6402  36.500  24.490  12.443
44982W        W 6403  28.434   5.371   4.626
44983W        W 6404  41.913   1.798  10.104
44984W        W 6405   3.437  14.269  14.789
44985W        W 6406   1.255  24.984   1.911
44986W        W 6407  12.251  15.809  13.043
44987W        W 6408  40.843  26.460  11.428
44988W        W 6409  18.276   8.242   0.933
44989W        W 6410   5.334   9.657   1.715
44990W        W 6411  25.974  44.315  11.072
44991W        W 6412   4.323  12.648  11.563
44992W        W 6413  26.088  21.711  11.498
44993W        W 6414   6.275  36.005   1.830
44994W        W 6415  11.739  44.759  11.539
44995W        W 6416  36.546   8.172   4.638
44996W        W 6417  44.885  44.328  14.945
44997W        W 6418  43.412   3.718  14.420
44998W        W 6419  13.751   1.261  12.928
44999W        W 6420  23.626  29.469  10.599
45000W        W 6421  35.480  27.631   0.960
45001W        W 6422  18.108  41.530   1.875
45002W        W 6423   7.239  12.693  11.044
45003W        W 6424   7.349   2.391  12.062
45004W        W 6425  31.038   3.286  14.427
45005W        W 6426  34.117   0.937  13.880
45006W        W 6427  12.676  17.301   0.349
45007W        W 6428  30.576  35.499   4.780
45008W        W 6429   7.196  37.007  11.534
45009W        W 6430  41.900  21.757  10.404
45010W        W 6431  12.308  22.084   2.767
45011W        W 6432  21.538  15.809  12.987
45012W        W 6433  42.900   2.874  13.836
45013W        W 6434  15.779  23.007  12.471
45014W        W 6435   1.413  42.349  12.999
45015W        W 6436  23.079  42.795  14.283
45016W        W 6437   2.784   2.892  13.061
45017W        W 6438  41.504  39.430   4.252
45018W        W 6439   4.783  39.937   4.817
45019W        W 6440  36.872  37.895  10.423
45020W        W 6441   6.816  24.497   0.472
45021W        W 6442  15.292  43.431  12.990
45022W        W 6443   1.859  35.370  12.066
45023W        W 6444  20.572  25.113  13.020
45024W        W 6445  36.010  18.235   0.814
45025W        W 6446   1.387  19.145   0.786
45026W        W 6447   0.336  23.605   4.293
45027W        W 6448  27.585   3.303   4.332
45028W        W 6449  37.546  40.020   3.215
45029W        W 6450  15.211  43.493  11.003
45030W        W 6451  40.947   8.168  14.423
45031W        W 6452   5.879  19.586   1.812
45032W        W 6453   2.248  30.562   4.159
45033W        W 6454  22.165   0.987  13.846
45034W        W 6455  10.753  44.843  11.945
45035W        W 6456  18.259  16.580   0.400
45036W        W 6457  36.917  40.933  13.478
45037W        W 6458  14.773  27.613   4.226
45038W        W 6459   6.896  35.500  10.598
45039W        W 6460  24.039   9.241   2.886
45040W        W 6461   7.326  42.318   0.248
45041W        W 6462  40.438  34.586  11.460
45042W        W 6463  18.283  29.450  13.389
45043W        W 6464  38.912  43.904   1.760
45044W        W 6465  39.954  23.043  11.079
45045W        W 6466  19.044  18.596   0.950
45046W        W 6467  34.890  12.156  13.453
45047W        W 6468   4.290  16.778  12.989
45048W        W 6469  28.079  19.584  14.917
45049W        W 6470   9.744  29.936   3.866
45050W        W 6471  21.088  27.653  14.759
45051W        W 6472  36.870  12.636   1.854
45052W        W 6473  11.175  14.681  13.948
45053W        W 6474   6.679  26.086  11.930
45054W        W 6475  23.092  28.167  12.373
45055W        W 6476  16.156  16.755   0.243
45056W        W 6477  19.565   2.317  10.563
45057W        W 6478   5.395   8.237  11.861
45058W        W 6479   5.384  27.685  13.466
45059W        W 6480  13.727  23.125   0.919
45060W        W 6481  37.838  30.539  14.315
45061W        W 6482  37.482  12.844   5.200
45062W        W 6483  41.795  43.893  10.594
45063W        W 6484  14.251   0.354  11.863
45064W        W 6485   7.249  24.201   2.794
45065W        W 6486  12.146  30.058   4.780
45066W        W 6487  21.256  18.177   0.848
45067W        W 6488  17.669  27.557   0.909
45068W        W 6489   5.839  35.466  11.886
45069W        W 6490  22.602  18.182   0.863
45070W        W 6491  15.279   1.400   0.312
45071W        W 6492   6.217  30.972   2.671
45072W        W 6493   4.847  44.417  12.454
45073W        W 6494   0.274   6.786   1.356
45074W        W 6495  17.117  21.571  14.856
45075W        W 6496  28.932  12.755  13.433
45076W        W 6497  36.378   7.417  10.493
45077W        W 6498  30.984  30.060  14.452
45078W        W 6499  27.478  38.464  14.420
45079W        W 6500  28.046  14.661  13.434
45080W        W 6501  43.995  15.321  14.467
45081W        W 6502  36.590  35.923   1.385
45082W        W 6503   5.878  43.959  14.770
45083W        W 6504  10.305  22.574  12.824
45084W        W 6505  28.186   3.311   5.192
45085W        W 6506   0.301  19.221   1.363
45086W        W 6507   1.238  27.166   0.379
45087W        W 6508   2.780  27.508  14.949
45088W        W 6509   7.238  28.991   4.275
45089W        W 6510  40.942  35.037  13.543
45090W        W 6511  35.988  27.197  12.059
45091W        W 6512   6.231   2.299   3.226
45092W        W 6513  19.626  12.796  12.021
45093W        W 6514  26.956  43.405  12.485
45094W        W 6515  27.003  11.737  13.336
45095W        W 6516  16.590   4.782   4.778
45096W        W 6517  38.014  20.141  11.109
45097W        W 6518   5.266  17.633   3.816
45098W        W 6519  34.520   9.704   3.807
45099W        W 6520  25.022  18.649   3.377
45100W        W 6521   9.259  30.491  10.597
45101W        W 6522  29.583  28.003  14.773
45102W        W 6523  30.523  39.059  13.977
45103W        W 6524   1.763  18.604   0.260
45104W        W 6525  35.861  10.766  10.940
45105W        W 6526  40.048  20.620  11.929
45106W        W 6527  37.067  17.669   4.812
45107W        W 6528  23.717  23.987   2.310
45108W        W 6529  15.658  26.570   3.745
45109W        W 6530   1.797  39.908  12.560
45110W        W 6531  34.988   5.801  10.634
45111W        W 6532   6.349  16.579   3.307
45112W        W 6533  35.518  27.607   2.903
45113W        W 6534  43.325   1.911  12.077
45114W        W 6535  10.232  10.351   2.768
45115W        W 6536  32.391  42.471  11.493
45116W        W 6537  21.122   8.817   0.919
45117W        W 6538   5.832  11.858   3.182
45118W        W 6539   2.399  23.214   3.189
45119W        W 6540  25.195  22.575   2.844
45120W        W 6541  23.586  19.654  11.459
45121W        W 6542  22.006  14.783   1.212
45122W        W 6543  38.894  14.709  11.900
45123W        W 6544  37.340  18.692  10.904
45124W        W 6545   3.889   0.758   1.916
45125W        W 6546  20.572   2.384  12.985
45126W        W 6547   0.297  41.010   2.883
45127W        W 6548  44.387  44.460   1.909
45128W        W 6549  17.229  43.404   3.374
45129W        W 6550  32.470  33.461   3.711
45130W        W 6551   5.320  31.021  13.890
45131W        W 6552  15.586  42.310  11.083
45132W        W 6553  26.633  40.987  13.851
45133W        W 6554  37.570   1.913  12.515
45134W        W 6555  42.032  38.897  13.437
45135W        W 6556  28.088  11.149   1.837
45136W        W 6557  32.472   1.950   5.173
45137W        W 6558  17.185  30.656   5.191
45138W        W 6559  38.366   4.255  10.601
45139W        W 6560  25.652  32.575   4.690
45140W        W 6561   1.309  41.398   3.664
45141W        W 6562  36.023  16.140  13.900
45142W        W 6563  21.571   2.915   2.264
45143W        W 6564  10.146  23.205   4.768
45144W        W 6565  30.487  22.048  10.513
45145W        W 6566   0.325  27.999   1.806
45146W        W 6567  17.227  35.501  10.957
45147W        W 6568  29.483  40.998   2.849
45148W        W 6569  15.772  38.571  14.457
45149W        W 6570  34.450  31.437  12.086
45150W        W 6571  39.997  37.853  12.381
45151W        W 6572  40.354  42.527  12.434
45152W        W 6573  12.333   3.240  12.517
45153W        W 6574  38.010  32.967   2.371
45154W        W 6575  28.076  21.212   0.450
45155W        W 6576   3.316  40.836  11.897
45156W        W 6577  36.843  21.098   2.666
45157W        W 6578   7.368  10.281  12.074
45158W        W 6579  40.458   2.375  12.052
45159W        W 6580   9.378  42.886   0.436
45160W        W 6581  27.618   8.395   3.285
45161W        W 6582  42.838  19.635  12.368
45162W        W 6583  35.968   2.812  12.946
45163W        W 6584  31.614  14.834   4.115
45164W        W 6585   1.940  26.628  12.836
45165W        W 6586  19.275  15.767   2.192
45166W        W 6587  35.376  27.004   2.238
45167W        W 6588  34.100  37.953   4.292
45168W        W 6589   2.395  36.412   0.762
45169W        W 6590  32.616   9.328   3.799
45170W        W 6591   5.846   7.366  11.995
45171W        W 6592  31.566  22.030  10.965
45172W        W 6593   1.477   3.433  10.895
45173W        W 6594  44.273  20.236   1.299
45174W        W 6595   0.344  23.169  11.507
45175W        W 6596  40.975  18.676  13.010
45176W        W 6597  35.932  18.702   0.966
45177W        W 6598  23.500   4.931  11.576
45178W        W 6599  44.920  30.468   3.174
45179W        W 6600   8.863  38.458   2.889
45180W        W 6601  13.715  41.905   4.817
45181W        W 6602  27.639  15.161  12.969
45182W        W 6603  29.921  18.655   2.792
45183W        W 6604  16.284   1.339  13.981
45184W        W 6605   1.428  37.340  12.894
45185W        W 6606  24.508  30.584   0.948
45186W        W 6607  44.261  28.446  10.572
45187W        W 6608  15.586  23.100  12.091
45188W        W 6609  35.874   6.251   0.916
45189W        W 6610   1.355  11.674   3.751
45190W        W 6611  44.290  16.222   1.438
45191W        W 6612  20.213  20.199  11.473
45192W        W 6613  34.945  11.709  13.358
45193W        W 6614  23.709  17.247  14.306
45194W        W 6615  33.384  41.343   9.968
45195W        W 6616  17.275  32.985   2.837
45196W        W 6617  32.055  29.931  13.967
45197W        W 6618  42.934  36.403   2.804
45198W        W 6619  39.422  37.966   4.141
45199W        W 6620  42.935   5.771  13.918
45200W        W 6621   5.244  29.530   3.197
45201W        W 6622  39.329  36.934   1.890
45202W        W 6623   8.323  25.044   1.319
45203W        W 6624  12.283  44.872   2.866
45204W        W 6625  34.592  42.784   1.314
45205W        W 6626  38.360  44.969   4.232
45206W        W 6627  42.347  31.463  10.432
45207W        W 6628  13.779  33.023   1.268
45208W        W 6629  34.915  16.653   2.265
45209W        W 6630  27.944  22.596  12.374
45210W        W 6631  37.518  36.027   1.345
45211W        W 6632  12.616  18.574   3.311
45212W        W 6633  10.279   6.713   3.353
45213W        W 6634  18.619  19.681   9.974
45214W        W 6635  11.257  23.500  11.091
45215W        W 6636  19.105  13.149   3.227
45216W        W 6637  42.416  10.339   0.296
45217W        W 6638  34.982  14.785  14.448
45218W        W 6639  24.723  26.471   3.685
45219W        W 6640  31.129  21.225  11.373
45220W        W 6641  30.516  42.363   0.906
45221W        W 6642  41.011  15.676  14.976
45222W        W 6643  40.439  41.911   3.182
45223W        W 6644  16.659  38.951  10.486
45224W        W 6645  40.908  39.526  14.873
45225W        W 6646  20.618   7.318   2.697
45226W        W 6647  23.153  36.379  12.870
45227W        W 6648   6.717  44.291  12.353
45228W        W 6649  25.627  27.983   2.367
45229W        W 6650  10.782  39.318   1.306
45230W        W 6651  16.710   0.264  12.533
45231W        W 6652  13.258  37.935   3.762
45232W        W 6653   2.823  42.515  12.879
45233W        W 6654   8.292  13.724   3.220
45234W        W 6655  43.359  34.076  10.943
45235W        W 6656  26.528  11.698   4.245
45236W        W 6657  13.131   5.844   4.644
45237W        W 6658  36.481  10.343  13.445
45238W        W 6659   0.964  34.975  12.966
45239W        W 6660   2.230  44.503   2.411
45240W        W 6661   4.903  20.086  12.509
45241W        W 6662   4.246   3.272  11.935
45242W        W 6663  43.342  33.073  14.483
45243W        W 6664  35.525   2.787  12.405
45244W        W 6665   0.779  29.038   4.173
45245W        W 6666   9.861  24.212  13.372
45246W        W 6667  34.901  34.391  13.796
45247W        W 6668   1.445  14.339  14.970
45248W        W 6669  42.467  17.285  13.466
45249W        W 6670  33.449   3.858   0.459
45250W        W 6671   2.312  25.642   1.378
45251W        W 6672  43.846  16.631  14.970
45252W        W 6673   4.300  14.625   4.304
45253W        W 6674  41.860  18.262  13.493
45254W        W 6675   0.340  29.595  10.956
45255W        W 6676  13.670  30.481  11.499
45256W        W 6677  19.102  29.023  13.360
45257W        W 6678  18.115  30.570  13.968
45258W        W 6679  15.228  40.829  11.086
45259W        W 6680  19.134  34.445   0.874
45260W        W 6681  27.191  25.529   2.852
45261W        W 6682   8.708  12.329   2.721
45262W        W 6683   2.749  30.622   0.337
45263W        W 6684  24.015  38.471  10.458
45264W        W 6685   9.213  26.050  12.885
45265W        W 6686  26.177   3.402  11.577
45266W        W 6687   6.789  42.988   0.928
45267W        W 6688   9.763  20.081   4.333
45268W        W 6689  31.614  10.757   2.196
45269W        W 6690   1.479  44.330  13.349
45270W        W 6691  38.415  35.999  11.074
45271W        W 6692  39.403  25.167  12.511
45272W        W 6693   7.700   3.712   9.951
45273W        W 6694  36.062  33.044   0.870
45274W        W 6695  14.220  35.900  10.409
45275W        W 6696   1.377  11.261  14.928
45276W        W 6697  43.491  32.907  12.839
45277W        W 6698   7.756  33.118   0.310
45278W        W 6699  29.668  38.935  14.325
45279W        W 6700  30.142  40.394  14.776
45280W        W 6701   8.668  38.968   3.164
45281W        W 6702  20.624  27.059   3.200
45282W        W 6703  44.783  43.361   3.653
45283W        W 6704  25.179  11.643   2.697
45284W        W 6705  27.160  16.615  13.963
45285W        W 6706   8.206  32.510  14.855
45286W        W 6707   3.913  29.942   3.849
45287W        W 6708  44.937   8.699  12.515
45288W        W 6709  32.071  25.632   5.119
45289W        W 6710  16.117  34.585  12.567
45290W        W 6711  19.778  39.030   2.248
45291W        W 6712  30.064  29.948  12.030
45292W        W 6713  42.465  10.693  14.771
45293W        W 6714  43.989   7.902  11.873
45294W        W 6715   1.463  32.508  13.837
45295W        W 6716  33.052  16.721  12.473
45296W        W 6717   7.391  17.624   4.316
45297W        W 6718  38.984  37.861   2.810
45298W        W 6719   4.741  39.348   2.361
45299W        W 6720  13.110   3.215  10.923
45300W        W 6721  34.526  19.568   1.749
45301W        W 6722  27.513  37.964   4.789
45302W        W 6723   2.862  17.207  10.948
45303W        W 6724  13.205  35.932  11.059
45304W        W 6725  30.162  16.158   2.371
45305W        W 6726  29.007  26.986   2.788
45306W        W 6727   2.260   2.293  11.588
45307W        W 6728  22.010  33.519  12.949
45308W        W 6729   3.725  12.272   4.246
45309W        W 6730   2.966  20.066   3.322
45310W        W 6731  24.220   5.806   3.191
45311W        W 6732  28.139  23.680   4.114
45312W        W 6733  27.553  44.884  13.820
45313W        W 6734   7.665   0.432  12.493
45314W        W 6735   3.825  21.593   2.758
45315W        W 6736  37.411   0.803  13.375
45316W        W 6737  38.035  32.511   4.328
45317W        W 6738  42.336  38.042   3.717
45318W        W 6739  35.884   8.847  12.546
45319W        W 6740   0.356  42.317  14.951
45320W        W 6741   6.277  13.126  12.388
45321W        W 6742  40.818   8.262  14.023
45322W        W 6743  10.173  17.241   4.620
45323W        W 6744   9.747  13.349  12.428
45324W        W 6745  19.707  22.222  11.606
45325W        W 6746  25.516  38.350  10.410
45326W        W 6747  20.068  33.991   3.844
45327W        W 6748  31.634  20.757  11.586
45328W        W 6749  33.036  11.849  13.030
45329W        W 6750  32.892  33.115  10.623
45330W        W 6751   3.416  21.230   5.239
45331W        W 6752  35.067  11.223   1.743
45332W        W 6753  21.104  34.546   3.818
45333W        W 6754  20.098  14.821   2.794
45334W        W 6755  24.561  39.995  12.845
45335W        W 6756   8.182  27.012   3.823
45336W        W 6757  28.514  40.441   4.225
45337W        W 6758  14.646  34.493   9.977
45338W        W 6759   3.406  14.208   3.278
45339W        W 6760  16.612  41.470   2.338
45340W        W 6761  22.021  16.209  14.877
45341W        W 6762  20.611  36.586   1.827
45342W        W 6763  32.062  31.628   4.669
45343W        W 6764  42.488   2.325   4.656
45344W        W 6765  10.674  28.563   2.770
45345W        W 6766  36.505  20.589  13.878
45346W        W 6767  33.484  28.622   0.454
45347W        W 6768  39.366  42.781  10.419
45348W        W 6769  35.449  25.482  14.478
45349W        W 6770  37.559   5.394  10.989
45350W        W 6771  39.523  20.146  14.793
45351W        W 6772   4.841  29.971   3.658
45352W        W 6773  28.535  39.915   3.726
45353W        W 6774   3.889  17.609   1.401
45354W        W 6775   4.875   1.747  12.394
45355W        W 6776  26.495  26.187   0.483
45356W        W 6777  37.383  17.125  12.091
45357W        W 6778   2.330  26.979   0.803
45358W        W 6779  20.663   0.436  13.791
45359W        W 6780  37.834   4.908   0.920
45360W        W 6781  34.987  26.560  12.367
45361W        W 6782   0.301  20.075  14.301
45362W        W 6783  31.412   9.295  11.077
45363W        W 6784  35.066  16.090  13.390
45364W        W 6785  28.539  16.642   2.757
45365W        W 6786   4.293  37.355   4.355
45366W        W 6787  22.056  28.514  14.389
45367W        W 6788  30.588  34.895  14.931
45368W        W 6789  23.173  23.153  11.990
45369W        W 6790  29.147  11.678   5.229
45370W        W 6791  39.839  36.932   4.739
45371W        W 6792  43.870   9.334   3.789
45372W        W 6793   1.301  22.080   1.890
45373W        W 6794  39.342  22.217   3.638
45374W        W 6795  14.289   8.321  11.502
45375W        W 6796  26.185  32.110  12.415
45376W        W 6797  27.018  34.894   0.445
45377W        W 6798  44.455  11.830   1.838
45378W        W 6799   2.867  26.636   2.871
45379W        W 6800  18.736  43.276  13.519
45380W        W 6801   1.309   1.409  11.519
45381W        W 6802  28.659   6.864   4.195
45382W        W 6803   9.334  24.672  13.856
45383W        W 6804   9.154  17.695  10.506
45384W        W 6805  43.890  28.622   0.252
45385W        W 6806  18.124  19.207   4.743
45386W        W 6807  16.614  14.193  10.601
45387W        W 6808  25.543  44.987   4.312
45388W        W 6809   6.267  15.662  10.998
45389W        W 6810  15.746  41.450  13.371
45390W        W 6811  42.994  31.913  13.339
45391W        W 6812  31.571  26.964   4.779
45392W        W 6813  26.471  16.663   3.283
45393W        W 6814   7.270  35.558  12.575
45394W        W 6815  13.114  11.326   2.415
45395W        W 6816   2.431  28.568   1.734
45396W        W 6817  42.844   3.445   0.967
45397W        W 6818  44.471   0.775   4.138
45398W        W 6819   1.269  36.561   0.333
45399W        W 6820   5.812   2.308  12.003
45400W        W 6821  21.157  12.681  14.872
45401W        W 6822   7.748  40.549  12.969
45402W        W 6823  39.466  39.923   4.838
45403W        W 6824  34.510  25.027  14.811
45404W        W 6825  13.227   5.851   4.148
45405W        W 6826  42.919  13.332   4.738
45406W        W 6827  12.656  41.398  11.587
45407W        W 6828  36.461  38.986   4.312
45408W        W 6829  40.834  42.880  12.457
45409W        W 6830  14.694  13.652  10.473
45410W        W 6831  15.783   2.270   0.851
45411W        W 6832  21.610  24.133  13.495
45412W        W 6833  26.026   6.765  10.584
45413W        W 6834  29.501   0.265   1.403
45414W        W 6835  42.856  41.881   4.728
45415W        W 6836   0.289  28.505  10.520
45416W        W 6837  12.143  25.619   0.246
45417W        W 6838  31.018  28.936   2.856
45418W        W 6839  31.071  29.592   1.267
45419W        W 6840   4.272  17.717  12.891
45420W        W 6841  10.265  44.495   0.850
45421W        W 6842   1.953  17.738  13.367
45422W        W 6843   5.321  12.644   2.891
45423W        W 6844  23.130  43.940   1.264
45424W        W 6845  25.552   0.820  12.449
45425W        W 6846  11.864   4.937   5.136
45426W        W 6847  36.088  25.203   2.258
45427W        W 6848  22.009  26.490  12.426
45428W        W 6849  12.651   7.780  13.523
45429W        W 6850  11.847  40.325  13.843
45430W        W 6851  12.746  32.123  13.309
45431W        W 6852  33.414  31.407  14.030
45432W        W 6853   9.335  32.973   1.446
45433W        W 6854  38.936  18.763  14.341
45434W        W 6855  38.909  27.067  13.872
45435W        W 6856  38.474  20.141   0.805
45436W        W 6857  22.016  33.386  10.616
45437W        W 6858   8.812  41.986   4.237
45438W        W 6859  15.587  26.005   3.638
45439W        W 6860  13.696  30.622   3.257
45440W        W 6861  12.823  15.631   4.640
45441W        W 6862  13.603   4.941   2.319
45442W        W 6863  22.533  30.955  11.553
45443W        W 6864   5.427  16.290  14.433
45444W        W 6865  36.349  13.135   4.699
45445W        W 6866  17.191  40.528  12.066
45446W        W 6867   7.709  30.959   0.764
45447W        W 6868  39.449  31.410  11.942
45448W        W 6869  17.707  30.956   1.745
45449W        W 6870  41.369   1.734  13.474
45450W        W 6871   8.735  18.749  12.517
45451W        W 6872   7.266  36.048  13.384
45452W        W 6873  37.966  29.519  11.454
45453W        W 6874  32.477  25.003  11.087
45454W        W 6875  33.927  35.969   1.717
45455W        W 6876  44.360  32.971   3.691
45456W        W 6877  10.339  19.650  12.930
45457W        W 6878   6.770  27.640   4.734
45458W        W 6879  13.674  29.458  13.335
45459W        W 6880  42.387   6.766  13.833
45460W        W 6881  32.587  25.519   2.235
45461W        W 6882   5.826  17.223  12.861
45462W        W 6883  23.997  39.462   4.786
45463W        W 6884  23.567  30.558   3.180
45464W        W 6885  35.040  30.570   0.425
45465W        W 6886   8.843  42.829   4.723
45466W        W 6887  34.919   2.238  12.000
45467W        W 6888   4.840  16.704  11.421
45468W        W 6889  42.896   6.338  11.477
45469W        W 6890   6.921   2.347   4.245
45470W        W 6891  26.085  26.965   1.335
45471W        W 6892  20.556  29.012   3.740
45472W        W 6893  30.539  35.105   3.671
45473W        W 6894  23.996  22.559   3.715
45474W        W 6895   4.868  11.771   2.272
45475W        W 6896  40.009  22.224   0.281
45476W        W 6897   4.303  35.917  11.518
45477W        W 6898  21.743  30.096   1.736
45478W        W 6899  43.469  27.454   0.483
45479W        W 6900  30.115  20.055  14.426
45480W        W 6901   2.764  44.763   0.471
45481W        W 6902  33.090   9.872   2.254
45482W        W 6903  21.208  29.044   0.790
45483W        W 6904  13.701  14.303   0.384
45484W        W 6905  16.077  42.985   2.273
45485W        W 6906  44.331  18.051   2.755
45486W        W 6907  33.499  34.554   4.732
45487W        W 6908   8.664  16.260   0.455
45488W        W 6909  10.693  17.648   3.766
45489W        W 6910  25.649  24.062  14.328
45490W        W 6911  16.794  22.234  14.799
45491W        W 6912  44.910  38.517  13.914
45492W        W 6913  11.817  43.933  11.448
45493W        W 6914  13.736  26.664  10.409
45494W        W 6915  16.610  38.491  11.064
45495W        W 6916   8.387  31.539  13.545
45496W        W 6917   1.388  15.639   0.917
45497W        W 6918  40.412  29.109   1.920
45498W        W 6919   2.943   4.894  12.951
45499W        W 6920  28.031   8.368  14.787
45500W        W 6921   6.896  15.086   2.685
45501W        W 6922  11.152  14.221  14.337
45502W        W 6923  44.490  14.298   2.691
45503W        W 6924  29.958  35.891  14.401
45504W        W 6925  38.566   9.371  13.913
45505W        W 6926   3.232  19.151  13.799
45506W        W 6927  15.113  33.081   4.742
45507W        W 6928  44.814  36.900   4.829
45508W        W 6929  13.132   3.216   2.843
45509W        W 6930   2.768  16.191  10.512
45510W        W 6931  38.073  23.528   0.381
45511W        W 6932   2.293  22.212  14.305
45512W        W 6933  24.990  40.361   1.733
45513W        W 6934  31.969   5.700  11.105
45514W        W 6935   8.893  37.414  14.437
45515W        W 6936  15.729  26.158  12.430
45516W        W 6937  15.235  31.587   4.780
45517W        W 6938  39.511  28.974   2.257
45518W        W 6939  27.965  11.277  11.393
45519W        W 6940  19.703  28.002   0.930
45520W        W 6941  42.326  33.569  13.503
45521W        W 6942  38.005   1.920  11.568
45522W        W 6943  23.515  21.109  10.994
45523W        W 6944  14.276  36.562   0.886
45524W        W 6945  43.319  12.223   9.492
45525W        W 6946  25.628  12.706  11.430
45526W        W 6947  21.196   8.693  10.999
45527W        W 6948  15.125  10.296  10.962
45528W        W 6949  25.119  11.701  14.980
45529W        W 6950  44.368  26.123  13.005
45530W        W 6951  13.272  20.113   4.174
45531W        W 6952  18.295  22.159   0.739
45532W        W 6953   8.243  44.430   0.746
45533W        W 6954   0.836  32.460   9.934
45534W        W 6955  25.660  39.321  12.541
45535W        W 6956   9.207  15.662   4.765
45536W        W 6957  31.026  29.156  14.409
45537W        W 6958  16.165  12.828   2.399
45538W        W 6959  15.297  39.036   1.358
45539W        W 6960  40.398   7.781  10.420
45540W        W 6961  24.149  17.767   0.289
45541W        W 6962  32.093   2.321   0.256
45542W        W 6963   7.418  32.592   1.873
45543W        W 6964   3.713  19.779  10.466
45544W        W 6965  13.135  44.373  11.448
45545W        W 6966  11.858  27.586  10.607
45546W        W 6967  42.982  37.835  11.095
45547W        W 6968   1.816  30.446   5.274
45548W        W 6969   6.269   7.911   3.802
45549W        W 6970  44.830  18.105   2.885
45550W        W 6971  19.220  10.777   2.858
45551W        W 6972  16.167  30.138  13.022
45552W        W 6973  30.995  15.761  11.892
45553W        W 6974  26.074  33.537  10.616
45554W        W 6975  12.312   0.931   1.330
45555W        W 6976  37.422  17.106   1.837
45556W        W 6977  28.140   3.748  13.821
45557W        W 6978  25.203   7.785   5.145
45558W        W 6979  34.040  18.146  14.992
45559W        W 6980  34.911  39.923  13.899
45560W        W 6981   8.683   7.769   0.260
45561W        W 6982   1.787  43.910  13.544
45562W        W 6983  14.255  42.861   1.846
45563W        W 6984  34.972  42.933   3.847
45564W        W 6985  33.120   6.301   2.852
45565W        W 6986  14.696  41.830  14.776
45566W        W 6987  35.552  27.666  10.538
45567W        W 6988   5.340  21.105   1.422
45568W        W 6989  38.445  32.441  11.405
45569W        W 6990   8.746  44.305  12.504
45570W        W 6991  29.936   6.223  11.552
45571W        W 6992  22.188   3.801  14.411
45572W        W 6993  20.605   9.883  13.341
45573W        W 6994  12.824   3.893  11.022
45574W        W 6995   4.232  29.163  12.940
45575W        W 6996  23.520  42.517   3.818
45576W        W 6997  44.455  42.830   5.237
45577W        W 6998  16.595  11.342  13.396
45578W        W 6999  21.180  13.323   2.296
45579W        W 7000  37.416  23.165   0.853
45580W        W 7001  38.069   8.864  14.008
45581W        W 7002  21.210  38.470  11.529
45582W        W 7003  14.756  44.786  14.438
45583W        W 7004  27.088  12.309  12.087
45584W        W 7005  26.668   4.753  11.606
45585W        W 7006   8.395  38.054   3.861
45586W        W 7007  34.087   3.461   3.274
45587W        W 7008  41.439  18.737   1.419
45588W        W 7009  43.822  34.581   2.882
45589W        W 7010  38.453  32.420   2.256
45590W        W 7011  19.076  16.627  11.947
45591W        W 7012   5.796  21.625  14.798
45592W        W 7013  12.644  25.113   4.250
45593W        W 7014  21.645  27.163   1.930
45594W        W 7015  37.424  12.334  11.504
45595W        W 7016  10.228  44.400   3.814
45596W        W 7017  42.028  21.579   0.459
45597W        W 7018  29.993  38.347  12.055
45598W        W 7019  15.703  14.649  13.057
45599W        W 7020  13.256  31.613  14.808
45600W        W 7021  10.729  43.359  12.443
45601W        W 7022  16.158  17.249   3.804
45602W        W 7023   1.914  33.542   0.935
45603W        W 7024  34.082  42.380   1.317
45604W        W 7025  24.064  37.365   4.697
45605W        W 7026  16.147   1.298   3.180
45606W        W 7027  29.578  40.315   2.406
45607W        W 7028  11.361  32.617   0.866
45608W        W 7029   4.776  38.364   4.296
45609W        W 7030  19.644  21.719   0.255
45610W        W 7031   8.379   8.665  13.318
45611W        W 7032  24.029  29.934  12.867
45612W        W 7033  34.456  40.850   2.332
45613W        W 7034  32.943  26.655   2.227
45614W        W 7035  43.296  22.139   4.214
45615W        W 7036  42.423  31.637  12.545
45616W        W 7037  30.650   1.739   5.241
45617W        W 7038   1.378  28.086   3.294
45618W        W 7039  33.578  18.075   1.932
45619W        W 7040  23.185   1.471  13.839
45620W        W 7041  25.644  23.500  14.798
45621W        W 7042  14.190  38.368   0.753
45622W        W 7043  42.406   7.298   0.416
45623W        W 7044  29.126  43.905   3.656
45624W        W 7045   9.659   5.424  14.285
45625W        W 7046  10.657   0.767   2.877
45626W        W 7047  35.993  12.267   3.169
45627W        W 7048   7.255  14.137   2.811
45628W        W 7049  26.022  28.471   2.770
45629W        W 7050  18.148   7.694  10.598
45630W        W 7051  41.912  15.806   1.317
45631W        W 7052  28.035  36.471   3.791
45632W        W 7053  14.687  24.185  11.502
45633W        W 7054  37.883   1.359   3.762
45634W        W 7055  10.151  38.348   3.327
45635W        W 7056  38.507  28.529  13.875
45636W        W 7057   1.374   3.903   1.729
45637W        W 7058  25.658  18.266   4.240
45638W        W 7059  11.353  37.903   1.439
45639W        W 7060  21.557   9.728   1.914
45640W        W 7061  17.068   8.699   2.740
45641W        W 7062  13.768  11.751   3.644
45642W        W 7063  39.544  37.068  12.993
45643W        W 7064   1.898  34.600   3.774
45644W        W 7065  34.917   3.263   3.290
45645W        W 7066  12.727   8.808  11.920
45646W        W 7067  44.786   2.739   3.270
45647W        W 7068  26.055  36.092   2.864
45648W        W 7069  43.936  18.258   4.306
45649W        W 7070  43.003   8.812  11.894
45650W        W 7071  14.130   8.718   4.729
45651W        W 7072  38.325  26.693   3.374
45652W        W 7073  35.508   2.810   0.264
45653W        W 7074   6.405  27.095  13.980
45654W        W 7075   6.220  33.451   5.233
45655W        W 7076   7.730  43.898   3.306
45656W        W 7077  38.364   9.310   3.181
45657W        W 7078  39.967  35.876   3.830
45658W        W 7079  28.116   5.223   3.661
45659W        W 7080  14.681  20.272  12.897
45660W        W 7081  43.933  35.576  10.992
45661W        W 7082  40.043  13.730   3.269
45662W        W 7083  28.524  35.589   0.941
45663W        W 7084  28.134   6.881   2.739
45664W        W 7085  13.744   0.777  10.971
45665W        W 7086  30.479  38.913   3.294
45666W        W 7087   1.445  28.521  13.928
45667W        W 7088   7.718  19.114  11.933
45668W        W 7089  43.309  21.141   0.793
45669W        W 7090  21.727  37.559   3.676
45670W        W 7091  13.310  30.051   3.311
45671W        W 7092   0.430  34.970  14.914
45672W        W 7093  14.176  26.605  13.019
45673W        W 7094  28.473  25.026   3.640
45674W        W 7095   9.246   7.218   0.729
45675W        W 7096   2.441   5.830   4.310
45676W        W 7097  14.742   3.431   5.165
45677W        W 7098   0.827  41.446  13.890
45678W        W 7099  29.070  16.793  12.841
45679W        W 7100  23.208  34.895  13.824
45680W        W 7101  12.358   4.283   4.174
45681W        W 7102  34.020   3.739   2.814
45682W        W 7103  27.606  25.663   4.148
45683W        W 7104  26.474  43.975  11.487
45684W        W 7105  12.257  16.807  10.436
45685W        W 7106  20.135  30.051  10.623
45686W        W 7107  19.548  11.759  10.139
45687W        W 7108  37.906  27.560   0.957
45688W        W 7109   8.713  17.091   1.258
45689W        W 7110   0.380   8.357   4.803
45690W        W 7111  28.536  29.668  11.477
45691W        W 7112  23.573   3.839   2.753
45692W        W 7113  33.985  13.828   2.790
45693W        W 7114  40.877   8.753   2.286
45694W        W 7115  43.343  42.389   2.870
45695W        W 7116   1.458  36.930  13.462
45696W        W 7117  41.806  42.488  13.870
45697W        W 7118  20.043  14.684  14.933
45698W        W 7119   4.801  42.410  11.570
45699W        W 7120  10.813  39.376  12.043
45700W        W 7121   7.810  18.264  12.068
45701W        W 7122  27.138  10.860  13.343
45702W        W 7123  14.260  43.001  12.471
45703W        W 7124   3.387  11.279  10.452
45704W        W 7125  10.240   6.685  10.410
45705W        W 7126  32.928  15.637   0.414
45706W        W 7127  20.184  18.676  13.472
45707W        W 7128   2.292  23.240   0.880
45708W        W 7129  37.575  18.679  12.542
45709W        W 7130  21.129   0.938  12.934
45710W        W 7131   5.707   8.726   3.355
45711W        W 7132  27.620  32.467   0.381
45712W        W 7133  13.194  43.851   0.482
45713W        W 7134  32.622  25.468   0.884
45714W        W 7135   5.234  20.734   0.856
45715W        W 7136  38.432  38.437   0.308
45716W        W 7137   5.236   5.785  11.413
45717W        W 7138  37.363   9.174  14.455
45718W        W 7139  10.327   3.381  12.524
45719W        W 7140  13.626  32.969  11.971
45720W        W 7141  10.725  35.090  14.383
45721W        W 7142   5.888  31.639   2.190
45722W        W 7143  20.646  16.212   3.781
45723W        W 7144  22.046  38.885   1.813
45724W        W 7145   3.311  30.591  12.368
45725W        W 7146  42.805  32.516   2.389
45726W        W 7147  13.664  40.946  10.588
45727W        W 7148  15.271  15.161  11.425
45728W        W 7149  13.824  11.321  10.593
45729W        W 7150  36.580  35.510   2.806
45730W        W 7151  34.497   4.369   4.780
45731W        W 7152   9.887  40.549   3.247
45732W        W 7153  20.565   6.357   0.409
45733W        W 7154  27.941  15.252  13.426
45734W        W 7155  11.241  24.504  13.452
45735W        W 7156  40.043  38.001  11.859
45736W        W 7157   6.401  30.074  10.453
45737W        W 7158  43.431  18.089   4.342
45738W        W 7159  43.478  19.764   1.884
45739W        W 7160  27.149  37.936  12.558
45740W        W 7161  38.531   6.393   3.360
45741W        W 7162  24.679   5.420  12.982
45742W        W 7163  43.928   5.391  13.523
45743W        W 7164  43.478   8.264  12.000
45744W        W 7165   9.347   0.789  11.009
45745W        W 7166  24.216   8.832   2.223
45746W        W 7167   3.710  41.485  14.963
45747W        W 7168  38.878  44.987   3.221
45748W        W 7169   5.219   9.734   2.721
45749W        W 7170  28.963  19.255   3.703
45750W        W 7171  15.803  38.010   4.267
45751W        W 7172  19.086  33.013   2.671
45752W        W 7173   1.478  10.221  11.901
45753W        W 7174  25.033  20.228  14.840
45754W        W 7175  31.578   7.250   3.814
45755W        W 7176   9.816  38.061  10.478
45756W        W 7177  32.422  15.656   4.237
45757W        W 7178  30.456  25.696   2.776
45758W        W 7179   5.271  34.970  12.833
45759W        W 7180   4.855  32.039  10.584
45760W        W 7181  11.655  23.071   2.782
45761W        W 7182  20.555  24.653  11.067
45762W        W 7183  20.267  18.678   3.779
45763W        W 7184  16.762  16.286   3.821
45764W        W 7185  25.573  24.049  11.458
45765W        W 7186   4.246   8.737   3.293
45766W        W 7187  10.341   6.834  14.327
45767W        W 7188   4.211  27.545   1.310
45768W        W 7189   9.378  22.067   0.380
45769W        W 7190  22.072  27.508   3.755
45770W        W 7191  32.439   6.716  12.001
45771W        W 7192  38.455  27.103  12.527
45772W        W 7193   3.716   8.275  14.811
45773W        W 7194  21.196  12.641  11.479
45774W        W 7195  44.326  39.319  12.445
45775W        W 7196  31.612  28.060   0.447
45776W        W 7197  12.686   6.815   1.763
45777W        W 7198  16.201   1.449   2.861
45778W        W 7199  28.009  34.936  14.850
45779W        W 7200  10.632   1.853   5.244
45780W        W 7201  29.966   0.424   4.735
45781W        W 7202  34.489  23.606  13.376
45782W        W 7203  13.767   7.182   1.238
45783W        W 7204  12.832  12.255  11.555
45784W        W 7205   4.754  26.068   3.153
45785W        W 7206  18.250   8.850  13.464
45786W        W 7207   0.939  40.019  14.501
45787W        W 7208  10.808  16.635  11.499
45788W        W 7209  11.668  34.066   3.147
45789W        W 7210  13.138  25.668   4.827
45790W        W 7211   9.309   4.403  13.545
45791W        W 7212  41.920  32.983   4.803
45792W        W 7213  37.071  40.344   0.406
45793W        W 7214  17.150  10.823  13.047
45794W        W 7215   1.978   7.823  12.837
45795W        W 7216   7.792  33.603   3.651
45796W        W 7217   4.927  37.844  11.117
45797W        W 7218  27.568   1.383  13.008
45798W        W 7219  20.150  11.643  13.049
45799W        W 7220  25.687  44.839   1.294
45800W        W 7221  38.999   6.327   1.381
45801W        W 7222   0.455  38.058  10.407
45802W        W 7223  26.632   0.292  13.024
45803W        W 7224  25.129  23.177  14.873
45804W        W 7225  10.383   3.882   2.742
45805W        W 7226  22.201   9.268  14.880
45806W        W 7227  10.642   6.717   0.292
45807W        W 7228   4.944  43.493   3.732
45808W        W 7229  20.651   8.311   2.288
45809W        W 7230  44.404  44.383   3.286
45810W        W 7231   4.915  17.714  13.477
45811W        W 7232   8.655  20.173   4.135
45812W        W 7233  28.121  18.082  13.909
45813W        W 7234   4.271  15.666  13.518
45814W        W 7235  22.174   4.920   0.413
45815W        W 7236  26.600   9.165  12.076
45816W        W 7237   9.365  16.650  10.896
45817W        W 7238   6.229  12.168  13.992
45818W        W 7239  35.547  29.089   0.447
45819W        W 7240   3.891  35.406   3.722
45820W        W 7241  32.050  21.019   0.964
45821W        W 7242   2.339   5.818  14.900
45822W        W 7243  10.830  26.600   0.849
45823W        W 7244   2.318  35.519   2.698
45824W        W 7245   0.817  28.591  12.957
45825W        W 7246  42.856  28.051   2.335
45826W        W 7247  22.008  26.069  11.049
45827W        W 7248  18.106  35.108   4.604
45828W        W 7249  35.885  31.559  13.851
45829W        W 7250  35.015  20.093  13.825
45830W        W 7251  37.058  26.115   0.857
45831W        W 7252  40.803  26.201   2.700
45832W        W 7253  18.153  12.821  10.115
45833W        W 7254   2.416   9.648   4.283
45834W        W 7255  30.530  33.399  13.845
45835W        W 7256  30.939   8.672  11.579
45836W        W 7257  37.846  41.911   3.199
45837W        W 7258  25.533   8.791   0.399
45838W        W 7259  14.701  33.886  13.833
45839W        W 7260  33.132  35.043  14.359
45840W        W 7261  10.717   3.452   2.764
45841W        W 7262  36.573   0.460  11.523
45842W        W 7263  15.698  34.451  13.031
45843W        W 7264  43.399  10.737  11.038
45844W        W 7265  39.314  31.552  10.533
45845W        W 7266   4.781   4.322  12.849
45846W        W 7267   1.343  19.222  14.881
45847W        W 7268   7.291  15.209   1.760
45848W        W 7269  42.870  21.200   4.250
45849W        W 7270  28.587   0.942   4.281
45850W        W 7271  21.017  28.440  11.437
45851W        W 7272  29.637   7.779  10.498
45852W        W 7273  11.621   7.386  11.913
45853W        W 7274   6.709  10.769  13.348
45854W        W 7275  23.162  14.266   3.343
45855W        W 7276  41.881  39.508   4.635
45856W        W 7277   1.799  33.478  14.384
45857W        W 7278  10.305   2.353  14.357
45858W        W 7279  22.577   0.935  10.569
45859W        W 7280   9.369  37.426   4.821
45860W        W 7281   3.807  24.165   0.953
45861W        W 7282  41.878   0.421  11.025
45862W        W 7283  13.168  12.851   2.358
45863W        W 7284  36.502   7.226  11.957
45864W        W 7285  26.116  40.387  12.967
45865W        W 7286   1.259  38.887   1.391
45866W        W 7287  27.121   4.917  11.087
45867W        W 7288  18.759  32.559  14.482
45868W        W 7289  16.230   5.844  12.934
45869W        W 7290   8.887   4.389  11.436
45870W        W 7291  44.837   9.686   2.774
45871W        W 7292   1.462  35.443  13.866
45872W        W 7293  21.180   4.390   1.391
45873W        W 7294  28.945  21.657  13.046
45874W        W 7295  21.042  15.770   0.303
45875W        W 7296  42.778   0.764   3.287
45876W        W 7297  42.878   5.932   2.201
45877W        W 7298  15.123  42.406  14.448
45878W        W 7299  17.167  28.600   2.768
45879W        W 7300  16.294  38.493   2.758
45880W        W 7301  37.351  16.266   4.317
45881W        W 7302  28.468  44.823   1.926
45882W        W 7303  23.544  20.640   1.227
45883W        W 7304  35.435  41.484   2.734
45884W        W 7305  36.567  43.817  11.504
45885W        W 7306  34.959  25.578  13.540
45886W        W 7307  24.119  20.647   2.369
45887W        W 7308  43.806  39.052   3.661
45888W        W 7309  17.630  41.334  12.346
45889W        W 7310  40.860   5.410   2.868
45890W        W 7311   0.824   1.293   1.367
45891W        W 7312  40.984   4.404  13.824
45892W        W 7313  36.381   3.786   3.665
45893W        W 7314  31.005  10.759   0.473
45894W        W 7315  37.074  42.423  12.991
45895W        W 7316  22.595  41.981  11.023
45896W        W 7317  37.023  24.055  14.947
45897W        W 7318  20.550  31.062   1.708
45898W        W 7319  41.375  26.127  14.946
45899W        W 7320  18.766  19.180   1.794
45900W        W 7321  21.659  36.975   1.241
45901W        W 7322  20.131  41.326  11.077
45902W        W 7323  41.959  44.465   1.227
45903W        W 7324  13.728  23.596   2.760
45904W        W 7325  37.982   8.249  13.462
45905W        W 7326  26.482  22.644  13.863
45906W        W 7327  22.080  41.824  10.475
45907W        W 7328  21.681  17.746   5.741
45908W        W 7329   9.316  10.341   2.689
45909W        W 7330  44.390  29.923  13.957
45910W        W 7331  22.141  19.122  12.076
45911W        W 7332  23.238   3.355   1.729
45912W        W 7333  22.536  44.435  13.869
45913W        W 7334  31.582  31.570  11.932
45914W        W 7335  19.651  31.419  12.029
45915W        W 7336  11.855   6.707  10.980
45916W        W 7337  28.049  23.066  14.810
45917W        W 7338  19.044  40.304  10.998
45918W        W 7339   2.261  43.982   2.296
45919W        W 7340  34.533  24.168  14.461
45920W        W 7341   8.872  36.450  10.955
45921W        W 7342  38.419  17.233   0.894
45922W        W 7343  16.103  42.917   0.383
45923W        W 7344  12.831   0.436  14.023
45924W        W 7345  35.969   9.819   4.199
45925W        W 7346   2.730  16.796   0.306
45926W        W 7347  20.268  39.899  14.901
45927W        W 7348  35.583  17.586  14.400
45928W        W 7349  15.234  11.319   0.338
45929W        W 7350   6.893  27.075   1.218
45930W        W 7351  30.983  32.428   4.153
45931W        W 7352  33.073  34.083   2.891
45932W        W 7353  14.596  35.071   2.676
45933W        W 7354  29.005  40.407   3.692
45934W        W 7355  23.179   0.876   0.826
45935W        W 7356  33.101  41.909   3.633
45936W        W 7357  20.102   3.358   0.964
45937W        W 7358  22.716   6.693  12.855
45938W        W 7359  20.190  35.921   5.253
45939W        W 7360  28.972  16.625   1.289
45940W        W 7361  28.077  25.996   3.859
45941W        W 7362  11.656  37.443  12.090
45942W        W 7363   4.394  26.165  13.362
45943W        W 7364   2.461  14.188  13.321
45944W        W 7365  28.138  17.279   2.359
45945W        W 7366  22.082   7.854   2.805
45946W        W 7367  37.396  11.222   4.659
45947W        W 7368  44.313  15.099   4.328
45948W        W 7369  36.557  14.822   3.858
45949W        W 7370  41.953  39.333  14.304
45950W        W 7371   0.843  13.825  12.535
45951W        W 7372   9.215  12.276  11.422
45952W        W 7373  16.256  25.078   4.311
45953W        W 7374  20.544   0.904  11.513
45954W        W 7375   5.265  42.803   3.711
45955W        W 7376  44.768  15.820  10.416
45956W        W 7377  34.013  39.052  14.979
45957W        W 7378  16.622  22.667   0.347
45958W        W 7379   4.890  10.320   4.235
45959W        W 7380  18.779   1.872  14.801
45960W        W 7381   2.458   5.756  13.988
45961W        W 7382  30.022  32.504   4.833
45962W        W 7383  40.421  44.485  14.858
45963W        W 7384  11.189   6.342  13.423
45964W        W 7385  20.763   4.380  11.506
45965W        W 7386   9.875  42.474  13.515
45966W        W 7387   6.899  37.514   4.138
45967W        W 7388  41.483   2.353  11.522
45968W        W 7389  31.566  41.942  14.455
45969W        W 7390  23.115   8.272   1.418
45970W        W 7391   9.684  42.377   1.906
45971W        W 7392  29.483  24.653  12.034
45972W        W 7393  35.455  34.935  13.876
45973W        W 7394   2.323   9.763   3.329
45974W        W 7395   1.801  39.471  11.102
45975W        W 7396  38.388   9.807  12.847
45976W        W 7397  31.974  27.568  10.527
45977W        W 7398   2.264  30.081  11.404
45978W        W 7399   3.226  32.557  14.321
45979W        W 7400  15.109  35.981   0.453
45980W        W 7401   9.164  11.833  11.608
45981W        W 7402  29.624  34.551   0.401
45982W        W 7403  24.720  40.347   2.200
45983W        W 7404   8.192  25.712   3.837
45984W        W 7405  14.204   5.833  11.066
45985W        W 7406   9.163  18.217  14.951
45986W        W 7407  39.509  12.811  12.013
45987W        W 7408  25.097  41.814   5.196
45988W        W 7409  15.188  10.689  12.048
45989W        W 7410  42.503  44.903  11.404
45990W        W 7411  30.568  31.057   1.424
45991W        W 7412   4.722  27.173  14.026
45992W        W 7413  31.054  23.596   0.311
45993W        W 7414  43.828   0.317   4.655
45994W        W 7415  18.718  39.494   2.345
45995W        W 7416  14.647   2.785  12.535
45996W        W 7417  27.519  42.318  14.931
45997W        W 7418  32.897  19.260  11.992
45998W        W 7419   5.881  29.169  13.013
45999W        W 7420  44.301  12.350  12.508
46000W        W 7421  44.821  41.511   4.151
46001W        W 7422  12.220  39.981   2.406
46002W        W 7423  41.314  28.157  11.885
46003W        W 7424   6.785   5.751   4.350
46004W        W 7425  27.569  14.304  13.889
46005W        W 7426  23.164  31.048  13.460
46006W        W 7427  42.525  37.344  13.828
46007W        W 7428  11.278   3.449  13.884
46008W        W 7429  30.106  39.517   0.439
46009W        W 7430  37.872  13.625   9.565
46010W        W 7431   8.247  12.626  11.113
46011W        W 7432  26.106  14.157   2.766
46012W        W 7433  35.893  13.255   3.818
46013W        W 7434  11.262  15.255  12.399
46014W        W 7435  30.159  12.287   1.770
46015W        W 7436  26.105   4.945   3.670
46016W        W 7437  32.557  14.210   4.232
46017W        W 7438  41.336  39.317  11.599
46018W        W 7439  11.625   1.910  12.473
46019W        W 7440  41.328  10.320  14.309
46020W        W 7441  42.814  30.532  14.370
46021W        W 7442  17.188   4.751  13.021
46022W        W 7443  22.515  14.222  11.425
46023W        W 7444  40.954  43.494   0.404
46024W        W 7445  29.972  26.170   0.317
46025W        W 7446  34.398  24.085  10.413
46026W        W 7447  21.548  23.205   2.350
46027W        W 7448  36.852   7.211  12.941
46028W        W 7449   7.680  17.247  13.857
46029W        W 7450   3.946   3.405   9.951
46030W        W 7451  20.064  33.046   2.228
46031W        W 7452   6.301  17.115   4.335
46032W        W 7453  13.181   2.241   4.171
46033W        W 7454  26.660  18.695   3.757
46034W        W 7455  36.470  30.926   2.347
46035W        W 7456  37.553  15.235  14.881
46036W        W 7457  38.023  19.073  12.987
46037W        W 7458  44.956  37.358   3.682
46038W        W 7459  40.522  33.898  13.539
46039W        W 7460   6.190  41.401  11.023
46040W        W 7461  15.793   4.427  10.509
46041W        W 7462  33.499  21.177  12.416
46042W        W 7463   3.349   7.907  10.408
46043W        W 7464  22.518  13.134  10.085
46044W        W 7465  14.627  14.642  14.793
46045W        W 7466   0.779  43.442   3.164
46046W        W 7467  31.569   2.234   1.395
46047W        W 7468  28.598  23.143  12.953
46048W        W 7469  14.206  12.244   2.181
46049W        W 7470  42.887  36.495   3.239
46050W        W 7471  30.565  26.175   4.747
46051W        W 7472  27.652  37.398   1.361
46052W        W 7473  14.105  12.320   3.634
46053W        W 7474  17.187  24.572   1.762
46054W        W 7475   9.887   6.870   3.684
46055W        W 7476  32.926  40.830  10.509
46056W        W 7477  13.254  15.196  12.343
46057W        W 7478  30.035  44.274   4.721
46058W        W 7479  43.514  13.657  12.963
46059W        W 7480  34.397   7.889   1.335
46060W        W 7481  41.349  22.643   2.346
46061W        W 7482  32.503  17.685  13.986
46062W        W 7483  14.140  21.151  12.044
46063W        W 7484  35.017  31.153  13.818
46064W        W 7485  44.881  14.179   1.251
46065W        W 7486  40.370   6.401  13.026
46066W        W 7487  31.997  37.039   4.677
46067W        W 7488  40.052  11.636   9.967
46068W        W 7489  19.682  15.255  12.087
46069W        W 7490  14.600   6.756   3.147
46070W        W 7491  12.788  43.441  12.564
46071W        W 7492   0.469  28.454   2.275
46072W        W 7493  21.226  33.515   3.704
46073W        W 7494   1.799  31.425   3.264
46074W        W 7495  24.633  21.116  13.849
46075W        W 7496   0.304  12.739  10.510
46076W        W 7497  22.742  19.273   1.792
46077W        W 7498   3.714   2.874   0.332
46078W        W 7499   8.882  29.090   4.633
46079W        W 7500  42.491  34.445  13.049
46080W        W 7501  44.483   5.387  11.604
46081W        W 7502   5.402   8.363  14.512
46082W        W 7503  10.312  38.329   1.220
46083W        W 7504  16.161  12.729  10.014
46084W        W 7505  39.867   5.260  14.400
46085W        W 7506  24.169   6.253   0.772
46086W        W 7507   0.949  38.516   2.351
46087W        W 7508   3.431  40.401   1.344
46088W        W 7509  40.421  41.506   4.755
46089W        W 7510  27.189  23.708  12.086
46090W        W 7511  20.574  28.096  10.913
46091W        W 7512  14.248   8.368   2.325
46092W        W 7513  30.629  16.628   2.696
46093W        W 7514  42.400  43.839  13.970
46094W        W 7515  39.840  34.891  14.354
46095W        W 7516  36.482   0.939   1.750
46096W        W 7517  14.179  31.093   3.317
46097W        W 7518   4.922  17.605   2.755
46098W        W 7519  26.463  25.984   2.775
46099W        W 7520  37.873  13.151  14.908
46100W        W 7521   5.388  12.263   0.263
46101W        W 7522  23.651   1.876   4.696
46102W        W 7523  23.671  23.074  12.960
46103W        W 7524  30.434  34.047  11.891
46104W        W 7525  22.118  39.482   4.310
46105W        W 7526   3.330  29.042   2.882
46106W        W 7527  26.118  10.776  14.828
46107W        W 7528  36.368  27.032  13.347
46108W        W 7529  31.923  37.980   1.913
46109W        W 7530  24.147  11.809   3.775
46110W        W 7531  34.414   9.826   0.299
46111W        W 7532  42.382  32.900  12.470
46112W        W 7533  23.131  26.162   4.665
46113W        W 7534  20.085   3.219  14.392
46114W        W 7535  18.731  30.643   2.701
46115W        W 7536   9.228  28.183   2.830
46116W        W 7537  12.200   2.887  14.925
46117W        W 7538  39.951  19.135  12.999
46118W        W 7539  26.993  34.041  14.409
46119W        W 7540  42.337  13.719  14.345
46120W        W 7541  31.073  38.478   0.875
46121W        W 7542  35.433  33.624  11.898
46122W        W 7543  41.821  14.327   2.408
46123W        W 7544  22.224   6.884   0.798
46124W        W 7545  13.722  26.634   4.221
46125W        W 7546  10.187  14.193  10.151
46126W        W 7547  10.317   8.276  12.831
46127W        W 7548  18.635  17.224  11.567
46128W        W 7549   6.196  12.247  11.564
46129W        W 7550   3.236  43.344   1.365
46130W        W 7551  39.976   5.225  12.481
46131W        W 7552  26.635  21.746  13.459
46132W        W 7553  16.121   4.371   4.269
46133W        W 7554   5.413  39.353  10.935
46134W        W 7555  19.775  40.356  13.356
46135W        W 7556  19.074  27.509  10.433
46136W        W 7557  43.439   8.872   3.372
46137W        W 7558  19.269  16.181   2.798
46138W        W 7559  36.977  12.234  11.094
46139W        W 7560  24.497  20.073   3.796
46140W        W 7561   1.245   9.218   4.793
46141W        W 7562  11.645  37.453  13.991
46142W        W 7563  26.120  39.916  13.318
46143W        W 7564  36.535   0.322  12.575
46144W        W 7565   6.267   1.800  11.968
46145W        W 7566   1.844  34.900  12.052
46146W        W 7567  15.692  17.187  10.506
46147W        W 7568  44.779  41.036   3.172
46148W        W 7569  10.367   8.830   0.759
46149W        W 7570  15.818  26.629   5.206
46150W        W 7571  19.286  15.223   4.826
46151W        W 7572  26.633  26.147  13.523
46152W        W 7573  34.936  11.809  14.797
46153W        W 7574   6.683  15.794  13.325
46154W        W 7575  16.142  17.195  13.337
46155W        W 7576   6.185  38.345   5.088
46156W        W 7577  44.816  23.522  13.405
46157W        W 7578   0.925  24.555  11.909
46158W        W 7579  41.444  27.105  14.923
46159W        W 7580  12.730  16.273  13.938
46160W        W 7581   0.900   2.937   2.679
46161W        W 7582  33.533  31.120   1.880
46162W        W 7583  30.560  31.609  14.910
46163W        W 7584  34.954  34.076   2.845
46164W        W 7585  30.513  31.967   4.759
46165W        W 7586  26.955  22.220   2.725
46166W        W 7587  41.320  24.225   3.668
46167W        W 7588  39.876  10.138  11.597
46168W        W 7589  19.268   3.272   1.346
46169W        W 7590   3.720  33.391   2.725
46170W        W 7591   9.203  23.554   4.597
46171W        W 7592  17.091  17.645   2.794
46172W        W 7593  28.652   2.466   3.681
46173W        W 7594  29.522  41.324  13.330
46174W        W 7595  11.781  28.167   2.764
46175W        W 7596  25.666  21.205  14.411
46176W        W 7597  11.794  18.262  13.495
46177W        W 7598  17.201  10.195   2.239
46178W        W 7599   6.333  33.591   3.320
46179W        W 7600  13.688  29.053   1.801
46180W        W 7601  38.411  40.880   4.763
46181W        W 7602  29.074  29.013  13.474
46182W        W 7603  14.249  35.904   1.744
46183W        W 7604  22.209  21.251   3.738
46184W        W 7605  37.348  34.535  12.915
46185W        W 7606  30.505   1.881   0.751
46186W        W 7607  35.011   5.715   1.879
46187W        W 7608  34.429  38.966  13.307
46188W        W 7609  28.596  44.775   3.308
46189W        W 7610  28.111  33.986   4.755
46190W        W 7611   1.844   8.849  12.935
46191W        W 7612  13.757  42.905   0.463
46192W        W 7613  38.005  10.744   1.282
46193W        W 7614  41.419  42.373  13.035
46194W        W 7615  29.539   0.406   4.266
46195W        W 7616  28.657  31.921  13.801
46196W        W 7617  43.370  12.851   2.728
46197W        W 7618  25.007  20.130   0.431
46198W        W 7619  27.125  11.634   4.798
46199W        W 7620  38.912  12.634  10.490
46200W        W 7621  30.161  24.023   0.358
46201W        W 7622  38.996  40.956  12.443
46202W        W 7623  34.571  28.649  13.933
46203W        W 7624  32.023  18.597   4.267
46204W        W 7625  35.006  43.425   3.717
46205W        W 7626  35.091   7.337   0.428
46206W        W 7627  17.780  26.603  12.931
46207W        W 7628  30.068  34.865  13.921
46208W        W 7629   8.769  18.639   2.711
46209W        W 7630   6.388  19.057  11.047
46210W        W 7631  11.254  28.962   1.832
46211W        W 7632   7.770  43.287  13.849
46212W        W 7633  18.758  32.475   1.857
46213W        W 7634  36.048   7.213  10.977
46214W        W 7635   4.259  34.965   4.778
46215W        W 7636  33.415   4.365   1.793
46216W        W 7637  39.909  20.238   1.721
46217W        W 7638  35.517  27.625  13.811
46218W        W 7639   2.242  25.132   0.354
46219W        W 7640  34.425   8.182   3.655
46220W        W 7641   9.883  22.144   2.790
46221W        W 7642  43.764   9.888   4.785
46222W        W 7643   6.874  16.303   4.776
46223W        W 7644   9.687   2.793   3.329
46224W        W 7645  23.002   1.367   3.380
46225W        W 7646  17.209  24.649   4.703
46226W        W 7647  13.826  42.918  12.890
46227W        W 7648  20.128  25.118   4.788
46228W        W 7649  37.027  44.404  14.890
46229W        W 7650   2.832  27.497   1.238
46230W        W 7651   3.380  27.143   3.858
46231W        W 7652  22.703  17.134  11.531
46232W        W 7653  31.998  24.128  11.932
46233W        W 7654  26.520   0.312  11.557
46234W        W 7655  39.359  25.039   4.282
46235W        W 7656   6.701   4.382  13.997
46236W        W 7657  25.100  12.134  13.343
46237W        W 7658  36.905  14.619   3.296
46238W        W 7659  41.927  39.983  10.889
46239W        W 7660  43.443   3.758   0.446
46240W        W 7661  41.803   9.198   3.646
46241W        W 7662  25.712  16.157   1.833
46242W        W 7663   2.297   6.301   2.752
46243W        W 7664  31.057  26.047   2.214
46244W        W 7665  41.848  41.433  14.837
46245W        W 7666  23.112  33.002  12.472
46246W        W 7667   2.872  24.174  12.952
46247W        W 7668  34.558   1.253   4.291
46248W        W 7669  26.176  31.936   0.875
46249W        W 7670  28.484   6.786  14.901
46250W        W 7671   9.167  31.609   1.427
46251W        W 7672  13.642  38.054   0.920
46252W        W 7673  33.880  18.282   2.228
46253W        W 7674  27.006   7.301  11.483
46254W        W 7675  13.257   0.836  14.773
46255W        W 7676   4.818  40.055  14.512
46256W        W 7677  30.911  27.502  10.998
46257W        W 7678  18.281  35.907  12.963
46258W        W 7679  19.178  38.436   3.668
46259W        W 7680  15.157  32.633  11.423
46260W        W 7681  25.098   0.821   0.354
46261W        W 7682   8.662  43.831   1.366
46262W        W 7683  20.204  28.014   2.849
46263W        W 7684  41.440  33.520  12.920
46264W        W 7685  18.666  19.097  12.003
46265W        W 7686   8.805  12.306   3.360
46266W        W 7687   8.811  30.994   3.670
46267W        W 7688   8.690   0.838  14.824
46268W        W 7689  28.988  26.132   1.398
46269W        W 7690  17.619  19.198  10.429
46270W        W 7691  37.880  26.967   4.666
46271W        W 7692  23.039  41.355   4.165
46272W        W 7693  20.174   9.764  14.805
46273W        W 7694  28.046  20.639   3.870
46274W        W 7695  22.677  22.218  14.769
46275W        W 7696  11.258  34.014   3.817
46276W        W 7697   2.467  28.519  12.895
46277W        W 7698  43.288  14.217  14.449
46278W        W 7699  26.527   5.771  12.534
46279W        W 7700  12.198   2.252   2.685
46280W        W 7701  20.237  15.290  11.404
46281W        W 7702  12.708  26.625   2.834
46282W        W 7703  43.402   6.363  14.833
46283W        W 7704  34.985  28.072   4.632
46284W        W 7705   5.920   5.776  10.429
46285W        W 7706   7.759  39.346  13.931
46286W        W 7707  27.162  43.858  13.515
46287W        W 7708  12.300  33.413  11.977
46288W        W 7709  13.114  32.056   1.797
46289W        W 7710  16.207  27.957   3.148
46290W        W 7711  11.133  12.658   2.369
46291W        W 7712   7.251  41.980   3.684
46292W        W 7713  34.511   9.208   1.778
46293W        W 7714  30.936  22.173  13.861
46294W        W 7715  21.661  29.611  14.297
46295W        W 7716  36.550  37.411   2.205
46296W        W 7717  34.935  25.005   1.294
46297W        W 7718  17.282  26.102  12.438
46298W        W 7719  37.569  17.675  11.927
46299W        W 7720  28.478  15.098   9.562
46300W        W 7721   4.936   1.341   3.366
46301W        W 7722  25.650   4.929   3.291
46302W        W 7723  44.314   8.194   1.273
46303W        W 7724  31.939  38.358  14.871
46304W        W 7725  26.150  32.941   0.900
46305W        W 7726  35.987   1.368  12.459
46306W        W 7727   4.409  18.656  11.121
46307W        W 7728  14.598  38.334   4.658
46308W        W 7729  16.582  39.541  12.093
46309W        W 7730  29.655  36.540  11.129
46310W        W 7731  42.023  23.710  12.470
46311W        W 7732  28.086  36.056   4.292
46312W        W 7733  34.394  15.250   2.742
46313W        W 7734  24.065  37.481   3.722
46314W        W 7735  23.000  39.023   4.791
46315W        W 7736  25.605  38.541  13.455
46316W        W 7737  27.978  18.169   3.275
46317W        W 7738   4.708   9.302  11.075
46318W        W 7739  11.764  20.626   0.842
46319W        W 7740  44.325  39.004  14.886
46320W        W 7741  20.109  23.515  11.523
46321W        W 7742   3.345  42.488   2.240
46322W        W 7743  36.377  34.454  11.865
46323W        W 7744  16.780  35.944   0.843
46324W        W 7745   0.928  22.708   1.755
46325W        W 7746  16.755   6.312   1.812
46326W        W 7747  39.958  20.572   3.841
46327W        W 7748  38.521  27.040   2.353
46328W        W 7749  43.383  32.923   2.215
46329W        W 7750  23.528  14.806   0.419
46330W        W 7751  28.459  31.113  14.397
46331W        W 7752   2.405  28.975   3.255
46332W        W 7753   3.914  32.951   4.730
46333W        W 7754  27.482  21.101   1.221
46334W        W 7755  13.180  16.254  11.587
46335W        W 7756  12.185  27.968  13.038
46336W        W 7757  37.866  33.480  11.026
46337W        W 7758   5.221   8.849   1.833
46338W        W 7759   4.913  12.356  14.437
46339W        W 7760  35.474  29.619   0.796
46340W        W 7761  19.734  17.090   4.168
46341W        W 7762  44.422  14.278   2.343
46342W        W 7763  40.508  34.029  11.910
46343W        W 7764  35.003  30.934   1.388
46344W        W 7765  26.197  27.688  12.360
46345W        W 7766  26.122   5.219   0.746
46346W        W 7767   2.959  44.334  10.030
46347W        W 7768  20.719  24.626  12.073
46348W        W 7769  31.424  13.209   0.309
46349W        W 7770   7.198  26.617  14.810
46350W        W 7771  24.034   8.393   5.565
46351W        W 7772  37.933  10.783   4.827
46352W        W 7773  29.521   9.706  12.837
46353W        W 7774  18.194  43.976   0.821
46354W        W 7775   0.266  25.584  12.862
46355W        W 7776  30.099   2.766   0.790
46356W        W 7777  10.190  18.727   2.731
46357W        W 7778  21.237  34.583  12.912
46358W        W 7779   9.797  39.858  14.767
46359W        W 7780  42.412   1.269   0.763
46360W        W 7781  20.548   2.872   4.790
46361W        W 7782  42.444  21.027   4.324
46362W        W 7783   2.419  13.196   4.641
46363W        W 7784  11.734  27.598  12.867
46364W        W 7785   2.925  31.096   3.282
46365W        W 7786  20.683  26.557   2.694
46366W        W 7787  33.008  36.870  14.822
46367W        W 7788  31.143  24.135  11.438
46368W        W 7789  34.946  41.936  13.978
46369W        W 7790  24.646  36.943  13.426
46370W        W 7791  38.387  26.038  14.466
46371W        W 7792  18.096  36.540  14.785
46372W        W 7793  36.859   6.357   0.808
46373W        W 7794   5.363   8.260  12.347
46374W        W 7795  38.876  21.580   2.215
46375W        W 7796  38.836   6.256  12.845
46376W        W 7797   8.867  13.789   2.843
46377W        W 7798  38.493  39.995  14.300
46378W        W 7799  17.137  38.927  13.924
46379W        W 7800  21.559  22.196  11.937
46380W        W 7801   6.268  21.130  12.547
46381W        W 7802  28.957   0.790   1.389
46382W        W 7803   5.696   0.820   2.690
46383W        W 7804   2.359  36.941   1.256
46384W        W 7805  30.118  28.958   0.748
46385W        W 7806  28.059   9.881  13.813
46386W        W 7807  21.036  38.853   0.359
46387W        W 7808  40.481  12.343  10.102
46388W        W 7809   4.242  33.890  13.983
46389W        W 7810   6.266   8.704  11.898
46390W        W 7811  17.697  31.088   3.753
46391W        W 7812   9.698  17.614  12.548
46392W        W 7813  23.077  35.450  10.590
46393W        W 7814   3.305  41.955   0.300
46394W        W 7815  22.132  43.289   0.957
46395W        W 7816  39.053  20.552   3.753
46396W        W 7817  34.389  23.674   4.654
46397W        W 7818   2.252  16.223  12.555
46398W        W 7819  21.258  20.739   0.384
46399W        W 7820   3.297  20.718  13.544
46400W        W 7821  33.122  44.352   2.890
46401W        W 7822  10.212   5.347   2.284
46402W        W 7823  24.028  30.061  11.018
46403W        W 7824   6.769  31.590   4.796
46404W        W 7825   3.454  31.632   0.941
46405W        W 7826  20.753  40.487  13.446
46406W        W 7827  39.553  20.084  11.895
46407W        W 7828  14.814  39.352  11.505
46408W        W 7829   5.924  15.789   3.336
46409W        W 7830  23.655  29.079   3.213
46410W        W 7831   8.789  29.003  11.081
46411W        W 7832  39.487  11.167  11.592
46412W        W 7833  38.012   2.816  11.933
46413W        W 7834   5.245   6.221  13.416
46414W        W 7835   9.171  22.562  11.461
46415W        W 7836  12.675  21.627  10.437
46416W        W 7837  19.673   3.352   3.182
46417W        W 7838  35.553  35.024   3.630
46418W        W 7839   8.348   7.796   3.172
46419W        W 7840  25.706  29.984   0.759
46420W        W 7841  20.207   0.898   4.603
46421W        W 7842   5.776  38.376  11.855
46422W        W 7843  44.930  34.371  13.407
46423W        W 7844  16.227  27.645  11.033
46424W        W 7845  31.557   2.322   3.678
46425W        W 7846  13.808   9.840  14.973
46426W        W 7847   1.922  33.006  12.869
46427W        W 7848  15.319  20.639   0.729
46428W        W 7849  34.039   1.437   1.380
46429W        W 7850   9.799   0.259  14.943
46430W        W 7851   2.905  27.052  12.987
46431W        W 7852  13.129   6.255   0.901
46432W        W 7853  39.456  13.694   1.342
46433W        W 7854  27.117  17.723  11.483
46434W        W 7855  12.140  18.101   3.378
46435W        W 7856   9.218  32.946  11.004
46436W        W 7857  13.336  37.490  13.409
46437W        W 7858  22.115  16.616  14.941
46438W        W 7859  20.169  33.028  10.444
46439W        W 7860  39.352  11.246  10.546
46440W        W 7861  29.099  40.015   3.804
46441W        W 7862  18.551   2.943  10.901
46442W        W 7863   9.257  22.544  12.382
46443W        W 7864   8.837  21.672  14.369
46444W        W 7865   7.725  26.611  11.373
46445W        W 7866  22.532   4.362  12.339
46446W        W 7867  27.075  32.570   3.207
46447W        W 7868  25.160  41.354   1.791
46448W        W 7869  15.257   3.884   0.888
46449W        W 7870  27.479  11.274   2.188
46450W        W 7871  42.426  16.642  11.606
46451W        W 7872  36.027  34.460  14.397
46452W        W 7873   1.299  27.452  14.315
46453W        W 7874  25.013   8.331  10.567
46454W        W 7875  33.011  28.975  11.888
46455W        W 7876   6.700  20.762   2.373
46456W        W 7877  25.156  19.167   4.792
46457W        W 7878  36.348  11.158   3.352
46458W        W 7879   7.355  39.382   3.671
46459W        W 7880  17.629  32.476  14.507
46460W        W 7881   8.323   5.419   3.362
46461W        W 7882  32.444   0.493  13.401
46462W        W 7883   1.754  43.935   2.854
46463W        W 7884   9.335  22.664   4.620
46464W        W 7885  16.635   8.830  14.503
46465W        W 7886  44.847  34.597   3.382
46466W        W 7887  36.458  36.355   1.298
46467W        W 7888  41.365  43.890   4.296
46468W        W 7889  40.327  43.282  13.910
46469W        W 7890   5.930  41.429  13.974
46470W        W 7891  25.987  31.046  10.989
46471W        W 7892  15.744  36.990  12.837
46472W        W 7893   4.758  26.695   4.199
46473W        W 7894   6.289  27.135   4.684
46474W        W 7895  42.903  28.963   2.831
46475W        W 7896  26.035  28.953   2.789
46476W        W 7897   9.715  43.008   0.771
46477W        W 7898  34.402  33.964  12.089
46478W        W 7899  18.617  24.663   2.225
46479W        W 7900  27.982  35.003  12.914
46480W        W 7901   0.484  12.819  12.049
46481W        W 7902  13.686  15.182   1.346
46482W        W 7903  15.720  12.644  13.833
46483W        W 7904  18.210  35.506  13.354
46484W        W 7905  25.107  44.802   4.795
46485W        W 7906   6.861  21.724   0.382
46486W        W 7907   6.828   5.323   2.763
46487W        W 7908  24.034  36.550   4.597
46488W        W 7909  37.446  15.709   3.152
46489W        W 7910  35.982  13.825  13.839
46490W        W 7911  42.972  40.888  14.335
46491W        W 7912  37.966  31.116  12.374
46492W        W 7913  36.012   6.326  14.343
46493W        W 7914   5.923  27.624  11.096
46494W        W 7915  39.955  11.172   0.795
46495W        W 7916   6.426  11.371  10.556
46496W        W 7917   4.840   0.405  13.437
46497W        W 7918  12.152  34.406  14.318
46498W        W 7919  16.604   3.454   1.931
46499W        W 7920   8.347   8.707   2.865
46500W        W 7921  26.040   3.821   4.704
46501W        W 7922  35.389  33.880  12.466
46502W        W 7923  23.235  27.518  14.909
46503W        W 7924  42.508  38.481   0.356
46504W        W 7925  28.574  18.565  13.478
46505W        W 7926   8.292  41.960  13.350
46506W        W 7927  42.810  33.093   0.778
46507W        W 7928  20.145  23.628   0.302
46508W        W 7929  19.131  39.491   2.894
46509W        W 7930  32.030  12.809   3.178
46510W        W 7931  18.568  22.019  11.970
46511W        W 7932   8.192  30.519  10.982
46512W        W 7933  37.940  34.023  12.435
46513W        W 7934  31.134  25.181   4.799
46514W        W 7935  41.916  14.103   2.812
46515W        W 7936  39.876  37.446   4.299
46516W        W 7937  21.641  27.965   2.676
46517W        W 7938  26.954   1.777   0.957
46518W        W 7939  14.213  11.227   1.711
46519W        W 7940  12.354  11.684   4.205
46520W        W 7941  42.522   5.378  13.308
46521W        W 7942  24.117  10.796   3.168
46522W        W 7943  22.501  27.664   1.731
46523W        W 7944  36.888   8.340  13.414
46524W        W 7945  32.890   2.816   1.907
46525W        W 7946  31.020  10.640  13.490
46526W        W 7947  27.176   2.308  11.011
46527W        W 7948  18.641  36.001   0.844
46528W        W 7949   1.753  31.016   9.468
46529W        W 7950  41.442  33.112   1.914
46530W        W 7951   7.676   0.948   2.286
46531W        W 7952  12.660  38.530   1.257
46532W        W 7953  42.837   3.772   0.376
46533W        W 7954  17.606  15.728  14.508
46534W        W 7955  27.573  11.302   4.718
46535W        W 7956  19.065   4.282   4.114
46536W        W 7957  37.437  37.429  13.334
46537W        W 7958  25.648   2.407  11.979
46538W        W 7959   1.927  11.370  10.476
46539W        W 7960  18.291   8.287   2.294
46540W        W 7961   5.724  14.266   3.725
46541W        W 7962  16.097  34.101  13.346
46542W        W 7963  29.556  33.422   3.632
46543W        W 7964   2.793   2.778   2.830
46544W        W 7965  16.174  42.989  14.306
46545W        W 7966  31.403  22.676   3.847
46546W        W 7967   5.439   3.832   4.180
46547W        W 7968  11.696  20.110   0.869
46548W        W 7969  30.597  10.869  12.568
46549W        W 7970  11.721  39.963  13.312
46550W        W 7971  26.197  42.834   1.280
46551W        W 7972  17.576   3.858   3.645
46552W        W 7973  30.099  37.403   3.643
46553W        W 7974  41.292   1.464  10.438
46554W        W 7975  44.397  37.471  14.295
46555W        W 7976  31.916  39.389  12.851
46556W        W 7977  16.680  10.778   3.172
46557W        W 7978   4.762  27.081   1.885
46558W        W 7979  22.546   9.191   3.384
46559W        W 7980  39.028  38.539  10.460
46560W        W 7981  23.030  34.589   4.312
46561W        W 7982  22.630  22.120   0.911
46562W        W 7983  18.229  17.129   4.797
46563W        W 7984   8.284   4.710   4.220
46564W        W 7985  35.934  37.385  13.889
46565W        W 7986   5.889  19.597   5.087
46566W        W 7987  34.609   4.289  12.917
46567W        W 7988  44.767  24.104  10.964
46568W        W 7989  36.367  42.833  11.900
46569W        W 7990   6.318  33.495   4.620
46570W        W 7991  11.710   1.344   3.854
46571W        W 7992  31.079  17.626  14.789
46572W        W 7993  10.269  11.159   3.744
46573W        W 7994   1.787  27.097  12.566
46574W        W 7995   5.923  23.053  14.992
46575W        W 7996  11.795   9.792  11.557
46576W        W 7997  17.252   2.275  12.340
46577W        W 7998  31.623  14.716  14.479
46578W        W 7999  12.312  20.074   3.736
46579W        W 8000  39.052  26.650   2.672
46580W        W 8001  26.075   6.816   0.364
46581W        W 8002  15.667  35.569   3.801
46582W        W 8003  33.581  39.367  14.361
46583W        W 8004   1.806  29.147  12.449
46584W        W 8005   3.726  38.959   1.210
46585W        W 8006   9.208  34.923  10.141
46586W        W 8007  24.118   5.781   0.474
46587W        W 8008  39.923  39.523  11.891
46588W        W 8009   2.837  31.023  12.524
46589W        W 8010  44.971  26.668   0.415
46590W        W 8011  19.657  28.609   3.666
46591W        W 8012  19.057   0.978   3.779
46592W        W 8013  43.465  33.567  13.968
46593W        W 8014  19.128  43.354   1.398
46594W        W 8015  30.920  21.161   1.423
46595W        W 8016  37.528  27.653   0.272
46596W        W 8017  40.867  21.070  13.930
46597W        W 8018  17.124  11.231   1.322
46598W        W 8019  10.260   2.285   1.767
46599W        W 8020  11.704  28.512  10.608
46600W        W 8021  31.934   6.704   2.792
46601W        W 8022  22.539  24.159  14.463
46602W        W 8023   8.243  12.306   3.869
46603W        W 8024  24.161  35.373  13.914
46604W        W 8025  33.889  21.577  11.965
46605W        W 8026  19.185  26.592  14.365
46606W        W 8027  28.069  31.598  11.085
46607W        W 8028  43.869  20.213   3.677
46608W        W 8029  10.721  18.206  12.026
46609W        W 8030  25.976  40.891   1.707
46610W        W 8031  43.283  28.573  13.980
46611W        W 8032   4.805  18.246  12.482
46612W        W 8033   0.452   7.870   1.301
46613W        W 8034   6.823   8.328   0.390
46614W        W 8035  42.357  39.342  13.862
46615W        W 8036   0.983  32.473   1.320
46616W        W 8037   9.292   2.387   2.187
46617W        W 8038  34.901  33.520   1.379
46618W        W 8039  11.321  25.008  11.001
46619W        W 8040  34.586  13.145   3.827
46620W        W 8041  21.618  13.127   0.386
46621W        W 8042  43.411   4.845   0.305
46622W        W 8043   2.883  22.676   4.712
46623W        W 8044  30.645  30.055  10.480
46624W        W 8045  13.214  17.176   4.125
46625W        W 8046  36.073  43.791  12.553
46626W        W 8047   0.309  10.172   0.828
46627W        W 8048  19.231  10.718  12.410
46628W        W 8049  20.696  41.514  14.954
46629W        W 8050  13.335   9.726   2.725
46630W        W 8051  37.389  23.654  14.997
46631W        W 8052  38.422  42.384   1.216
46632W        W 8053   8.362   8.328  10.935
46633W        W 8054  39.914  11.233   4.812
46634W        W 8055  32.426   1.802  14.468
46635W        W 8056  13.761  35.861  14.880
46636W        W 8057  22.690  39.993   3.325
46637W        W 8058  35.084  22.074   2.885
46638W        W 8059  43.441  10.243   0.265
46639W        W 8060  31.477  36.941  14.429
46640W        W 8061  34.558  28.498   3.756
46641W        W 8062   3.399   4.447  14.029
46642W        W 8063  15.790   3.950   1.835
46643W        W 8064  40.984  18.684  10.506
46644W        W 8065  33.476  44.460   2.416
46645W        W 8066   2.371  28.582   0.333
46646W        W 8067  24.109  33.439   2.365
46647W        W 8068  12.238   1.808   2.200
46648W        W 8069  12.143  34.910   1.794
46649W        W 8070  21.595   9.645  12.085
46650W        W 8071   4.349  44.914   0.372
46651W        W 8072   8.261  11.795   3.219
46652W        W 8073  28.132  36.902   3.164
46653W        W 8074  34.489  15.087  10.436
46654W        W 8075  37.421  28.599   3.212
46655W        W 8076  40.303  21.682  14.458
46656W        W 8077  19.651  21.536   0.752
46657W        W 8078   8.881   9.258  11.077
46658W        W 8079   5.743  22.078  10.927
46659W        W 8080  23.136  27.503   3.380
46660W        W 8081  25.694  35.430  13.001
46661W        W 8082  29.174  29.640   4.810
46662W        W 8083  15.130  14.184   2.857
46663W        W 8084  18.783  16.075   2.284
46664W        W 8085  42.996  19.067  12.841
46665W        W 8086  30.596   2.933   4.272
46666W        W 8087  30.984  13.811  12.527
46667W        W 8088  18.601   7.286   2.374
46668W        W 8089  42.407  43.843   0.363
46669W        W 8090   2.849  28.489  13.957
46670W        W 8091  25.157  13.289   0.876
46671W        W 8092   1.238  12.259  12.442
46672W        W 8093  33.560  27.501   1.379
46673W        W 8094  28.608  36.957   3.262
46674W        W 8095  12.802  27.107  12.037
46675W        W 8096  20.643  15.129  14.783
46676W        W 8097  17.152  21.542   1.318
46677W        W 8098   7.677  14.752   0.852
46678W        W 8099  16.184   4.333  13.533
46679W        W 8100   1.738  22.041   2.786
46680W        W 8101   9.766  28.528  12.083
46681W        W 8102  25.189   3.771   2.395
46682W        W 8103   7.766  30.584  11.573
46683W        W 8104  27.486  31.529   1.252
46684W        W 8105  22.103  40.307   4.241
46685W        W 8106  30.593  23.200   3.761
46686W        W 8107   3.950  36.942  11.105
46687W        W 8108  29.929  19.054  10.995
46688W        W 8109   4.829   3.903   1.449
46689W        W 8110  21.698  30.136  13.923
46690W        W 8111  31.143   5.199  10.609
46691W        W 8112  41.856  38.004  14.284
46692W        W 8113  38.327  42.320  12.982
46693W        W 8114  29.123   9.847  14.776
46694W        W 8115  28.043  38.067  14.980
46695W        W 8116  30.931   0.949   5.313
46696W        W 8117  31.005  35.913  14.369
46697W        W 8118  32.114  26.167  12.554
46698W        W 8119   1.466  41.526   0.339
46699W        W 8120  13.233  42.501  10.936
46700W        W 8121   1.456  15.627   1.927
46701W        W 8122   2.371  35.852   3.639
46702W        W 8123  37.339   4.924   0.796
46703W        W 8124  12.663   5.705   3.235
46704W        W 8125  18.233  37.486  12.863
46705W        W 8126  32.616   3.763  12.428
46706W        W 8127  20.599  44.764  14.822
46707W        W 8128  19.284  13.695   1.796
46708W        W 8129   9.856  35.927   3.760
46709W        W 8130   8.860  22.174   0.390
46710W        W 8131  43.771   1.378  14.855
46711W        W 8132  43.953  14.831   1.332
46712W        W 8133  43.006  36.971   1.243
46713W        W 8134   4.216   0.353   3.315
46714W        W 8135   0.400  30.586  12.081
46715W        W 8136  36.386  37.342  10.095
46716W        W 8137  43.310  12.848   0.420
46717W        W 8138  19.237   3.443   0.931
46718W        W 8139  32.536   0.340  14.336
46719W        W 8140  16.791   6.382   3.326
46720W        W 8141   6.814  21.025   1.714
46721W        W 8142  14.598   2.762  14.372
46722W        W 8143  28.007  29.572   2.256
46723W        W 8144   7.352  32.422  11.954
46724W        W 8145  26.543  36.352  11.871
46725W        W 8146   2.298  12.322   0.938
46726W        W 8147  36.561  16.112  10.562
46727W        W 8148  27.952  14.612   1.379
46728W        W 8149   4.860  12.678  10.956
46729W        W 8150   0.326  29.478   4.608
46730W        W 8151  24.500  40.801  10.589
46731W        W 8152  17.704   4.883  10.060
46732W        W 8153   2.728  25.026  12.376
46733W        W 8154  26.618  16.281   3.161
46734W        W 8155  42.975   1.322   4.251
46735W        W 8156  37.033  29.565   0.267
46736W        W 8157  14.173   2.949  12.479
46737W        W 8158   5.737  32.918  12.996
46738W        W 8159  37.431  28.472   0.870
46739W        W 8160   8.879  42.474  11.377
46740W        W 8161  36.988  41.822   4.717
46741W        W 8162   9.727  10.220   0.270
46742W        W 8163  15.190  12.649  11.957
46743W        W 8164  31.099   0.806  12.983
46744W        W 8165  32.888  31.084  11.479
46745W        W 8166  34.495  35.941  10.554
46746W        W 8167   9.384  37.515  14.448
46747W        W 8168   4.322  12.661  14.783
46748W        W 8169  23.227  23.009   0.276
46749W        W 8170   8.365  37.939   1.740
46750W        W 8171   1.282  44.810  12.994
46751W        W 8172  22.685  19.646  13.390
46752W        W 8173  22.650  41.959   3.647
46753W        W 8174  12.773  16.302   1.706
46754W        W 8175   4.820  30.484   2.889
46755W        W 8176   8.222   3.343  12.404
46756W        W 8177  35.426  31.121   0.751
46757W        W 8178   3.712  18.588   3.272
46758W        W 8179  39.966  42.410   4.321
46759W        W 8180  13.227  39.941   1.706
46760W        W 8181  25.075  33.053  10.633
46761W        W 8182  34.916  23.671  14.781
46762W        W 8183  42.868   8.682  14.759
46763W        W 8184  23.124   9.819  12.359
46764W        W 8185   6.282  28.479  12.341
46765W        W 8186  44.938  41.449   5.139
46766W        W 8187   2.941  28.124   3.834
46767W        W 8188  34.437  21.192  13.975
46768W        W 8189  19.060  33.565   2.784
46769W        W 8190  18.273  38.013  11.501
46770W        W 8191  24.656   5.250   2.235
46771W        W 8192   9.167  16.123  13.912
46772W        W 8193  14.316  44.370   0.389
46773W        W 8194   8.880  20.094  14.773
46774W        W 8195  34.965  31.138   3.775
46775W        W 8196  22.682  37.979  11.995
46776W        W 8197  13.302   0.845   0.343
46777W        W 8198  24.537  35.895   3.328
46778W        W 8199  13.287  37.913  14.794
46779W        W 8200   5.762   2.856   2.718
46780W        W 8201  20.249  18.667  10.427
46781W        W 8202  38.056  14.733  11.884
46782W        W 8203  18.702  36.985   2.213
46783W        W 8204  30.474  32.123  10.603
46784W        W 8205  15.615  18.051   3.179
46785W        W 8206  42.794   6.360  12.862
46786W        W 8207   0.837  34.444  14.846
46787W        W 8208   9.220  22.070   3.781
46788W        W 8209  19.233  31.092  12.434
46789W        W 8210  10.684  11.851   0.256
46790W        W 8211  30.120   6.792   1.704
46791W        W 8212  10.634  37.032   1.216
46792W        W 8213  40.371   9.178  10.948
46793W        W 8214  16.730   2.278  14.333
46794W        W 8215  38.365   6.794   4.819
46795W        W 8216  24.188  38.391  14.792
46796W        W 8217  23.537   0.478  12.340
46797W        W 8218  29.114  29.558  11.035
46798W        W 8219  32.051   1.929   3.257
46799W        W 8220  44.980  31.044   9.671
46800W        W 8221  28.079   2.767  10.514
46801W        W 8222  27.995  21.513   4.814
46802W        W 8223  39.396  16.621  14.306
46803W        W 8224  31.489  11.837  12.953
46804W        W 8225  15.248  31.469   2.889
46805W        W 8226  21.262  41.024  12.359
46806W        W 8227  19.579  34.481   0.767
46807W        W 8228  42.404   6.751   2.788
46808W        W 8229  15.628   8.726   0.919
46809W        W 8230  31.128  23.498  10.636
46810W        W 8231  21.572  30.562  13.818
46811W        W 8232  29.497   2.769   1.388
46812W        W 8233  12.730  33.436   3.279
46813W        W 8234  10.238  16.600  11.379
46814W        W 8235  34.070  42.308  11.072
46815W        W 8236   2.454  38.000   2.305
46816W        W 8237  22.526  18.756   5.112
46817W        W 8238  13.599  27.541  11.124
46818W        W 8239  16.232   2.319   3.705
46819W        W 8240  24.044  32.055   3.842
46820W        W 8241  36.861  37.549  11.408
46821W        W 8242  38.391  34.944  14.759
46822W        W 8243  42.925  40.340   4.618
46823W        W 8244  20.191  16.207  14.823
46824W        W 8245   8.742  20.556  13.838
46825W        W 8246  28.076  34.472   2.352
46826W        W 8247  44.441  44.342   0.253
46827W        W 8248  20.631  17.578   2.268
46828W        W 8249  24.611   1.324  10.556
46829W        W 8250  42.878   3.279   2.352
46830W        W 8251   7.869  35.478   2.663
46831W        W 8252  34.098  41.001  10.571
46832W        W 8253  44.822  44.368   1.449
46833W        W 8254  30.042  22.162  10.629
46834W        W 8255  28.176  29.506  13.895
46835W        W 8256  23.988   6.718  10.004
46836W        W 8257  20.665  26.651   1.779
46837W        W 8258  38.411  15.303   1.911
46838W        W 8259  11.672   2.904   2.815
46839W        W 8260  33.961   7.185  11.017
46840W        W 8261   5.397   5.876  11.981
46841W        W 8262  41.813   4.304   1.245
46842W        W 8263  38.483  38.331  14.859
46843W        W 8264  12.854   9.240   2.251
46844W        W 8265  38.379  43.768   4.163
46845W        W 8266   1.373  20.137  12.854
46846W        W 8267   6.870  40.878  11.382
46847W        W 8268  18.688  33.058  12.560
46848W        W 8269  37.363   8.214   1.731
46849W        W 8270  36.968  12.728   4.184
46850W        W 8271   5.900  44.845   2.784
46851W        W 8272  32.020   7.871   3.291
46852W        W 8273   8.894  30.644   2.387
46853W        W 8274  24.534  18.201   1.275
46854W        W 8275  33.524  19.740  14.492
46855W        W 8276   6.314  40.813   4.683
46856W        W 8277  37.916   5.751   1.417
46857W        W 8278  29.555  23.133  12.047
46858W        W 8279  29.439  39.451  10.464
46859W        W 8280   9.860   6.398  12.416
46860W        W 8281  20.164  24.721  14.839
46861W        W 8282  12.686  37.830   1.333
46862W        W 8283  19.275  34.598  10.962
46863W        W 8284   9.810  17.266  11.429
46864W        W 8285  42.798   8.658  12.942
46865W        W 8286  39.463  22.253   1.790
46866W        W 8287  35.455  21.573  11.105
46867W        W 8288  19.161  26.596   1.316
46868W        W 8289  22.087  19.228   1.722
46869W        W 8290  25.144  13.288   3.690
46870W        W 8291  32.982  42.329   1.926
46871W        W 8292  10.652  17.196  10.922
46872W        W 8293   7.248  28.107  11.023
46873W        W 8294  27.088  27.636  11.968
46874W        W 8295  16.583   9.707   2.783
46875W        W 8296   4.268  33.017  14.855
46876W        W 8297  37.982  20.186   3.738
46877W        W 8298  42.909   8.701   4.765
46878W        W 8299  33.924  40.855   0.334
46879W        W 8300  12.779  44.489  13.545
46880W        W 8301  10.874  44.402  10.554
46881W        W 8302  12.715  40.036  12.971
46882W        W 8303   2.853   5.366  13.868
46883W        W 8304  34.516  31.055   4.791
46884W        W 8305  27.030  21.041  12.998
46885W        W 8306  15.105  38.503  13.986
46886W        W 8307  22.174   8.241  11.078
46887W        W 8308   3.311   7.385  13.914
46888W        W 8309   3.232  25.616   0.452
46889W        W 8310  17.666   6.705  14.918
46890W        W 8311   6.905  17.698   4.161
46891W        W 8312   8.268  21.672  12.533
46892W        W 8313  16.206   6.703   1.314
46893W        W 8314  32.516   0.290   4.729
46894W        W 8315  40.433   8.753   0.770
46895W        W 8316  11.257  34.058   1.889
46896W        W 8317  40.907  34.949  13.900
46897W        W 8318  29.053  20.160   4.265
46898W        W 8319  22.995  42.817  13.026
46899W        W 8320   2.412  38.404   0.855
46900W        W 8321  16.154   1.739  12.369
46901W        W 8322   1.332  40.877  13.989
46902W        W 8323  21.721  42.813   2.833
46903W        W 8324   6.803  20.612   2.858
46904W        W 8325  43.392  20.111  13.392
46905W        W 8326  34.595  33.105   4.675
46906W        W 8327  16.602   7.725   1.413
46907W        W 8328  28.631  15.651   5.288
46908W        W 8329   7.377  35.520   4.792
46909W        W 8330  40.803   1.326   3.328
46910W        W 8331   5.787   7.822  11.480
46911W        W 8332   6.684  35.994  13.937
46912W        W 8333  11.337  22.048   3.746
46913W        W 8334  10.856  24.159  13.832
46914W        W 8335  38.393  15.721   4.280
46915W        W 8336  10.814  28.670   0.406
46916W        W 8337  42.878  22.744  12.081
46917W        W 8338  26.590  40.943  14.817
46918W        W 8339   8.855  42.495   3.781
46919W        W 8340  31.600  23.129   4.729
46920W        W 8341  13.259  18.161   1.801
46921W        W 8342  22.547   9.193  12.929
46922W        W 8343  36.488   4.724  11.548
46923W        W 8344  14.135  44.469   4.186
46924W        W 8345  42.887  28.508  13.792
46925W        W 8346  21.589  18.068   4.261
46926W        W 8347  10.789  41.315   2.266
46927W        W 8348  33.413   5.930   2.745
46928W        W 8349   8.741  39.827  14.457
46929W        W 8350  37.402  16.593  12.981
46930W        W 8351   1.339  10.663   2.733
46931W        W 8352  38.062  32.492  11.372
46932W        W 8353  17.734  13.158  10.905
46933W        W 8354   4.243  17.261   0.297
46934W        W 8355  39.315   9.757   3.765
46935W        W 8356  23.157   5.387   0.419
46936W        W 8357  30.953  36.848  12.008
46937W        W 8358  14.292   4.936  10.474
46938W        W 8359  19.170  24.665   0.343
46939W        W 8360  16.261  34.896  13.492
46940W        W 8361  25.085  27.573  13.963
46941W        W 8362  19.610  38.368   1.266
46942W        W 8363  36.468   6.198  11.432
46943W        W 8364  17.243  27.128   2.289
46944W        W 8365  44.435  30.137  12.385
46945W        W 8366  22.720   0.261  12.477
46946W        W 8367  17.185  21.237  14.829
46947W        W 8368  39.828  41.961   1.277
46948W        W 8369  13.826  11.186  13.814
46949W        W 8370  12.808  43.417   2.387
46950W        W 8371  10.727   7.723   4.116
46951W        W 8372  37.501  31.613   0.324
46952W        W 8373  29.957  33.515   4.614
46953W        W 8374  16.644  34.491  10.635
46954W        W 8375  44.356   4.830   0.828
46955W        W 8376  10.662  29.457   0.943
46956W        W 8377   5.322   8.693   2.776
46957W        W 8378   3.870  38.413  12.433
46958W        W 8379  40.856  19.259  12.466
46959W        W 8380  18.208  40.378   1.428
46960W        W 8381  22.023   1.409  11.463
46961W        W 8382  31.989   0.896   1.277
46962W        W 8383  16.693  15.126   2.664
46963W        W 8384   9.800  14.742  13.998
46964W        W 8385   0.825  23.036  13.533
46965W        W 8386  43.907  24.030  11.512
46966W        W 8387  25.671  26.984   0.308
46967W        W 8388  24.144  43.865   4.765
46968W        W 8389   6.235  15.093  11.094
46969W        W 8390  13.280  18.100  12.389
46970W        W 8391  36.039  31.431  10.958
46971W        W 8392  26.107  19.239   0.804
46972W        W 8393   9.326  19.197   3.362
46973W        W 8394  31.408  38.416   1.902
46974W        W 8395  44.004  34.465  11.553
46975W        W 8396  14.333  21.617  13.940
46976W        W 8397  39.022   1.834   1.451
46977W        W 8398  28.097  17.147   4.623
46978W        W 8399  24.577  34.910  13.468
46979W        W 8400  43.327   9.362   0.462
46980W        W 8401  20.529   4.718   3.766
46981W        W 8402  43.291  26.058   4.743
46982W        W 8403  44.874  11.134  10.636
46983W        W 8404  37.884  15.212  12.069
46984W        W 8405   8.273  44.849  10.488
46985W        W 8406  10.796  20.597  12.463
46986W        W 8407   7.838  29.130   2.380
46987W        W 8408  25.473   4.417   5.140
46988W        W 8409  19.196  21.633   1.419
46989W        W 8410   5.854  10.722   2.860
46990W        W 8411  40.402  31.596   4.317
46991W        W 8412  10.682  17.134   2.416
46992W        W 8413  17.638   0.388  12.508
46993W        W 8414  44.442  35.564   5.111
46994W        W 8415  37.871  30.451  13.464
46995W        W 8416  12.270  33.513   0.825
46996W        W 8417  14.142  40.020  13.968
46997W        W 8418  16.126  23.706  12.856
46998W        W 8419  12.247  15.296   3.376
46999W        W 8420  19.115  22.997   0.900
47000W        W 8421  40.542   2.429   2.179
47001W        W 8422  20.220  33.120  12.567
47002W        W 8423   6.810  44.503  14.504
47003W        W 8424  26.577  27.465  14.025
47004W        W 8425  38.918  21.246  13.001
47005W        W 8426  31.950  36.528  13.902
47006W        W 8427  39.812  16.233  10.043
47007W        W 8428  28.102  42.954   1.345
47008W        W 8429  14.705   1.747  13.313
47009W        W 8430  32.448   2.826   3.353
47010W        W 8431  36.534  16.683   0.822
47011W        W 8432  35.892  29.526   1.233
47012W        W 8433  34.523  38.395  14.772
47013W        W 8434  24.666   4.290  11.049
47014W        W 8435  23.196  40.028   2.661
47015W        W 8436  36.943  29.000  13.951
47016W        W 8437  34.102  12.132   0.382
47017W        W 8438   8.303  20.250   0.816
47018W        W 8439  30.595  21.196  12.050
47019W        W 8440  43.991   7.802   0.262
47020W        W 8441  13.740  25.118  11.895
47021W        W 8442  27.664   7.862  11.985
47022W        W 8443  20.705  43.475  10.550
47023W        W 8444  15.277  27.459  11.869
47024W        W 8445  13.829  25.044   2.819
47025W        W 8446  20.627   0.344   2.408
47026W        W 8447   3.375  17.633  14.383
47027W        W 8448  29.435  37.487  11.556
47028W        W 8449  44.322   4.435  13.931
47029W        W 8450  24.076  15.195   4.777
47030W        W 8451   6.212  10.839  14.427
47031W        W 8452  17.149  40.826   0.820
47032W        W 8453   8.309   2.344  14.025
47033W        W 8454  15.661   6.858  12.027
47034W        W 8455  18.630  10.762  13.463
47035W        W 8456  38.895  11.242   4.697
47036W        W 8457  40.389  20.208   0.800
47037W        W 8458  16.710  36.946  10.912
47038W        W 8459  41.334  33.478   4.837
47039W        W 8460  21.597  14.800  10.549
47040W        W 8461  43.389  28.017   2.874
47041W        W 8462  15.201  15.677   0.473
47042W        W 8463  16.272  12.812   1.926
47043W        W 8464  36.087   4.210   2.902
47044W        W 8465  18.116  35.488  14.323
47045W        W 8466  32.113  41.340   2.377
47046W        W 8467   2.847  12.343  10.561
47047W        W 8468   0.928  16.286  14.365
47048W        W 8469   5.855  14.727  10.502
47049W        W 8470  15.313  10.649   2.679
47050W        W 8471  40.843  29.083  12.391
47051W        W 8472  22.064  21.536   2.798
47052W        W 8473  21.687  37.913  14.467
47053W        W 8474  21.134  17.773   3.326
47054W        W 8475  36.915  20.074   1.272
47055W        W 8476   3.442  42.524   3.213
47056W        W 8477  32.005  24.011  10.433
47057W        W 8478  16.612   5.342   3.385
47058W        W 8479   6.765  38.497   0.367
47059W        W 8480  36.570  11.288   0.781
47060W        W 8481   5.898  29.066  14.307
47061W        W 8482  30.465   0.443  12.972
47062W        W 8483   6.189  35.512   1.830
47063W        W 8484  44.463  28.128   1.331
47064W        W 8485  22.096  27.044   3.379
47065W        W 8486   2.841  20.623  10.634
47066W        W 8487  26.558  23.009   4.696
47067W        W 8488  37.466  18.683   1.228
47068W        W 8489  24.496  38.403  12.395
47069W        W 8490  32.623  35.046   2.300
47070W        W 8491   7.765  34.413   4.301
47071W        W 8492  27.682  27.996   3.332
47072W        W 8493  38.959  23.096   1.885
47073W        W 8494  18.597  23.709   4.699
47074W        W 8495   6.850   3.729  12.959
47075W        W 8496  34.370  19.201   1.921
47076W        W 8497  31.096  14.186   3.725
47077W        W 8498  20.063   9.307  10.611
47078W        W 8499  34.879   6.686  10.904
47079W        W 8500  25.695  24.158  12.093
47080W        W 8501  27.582  27.645  13.040
47081W        W 8502  27.998  26.031  11.984
47082W        W 8503  30.939  39.955  11.045
47083W        W 8504  12.628  12.744  14.879
47084W        W 8505  12.820  21.135  13.812
47085W        W 8506  29.949   4.222  10.456
47086W        W 8507  12.223   2.403   3.651
47087W        W 8508  36.349  25.547  13.461
47088W        W 8509  30.546  24.110  12.824
47089W        W 8510   8.803  10.829   0.291
47090W        W 8511  27.069   7.763   1.837
47091W        W 8512  35.947  30.126   2.785
47092W        W 8513   0.488  14.619   4.770
47093W        W 8514  44.350  11.244  11.882
47094W        W 8515  23.028  14.181  14.982
47095W        W 8516  35.983  31.457   3.800
47096W        W 8517  21.554  31.611   0.729
47097W        W 8518   8.672  44.398   3.707
47098W        W 8519  36.501  15.181   3.648
47099W        W 8520  14.160  20.572  13.895
47100W        W 8521  32.412  43.882   1.872
47101W        W 8522  27.554  15.641   0.741
47102W        W 8523   8.280  23.990   3.193
47103W        W 8524  23.190  19.273  14.861
47104W        W 8525  10.842  23.721   3.262
47105W        W 8526  11.318  27.197   3.764
47106W        W 8527  12.661  44.971  10.514
47107W        W 8528   5.199   7.233  10.615
47108W        W 8529  32.496  19.771   1.722
47109W        W 8530  25.573  31.018  12.408
47110W        W 8531  37.972  40.488  12.846
47111W        W 8532  26.502   1.760  12.456
47112W        W 8533  28.625   7.180  10.461
47113W        W 8534  11.328  42.852  14.478
47114W        W 8535   4.858  30.648  13.999
47115W        W 8536  36.419   4.817   4.291
47116W        W 8537   9.329  21.752   1.258
47117W        W 8538  15.127  19.612   2.263
47118W        W 8539  24.500  29.565   1.701
47119W        W 8540   8.282  16.296  11.482
47120W        W 8541   0.845  23.694  13.413
47121W        W 8542  44.497  32.129  11.045
47122W        W 8543  36.884  12.842  13.808
47123W        W 8544   6.314  34.973  13.988
47124W        W 8545  30.081   3.414   2.835
47125W        W 8546  14.253  40.458   3.308
47126W        W 8547  10.162  38.029  11.894
47127W        W 8548   9.731   9.346  13.314
47128W        W 8549   8.264   4.410  10.983
47129W        W 8550  13.334  39.916   0.863
47130W        W 8551  31.497  11.156  10.439
47131W        W 8552  23.711  38.895  13.894
47132W        W 8553  40.025  23.577   3.846
47133W        W 8554  24.984   7.907  10.468
47134W        W 8555  18.278  33.053   3.178
47135W        W 8556  16.095   4.804  13.054
47136W        W 8557  42.514  35.902  14.403
47137W        W 8558   7.401   5.286   2.846
47138W        W 8559  19.091  14.099  13.544
47139W        W 8560  35.087  20.613  11.566
47140W        W 8561  11.718  29.516  14.365
47141W        W 8562   1.911  44.404  13.360
47142W        W 8563  31.475  33.397  10.999
47143W        W 8564   0.963  22.048  11.940
47144W        W 8565  19.742  21.607  12.868
47145W        W 8566  19.634   6.749   4.128
47146W        W 8567  10.707  41.445   0.367
47147W        W 8568  12.281  21.629  14.396
47148W        W 8569  31.997   1.892   0.351
47149W        W 8570   0.303  20.539  12.425
47150W        W 8571  22.651  37.986  10.622
47151W        W 8572  40.435  41.328   5.195
47152W        W 8573  42.310  35.437   0.737
47153W        W 8574  39.319  10.731  11.508
47154W        W 8575  11.650  13.202  13.538
47155W        W 8576   5.904  44.402   0.298
47156W        W 8577  16.639  24.113   3.323
47157W        W 8578   5.263   8.790  12.354
47158W        W 8579  40.910  31.540  13.366
47159W        W 8580  32.502  21.170  12.352
47160W        W 8581  39.824   6.202  10.936
47161W        W 8582  32.124  28.052   1.778
47162W        W 8583  33.623  29.615  12.408
47163W        W 8584  28.572  14.640  12.458
47164W        W 8585  23.068  23.718  14.999
47165W        W 8586  32.078  35.878  13.362
47166W        W 8587   5.717  36.001  12.423
47167W        W 8588  13.143   0.971   1.248
47168W        W 8589  15.699  15.226   4.810
47169W        W 8590  34.565  12.184   0.829
47170W        W 8591  12.161  31.009   4.215
47171W        W 8592  23.541  39.908   1.873
47172W        W 8593  39.388  20.567  14.428
47173W        W 8594  36.428  36.391   2.203
47174W        W 8595  16.074   1.759  10.410
47175W        W 8596  29.099   6.778  14.331
47176W        W 8597  27.139   8.776   3.859
47177W        W 8598  16.804  25.220  11.395
47178W        W 8599  42.920  20.215   2.717
47179W        W 8600  44.294  31.079  14.933
47180W        W 8601   1.308   4.281  13.957
47181W        W 8602  29.145  40.992  11.571
47182W        W 8603   4.274   0.888  14.029
47183W        W 8604  41.502  38.935  14.962
47184W        W 8605  42.890  44.954  12.420
47185W        W 8606  19.633   1.733  11.914
47186W        W 8607  14.641  30.055   0.957
47187W        W 8608  36.526  26.638  11.866
47188W        W 8609  40.940  39.938  13.792
47189W        W 8610  37.931  27.613   1.858
47190W        W 8611  38.838  35.059  13.873
47191W        W 8612  25.702   3.385  11.410
47192W        W 8613  29.096  27.533   3.211
47193W        W 8614   8.679  16.770  13.540
47194W        W 8615  38.410  15.183  10.553
47195W        W 8616  11.781  23.041  11.052
47196W        W 8617  16.249  38.510   1.225
47197W        W 8618  44.261  42.381   4.823
47198W        W 8619  41.524  28.671   4.126
47199W        W 8620  18.094  16.318  13.824
47200W        W 8621   6.839  44.282   3.324
47201W        W 8622  26.653  40.967   4.119
47202W        W 8623  32.972  34.586  12.024
47203W        W 8624  21.217  28.533   3.296
47204W        W 8625  12.639  14.822  14.832
47205W        W 8626  26.093  27.128   0.310
47206W        W 8627  15.640  12.241  14.799
47207W        W 8628  28.983  14.275   3.258
47208W        W 8629  10.245  33.502   4.139
47209W        W 8630   3.886  10.149  11.105
47210W        W 8631  42.505   4.333  12.887
47211W        W 8632  15.660  28.029   1.340
47212W        W 8633   2.238   7.825  11.064
47213W        W 8634  28.470   2.926  11.599
47214W        W 8635  16.080  20.158   0.251
47215W        W 8636   7.322  23.075  12.074
47216W        W 8637  43.508  13.792  10.574
47217W        W 8638  16.262  25.678   0.294
47218W        W 8639  38.907  28.520   1.810
47219W        W 8640  18.150  42.320  13.797
47220W        W 8641  39.498   5.392  13.472
47221W        W 8642   1.893  42.883  14.784
47222W        W 8643  31.608  25.574   2.240
47223W        W 8644  11.716  31.107  10.611
47224W        W 8645   8.195  39.981  12.483
47225W        W 8646   9.770   0.771   2.281
47226W        W 8647  44.378  39.467  10.627
47227W        W 8648  43.407  22.716  11.566
47228W        W 8649  41.299  10.660  12.066
47229W        W 8650  22.518  42.969   3.842
47230W        W 8651  14.251  19.746   1.750
47231W        W 8652  21.197  18.706   2.301
47232W        W 8653   2.890  44.873   2.277
47233W        W 8654  32.492  30.468  13.345
47234W        W 8655  36.375  28.618  11.967
47235W        W 8656  15.821  37.947   2.278
47236W        W 8657  21.239   3.858  12.853
47237W        W 8658  40.324  42.436   2.289
47238W        W 8659   3.276  35.528  10.523
47239W        W 8660  33.496  32.466   2.896
47240W        W 8661  27.150  29.492  12.473
47241W        W 8662  18.251  27.527   0.957
47242W        W 8663   2.380   2.322   0.849
47243W        W 8664  33.062   3.409  10.000
47244W        W 8665  10.706  38.415   2.335
47245W        W 8666   0.748  42.959  12.564
47246W        W 8667   3.905   9.359   4.328
47247W        W 8668  38.418  40.924   0.338
47248W        W 8669  18.154   1.786   0.379
47249W        W 8670  10.159  29.975  10.922
47250W        W 8671  36.955   8.259  14.766
47251W        W 8672  36.366  11.852  13.857
47252W        W 8673  11.725  16.665   2.413
47253W        W 8674  39.336   9.784   1.766
47254W        W 8675   4.702  20.164  12.869
47255W        W 8676   4.425  32.934   4.712
47256W        W 8677  11.326  27.090   1.431
47257W        W 8678  32.412   5.351  10.000
47258W        W 8679   6.420  35.859  10.636
47259W        W 8680   2.413   1.734  12.839
47260W        W 8681  38.443  29.092   0.327
47261W        W 8682  32.139  32.033   2.667
47262W        W 8683  20.690  43.491   3.744
47263W        W 8684  21.611  11.163  12.028
47264W        W 8685  15.615  31.058   3.855
47265W        W 8686  40.818  33.010   0.320
47266W        W 8687  21.648   8.695   0.452
47267W        W 8688  41.370  35.991  14.971
47268W        W 8689  37.855  10.221  11.108
47269W        W 8690   3.860  11.280   0.745
47270W        W 8691  42.822  36.852   4.735
47271W        W 8692  20.031  43.003  12.455
47272W        W 8693  23.151  10.793  13.515
47273W        W 8694  22.166  36.453   0.457
47274W        W 8695  42.798  28.578  13.541
47275W        W 8696  19.069   0.876  10.953
47276W        W 8697  41.939  26.134   4.339
47277W        W 8698  10.157  20.204  12.885
47278W        W 8699  27.637  26.549  12.824
47279W        W 8700  32.445  39.934  13.524
47280W        W 8701  22.134  19.690   2.309
47281W        W 8702   9.241  32.570  11.883
47282W        W 8703  37.395  35.916  14.354
47283W        W 8704  17.568  13.618   1.827
47284W        W 8705  23.557  13.250  14.824
47285W        W 8706  32.606  37.515   4.728
47286W        W 8707  42.424  21.543   1.287
47287W        W 8708  33.445   8.184   5.207
47288W        W 8709   9.271   0.760   5.128
47289W        W 8710  37.431  22.152  12.066
47290W        W 8711  19.167  17.212   3.828
47291W        W 8712  44.481  15.629   2.724
47292W        W 8713   2.849  22.066   0.942
47293W        W 8714  29.054  11.780   0.932
47294W        W 8715  40.419  16.222  14.482
47295W        W 8716  41.000  11.843   5.174
47296W        W 8717  17.151  29.495   3.693
47297W        W 8718  38.013   0.264   1.326
47298W        W 8719  32.508  44.963   3.160
47299W        W 8720  41.323  33.097  10.968
47300W        W 8721  10.328  22.661  11.939
47301W        W 8722   7.879   8.790   1.859
47302W        W 8723  44.439  32.116  11.995
47303W        W 8724  24.551  10.238  12.860
47304W        W 8725  32.540  27.094  12.900
47305W        W 8726  26.143   5.295  12.881
47306W        W 8727  14.249   9.802  12.042
47307W        W 8728  42.343  16.167   0.727
47308W        W 8729  17.614   5.419   2.699
47309W        W 8730   5.203  26.996   0.334
47310W        W 8731  13.696  23.106   4.250
47311W        W 8732  14.335  26.006   3.756
47312W        W 8733  22.128  43.848   4.220
47313W        W 8734   2.856  12.336  14.851
47314W        W 8735  14.310   0.457  12.534
47315W        W 8736   7.211  15.327   0.451
47316W        W 8737   1.763  18.274  13.876
47317W        W 8738  42.303  30.097  11.885
47318W        W 8739  26.186  12.802  13.487
47319W        W 8740  12.632  37.988  13.964
47320W        W 8741  17.261   3.813  13.388
47321W        W 8742  25.985   5.223   2.184
47322W        W 8743  31.615  19.064   4.344
47323W        W 8744  37.384  33.070   4.626
47324W        W 8745  11.235  42.842   0.930
47325W        W 8746  38.898  41.945   5.220
47326W        W 8747  43.808  25.696  10.920
47327W        W 8748  16.176  20.163   4.744
47328W        W 8749   6.329  29.618  12.571
47329W        W 8750  37.919  35.480   2.806
47330W        W 8751   0.430  36.033  12.487
47331W        W 8752   3.265  21.737  13.393
47332W        W 8753   7.383  32.912  12.889
47333W        W 8754  29.425   0.481   3.383
47334W        W 8755  43.271  29.980   0.753
47335W        W 8756   8.675  37.580  10.953
47336W        W 8757  10.637   1.303  13.354
47337W        W 8758  19.732  14.314  14.408
47338W        W 8759  20.059  38.014   4.709
47339W        W 8760   2.955   5.721   0.359
47340W        W 8761   4.315  33.999  14.469
47341W        W 8762  16.196  14.145   9.565
47342W        W 8763  25.017  37.501   1.828
47343W        W 8764   1.337  17.615   4.676
47344W        W 8765  21.572  10.261  14.512
47345W        W 8766  31.493   3.740  14.880
47346W        W 8767  33.597  11.197   0.364
47347W        W 8768   6.202   8.304  12.892
47348W        W 8769  39.985  35.480   1.386
47349W        W 8770  42.865   9.281  13.031
47350W        W 8771   3.853  35.469  12.365
47351W        W 8772   4.746  24.598   0.471
47352W        W 8773  42.929  12.672   4.301
47353W        W 8774  17.665   9.315  14.380
47354W        W 8775  39.833   8.374   0.385
47355W        W 8776  35.899  39.405   3.835
47356W        W 8777  38.022  11.322  14.783
47357W        W 8778  30.509  32.990  11.463
47358W        W 8779  13.124  20.744  11.544
47359W        W 8780  17.275  42.484   3.863
47360W        W 8781  34.374  37.380   1.328
47361W        W 8782  17.173  33.058  11.409
47362W        W 8783  10.812  38.551   5.145
47363W        W 8784  43.841  42.823  14.280
47364W        W 8785  43.981  11.165   0.465
47365W        W 8786  29.566  38.012   1.722
47366W        W 8787   5.812  31.907  12.413
47367W        W 8788  23.072  30.063   4.297
47368W        W 8789  31.601   9.656  13.386
47369W        W 8790  42.366  36.413  10.953
47370W        W 8791  34.596  26.957  10.449
47371W        W 8792  32.986  27.639  14.006
47372W        W 8793  33.490  36.471  13.971
47373W        W 8794  28.039  14.340   0.355
47374W        W 8795   1.944  32.885  14.444
47375W        W 8796  26.097  21.628   3.324
47376W        W 8797  30.149  42.933   1.707
47377W        W 8798  37.537  26.508   3.171
47378W        W 8799  42.008  34.934   9.966
47379W        W 8800  32.942  39.558  13.478
47380W        W 8801   8.809  16.233   3.209
47381W        W 8802  42.323  35.010   4.791
47382W        W 8803  36.462  40.816  12.047
47383W        W 8804   1.924  17.783   2.815
47384W        W 8805  44.850   0.764   4.732
47385W        W 8806  27.978  11.214  13.514
47386W        W 8807  19.086  42.376  10.905
47387W        W 8808  21.644  30.010  12.377
47388W        W 8809  14.702  38.946   5.162
47389W        W 8810   9.383  34.394   4.733
47390W        W 8811  15.156   3.418  12.358
47391W        W 8812  29.972  30.118   1.860
47392W        W 8813   2.747  34.551  12.566
47393W        W 8814  11.288  21.521  13.391
47394W        W 8815  19.191  36.465   3.698
47395W        W 8816  15.319  41.928  11.435
47396W        W 8817  18.223  32.019   4.262
47397W        W 8818  18.297  21.724  13.985
47398W        W 8819  20.066   9.233  14.515
47399W        W 8820  15.662  34.516   9.989
47400W        W 8821  32.624  19.113  14.416
47401W        W 8822  35.377  42.328   1.443
47402W        W 8823  14.724  41.982   1.371
47403W        W 8824  11.829  11.732  14.499
47404W        W 8825  19.123  25.585  14.436
47405W        W 8826  20.182  14.664   3.776
47406W        W 8827  44.974  30.414  13.312
47407W        W 8828   0.281  22.136   2.889
47408W        W 8829  35.992  36.895   0.325
47409W        W 8830  33.928  39.399   2.864
47410W        W 8831  11.140  39.973  13.470
47411W        W 8832  13.134   7.233   3.188
47412W        W 8833   6.695  43.301  11.413
47413W        W 8834  33.538  40.854   1.397
47414W        W 8835  43.928  20.544  12.011
47415W        W 8836  23.614  16.238   4.294
47416W        W 8837  35.477   7.815   0.770
47417W        W 8838  42.413   5.757   2.823
47418W        W 8839  22.006  10.337  12.441
47419W        W 8840  32.543   1.947  12.881
47420W        W 8841   7.724  33.895  14.800
47421W        W 8842   1.258  43.429   2.314
47422W        W 8843  41.891  39.052  13.793
47423W        W 8844  30.560   8.762   0.743
47424W        W 8845  19.677  17.280   0.397
47425W        W 8846  20.080  23.590  11.099
47426W        W 8847   8.840  31.634   1.307
47427W        W 8848  39.831   5.304   1.817
47428W        W 8849  40.943  17.732  10.899
47429W        W 8850   0.446   3.232  12.882
47430W        W 8851   3.298  38.848  11.439
47431W        W 8852  27.063  36.001  10.492
47432W        W 8853   2.316  38.037  12.826
47433W        W 8854   3.763  38.005   4.206
47434W        W 8855   1.446   2.379   4.182
47435W        W 8856   0.821  40.523   3.305
47436W        W 8857   1.308  26.060   0.835
47437W        W 8858  27.515  25.529  11.378
47438W        W 8859  12.696  38.567  12.451
47439W        W 8860  22.145  34.870  14.002
47440W        W 8861   1.932  14.323  11.383
47441W        W 8862  17.177   9.651  12.523
47442W        W 8863  42.321  37.481   4.611
47443W        W 8864  24.228  34.900  11.861
47444W        W 8865  16.763   7.700   0.866
47445W        W 8866  10.384  34.472  11.409
47446W        W 8867  30.925  36.427   0.733
47447W        W 8868  28.163  26.499   3.791
47448W        W 8869  35.930  16.112  13.436
47449W        W 8870  27.467  35.857  12.049
47450W        W 8871  41.343   2.367   0.761
47451W        W 8872  26.531  17.662  12.849
47452W        W 8873  27.504   9.851  11.374
47453W        W 8874  39.874  16.627   2.258
47454W        W 8875  27.545   6.236   2.729
47455W        W 8876  32.548  38.847   3.691
47456W        W 8877  21.755   5.802  10.933
47457W        W 8878  13.797  44.478  10.926
47458W        W 8879  27.617  38.917  11.451
47459W        W 8880  14.101  17.212   5.206
47460W        W 8881   5.337   9.819  11.446
47461W        W 8882  18.663  41.818  14.480
47462W        W 8883  40.375  18.292  11.429
47463W        W 8884   4.824  42.796  13.028
47464W        W 8885  18.128  43.516   0.420
47465W        W 8886  40.486   8.297   1.900
47466W        W 8887  17.135  41.008  12.995
47467W        W 8888  44.940  23.224  12.907
47468W        W 8889   0.842  31.112   0.385
47469W        W 8890  29.664  37.009  14.936
47470W        W 8891  38.076  43.864  12.999
47471W        W 8892  19.179  11.863   0.243
47472W        W 8893  35.505   3.356   5.643
47473W        W 8894  15.734  25.566   1.698
47474W        W 8895  33.568  34.086  12.915
47475W        W 8896  25.613   9.238   2.688
47476W        W 8897   4.781  41.449   1.296
47477W        W 8898  29.143   5.891  13.903
47478W        W 8899  11.645  40.828  12.005
47479W        W 8900  27.150  18.649  11.534
47480W        W 8901  38.405  36.591   4.145
47481W        W 8902  10.743  29.018  11.385
47482W        W 8903  31.488  29.536   2.236
47483W        W 8904  21.648  36.029   0.449
47484W        W 8905  19.705  22.638  11.936
47485W        W 8906  30.078  39.536  10.616
47486W        W 8907  25.605  27.009  14.934
47487W        W 8908  36.484  16.289  14.978
47488W        W 8909  29.493  20.674   3.267
47489W        W 8910  44.771  22.717  11.576
47490W        W 8911  17.778   0.274   1.933
47491W        W 8912   9.268  44.287   3.795
47492W        W 8913  31.491  38.074   4.731
47493W        W 8914  32.478   0.867  11.933
47494W        W 8915  36.915  13.654   9.652
47495W        W 8916  32.440  16.220  12.433
47496W        W 8917  41.811  26.005   1.451
47497W        W 8918   4.732  35.937  10.045
47498W        W 8919  14.599   2.795   3.789
47499W        W 8920  20.034  13.834  13.793
47500W        W 8921  35.946  18.196  10.488
47501W        W 8922  38.075   6.232   4.691
47502W        W 8923  20.751   1.935  12.092
47503W        W 8924  44.334  33.068   1.841
47504W        W 8925   7.278   6.826   1.812
47505W        W 8926  13.198  33.958   3.150
47506W        W 8927  11.691  24.059   1.341
47507W        W 8928   1.958  22.014  14.289
47508W        W 8929   8.721  43.913   3.353
47509W        W 8930  41.963  42.525  12.340
47510W        W 8931  13.340  15.585  13.986
47511W        W 8932   0.900   3.884   2.276
47512W        W 8933   9.821   7.181  11.053
47513W        W 8934   2.735  23.069   1.272
47514W        W 8935  32.118  16.739   0.901
47515W        W 8936  21.230  26.077  14.834
47516W        W 8937  23.990  21.247  10.550
47517W        W 8938  16.811  15.271  13.868
47518W        W 8939   2.448   3.287  14.503
47519W        W 8940  34.982  39.367  12.003
47520W        W 8941  10.251  34.045  13.443
47521W        W 8942  11.176  29.589  11.096
47522W        W 8943  44.429  43.294  10.598
47523W        W 8944  16.172  30.165   3.846
47524W        W 8945  14.627  15.240   1.390
47525W        W 8946  31.409  29.995  13.434
47526W        W 8947  20.540  40.984   3.633
47527W        W 8948  13.801  30.523  13.459
47528W        W 8949   8.876  11.698   0.419
47529W        W 8950  22.645  38.858  10.892
47530W        W 8951  21.064  34.987  14.324
47531W        W 8952   8.339  25.660   3.363
47532W        W 8953  43.811  43.502   3.658
47533W        W 8954  40.940  38.368  12.538
47534W        W 8955  35.032   7.714  10.959
47535W        W 8956  39.870  23.731   1.345
47536W        W 8957  39.045  25.198   5.183
47537W        W 8958  36.001  41.437  14.768
47538W        W 8959   8.739   6.324   3.320
47539W        W 8960   0.468  19.780   0.270
47540W        W 8961   0.909  19.641  14.388
47541W        W 8962  15.180   4.340  13.361
47542W        W 8963  11.294  31.093  13.013
47543W        W 8964   1.797  32.428   0.771
47544W        W 8965  28.669   5.254   0.426
47545W        W 8966  13.348   1.412   2.308
47546W        W 8967  25.200   6.291   5.604
47547W        W 8968  36.477  10.876  13.807
47548W        W 8969   8.370  30.635   3.868
47549W        W 8970  39.362  42.320   3.211
47550W        W 8971  17.759  35.477   1.421
47551W        W 8972  41.515  44.935   3.161
47552W        W 8973  25.653  25.545   4.681
47553W        W 8974  37.339  39.930   4.210
47554W        W 8975   9.737   7.769   1.724
47555W        W 8976  34.467   0.757   5.114
47556W        W 8977  35.030  41.344   4.115
47557W        W 8978  18.558  29.561  13.478
47558W        W 8979  22.516  40.955   2.254
47559W        W 8980  41.479  10.242  11.417
47560W        W 8981  19.271  37.575  12.835
47561W        W 8982   7.270   1.867  14.759
47562W        W 8983   0.373  40.808   0.462
47563W        W 8984   9.660  42.872  12.876
47564W        W 8985  16.198  25.159   3.267
47565W        W 8986  36.958  38.043  12.983
47566W        W 8987  39.998  42.469   0.284
47567W        W 8988  20.167   6.875  11.982
47568W        W 8989  28.998  14.590  12.532
47569W        W 8990  35.883  38.380   1.353
47570W        W 8991   0.459  36.526   2.207
47571W        W 8992  22.085  15.811   5.314
47572W        W 8993  44.323  19.127  14.288
47573W        W 8994   7.188   0.260   3.696
47574W        W 8995  38.395  30.624   1.241
47575W        W 8996  33.404   3.374   1.763
47576W        W 8997  42.442  11.313   2.776
47577W        W 8998  25.479  29.974  11.875
47578W        W 8999  41.324   4.939   2.677
47579W        W 9000  15.179  10.714   0.777
47580W        W 9001  37.566  36.571   2.737
47581W        W 9002  38.073   1.374   3.306
47582W        W 9003  43.910   8.277  14.301
47583W        W 9004   7.903  23.154   3.725
47584W        W 9005  27.073   0.456   4.749
47585W        W 9006  31.944  12.720   0.480
47586W        W 9007  10.271   1.260  12.906
47587W        W 9008   1.919   6.912   4.818
47588W        W 9009  10.375  15.155   4.717
47589W        W 9010   0.939   2.424  11.574
47590W        W 9011  29.967  44.978   4.720
47591W        W 9012  11.643  28.542  13.955
47592W        W 9013  23.643  25.491   4.280
47593W        W 9014   7.317  13.625   0.893
47594W        W 9015   6.327  17.687  12.415
47595W        W 9016  23.692   9.374   3.787
47596W        W 9017  40.472  38.418  13.847
47597W        W 9018  14.696  19.065   1.320
47598W        W 9019   1.268   0.458  13.853
47599W        W 9020  43.282  40.424   1.751
47600W        W 9021  12.802  39.954   3.225
47601W        W 9022   4.909  29.144   3.321
47602W        W 9023  23.546  37.058   3.323
47603W        W 9024  26.079  25.050  13.835
47604W        W 9025  18.131  43.897  13.480
47605W        W 9026  22.732   3.903  13.489
47606W        W 9027  34.411  18.209  11.964
47607W        W 9028  35.584   6.198  13.955
47608W        W 9029  22.184   5.405  13.544
47609W        W 9030  43.515  16.753  13.969
47610W        W 9031   3.294  40.508   4.153
47611W        W 9032  24.015  14.680  13.441
47612W        W 9033  17.697   4.346  12.909
47613W        W 9034  21.218  28.492  13.371
47614W        W 9035  13.116  32.960   3.630
47615W        W 9036  36.478  31.535   1.361
47616W        W 9037  42.517  11.764  11.013
47617W        W 9038  16.692  13.804  12.858
47618W        W 9039  35.926  36.877  12.495
47619W        W 9040  25.596  25.002  13.320
47620W        W 9041   4.413  32.125   3.717
47621W        W 9042  19.774  36.897  12.059
47622W        W 9043  25.472  23.591   2.412
47623W        W 9044   2.414  20.124   4.691
47624W        W 9045  37.926   7.237  13.323
47625W        W 9046  30.067  24.215  10.593
47626W        W 9047  19.164  13.297   5.683
47627W        W 9048  35.521  34.885   4.755
47628W        W 9049  29.073  42.900   0.895
47629W        W 9050   5.232  23.159   1.833
47630W        W 9051  28.471  10.714   2.284
47631W        W 9052  34.017   2.371  14.806
47632W        W 9053  33.585  41.339  14.003
47633W        W 9054  37.375  11.708  12.009
47634W        W 9055  41.503  30.460  10.996
47635W        W 9056  18.205  24.500   1.894
47636W        W 9057  10.269   0.346  13.031
47637W        W 9058  16.238  39.423   4.808
47638W        W 9059  10.153  40.031   2.848
47639W        W 9060  27.145  20.558  10.601
47640W        W 9061   2.277   7.353   4.220
47641W        W 9062  25.029   1.248  12.569
47642W        W 9063  32.472  23.041  13.384
47643W        W 9064  19.562  27.107   2.714
47644W        W 9065   4.703  14.817   4.745
47645W        W 9066   9.351   6.913  13.518
47646W        W 9067   2.944  43.809   2.864
47647W        W 9068  32.089  26.631  10.544
47648W        W 9069  17.733  24.975   0.256
47649W        W 9070  37.065   4.400   0.886
47650W        W 9071  13.292  26.063   3.192
47651W        W 9072   5.691  30.522   0.359
47652W        W 9073  27.593  14.121   1.787
47653W        W 9074  20.710  11.363   4.164
47654W        W 9075  20.604  18.255  13.909
47655W        W 9076  12.655   7.245  10.541
47656W        W 9077  21.055   1.928  12.530
47657W        W 9078   4.235  30.442  12.547
47658W        W 9079  31.963  28.047   1.421
47659W        W 9080  28.459  27.537   3.249
47660W        W 9081  39.936   3.237  13.867
47661W        W 9082   2.371  40.987   1.417
47662W        W 9083  40.912   9.696   0.840
47663W        W 9084  44.901   9.162  13.396
47664W        W 9085  23.622  34.070   4.688
47665W        W 9086  38.000  21.636  12.067
47666W        W 9087  23.004   9.160  12.554
47667W        W 9088   4.843  22.153   1.415
47668W        W 9089  36.508  17.594  12.022
47669W        W 9090  26.632   3.790   2.322
47670W        W 9091  40.440  15.140  10.630
47671W        W 9092  41.955  23.149   4.233
47672W        W 9093  14.685   1.450  14.293
47673W        W 9094  19.539  44.826  10.547
47674W        W 9095   3.832   9.359   0.452
47675W        W 9096  14.629  24.712  10.608
47676W        W 9097  33.100  10.188   3.750
47677W        W 9098  38.337   2.404   2.734
47678W        W 9099  30.486  43.820   4.740
47679W        W 9100  22.577  14.177   4.176
47680W        W 9101  31.524   0.853  13.860
47681W        W 9102  40.484   3.334   1.451
47682W        W 9103  13.268  23.703  12.975
47683W        W 9104  11.644   9.751  13.944
47684W        W 9105  32.933  32.427   3.275
47685W        W 9106  20.672   1.849   0.760
47686W        W 9107  12.621   8.189   1.262
47687W        W 9108  20.107   2.351   0.942
47688W        W 9109   0.862   7.840   1.820
47689W        W 9110  33.908  12.332   2.791
47690W        W 9111  38.035  21.093  14.960
47691W        W 9112  27.005  18.256  11.546
47692W        W 9113  16.688  33.083   0.732
47693W        W 9114   5.714   1.924  12.426
47694W        W 9115  27.457  42.958   3.660
47695W        W 9116  11.280  39.000   5.094
47696W        W 9117   0.917  31.983  14.487
47697W        W 9118  28.981  15.267   0.352
47698W        W 9119  34.530  10.167   0.353
47699W        W 9120  29.019  25.505  14.458
47700W        W 9121  19.231  38.033  14.322
47701W        W 9122  14.116  33.560  11.526
47702W        W 9123  39.379  19.085  12.573
47703W        W 9124  24.010  42.861  14.823
47704W        W 9125   6.901  14.721  14.488
47705W        W 9126  24.172  29.076  12.360
47706W        W 9127  24.219  14.327  10.032
47707W        W 9128  22.584  36.995   0.867
47708W        W 9129   7.289  29.544  12.515
47709W        W 9130   7.301  24.651   0.892
47710W        W 9131  30.123  11.752   0.357
47711W        W 9132   3.854  30.129  13.358
47712W        W 9133  11.341  30.914  13.505
47713W        W 9134   4.743  19.633   4.653
47714W        W 9135  13.832  43.930  13.324
47715W        W 9136  18.709  37.351   3.265
47716W        W 9137   6.745  40.831   1.866
47717W        W 9138   1.801  36.557   0.758
47718W        W 9139  11.249  24.216  12.394
47719W        W 9140  44.310   3.852  14.029
47720W        W 9141  29.053  40.393  12.907
47721W        W 9142  30.587  19.058  12.556
47722W        W 9143  20.524  43.462  10.931
47723W        W 9144  12.195  19.059  12.384
47724W        W 9145  42.849  21.617  12.839
47725W        W 9146   6.877  16.649  12.461
47726W        W 9147  10.314  38.037   2.251
47727W        W 9148  20.198  24.626   2.227
47728W        W 9149  10.835  27.449   3.718
47729W        W 9150   1.419  28.537  12.056
47730W        W 9151   5.207  40.892   4.690
47731W        W 9152  10.307  15.235   3.770
47732W        W 9153   0.841  26.644  10.093
47733W        W 9154  44.953   4.849  12.432
47734W        W 9155   6.195  32.414   0.748
47735W        W 9156  27.527  33.554   2.664
47736W        W 9157  39.429  26.576  14.380
47737W        W 9158  33.931  19.597  12.364
47738W        W 9159   6.381  24.059  10.117
47739W        W 9160  41.008  12.342   0.929
47740W        W 9161   1.265  20.633   0.907
47741W        W 9162  31.935  16.174   3.238
47742W        W 9163  24.488   2.804  14.831
47743W        W 9164  42.840  25.158  12.056
47744W        W 9165  25.008  27.133   4.146
47745W        W 9166   9.299  32.965  13.955
47746W        W 9167  27.643   5.823  12.542
47747W        W 9168  35.014  23.543   0.402
47748W        W 9169   7.795   7.326  10.618
47749W        W 9170  41.001  20.633   4.203
47750W        W 9171  37.482  31.430  13.862
47751W        W 9172  37.340  38.563  12.441
47752W        W 9173   3.294   0.324   3.208
47753W        W 9174  14.120  27.017   0.902
47754W        W 9175  32.030  14.613   3.332
47755W        W 9176  22.113  23.521  12.579
47756W        W 9177   8.403  40.508   0.740
47757W        W 9178   5.704  10.297   0.365
47758W        W 9179  12.637  17.184  12.897
47759W        W 9180  32.032  44.365   2.299
47760W        W 9181  37.912  19.136  14.966
47761W        W 9182  27.969  14.715  11.952
47762W        W 9183  25.054  39.904   3.222
47763W        W 9184  29.563  39.360  13.952
47764W        W 9185  23.222  35.059   2.678
47765W        W 9186   2.955  36.939   1.721
47766W        W 9187   7.230  31.909   2.233
47767W        W 9188  38.967  23.984   5.266
47768W        W 9189  15.662  15.311   0.803
47769W        W 9190  31.568  40.991  14.481
47770W        W 9191  38.496  16.600  10.958
47771W        W 9192  25.496  28.445   2.700
47772W        W 9193  27.535  27.543  10.610
47773W        W 9194   6.743  20.201   4.258
47774W        W 9195  34.054  11.247   4.680
47775W        W 9196  13.118  14.141  14.942
47776W        W 9197  39.932   3.236   0.361
47777W        W 9198  33.022   1.462  14.991
47778W        W 9199   1.339  27.030  13.893
47779W        W 9200  41.997  29.028  11.120
47780W        W 9201  36.867  40.827   3.195
47781W        W 9202  25.622  14.684   1.732
47782W        W 9203   3.854  14.137   3.365
47783W        W 9204  14.695  28.022  10.028
47784W        W 9205  18.253  21.604  14.489
47785W        W 9206  15.174  26.967  13.017
47786W        W 9207  32.434  26.663   1.874
47787W        W 9208  43.405  18.563  14.797
47788W        W 9209  37.022  42.429  14.938
47789W        W 9210   6.289  35.930   2.670
47790W        W 9211   8.774  35.031  13.874
47791W        W 9212  22.532  15.602   1.382
47792W        W 9213   8.776   7.211   1.735
47793W        W 9214  35.934  39.521  11.021
47794W        W 9215  18.633  37.443   4.158
47795W        W 9216  35.928  42.367   0.352
47796W        W 9217   6.872  35.434   1.911
47797W        W 9218  17.295  30.482   0.778
47798W        W 9219  35.566  26.551  14.787
47799W        W 9220  17.576   4.908   4.713
47800W        W 9221  14.127  33.099   4.614
47801W        W 9222   4.925  37.544  14.772
47802W        W 9223   4.313   2.786  13.507
47803W        W 9224   3.782  27.126  12.375
47804W        W 9225  28.111  41.005  10.468
47805W        W 9226  40.863   4.427   1.717
47806W        W 9227  44.938   3.764  14.428
47807W        W 9228  14.618  29.045   9.592
47808W        W 9229  41.362  44.894  14.374
47809W        W 9230  23.634  13.219   3.233
47810W        W 9231   2.806  24.060   4.611
47811W        W 9232   8.692  29.654   3.701
47812W        W 9233   3.897   8.853   2.198
47813W        W 9234  40.331  18.231  12.524
47814W        W 9235  15.289  33.907  14.304
47815W        W 9236  20.242  41.302  13.335
47816W        W 9237  28.102  30.004   0.464
47817W        W 9238  11.311  13.695  13.370
47818W        W 9239  32.501  36.982   4.750
47819W        W 9240  20.100  18.278   3.757
47820W        W 9241  19.156  10.227  12.933
47821W        W 9242  16.699  28.990  13.348
47822W        W 9243  43.380  21.194   2.734
47823W        W 9244  30.566   9.735   3.227
47824W        W 9245  21.543  35.058   4.137
47825W        W 9246  16.135  35.940  10.616
47826W        W 9247   9.663  39.046   1.720
47827W        W 9248  19.665  23.035  11.434
47828W        W 9249   4.406  23.052   1.402
47829W        W 9250   5.380  14.142   1.407
47830W        W 9251  13.839   2.867  14.784
47831W        W 9252  13.839  29.167   2.707
47832W        W 9253  15.822  23.134  11.546
47833W        W 9254  22.630  17.774   3.717
47834W        W 9255  18.290   1.299   3.712
47835W        W 9256  29.595  34.025  12.405
47836W        W 9257  32.454  23.008   4.192
47837W        W 9258   2.231   6.366   4.733
47838W        W 9259  42.905  34.916   1.292
47839W        W 9260  14.339  32.580   2.730
47840W        W 9261  36.445   9.675   0.836
47841W        W 9262  42.021  14.293   1.771
47842W        W 9263  16.663   5.241  14.402
47843W        W 9264  35.045  17.208  13.884
47844W        W 9265  23.598  18.128   0.478
47845W        W 9266  18.228  31.135   4.351
47846W        W 9267  22.522  22.234   3.805
47847W        W 9268  21.195   6.721   3.657
47848W        W 9269  21.121   9.735  11.547
47849W        W 9270  19.728  34.549   4.603
47850W        W 9271  13.324   3.277   5.240
47851W        W 9272  42.501   9.665   4.618
47852W        W 9273  43.968   7.234   0.778
47853W        W 9274  21.232  43.444  14.792
47854W        W 9275  12.132  20.738  11.856
47855W        W 9276   3.841   6.851   2.237
47856W        W 9277  41.003  38.522   3.822
47857W        W 9278  27.983  19.167  11.399
47858W        W 9279  44.382   2.313   3.641
47859W        W 9280   4.322   8.355   4.149
47860W        W 9281  12.230  39.514  12.881
47861W        W 9282  21.713  11.764   0.936
47862W        W 9283  35.393  24.078   1.222
47863W        W 9284   1.409  23.060   2.793
47864W        W 9285  24.037  36.087   4.803
47865W        W 9286  37.935  39.881   4.716
47866W        W 9287  28.557  38.428  14.385
47867W        W 9288  40.317  31.981   3.310
47868W        W 9289  37.468   7.269  11.117
47869W        W 9290  15.601  10.317  12.038
47870W        W 9291  34.952  35.424  14.417
47871W        W 9292  26.954  40.024  12.826
47872W        W 9293  19.552   5.199   2.737
47873W        W 9294  26.546   8.197   1.345
47874W        W 9295   9.834   8.714  13.916
47875W        W 9296  18.751  21.060   3.245
47876W        W 9297  40.455  14.176   5.227
47877W        W 9298  40.350  36.442   2.781
47878W        W 9299  15.594   0.410   2.835
47879W        W 9300  27.001   1.352   2.262
47880W        W 9301  32.458  15.723  12.460
47881W        W 9302  34.538  24.980   2.275
47882W        W 9303  17.780  32.888   2.881
47883W        W 9304  38.342  23.157   2.873
47884W        W 9305  39.506  40.990   3.835
47885W        W 9306  19.563  13.157  13.370
47886W        W 9307  38.879  38.444   4.690
47887W        W 9308   8.205  25.093  10.993
47888W        W 9309  40.361   2.241   4.323
47889W        W 9310  27.177  18.103   0.943
47890W        W 9311  27.175  31.488   2.700
47891W        W 9312  10.876  10.206   4.834
47892W        W 9313  15.250   7.300   2.848
47893W        W 9314  20.032  12.801  12.084
47894W        W 9315  12.796  21.182  13.328
47895W        W 9316  22.633  12.212  10.586
47896W        W 9317  12.795  17.614   0.940
47897W        W 9318  43.897  18.555   1.912
47898W        W 9319  30.433  23.097   0.876
47899W        W 9320  22.240  10.352   4.796
47900W        W 9321   9.695  38.427  11.425
47901W        W 9322   4.432  28.436  10.130
47902W        W 9323  24.510  16.801   4.119
47903W        W 9324  31.413  39.862  14.772
47904W        W 9325  16.813   3.373   0.849
47905W        W 9326  43.833  43.888  13.318
47906W        W 9327  22.236  34.460  10.521
47907W        W 9328  39.847  10.803  13.542
47908W        W 9329  14.102   1.960  13.024
47909W        W 9330   8.712  16.268  14.370
47910W        W 9331   1.790  43.962  12.836
47911W        W 9332   3.917  11.336   3.299
47912W        W 9333  35.371  28.953  13.920
47913W        W 9334   4.849  20.604  10.507
47914W        W 9335  18.661  16.635  11.599
47915W        W 9336  28.168   5.243  14.342
47916W        W 9337  36.870  36.374   4.748
47917W        W 9338  35.024   6.764  12.004
47918W        W 9339   1.746  22.045   3.720
47919W        W 9340  40.494  40.428  11.102
47920W        W 9341  23.650  12.788  13.923
47921W        W 9342  31.914  14.621   1.783
47922W        W 9343   3.242  24.639   0.264
47923W        W 9344  13.611   3.343  11.937
47924W        W 9345  31.121  17.073   1.338
47925W        W 9346   6.711  33.986  10.568
47926W        W 9347   6.727  22.051   4.157
47927W        W 9348  17.746   7.694  11.108
47928W        W 9349   9.254  42.024   3.194
47929W        W 9350   1.313  41.466   0.937
47930W        W 9351  29.619  12.231   4.734
47931W        W 9352  32.082  42.793   4.670
47932W        W 9353  22.602  23.230  12.945
47933W        W 9354  22.621  19.635   0.389
47934W        W 9355  25.067   7.859  14.929
47935W        W 9356  37.522  30.540   3.643
47936W        W 9357   6.723  40.388  11.552
47937W        W 9358  28.079  15.183  14.477
47938W        W 9359  43.278  20.218  12.057
47939W        W 9360  20.177  44.857   4.598
47940W        W 9361  20.226  38.432  14.008
47941W        W 9362   8.165   5.791   3.279
47942W        W 9363  31.006  20.590  12.931
47943W        W 9364   5.813  42.920   2.764
47944W        W 9365  31.634  44.446   4.823
47945W        W 9366  10.213  42.415   4.813
47946W        W 9367  17.196  16.287   2.336
47947W        W 9368  35.967  25.608   5.183
47948W        W 9369  15.682  16.256  10.143
47949W        W 9370   8.345   5.270   0.812
47950W        W 9371  14.279  38.941   0.893
47951W        W 9372  17.717  18.112  12.826
47952W        W 9373   5.355   3.440  12.991
47953W        W 9374  12.710  24.658  10.428
47954W        W 9375   5.277  11.710   4.183
47955W        W 9376  18.146   9.731  11.053
47956W        W 9377  44.350  29.981  13.330
47957W        W 9378   9.852  41.329   3.380
47958W        W 9379  31.136  31.452  11.560
47959W        W 9380  42.868   2.462   0.899
47960W        W 9381  38.858  29.499  10.563
47961W        W 9382  34.868  25.532   2.766
47962W        W 9383  11.846  28.634  12.938
47963W        W 9384  33.911   7.710   4.354
47964W        W 9385  13.641  34.547   0.261
47965W        W 9386  12.290  18.176   0.872
47966W        W 9387  20.536  31.028  12.420
47967W        W 9388   6.331   3.390   1.879
47968W        W 9389  26.152   5.891  13.514
47969W        W 9390  22.529   1.320   1.761
47970W        W 9391  40.948  22.043   4.268
47971W        W 9392  36.998  40.990   2.740
47972W        W 9393  34.383  23.630  11.059
47973W        W 9394  42.938   4.406   1.407
47974W        W 9395  27.067  35.380  14.906
47975W        W 9396  14.796  14.269   2.306
47976W        W 9397  32.919   8.871  11.409
47977W        W 9398  15.641   8.163  10.525
47978W        W 9399  11.761  33.616  10.907
47979W        W 9400  43.391  13.302   1.356
47980W        W 9401   5.707   9.290   2.393
47981W        W 9402   6.210  13.139   4.764
47982W        W 9403  44.488  17.759  13.519
47983W        W 9404  28.055  26.040  14.940
47984W        W 9405  13.149  29.614   1.227
47985W        W 9406  12.136  43.364  13.882
47986W        W 9407  29.035  39.506  10.643
47987W        W 9408  24.545   2.727  11.906
47988W        W 9409  12.778  41.869   1.302
47989W        W 9410   7.409   8.726   2.263
47990W        W 9411  24.195  21.642  13.397
47991W        W 9412  35.006  44.949  10.902
47992W        W 9413  35.367  17.129   3.830
47993W        W 9414   6.190  15.228   3.183
47994W        W 9415  38.060   2.389   3.233
47995W        W 9416  37.509  21.680   4.337
47996W        W 9417   9.161   3.772   0.932
47997W        W 9418   5.740  36.012   4.137
47998W        W 9419  43.380  20.609  13.982
47999W        W 9420  11.155  22.020   4.659
48000W        W 9421  44.371   0.361   1.308
48001W        W 9422  14.763  27.458   2.797
48002W        W 9423  31.425  22.139  14.896
48003W        W 9424  35.904  44.902  12.871
48004W        W 9425  38.973  35.465  13.825
48005W        W 9426  42.878  13.825   4.235
48006W        W 9427   9.702  43.343   3.734
48007W        W 9428  41.376  28.672  13.460
48008W        W 9429  42.497  33.876  12.398
48009W        W 9430  34.054  31.487   2.282
48010W        W 9431  44.867  12.279  11.453
48011W        W 9432  15.145  29.155   3.232
48012W        W 9433  40.839  33.560   2.883
48013W        W 9434   4.263  43.986   2.730
48014W        W 9435  11.653   4.699   1.315
48015W        W 9436  25.688  28.171  10.120
48016W        W 9437  33.970  29.010  13.488
48017W        W 9438  16.210  21.251  14.901
48018W        W 9439   1.923  35.882   0.922
48019W        W 9440   4.916   2.239   3.835
48020W        W 9441  15.127  10.273   3.375
48021W        W 9442  27.565  39.503  10.420
48022W        W 9443  30.530  42.393  10.443
48023W        W 9444  23.096  12.754  10.426
48024W        W 9445  44.798   2.771  11.394
48025W        W 9446   4.720  41.877  10.091
48026W        W 9447   8.890  11.852  12.507
48027W        W 9448   3.377  31.043  10.074
48028W        W 9449  37.533  31.051   4.249
48029W        W 9450  42.308  29.452   0.472
48030W        W 9451  19.620  44.922   4.152
48031W        W 9452  21.114  21.130   4.173
48032W        W 9453  28.955   4.841   0.461
48033W        W 9454  20.242  31.964  11.932
48034W        W 9455  13.345  19.776  13.010
48035W        W 9456   8.187  14.806   2.873
48036W        W 9457   7.864  43.303  13.392
48037W        W 9458  26.476  39.030  11.858
48038W        W 9459  26.548   5.845  10.955
48039W        W 9460  31.971  11.741   5.205
48040W        W 9461  20.575  43.832  13.488
48041W        W 9462   6.283   8.293   0.763
48042W        W 9463  41.385  10.342  13.883
48043W        W 9464  18.658  16.311   2.856
48044W        W 9465  29.622  33.596  10.133
48045W        W 9466  13.835  15.088   3.786
48046W        W 9467  39.057  31.430  11.085
48047W        W 9468   4.232  10.802  11.005
48048W        W 9469  28.563  20.737   4.223
48049W        W 9470   1.271  32.927  13.336
48050W        W 9471   7.678   8.720   2.382
48051W        W 9472  23.536  25.041  11.591
48052W        W 9473  12.148  15.618   1.304
48053W        W 9474  24.487  24.550  12.526
48054W        W 9475  33.394  16.653  12.999
48055W        W 9476  24.723  34.965  12.077
48056W        W 9477  27.624  35.567   4.213
48057W        W 9478  40.979  13.150  13.382
48058W        W 9479   2.384  32.446  12.941
48059W        W 9480  18.118  33.976  14.976
48060W        W 9481   6.816  11.765   1.283
48061W        W 9482  29.958  38.345   2.363
48062W        W 9483  14.207  38.911  12.065
48063W        W 9484   9.346   4.845   0.453
48064W        W 9485  11.820  32.964   2.708
48065W        W 9486  18.666   3.280   9.952
48066W        W 9487  23.993  10.167   4.681
48067W        W 9488  13.728  23.023   0.444
48068W        W 9489  42.829  11.182   2.802
48069W        W 9490  36.364   2.853  13.990
48070W        W 9491  14.621  16.258   1.913
48071W        W 9492  16.589  33.105   0.307
48072W        W 9493  23.003  26.957  14.906
48073W        W 9494  32.936  17.239   1.315
48074W        W 9495  31.562  23.642   3.147
48075W        W 9496  38.462  29.040  13.503
48076W        W 9497  10.653  33.579   4.661
48077W        W 9498  19.191  22.052   1.450
48078W        W 9499  17.061  35.411   0.763
48079W        W 9500  33.383  16.168  11.418
48080W        W 9501   1.428   6.280   0.820
48081W        W 9502  39.944  22.163  11.596
48082W        W 9503  20.566  16.225  11.030
48083W        W 9504   2.785  41.958   0.921
48084W        W 9505  35.049  19.652  14.804
48085W        W 9506  39.979  11.157  10.894
48086W        W 9507  10.678  39.983   3.163
48087W        W 9508  12.152   4.283  12.556
48088W        W 9509  29.020  41.838   2.371
48089W        W 9510  10.789  43.816   0.964
48090W        W 9511   8.769  16.266  13.901
48091W        W 9512  44.011  37.507   5.190
48092W        W 9513  29.015   7.357  12.382
48093W        W 9514   2.783  43.834   0.444
48094W        W 9515   2.406  26.675  12.011
48095W        W 9516   3.321   6.219  12.871
48096W        W 9517  33.507  25.492   0.787
48097W        W 9518  41.829   5.823   4.266
48098W        W 9519  39.969  20.581  14.846
48099W        W 9520  40.960  16.157   5.249
48100W        W 9521  14.661  27.613   0.395
48101W        W 9522  23.545  22.995   0.447
48102W        W 9523   7.403  29.104   3.788
48103W        W 9524  44.334  16.682  12.535
48104W        W 9525  17.070   4.712  10.434
48105W        W 9526  11.216  39.362  12.398
48106W        W 9527   3.314   1.452   1.301
48107W        W 9528  13.636   6.207  14.328
48108W        W 9529  41.025  32.400  11.542
48109W        W 9530   7.709  39.867   2.757
48110W        W 9531  22.558  32.618  13.916
48111W        W 9532  15.657  35.420  10.640
48112W        W 9533  22.180  35.946  12.903
48113W        W 9534   1.259  25.711  14.955
48114W        W 9535  40.883  38.885  12.914
48115W        W 9536  20.131  27.592  14.861
48116W        W 9537  21.654   2.933  12.054
48117W        W 9538  34.485  37.419   4.658
48118W        W 9539   5.213  20.644  12.958
48119W        W 9540  35.441  26.462  13.468
48120W        W 9541  27.098  23.068   1.905
48121W        W 9542  43.446  36.494  11.878
48122W        W 9543  13.298  28.147  10.427
48123W        W 9544  32.028  23.185  10.888
48124W        W 9545   9.749  39.002   3.769
48125W        W 9546   7.341   7.685  10.536
48126W        W 9547  17.597  23.019  14.979
48127W        W 9548  11.673  36.922  14.436
48128W        W 9549  31.642  16.182   3.196
48129W        W 9550  26.966  23.185  10.490
48130W        W 9551  25.084  39.358   0.414
48131W        W 9552  24.055  27.190   0.910
48132W        W 9553   5.714   3.393   4.785
48133W        W 9554  16.801  28.932  12.445
48134W        W 9555  19.169  43.346  11.456
48135W        W 9556  11.803   0.881  13.822
48136W        W 9557   6.788   7.871  12.513
48137W        W 9558   5.316  16.725   0.320
48138W        W 9559  15.317   1.816   2.284
48139W        W 9560  10.247  37.482  13.939
48140W        W 9561  16.182  12.618  11.958
48141W        W 9562  42.386  20.097  14.397
48142W        W 9563  38.858   2.446  14.769
48143W        W 9564  17.753  36.938  12.904
48144W        W 9565  27.968   1.926  14.802
48145W        W 9566  18.060  32.124  10.481
48146W        W 9567  11.708  30.498  13.849
48147W        W 9568   1.871  12.690   4.777
48148W        W 9569   1.900  19.214  11.027
48149W        W 9570  16.794  37.579   2.855
48150W        W 9571  34.420   9.239  13.363
48151W        W 9572   3.919   2.323   2.759
48152W        W 9573  40.937   2.887   0.378
48153W        W 9574  14.813  17.596  13.961
48154W        W 9575   6.212  28.062  14.284
48155W        W 9576  17.081  44.833   0.288
48156W        W 9577   4.267  18.568   2.774
48157W        W 9578   7.398  37.480  11.457
48158W        W 9579  29.961  26.043   2.689
48159W        W 9580   4.334  19.590  13.514
48160W        W 9581  24.105  31.489  14.308
48161W        W 9582   9.765  39.035  12.437
48162W        W 9583  21.611  11.835  14.468
48163W        W 9584  25.586  25.712   2.709
48164W        W 9585   8.773  29.052   1.323
48165W        W 9586  39.906  44.881   4.829
48166W        W 9587  14.827  39.839   1.818
48167W        W 9588  43.487  37.078   1.852
48168W        W 9589  15.679  16.704  13.520
48169W        W 9590  33.540   4.364   0.317
48170W        W 9591   5.429  16.150   1.755
48171W        W 9592  21.222   2.249  13.467
48172W        W 9593  35.955  15.282  10.946
48173W        W 9594   0.779  44.887   1.304
48174W        W 9595  30.646   8.230   0.727
48175W        W 9596  26.654  43.801  12.581
48176W        W 9597  17.117   9.289   4.264
48177W        W 9598  31.423   3.369  11.386
48178W        W 9599  43.356  16.162   3.331
48179W        W 9600  28.625  17.560   0.739
48180W        W 9601   7.231  18.738  10.919
48181W        W 9602  39.506  31.600  14.004
48182W        W 9603  35.369  41.984   3.857
48183W        W 9604  31.402   0.300  12.401
48184W        W 9605  42.319  34.048   1.694
48185W        W 9606  44.891  33.937   3.687
48186W        W 9607  20.221  32.540  12.891
48187W        W 9608   3.260  40.846   1.266
48188W        W 9609  10.712  37.987   0.379
48189W        W 9610  33.036  26.071  11.995
48190W        W 9611  18.582  31.096   2.895
48191W        W 9612  38.511  17.569  12.095
48192W        W 9613  23.608  40.836   0.407
48193W        W 9614  26.014   4.395   2.232
48194W        W 9615   4.237  20.530  14.781
48195W        W 9616   7.780  24.529   1.699
48196W        W 9617   2.286  26.026  13.510
48197W        W 9618  13.669  13.723   3.859
48198W        W 9619  41.423   9.817   0.790
48199W        W 9620   4.935  29.945   2.735
48200W        W 9621   2.724  28.138  13.384
48201W        W 9622  16.291  15.329   0.370
48202W        W 9623  44.302   1.266   1.932
48203W        W 9624  19.545  25.620  10.977
48204W        W 9625  19.569  18.076   2.185
48205W        W 9626  34.372  11.856   4.140
48206W        W 9627  25.991  39.375  13.030
48207W        W 9628  33.883  39.495   4.291
48208W        W 9629  43.816   4.330  13.836
48209W        W 9630  44.370  20.202  12.455
48210W        W 9631  10.691  24.040   0.268
48211W        W 9632  22.569  26.013  13.965
48212W        W 9633   3.748  32.966  13.843
48213W        W 9634  22.646  40.388  14.412
48214W        W 9635  26.631  44.471   4.162
48215W        W 9636  32.628  25.692  13.417
48216W        W 9637   5.353  26.663  12.556
48217W        W 9638  26.082  12.283   4.148
48218W        W 9639  13.269  44.899  12.473
48219W        W 9640  26.951  24.138   2.876
48220W        W 9641  31.590  43.509  14.807
48221W        W 9642  24.166  13.145   2.849
48222W        W 9643  20.627  10.707  10.907
48223W        W 9644  12.337  19.162  11.895
48224W        W 9645  30.920  23.652   2.850
48225W        W 9646  19.621   4.404  10.934
48226W        W 9647  44.419  38.495  12.018
48227W        W 9648   9.743   2.785   1.695
48228W        W 9649   9.835  29.093  10.952
48229W        W 9650  15.626  36.969   2.343
48230W        W 9651  34.867  18.053   2.844
48231W        W 9652  21.589  30.966   1.214
48232W        W 9653  24.091  23.216  11.547
48233W        W 9654   7.862  38.918   4.176
48234W        W 9655  31.072  33.016  12.851
48235W        W 9656  17.700  18.140   2.754
48236W        W 9657  10.842  10.872   0.414
48237W        W 9658  43.818   4.380   1.218
48238W        W 9659  26.678   0.816   2.303
48239W        W 9660  16.761  28.033   3.758
48240W        W 9661  34.583  20.665  10.599
48241W        W 9662  30.430  29.450   1.808
48242W        W 9663   7.354   1.482   3.343
48243W        W 9664  38.021  11.703   0.865
48244W        W 9665   5.327  28.009  13.805
48245W        W 9666  33.901  19.778  14.784
48246W        W 9667  30.943  20.700   3.146
48247W        W 9668  23.133  14.237   1.291
48248W        W 9669  19.094  32.112   3.371
48249W        W 9670  19.722  15.758   3.703
48250W        W 9671  11.762  43.385   0.809
48251W        W 9672   4.335  11.677  12.955
48252W        W 9673  21.659  15.723   3.749
48253W        W 9674  43.478  20.673  13.326
48254W        W 9675  19.280  23.655  12.575
48255W        W 9676  27.544  25.045   1.451
48256W        W 9677   2.428   0.365   1.739
48257W        W 9678  24.487  30.106  12.436
48258W        W 9679  35.940  13.271   2.345
48259W        W 9680   4.942  17.066  11.050
48260W        W 9681   0.750  37.504   4.754
48261W        W 9682  44.461  38.854   4.340
48262W        W 9683  40.497  21.545   3.868
48263W        W 9684  42.369  40.540  11.958
48264W        W 9685  11.712  42.398   3.220
48265W        W 9686  18.109  19.067   3.305
48266W        W 9687  11.289  18.616   2.817
48267W        W 9688  36.008  14.249  10.954
48268W        W 9689  25.655  34.073  13.344
48269W        W 9690  28.525  32.442  12.889
48270W        W 9691  43.863  11.707   1.730
48271W        W 9692  30.045  27.646   0.745
48272W        W 9693   5.229  26.981  14.000
48273W        W 9694  16.183  33.486  12.873
48274W        W 9695  34.115  44.828  10.572
48275W        W 9696  39.491  22.146   0.878
48276W        W 9697  22.746  37.414  13.387
48277W        W 9698   4.394   0.493   0.341
48278W        W 9699  13.312   7.824  13.986
48279W        W 9700  43.984  16.607   4.217
48280W        W 9701   1.267  10.160   1.855
48281W        W 9702  44.497  29.930   2.718
48282W        W 9703  31.512  20.200   0.801
48283W        W 9704  35.981  43.017   3.837
48284W        W 9705  25.128  32.624  11.072
48285W        W 9706  33.397  11.145   0.865
48286W        W 9707   7.253  44.431   4.683
48287W        W 9708   2.856  21.193  13.398
48288W        W 9709  42.304  30.513   0.886
48289W        W 9710  31.147   6.803  12.001
48290W        W 9711  27.625  32.587  12.021
48291W        W 9712   3.239  24.229   3.829
48292W        W 9713  19.692  22.618   5.312
48293W        W 9714  23.075  11.697   4.207
48294W        W 9715  15.287  38.506  10.910
48295W        W 9716  13.200  44.978  12.885
48296W        W 9717  15.091  32.561  14.440
48297W        W 9718   4.349  40.541  11.055
48298W        W 9719  16.675  31.067   0.751
48299W        W 9720  31.009   4.294   3.293
48300W        W 9721  14.684  40.914   3.312
48301W        W 9722  16.302  25.650  10.899
48302W        W 9723  27.028  26.684   0.893
48303W        W 9724  38.001   4.867   1.817
48304W        W 9725  37.926  26.599  10.429
48305W        W 9726   0.291  30.927   0.954
48306W        W 9727  28.185  33.943   3.310
48307W        W 9728   6.362  18.660  13.516
48308W        W 9729  34.449  19.700   4.728
48309W        W 9730  25.629   0.888   2.787
48310W        W 9731  20.181  27.034  13.000
48311W        W 9732  16.106  29.436  14.278
48312W        W 9733  30.505  42.490   4.286
48313W        W 9734  27.603   3.326  13.032
48314W        W 9735   2.407  10.825  12.471
48315W        W 9736  13.143  17.732   1.934
48316W        W 9737  25.535  19.746  10.496
48317W        W 9738   5.891  39.952   0.330
48318W        W 9739  17.190  14.260  10.983
48319W        W 9740  17.165   5.219   2.364
48320W        W 9741   5.916  34.043   1.438
48321W        W 9742  13.122   2.740   1.728
48322W        W 9743   9.155   7.694  13.962
48323W        W 9744   4.445   1.839  13.891
48324W        W 9745   8.212  17.647  14.996
48325W        W 9746   8.691  20.053  13.933
48326W        W 9747  11.864  43.438   0.319
48327W        W 9748  44.863   9.684   4.168
48328W        W 9749  14.246  23.608   1.726
48329W        W 9750  25.032  28.068  13.404
48330W        W 9751  20.159  28.011   2.245
48331W        W 9752   8.172  15.631   0.484
48332W        W 9753  43.788  12.193  14.413
48333W        W 9754  16.242   7.304  12.008
48334W        W 9755  30.595   9.345  10.479
48335W        W 9756  40.929  12.260   4.713
48336W        W 9757  41.964  44.282   5.300
48337W        W 9758  42.435   9.384  11.464
48338W        W 9759  14.720   1.873   0.837
48339W        W 9760  38.843  35.911  13.898
48340W        W 9761  16.130  17.771   4.327
48341W        W 9762  31.975  32.572   4.143
48342W        W 9763  31.111  36.058  12.486
48343W        W 9764   4.305  31.078   2.203
48344W        W 9765  19.069  37.437  11.969
48345W        W 9766  13.676  30.937   1.860
48346W        W 9767  35.015  15.241   1.725
48347W        W 9768  40.930  35.381  12.016
48348W        W 9769  29.046  34.975  12.426
48349W        W 9770  18.105  12.318  11.067
48350W        W 9771   3.915  36.429   0.286
48351W        W 9772   9.324   8.673   2.299
48352W        W 9773   9.184  36.503   1.263
48353W        W 9774  14.740  28.460   4.172
48354W        W 9775   9.781  10.282  12.466
48355W        W 9776  33.017   9.658   0.479
48356W        W 9777  36.446  40.043  14.943
48357W        W 9778  17.202   3.330   4.675
48358W        W 9779   1.335  11.221  10.908
48359W        W 9780  27.117   6.206   1.378
48360W        W 9781  16.268  19.618   3.700
48361W        W 9782  38.856  10.360   0.274
48362W        W 9783  38.332  15.694  14.435
48363W        W 9784   3.329  13.631  13.817
48364W        W 9785   6.739  36.435  12.906
48365W        W 9786  30.590  42.401  11.927
48366W        W 9787  28.114  15.630   1.439
48367W        W 9788  17.267  30.114   4.275
48368W        W 9789  40.046   8.738  13.913
48369W        W 9790   0.930  44.504   1.322
48370W        W 9791  38.465  16.197   0.416
48371W        W 9792  40.834  31.500   1.263
48372W        W 9793  24.497   9.343   3.170
48373W        W 9794  18.200  29.061   1.301
48374W        W 9795   1.440  32.894   9.951
48375W        W 9796  22.573  41.499  10.027
48376W        W 9797  32.100  37.041   1.277
48377W        W 9798  14.777  35.077   5.216
48378W        W 9799  10.363   3.451  11.598
48379W        W 9800  39.496   0.862  10.452
48380W        W 9801  44.259  35.450   0.340
48381W        W 9802   9.170  28.993  12.531
48382W        W 9803  42.355  28.560  11.460
48383W        W 9804  40.996   7.353   3.281
48384W        W 9805  16.170  39.471  10.454
48385W        W 9806  36.842   8.260   3.706
48386W        W 9807  25.574  24.572  11.106
48387W        W 9808   5.211  37.459  10.031
48388W        W 9809  42.414   2.785   0.848
48389W        W 9810  34.378  42.387   0.935
48390W        W 9811  13.320  21.583   4.647
48391W        W 9812  19.271  39.046  10.480
48392W        W 9813   8.875  20.682   3.802
48393W        W 9814  32.036  24.045   2.674
48394W        W 9815   7.365  44.370  10.500
48395W        W 9816  43.849  40.311  14.328
48396W        W 9817  30.415  12.240   3.250
48397W        W 9818  14.691  27.665  12.559
48398W        W 9819  10.714  41.482  14.446
48399W        W 9820   8.673  43.329   0.406
48400W        W 9821  37.936  14.646   0.482
48401W        W 9822   9.159   5.282   3.275
48402W        W 9823  20.718  24.146  13.333
48403W        W 9824  36.510  24.035  13.339
48404W        W 9825   4.427   0.896   1.724
48405W        W 9826  35.043  33.097   4.336
48406W        W 9827  33.910   5.377  14.448
48407W        W 9828  21.191   0.250   5.243
48408W        W 9829   3.861  29.470  10.612
48409W        W 9830   2.249  11.721   2.291
48410W        W 9831  17.585   5.202  13.834
48411W        W 9832  23.035   4.214  14.899
48412W        W 9833  40.459  40.961   1.394
48413W        W 9834  35.466  23.502  12.903
48414W        W 9835  39.052  30.927  10.581
48415W        W 9836  23.084  35.955  14.357
48416W        W 9837  11.243  29.582   2.882
48417W        W 9838  40.894  19.204   3.261
48418W        W 9839  22.597  12.775   4.707
48419W        W 9840  42.818  34.055  13.803
48420W        W 9841  23.208  22.097  12.997
48421W        W 9842  35.999   0.464   4.121
48422W        W 9843  33.913  26.169   1.853
48423W        W 9844  11.760  34.970   2.282
48424W        W 9845  12.214   7.358  13.967
48425W        W 9846  15.184  13.222   2.840
48426W        W 9847  36.892  11.854  13.952
48427W        W 9848  29.970  34.466   1.245
48428W        W 9849  23.569  32.936   4.167
48429W        W 9850  36.875   2.860   1.283
48430W        W 9851  21.720  44.391  14.918
48431W        W 9852  19.680  30.607  14.426
48432W        W 9853  38.501  23.645  10.462
48433W        W 9854   1.383  34.899   4.300
48434W        W 9855  32.928  26.512   2.898
48435W        W 9856  10.263  28.946  10.065
48436W        W 9857  29.609  13.804   1.395
48437W        W 9858  12.677  33.971  12.429
48438W        W 9859   5.377  21.735   1.832
48439W        W 9860  41.965   8.190  14.994
48440W        W 9861  18.119   5.892  12.866
48441W        W 9862  15.659  37.435   2.339
48442W        W 9863  33.905  34.930   0.837
48443W        W 9864  24.692   2.775  11.517
48444W        W 9865  34.491  32.105   9.943
48445W        W 9866  14.121  44.760   0.945
48446W        W 9867  30.947  43.813   1.351
48447W        W 9868  13.300  38.430  11.915
48448W        W 9869   8.901  10.233   4.146
48449W        W 9870  35.963  29.550   0.948
48450W        W 9871  14.623  11.810  11.441
48451W        W 9872  24.083  38.400  11.955
48452W        W 9873  10.203  30.951   5.249
48453W        W 9874  16.757  10.298   4.766
48454W        W 9875  20.090  27.086  14.469
48455W        W 9876  35.368  14.201  12.924
48456W        W 9877   9.887  25.181   0.931
48457W        W 9878  15.760  32.062  11.929
48458W        W 9879   4.892  10.189   5.159
48459W        W 9880   2.389  34.427   1.695
48460W        W 9881   6.805   6.292   2.347
48461W        W 9882   6.312  26.461  11.415
48462W        W 9883  31.015   7.319   2.770
48463W        W 9884  32.434   5.301  13.961
48464W        W 9885  14.223  44.797   0.325
48465W        W 9886  44.411  12.754  13.997
48466W        W 9887  40.819  41.029   1.869
48467W        W 9888  43.956  23.587   2.870
48468W        W 9889  23.079  27.020   4.238
48469W        W 9890  10.362  24.136   4.230
48470W        W 9891  31.933   9.328   0.947
48471W        W 9892  38.552  16.290   2.831
48472W        W 9893  25.204  29.149   3.688
48473W        W 9894  21.105  17.224   3.158
48474W        W 9895  30.609  11.749   5.212
48475W        W 9896   1.804  12.754   3.644
48476W        W 9897   5.864  24.637   0.282
48477W        W 9898  12.706  19.140   3.255
48478W        W 9899   5.761  27.631   3.740
48479W        W 9900   6.860  17.273   3.729
48480W        W 9901   5.842  26.522   0.441
48481W        W 9902  39.925  11.323   5.095
48482W        W 9903  20.032   0.823   4.319
48483W        W 9904   4.724  42.032  14.005
48484W        W 9905   9.393  30.130  11.414
48485W        W 9906  38.546  22.096  14.861
48486W        W 9907  20.739  40.996   1.233
48487W        W 9908  16.677  37.554   2.378
48488W        W 9909   4.375  39.060   4.275
48489W        W 9910  18.100  27.687   0.412
48490W        W 9911  33.475   7.775  14.758
48491W        W 9912  43.980  27.527   1.315
48492W        W 9913  12.697   2.861   2.364
48493W        W 9914  34.997  16.254  14.510
48494W        W 9915   5.913  17.235   1.416
48495W        W 9916  22.223  44.330   1.221
48496W        W 9917  44.468  34.863   2.327
48497W        W 9918   3.443  34.006   0.445
48498W        W 9919  27.113   4.252  12.918
48499W        W 9920  23.501  29.942   3.687
48500W        W 9921  16.269  15.701  14.843
48501W        W 9922  19.206   3.807   3.172
48502W        W 9923   5.241  38.549  13.915
48503W        W 9924  43.439  15.225   4.805
48504W        W 9925  35.522   9.255   4.663
48505W        W 9926   1.427  28.144   2.243
48506W        W 9927  32.440  15.583  14.998
48507W        W 9928  40.910   9.858   0.307
48508W        W 9929  30.504  40.536  12.972
48509W        W 9930   7.780  27.478   1.874
48510W        W 9931  39.337  21.060   0.416
48511W        W 9932  12.748  40.882  11.432
48512W        W 9933  42.410  40.821   3.378
48513W        W 9934  28.121  44.364  14.987
48514W        W 9935  39.847  17.061  12.488
48515W        W 9936  19.696  28.971  14.003
48516W        W 9937  12.196  41.880  11.927
48517W        W 9938  42.527  20.674  10.556
48518W        W 9939   2.330  40.315   1.417
48519W        W 9940  12.179  28.569   2.836
48520W        W 9941  40.009   4.290  11.998
48521W        W 9942  27.186   6.879  13.536
48522W        W 9943   1.428   7.829  12.040
48523W        W 9944  16.075  24.625  11.961
48524W        W 9945   4.283  32.142  12.035
48525W        W 9946  19.542  30.016   4.709
48526W        W 9947  24.566  36.434   1.756
48527W        W 9948  41.026  10.815   4.175
48528W        W 9949   8.319  13.326   1.436
48529W        W 9950  10.377  21.202  12.988
48530W        W 9951  31.936  41.535   0.737
48531W        W 9952  25.117  19.559   3.868
48532W        W 9953  37.472  44.450  13.422
48533W        W 9954  17.653  41.379   1.789
48534W        W 9955  34.558   0.283   0.892
48535W        W 9956  43.484  30.026   1.317
48536W        W 9957  40.374  38.537  13.497
48537W        W 9958  14.814  19.584  12.830
48538W        W 9959   9.657  19.161  13.829
48539W        W 9960  39.425  15.246  14.377
48540W        W 9961  34.114  17.748  12.441
48541W        W 9962  18.217  22.578   1.401
48542W        W 9963  29.639  36.930   2.858
48543W        W 9964  21.719  41.980  11.969
48544W        W 9965   1.289   6.921   0.309
48545W        W 9966  28.534  42.889   1.923
48546W        W 9967  14.173  12.801   3.378
48547W        W 9968  32.014  38.425  10.482
48548W        W 9969  41.930  44.385   3.215
48549W        W 9970  24.628  37.847  12.422
48550W        W 9971  28.959  31.093   2.326
48551W        W 9972  27.450  20.066  11.047
48552W        W 9973   1.355  14.735  11.605
48553W        W 9974   0.295  19.617  14.838
48554W        W 9975   7.353   1.443   4.645
48555W        W 9976  21.682  41.412   3.237
48556W        W 9977   5.227  12.183   4.763
48557W        W 9978  40.440   1.374   0.383
48558W        W 9979  12.837  37.906   2.235
48559W        W 9980  43.405  22.187  13.029
48560W        W 9981   2.766  14.670  13.362
48561W        W 9982  38.506  15.589  12.068
48562W        W 9983  19.748  24.676  12.882
48563W        W 9984  37.061  35.459   4.353
48564W        W 9985  32.931  21.204   3.662
48565W        W 9986  30.926   7.203   3.681
48566W        W 9987   7.769  42.929  12.954
48567W        W 9988  31.071  25.978  13.501
48568W        W 9989  24.176  39.483   4.349
48569W        W 9990  14.166  18.669  12.858
48570W        W 9991   2.904  20.138   2.207
48571W        W 9992  36.845   9.245  13.835
48572W        W 9993   9.237   3.819  13.008
48573W        W 9994  24.136  16.590  14.796
48574W        W 9995  43.919  15.270   2.821
48575W        W 9996  27.954   7.830  13.960
48576W        W 9997   4.255  30.525   4.727
48577W        W 9998  12.201  18.701   0.931
48578W        W 9999  39.813  39.315  11.546
48579W        W10000  21.229  29.566   3.201
48580W        W10001  37.582   8.899  12.425
48581W        W10002  22.079  17.240  13.840
48582W        W10003  12.361  18.258  12.429
48583W        W10004  18.779   5.414  12.997
48584W        W10005  10.862  28.462  14.326
48585W        W10006  38.437  41.370   1.410
48586W        W10007   2.733  32.468  14.516
48587W        W10008  35.034   2.391  14.918
48588W        W10009  41.855  16.182  14.510
48589W        W10010  30.042  36.368   4.273
48590W        W10011  32.417  16.602  11.947
48591W        W10012  21.090  32.102  13.407
48592W        W10013  20.260  29.628   4.174
48593W        W10014  29.042  28.045  10.465
48594W        W10015  19.666   5.397  14.484
48595W        W10016  17.123  23.696   3.272
48596W        W10017  23.181  38.412   3.770
48597W        W10018  15.207  22.593   4.783
48598W        W10019  30.430  22.022   0.364
48599W        W10020   4.797  10.643  14.489
48600W        W10021  18.769   3.937   4.717
48601W        W10022  10.854  43.376  11.021
48602W        W10023  17.113  30.930  13.939
48603W        W10024  28.664  36.919  14.826
48604W        W10025  23.532  44.885   2.781
48605W        W10026  13.648  36.019   3.332
48606W        W10027  34.119   4.842  12.912
48607W        W10028  22.127  12.819  12.960
48608W        W10029  38.480  44.757   2.862
48609W        W10030   5.834   7.207   0.255
48610W        W10031  35.468  26.469  11.995
48611W        W10032  23.157   6.237  13.873
48612W        W10033  30.607  20.706  11.871
48613W        W10034  13.254   9.372  10.919
48614W        W10035   9.658  18.083   0.775
48615W        W10036  39.893  16.253   0.283
48616W        W10037  17.645   4.843   3.657
48617W        W10038   5.826  27.020  12.088
48618W        W10039  30.640   9.157   4.666
48619W        W10040  17.224  42.947   4.625
48620W        W10041  32.419  44.899   4.818
48621W        W10042   4.314   6.835   3.377
48622W        W10043  37.429  13.621  10.446
48623W        W10044  31.628  16.295  13.951
48624W        W10045  33.559  15.239   0.382
48625W        W10046  16.610  40.833  12.463
48626W        W10047  40.853  30.478   3.829
48627W        W10048  21.648  24.211  14.285
48628W        W10049  44.919  42.007   2.252
48629W        W10050   0.982  38.053  14.778
48630W        W10051   1.381  27.965   0.433
48631W        W10052   4.266  21.604  13.876
48632W        W10053   1.413  28.046   4.638
48633W        W10054  29.097  10.228   0.416
48634W        W10055   0.407  11.842   3.201
48635W        W10056  23.157  18.786  14.828
48636W        W10057   9.678  41.370   0.930
48637W        W10058  29.665  29.468   3.264
48638W        W10059  44.962   4.353   2.878
48639W        W10060   1.929  23.217  12.464
48640W        W10061   7.315  13.145   3.210
48641W        W10062  27.639  22.223  11.438
48642W        W10063  18.234  26.516  10.413
48643W        W10064  33.552  16.698   1.371
48644W        W10065  26.107  36.398   0.865
48645W        W10066  41.978  29.599   2.763
48646W        W10067  10.796   2.778  14.340
48647W        W10068  19.664  27.167   1.812
48648W        W10069  37.928   1.301  11.540
48649W        W10070  41.524  44.290  10.427
48650W        W10071   7.356  13.307  11.952
48651W        W10072  31.100  25.148   2.662
48652W        W10073  23.025   4.387   1.890
48653W        W10074  43.809  26.663   3.233
48654W        W10075   2.892  21.237   4.246
48655W        W10076  36.500   5.437   0.790
48656W        W10077  28.532  24.609  14.016
48657W        W10078  30.961  14.678   1.823
48658W        W10079  32.012  41.933  12.009
48659W        W10080  19.739  10.301   0.444
48660W        W10081  14.323  17.075  13.913
48661W        W10082  29.635   7.675  11.085
48662W        W10083  18.564  23.233   1.876
48663W        W10084   6.757  11.186   4.185
48664W        W10085  12.626   9.389  14.979
48665W        W10086  25.638  18.765  10.463
48666W        W10087  14.147   0.256  12.855
48667W        W10088  39.964  22.727   2.350
48668W        W10089   9.169   3.331  13.946
48669W        W10090  38.496   8.686   1.256
48670W        W10091  13.846  43.822  13.845
48671W        W10092  13.276  32.093  10.043
48672W        W10093   2.425  29.072   0.829
48673W        W10094  13.745  26.680   2.302
48674W        W10095  36.459   8.744   0.909
48675W        W10096  33.504  26.201  14.366
48676W        W10097  26.002  20.680   0.759
48677W        W10098  27.566  38.879  11.000
48678W        W10099  34.517   5.799  14.961
48679W        W10100  27.988  33.440   2.860
48680W        W10101  23.529  13.328   2.400
48681W        W10102  20.155  36.921  10.470
48682W        W10103  42.785  32.506   0.875
48683W        W10104  38.452  21.117  14.419
48684W        W10105   5.911  19.190  12.552
48685W        W10106  33.420  36.021  13.364
48686W        W10107  22.688   4.856   0.809
48687W        W10108  40.311   2.847  12.874
48688W        W10109  17.097  32.991  13.815
48689W        W10110   0.384  18.678   2.313
48690W        W10111  29.080  20.765   0.829
48691W        W10112  44.882   9.216   4.682
48692W        W10113  14.162  20.047   2.261
48693W        W10114   1.329   8.383  10.477
48694W        W10115  37.874  21.157   0.263
48695W        W10116  16.762  35.538   1.711
48696W        W10117  11.264  29.507  14.990
48697W        W10118  19.608  44.289   5.301
48698W        W10119  44.292  33.028  11.512
48699W        W10120  30.974  15.166   5.316
48700W        W10121  32.532  29.580  14.938
48701W        W10122   7.347   4.430  11.425
48702W        W10123  14.108  12.153   1.251
48703W        W10124   9.698  25.107  12.395
48704W        W10125  22.697  36.864   2.850
48705W        W10126  14.210  16.643  14.963
48706W        W10127   1.424  31.984  12.842
48707W        W10128   6.332  26.483  11.035
48708W        W10129  15.219  18.614   2.853
48709W        W10130  14.741  34.036  12.940
48710W        W10131   4.843  30.528  12.580
48711W        W10132  34.385   5.905  12.435
48712W        W10133  41.321  13.757   2.234
48713W        W10134  21.216   4.332   3.164
48714W        W10135   4.419  17.728   0.964
48715W        W10136  23.539   9.666  11.542
48716W        W10137  30.653  31.573  11.864
48717W        W10138   0.491  37.045  12.964
48718W        W10139  26.139  38.367  10.493
48719W        W10140  32.903  12.136   1.890
48720W        W10141  10.738  20.212   3.282
48721W        W10142  12.179  31.148   5.195
48722W        W10143  37.981  43.777  14.993
48723W        W10144  32.943  25.998   0.261
48724W        W10145   3.437  37.401   1.325
48725W        W10146  16.204   3.327   1.832
48726W        W10147  42.981   2.926   1.698
48727W        W10148  15.748   1.441   0.322
48728W        W10149  34.522   9.348   0.448
48729W        W10150  13.167   9.202  14.502
48730W        W10151  17.757  39.331  13.413
48731W        W10152   9.720  13.748   3.745
48732W        W10153  15.103   0.827  14.919
48733W        W10154  25.481  24.650  14.922
48734W        W10155  32.494  28.168  10.637
48735W        W10156  32.137  32.391   3.173
48736W        W10157  37.025  23.592  13.383
48737W        W10158   0.299  14.612  12.391
48738W        W10159  39.996  19.134   2.204
48739W        W10160  25.467  41.341  10.897
48740W        W10161  37.529  43.334  13.050
48741W        W10162  14.758   3.841   4.742
48742W        W10163  41.903  27.471  13.440
48743W        W10164   9.730  29.454  13.815
48744W        W10165   6.327  14.229   4.191
48745W        W10166  26.642  34.489   1.896
48746W        W10167  14.640  12.180  12.527
48747W        W10168  39.433  17.098   2.853
48748W        W10169  36.513  36.852  10.488
48749W        W10170   4.876  16.175  11.401
48750W        W10171   7.400  28.647  14.351
48751W        W10172  26.991  43.909  13.993
48752W        W10173  18.575  34.373   1.787
48753W        W10174  19.158  42.940   3.870
48754W        W10175  33.626   9.790   1.850
48755W        W10176  37.475  18.210   2.409
48756W        W10177  18.071   7.680   1.272
48757W        W10178  14.174   0.436   3.249
48758W        W10179  24.059  30.544  13.403
48759W        W10180   8.810   9.290   2.785
48760W        W10181  40.923  38.419  13.905
48761W        W10182  38.837   7.721  13.007
48762W        W10183  44.874  29.453   4.668
48763W        W10184  43.463   7.394  11.491
48764W        W10185   7.321  27.629   4.116
48765W        W10186  36.474  20.526  10.553
48766W        W10187  16.586   7.674   3.183
48767W        W10188  14.663  21.206  10.508
48768W        W10189  43.511  11.246  13.530
48769W        W10190  30.579  38.012  10.484
48770W        W10191  32.951  15.628   5.141
48771W        W10192  41.402  14.314  10.996
48772W        W10193  25.098  25.502  14.422
48773W        W10194  23.141   9.359   4.708
48774W        W10195  11.624  42.027  10.908
48775W        W10196  34.606  10.872  13.897
48776W        W10197  36.371  20.684   2.782
48777W        W10198   6.848  27.084   3.319
48778W        W10199  36.386  38.827   4.687
48779W        W10200   1.352  18.246   1.793
48780W        W10201  22.121   9.377   1.714
48781W        W10202  15.290  15.093   1.382
48782W        W10203  35.037   4.785   1.763
48783W        W10204  18.260  22.202  11.560
48784W        W10205  31.128  42.356   0.318
48785W        W10206   4.731  40.516   9.989
48786W        W10207  16.606  37.836  11.862
48787W        W10208  33.402  33.575   3.649
48788W        W10209  37.912   4.284  13.046
48789W        W10210  26.021  13.745  11.882
48790W        W10211  14.674  13.767   3.230
48791W        W10212  14.741   2.302   1.921
48792W        W10213  12.697  10.683   2.322
48793W        W10214  23.051  22.625   1.251
48794W        W10215  17.238  28.983   1.440
48795W        W10216   5.207  25.064  13.061
48796W        W10217  13.823  36.845   2.870
48797W        W10218   6.298  26.526  13.336
48798W        W10219  17.725   2.916  12.029
48799W        W10220  12.631  35.449  12.372
48800W        W10221  44.862  15.772  12.411
48801W        W10222  41.955  40.905  12.020
48802W        W10223  25.083  12.266  11.902
48803W        W10224  17.729  36.560   1.447
48804W        W10225  39.526  26.480   4.692
48805W        W10226  31.602  42.855   3.267
48806W        W10227  30.914  25.680   0.962
48807W        W10228  34.081  42.902   1.754
48808W        W10229  42.446  43.399  12.011
48809W        W10230  43.822  13.609  11.942
48810W        W10231   5.835  23.560   2.681
48811W        W10232  31.085  42.396  13.985
48812W        W10233  33.380   0.323  13.537
48813W        W10234  14.599  37.856   2.776
48814W        W10235  31.420  23.170  12.470
48815W        W10236  23.568  15.774  13.334
48816W        W10237  36.476  21.242  13.522
48817W        W10238  25.148  13.311   0.286
48818W        W10239   7.690  30.655   5.217
48819W        W10240  11.317  37.950  10.984
48820W        W10241  15.084  42.879   3.866
48821W        W10242  21.077  18.072  14.399
48822W        W10243  20.207  23.639   1.729
48823W        W10244  29.516  22.252  12.504
48824W        W10245  34.979  18.252  10.523
48825W        W10246  24.150  10.727  12.951
48826W        W10247  34.967  15.709  10.552
48827W        W10248   7.396  12.136  11.083
48828W        W10249  29.117   6.728  14.907
48829W        W10250  18.058  22.239  14.487
48830W        W10251   6.870  25.982   4.296
48831W        W10252  43.873  14.312   3.652
48832W        W10253  16.682  33.077  10.564
48833W        W10254  41.019  17.730  11.521
48834W        W10255  19.247  29.011  10.526
48835W        W10256  33.028  14.272  13.347
48836W        W10257  42.329   3.847  12.032
48837W        W10258  19.230  43.299  12.896
48838W        W10259  27.496  19.059  12.435
48839W        W10260  19.545  34.444   1.914
48840W        W10261  33.529  19.616  10.405
48841W        W10262  27.459  36.557   4.271
48842W        W10263  41.473  16.224   2.217
48843W        W10264  36.449  39.981  13.991
48844W        W10265   2.944   7.822  14.759
48845W        W10266   3.730  10.330   4.207
48846W        W10267   2.850  35.565   4.237
48847W        W10268  29.932  39.333  11.001
48848W        W10269  10.307  31.569   3.716
48849W        W10270  36.070   1.343   4.280
48850W        W10271   5.762  25.050  12.458
48851W        W10272  22.710  11.209  10.933
48852W        W10273  34.880   4.297  10.597
48853W        W10274  41.422  39.049  14.284
48854W        W10275  23.115  14.628  13.906
48855W        W10276  16.238  37.338   5.089
48856W        W10277  37.360  14.170   2.313
48857W        W10278  44.289  26.520   1.327
48858W        W10279  40.460  27.184   3.368
48859W        W10280  37.401  24.205   2.877
48860W        W10281  33.087   6.800  11.467
48861W        W10282  19.244  30.974   3.637
48862W        W10283   9.314  14.741  12.068
48863W        W10284  41.486  24.641  11.104
48864W        W10285  14.825  35.952  13.984
48865W        W10286  33.521  31.911   2.229
48866W        W10287  22.103  20.098  12.502
48867W        W10288  29.619   2.239  10.989
48868W        W10289  25.186   1.362  10.528
48869W        W10290  34.957   5.254   3.366
48870W        W10291  43.358  12.347  12.528
48871W        W10292  20.187  36.017  12.921
48872W        W10293  12.731  20.729  14.384
48873W        W10294  19.695   1.387  12.474
48874W        W10295  42.786  35.922  14.975
48875W        W10296  41.968   3.747   1.361
48876W        W10297  20.675  10.754   2.193
48877W        W10298  41.382  21.050   4.610
48878W        W10299  27.536   5.316  13.802
48879W        W10300  14.747   2.315   3.860
48880W        W10301  16.155  32.022   3.687
48881W        W10302  42.426  35.076   2.213
48882W        W10303  43.285   1.824  12.438
48883W        W10304  13.829  23.096  11.454
48884W        W10305  31.004  37.340   0.934
48885W        W10306   9.697  14.259  10.585
48886W        W10307  36.491  27.077  13.794
48887W        W10308  15.327  41.021   2.820
48888W        W10309  20.607  11.367   0.299
48889W        W10310  11.276  24.123   3.791
48890W        W10311  18.137  34.945   4.125
48891W        W10312   5.289  29.607  13.489
48892W        W10313   4.222  34.397   1.334
48893W        W10314  27.580  27.665   3.157
48894W        W10315  40.340  33.945   2.807
48895W        W10316  38.369  24.152  12.827
48896W        W10317  37.002   0.843   4.646
48897W        W10318  16.600  39.322  12.514
48898W        W10319  22.055  15.292   1.733
48899W        W10320  23.998   3.283  12.998
48900W        W10321  29.468  10.800   0.751
48901W        W10322   7.886  33.612   2.188
48902W        W10323  14.732  37.521   3.843
48903W        W10324  18.692  34.037   1.444
48904W        W10325  37.876  19.688   0.945
48905W        W10326  25.041   7.874   4.654
48906W        W10327  24.212  25.023   3.656
48907W        W10328  41.529  35.454   1.402
48908W        W10329  15.703  39.480  13.020
48909W        W10330   5.934  34.409  13.818
48910W        W10331  34.538  38.339   1.799
48911W        W10332  24.141  19.135   1.338
48912W        W10333  10.820  26.161   0.314
48913W        W10334  11.783  39.897   2.265
48914W        W10335   4.220  43.994   3.661
48915W        W10336  13.249   9.293   3.280
48916W        W10337  41.378  12.674   3.637
48917W        W10338  26.644   7.219   1.870
48918W        W10339  10.376  33.566  14.371
48919W        W10340  41.902  29.934   1.752
48920W        W10341  30.073  43.854  14.416
48921W        W10342  22.728  32.563   3.343
48922W        W10343  29.084  16.735   3.711
48923W        W10344  14.673  11.868  13.419
48924W        W10345  42.506  41.884   2.347
48925W        W10346  11.128  36.900   0.875
48926W        W10347  34.586   1.746  14.926
48927W        W10348  29.588  42.298  14.403
48928W        W10349  21.222   2.827   3.639
48929W        W10350  16.803  28.625   2.300
48930W        W10351   2.877  29.501   4.707
48931W        W10352  18.645  39.464   0.274
48932W        W10353   5.320  41.854   1.340
48933W        W10354  30.917  29.592  11.388
48934W        W10355  28.129   7.893   0.421
48935W        W10356   1.732  35.035  11.014
48936W        W10357  34.944  15.750  13.447
48937W        W10358  40.906  25.679  13.322
48938W        W10359  44.985  42.326  14.302
48939W        W10360  16.757  15.676  13.465
48940W        W10361  32.994  28.125   0.949
48941W        W10362  19.703  28.062  13.031
48942W        W10363  19.595  44.393  13.504
48943W        W10364  36.360  40.910  12.484
48944W        W10365   6.244   6.896   2.713
48945W        W10366  19.652  13.711   0.793
48946W        W10367  37.574  20.669  13.031
48947W        W10368  43.902   5.851   3.335
48948W        W10369  17.665   0.782  11.049
48949W        W10370  37.481   7.298   4.603
48950W        W10371  11.832  39.869   2.706
48951W        W10372   2.239  39.823  10.987
48952W        W10373   3.954   9.815  13.919
48953W        W10374  22.043  13.831   0.426
48954W        W10375  17.168  15.604  14.968
48955W        W10376   1.341  18.125   2.874
48956W        W10377   1.833  33.626  12.493
48957W        W10378  44.834  32.401  14.017
48958W        W10379  14.721  20.691   0.932
48959W        W10380   5.320  13.327   1.434
48960W        W10381  12.287  21.701  10.597
48961W        W10382  10.757  15.101  12.833
48962W        W10383   9.720   0.322   0.729
48963W        W10384  21.262  11.341  10.484
48964W        W10385  22.587   1.786   1.818
48965W        W10386  42.954  24.696   3.773
48966W        W10387  29.570  27.949   4.334
48967W        W10388  22.544   5.706   2.292
48968W        W10389  11.282  13.663  11.423
48969W        W10390  19.082  10.842  13.031
48970W        W10391  31.031  25.582  12.505
48971W        W10392  24.149   7.709  14.001
48972W        W10393  37.389  23.060   0.448
48973W        W10394  31.431  29.458   3.236
48974W        W10395  14.802  43.769  13.903
48975W        W10396  27.161  33.994   3.147
48976W        W10397  28.026  36.066  11.124
48977W        W10398  24.657  36.894   2.180
48978W        W10399  40.489  14.694   0.420
48979W        W10400  35.051   4.409   1.929
48980W        W10401  26.138  11.216  10.583
48981W        W10402  26.081  10.781   3.233
48982W        W10403  41.823  21.698   4.136
48983W        W10404  23.627  23.116   0.888
48984W        W10405  16.172  34.382   5.131
48985W        W10406  14.628  30.916  14.842
48986W        W10407  22.691  14.770   2.848
48987W        W10408   1.922   5.702   1.828
48988W        W10409  11.766  31.957  10.514
48989W        W10410  43.765  35.511  12.460
48990W        W10411  16.126  14.129   9.974
48991W        W10412  43.500   1.912   5.232
48992W        W10413  36.354  26.990  14.961
48993W        W10414  42.969  37.486  11.003
48994W        W10415   0.970  27.545   4.658
48995W        W10416  44.294   9.181  14.412
48996W        W10417  18.121  38.047  11.875
48997W        W10418   3.809  10.761   1.697
48998W        W10419  28.477  31.082   2.213
48999W        W10420  16.266  28.677  14.795
49000W        W10421  39.382   7.784   4.271
49001W        W10422  38.866  30.552  12.968
49002W        W10423  28.573   3.884  12.072
49003W        W10424  23.059   4.870  13.836
49004W        W10425  36.545  17.189  11.963
49005W        W10426  22.672  43.354  13.044
49006W        W10427  21.022  26.001   4.214
49007W        W10428   5.709  38.563   3.318
49008W        W10429  19.181  12.821  13.941
49009W        W10430  34.553   0.988  13.308
49010W        W10431   3.845  18.552  12.369
49011W        W10432  29.575  35.031   0.462
49012W        W10433  15.272  20.706  12.863
49013W        W10434  16.258  43.838   1.308
49014W        W10435   5.902   1.861   3.297
49015W        W10436  26.100  31.923   1.308
49016W        W10437   4.321   0.318  12.992
49017W        W10438  28.509   4.334   1.352
49018W        W10439   3.742  22.504   2.679
49019W        W10440   3.338  40.051  13.538
49020W        W10441  11.743  31.153   3.145
49021W        W10442  23.677  14.748   4.612
49022W        W10443  40.548  43.439  11.448
49023W        W10444  41.810  35.973  12.838
49024W        W10445   7.314  39.492  12.494
49025W        W10446  17.077  15.313  12.510
49026W        W10447   9.191  10.872   4.658
49027W        W10448   0.391  14.643   1.711
49028W        W10449   7.367  15.194   1.436
49029W        W10450  12.698  30.012   0.384
49030W        W10451   3.781  14.204   1.698
49031W        W10452  40.395   0.943   3.704
49032W        W10453  31.461  17.093  14.449
49033W        W10454  16.568  19.220   4.606
49034W        W10455  34.979   1.955   1.750
49035W        W10456  24.695  30.643  13.005
49036W        W10457  21.160  32.025   1.701
49037W        W10458  17.661  27.096  10.546
49038W        W10459  30.010  34.565   3.206
49039W        W10460   3.828   3.413  13.822
49040W        W10461  19.675   6.702  11.454
49041W        W10462  34.508  41.303  13.327
49042W        W10463  37.908  36.388   0.939
49043W        W10464  16.309  22.098   3.206
49044W        W10465  16.172  22.100   1.306
49045W        W10466  27.592  42.450  11.055
49046W        W10467  18.608  11.153  14.479
49047W        W10468  25.026  29.535  12.357
49048W        W10469  13.661  38.464  11.091
49049W        W10470   7.840  36.439   0.400
49050W        W10471   5.818   9.231   3.793
49051W        W10472  44.992  34.120   0.438
49052W        W10473  17.709  43.352   3.239
49053W        W10474  11.319  14.745   0.298
49054W        W10475   8.318  12.807   1.243
49055W        W10476  16.627   3.231  11.462
49056W        W10477   2.881  38.979  12.936
49057W        W10478   3.346  36.440   2.356
49058W        W10479  17.160  16.717   4.342
49059W        W10480   4.756  25.993   0.287
49060W        W10481  32.069  24.720   4.684
49061W        W10482  18.783   1.280   1.223
49062W        W10483  40.458   2.817   1.798
49063W        W10484  20.081   4.896   5.264
49064W        W10485  30.426   0.871  10.481
49065W        W10486  33.997  33.087  10.976
49066W        W10487   4.406  26.607   0.776
49067W        W10488  16.132  14.748  11.053
49068W        W10489  26.636  16.240  12.977
49069W        W10490  17.659  27.081   3.178
49070W        W10491  25.095  27.182   1.297
49071W        W10492  17.562  25.063  10.905
49072W        W10493  29.470   4.770   2.703
49073W        W10494  24.520  11.240   4.244
49074W        W10495  11.204   4.208   1.242
49075W        W10496  41.786  44.920   0.828
49076W        W10497   1.297  13.140   0.336
49077W        W10498  32.614  18.784  13.008
49078W        W10499  40.391  24.128  12.518
49079W        W10500  26.672  39.456   2.900
49080W        W10501  40.449  20.055  11.490
49081W        W10502   2.392  40.354   0.761
49082W        W10503  25.469  32.417   1.271
49083W        W10504  22.025  12.322  14.396
49084W        W10505  24.684  20.649   4.611
49085W        W10506  39.856   2.348  10.636
49086W        W10507   0.256   3.797   4.183
49087W        W10508  28.439   9.886   2.267
49088W        W10509  11.696   4.217  12.550
49089W        W10510  31.073  23.179   4.636
49090W        W10511  13.152   8.660  11.458
49091W        W10512  21.041  35.104  14.832
49092W        W10513  22.502   9.690   2.212
49093W        W10514  20.081  35.930   1.860
49094W        W10515  22.723   6.720   1.902
49095W        W10516  25.190  32.514  13.363
49096W        W10517   8.385   4.211   1.927
49097W        W10518   6.718   9.862   2.856
49098W        W10519  28.092   5.884  10.895
49099W        W10520  43.916  40.985  13.485
49100W        W10521  38.549  40.437  10.938
49101W        W10522  34.064  35.367  11.943
49102W        W10523   5.287  42.872   1.346
49103W        W10524  37.357  19.220  12.008
49104W        W10525  24.064  28.078   2.823
49105W        W10526  14.679   7.766  12.505
49106W        W10527  14.288   6.413   1.880
49107W        W10528  25.136  28.655  12.430
49108W        W10529  43.822  38.528  10.489
49109W        W10530  36.538  22.128  11.580
49110W        W10531  18.559  22.645  11.110
49111W        W10532   7.907  21.683  13.345
49112W        W10533  36.048  14.267   3.318
49113W        W10534   2.792  24.715   1.371
49114W        W10535   9.167  25.968   0.303
49115W        W10536  28.577  30.938  14.991
49116W        W10537  44.951  16.612   2.395
49117W        W10538   0.437  41.028  14.339
49118W        W10539   7.244  18.655   3.225
49119W        W10540  17.614  43.017   5.229
49120W        W10541  19.618  13.714   3.173
49121W        W10542  18.606  20.205  11.600
49122W        W10543  16.290   1.890   1.861
49123W        W10544  11.773  27.509   1.889
49124W        W10545  15.773  36.417  13.867
49125W        W10546  40.522  44.282   3.159
49126W        W10547   7.406  19.078   3.372
49127W        W10548   2.451   8.190  14.382
49128W        W10549   0.255  27.074  10.965
49129W        W10550  13.839  11.252   0.475
49130W        W10551  20.048  43.314  11.015
49131W        W10552  23.591  28.600   1.803
49132W        W10553  15.149  30.546   2.239
49133W        W10554  40.330  21.189  11.892
49134W        W10555  29.586  32.630   1.832
49135W        W10556   2.432  18.109   1.447
49136W        W10557  11.831  28.470  12.342
49137W        W10558  22.088  29.017   4.762
49138W        W10559  24.551   9.207  11.478
49139W        W10560  33.470  13.636   5.265
49140W        W10561  21.092  44.777  11.517
49141W        W10562  24.504  19.118  12.031
49142W        W10563  11.307  13.810   3.732
49143W        W10564  27.612   4.323  13.349
49144W        W10565  17.724   1.929  12.068
49145W        W10566  13.133   4.873   1.824
49146W        W10567   9.716  18.598   3.867
49147W        W10568  12.824  17.683  14.774
49148W        W10569  23.040  32.097  11.059
49149W        W10570  39.927  42.783   3.676
49150W        W10571  36.028  38.076   1.286
49151W        W10572   2.410  16.629  13.812
49152W        W10573  16.684  28.640  10.563
49153W        W10574  34.557  36.856  12.895
49154W        W10575   1.358  29.029   0.457
49155W        W10576  15.625  20.224   0.251
49156W        W10577  17.107   0.877   0.858
49157W        W10578  41.792  26.207  10.888
49158W        W10579  33.455  38.474  13.022
49159W        W10580  41.003  39.553   0.760
49160W        W10581  14.127  20.533  11.890
49161W        W10582  31.040   3.452   4.614
49162W        W10583   3.778  30.491  14.286
49163W        W10584  22.247  13.202  12.911
49164W        W10585   7.273  12.272  13.494
49165W        W10586  10.224  29.143  10.926
49166W        W10587  43.379  38.981  14.814
49167W        W10588  44.291  41.329   1.823
49168W        W10589   2.865   0.882   1.387
49169W        W10590  17.292   7.680  12.550
49170W        W10591  43.949  10.262   1.705
49171W        W10592  44.888  38.018   4.212
49172W        W10593  25.037   6.210  14.480
49173W        W10594  31.928  32.532   1.920
49174W        W10595  38.332  21.741   3.193
49175W        W10596  42.974   1.931  13.951
49176W        W10597  15.286   3.774  14.950
49177W        W10598  31.581  36.977  12.083
49178W        W10599  29.952   2.964   4.196
49179W        W10600  13.662   1.756   3.683
49180W        W10601  34.103  35.490   3.795
49181W        W10602  26.581  33.607  13.515
49182W        W10603  40.994  38.008   3.191
49183W        W10604   9.336  38.952   3.850
49184W        W10605  12.301   2.754   0.320
49185W        W10606  26.466  17.597   1.299
49186W        W10607   2.267  23.495   0.953
49187W        W10608  18.080   0.348   1.915
49188W        W10609  26.131   0.862   2.216
49189W        W10610  19.604  44.490   3.367
49190W        W10611  15.258  43.945   0.327
49191W        W10612  26.998  27.956   4.226
49192W        W10613  42.791   8.815   2.785
49193W        W10614  18.719  17.558   1.805
49194W        W10615  17.259  11.132   2.867
49195W        W10616  28.540  43.012  11.920
49196W        W10617  35.473  31.591  10.914
49197W        W10618  35.538   8.805   3.259
49198W        W10619   7.715  36.556  11.110
49199W        W10620  33.912  13.752   3.669
49200W        W10621  11.670   2.411  11.057
49201W        W10622  34.074  42.982  12.478
49202W        W10623  12.306  21.188  10.613
49203W        W10624  12.653  13.832   2.220
49204W        W10625  39.502  36.044  12.064
49205W        W10626   2.243  35.003  12.434
49206W        W10627  18.236  21.519   2.267
49207W        W10628  22.141  27.515  12.506
49208W        W10629   6.746  14.299  10.417
49209W        W10630  13.216  26.086   2.878
49210W        W10631  22.065  27.974  12.923
49211W        W10632   7.770  26.137   9.972
49212W        W10633  34.005  38.873  14.402
49213W        W10634  14.102  22.690   1.890
49214W        W10635  38.997  32.109   1.348
49215W        W10636  16.315   8.176   3.272
49216W        W10637  12.700  32.081   1.765
49217W        W10638  41.321  22.549  13.344
49218W        W10639  13.726  31.897  12.523
49219W        W10640  30.544   8.237   4.602
49220W        W10641  30.052  11.189   1.402
49221W        W10642  14.759  38.410  12.826
49222W        W10643  40.042   7.804  10.951
49223W        W10644  38.483   8.219   3.815
49224W        W10645  37.045  38.495  13.533
49225W        W10646   9.676  16.277   1.768
49226W        W10647  29.472  40.003   0.458
49227W        W10648   6.232  17.155   4.795
49228W        W10649   7.369   9.646   1.246
49229W        W10650  41.811  25.487  12.412
49230W        W10651  39.053  14.114  14.834
49231W        W10652   4.247  26.160   2.772
49232W        W10653  35.569   6.372   2.874
49233W        W10654  10.362  19.759  11.019
49234W        W10655   5.249  38.569   2.729
49235W        W10656  22.050  23.528   0.278
49236W        W10657  34.460  42.481  13.498
49237W        W10658   7.896  32.913  14.882
49238W        W10659  40.800   5.276   1.321
49239W        W10660   7.833  18.099  13.928
49240W        W10661   4.304  20.751  13.415
49241W        W10662  38.822  19.223  12.562
49242W        W10663  38.046   9.254  11.553
49243W        W10664  41.851  34.940  14.807
49244W        W10665  40.963  24.518  11.091
49245W        W10666  43.906   1.423  11.910
49246W        W10667  27.043  38.829   1.439
49247W        W10668  39.436  15.247   2.696
49248W        W10669  36.995  19.151   0.726
49249W        W10670  24.125  40.837   1.741
49250W        W10671  27.691  43.315   2.748
49251W        W10672  35.416  28.584   3.335
49252W        W10673   1.890   1.327  10.979
49253W        W10674  37.863   2.412  10.450
49254W        W10675  31.407  24.084  12.580
49255W        W10676  34.074  27.598   2.393
49256W        W10677   0.891   0.928  10.081
49257W        W10678  14.792  20.726   4.644
49258W        W10679  12.308   9.361   4.159
49259W        W10680  36.003  17.302  13.512
49260W        W10681  28.460   4.911   4.193
49261W        W10682  18.664  42.430   0.372
49262W        W10683   2.334   7.774  10.596
49263W        W10684  21.229   1.871   3.645
49264W        W10685  38.357  39.542  11.994
49265W        W10686  31.645  12.272  13.468
49266W        W10687   1.926  36.843  14.769
49267W        W10688  23.643   2.329   3.336
49268W        W10689   9.166   7.687   1.282
49269W        W10690   6.775  16.202   3.696
49270W        W10691   8.749  28.078   5.133
49271W        W10692  43.312  27.475   4.733
49272W        W10693  39.924   7.697   1.371
49273W        W10694  35.906  36.932   1.804
49274W        W10695  22.665  17.625   9.957
49275W        W10696  43.302  23.507  13.057
49276W        W10697  16.165   5.836  11.596
49277W        W10698  20.117  16.302   3.710
49278W        W10699  40.499   9.740  13.542
49279W        W10700   2.369   1.431  14.798
49280W        W10701  24.606   1.306   3.831
49281W        W10702  12.711  12.139   4.721
49282W        W10703  40.899  26.002   4.774
49283W        W10704  39.997  20.684  13.002
49284W        W10705  21.709  35.541  11.528
49285W        W10706  43.982   1.862  11.434
49286W        W10707  44.988  29.542  13.935
49287W        W10708  10.209  37.559   3.270
49288W        W10709  40.343   6.349  12.034
49289W        W10710   8.345  23.688  14.373
49290W        W10711  26.657  44.916  12.825
49291W        W10712  25.540  29.484   1.749
49292W        W10713  21.732   0.489  10.916
49293W        W10714  40.393  23.604  11.966
49294W        W10715   2.747  40.418  13.546
49295W        W10716  25.006  37.028   4.800
49296W        W10717   5.870  32.005   4.737
49297W        W10718  22.533  12.259   0.463
49298W        W10719  12.228  31.477  12.080
49299W        W10720   6.708  25.580   5.144
49300W        W10721  42.369  35.875   1.903
49301W        W10722  32.938  25.021   1.358
49302W        W10723  16.178  27.610  12.392
49303W        W10724  18.277  44.413   0.284
49304W        W10725  37.072   4.283   0.421
49305W        W10726   3.293   6.914   2.373
49306W        W10727  38.479  14.833  13.499
49307W        W10728  26.124  31.437  13.931
49308W        W10729  35.936   9.288   3.195
49309W        W10730  12.770  18.611  14.383
49310W        W10731  42.905  38.899  13.056
49311W        W10732   3.316  23.995  11.098
49312W        W10733  40.883  38.469   2.826
49313W        W10734  29.603  21.239  14.387
49314W        W10735  25.523  40.006  12.091
49315W        W10736   1.240  11.783   2.737
49316W        W10737  27.106  38.025   2.883
49317W        W10738  38.819  16.278   4.139
49318W        W10739  38.885  33.590   3.169
49319W        W10740  25.633  39.028  10.155
49320W        W10741  44.415  16.647   0.895
49321W        W10742   1.820  43.811  12.052
49322W        W10743  16.713  17.208   2.865
49323W        W10744  38.897  37.582  11.409
49324W        W10745   7.373  35.091  12.429
49325W        W10746  13.678  19.655   1.280
49326W        W10747  19.723  30.609   2.187
49327W        W10748   1.307  40.965   1.725
49328W        W10749  30.622  44.949   0.470
49329W        W10750  29.060   6.805  11.521
49330W        W10751  14.293  24.229   3.723
49331W        W10752  21.551  14.694   2.244
49332W        W10753  35.062   2.865  12.914
49333W        W10754  20.065   5.259  14.954
49334W        W10755  10.294  35.853  14.866
49335W        W10756  19.716  38.536   2.356
49336W        W10757   9.777   5.363  11.585
49337W        W10758  35.452  37.945  13.525
49338W        W10759   7.239  10.843  11.423
49339W        W10760  37.578  43.914  12.558
49340W        W10761  30.461   3.893  13.480
49341W        W10762  27.998  44.957  13.014
49342W        W10763   2.380  17.560  11.112
49343W        W10764  14.722  26.481   1.249
49344W        W10765   2.754  19.597   3.150
49345W        W10766  37.007  42.381   3.375
49346W        W10767  26.991  29.594  12.830
49347W        W10768  23.565  33.098   1.750
49348W        W10769   5.343   4.401  14.907
49349W        W10770   5.780  16.167   0.279
49350W        W10771  26.041   6.405  11.453
49351W        W10772  39.428  42.452  12.938
49352W        W10773   1.248  25.980  12.013
49353W        W10774  16.592  39.551   2.245
49354W        W10775  35.039  30.435   1.742
49355W        W10776   9.868  39.389   1.823
49356W        W10777  14.264  12.643  14.331
49357W        W10778  43.773  44.306  12.986
49358W        W10779  32.635  40.315  10.510
49359W        W10780  42.312   8.690  11.029
49360W        W10781  12.137   1.314   3.162
49361W        W10782  41.881   0.464   0.870
49362W        W10783  27.604  36.856  12.569
49363W        W10784  32.578   9.185  12.389
49364W        W10785  44.852  38.464   3.666
49365W        W10786  23.603   6.749   5.088
49366W        W10787  39.900   4.280   2.271
49367W        W10788  17.093   9.314  12.339
49368W        W10789  34.545  32.112   5.108
49369W        W10790  28.676  18.703  12.999
49370W        W10791  11.842  29.990   4.618
49371W        W10792  27.446  26.492   0.450
49372W        W10793   4.299   4.705  10.513
49373W        W10794  40.515  38.525  10.410
49374W        W10795  23.137  19.082  11.905
49375W        W10796  10.859   8.893  11.506
49376W        W10797  27.996  24.030  11.083
49377W        W10798  35.384  35.050  11.982
49378W        W10799   9.197  10.177   4.642
49379W        W10800  44.863  22.020   0.427
49380W        W10801  43.417  12.785  10.076
49381W        W10802  43.367   4.806   2.304
49382W        W10803  37.839  28.670  14.407
49383W        W10804   6.379  44.837   1.268
49384W        W10805  11.727  22.523   5.320
49385W        W10806  26.653  23.570   4.603
49386W        W10807  19.160  18.128  14.796
49387W        W10808  41.341  42.437  14.325
49388W        W10809  19.555   5.242   9.980
49389W        W10810  38.569  31.974  11.953
49390W        W10811   4.431  43.015   3.642
49391W        W10812  44.853   6.768   3.632
49392W        W10813  24.183   4.388  14.906
49393W        W10814  21.738  39.922  14.941
49394W        W10815  31.403  40.395   4.615
49395W        W10816  21.102  13.768  10.970
49396W        W10817  20.545  16.141   3.299
49397W        W10818  32.935  36.353   2.351
49398W        W10819  26.177  11.773  11.460
49399W        W10820  12.823   5.420  11.498
49400W        W10821  29.466  41.344  11.019
49401W        W10822   5.917  35.362   0.747
49402W        W10823  34.493  30.062   3.193
49403W        W10824  40.418  14.114   1.369
49404W        W10825  26.618  26.585   1.384
49405W        W10826  22.678  27.172  14.342
49406W        W10827  39.031  29.021   2.202
49407W        W10828  36.967   0.264   0.479
49408W        W10829  33.437  13.339  12.845
49409W        W10830   4.736  32.563   5.788
49410W        W10831  35.971  40.445  13.015
49411W        W10832   1.263  32.611  14.986
49412W        W10833  30.491  13.318   3.354
49413W        W10834  15.605  21.048   3.732
49414W        W10835  11.670   5.282  13.952
49415W        W10836   3.924  42.298  13.401
49416W        W10837  16.773  39.322   3.236
49417W        W10838  10.152   9.671   2.699
49418W        W10839  12.812  11.621  11.864
49419W        W10840  30.978  38.874   3.788
49420W        W10841  30.623  16.768   9.937
49421W        W10842  35.384  33.946  13.798
49422W        W10843  17.797  14.727   1.933
49423W        W10844  31.619  27.609  12.867
49424W        W10845  40.507  34.415  13.922
49425W        W10846  44.895   6.420   2.814
49426W        W10847  31.002   4.906   4.685
49427W        W10848  25.053   5.286  11.515
49428W        W10849  27.051  14.605   4.673
49429W        W10850  11.295  43.824  10.516
49430W        W10851  35.959  22.163   2.749
49431W        W10852  17.748   5.775  13.527
49432W        W10853  38.336  18.058  14.970
49433W        W10854   7.315  15.747  11.610
49434W        W10855  38.879  17.646   1.858
49435W        W10856  26.523  13.270   2.228
49436W        W10857  23.003  19.056   4.252
49437W        W10858  13.259  24.055   1.927
49438W        W10859   0.300  37.359  10.433
49439W        W10860  42.872  18.749   0.784
49440W        W10861  36.548  43.387  10.599
49441W        W10862  21.512  27.147  11.037
49442W        W10863  12.358  18.291   2.794
49443W        W10864  14.690  11.210  12.510
49444W        W10865  16.215  38.489   0.317
49445W        W10866   8.785  35.890   4.353
49446W        W10867  40.539   4.904   2.836
49447W        W10868   5.850  18.214  13.980
49448W        W10869  35.418   6.374  14.852
49449W        W10870  26.517  30.913   1.293
49450W        W10871   9.794   4.872  11.076
49451W        W10872   4.351  25.603  14.897
49452W        W10873   8.368  28.146   1.694
49453W        W10874  40.517  44.357  10.151
49454W        W10875  16.099   5.299   3.187
49455W        W10876  22.575  13.621   1.312
49456W        W10877  27.985   7.737  12.875
49457W        W10878   3.723  28.508  13.814
49458W        W10879   6.873  27.000   0.427
49459W        W10880   2.760  12.756   4.228
49460W        W10881   1.263  13.632  13.968
49461W        W10882  28.086  32.029  11.503
49462W        W10883   0.773  23.519   3.780
49463W        W10884   8.761  26.156  10.533
49464W        W10885  43.770  27.966   4.781
49465W        W10886  20.205  26.021   2.686
49466W        W10887   3.267   8.244   0.828
49467W        W10888  37.034  33.499   2.224
49468W        W10889   4.442  34.580  13.972
49469W        W10890  22.736  43.915  14.464
49470W        W10891  20.694  44.887   3.203
49471W        W10892   4.769   7.364  11.568
49472W        W10893   7.274  37.523  10.642
49473W        W10894  23.184  40.910   4.708
49474W        W10895  25.631  13.796   2.255
49475W        W10896  37.922  27.945  11.474
49476W        W10897   5.903   6.886   2.223
49477W        W10898  27.181  18.295  14.455
49478W        W10899  25.533  16.072  14.285
49479W        W10900  17.790   9.151   4.784
49480W        W10901  36.033  33.024   2.862
49481W        W10902  21.135  29.167   3.767
49482W        W10903   7.761   9.330  14.409
49483W        W10904  33.589  28.669  10.439
49484W        W10905  29.131   0.301  12.949
49485W        W10906  37.873   3.819   9.609
49486W        W10907  21.707  15.688   0.879
49487W        W10908  24.021  19.260  12.026
49488W        W10909  13.644  17.194  10.580
49489W        W10910  37.961   8.718   1.275
49490W        W10911  32.097  38.457   0.272
49491W        W10912  39.008  12.243  11.883
49492W        W10913   7.873  16.747  10.485
49493W        W10914  24.071  21.757  10.992
49494W        W10915  36.067  42.463  11.974
49495W        W10916  23.005   8.389   2.412
49496W        W10917  15.188  31.995  14.804
49497W        W10918  26.540   3.876  11.046
49498W        W10919  29.171  23.212  10.550
49499W        W10920  22.055   7.861  11.480
49500W        W10921  12.664  26.187   3.679
49501W        W10922   3.357  43.839   1.291
49502W        W10923   3.810  30.465  13.513
49503W        W10924  29.662   3.398  12.856
49504W        W10925  31.982   6.882   1.314
49505W        W10926  20.706  33.600  14.319
49506W        W10927  31.943   3.347  12.405
49507W        W10928  19.180  18.743  14.948
49508W        W10929   2.368   5.324   1.884
49509W        W10930  43.504  20.607  14.799
49510W        W10931  41.532   0.790   3.832
49511W        W10932   5.327  35.081  14.997
49512W        W10933  42.320  44.460  13.964
49513W        W10934  40.920  21.200   2.373
49514W        W10935  25.713  34.436  13.992
49515W        W10936  36.932  44.435   0.318
49516W        W10937  17.585  13.825   4.770
49517W        W10938  21.188  19.240  13.792
49518W        W10939   5.906  12.134  14.005
49519W        W10940   9.675   3.283  12.880
49520W        W10941   0.755  26.593   1.399
49521W        W10942   1.771   2.734   2.848
49522W        W10943  34.491  22.235  13.374
49523W        W10944  31.122  27.644   4.202
49524W        W10945  42.031  42.014   2.751
49525W        W10946  33.942  36.008  13.948
49526W        W10947   7.695  10.153   0.768
49527W        W10948  11.727  41.831   1.439
49528W        W10949  14.736  35.988   3.266
49529W        W10950   3.841   2.839   1.848
49530W        W10951  30.557  14.703   0.245
49531W        W10952  38.838   1.468   4.730
49532W        W10953   1.888  17.147   2.180
49533W        W10954  18.781  18.202  14.917
49534W        W10955  36.412  41.847  13.466
49535W        W10956  11.211   0.328  10.466
49536W        W10957   0.853  20.204   1.774
49537W        W10958  13.244   6.834  14.374
49538W        W10959  15.126  34.012  12.464
49539W        W10960  11.354  14.822   1.253
49540W        W10961  32.031  35.375  14.916
49541W        W10962  19.048   0.872   0.823
49542W        W10963  33.402  37.847   3.654
49543W        W10964   9.351  24.583   2.875
49544W        W10965  14.315  37.471  13.865
49545W        W10966   3.732  12.118   2.343
49546W        W10967  16.257  22.088  14.387
49547W        W10968  24.556  28.530   2.402
49548W        W10969  27.589  31.989   3.752
49549W        W10970   1.318  30.082   3.661
49550W        W10971   5.688   9.708   2.876
49551W        W10972  10.337  35.938   4.631
49552W        W10973   4.447  14.742  10.443
49553W        W10974  18.752  39.327  10.898
49554W        W10975  36.540  27.491  11.511
49555W        W10976  23.643  26.156   2.881
49556W        W10977  14.626  19.656   2.294
49557W        W10978   7.204  21.534  13.901
49558W        W10979   1.463  22.184  13.986
49559W        W10980  15.798  13.826   5.263
49560W        W10981  28.611  29.076  13.396
49561W        W10982  21.172  42.790  11.987
49562W        W10983  29.565  41.990   0.727
49563W        W10984  30.948  41.432   2.214
49564W        W10985  20.624  18.545  12.406
49565W        W10986  16.303   0.812  10.892
49566W        W10987  26.181  23.713   3.190
49567W        W10988   7.361  20.569  12.436
49568W        W10989   2.261  27.142   3.753
49569W        W10990  28.014   6.364   2.364
49570W        W10991  21.731  34.044  14.764
49571W        W10992  36.058  36.535   4.644
49572W        W10993   3.908  19.689  13.507
49573W        W10994   8.685  37.901   2.397
49574W        W10995   6.684  11.682   3.208
49575W        W10996   9.278   6.862  14.901
49576W        W10997   7.832  18.117  13.414
49577W        W10998   2.454   2.390  14.362
49578W        W10999  30.159  43.893  10.512
49579W        W11000  42.909  43.334   4.696
49580W        W11001  23.506   1.912   2.698
49581W        W11002  25.575  11.308   4.299
49582W        W11003   7.330  27.563  13.509
49583W        W11004  20.607  40.491   4.646
49584W        W11005  27.538  15.093  10.515
49585W        W11006  20.037  23.603   5.213
49586W        W11007   0.942   7.363   4.721
49587W        W11008  16.727   1.955  14.869
49588W        W11009   6.410  29.654  10.547
49589W        W11010  33.612  41.990   2.298
49590W        W11011  21.215  14.167   3.371
49591W        W11012  15.173  43.456   4.273
49592W        W11013  14.827  21.560  11.545
49593W        W11014  19.721   1.243  14.784
49594W        W11015  39.531   1.837  13.046
49595W        W11016   3.748  22.530  12.385
49596W        W11017  28.489   9.258  11.531
49597W        W11018  42.882  29.176   3.378
49598W        W11019   3.384  38.546  11.874
49599W        W11020  30.639  35.543   1.826
49600W        W11021  11.861  15.248   0.372
49601W        W11022  23.986   5.355  12.549
49602W        W11023  21.219  13.312  11.928
49603W        W11024  25.705  17.582   4.738
49604W        W11025   4.250  29.555  11.946
49605W        W11026  14.254  10.725   2.699
49606W        W11027  35.390   6.760  10.428
49607W        W11028   2.915  30.642   2.269
49608W        W11029  29.469  25.707  12.881
49609W        W11030  15.703  20.173  10.548
49610W        W11031  24.030  15.650   1.911
49611W        W11032  38.504   1.802  13.931
49612W        W11033  22.651   0.901  11.858
49613W        W11034  10.785  44.950  11.442
49614W        W11035  44.972  30.655   1.803
49615W        W11036  22.074  22.550  11.424
49616W        W11037   2.920  15.617  14.883
49617W        W11038  12.672  40.844  10.574
49618W        W11039   6.700   4.754   1.866
49619W        W11040   8.682  23.697  14.780
49620W        W11041  26.501   6.207  11.068
49621W        W11042  41.392  15.817  12.939
49622W        W11043  12.121   6.759   3.702
49623W        W11044  42.382   4.944   4.781
49624W        W11045  27.654  16.750   3.727
49625W        W11046  33.578  44.871   2.769
49626W        W11047  42.454   1.797  13.863
49627W        W11048  12.227  19.249  10.981
49628W        W11049  16.761  28.154  13.475
49629W        W11050  26.024  18.782  11.064
49630W        W11051  44.011  43.434  14.276
49631W        W11052  24.591  11.827  13.924
49632W        W11053  32.988  24.100  10.925
49633W        W11054  27.483  37.410   0.291
49634W        W11055  26.530  41.395   0.420
49635W        W11056  23.700   1.866   1.426
49636W        W11057  30.522  21.729   1.310
49637W        W11058  12.637  21.092   1.782
49638W        W11059  44.949  26.497   2.331
49639W        W11060  21.704  17.632   3.829
49640W        W11061  23.147  22.537  10.489
49641W        W11062  21.121  13.668   3.226
49642W        W11063  10.646  33.489   3.869
49643W        W11064   2.755   7.292  12.520
49644W        W11065  15.660  26.619   0.284
49645W        W11066  33.009  17.650   2.220
49646W        W11067  13.166  42.515   0.351
49647W        W11068  13.653  23.035   1.285
49648W        W11069  43.839  31.563  10.448
49649W        W11070  42.438  36.007   1.210
49650W        W11071   9.741  42.940   3.302
49651W        W11072  22.591   6.849   2.894
49652W        W11073  15.603  13.112  10.067
49653W        W11074  11.314   5.356   1.786
49654W        W11075   9.843   1.874   1.355
49655W        W11076  17.151  34.595   3.243
49656W        W11077  25.593   3.350  10.611
49657W        W11078  37.521   1.764   1.754
49658W        W11079  28.130  31.565   2.880
49659W        W11080   6.801  40.392   4.643
49660W        W11081   8.696   6.700  13.848
49661W        W11082   5.410  40.533   0.283
49662W        W11083   9.739   7.410   2.836
49663W        W11084  22.145   9.307   2.894
49664W        W11085   9.365  10.191  13.823
49665W        W11086  33.558   5.401   4.748
49666W        W11087  29.996  10.309   2.318
49667W        W11088  13.305   6.792  12.958
49668W        W11089  14.099  28.959   1.896
49669W        W11090  26.024   9.216   4.656
49670W        W11091  36.503  43.936  13.483
49671W        W11092   1.422  40.390   4.617
49672W        W11093  26.979  37.909  10.497
49673W        W11094  35.548  12.817   2.865
49674W        W11095  42.878  33.063   3.337
49675W        W11096  38.374  31.012   3.159
49676W        W11097  40.855  13.767   3.694
49677W        W11098  14.276  38.846   4.242
49678W        W11099  33.061  37.066  12.556
49679W        W11100  42.973   8.346   1.869
49680W        W11101  13.780  20.128  11.480
49681W        W11102  30.973  24.016  13.987
49682W        W11103  17.162  33.093  12.944
49683W        W11104  20.106   4.832   9.978
49684W        W11105  40.529  15.151   4.177
49685W        W11106  35.863  15.175   3.858
49686W        W11107   2.275  19.102   0.843
49687W        W11108  21.094  42.436  14.961
49688W        W11109  14.646  17.735   2.188
49689W        W11110  12.216  20.127  10.567
49690W        W11111  26.658  24.153  14.349
49691W        W11112  18.622  12.270   3.782
49692W        W11113  18.673  25.477  12.364
49693W        W11114  36.875   2.353   0.938
49694W        W11115  33.034   0.344  12.498
49695W        W11116  19.534   5.849  11.514
49696W        W11117  40.842  27.555   0.960
49697W        W11118  10.280  18.085  14.302
49698W        W11119  37.850  33.416   9.932
49699W        W11120  10.150  41.334   3.859
49700W        W11121  16.695  39.335  14.298
49701W        W11122  35.877   0.321  11.463
49702W        W11123  23.120   6.747   0.394
49703W        W11124   6.865  19.698  12.434
49704W        W11125  33.929  17.676  13.378
49705W        W11126   1.381   3.715   2.329
49706W        W11127  21.533   1.793   2.800
49707W        W11128  41.451  20.245   1.740
49708W        W11129  43.460  41.940   4.298
49709W        W11130  10.363  24.144  13.348
49710W        W11131   1.417  10.767  11.580
49711W        W11132  11.820  13.675   1.402
49712W        W11133   0.344  36.096   1.775
49713W        W11134  11.294   0.281   3.204
49714W        W11135  41.903  41.891  12.091
49715W        W11136  10.876  28.050  10.960
49716W        W11137  20.242  14.723   1.350
49717W        W11138  35.440  44.786  10.485
49718W        W11139   4.937  28.608  14.974
49719W        W11140  33.122   0.964  12.025
49720W        W11141   6.696  30.117  10.530
49721W        W11142   0.824  25.049   1.765
49722W        W11143   1.481  18.606  10.910
49723W        W11144  37.987  17.151   1.717
49724W        W11145  29.167  28.084   3.203
49725W        W11146  15.636  34.492   4.789
49726W        W11147   5.216   5.347   2.874
49727W        W11148  25.493  18.566   3.793
49728W        W11149  30.586  14.233  12.833
49729W        W11150  38.017  24.565   0.248
49730W        W11151  26.555  36.358   5.248
49731W        W11152  20.583  28.568   0.816
49732W        W11153  25.552  26.101   2.823
49733W        W11154  26.685  28.663  14.412
49734W        W11155   7.378  19.577   0.875
49735W        W11156  33.088   4.739  13.401
49736W        W11157  43.902  18.056   1.780
49737W        W11158   1.966  26.676   1.876
49738W        W11159  20.087  43.981  12.073
49739W        W11160  31.408  21.205  13.932
49740W        W11161  17.593  34.956   0.958
49741W        W11162  13.336  38.416   3.822
49742W        W11163   8.186  33.389  13.527
49743W        W11164  24.063  34.072   1.444
49744W        W11165   6.828  37.851  13.860
49745W        W11166  18.118  41.984   0.788
49746W        W11167  36.378  15.805   3.276
49747W        W11168  38.967  10.258  14.854
49748W        W11169  43.349   9.345   3.379
49749W        W11170   0.803  35.100   1.706
49750W        W11171  22.192  29.071   1.389
49751W        W11172  41.979  13.742   1.929
49752W        W11173  36.427   8.792   2.391
49753W        W11174   2.724   1.759  13.881
49754W        W11175   0.916  29.578  10.622
49755W        W11176  18.098  38.410   3.189
49756W        W11177  16.601  27.137   4.838
49757W        W11178  21.070   7.231   4.320
49758W        W11179  27.057   5.819  10.469
49759W        W11180  15.166  15.752   1.288
49760W        W11181  36.927  18.632   3.745
49761W        W11182  22.239  33.466  12.453
49762W        W11183  30.459   0.365   2.816
49763W        W11184  27.508  37.023  14.304
49764W        W11185   6.884  26.093  10.989
49765W        W11186   0.772  30.590   1.315
49766W        W11187  12.662   7.790   1.315
49767W        W11188   4.215  31.541   4.145
49768W        W11189  40.498   2.870   2.184
49769W        W11190  12.272   7.709  13.518
49770W        W11191  27.070  14.742   3.781
49771W        W11192  18.720  26.149   0.294
49772W        W11193  33.607   2.356   3.244
49773W        W11194  10.151  16.150  11.480
49774W        W11195  14.658  34.565  12.891
49775W        W11196  39.918  43.395   2.773
49776W        W11197  12.125  21.260   4.347
49777W        W11198  20.226  32.407  11.584
49778W        W11199  23.065   6.219   1.299
49779W        W11200   5.880  32.091  11.872
49780W        W11201  20.121  29.142   0.935
49781W        W11202  44.382  33.482   2.695
49782W        W11203  43.956  16.216  11.884
49783W        W11204  44.331  15.210  11.117
49784W        W11205  20.100  26.507   3.271
49785W        W11206  29.593  11.788  13.512
49786W        W11207  17.088  13.702  10.474
49787W        W11208   4.797  40.002   1.246
49788W        W11209  28.551   8.206   2.775
49789W        W11210  42.438  22.238  12.890
49790W        W11211  31.983  42.019  14.877
49791W        W11212  21.138  17.614  12.048
49792W        W11213  34.916  40.335   1.375
49793W        W11214  36.397   2.956  12.362
49794W        W11215  38.028  10.270  11.422
49795W        W11216  13.110  16.312  10.406
49796W        W11217   2.384  40.954   3.379
49797W        W11218   7.689  37.919   0.295
49798W        W11219  14.330  11.699  14.760
49799W        W11220   5.724  20.039  11.998
49800W        W11221  30.414  17.558   1.815
49801W        W11222  18.728  21.594   2.693
49802W        W11223   5.885   2.754  14.760
49803W        W11224  13.685  34.893  12.041
49804W        W11225  23.092   4.370   3.856
49805W        W11226   5.343  13.664  12.364
49806W        W11227  17.159   1.739   4.349
49807W        W11228  35.917  34.944  12.917
49808W        W11229   7.858  30.445   4.627
49809W        W11230   7.334  11.372   1.930
49810W        W11231   9.177  37.022   2.178
49811W        W11232  36.051   4.890  14.481
49812W        W11233  18.221  29.626   3.355
49813W        W11234  29.920  36.346  14.924
49814W        W11235   3.840  23.120   4.135
49815W        W11236  38.023  42.885  10.504
49816W        W11237  21.743  14.151   1.399
49817W        W11238  24.567  28.142  11.406
49818W        W11239   6.760  42.794  11.119
49819W        W11240  28.679   0.843   1.777
49820W        W11241  27.612  37.467   2.761
49821W        W11242  12.695  21.515   4.709
49822W        W11243  19.534  39.335   0.872
49823W        W11244   7.176  10.687   2.352
49824W        W11245  36.016  26.645   3.661
49825W        W11246  44.808   5.375   3.863
49826W        W11247  18.123  26.099   1.758
49827W        W11248  10.244  38.492   0.346
49828W        W11249  36.085   4.264  13.431
49829W        W11250   8.695  29.478  12.510
49830W        W11251  26.042  39.823   3.830
49831W        W11252  20.627  42.836  12.906
49832W        W11253  43.446  44.937  10.461
49833W        W11254  44.972  35.489  12.381
49834W        W11255  11.817   1.763   2.324
49835W        W11256  23.998   3.771   2.886
49836W        W11257  11.805  40.358   5.149
49837W        W11258  15.602  26.060  14.922
49838W        W11259  16.202  22.520  10.512
49839W        W11260  34.977  35.894   3.786
49840W        W11261  42.906  43.993   3.811
49841W        W11262  28.623  44.376   4.259
49842W        W11263  37.892  26.475  11.609
49843W        W11264  29.586  24.976  12.424
49844W        W11265   8.384  41.341   1.811
49845W        W11266  10.825   9.251  14.392
49846W        W11267  13.304  38.390  11.560
49847W        W11268   1.321   2.736   0.437
49848W        W11269  26.516  15.643   0.828
49849W        W11270  43.452  22.240   1.394
49850W        W11271  39.992  38.407   2.739
49851W        W11272  41.034  41.799   3.240
49852W        W11273  16.603  18.120   1.824
49853W        W11274  26.622  14.278   2.250
49854W        W11275   1.759  15.298  12.448
49855W        W11276   9.771   2.337   2.744
49856W        W11277   5.916  35.530   0.438
49857W        W11278  10.817  33.380  11.003
49858W        W11279  27.979  30.918   3.736
49859W        W11280  31.596  19.580   0.405
49860W        W11281  24.670  32.896  14.914
49861W        W11282  15.767  42.775  12.545
49862W        W11283  37.056  37.539   4.766
49863W        W11284  40.844  28.013  12.354
49864W        W11285  14.123   3.367  13.384
49865W        W11286  31.018   6.187   5.113
49866W        W11287  18.226  43.984   2.271
49867W        W11288  36.347  12.773   0.320
49868W        W11289   8.321  29.476  12.920
49869W        W11290  44.848   1.840  11.117
49870W        W11291  23.191  27.575   3.632
49871W        W11292  42.847  39.970   0.805
49872W        W11293   3.755  33.947   3.708
49873W        W11294   1.265  37.084  14.932
49874W        W11295  34.609  40.345  10.643
49875W        W11296  10.776  37.393   5.250
49876W        W11297  28.440  16.616   3.763
49877W        W11298  21.687  11.701   3.255
49878W        W11299  10.749  31.002  13.501
49879W        W11300  16.683   8.808  11.885
49880W        W11301  12.698  35.108   0.350
49881W        W11302  26.045  26.630   1.731
49882W        W11303  11.850  35.073  13.502
49883W        W11304  43.971  26.513  14.797
49884W        W11305   0.300  14.789  12.004
49885W        W11306  28.987  20.742  13.901
49886W        W11307   5.203  34.878   1.914
49887W        W11308  23.646  37.544  14.443
49888W        W11309   9.185  18.224  14.026
49889W        W11310  30.940   6.241  13.472
49890W        W11311  42.468  15.229   3.719
49891W        W11312  42.362  13.336  14.503
49892W        W11313  44.783  31.555  12.949
49893W        W11314  32.590  15.147  14.931
49894W        W11315  17.567  43.361  11.562
49895W        W11316  31.619   2.389   1.762
49896W        W11317  23.990  41.026   1.394
49897W        W11318  32.573  31.445   3.662
49898W        W11319  42.389  22.006  14.416
49899W        W11320  31.502  31.027  14.390
49900W        W11321  32.112  39.345   2.770
49901W        W11322  15.729  12.790  10.923
49902W        W11323  33.557   9.191  12.487
49903W        W11324   6.187   3.362  11.025
49904W        W11325  41.452   5.212   2.890
49905W        W11326  21.260  39.980   1.408
49906W        W11327  26.101  37.373  12.038
49907W        W11328  18.215  12.165  12.481
49908W        W11329  17.665   2.262   2.212
49909W        W11330  14.292  41.392  13.905
49910W        W11331   0.903  42.473  11.557
49911W        W11332  34.515  21.047   0.928
49912W        W11333  37.031   1.977   5.176
49913W        W11334  12.661  19.575   1.237
49914W        W11335  23.610  20.202  13.439
49915W        W11336  28.068  29.954  14.917
49916W        W11337  21.060  34.050  10.897
49917W        W11338  27.007  38.895  13.825
49918W        W11339  19.593  43.904  14.450
49919W        W11340  16.102  33.512  11.449
49920W        W11341  13.206   9.388  11.959
49921W        W11342  39.417  41.932   4.258
49922W        W11343  41.509  12.809  14.324
49923W        W11344  20.160  40.346  11.118
49924W        W11345   4.311  19.192  14.882
49925W        W11346  19.116  39.367  13.856
49926W        W11347  19.535  26.677  12.424
49927W        W11348  26.991   3.306  11.952
49928W        W11349  23.223  32.060   0.468
49929W        W11350  33.452  21.050   1.836
49930W        W11351  32.001   0.363   5.196
49931W        W11352  18.590  20.255  10.590
49932W        W11353   5.791  34.038  11.945
49933W        W11354  16.134   7.790  14.012
49934W        W11355  40.546  15.223   2.703
49935W        W11356  16.094  43.302  13.827
49936W        W11357   4.916   9.887  12.006
49937W        W11358  17.251   0.391   3.365
49938W        W11359  24.213  15.579   2.391
49939W        W11360  38.998   7.376   1.851
49940W        W11361  20.109  30.032   1.372
49941W        W11362  27.678  27.962   4.603
49942W        W11363  24.068  41.024  14.277
49943W        W11364  43.805  13.111  13.448
49944W        W11365  19.639  21.027  14.476
49945W        W11366  30.517  34.050  14.026
49946W        W11367  42.282   9.764  12.460
49947W        W11368  34.871  21.095   3.202
49948W        W11369   1.763  44.341   0.791
49949W        W11370  39.854  12.259   4.813
49950W        W11371  31.441  30.036   2.840
49951W        W11372  19.625  17.633   0.322
49952W        W11373  14.654   9.153  14.814
49953W        W11374  13.823  25.519  11.898
49954W        W11375   4.439  27.458   2.785
49955W        W11376  36.366  36.982  11.556
49956W        W11377  38.004  11.805  10.546
49957W        W11378  17.722  26.047  12.369
49958W        W11379  23.109   8.846  12.967
49959W        W11380  21.605  44.301   4.276
49960W        W11381  42.367  15.302  12.500
49961W        W11382  10.292  43.280   0.749
49962W        W11383  43.976   0.827  14.824
49963W        W11384  42.353  37.384  12.025
49964W        W11385  11.847   2.458   2.371
49965W        W11386  43.820  28.074   4.235
49966W        W11387  24.556  44.328  11.116
49967W        W11388  40.362  14.658  13.310
49968W        W11389  24.616  41.022  13.005
49969W        W11390  37.429   3.927  14.355
49970W        W11391  28.116  32.117   0.799
49971W        W11392  31.462   7.678   0.399
49972W        W11393  40.842   4.310   4.704
49973W        W11394   6.187  42.989   2.307
49974W        W11395   0.766  10.173   2.302
49975W        W11396  30.909  23.003   2.350
49976W        W11397  21.751  33.457   4.832
49977W        W11398  33.121  21.513   1.714
49978W        W11399  30.418   6.365  10.896
49979W        W11400  13.113  39.317   3.684
49980W        W11401  25.708   4.708   0.461
49981W        W11402  15.630  44.881  10.951
49982W        W11403  36.454  42.988  12.958
49983W        W11404  17.078   7.849   1.385
49984W        W11405   8.870  35.413   3.169
49985W        W11406  39.998  27.520  11.023
49986W        W11407  34.536  19.072   4.816
49987W        W11408  34.533  38.460   4.187
49988W        W11409   7.795  40.359   1.871
49989W        W11410  14.597   6.830   3.869
49990W        W11411  18.546  29.979  14.436
49991W        W11412  27.504  44.338  12.995
49992W        W11413  43.274  21.740   3.257
49993W        W11414  37.510  35.021  11.989
49994W        W11415  16.145  28.575   4.260
49995W        W11416  15.267  37.839  13.504
49996W        W11417   3.846  33.414   1.831
49997W        W11418  27.684   2.425  13.439
49998W        W11419  43.912  39.860  14.997
49999W        W11420  18.153  23.045   0.896
50000W        W11421  44.944  29.061  13.885
50001W        W11422  23.104  14.809   4.214
50002W        W11423   1.394  39.541  13.532
50003W        W11424   6.851  35.474   2.693
50004W        W11425  35.516  44.465   0.436
50005W        W11426  44.307  38.470  11.024
50006W        W11427   1.795   7.301  13.347
50007W        W11428   8.273  17.145   1.718
50008W        W11429  18.761  37.452   1.292
50009W        W11430  13.790   7.382  10.616
50010W        W11431  29.654  30.511  14.805
50011W        W11432  44.287  22.104  12.451
50012W        W11433   0.411   8.385  11.856
50013W        W11434   4.254  24.134   1.210
50014W        W11435  30.962  40.809   0.962
50015W        W11436  20.614  42.472  10.412
50016W        W11437  15.144   2.458   1.239
50017W        W11438  30.038  41.496   1.226
50018W        W11439  24.502   2.263  13.367
50019W        W11440  10.169  32.073   1.416
50020W        W11441   7.709  19.673   4.258
50021W        W11442  30.644  26.201   2.183
50022W        W11443  23.687  10.690   4.731
50023W        W11444  28.953  24.104   3.296
50024W        W11445   5.850  39.393  13.796
50025W        W11446  38.370   7.244   0.926
50026W        W11447  32.111   1.384   2.831
50027W        W11448  37.428  37.513   0.832
50028W        W11449   3.814  19.676   9.972
50029W        W11450  41.970  26.206  11.938
50030W        W11451  20.756  41.957  10.571
50031W        W11452  31.970  36.582  13.353
50032W        W11453  26.998  20.197  14.298
50033W        W11454  15.221  23.220  14.413
50034W        W11455  38.855  18.574   1.813
50035W        W11456  36.009  41.473   1.297
50036W        W11457   7.311  29.162  13.453
50037W        W11458  43.353  38.916   2.819
50038W        W11459   6.191  22.645  14.850
50039W        W11460  11.664  38.940  14.978
50040W        W11461  20.683  36.450  13.312
50041W        W11462   3.773  24.517  13.046
50042W        W11463  33.537   1.440  14.826
50043W        W11464   6.337  28.499  10.559
50044W        W11465  11.723   0.268  13.824
50045W        W11466  14.227  28.669   4.710
50046W        W11467  17.137  20.216   1.369
50047W        W11468  34.871  14.800   3.648
50048W        W11469  37.056   4.910   5.302
50049W        W11470  20.196  31.086   4.188
50050W        W11471  23.730  15.619   4.801
50051W        W11472  38.369  17.758   4.322
50052W        W11473  34.581  23.671   3.653
50053W        W11474  43.483  27.193   3.337
50054W        W11475   0.934  18.223  14.421
50055W        W11476  12.331  23.066  13.843
50056W        W11477   1.819  17.559   0.869
50057W        W11478  22.537  10.753  11.576
50058W        W11479  44.868  14.235   5.110
50059W        W11480   4.333  13.782  13.891
50060W        W11481   4.362  43.420  11.943
50061W        W11482  36.897  27.941   2.282
50062W        W11483   5.788  16.258  13.900
50063W        W11484  24.054  16.636   2.366
50064W        W11485  19.093  26.966  13.326
50065W        W11486  13.223  18.672  13.438
50066W        W11487  36.510  40.498   2.200
50067W        W11488   6.728  13.769   2.786
50068W        W11489  29.083   0.346  12.472
50069W        W11490  11.251   0.922  11.126
50070W        W11491   1.831   1.428  12.503
50071W        W11492  14.296   5.826  14.812
50072W        W11493  32.520  23.129   2.394
50073W        W11494  16.084  22.143   4.288
50074W        W11495  32.534   5.259   4.795
50075W        W11496  15.138  25.516   3.822
50076W        W11497  16.306  14.657  10.057
50077W        W11498  24.229  32.451   3.783
50078W        W11499   2.354  34.452   2.287
50079W        W11500   8.805  26.153   3.321
50080W        W11501  42.987  42.877   4.734
50081W        W11502  27.022   7.784  14.811
50082W        W11503  40.307  41.312  13.486
50083W        W11504  38.946  32.529  14.313
50084W        W11505  10.179  33.391   2.771
50085W        W11506  41.891   0.819   4.180
50086W        W11507   0.429  27.995   3.370
50087W        W11508  22.998  14.199   0.271
50088W        W11509   0.448   8.269  14.298
50089W        W11510   8.316  16.612   3.345
50090W        W11511  30.053  20.660   4.623
50091W        W11512   1.465  24.500   2.839
50092W        W11513   1.280  16.236  12.562
50093W        W11514  38.885  10.145   2.668
50094W        W11515   0.793  13.804   1.323
50095W        W11516  21.742  35.449   2.784
50096W        W11517  30.461  26.518  14.356
50097W        W11518   0.778  16.299  12.868
50098W        W11519  23.146  39.485   1.272
50099W        W11520  12.696   6.850   4.208
50100W        W11521   5.304  27.005   9.530
50101W        W11522   6.890  30.482   1.256
50102W        W11523   1.952  20.059  11.612
50103W        W11524  37.578   5.911   1.423
50104W        W11525  40.985  19.174   1.441
50105W        W11526   0.406   7.872   0.384
50106W        W11527  35.598  26.560  10.621
50107W        W11528  28.445  25.577  14.908
50108W        W11529  44.853  32.398   4.616
50109W        W11530   8.754  40.011   2.783
50110W        W11531  29.596  40.351   4.201
50111W        W11532  41.805  27.040   2.301
50112W        W11533  26.480  35.464   2.394
50113W        W11534   6.825  44.494   1.897
50114W        W11535  43.824  38.986  13.339
50115W        W11536  42.509  22.122   4.657
50116W        W11537  18.787  23.589   1.407
50117W        W11538  28.161  39.449   3.220
50118W        W11539  35.922  18.070  12.989
50119W        W11540  37.079  20.255   2.680
50120W        W11541  41.790  22.602   2.321
50121W        W11542  12.303   1.903   0.440
50122W        W11543   2.947  34.922  11.527
50123W        W11544  26.476  42.992  13.879
50124W        W11545  28.667  30.049  11.073
50125W        W11546   6.730  38.481   5.619
50126W        W11547  35.862  24.976  11.399
50127W        W11548   2.426   5.284  14.368
50128W        W11549   4.742  35.010   4.733
50129W        W11550  44.927  40.837   2.238
50130W        W11551  26.506  20.709   4.605
50131W        W11552  17.741  11.709   4.194
50132W        W11553  42.939  33.409  12.953
50133W        W11554   1.263   8.254   0.888
50134W        W11555   1.242  29.062   1.229
50135W        W11556   4.371  14.159  14.307
50136W        W11557  12.847  31.019   0.451
50137W        W11558  39.871  29.637   2.310
50138W        W11559  18.597  23.647  13.792
50139W        W11560  21.547  31.037   2.260
50140W        W11561  28.633  35.385  12.025
50141W        W11562  29.538  39.371   0.849
50142W        W11563  28.153  38.853  12.027
50143W        W11564  16.201  16.792  12.902
50144W        W11565  42.406  28.163  10.520
50145W        W11566  16.130  39.454   1.703
50146W        W11567  34.874  40.805   1.868
50147W        W11568  18.194  22.516  11.570
50148W        W11569  24.183   5.259  13.930
50149W        W11570  41.787  37.350   2.197
50150W        W11571  29.646   2.458   3.267
50151W        W11572  27.656  30.573   4.195
50152W        W11573  29.492   3.272   1.853
50153W        W11574  38.074  20.663  13.423
50154W        W11575   7.883   2.310  13.413
50155W        W11576  39.920  42.897  13.317
50156W        W11577  27.160   0.914   1.892
50157W        W11578  15.703  12.756  14.463
50158W        W11579  10.859  16.222   3.197
50159W        W11580  17.156  24.480   3.834
50160W        W11581  20.569  10.838   2.853
50161W        W11582  17.295  22.556   1.369
50162W        W11583  32.421  17.711   2.203
50163W        W11584   8.169  42.452  14.920
50164W        W11585  44.332  42.976   1.388
50165W        W11586  28.581  42.430   0.947
50166W        W11587  44.265   7.184  10.962
50167W        W11588  44.423  40.449   3.823
50168W        W11589  38.886  29.952  13.981
50169W        W11590   2.384  31.579   3.147
50170W        W11591  13.733  18.097   0.850
50171W        W11592  27.981  39.405  11.110
50172W        W11593  30.517   0.759   2.868
50173W        W11594   9.385   3.912   1.747
50174W        W11595  40.004  28.589  13.013
50175W        W11596  15.131  25.973   2.413
50176W        W11597  44.780  12.775   1.270
50177W        W11598  21.544  26.515   1.418
50178W        W11599  18.156  40.423   2.871
50179W        W11600  10.167   1.746   4.124
50180W        W11601   2.243  38.458  10.425
50181W        W11602   9.362  34.401   5.246
50182W        W11603  30.603  33.025   4.739
50183W        W11604  16.104  35.428   4.600
50184W        W11605  27.559  44.371   4.294
50185W        W11606  27.604   0.402  13.383
50186W        W11607  20.710   0.807  13.848
50187W        W11608  21.593   7.889  10.953
50188W        W11609  31.950  15.152   3.366
50189W        W11610   0.838  32.544   1.741
50190W        W11611   3.358  17.624   0.407
50191W        W11612   0.432   8.748  14.829
50192W        W11613  25.186  41.357  14.994
50193W        W11614  21.564  11.211  12.574
50194W        W11615  14.246  44.388   0.920
50195W        W11616  27.146  33.079   0.330
50196W        W11617  18.065  26.984  11.485
50197W        W11618  14.237  32.027   0.422
50198W        W11619  20.703  28.985  12.914
50199W        W11620  23.217  10.229  11.509
50200W        W11621   6.869  17.637   1.324
50201W        W11622  19.126  27.012  11.541
50202W        W11623  34.399  38.969   2.871
50203W        W11624  25.689   0.459  13.959
50204W        W11625  25.557   8.856  11.991
50205W        W11626  16.155  11.203  12.368
50206W        W11627  43.388  38.551  13.323
50207W        W11628  17.278  21.545  12.420
50208W        W11629  10.854  42.841   1.799
50209W        W11630  38.326   1.824  12.393
50210W        W11631  16.723  23.166  14.883
50211W        W11632  35.106  10.200  10.130
50212W        W11633  26.112  19.092  14.902
50213W        W11634   0.874  14.721   0.318
50214W        W11635  16.687   3.356   4.355
50215W        W11636  30.506   0.750   3.637
50216W        W11637  16.768  12.796   3.821
50217W        W11638  24.523  12.831  13.349
50218W        W11639  11.830  21.179  10.568
50219W        W11640  38.852  38.473  13.492
50220W        W11641   1.354   2.933   3.334
50221W        W11642  33.128   1.938   9.535
50222W        W11643  31.447  25.498  10.914
50223W        W11644   4.370  26.662  12.549
50224W        W11645  35.997  42.432  14.993
50225W        W11646  19.093  26.559   4.721
50226W        W11647   9.839  16.202   1.362
50227W        W11648  36.925  44.481   4.789
50228W        W11649   0.928  38.363   4.628
50229W        W11650  25.972  23.999  11.067
50230W        W11651  21.198  38.345   2.730
50231W        W11652   4.209  12.207  12.450
50232W        W11653  42.371   8.666   1.811
50233W        W11654  18.707  25.605  14.514
50234W        W11655   8.841  28.643   4.808
50235W        W11656  29.132  31.015  13.049
50236W        W11657   2.767  23.028  10.895
50237W        W11658  44.355  12.847   3.665
50238W        W11659   2.734   6.227   4.652
50239W        W11660  38.076  12.175  13.904
50240W        W11661  16.633   6.199   0.957
50241W        W11662   1.291  19.673  10.450
50242W        W11663  13.285  42.817   5.280
50243W        W11664  20.620  25.199   4.137
50244W        W11665  13.741  33.534   3.357
50245W        W11666  31.576  18.176  14.301
50246W        W11667   7.409   1.343   1.450
50247W        W11668  12.274  13.726  11.402
50248W        W11669  31.521  24.667   0.364
50249W        W11670  25.198  33.129  14.329
50250W        W11671   1.975  18.080  13.433
50251W        W11672  24.642  36.901  10.974
50252W        W11673   3.787  20.523   4.113
50253W        W11674  35.423   1.919  14.861
50254W        W11675  39.932   4.790   4.253
50255W        W11676   7.354   2.774  13.913
50256W        W11677  30.017  35.387  14.816
50257W        W11678  19.099  19.775  10.584
50258W        W11679   7.867   5.356   4.641
50259W        W11680  21.576  27.040   4.701
50260W        W11681  18.058  13.630  14.325
50261W        W11682  21.024  18.621  11.026
50262W        W11683  27.446  42.995  14.884
50263W        W11684   2.835  12.184  14.013
50264W        W11685   6.882  31.433  10.480
50265W        W11686  40.029   1.865   2.210
50266W        W11687  35.957  17.209   4.772
50267W        W11688  11.733  43.917  12.983
50268W        W11689   3.264  13.828   4.791
50269W        W11690  39.394  22.663   4.601
50270W        W11691  18.544  13.237   1.237
50271W        W11692  44.773   0.317  14.020
50272W        W11693   4.362   4.737  10.991
50273W        W11694  37.045  29.020  14.391
50274W        W11695  16.696  12.172  14.792
50275W        W11696  43.286  19.215   3.200
50276W        W11697   4.925   7.864  13.001
50277W        W11698   6.384  40.972   0.908
50278W        W11699  37.846   0.349   1.727
50279W        W11700  11.851   0.933   0.804
50280W        W11701  13.663   3.249   0.311
50281W        W11702   7.912  33.576   0.251
50282W        W11703  20.046   4.282   0.825
50283W        W11704  16.204  10.241   3.299
50284W        W11705  28.568  35.937  14.416
50285W        W11706   0.890  19.555  13.404
50286W        W11707  23.066   3.836   3.188
50287W        W11708   1.868   6.881   3.178
50288W        W11709  24.213  12.311  14.370
50289W        W11710  10.264  31.053   3.209
50290W        W11711  26.493   2.436  11.898
50291W        W11712  31.915   2.935  13.416
50292W        W11713   2.366  23.987  14.483
50293W        W11714   2.909  27.530   2.394
50294W        W11715  15.274  21.669   3.256
50295W        W11716  36.566  26.030   3.676
50296W        W11717  21.731   1.879  11.067
50297W        W11718  21.635   2.780  11.106
50298W        W11719   6.409  36.926  10.967
50299W        W11720   2.232  21.639   4.188
50300W        W11721  16.083  21.157   0.335
50301W        W11722  27.014  17.239  10.128
50302W        W11723  36.852   5.269  11.029
50303W        W11724   3.386  34.923   2.223
50304W        W11725  39.432  32.993   2.224
50305W        W11726  13.799   0.486  11.454
50306W        W11727  32.046  35.083   1.354
50307W        W11728  30.621  11.644   3.662
50308W        W11729   9.254  33.877   2.321
50309W        W11730   7.785  28.020  10.101
50310W        W11731  23.070   6.834   3.747
50311W        W11732  37.527  35.532   3.372
50312W        W11733  44.459  20.543  14.936
50313W        W11734  12.316   2.397  11.441
50314W        W11735  33.049   8.172  12.899
50315W        W11736   6.911  14.339  13.858
50316W        W11737  19.655  34.463  12.424
50317W        W11738  41.856   9.186   0.364
50318W        W11739   1.398   9.201   2.744
50319W        W11740  31.630   2.307  12.866
50320W        W11741  44.985   8.308   4.699
50321W        W11742   9.713   2.454   0.291
50322W        W11743  17.565  44.354  13.357
50323W        W11744  34.945  31.946   0.752
50324W        W11745  39.948  30.944  14.856
50325W        W11746  16.276  34.402  11.928
50326W        W11747  42.354  25.043  11.978
50327W        W11748  44.781  43.997   3.782
50328W        W11749  43.510  18.236  12.912
50329W        W11750  21.031  23.705   0.817
50330W        W11751  36.435  38.030   1.893
50331W        W11752   3.378  38.909  13.891
50332W        W11753  30.031  36.518   3.686
50333W        W11754  29.516   7.852  12.828
50334W        W11755   5.838  41.025  13.829
50335W        W11756  21.645  29.453   0.274
50336W        W11757  25.693  32.002   2.195
50337W        W11758  37.497   3.929   0.829
50338W        W11759   7.873   3.437  12.576
50339W        W11760  36.420  40.834  14.908
50340W        W11761   1.283  42.956  13.866
50341W        W11762  26.987  27.606  10.533
50342W        W11763   9.296  37.001   4.812
50343W        W11764  28.675  13.673  14.848
50344W        W11765  18.685  25.607   1.221
50345W        W11766  24.520   0.754  11.895
50346W        W11767  44.906  35.957   2.241
50347W        W11768  43.403  13.818   4.747
50348W        W11769  35.080   7.842   1.377
50349W        W11770  39.521  26.524   3.641
50350W        W11771  40.413  11.794  14.883
50351W        W11772  26.535  29.495   2.874
50352W        W11773   8.229   5.221  11.505
50353W        W11774  34.601  28.463  10.546
50354W        W11775  11.257  11.356  12.997
50355W        W11776  32.043  23.003   3.840
50356W        W11777   5.913  40.468  12.998
50357W        W11778  43.333   6.252   0.355
50358W        W11779  10.683  16.163  13.513
50359W        W11780  42.883  15.155  14.348
50360W        W11781  28.040  28.462  10.954
50361W        W11782  11.702  17.597  11.612
50362W        W11783  19.115  44.414  14.984
50363W        W11784  31.556   4.809   1.295
50364W        W11785  26.969  16.250   0.792
50365W        W11786  10.149  31.047  14.896
50366W        W11787  15.232  28.089  12.866
50367W        W11788  21.183  34.877  13.382
50368W        W11789   1.882  14.615   0.948
50369W        W11790  26.057  33.398   3.234
50370W        W11791  29.089  44.916   2.262
50371W        W11792   5.703  17.112   3.281
50372W        W11793  28.095  13.272  12.895
50373W        W11794   8.827  31.049  11.611
50374W        W11795  19.222  12.717   5.193
50375W        W11796  19.165  44.436  11.381
50376W        W11797   0.772  37.368   4.128
50377W        W11798   4.308  28.512  11.447
50378W        W11799  17.634  36.477  10.439
50379W        W11800   6.301  39.940  11.004
50380W        W11801  24.721  17.655   4.210
50381W        W11802   9.272  12.305   3.769
50382W        W11803  37.972  27.183   0.352
50383W        W11804  23.098  42.435  12.061
50384W        W11805  41.513  39.470  14.973
50385W        W11806  30.568  17.098  12.085
50386W        W11807  17.631  37.906  13.988
50387W        W11808  20.031  25.500  14.027
50388W        W11809  25.176  19.133  14.457
50389W        W11810  18.099  14.591  14.497
50390W        W11811  29.993   8.207   2.395
50391W        W11812  20.163  24.047   0.268
50392W        W11813  15.644  28.944  12.909
50393W        W11814  40.530   5.777   0.833
50394W        W11815  40.972  35.031   1.793
50395W        W11816  42.345   4.396  10.936
50396W        W11817  40.869  37.482   2.331
50397W        W11818  17.577  11.635   2.211
50398W        W11819  31.012  26.572   5.130
50399W        W11820   1.813  17.142   5.226
50400W        W11821  43.845  28.099  11.607
50401W        W11822  24.016  20.184  11.384
50402W        W11823   0.808   9.696  10.478
50403W        W11824  16.227  22.076   1.848
50404W        W11825  39.355  12.729   3.370
50405W        W11826  11.295  41.798   3.755
50406W        W11827  16.727  24.665  11.601
50407W        W11828  20.275  40.314  12.430
50408W        W11829   1.436  39.933  11.873
50409W        W11830  10.190   8.260  13.474
50410W        W11831   3.802  24.567  12.052
50411W        W11832  12.216  14.232  10.489
50412W        W11833  33.024  23.198   3.683
50413W        W11834  20.690  23.671   1.230
50414W        W11835  32.087  22.202  13.352
50415W        W11836  34.047   7.250  13.882
50416W        W11837  12.686  20.659  13.428
50417W        W11838  27.486  10.279  13.795
50418W        W11839  24.078   3.264  13.977
50419W        W11840  44.340  23.060  13.057
50420W        W11841   5.914   4.227   0.945
50421W        W11842  25.621   5.392  11.007
50422W        W11843   3.900  12.614  11.917
50423W        W11844   6.740  20.693  13.351
50424W        W11845  35.089  27.609   1.873
50425W        W11846  26.534  14.181   0.737
50426W        W11847  42.371  37.020   2.759
50427W        W11848  15.252  21.221   0.308
50428W        W11849  30.628  17.676  14.963
50429W        W11850  30.540  27.464  11.872
50430W        W11851  20.059  42.420  14.373
50431W        W11852  12.132  22.102  10.506
50432W        W11853  30.542  26.045   3.799
50433W        W11854   0.410  35.097  11.467
50434W        W11855  23.576  42.845   0.769
50435W        W11856   3.291  33.961  13.315
50436W        W11857  44.266  26.118  11.437
50437W        W11858  17.112  16.116   2.714
50438W        W11859  31.631  41.796   1.706
50439W        W11860  20.078  17.700  14.451
50440W        W11861   3.790  22.109   3.169
50441W        W11862  15.608  10.856   3.774
50442W        W11863  13.134  25.708  12.516
50443W        W11864  10.784   9.374   2.788
50444W        W11865  18.672  26.659   2.754
50445W        W11866  33.881  29.594   2.713
50446W        W11867   1.846  28.607  14.868
50447W        W11868  40.828  27.069  13.038
50448W        W11869  27.160   7.318   4.668
50449W        W11870  12.247   2.459   1.360
50450W        W11871  22.718  18.752   3.869
50451W        W11872  17.161   2.471  14.913
50452W        W11873  26.462  32.892   0.356
50453W        W11874   8.405  21.544   1.709
50454W        W11875  18.732  16.310  10.449
50455W        W11876  16.663  12.317   2.346
50456W        W11877  39.556  24.614  13.418
50457W        W11878   5.898   2.255  13.539
50458W        W11879  41.886  36.884  12.926
50459W        W11880  37.488   0.433   2.408
50460W        W11881  11.220  12.290   1.883
50461W        W11882  38.476  12.137   2.805
50462W        W11883   7.289  43.493   4.190
50463W        W11884   0.851  26.168   1.431
50464W        W11885  22.060  16.120   4.825
50465W        W11886  34.451  14.597  13.516
50466W        W11887  34.894  25.484  12.478
50467W        W11888  41.025   5.848   2.879
50468W        W11889   3.216   0.396   3.698
50469W        W11890   8.290  29.144   4.184
50470W        W11891   7.852  27.466   3.630
50471W        W11892   7.891  36.984   0.367
50472W        W11893  21.112  44.505   1.348
50473W        W11894  44.327  36.983  14.365
50474W        W11895  26.023  25.033  11.893
50475W        W11896  24.650  36.032  11.895
50476W        W11897  13.764  39.001  11.070
50477W        W11898  14.098  44.999  12.004
50478W        W11899   5.890  28.939   2.363
50479W        W11900  38.927  44.424   1.286
50480W        W11901  34.412  38.473   2.253
50481W        W11902  27.961  40.929   4.782
50482W        W11903  21.709  14.660  13.969
50483W        W11904  25.091   1.883  11.397
50484W        W11905  10.219  43.828  10.085
50485W        W11906  19.594  12.793  12.489
50486W        W11907   4.907  39.320  13.881
50487W        W11908  37.979  25.135   3.758
50488W        W11909   8.219   6.208   4.212
50489W        W11910  41.387  21.562  11.917
50490W        W11911  22.130  29.018   0.735
50491W        W11912  18.166  17.791  13.865
50492W        W11913  14.640  10.352   9.946
50493W        W11914   2.308  24.137   2.193
50494W        W11915   8.667  29.437   5.242
50495W        W11916   1.407  44.417  14.852
50496W        W11917  40.312  25.662  13.450
50497W        W11918   7.178  17.124   1.809
50498W        W11919  36.585  12.139  12.563
50499W        W11920  32.571  32.491   3.325
50500W        W11921   0.805   6.350   4.126
50501W        W11922  39.986  15.319   2.736
50502W        W11923  22.176  22.578   2.872
50503W        W11924   9.175  17.607   0.739
50504W        W11925  40.968  28.068   2.398
50505W        W11926  23.142  15.705   0.363
50506W        W11927  33.109  31.039  10.895
50507W        W11928  14.649   1.402  12.463
50508W        W11929  40.546  12.710  10.613
50509W        W11930  25.513  30.655  14.019
50510W        W11931   9.304  11.847  12.080
50511W        W11932  44.003  29.053   2.260
50512W        W11933  14.217   6.691  12.031
50513W        W11934  38.030  42.523   1.822
50514W        W11935  24.596  39.489  13.343
50515W        W11936  21.043  35.880  10.018
50516W        W11937   5.234  37.578   2.416
50517W        W11938  25.656  28.137   1.253
50518W        W11939  38.395  23.016  14.409
50519W        W11940  10.235  25.501   2.866
50520W        W11941  27.593  32.438   2.327
50521W        W11942   9.785   9.331   1.800
50522W        W11943   9.213  11.223   4.598
50523W        W11944  39.383  16.759  10.995
50524W        W11945  32.454  26.549  11.084
50525W        W11946  42.818  29.605   4.330
50526W        W11947  17.778  31.966   3.754
50527W        W11948   9.664  12.242  13.894
50528W        W11949   0.400  39.520  11.957
50529W        W11950   4.426  32.545  11.871
50530W        W11951  39.829  33.917  11.942
50531W        W11952  21.722  13.827  10.984
50532W        W11953  17.607  27.123  13.907
50533W        W11954  30.922  23.063  14.298
50534W        W11955   5.706  26.012   1.334
50535W        W11956  21.757  44.827  12.017
50536W        W11957  18.260  32.056  13.387
50537W        W11958  15.702  11.333   0.884
50538W        W11959  23.527  21.081  13.064
50539W        W11960   2.737  39.854  14.319
50540W        W11961  33.442  31.910  12.422
50541W        W11962  33.949  41.852   2.200
50542W        W11963  22.109   5.236  14.845
50543W        W11964  25.079  12.222  14.828
50544W        W11965  36.964   7.386   4.636
50545W        W11966  36.564  39.493  11.051
50546W        W11967  29.125  41.335   1.363
50547W        W11968  15.310  43.021  11.081
50548W        W11969  28.650  12.164  12.496
50549W        W11970  24.049  39.968   4.621
50550W        W11971  31.551   0.938  11.529
50551W        W11972  24.605   5.724  11.469
50552W        W11973  39.525  24.557   3.293
50553W        W11974  35.941   9.658  11.099
50554W        W11975   5.726  23.154   3.269
50555W        W11976  41.523  29.931  10.912
50556W        W11977  32.987  10.671  10.041
50557W        W11978  42.484  39.994  10.453
50558W        W11979  33.890   6.919   0.343
50559W        W11980  20.634  28.452   1.815
50560W        W11981  18.160  26.641   1.794
50561W        W11982  18.773  16.588   1.889
50562W        W11983  13.204  33.093   1.403
50563W        W11984  27.656  26.699   4.823
50564W        W11985  25.671  38.372   0.378
50565W        W11986  28.140  14.108   5.127
50566W        W11987  23.523   3.411  10.079
50567W        W11988  34.100  29.959  10.621
50568W        W11989  36.503   1.924   2.747
50569W        W11990   2.463  16.739  12.572
50570W        W11991   5.933  31.611   1.382
50571W        W11992  35.924  28.448  12.093
50572W        W11993  11.760  24.515   0.315
50573W        W11994   4.228  21.037  14.432
50574W        W11995  29.555  17.716  14.974
50575W        W11996  38.075  38.979  13.424
50576W        W11997  23.510  34.559   1.847
50577W        W11998  40.923   2.919  14.018
50578W        W11999  32.086  40.934   0.463
50579W        W12000   0.337  15.599  12.525
50580W        W12001   3.377   0.390   1.695
50581W        W12002  28.571   2.771   2.879
50582W        W12003  23.736   4.320   2.682
50583W        W12004  29.454  33.561   5.227
50584W        W12005  26.686  13.814   2.834
50585W        W12006  31.645   9.351   1.932
50586W        W12007  28.132  33.968   0.943
50587W        W12008  24.528  32.106   1.696
50588W        W12009  30.641  18.107   0.483
50589W        W12010  20.671  32.049   3.686
50590W        W12011   3.748  25.015   1.327
50591W        W12012  11.705   6.400  11.113
50592W        W12013  21.128  31.645  11.948
50593W        W12014   7.293  29.155  14.839
50594W        W12015  34.490  32.423  10.441
50595W        W12016  42.482   9.225  13.908
50596W        W12017  16.711   5.225   0.749
50597W        W12018  22.103  18.683  12.506
50598W        W12019  25.040  43.976  10.920
50599W        W12020  15.641  39.867  13.036
50600W        W12021  28.556  17.601   0.247
50601W        W12022  18.216  17.230   4.114
50602W        W12023  32.518  40.534   4.819
50603W        W12024  33.478  42.994  10.429
50604W        W12025  15.602  42.319   3.828
50605W        W12026  17.300  15.223  13.046
50606W        W12027  22.204  19.658  12.021
50607W        W12028  16.086  30.152   2.833
50608W        W12029  10.251  44.340   4.134
50609W        W12030  11.166  18.179   1.221
50610W        W12031  14.272   6.902   0.417
50611W        W12032  29.054   1.346   1.707
50612W        W12033  11.644  27.067   0.288
50613W        W12034   4.818  40.856  13.926
50614W        W12035  16.269  32.912  13.040
50615W        W12036  43.837  22.127   1.301
50616W        W12037  14.294  37.435  11.562
50617W        W12038  32.531  41.344  12.520
50618W        W12039  35.602  38.483  14.813
50619W        W12040  44.859  19.624  14.483
50620W        W12041  21.684  44.458   3.645
50621W        W12042  13.809   3.395  13.044
50622W        W12043   0.440   2.356   0.807
50623W        W12044  43.469  24.985   5.127
50624W        W12045   9.177   3.309  11.429
50625W        W12046   0.383  23.201   2.901
50626W        W12047  24.511   3.787   1.324
50627W        W12048  15.729  13.634  14.931
50628W        W12049  20.122  38.954   0.807
50629W        W12050  35.481  33.451  13.453
50630W        W12051   4.366   8.183  14.293
50631W        W12052  29.993  30.092  11.466
50632W        W12053   3.739  26.000  12.956
50633W        W12054  28.049  12.640   3.364
50634W        W12055  13.779  31.513  14.013
50635W        W12056  34.071   9.208   2.255
50636W        W12057   4.329  37.041  11.451
50637W        W12058  23.025  28.113  13.437
50638W        W12059   7.396   2.780  14.421
50639W        W12060   3.722  36.002   2.292
50640W        W12061  22.581   2.764   2.846
50641W        W12062  19.632   6.288   0.355
50642W        W12063  11.851  11.743   1.242
50643W        W12064  30.446  28.652  10.998
50644W        W12065  19.566  31.932   2.405
50645W        W12066  13.628  18.656   0.751
50646W        W12067  16.236  31.428  11.090
50647W        W12068   5.804  44.415  11.482
50648W        W12069   0.830  12.347  10.954
50649W        W12070   4.346   6.225  13.017
50650W        W12071  12.635  37.345  13.453
50651W        W12072   6.769  27.643   0.840
50652W        W12073  39.421  38.491  12.501
50653W        W12074  17.737  43.859  14.024
50654W        W12075  35.442  32.103  14.968
50655W        W12076  36.892  10.745  13.425
50656W        W12077   7.285  24.005   3.766
50657W        W12078  13.699  36.917   4.274
50658W        W12079   2.802  25.547   9.536
50659W        W12080  29.112   7.901  10.947
50660W        W12081  41.026  17.173  12.450
50661W        W12082  17.300  28.525  13.346
50662W        W12083   4.408   5.887   1.813
50663W        W12084   1.810  40.410  13.975
50664W        W12085  29.452  37.944  12.404
50665W        W12086   8.404  44.998   3.339
50666W        W12087   6.784  43.843   1.924
50667W        W12088  33.479  35.990   0.938
50668W        W12089  18.548  32.042   2.862
50669W        W12090  37.860  13.821  11.581
50670W        W12091   9.255  12.843   1.424
50671W        W12092  35.894   3.223  12.969
50672W        W12093  39.004  16.768  11.034
50673W        W12094  22.590  29.133  14.980
50674W        W12095   4.408  43.963  10.072
50675W        W12096  23.090  39.056   0.325
50676W        W12097   3.799   3.802   2.184
50677W        W12098  23.164  20.128  12.940
50678W        W12099   2.379  33.097  13.911
50679W        W12100   3.922   3.439  11.532
50680W        W12101   4.257  44.429  12.491
50681W        W12102  22.589  41.863   0.398
50682W        W12103  15.623  23.533   2.752
50683W        W12104  20.175  42.378  13.903
50684W        W12105   8.767   1.785  11.118
50685W        W12106  22.577  42.479   0.781
50686W        W12107   4.304  27.021  13.056
50687W        W12108  31.153  38.431   2.255
50688W        W12109  17.105  31.960   1.864
50689W        W12110  43.833  30.952   4.819
50690W        W12111  43.280   0.253  13.370
50691W        W12112   1.429  43.860  10.938
50692W        W12113  32.069  41.348  11.916
50693W        W12114  41.876  34.417   2.766
50694W        W12115  11.270  40.398  10.432
50695W        W12116  24.599  41.942  11.577
50696W        W12117   9.765  22.172  13.439
50697W        W12118  20.714  19.285   4.613
50698W        W12119   4.781  11.266   4.130
50699W        W12120  23.710  29.000   4.650
50700W        W12121  25.098  42.867   4.345
50701W        W12122  17.087  20.748  14.793
50702W        W12123  41.994  16.587   3.832
50703W        W12124  20.073   7.183  14.982
50704W        W12125  36.873  26.047   2.816
50705W        W12126  29.164  27.159   3.331
50706W        W12127  21.144  36.486   2.349
50707W        W12128  20.112  32.913   0.478
50708W        W12129   2.806   4.899  13.855
50709W        W12130  18.610  13.718   3.314
50710W        W12131  39.852  42.447  11.430
50711W        W12132  26.168  20.168   1.391
50712W        W12133  28.442  41.941  11.055
50713W        W12134   0.377  13.215   3.147
50714W        W12135  27.506   7.333  12.387
50715W        W12136  31.969  41.521  12.928
50716W        W12137   3.430  23.129   3.771
50717W        W12138  22.619   7.715   3.749
50718W        W12139  16.145  27.590  11.473
50719W        W12140  10.214  29.628  11.435
50720W        W12141   6.421  32.463  11.921
50721W        W12142  44.262  26.194  13.503
50722W        W12143   0.803  37.564   3.248
50723W        W12144   9.315  37.496   0.805
50724W        W12145  40.335   3.754  10.997
50725W        W12146  35.013   9.358  11.033
50726W        W12147  24.011  20.221  11.019
50727W        W12148  28.555  15.805   3.631
50728W        W12149  39.871  43.923   1.877
50729W        W12150  29.011   1.241   4.267
50730W        W12151  14.804  37.544  14.818
50731W        W12152   4.736  36.423  10.889
50732W        W12153  23.207  41.892   0.289
50733W        W12154  29.144  22.150   2.680
50734W        W12155  20.245  31.475   0.410
50735W        W12156  43.835  30.914   2.723
50736W        W12157  31.131  33.502   5.100
50737W        W12158   2.373  32.522   4.328
50738W        W12159   8.181  16.107   3.180
50739W        W12160  28.182  24.530  13.366
50740W        W12161  33.920  40.980   1.394
50741W        W12162  21.668  34.909  11.066
50742W        W12163  37.388  27.131  10.932
50743W        W12164  18.267   4.796  10.950
50744W        W12165  33.474  35.854  12.031
50745W        W12166   4.901   5.807  12.383
50746W        W12167  39.983  18.546   4.726
50747W        W12168  17.722  33.573  14.295
50748W        W12169  20.225  44.852  10.510
50749W        W12170  42.467  39.035  12.908
50750W        W12171  28.435  22.693   4.688
50751W        W12172  14.692  28.454  10.106
50752W        W12173   3.846  29.527  13.489
50753W        W12174  20.045  27.979   1.739
50754W        W12175   9.308  22.624  13.831
50755W        W12176  10.818  20.677  11.467
50756W        W12177  39.457  20.066   0.860
50757W        W12178  37.087  11.252   2.388
50758W        W12179  13.728  43.988   1.828
50759W        W12180   0.411  10.700   4.183
50760W        W12181   6.276  33.400  11.514
50761W        W12182   5.201  35.088   2.223
50762W        W12183  30.493  12.647   0.785
50763W        W12184  20.168   0.283   3.850
50764W        W12185  24.723   8.205   1.421
50765W        W12186  11.182  37.886  12.400
50766W        W12187  33.032   8.332  14.759
50767W        W12188  31.125  18.759  12.831
50768W        W12189   2.793  29.970   1.363
50769W        W12190  34.876  29.636  10.635
50770W        W12191  17.672  30.931  14.924
50771W        W12192  39.479  20.562  13.384
50772W        W12193   0.390  35.363   1.855
50773W        W12194   3.306   8.374  12.577
50774W        W12195  44.348  44.966  13.881
50775W        W12196  26.163   5.255   0.349
50776W        W12197  43.321   5.285  13.503
50777W        W12198   5.435   3.291  14.780
50778W        W12199  42.421  28.671   2.844
50779W        W12200  10.290   9.393  14.472
50780W        W12201   9.177  30.506   3.641
50781W        W12202  17.111  32.520  14.020
50782W        W12203  41.000   5.688   0.249
50783W        W12204   2.333  36.020   4.599
50784W        W12205  13.151  19.230  10.574
50785W        W12206  26.525  11.856   3.181
50786W        W12207  16.623   0.343  12.917
50787W        W12208   0.256   1.755   4.200
50788W        W12209   9.753   8.187   1.861
50789W        W12210  22.514  35.510   1.896
50790W        W12211  17.172  25.088  13.525
50791W        W12212   1.403   3.339  14.026
50792W        W12213  40.465  21.619  12.869
50793W        W12214  27.145  19.656  14.433
50794W        W12215  42.508  29.989   1.357
50795W        W12216   5.849  12.785  11.380
50796W        W12217  13.687  16.632   3.807
50797W        W12218  17.698   3.397  11.005
50798W        W12219  44.363  44.957  10.470
50799W        W12220  14.703  29.500  11.909
50800W        W12221   2.389  32.086  11.558
50801W        W12222  26.476  42.864  10.931
50802W        W12223   3.253  36.949  12.953
50803W        W12224  40.308   1.241   2.901
50804W        W12225   1.970  18.154  12.343
50805W        W12226  26.688  22.122   2.245
50806W        W12227  17.224  35.369   2.276
50807W        W12228  26.185   3.216   3.358
50808W        W12229  24.483  28.992   4.133
50809W        W12230  23.237  26.021  12.878
50810W        W12231  17.185  31.461  12.490
50811W        W12232  35.581   8.261  13.451
50812W        W12233  25.495  20.656   0.319
50813W        W12234  43.305  27.087  10.469
50814W        W12235   3.414   0.817  13.826
50815W        W12236  34.438   1.345   2.869
50816W        W12237  20.160  26.007  10.544
50817W        W12238  13.809   8.384   3.838
50818W        W12239  11.724   9.352   1.727
50819W        W12240   5.805  35.073   4.626
50820W        W12241  23.176  40.405  11.539
50821W        W12242  31.648  27.543  11.885
50822W        W12243   3.307  33.033  10.639
50823W        W12244  24.648  19.163  11.082
50824W        W12245   5.752  32.555  11.596
50825W        W12246  26.083  41.977  13.307
50826W        W12247  15.204  15.593  13.944
50827W        W12248  20.075  34.531  10.968
50828W        W12249  24.588  32.041   3.718
50829W        W12250  44.411  37.565   0.339
50830W        W12251  32.052  33.585   9.968
50831W        W12252   0.271  37.005  12.451
50832W        W12253  16.744  33.891  12.054
50833W        W12254   8.796  43.293  11.445
50834W        W12255   3.263  35.421  13.040
50835W        W12256  33.918  35.910  14.386
50836W        W12257  28.612  40.309  13.491
50837W        W12258  23.696   1.805   3.309
50838W        W12259  23.037  38.413  11.094
50839W        W12260  34.597  43.952  12.407
50840W        W12261  28.994  37.901   3.306
50841W        W12262   8.254   7.694  13.530
50842W        W12263   5.776  15.223   2.714
50843W        W12264   2.470  12.271  11.877
50844W        W12265   7.768  27.164   1.830
50845W        W12266  12.666  15.787  12.092
50846W        W12267  39.984  28.989   2.265
50847W        W12268  30.614   8.799   4.819
50848W        W12269  23.566   5.810   3.675
50849W        W12270  10.371  21.092   2.214
50850W        W12271  26.060  17.197  13.860
50851W        W12272  17.220  12.849  11.102
50852W        W12273   5.263  23.164   0.468
50853W        W12274  13.147  23.217  14.803
50854W        W12275  20.051  13.340   4.803
50855W        W12276  22.240  21.116   0.860
50856W        W12277  17.128  33.532  13.494
50857W        W12278  40.980  17.563   1.340
50858W        W12279   1.347   2.942  13.870
50859W        W12280  42.013   9.285   0.945
50860W        W12281  44.376  19.134  11.071
50861W        W12282  35.989   7.871   0.368
50862W        W12283   7.683  33.398   3.153
50863W        W12284  28.151  16.192  11.561
50864W        W12285  19.603  13.785   3.672
50865W        W12286  17.147  26.953  13.023
50866W        W12287  40.803  11.718  13.797
50867W        W12288  31.122  10.171   3.243
50868W        W12289   9.276  14.800   1.851
50869W        W12290  24.990   5.712   5.238
50870W        W12291  26.067  14.295  12.899
50871W        W12292   8.228  41.360   4.224
50872W        W12293  40.854  34.601   4.330
50873W        W12294  23.019  41.525  11.876
50874W        W12295   0.842  33.938  13.350
50875W        W12296  30.111  22.564   4.804
50876W        W12297   3.809   0.316  12.470
50877W        W12298  38.517  36.893   3.221
50878W        W12299  30.137  37.016  14.781
50879W        W12300  27.018  31.061  11.603
50880W        W12301  35.017  24.155   4.803
50881W        W12302  26.082  40.843  12.994
50882W        W12303   2.390  19.678   2.729
50883W        W12304  16.712  17.701   2.677
50884W        W12305  20.052  11.132   4.779
50885W        W12306  34.426  11.204  14.318
50886W        W12307  20.539  12.756   4.314
50887W        W12308  14.180   6.887  10.521
50888W        W12309  40.055  43.817  10.501
50889W        W12310  20.029   0.911  13.051
50890W        W12311  35.002  21.531   2.708
50891W        W12312  33.015  44.997  10.892
50892W        W12313  15.646  44.486  11.901
50893W        W12314   6.384  41.906   2.391
50894W        W12315  23.129  25.187   2.786
50895W        W12316  16.676  38.478  10.543
50896W        W12317  28.538  10.683   0.858
50897W        W12318  24.666   2.389   4.205
50898W        W12319  16.629   8.872  10.410
50899W        W12320  17.083  15.193   2.834
50900W        W12321  29.460   9.241   4.186
50901W        W12322  25.998  36.844   4.699
50902W        W12323   9.778  11.800   2.686
50903W        W12324   8.677   9.197  12.377
50904W        W12325  38.005  44.787   4.317
50905W        W12326   2.362   1.329   5.675
50906W        W12327  11.739  30.029  13.440
50907W        W12328  24.182  26.103   2.232
50908W        W12329  36.569   7.347   3.364
50909W        W12330  34.492  35.867   3.361
50910W        W12331  17.768  29.521   0.375
50911W        W12332  24.614   2.356  11.372
50912W        W12333   7.275   5.851  12.377
50913W        W12334  40.917  30.520   0.412
50914W        W12335   4.307  42.322   0.887
50915W        W12336  42.811  39.406  10.615
50916W        W12337  35.922  33.408  14.277
50917W        W12338  27.158  30.538  14.008
50918W        W12339  18.763  28.076  14.843
50919W        W12340  40.014  18.155   0.365
50920W        W12341  23.501  35.004   4.800
50921W        W12342  20.177  17.280  13.441
50922W        W12343  17.743  31.953  10.083
50923W        W12344  19.147  11.188   0.963
50924W        W12345  33.445  25.525  12.463
50925W        W12346  38.478  40.383   0.940
50926W        W12347  33.616  31.526  11.583
50927W        W12348  23.112  17.721   4.728
50928W        W12349   4.752  25.569  14.761
50929W        W12350  10.669  14.125   0.941
50930W        W12351  13.165  32.532  13.873
50931W        W12352   3.460  12.146  12.442
50932W        W12353  36.949  16.152   0.410
50933W        W12354  31.417  29.431   4.172
50934W        W12355   0.336  41.359   0.738
50935W        W12356  33.521  38.938   3.789
50936W        W12357  38.869  29.086  13.383
50937W        W12358  40.963   5.393  11.522
50938W        W12359  23.228  35.538   2.252
50939W        W12360  20.255  18.276   1.442
50940W        W12361  22.623  12.633   9.977
50941W        W12362  13.290  38.368   0.958
50942W        W12363  39.855  37.885   2.771
50943W        W12364  13.121  32.458   3.156
50944W        W12365  40.471  13.313  14.959
50945W        W12366   8.292  42.524  12.486
50946W        W12367  44.876  16.300   1.916
50947W        W12368  42.003  32.967  10.979
50948W        W12369  39.559  42.958  12.467
50949W        W12370  30.926  44.434  13.899
50950W        W12371  36.567  31.418  13.437
50951W        W12372  38.006  38.882   3.711
50952W        W12373  39.855  16.617   5.159
50953W        W12374  12.147  29.606   0.387
50954W        W12375  11.152  20.122   1.931
50955W        W12376  11.679  25.049   1.756
50956W        W12377   6.776   1.923   3.673
50957W        W12378  37.003  31.071   3.634
50958W        W12379  30.109  22.538  10.459
50959W        W12380  43.810  26.600   5.225
50960W        W12381   4.826  10.681  14.026
50961W        W12382  28.497  33.911  11.526
50962W        W12383  21.554   0.251   1.782
50963W        W12384  21.217   5.330   0.852
50964W        W12385  25.609   7.900   0.785
50965W        W12386  14.209  39.047   1.363
50966W        W12387  12.315  18.751   0.465
50967W        W12388  28.932  29.157  10.923
50968W        W12389  30.969  13.765   4.242
50969W        W12390  13.635   4.892   4.130
50970W        W12391  40.937  26.608   2.200
50971W        W12392  20.211   4.823  12.870
50972W        W12393   1.246   2.732   3.864
50973W        W12394  19.654   4.776   3.292
50974W        W12395  18.106  44.482  11.121
50975W        W12396   6.295   3.363   1.229
50976W        W12397   5.724  37.475  11.070
50977W        W12398  40.390  10.155  13.445
50978W        W12399  33.478  33.480   2.280
50979W        W12400  43.500  36.053   5.244
50980W        W12401  21.141  30.469  13.061
50981W        W12402  40.387   1.312  11.005
50982W        W12403   2.828   9.184  13.887
50983W        W12404  41.986  35.525  12.891
50984W        W12405   9.161  10.824   2.234
50985W        W12406  40.911  11.244   5.704
50986W        W12407   1.422  24.070   2.204
50987W        W12408  37.415  20.610   2.870
50988W        W12409  41.975  36.383  13.506
50989W        W12410  27.986  22.083  10.494
50990W        W12411  31.076  22.037   1.357
50991W        W12412  33.418  27.138  10.440
50992W        W12413  40.496  31.508   3.150
50993W        W12414  24.065  17.567   4.648
50994W        W12415  23.714  24.227  11.912
50995W        W12416  30.623  36.047  11.012
50996W        W12417  37.421  18.052   1.293
50997W        W12418  15.166  32.928   3.365
50998W        W12419  42.323   3.862   0.726
50999W        W12420   0.292  15.176  11.478
51000W        W12421  17.580  16.133   4.602
51001W        W12422  39.818  29.482  13.514
51002W        W12423  26.574  41.536   1.892
51003W        W12424  13.659   6.201  13.327
51004W        W12425  10.838  40.502   3.746
51005W        W12426  15.611  33.579   2.210
51006W        W12427   8.801  31.517  13.456
51007W        W12428  22.160  33.412   4.654
51008W        W12429  43.473  30.546  11.955
51009W        W12430  30.515  23.644  13.011
51010W        W12431   6.859  40.996   0.746
51011W        W12432  19.213  16.597  11.586
51012W        W12433  24.206  43.984  10.644
51013W        W12434   0.288  29.043   1.917
51014W        W12435  25.568  41.456   1.864
51015W        W12436  23.236   1.791  12.051
51016W        W12437  44.944  18.249   1.749
51017W        W12438  22.743  25.490   2.249
51018W        W12439  30.516   4.742   2.738
51019W        W12440   4.751   8.373   3.156
51020W        W12441  33.390  26.481  11.522
51021W        W12442   5.246  30.612  14.898
51022W        W12443   5.255  35.027  12.543
51023W        W12444  24.715  30.427   3.841
51024W        W12445  11.302  18.752   2.367
51025W        W12446   2.360   8.859  13.349
51026W        W12447   3.896  39.996  13.419
51027W        W12448   8.800   3.718   3.686
51028W        W12449  33.595  42.933   2.895
51029W        W12450  13.290   8.840  13.820
51030W        W12451  16.142  34.906  13.927
51031W        W12452  35.593  18.095  11.541
51032W        W12453  14.684  26.565  14.311
51033W        W12454  30.138  43.778   4.311
51034W        W12455   2.961   3.767  13.504
51035W        W12456  34.572  26.138  14.338
51036W        W12457  36.070   8.386   4.675
51037W        W12458  37.349  23.511  13.847
51038W        W12459  35.589   6.915  14.500
51039W        W12460  11.210  31.482   3.716
51040W        W12461  23.507   6.690  13.336
51041W        W12462  16.749   6.191   2.178
51042W        W12463  30.459  17.773  13.011
51043W        W12464  39.554  19.276   0.299
51044W        W12465  39.335  25.150  10.604
51045W        W12466  36.440  21.157   3.336
51046W        W12467  14.307   2.869   3.824
51047W        W12468  31.987  43.902   4.677
51048W        W12469   2.721  20.687   0.264
51049W        W12470   5.436  14.650   2.753
51050W        W12471  13.261  10.270  10.034
51051W        W12472   7.681   3.788   5.191
51052W        W12473  13.823  16.202  14.488
51053W        W12474  39.864   5.845   1.397
51054W        W12475  42.856  35.916   0.258
51055W        W12476   6.903  33.555  14.765
51056W        W12477  15.258  33.546  11.939
51057W        W12478  10.141  14.726   1.388
51058W        W12479  34.456   8.901  12.982
51059W        W12480   6.697   8.877  12.380
51060W        W12481  40.343  22.099  12.517
51061W        W12482  26.548  12.686   3.196
51062W        W12483  14.235  29.945   0.443
51063W        W12484   8.327  13.658  13.862
51064W        W12485  27.076  18.694  10.602
51065W        W12486  22.647  31.084   0.777
51066W        W12487   4.343  31.590   3.153
51067W        W12488   7.194  16.597  12.838
51068W        W12489  27.945  41.383   0.477
51069W        W12490   5.703   4.760   4.268
51070W        W12491  16.751  24.225  14.989
51071W        W12492   3.766  26.967   3.170
51072W        W12493  30.001  39.837   2.860
51073W        W12494   0.285  17.792   4.801
51074W        W12495   6.409  15.116   0.892
51075W        W12496   0.775  21.618   3.280
51076W        W12497  34.476  17.713  12.834
51077W        W12498   5.267  41.824   9.944
51078W        W12499   2.825  13.776   2.249
51079W        W12500   0.752  20.627  13.307
51080W        W12501   2.778  11.361   4.320
51081W        W12502  11.675  37.906   1.815
51082W        W12503  38.840   2.381  10.519
51083W        W12504   2.434  16.186   2.688
51084W        W12505   8.334  32.909  13.491
51085W        W12506  38.502  18.594  10.961
51086W        W12507  40.409  28.012  13.508
51087W        W12508  40.990  34.467  11.563
51088W        W12509  20.613   2.466   0.382
51089W        W12510  15.271  21.670  11.856
51090W        W12511  21.255  15.600   5.207
51091W        W12512  13.261  33.561   0.819
51092W        W12513   1.387  11.742   4.830
51093W        W12514  19.108   0.891  13.467
51094W        W12515   6.713  26.609   4.266
51095W        W12516  35.949  12.293  11.866
51096W        W12517  42.908   6.425   4.751
51097W        W12518  33.619  13.214  12.048
51098W        W12519   8.660  22.544   2.307
51099W        W12520  23.676   5.699  10.064
51100W        W12521  40.336   9.190   2.701
51101W        W12522   9.713   7.250  14.339
51102W        W12523  18.611  23.145   4.757
51103W        W12524  42.958   8.190  13.316
51104W        W12525  17.242   8.194  10.607
51105W        W12526   4.913  14.744  13.898
51106W        W12527  24.157  38.927  14.768
51107W        W12528  43.298  39.808  12.432
51108W        W12529   6.310  15.823   4.775
51109W        W12530  37.534  20.046   3.289
51110W        W12531  21.257  42.997   2.194
51111W        W12532   0.404  39.935  14.963
51112W        W12533  26.671  38.824   3.811
51113W        W12534  29.950  31.978   0.456
51114W        W12535   1.817  36.882   4.822
51115W        W12536  26.991  16.734   3.689
51116W        W12537  28.020  15.322  13.809
51117W        W12538   7.710  44.882  12.084
51118W        W12539   1.882  16.616  12.949
51119W        W12540   9.780  38.347   3.780
51120W        W12541  43.389  27.985  11.400
51121W        W12542  28.565  37.475  10.598
51122W        W12543  35.541  24.675  13.827
51123W        W12544  24.136   4.846   3.660
51124W        W12545  44.800   4.702   0.270
51125W        W12546  38.418   6.839   1.780
51126W        W12547  32.536  17.744  14.508
51127W        W12548  38.500  10.828  14.503
51128W        W12549  26.000  43.276  11.577
51129W        W12550  32.027  29.964   3.252
51130W        W12551   6.910  18.766   1.861
51131W        W12552   4.353  25.550  12.358
51132W        W12553  28.622   1.237   1.214
51133W        W12554  39.009  10.856   1.887
51134W        W12555  30.658  29.945  12.962
51135W        W12556  43.275   6.424  12.973
51136W        W12557  27.008  22.209  13.822
51137W        W12558  18.190  16.720  14.295
51138W        W12559  38.494  28.022  10.568
51139W        W12560  32.093   9.768   3.177
51140W        W12561   8.316   7.673   1.253
51141W        W12562  14.172   1.740  13.863
51142W        W12563  21.134  39.809   4.261
51143W        W12564  44.294  19.727  13.349
51144W        W12565  20.073   2.439   2.339
51145W        W12566  24.040   0.750   0.283
51146W        W12567  36.885  29.455  12.994
51147W        W12568   2.228  21.101   9.990
51148W        W12569  30.162   5.211   3.285
51149W        W12570  39.478  12.161   3.189
51150W        W12571  34.893  37.969  13.471
51151W        W12572  20.593  39.507   2.727
51152W        W12573  42.903  39.492   3.285
51153W        W12574  23.633  38.867  10.901
51154W        W12575  13.703  27.520  12.439
51155W        W12576  33.961  17.093  10.951
51156W        W12577   1.931  29.929  12.947
51157W        W12578   9.853  18.238   1.895
51158W        W12579  19.199   4.445  11.379
51159W        W12580  31.084   3.401  13.539
51160W        W12581   0.762  23.066   1.218
51161W        W12582  21.682  43.820  10.572
51162W        W12583  18.601  15.126  12.368
51163W        W12584  15.649   5.816   1.901
51164W        W12585  44.853  36.941  11.546
51165W        W12586  40.000  10.210   4.739
51166W        W12587  37.947  31.004   1.347
51167W        W12588   6.428  43.893  12.873
51168W        W12589  37.475  34.376   3.832
51169W        W12590  26.642  20.573  12.471
51170W        W12591  31.514  21.164  13.019
51171W        W12592  29.119  33.911   2.810
51172W        W12593  17.574  38.991  12.048
51173W        W12594  21.598  22.536  12.479
51174W        W12595  21.066  26.195  11.101
51175W        W12596  30.099   2.393  13.509
51176W        W12597  44.265  38.042  10.470
51177W        W12598  42.780  37.529  11.452
51178W        W12599  20.531   4.874  10.642
51179W        W12600   2.878  15.229  12.881
51180W        W12601  21.749  31.077   2.662
51181W        W12602  24.717   8.807   3.328
51182W        W12603  22.196  35.101   3.633
51183W        W12604   1.418  39.500  13.997
51184W        W12605  17.171  36.586   0.295
51185W        W12606  13.742   1.809  13.022
51186W        W12607  40.520  17.240   4.274
51187W        W12608   0.485   9.242   1.240
51188W        W12609  41.013  29.109   2.781
51189W        W12610  38.834   7.185  14.313
51190W        W12611  43.991  23.065   3.728
51191W        W12612  33.006  16.100  13.818
51192W        W12613  15.811  22.680   4.621
51193W        W12614  23.046  14.644   4.614
51194W        W12615  32.399  29.461   0.329
51195W        W12616  11.639  33.033  12.836
51196W        W12617  24.520  44.914   4.239
51197W        W12618  20.607  28.074  12.075
51198W        W12619  31.540  18.774   0.830
51199W        W12620  13.621  38.333  12.572
51200W        W12621   0.254  18.636  10.937
51201W        W12622   0.833  39.362  10.894
51202W        W12623   6.703  23.229  11.428
51203W        W12624  32.555   2.374   2.250
51204W        W12625  35.895   1.762  12.556
51205W        W12626  31.909  18.070   4.167
51206W        W12627  36.011  16.280  11.476
51207W        W12628   0.438  38.911  14.920
51208W        W12629  19.571  25.632   3.642
51209W        W12630  18.749  18.562  12.544
51210W        W12631  14.649  43.305   4.721
51211W        W12632  18.608  15.801  14.340
51212W        W12633  39.061   1.237   1.351
51213W        W12634  13.184  17.792   0.298
51214W        W12635  21.209  40.812   3.632
51215W        W12636  28.507  38.932   2.283
51216W        W12637  15.241  37.925   2.345
51217W        W12638  33.484  11.259  11.496
51218W        W12639   2.276  33.495  11.082
51219W        W12640  20.624  18.177   0.860
51220W        W12641   2.265  29.033  12.341
51221W        W12642  14.327  16.587   4.827
51222W        W12643  37.448  10.230  11.409
51223W        W12644  11.623  42.438   1.732
51224W        W12645  39.059  18.668  11.968
51225W        W12646  17.660   9.174  11.025
51226W        W12647  40.504  43.447  14.307
51227W        W12648  37.062   4.328  11.999
51228W        W12649  12.180  38.905   0.887
51229W        W12650  17.237   9.175   2.213
51230W        W12651   5.891   5.325   5.084
51231W        W12652  32.405  33.494   1.695
51232W        W12653  35.983  30.921   3.262
51233W        W12654  29.017  13.796  11.858
51234W        W12655  38.052   2.234  14.011
51235W        W12656  31.107  11.709   0.301
51236W        W12657  41.005  40.889   3.643
51237W        W12658  22.025   0.256   2.375
51238W        W12659  33.924  22.635   4.676
51239W        W12660  32.487   8.206  11.584
51240W        W12661   5.882  23.205  11.445
51241W        W12662  13.112  20.531   3.772
51242W        W12663  26.073  18.565   1.271
51243W        W12664  33.996  24.593   1.363
51244W        W12665  38.046  11.326  10.500
51245W        W12666  40.403  36.481  14.973
51246W        W12667  11.663  36.852   4.178
51247W        W12668  22.160   0.878   2.664
51248W        W12669  39.429  32.940  14.275
51249W        W12670  16.075  31.487  11.493
51250W        W12671  43.304  15.168  10.508
51251W        W12672  11.338  39.493  14.848
51252W        W12673  36.065  12.794  12.380
51253W        W12674  15.720  18.087   3.645
51254W        W12675  43.306  22.548  11.901
51255W        W12676  29.640  44.303  10.054
51256W        W12677  16.305  29.114   0.836
51257W        W12678  13.298  36.449  13.318
51258W        W12679  39.808  41.460  10.607
51259W        W12680   5.314  34.609  13.874
51260W        W12681  40.545  25.037   3.832
51261W        W12682  25.684  11.633   0.343
51262W        W12683  33.904  36.051   3.859
51263W        W12684  32.497  25.703   0.270
51264W        W12685  33.105  30.417   2.294
51265W        W12686  38.468  42.809   1.791
51266W        W12687   5.200   7.263   2.764
51267W        W12688  34.959  32.551  10.475
51268W        W12689  27.036  16.589  12.369
51269W        W12690  42.799  32.542  14.865
51270W        W12691   3.936   9.673   4.658
51271W        W12692  42.923  43.422   1.305
51272W        W12693  13.731  15.106  11.532
51273W        W12694   8.174   3.241   0.762
51274W        W12695   5.377  12.713  12.965
51275W        W12696  41.949  27.597   3.659
51276W        W12697  37.831  28.087   3.697
51277W        W12698  16.717  32.411  14.758
51278W        W12699  27.149  39.327  11.611
51279W        W12700  41.894  34.575   4.261
51280W        W12701   4.282   4.368  12.009
51281W        W12702  41.934  26.590  13.320
51282W        W12703   6.224  30.511  13.445
51283W        W12704  15.158  10.278  14.830
51284W        W12705   2.323  17.143   1.217
51285W        W12706   2.742  29.468  12.050
51286W        W12707  14.734   3.353   4.739
51287W        W12708   8.403  18.217  13.997
51288W        W12709  38.950  13.208   9.474
51289W        W12710  41.860   9.849  14.843
51290W        W12711  27.493  18.715   1.443
51291W        W12712  40.863  30.581  14.869
51292W        W12713  15.738  13.755  10.549
51293W        W12714  42.452  17.096   5.182
51294W        W12715  39.445  42.324  11.516
51295W        W12716  33.878   7.848   3.864
51296W        W12717  13.808  23.160  11.952
51297W        W12718   0.904  29.033   3.173
51298W        W12719  26.608  24.508   0.311
51299W        W12720  24.217  14.765   2.766
51300W        W12721  17.798   4.391   2.757
51301W        W12722  37.412   1.737  13.482
51302W        W12723  20.173  26.537  11.056
51303W        W12724   5.808  30.423   2.867
51304W        W12725  40.908   0.350   4.250
51305W        W12726  20.215   1.852  14.817
51306W        W12727  36.545  33.411   2.724
51307W        W12728  14.664  37.491  13.872
51308W        W12729  11.751  32.435   1.226
51309W        W12730  38.871  10.668   4.662
51310W        W12731   8.844  28.037  13.981
51311W        W12732   7.838  11.649   3.753
51312W        W12733   0.887  22.190  12.824
51313W        W12734   4.309  26.482   3.698
51314W        W12735  33.103  24.693  10.636
51315W        W12736  31.941   1.353  13.452
51316W        W12737  18.675  14.780   0.397
51317W        W12738  40.884  21.079  11.933
51318W        W12739  40.423   1.852   4.139
51319W        W12740  39.371  11.683   3.762
51320W        W12741  17.231  20.143   4.172
51321W        W12742  18.149  10.380   4.129
51322W        W12743   6.754  42.963  12.938
51323W        W12744  11.710  44.989   0.816
51324W        W12745   8.868  14.736  12.472
51325W        W12746   0.969  21.022   1.723
51326W        W12747  37.540  29.979  14.487
51327W        W12748  25.028  28.017  11.531
51328W        W12749   7.841   6.696   1.721
51329W        W12750  21.736  38.838   1.748
51330W        W12751  14.280  29.120  13.471
51331W        W12752   3.323   5.703  12.021
51332W        W12753  35.375  24.088   0.385
51333W        W12754   3.916  30.621   2.276
51334W        W12755  43.816   0.974  12.071
51335W        W12756   1.303  35.903   2.796
51336W        W12757  13.243  36.878   3.325
51337W        W12758  11.827  32.037  12.008
51338W        W12759  36.976  43.511  12.506
51339W        W12760  31.483   7.714  14.014
51340W        W12761  43.892  23.048  11.051
51341W        W12762  38.559   4.309   1.336
51342W        W12763  19.070   2.877  12.899
51343W        W12764  17.125  26.964  14.409
51344W        W12765  28.953  44.851  13.865
51345W        W12766  33.101  20.645  10.553
51346W        W12767  16.176  23.986   1.728
51347W        W12768  22.592  43.996  12.978
51348W        W12769  18.258  15.250  12.008
51349W        W12770  12.674   1.414  13.910
51350W        W12771  44.280  40.041  13.911
51351W        W12772  43.805  20.150  11.004
51352W        W12773   2.465  44.323  14.925
51353W        W12774  14.723  10.278  12.371
51354W        W12775  32.118  31.602  10.998
51355W        W12776  35.523  27.085   0.912
51356W        W12777  14.688   4.785  13.972
51357W        W12778  32.526   3.824  12.952
51358W        W12779  38.446  25.624  11.006
51359W        W12780  27.172   0.373   1.785
51360W        W12781  36.952  17.697  11.595
51361W        W12782   9.334  22.056  12.080
51362W        W12783  24.170   7.409   3.283
51363W        W12784  21.717  24.994   1.324
51364W        W12785  22.131   3.304  12.517
51365W        W12786   8.203  16.803   0.794
51366W        W12787  43.909  36.063  11.935
51367W        W12788  28.028  31.515   0.799
51368W        W12789   9.808  40.468   2.195
51369W        W12790  40.539  38.334  11.110
51370W        W12791  12.239   4.319   3.352
51371W        W12792   8.729   8.405   1.262
51372W        W12793  43.797  32.062  10.996
51373W        W12794  10.777  30.073  11.090
51374W        W12795  21.138   1.946   0.778
51375W        W12796  32.905   3.391   0.906
51376W        W12797  23.611  32.888   1.441
51377W        W12798   2.395  42.817  11.863
51378W        W12799  31.898  13.113   2.809
51379W        W12800  44.861   1.901   3.793
51380W        W12801   2.371  26.153   5.122
51381W        W12802  32.608  10.162   0.244
51382W        W12803   8.786  25.688   0.928
51383W        W12804  10.175  40.548  10.578
51384W        W12805  11.819  39.835  14.792
51385W        W12806  33.915   7.882  12.933
51386W        W12807  25.091  40.880   0.750
51387W        W12808  42.812  31.594   4.703
51388W        W12809  11.276  21.019   1.861
51389W        W12810   3.422  16.134  13.414
51390W        W12811  32.126  20.547   3.337
51391W        W12812  39.320  26.057  12.868
51392W        W12813   4.849  13.228   5.140
51393W        W12814  32.114   8.830  11.875
51394W        W12815  25.527  38.514  11.914
51395W        W12816  41.311  39.314   1.251
51396W        W12817   8.267   9.871   3.235
51397W        W12818  35.978  37.879   0.288
51398W        W12819   0.980  44.392   5.271
51399W        W12820  44.326   3.869   4.349
51400W        W12821  44.326  33.013   2.736
51401W        W12822  37.380  35.102  13.938
51402W        W12823   1.946   3.277  14.481
51403W        W12824   3.771  29.149  14.953
51404W        W12825   6.790  28.575  12.835
51405W        W12826   7.689  32.588   2.832
51406W        W12827  29.490  23.142  11.453
51407W        W12828  23.141  20.693  11.904
51408W        W12829  36.963  14.613  12.403
51409W        W12830  24.104  16.668  11.866
51410W        W12831  35.457  14.618   1.281
51411W        W12832  26.551  20.194   4.343
51412W        W12833   3.824  31.034   5.674
51413W        W12834  37.411  27.537  13.005
51414W        W12835  44.268  35.440   0.734
51415W        W12836  36.984   0.449   4.339
51416W        W12837   8.288  43.983  13.812
51417W        W12838  44.910   2.404   1.923
51418W        W12839  42.014   8.318   3.755
51419W        W12840  21.216  14.184   2.732
51420W        W12841  43.926  35.878  11.099
51421W        W12842  11.326   9.704  13.421
51422W        W12843  29.141   0.333  10.467
51423W        W12844  43.899   1.901   1.886
51424W        W12845  22.069   4.411   1.343
51425W        W12846  25.647  19.695   2.241
51426W        W12847  18.740  18.172  12.090
51427W        W12848  14.622  11.301  11.090
51428W        W12849   5.886  38.410   1.442
51429W        W12850  41.016  31.914   1.284
51430W        W12851  41.914  17.091  11.122
51431W        W12852   5.815  18.696  14.920
51432W        W12853  38.941  29.136  13.924
51433W        W12854   5.193   4.870  12.463
51434W        W12855  28.972   2.890  14.999
51435W        W12856  43.921   4.238  11.100
51436W        W12857   1.895  20.554   1.805
51437W        W12858  20.717  29.061  11.476
51438W        W12859  34.544   3.393   0.462
51439W        W12860   1.865  14.764   0.338
51440W        W12861  38.369  34.521  12.444
51441W        W12862  40.839   7.319   1.745
51442W        W12863   4.253  44.458  13.008
51443W        W12864  31.055  22.085  14.430
51444W        W12865   9.290  38.053  10.413
51445W        W12866   2.886  23.656   2.805
51446W        W12867  16.617  14.185  13.404
51447W        W12868  14.153  44.336   5.198
51448W        W12869   9.800  44.286   0.828
51449W        W12870  41.797  25.196  13.886
51450W        W12871  13.332   4.331   0.735
51451W        W12872  38.024  11.815  11.915
51452W        W12873  15.594   7.863  11.466
51453W        W12874  39.927   3.827   3.868
51454W        W12875  28.982  30.977   0.396
51455W        W12876   2.345  12.213   3.831
51456W        W12877  23.235  12.653  14.946
51457W        W12878  38.908  40.024   2.249
51458W        W12879  15.293  14.727   4.771
51459W        W12880  15.754   2.960  12.041
51460W        W12881  16.283   9.155   4.195
51461W        W12882  27.501  17.284   2.856
51462W        W12883  22.609  13.601   0.296
51463W        W12884  41.457  30.132   4.713
51464W        W12885  42.347  38.939  11.976
51465W        W12886   1.735  41.473   1.353
51466W        W12887  24.148  29.124  13.931
51467W        W12888  17.736  13.253   2.854
51468W        W12889   8.172  41.945   1.853
51469W        W12890  39.016  32.097  11.976
51470W        W12891  32.116  25.684  14.419
51471W        W12892  43.864  10.236   0.878
51472W        W12893   2.340   9.771   1.391
51473W        W12894  37.077  26.078   3.697
51474W        W12895  24.589  25.536   3.266
51475W        W12896  18.784  21.122   2.384
51476W        W12897  15.248  39.548   1.852
51477W        W12898  31.484   2.902   1.808
51478W        W12899  19.093   7.812  11.978
51479W        W12900  43.930  24.652   4.226
51480W        W12901   4.797  10.285   2.765
51481W        W12902  33.080  11.319   3.225
51482W        W12903  38.018  40.978  10.900
51483W        W12904   7.895  10.801  12.849
51484W        W12905  26.122  42.315   0.799
51485W        W12906  42.936  39.875  10.456
51486W        W12907   5.234  44.939  14.025
51487W        W12908  41.807  31.907  11.435
51488W        W12909  36.961  40.809   4.122
51489W        W12910   7.210  35.019   0.473
51490W        W12911  44.771  12.338  13.975
51491W        W12912  44.985   9.200   3.214
51492W        W12913   0.456  41.395  10.513
51493W        W12914  34.090   8.173   3.819
51494W        W12915  31.460  24.488  13.452
51495W        W12916  12.126  31.601  14.348
51496W        W12917   0.378  17.763   3.692
51497W        W12918  25.004   9.181  10.983
51498W        W12919  13.225  23.727  12.563
51499W        W12920  35.882  24.582  14.467
51500W        W12921  15.185   3.247   4.673
51501W        W12922  30.438  39.346   0.824
51502W        W12923  29.065  11.645   1.904
51503W        W12924   8.893  18.769  13.797
51504W        W12925   7.266  17.802   3.659
51505W        W12926  21.056  37.567  12.020
51506W        W12927  13.680  30.083   4.250
51507W        W12928   8.252   2.784   4.168
51508W        W12929  38.450  23.205  10.550
51509W        W12930  13.301  41.525  14.426
51510W        W12931   1.416  26.098   1.290
51511W        W12932   7.244  12.771  14.858
51512W        W12933  27.458   8.834   4.774
51513W        W12934  34.894  31.018  14.982
51514W        W12935  36.365   5.221   1.795
51515W        W12936  25.133   7.778  11.900
51516W        W12937  17.296  34.059  10.920
51517W        W12938   6.825  10.666  14.933
51518W        W12939  27.495   9.313   0.365
51519W        W12940   6.685  24.519  11.950
51520W        W12941  38.507  42.518  14.847
51521W        W12942  11.209   8.241  14.776
51522W        W12943   1.355  38.557  10.985
51523W        W12944  22.240  39.980   2.808
51524W        W12945  17.143  35.390  10.497
51525W        W12946  18.201  36.995  12.541
51526W        W12947   8.841  36.400   2.325
51527W        W12948   4.728   9.365   4.757
51528W        W12949  13.199  44.953  14.990
51529W        W12950  44.949  15.740   4.641
51530W        W12951  13.349  31.929  12.524
51531W        W12952  37.570   8.714  10.578
51532W        W12953  34.040   5.865   3.326
51533W        W12954   0.879  15.169   0.460
51534W        W12955  21.127  10.798   3.795
51535W        W12956  12.839  30.562   3.791
51536W        W12957  11.281  23.582  14.944
51537W        W12958  23.165   3.292  10.572
51538W        W12959   6.400  19.254  11.375
51539W        W12960  17.268  24.993   9.962
51540W        W12961   2.259  17.103  11.988
51541W        W12962   0.907  25.550   4.675
51542W        W12963  43.488  22.549   0.467
51543W        W12964  18.105   3.249   2.352
51544W        W12965  35.051  36.084  13.369
51545W        W12966  11.709  35.578   1.282
51546W        W12967  22.073   0.796   4.303
51547W        W12968  37.410  39.415  13.063
51548W        W12969   5.877   2.853   5.308
51549W        W12970   6.879  20.731   1.276
51550W        W12971  44.756  37.495  13.512
51551W        W12972  33.469  16.130   0.274
51552W        W12973   9.806  19.705  11.955
51553W        W12974  22.546   4.367   3.146
51554W        W12975  13.777  22.599   1.408
51555W        W12976   5.322  30.522   9.951
51556W        W12977  22.705  27.681   3.774
51557W        W12978  21.538  40.324   3.713
51558W        W12979   6.916  26.199   1.761
51559W        W12980   8.849  25.141  14.411
51560W        W12981  39.967  35.043   4.130
51561W        W12982   0.874  19.070   2.799
51562W        W12983  29.129  37.957  11.875
51563W        W12984   3.272  35.400  14.997
51564W        W12985   9.296  20.168   2.211
51565W        W12986   5.846  14.106  13.542
51566W        W12987  14.750  38.985   1.773
51567W        W12988  23.726  17.174  12.488
51568W        W12989  41.808  43.845   0.252
51569W        W12990  22.061   2.840   2.678
51570W        W12991  37.364  22.030  10.015
51571W        W12992   2.327  16.790   3.362
51572W        W12993  20.680  11.193  11.088
51573W        W12994  26.512   1.951  11.396
51574W        W12995  20.584  37.557  12.072
51575W        W12996  22.152  31.898   1.253
51576W        W12997   6.421   0.904  10.476
51577W        W12998   0.390  14.289   1.899
51578W        W12999  27.957  14.803   3.326
51579W        W13000  19.656  44.796   3.186
51580W        W13001   3.360  36.459  10.641
51581W        W13002   7.226  25.085   4.688
51582W        W13003  40.527  22.186   3.353
51583W        W13004  18.075   2.844  11.511
51584W        W13005  44.891  37.961   3.695
51585W        W13006  13.699  27.487   3.259
51586W        W13007  27.646  13.672  14.020
51587W        W13008  13.603  33.617  13.870
51588W        W13009   1.845  19.540   1.370
51589W        W13010  32.633  41.007  11.910
51590W        W13011  31.437   9.366  11.978
51591W        W13012  19.593  31.542  11.074
51592W        W13013  11.166  24.636  11.946
51593W        W13014  38.894  43.457   1.404
51594W        W13015  11.633   7.224  13.471
51595W        W13016  40.508   9.210   3.866
51596W        W13017  18.062  11.868   4.729
51597W        W13018  27.951  40.366   4.222
51598W        W13019  15.780   9.301   1.233
51599W        W13020  34.539   3.334  14.021
51600W        W13021  23.218  24.562  11.125
51601W        W13022  38.943  26.491  13.539
51602W        W13023   6.413   4.350  11.548
51603W        W13024  42.861  30.153  10.984
51604W        W13025  18.155  17.678  12.409
51605W        W13026   1.922  17.711   2.295
51606W        W13027  30.958  15.597  10.608
51607W        W13028  13.319  41.794   0.882
51608W        W13029  15.097  24.650   3.228
51609W        W13030  37.479  39.415   1.259
51610W        W13031  39.414   7.685   0.925
51611W        W13032  13.283  37.065  13.939
51612W        W13033  42.345  33.958  13.311
51613W        W13034  15.708  39.894  12.529
51614W        W13035  21.048   6.327   5.296
51615W        W13036  19.554  26.602  12.015
51616W        W13037  38.884   6.868  12.924
51617W        W13038  28.068  41.800   4.354
51618W        W13039  31.633  36.954   1.268
51619W        W13040  40.463   8.843   2.341
51620W        W13041  12.754  10.669   3.804
51621W        W13042  17.112  29.029   3.242
51622W        W13043  31.011  12.267  13.331
51623W        W13044   9.331  13.634  14.420
51624W        W13045  25.649   5.318  14.333
51625W        W13046  40.943  17.651   5.784
51626W        W13047   8.356   5.805   2.280
51627W        W13048  40.027  26.986  11.409
51628W        W13049  39.972  17.729  10.604
51629W        W13050   5.285  33.128   2.800
51630W        W13051  17.651  41.445   3.764
51631W        W13052  18.636   9.394   0.942
51632W        W13053  25.183   2.352  13.396
51633W        W13054  16.201   8.729  10.576
51634W        W13055  38.916  40.942  11.889
51635W        W13056  34.479  37.368   2.831
51636W        W13057  35.039  12.125  13.929
51637W        W13058  28.675  23.549   0.452
51638W        W13059  35.429   1.463  10.435
51639W        W13060  41.293  11.622  10.490
51640W        W13061  26.097   4.879  12.051
51641W        W13062  33.065  31.153  13.415
51642W        W13063  12.155  26.646  11.601
51643W        W13064  12.612  24.212   0.868
51644W        W13065  15.099  34.009  12.996
51645W        W13066  43.296   5.738  12.014
51646W        W13067  16.274  15.769  11.113
51647W        W13068  16.232   9.217   2.200
51648W        W13069   5.900   6.188  10.979
51649W        W13070  41.352  43.767  14.890
51650W        W13071  34.613  31.562   1.355
51651W        W13072  13.226  38.025  11.957
51652W        W13073  13.152  14.325   0.854
51653W        W13074  24.556   1.795  14.343
51654W        W13075  34.527   1.842   0.300
51655W        W13076  31.490  14.117   4.284
51656W        W13077   6.367  20.195  13.846
51657W        W13078  34.046  31.622   0.799
51658W        W13079  15.711  20.677   1.289
51659W        W13080  44.348  25.174   2.261
51660W        W13081  18.157   3.769   1.746
51661W        W13082  34.065  39.318   2.260
51662W        W13083  31.005  37.458  11.915
51663W        W13084  43.387   6.875   3.695
51664W        W13085  24.161  17.116  11.486
51665W        W13086  28.530  14.804  14.458
51666W        W13087  36.939  42.467   0.306
51667W        W13088  41.968  29.558  11.438
51668W        W13089  11.360  38.481  14.452
51669W        W13090   6.359  41.337   0.794
51670W        W13091  40.969   1.897   3.290
51671W        W13092   4.211  14.820   0.955
51672W        W13093  27.451   9.217   1.339
51673W        W13094   0.811  17.210  11.531
51674W        W13095  25.672   5.407   5.674
51675W        W13096  23.664  38.489  14.982
51676W        W13097  29.445   7.226  14.345
51677W        W13098  18.131  26.176  11.054
51678W        W13099  44.342  25.214   2.765
51679W        W13100  44.878  26.676   1.806
51680W        W13101  24.085  29.450   2.325
51681W        W13102  18.102  24.029  11.530
51682W        W13103   8.359  33.963   3.646
51683W        W13104  32.039  29.553   3.299
51684W        W13105  21.216  19.666   0.324
51685W        W13106  21.062  21.699   0.328
51686W        W13107   6.869  29.569   3.748
51687W        W13108  19.068  44.449  13.059
51688W        W13109  43.501   9.216  11.100
51689W        W13110  32.523  10.182   1.821
51690W        W13111  39.418  26.977  12.020
51691W        W13112  30.012  31.071  11.399
51692W        W13113  10.718  10.827   0.880
51693W        W13114   7.780  20.543   1.742
51694W        W13115  32.906  32.016   0.916
51695W        W13116  23.111   5.732   0.751
51696W        W13117  27.197  11.174  14.434
51697W        W13118  29.601   7.820  12.065
51698W        W13119  22.130  15.316   2.716
51699W        W13120  44.265  35.898  14.998
51700W        W13121  14.179  36.891   1.819
51701W        W13122   8.397  44.479  10.495
51702W        W13123  15.257  33.026  10.593
51703W        W13124  30.044   1.897   0.404
51704W        W13125   0.947  12.193   3.313
51705W        W13126  20.733  16.742  11.576
51706W        W13127  21.139   7.374   3.223
51707W        W13128  37.952   2.303  12.913
51708W        W13129   4.302   2.447  14.509
51709W        W13130  24.635   6.910   0.838
51710W        W13131  13.206  25.708  11.391
51711W        W13132  10.665   3.317   3.756
51712W        W13133  28.949   7.369   1.213
51713W        W13134   4.386   2.815   3.306
51714W        W13135  14.822  24.721   1.756
51715W        W13136   0.286  29.121  14.468
51716W        W13137  20.681  38.881  14.918
51717W        W13138  29.529  11.368  14.910
51718W        W13139  25.540  24.642  11.890
51719W        W13140   2.955   5.292  12.346
51720W        W13141   1.850  19.136   0.274
51721W        W13142  14.185  23.695   0.873
51722W        W13143  44.500  26.554  12.503
51723W        W13144  12.745  27.040   2.832
51724W        W13145  28.628   0.272   0.897
51725W        W13146  42.936  43.769  11.102
51726W        W13147  20.029  11.865   4.197
51727W        W13148  11.776  15.652  10.997
51728W        W13149  41.949  31.966  13.490
51729W        W13150  23.673  41.319  12.451
51730W        W13151   2.767  36.558   3.273
51731W        W13152  31.083  22.083  13.386
51732W        W13153   0.896  44.846   1.826
51733W        W13154   2.840  41.516   4.317
51734W        W13155  42.800  21.098  14.473
51735W        W13156   3.307  20.662  11.549
51736W        W13157  20.250  27.178   4.682
51737W        W13158  34.584  35.401   1.710
51738W        W13159   6.406  31.054  10.947
51739W        W13160   8.395  21.215   0.311
51740W        W13161  38.960  19.180   3.344
51741W        W13162   4.711  17.639  10.996
51742W        W13163  10.846   2.382   1.434
51743W        W13164  15.212  10.875   3.690
51744W        W13165  28.981   5.354  12.994
51745W        W13166  20.142  39.373  12.464
51746W        W13167  19.603  16.754  14.802
51747W        W13168  24.545  42.876   2.369
51748W        W13169  43.871   7.786  10.628
51749W        W13170  10.790  31.072   0.753
51750W        W13171  13.307  24.068   0.304
51751W        W13172   0.424  17.672   1.262
51752W        W13173  18.245  23.024   4.210
51753W        W13174   7.861  35.875  11.383
51754W        W13175  44.930  41.985   0.332
51755W        W13176   4.830  30.595  10.413
51756W        W13177  41.296  10.213   4.832
51757W        W13178  32.105  39.990  10.025
51758W        W13179  16.766  36.545  14.969
51759W        W13180  26.105   5.719  12.570
51760W        W13181  14.125  32.444  14.800
51761W        W13182  34.001  13.192   2.193
51762W        W13183  39.396  37.428  13.960
51763W        W13184  28.961  22.543   0.298
51764W        W13185  18.057  21.533   3.655
51765W        W13186  11.720  33.989  10.906
51766W        W13187  36.971  41.477  11.076
51767W        W13188  42.335  18.635   0.441
51768W        W13189  10.369  15.735  11.957
51769W        W13190   9.242  13.776  12.382
51770W        W13191  29.441  38.887  12.007
51771W        W13192  38.436  24.478   4.231
51772W        W13193   7.853  26.024  14.790
51773W        W13194   2.859  40.996  13.341
51774W        W13195  23.594  10.334  13.973
51775W        W13196  27.091  27.521   4.808
51776W        W13197   5.370  38.872  14.894
51777W        W13198  26.696  31.515  10.951
51778W        W13199  27.018  39.926   2.857
51779W        W13200  39.829  32.437   4.668
51780W        W13201  10.784  15.278   0.763
51781W        W13202  33.103  42.850   2.716
51782W        W13203  26.577  23.171  14.836
51783W        W13204  16.173  27.044   0.801
51784W        W13205   0.451  20.125  10.961
51785W        W13206  19.135  10.342   0.796
51786W        W13207   2.352   4.430   4.125
51787W        W13208  33.528  18.700   2.665
51788W        W13209  14.146   0.893   1.281
51789W        W13210  13.208  30.976  12.498
51790W        W13211   5.415  41.955  10.584
51791W        W13212  43.353  18.720  14.346
51792W        W13213  33.387  11.328   2.289
51793W        W13214  40.843   7.814  12.924
51794W        W13215   1.854   7.198   4.785
51795W        W13216  28.073  21.634  14.875
51796W        W13217  24.099  42.845   1.325
51797W        W13218  24.201  40.053   2.709
51798W        W13219  10.792  43.826  12.887
51799W        W13220  11.826  21.087   4.186
51800W        W13221   3.852  29.561  11.977
51801W        W13222  11.259  35.421  12.436
51802W        W13223  34.017  37.550  14.871
51803W        W13224  30.110  21.570  13.335
51804W        W13225  21.197  24.160   0.387
51805W        W13226  35.099   2.301  12.496
51806W        W13227  16.116   0.306  10.616
51807W        W13228  24.062  36.868  12.090
51808W        W13229  38.968  10.239  12.854
51809W        W13230   3.942  34.949   1.828
51810W        W13231  12.834  40.358   0.440
51811W        W13232  32.524  13.751   4.646
51812W        W13233  32.098  27.137  13.523
51813W        W13234  33.424  20.624   4.117
51814W        W13235  28.082   4.225  11.495
51815W        W13236  32.474  35.868  11.031
51816W        W13237  20.029   6.831   4.154
51817W        W13238   3.932  33.081  12.479
51818W        W13239   1.461   7.752   1.698
51819W        W13240  20.264  40.821   3.638
51820W        W13241  18.748  28.601  12.891
51821W        W13242   6.318   5.799  10.568
51822W        W13243   6.258  18.704  10.471
51823W        W13244  23.054   2.401   0.397
51824W        W13245  29.068  14.647  11.382
51825W        W13246   2.454  30.482  14.861
51826W        W13247   6.379  23.049   4.143
51827W        W13248  25.991   2.298   1.442
51828W        W13249  43.971  17.136  14.831
51829W        W13250  17.192  37.892   1.377
51830W        W13251  40.981  44.298   1.279
51831W        W13252  20.626  20.094   4.725
51832W        W13253  12.637  20.758   1.234
51833W        W13254  12.797  41.356  12.448
51834W        W13255   5.288   1.330   9.601
51835W        W13256  10.269  24.540  12.450
51836W        W13257  26.515   5.390   1.331
51837W        W13258  28.960  18.639  13.496
51838W        W13259  37.441  40.308  13.319
51839W        W13260  11.351  41.908  12.903
51840W        W13261  32.922  27.096  14.016
51841W        W13262  28.581  10.229  10.564
51842W        W13263  37.472  11.702   2.722
51843W        W13264  12.842   1.462  13.502
51844W        W13265  37.397  11.177   3.852
51845W        W13266  43.503  23.629  12.475
51846W        W13267  15.305   7.873   4.193
51847W        W13268  30.614  38.865   4.280
51848W        W13269  21.090  19.605   0.920
51849W        W13270  10.684  30.652   0.849
51850W        W13271  18.209   4.292  14.865
51851W        W13272  30.491  30.421  14.024
51852W        W13273  26.981   4.811   2.701
51853W        W13274  21.080  22.199   2.782
51854W        W13275  40.444  38.054  11.400
51855W        W13276  13.663  17.733  14.018
51856W        W13277  29.134  30.602   4.663
51857W        W13278  12.711  22.543  11.511
51858W        W13279  39.058   3.850  10.508
51859W        W13280  17.765  39.559   1.898
51860W        W13281  36.855  42.811   4.726
51861W        W13282  44.411  31.443  13.338
51862W        W13283  23.707   3.239  13.987
51863W        W13284   1.939   1.883   5.167
51864W        W13285  31.456  36.876  11.025
51865W        W13286  44.946   2.266   4.126
51866W        W13287   5.210  31.051   2.296
51867W        W13288  36.434   9.284  11.440
51868W        W13289  44.291   3.340  12.863
51869W        W13290  44.009  41.415   3.154
51870W        W13291  10.857  26.583  14.431
51871W        W13292  44.275  12.306   4.174
51872W        W13293  20.066  14.147   2.271
51873W        W13294   6.301  31.011  14.457
51874W        W13295  30.517  27.623  13.479
51875W        W13296  19.174   4.923  10.999
51876W        W13297   1.851  24.595   0.960
51877W        W13298  42.316  27.476  11.548
51878W        W13299  20.542   2.370  11.456
51879W        W13300  18.089   2.942  13.851
51880W        W13301  40.329  23.653   0.873
51881W        W13302  18.055  38.872  12.003
51882W        W13303  42.300  23.538   3.351
51883W        W13304  15.295  42.792   1.358
51884W        W13305  41.789  19.219   0.892
51885W        W13306  20.170  18.742  12.854
51886W        W13307  30.104  13.242  14.955
51887W        W13308  22.160  35.478   4.718
51888W        W13309  37.364  36.558  13.954
51889W        W13310   8.399  28.130  12.365
51890W        W13311   3.891  35.991  12.004
51891W        W13312   2.291  35.933   1.746
51892W        W13313  36.911  30.160  11.063
51893W        W13314   5.750  41.500  10.133
51894W        W13315  12.218  30.441   3.630
51895W        W13316  17.781   1.304   0.861
51896W        W13317  19.625  42.302  14.006
51897W        W13318   1.308  21.743   4.662
51898W        W13319  16.297  12.828   3.701
51899W        W13320   7.803  30.908  13.981
51900W        W13321  32.420  41.353   1.839
51901W        W13322  44.755  37.845   0.813
51902W        W13323  24.023  21.735  11.601
51903W        W13324  13.645  33.423   1.861
51904W        W13325  43.810  33.980   3.804
51905W        W13326  33.038  36.013  11.981
51906W        W13327  42.806  28.046   4.756
51907W        W13328  34.996  17.697   4.791
51908W        W13329   3.250  23.513  10.529
51909W        W13330  18.701  36.374  13.819
51910W        W13331  37.455  21.620   3.291
51911W        W13332  26.646  42.481  14.966
51912W        W13333  44.902  44.339  12.512
51913W        W13334   5.806  25.185   0.906
51914W        W13335  16.197  41.001  11.096
51915W        W13336  23.692  20.083   2.255
51916W        W13337  25.644  35.448  14.025
51917W        W13338  25.644  40.915  10.521
51918W        W13339  40.324  35.062  12.915
51919W        W13340  34.118  10.740  13.995
51920W        W13341  33.568  14.161   1.851
51921W        W13342   3.425  13.830  12.834
51922W        W13343   9.302   6.424   4.279
51923W        W13344  32.036  17.101  13.407
51924W        W13345  42.491  42.823   2.258
51925W        W13346  37.835   7.768  14.875
51926W        W13347  17.736  22.501  12.915
51927W        W13348   3.424  13.312   0.460
51928W        W13349  43.333  11.651  12.442
51929W        W13350  19.055  20.527   3.683
51930W        W13351  29.161  32.408  11.891
51931W        W13352  33.589  28.576   4.348
51932W        W13353  36.899   2.845   5.090
51933W        W13354   7.241  18.626  11.498
51934W        W13355  40.349  14.736  11.888
51935W        W13356  34.010  18.052  11.866
51936W        W13357  16.108  10.842  10.890
51937W        W13358  43.508   0.956  12.006
51938W        W13359  15.090   0.814   2.822
51939W        W13360   9.390   9.787  12.971
51940W        W13361  14.117  38.333  13.538
51941W        W13362  10.220  41.413  11.080
51942W        W13363  35.357  15.172   0.262
51943W        W13364  25.563  33.467   4.173
51944W        W13365  33.566  16.266   1.801
51945W        W13366   8.383  43.783  12.967
51946W        W13367  42.309   4.248   0.732
51947W        W13368  29.092  10.325   4.345
51948W        W13369   6.419  38.378   2.407
51949W        W13370  39.385  27.600  14.840
51950W        W13371  34.544  25.552  12.380
51951W        W13372   1.364  16.287   2.300
51952W        W13373  39.835  24.089  14.012
51953W        W13374   9.823  43.813  12.379
51954W        W13375  31.418  30.038  11.027
51955W        W13376  26.149  43.912  14.316
51956W        W13377  11.135  11.231  11.920
51957W        W13378   6.198  22.168  13.443
51958W        W13379  16.687  39.895   4.278
51959W        W13380  27.054  13.286  14.358
51960W        W13381  14.589   8.372   0.362
51961W        W13382  13.188  21.632   4.181
51962W        W13383  37.409  24.202   4.653
51963W        W13384   4.364  31.077  13.815
51964W        W13385  21.560   3.741   0.358
51965W        W13386  31.031  14.774   0.247
51966W        W13387  13.813  29.128  14.896
51967W        W13388  22.162  16.569  13.810
51968W        W13389  14.776   4.815   9.963
51969W        W13390  36.990   1.739   3.226
51970W        W13391  43.303  41.352   0.797
51971W        W13392  38.368  31.144   2.829
51972W        W13393  22.038  37.401  12.913
51973W        W13394  43.343  18.625  10.407
51974W        W13395  10.728   4.779  11.394
51975W        W13396  33.529  43.448  13.964
51976W        W13397  30.098   9.220  13.465
51977W        W13398   5.306  17.074   2.347
51978W        W13399   7.180   5.278   3.193
51979W        W13400  20.209  31.908   0.868
51980W        W13401   9.199  21.062   1.440
51981W        W13402  38.925  10.211   3.700
51982W        W13403  44.848  41.888  13.823
51983W        W13404  42.450  12.298   1.295
51984W        W13405  16.651  39.024  12.516
51985W        W13406   3.323  43.917   0.790
51986W        W13407  23.498   6.351  14.775
51987W        W13408  15.321  42.846  11.865
51988W        W13409  37.354  29.617   3.834
51989W        W13410  14.723   8.320   4.277
51990W        W13411  37.381  44.339  10.897
51991W        W13412  33.005  21.106  10.463
51992W        W13413  13.322  18.093  11.861
51993W        W13414  11.201  39.473   1.903
51994W        W13415  14.729  11.760   3.279
51995W        W13416   3.804  22.073   2.700
51996W        W13417  44.859  33.951  13.531
51997W        W13418   7.213  24.229  14.993
51998W        W13419  39.000  27.575  14.027
51999W        W13420   9.707  32.064   4.176
52000W        W13421  42.345  21.727   0.428
52001W        W13422  11.809  37.910  14.316
52002W        W13423  34.888  29.553  11.012
52003W        W13424  37.424  11.174  14.908
52004W        W13425   6.745  11.671   2.412
52005W        W13426  32.559  33.545  12.894
52006W        W13427  22.178   9.720   3.635
52007W        W13428  40.423  22.564   1.221
52008W        W13429  26.494  18.691   1.373
52009W        W13430  30.068   3.849  10.595
52010W        W13431  11.157  23.024   0.946
52011W        W13432  10.673  27.042   2.811
52012W        W13433   4.398  22.117   4.256
52013W        W13434  25.553  42.872   3.775
52014W        W13435  11.332  41.354  12.013
52015W        W13436   7.200  23.009  11.515
52016W        W13437  37.850  22.173   2.395
52017W        W13438  13.182  23.100  11.594
52018W        W13439  42.851  18.065  11.559
52019W        W13440  36.075  38.402  12.343
52020W        W13441   7.827  35.937  12.390
52021W        W13442  29.439  33.430  13.803
52022W        W13443   8.660   5.725   3.185
52023W        W13444  19.776  39.950  12.910
52024W        W13445   9.358  25.201  13.465
52025W        W13446  12.835   6.790   4.611
52026W        W13447  36.025  21.644  13.338
52027W        W13448   7.253   3.836  14.012
52028W        W13449  37.392  29.025   1.260
52029W        W13450  33.587  37.070   3.700
52030W        W13451  12.267  25.690   1.319
52031W        W13452  30.093  42.331  12.896
52032W        W13453  38.442   6.310  14.850
52033W        W13454  37.490  37.009  12.442
52034W        W13455   1.774   9.245  13.956
52035W        W13456  34.910  20.171   1.826
52036W        W13457  42.776   6.823  13.844
52037W        W13458   3.254  29.158   3.639
52038W        W13459  10.858   4.320  10.996
52039W        W13460  35.587  26.486   5.292
52040W        W13461  31.113   7.332   1.887
52041W        W13462  44.771  30.413   0.320
52042W        W13463   0.786  41.428  10.930
52043W        W13464  37.387  15.817  12.383
52044W        W13465  13.142  11.758   0.786
52045W        W13466  42.811  37.535   3.336
52046W        W13467  42.301   2.308  13.889
52047W        W13468  11.802   4.388  12.980
52048W        W13469  38.564   1.399  13.429
52049W        W13470   6.333   2.735   0.455
52050W        W13471  27.542   9.155   4.291
52051W        W13472  19.673  23.533  13.355
52052W        W13473  34.993   1.403   2.792
52053W        W13474  24.229  19.122   3.828
52054W        W13475  43.789  40.423  13.428
52055W        W13476  27.538  32.494  12.965
52056W        W13477   2.886   2.946   0.940
52057W        W13478  34.453  25.650   1.379
52058W        W13479   5.331   6.703   4.207
52059W        W13480   3.775  12.147  12.029
52060W        W13481  40.471  30.590  13.442
52061W        W13482  27.502   5.806  14.892
52062W        W13483  39.332  14.624   0.727
52063W        W13484  42.284  14.787   1.251
52064W        W13485  34.380  34.609   0.282
52065W        W13486   0.975  35.503  13.039
52066W        W13487  44.437  36.448   3.847
52067W        W13488  29.553  14.113  14.327
52068W        W13489  34.520   4.808  10.607
52069W        W13490  37.516  42.795   3.235
52070W        W13491   6.703  34.085  10.928
52071W        W13492  41.525   4.398   0.936
52072W        W13493  13.254  28.000   5.112
52073W        W13494  26.568  44.312  13.059
52074W        W13495  16.241   9.149   2.781
52075W        W13496  14.616  16.635   1.807
52076W        W13497  35.055  19.274   3.232
52077W        W13498  29.666  26.068   1.720
52078W        W13499  37.038  43.835   2.388
52079W        W13500  14.649  40.871  14.010
52080W        W13501  13.215   4.374   3.850
52081W        W13502   8.875  22.166  12.488
52082W        W13503  39.394  25.666   3.660
52083W        W13504   2.359  19.266  14.336
52084W        W13505  19.152  38.863  14.865
52085W        W13506   7.334   3.342  14.016
52086W        W13507  42.893  40.311   3.642
52087W        W13508  13.250  38.049   4.274
52088W        W13509   7.299  22.249   4.770
52089W        W13510  13.618   7.878   0.850
52090W        W13511  15.691  15.604  13.794
52091W        W13512   2.274  25.660  12.092
52092W        W13513  15.146   5.873  12.435
52093W        W13514   1.796  39.877  13.033
52094W        W13515  26.458  27.503  11.041
52095W        W13516  22.577  44.345   4.144
52096W        W13517  33.992  19.772  14.307
52097W        W13518   3.310  26.652   2.678
52098W        W13519  36.040  42.491   3.152
52099W        W13520   6.735  35.527  12.996
52100W        W13521  31.046   0.976  10.478
52101W        W13522  10.193   9.311   3.684
52102W        W13523  12.349   6.809  12.349
52103W        W13524  21.710  37.058   2.836
52104W        W13525   4.877   6.365   1.386
52105W        W13526   4.927  31.440   0.757
52106W        W13527  39.381  11.842  11.941
52107W        W13528  22.674  43.997   0.911
52108W        W13529  35.913  16.249   0.735
52109W        W13530  25.020  39.899   1.705
52110W        W13531  36.411  17.201  11.427
52111W        W13532   8.895  19.584   4.226
52112W        W13533  15.809  13.687   1.914
52113W        W13534  10.353  43.351   1.837
52114W        W13535  36.931  28.641   1.308
52115W        W13536   5.701  11.331   0.377
52116W        W13537  14.319  34.104   4.295
52117W        W13538   2.861  27.490  12.002
52118W        W13539  20.603  23.142   1.763
52119W        W13540  39.314   0.276   0.370
52120W        W13541  11.239  35.581   2.372
52121W        W13542  41.019  11.218   0.737
52122W        W13543   0.317  11.827  14.907
52123W        W13544   6.887  37.481   0.418
52124W        W13545  36.425  17.109  12.836
52125W        W13546   6.780  11.181   3.859
52126W        W13547  39.901  32.993  14.467
52127W        W13548  22.737  24.670  12.875
52128W        W13549  24.038  29.959   2.356
52129W        W13550  41.995   2.844   3.837
52130W        W13551   8.830  23.494  10.041
52131W        W13552  17.790  31.484   1.839
52132W        W13553   6.399   1.423   1.275
52133W        W13554  42.817  18.655   4.157
52134W        W13555  22.083   2.422   3.803
52135W        W13556  44.810  22.696  10.463
52136W        W13557  38.916  12.676  14.327
52137W        W13558  27.479  32.085  10.028
52138W        W13559  28.671   6.279  12.483
52139W        W13560  42.995   8.397   1.332
52140W        W13561  39.832   3.323  12.004
52141W        W13562  27.552  13.211  13.955
52142W        W13563  38.000  42.407   0.295
52143W        W13564  12.697   7.730   1.899
52144W        W13565  18.258  17.170   3.694
52145W        W13566  39.894  15.623   4.162
52146W        W13567  41.791   0.315   0.390
52147W        W13568  20.140  29.115  13.018
52148W        W13569   4.712  18.190  10.597
52149W        W13570  40.958  21.086   2.736
52150W        W13571   5.204  44.418   4.231
52151W        W13572  43.913   0.942  14.389
52152W        W13573   0.286  20.735   2.757
52153W        W13574  36.525  16.252  11.559
52154W        W13575  40.442  25.165  11.103
52155W        W13576  19.248   6.703   3.334
52156W        W13577  43.991  18.286  14.976
52157W        W13578  32.952  12.762   3.315
52158W        W13579   4.888  36.460  13.840
52159W        W13580  15.683  30.936   0.899
52160W        W13581  28.521   1.249  14.423
52161W        W13582  29.995  21.566   1.232
52162W        W13583  43.471  37.866   0.935
52163W        W13584   6.838  17.296   4.639
52164W        W13585  17.608  33.496   2.706
52165W        W13586   2.722   0.965  10.631
52166W        W13587   4.241  12.792   4.707
52167W        W13588  18.091  16.127   1.287
52168W        W13589  13.309  10.804   2.684
52169W        W13590   9.219  18.730  14.781
52170W        W13591  33.899  42.863   3.771
52171W        W13592  12.611  39.990  10.599
52172W        W13593  33.110  12.214  14.485
52173W        W13594  27.569  35.568  12.937
52174W        W13595  31.128   5.778   4.691
52175W        W13596  19.231  33.036   4.328
52176W        W13597   4.283  32.435   0.267
52177W        W13598  35.060  14.600  11.012
52178W        W13599  42.345  43.479  13.311
52179W        W13600  31.051  29.542  14.791
52180W        W13601  38.921  34.073  14.384
52181W        W13602   2.387   5.257  10.525
52182W        W13603  44.448  43.509  12.958
52183W        W13604  38.941  11.850   4.752
52184W        W13605  25.003  25.467   1.355
52185W        W13606  32.080   8.165  11.376
52186W        W13607   3.331   2.266   1.357
52187W        W13608  18.581   7.771   4.171
52188W        W13609  30.561   1.361  13.981
52189W        W13610  13.683  17.586   1.719
52190W        W13611  13.703  28.022   4.809
52191W        W13612   4.283  37.554   3.239
52192W        W13613  17.074  41.436   1.336
52193W        W13614  36.933   3.313  12.580
52194W        W13615  37.083  36.942   3.837
52195W        W13616  12.226  32.565  11.605
52196W        W13617  22.036  34.542   1.851
52197W        W13618  33.505   1.756   1.748
52198W        W13619  32.123  32.508  12.873
52199W        W13620  15.086  13.251   0.474
52200W        W13621   3.377  32.420   2.283
52201W        W13622  33.611  18.076  14.840
52202W        W13623  34.068  17.093  10.496
52203W        W13624  12.343   6.362  14.965
52204W        W13625  20.222  12.681  11.006
52205W        W13626  20.273  17.286   9.930
52206W        W13627  11.130  42.285   2.416
52207W        W13628  25.052  31.084   0.299
52208W        W13629  43.372  32.999  13.467
52209W        W13630  11.839  39.503   0.455
52210W        W13631  11.231   2.906   3.642
52211W        W13632  13.276  35.446   0.480
52212W        W13633  23.703   7.364  14.815
52213W        W13634  12.714  35.519   1.436
52214W        W13635  23.663  30.954  12.366
52215W        W13636   0.375  40.841   3.377
52216W        W13637   8.766   3.854   2.246
52217W        W13638  22.636   7.372   3.737
52218W        W13639  40.543  27.487  14.791
52219W        W13640  11.184   0.454   4.118
52220W        W13641   5.754  23.064   2.796
52221W        W13642  27.620   9.315  13.345
52222W        W13643  23.493   7.387  13.487
52223W        W13644  13.157   9.730  11.572
52224W        W13645  23.113  14.178  12.413
52225W        W13646  22.544   1.449   2.666
52226W        W13647  14.662  30.068   2.400
52227W        W13648  44.388  13.159  11.919
52228W        W13649   6.320  31.427   4.307
52229W        W13650   3.725  10.757   0.424
52230W        W13651  27.475  38.015  12.419
52231W        W13652  19.753  43.809  10.558
52232W        W13653  40.799  41.923  11.073
52233W        W13654  28.442  36.888  10.484
52234W        W13655  32.515  18.235   3.199
52235W        W13656  23.048  35.532  11.532
52236W        W13657  26.576  21.062   5.102
52237W        W13658  34.498  24.655  11.597
52238W        W13659  34.432   6.383   3.681
52239W        W13660  40.421  32.123   0.447
52240W        W13661  25.517  41.391  12.502
52241W        W13662   1.803   9.828   2.347
52242W        W13663   5.399  18.684  14.842
52243W        W13664  27.674  30.431   3.288
52244W        W13665   3.459  28.157   3.173
52245W        W13666  28.574  15.227   4.725
52246W        W13667  10.665  41.411  13.442
52247W        W13668  27.952  16.636   0.910
52248W        W13669  36.547  37.053   4.197
52249W        W13670   8.361  38.961  14.030
52250W        W13671  36.512  14.149   5.190
52251W        W13672  15.115  25.116   0.784
52252W        W13673  12.201  42.312  13.338
52253W        W13674  15.231  23.497  12.978
52254W        W13675  27.071  37.575  12.906
52255W        W13676  11.190   7.403   3.349
52256W        W13677  44.503  34.510  12.873
52257W        W13678  34.968  30.554  12.029
52258W        W13679  13.140   9.647   3.238
52259W        W13680  29.635  13.235  14.505
52260W        W13681   7.284  37.436  14.798
52261W        W13682  14.687  33.531   5.100
52262W        W13683  29.619  41.016  14.300
52263W        W13684  43.012  29.948   2.787
52264W        W13685  42.349  23.240   1.857
52265W        W13686   2.951  18.635  10.425
52266W        W13687  29.649  28.518  14.486
52267W        W13688  36.477   6.287  11.122
52268W        W13689  31.444  26.069  11.525
52269W        W13690  41.515  29.555  11.878
52270W        W13691  33.954  31.622   1.444
52271W        W13692  18.652  30.580   3.179
52272W        W13693  39.396  10.809   4.705
52273W        W13694  21.697  19.102   4.331
52274W        W13695   6.795  20.038   3.678
52275W        W13696   1.242  44.905  10.546
52276W        W13697  18.770  28.106   3.220
52277W        W13698  18.186   1.461   4.761
52278W        W13699   0.423  14.734  10.455
52279W        W13700  21.580  36.968   2.359
52280W        W13701  29.043  28.453   4.187
52281W        W13702  23.658  11.356   3.239
52282W        W13703  24.714  39.354   0.247
52283W        W13704   1.340   9.232   2.259
52284W        W13705  41.991   7.770  12.884
52285W        W13706  12.332  17.157   2.418
52286W        W13707  34.509  38.823  11.892
52287W        W13708  31.541   9.245   1.384
52288W        W13709   6.789  26.171   4.770
52289W        W13710  15.145  16.155   2.899
52290W        W13711  20.729  33.446  11.990
52291W        W13712  27.670  32.074   3.186
52292W        W13713  43.462  11.238   0.396
52293W        W13714  42.837  32.031  12.904
52294W        W13715  25.204  30.612   1.245
52295W        W13716  16.580  25.077   1.238
52296W        W13717  17.155  20.655   0.727
52297W        W13718  13.115  32.887  10.968
52298W        W13719  29.655  17.118  11.450
52299W        W13720   2.779   1.280  11.920
52300W        W13721  42.347  30.057   0.737
52301W        W13722  38.921  19.258  11.397
52302W        W13723  40.941   1.417   3.724
52303W        W13724  36.418  18.243   0.245
52304W        W13725  42.918  41.359   2.712
52305W        W13726  18.291  24.217   2.679
52306W        W13727  44.983  23.123   0.394
52307W        W13728  20.750  33.572  14.822
52308W        W13729  37.852   1.822   0.866
52309W        W13730  29.111  18.716   4.776
52310W        W13731  34.014   2.326   0.857
52311W        W13732   1.265  13.800  10.935
52312W        W13733   2.740  24.123   0.960
52313W        W13734  35.468  32.886  14.412
52314W        W13735  24.496  35.401  12.537
52315W        W13736  40.887  22.044   2.878
52316W        W13737  21.625  11.334  10.561
52317W        W13738  42.294  31.470  14.027
52318W        W13739  35.482  41.442   2.246
52319W        W13740  43.393  39.319   4.735
52320W        W13741  19.128  32.106  10.905
52321W        W13742   4.870  11.761   3.158
52322W        W13743  25.207  10.709  12.525
52323W        W13744  33.551  31.640   3.314
52324W        W13745   8.373  14.820  14.809
52325W        W13746   9.819   0.271   2.351
52326W        W13747  17.271  24.114   2.380
52327W        W13748  11.680  32.055  13.938
52328W        W13749  15.300  30.128   0.284
52329W        W13750   4.928  23.732   0.327
52330W        W13751  40.974  38.505  13.493
52331W        W13752  17.194  43.020   2.850
52332W        W13753  22.570  11.836  14.884
52333W        W13754  25.641  18.145   1.347
52334W        W13755  16.115  39.899   3.812
52335W        W13756  11.321   5.743  12.948
52336W        W13757  29.538   6.298  10.033
52337W        W13758  22.130  34.874  14.361
52338W        W13759   3.272  15.596   4.691
52339W        W13760  23.529  41.901   3.151
52340W        W13761  10.753   1.888  11.014
52341W        W13762  39.526  11.732   1.344
52342W        W13763   2.397  24.582  11.587
52343W        W13764   8.761  40.344   1.321
52344W        W13765  44.474  12.818  13.415
52345W        W13766  11.819   4.292   3.173
52346W        W13767   7.228  32.436  14.789
52347W        W13768  30.921  29.922  13.972
52348W        W13769  32.592  31.089  11.877
52349W        W13770   2.322  18.188   2.792
52350W        W13771   4.373  43.899   0.942
52351W        W13772  35.487   2.733   1.884
52352W        W13773  23.723  36.467   0.336
52353W        W13774  36.570   1.288  14.431
52354W        W13775  40.896  17.794   1.808
52355W        W13776  44.860  30.480   2.212
52356W        W13777   5.358  23.143  11.555
52357W        W13778   8.355  44.922   2.193
52358W        W13779  36.349   0.809  10.410
52359W        W13780  20.227  29.454  12.870
52360W        W13781  25.019  20.658  13.509
52361W        W13782  32.031  22.694  11.591
52362W        W13783  31.632  13.214   1.276
52363W        W13784  27.125  28.169  14.459
52364W        W13785  16.194   3.777   0.280
52365W        W13786   7.306  18.250   4.230
52366W        W13787  29.950  17.645   0.398
52367W        W13788   2.465   0.385   4.696
52368W        W13789  32.067  23.535  10.996
52369W        W13790   0.917   0.880  14.489
52370W        W13791  30.571  11.181   0.726
52371W        W13792  44.908   0.866  11.388
52372W        W13793   6.790   6.708   1.823
52373W        W13794   9.752   4.348   3.188
52374W        W13795  19.639   3.383  13.352
52375W        W13796  21.061  32.920   4.154
52376W        W13797  43.406   8.331  12.984
52377W        W13798   1.349  40.868  14.332
52378W        W13799  14.605  19.744  11.089
52379W        W13800  44.944  30.489  14.935
52380W        W13801  37.348  13.793   2.823
52381W        W13802  11.821  17.189  12.035
52382W        W13803  11.243   7.890   3.158
52383W        W13804   1.458  23.700  14.766
52384W        W13805  25.013  42.502  13.966
52385W        W13806  33.505  35.567  10.908
52386W        W13807  42.895  13.336  12.401
52387W        W13808  34.004  27.967  14.888
52388W        W13809  26.513  13.206   4.704
52389W        W13810  43.338  16.224   4.731
52390W        W13811  36.428  39.885   3.751
52391W        W13812  14.219  24.547   0.872
52392W        W13813  28.592  15.760  14.369
52393W        W13814  22.071  36.514   4.197
52394W        W13815  37.437  13.705   1.823
52395W        W13816   4.803   9.760  13.468
52396W        W13817   4.889  12.723   4.243
52397W        W13818  29.567  17.231  11.869
52398W        W13819  25.174  24.582   1.794
52399W        W13820   4.411  24.602  10.644
52400W        W13821  42.417  38.540  12.021
52401W        W13822  15.649  35.928  10.008
52402W        W13823  22.221  29.575  11.541
52403W        W13824  39.977  17.080   3.149
52404W        W13825   3.816   1.427   4.153
52405W        W13826  30.935   8.662   3.697
52406W        W13827   4.846  40.439  10.888
52407W        W13828  31.426   8.232   0.479
52408W        W13829  21.654   9.698  12.364
52409W        W13830  27.112  42.520  12.968
52410W        W13831  21.115  12.209   1.432
52411W        W13832   1.735  35.895  12.535
52412W        W13833  19.255  17.595  14.018
52413W        W13834  24.632  20.726   0.751
52414W        W13835   4.912  31.439   1.239
52415W        W13836  20.537  17.700   0.298
52416W        W13837  42.357   7.241  10.462
52417W        W13838   6.678  34.966  13.402
52418W        W13839   9.272  13.110   2.885
52419W        W13840  36.891  25.676  13.021
52420W        W13841  11.187  12.772   4.685
52421W        W13842  33.585  38.047   4.687
52422W        W13843   7.723  27.689  10.578
52423W        W13844   3.338   9.173   0.337
52424W        W13845  26.665  38.485  12.989
52425W        W13846  16.743  22.200   2.207
52426W        W13847  15.687  30.465  12.558
52427W        W13848  27.453  36.977  11.426
52428W        W13849  11.722  24.213  13.933
52429W        W13850  34.587   3.308  12.029
52430W        W13851  28.168   9.228   1.346
52431W        W13852  38.382  35.528  13.499
52432W        W13853  39.058   1.868  13.797
52433W        W13854  12.757   1.787  13.023
52434W        W13855  13.812  32.996   3.225
52435W        W13856  33.422  29.981   3.744
52436W        W13857  30.655  19.167  14.006
52437W        W13858  22.047  26.568   1.724
52438W        W13859  39.840  20.232   3.755
52439W        W13860  40.888  36.592   2.820
52440W        W13861   0.402  14.251  12.574
52441W        W13862  38.859  13.130  14.380
52442W        W13863  33.442  16.670  12.372
52443W        W13864  28.668  29.605  11.882
52444W        W13865  31.150  44.386   3.166
52445W        W13866  35.976  28.604   0.914
52446W        W13867  42.523  34.594  12.497
52447W        W13868  32.399  18.294  12.893
52448W        W13869  31.101  19.722   1.924
52449W        W13870  25.714  15.640   0.754
52450W        W13871  40.847  24.018  12.923
52451W        W13872  14.119  28.461  10.058
52452W        W13873   3.221  13.235  11.515
52453W        W13874  17.729  10.206   3.663
52454W        W13875  21.682  29.093   3.306
52455W        W13876  24.514  22.619   0.743
52456W        W13877   1.243   3.236   2.784
52457W        W13878  10.671  44.300   4.303
52458W        W13879  12.136  23.164  14.940
52459W        W13880  10.314  29.565  10.025
52460W        W13881  14.816  43.799   0.380
52461W        W13882  41.467   6.780   1.239
52462W        W13883  32.412  32.037  14.490
52463W        W13884  42.775   6.795  11.098
52464W        W13885  27.674  23.026  14.954
52465W        W13886  43.925  16.074   0.890
52466W        W13887  10.729  42.806  13.501
52467W        W13888   7.691   6.320   2.377
52468W        W13889  39.361  33.423  13.498
52469W        W13890  35.382   1.958   2.901
52470W        W13891   6.787  10.842  11.017
52471W        W13892  28.963  38.333   3.374
52472W        W13893  25.515   8.218   3.292
52473W        W13894   7.238  36.565   0.821
52474W        W13895  12.128  26.535   1.758
52475W        W13896  42.793  39.524   4.264
52476W        W13897  10.155  40.037   1.431
52477W        W13898  13.309  10.699   4.263
52478W        W13899  28.520  39.409   1.713
52479W        W13900   4.756   2.251  12.941
52480W        W13901  40.404  22.601  10.420
52481W        W13902  38.968  22.687   2.229
52482W        W13903   7.266  38.965  12.927
52483W        W13904  37.352  14.200   2.686
52484W        W13905  29.595  33.561  12.381
52485W        W13906  26.690  36.084  13.306
52486W        W13907  17.080  39.396  14.464
52487W        W13908  38.880  16.594  12.511
52488W        W13909  12.767  44.989  11.962
52489W        W13910  35.050  11.735   1.788
52490W        W13911  38.877  26.056  11.028
52491W        W13912  21.649  34.509  11.967
52492W        W13913  30.019   0.915  12.009
52493W        W13914  33.979  20.109   3.771
52494W        W13915  12.297   1.237  10.412
52495W        W13916  38.407  19.620  14.007
52496W        W13917   4.245   5.927  13.496
52497W        W13918  25.710  23.499  12.996
52498W        W13919  21.683  37.537  11.116
52499W        W13920  21.546  44.363  12.945
52500W        W13921   4.848  39.407  12.559
52501W        W13922  22.533  40.923  12.032
52502W        W13923  14.189  37.504  13.062
52503W        W13924  16.287  29.500  10.960
52504W        W13925  35.509   8.377   4.136
52505W        W13926  24.577   9.237  10.484
52506W        W13927  42.439  39.334  11.589
52507W        W13928  35.953  11.239  14.924
52508W        W13929  44.755  24.585  11.012
52509W        W13930  33.934  26.616   4.759
52510W        W13931  38.929  34.064  12.465
52511W        W13932  17.712  18.598   1.812
52512W        W13933  38.873   3.325  10.075
52513W        W13934  26.688  43.360  14.369
52514W        W13935   1.461  17.182   2.742
52515W        W13936  17.591  24.690  11.111
52516W        W13937  43.914  24.531   0.943
52517W        W13938  10.648  29.000  10.583
52518W        W13939  41.042  18.080   3.663
52519W        W13940  29.558  38.511  12.399
52520W        W13941  35.107  32.950  13.523
52521W        W13942  29.502  31.501   0.739
52522W        W13943  37.986  41.787   1.935
52523W        W13944  37.434  24.485  12.556
52524W        W13945   5.862  29.503   3.737
52525W        W13946  37.433  13.669  13.812
52526W        W13947  35.448  27.463   0.479
52527W        W13948  21.031  30.974  10.454
52528W        W13949  29.170   0.485   0.742
52529W        W13950  21.529  15.706  13.953
52530W        W13951  37.348   6.767  11.865
52531W        W13952  43.418  42.860   2.300
52532W        W13953  30.574   0.956   3.220
52533W        W13954  34.554  28.123   1.260
52534W        W13955   1.263  15.255  10.602
52535W        W13956   1.440  44.788  13.450
52536W        W13957  37.914   7.909  13.494
52537W        W13958   0.988  41.960  11.061
52538W        W13959  29.935  22.108   2.661
52539W        W13960  13.796  31.624  11.109
52540W        W13961  18.289   9.158   2.770
52541W        W13962  40.537  20.583  11.001
52542W        W13963  41.917  34.612  14.322
52543W        W13964   5.879   9.155   0.416
52544W        W13965  40.519  16.277   3.351
52545W        W13966  41.818   8.742   1.449
52546W        W13967  21.675  25.054  11.570
52547W        W13968  41.504  18.267   0.822
52548W        W13969  22.211  43.420   2.874
52549W        W13970  33.961  14.620  10.088
52550W        W13971  24.021  29.119   3.764
52551W        W13972  15.132   6.311   2.713
52552W        W13973   4.699  12.144  12.926
52553W        W13974  17.588  44.824  11.030
52554W        W13975   3.816  44.272   2.708
52555W        W13976   9.735   5.197  13.424
52556W        W13977  28.630  16.638  13.373
52557W        W13978  17.192  14.656  12.423
52558W        W13979  35.976  23.736  12.564
52559W        W13980  41.401   2.810  11.100
52560W        W13981  44.332  22.215   4.290
52561W        W13982  12.849  38.862   0.466
52562W        W13983  12.161  21.072   1.345
52563W        W13984  26.560   7.206  12.948
52564W        W13985  24.015  38.394  13.412
52565W        W13986  32.560  12.660  11.549
52566W        W13987  23.702   4.366   4.800
52567W        W13988  14.258   9.360  14.461
52568W        W13989  43.463  28.963   0.762
52569W        W13990  36.860  32.528   2.217
52570W        W13991  20.569  27.479  10.492
52571W        W13992  30.019  42.943  11.897
52572W        W13993  12.359   3.791   1.728
52573W        W13994  29.635  34.024   1.357
52574W        W13995  15.621  43.990  11.029
52575W        W13996  43.331  16.646   1.400
52576W        W13997  35.403  33.468   0.398
52577W        W13998  24.491  44.278  13.878
52578W        W13999   0.283  20.730  13.989
52579W        W14000  18.287  31.648  14.344
52580W        W14001   8.167   9.841  11.872
52581W        W14002   8.244  39.384  13.055
52582W        W14003  29.605   5.859   4.245
52583W        W14004   6.877   4.780   1.229
52584W        W14005  29.077  39.329  12.554
52585W        W14006  33.508  22.079   3.329
52586W        W14007  43.768  40.995  14.883
52587W        W14008   1.449  20.537  13.052
52588W        W14009  13.219  21.120   1.778
52589W        W14010   4.782  21.685  10.493
52590W        W14011  14.619  25.695   2.732
52591W        W14012  12.787  36.402   3.662
52592W        W14013   8.686   1.457   0.910
52593W        W14014  11.852  44.379  11.462
52594W        W14015  40.920  40.415  11.890
52595W        W14016   3.754  19.640  14.345
52596W        W14017  14.159  21.198   0.423
52597W        W14018  11.310   4.311  12.411
52598W        W14019  39.011  34.487   4.636
52599W        W14020  29.492  23.574   0.478
52600W        W14021  16.654  40.988   0.387
52601W        W14022   3.342   0.919  10.068
52602W        W14023  11.250  32.468   2.390
52603W        W14024   0.310   0.802  14.427
52604W        W14025  15.169   6.362  13.827
52605W        W14026  40.409  34.378  10.490
52606W        W14027  26.541  40.372  12.467
52607W        W14028  43.281  19.125  12.027
52608W        W14029  43.983  13.676   3.387
52609W        W14030   6.237  13.703  14.484
52610W        W14031  38.850  40.322   3.243
52611W        W14032  13.233  39.916   4.208
52612W        W14033  31.627   2.253  14.990
52613W        W14034  33.515   1.320   4.813
52614W        W14035  34.994   5.755   2.675
52615W        W14036  39.902  13.800   3.664
52616W        W14037  19.048  43.939   2.855
52617W        W14038   6.346  28.139  12.865
52618W        W14039   3.352  31.605   2.725
52619W        W14040  19.272  39.897   3.631
52620W        W14041  23.502  11.841  11.957
52621W        W14042   2.233   6.270   4.319
52622W        W14043  37.922   8.707  11.090
52623W        W14044   3.252  22.668  11.937
52624W        W14045  35.879  35.068   2.750
52625W        W14046  39.398  34.019  13.374
52626W        W14047  39.337  30.964   1.815
52627W        W14048  42.897   5.808   0.365
52628W        W14049  26.520  32.456   1.319
52629W        W14050  41.309  40.457  12.093
52630W        W14051  29.005   8.276   3.639
52631W        W14052  13.237  26.956  14.308
52632W        W14053  38.373  23.615  14.001
52633W        W14054  15.592   5.838  11.606
52634W        W14055  36.472  18.202  14.019
52635W        W14056  29.467  29.982  10.439
52636W        W14057  38.415  16.223  13.488
52637W        W14058  22.564  20.126  12.884
52638W        W14059  10.220  25.193  13.014
52639W        W14060  23.595  44.442  11.878
52640W        W14061  25.469  29.084   1.408
52641W        W14062   3.716  37.343  10.623
52642W        W14063  17.629   7.254  12.456
52643W        W14064  27.004  21.164   3.377
52644W        W14065  11.752  31.141   4.260
52645W        W14066   9.268  13.199  10.917
52646W        W14067  28.678  31.936  12.377
52647W        W14068  35.865   6.199   4.811
52648W        W14069  42.008  44.302  13.872
52649W        W14070  13.234  43.843  14.494
52650W        W14071  21.608   0.273   4.349
52651W        W14072  26.078  37.026  10.536
52652W        W14073  25.581   3.815  11.992
52653W        W14074  13.244  24.549  12.063
52654W        W14075  24.642  10.167   4.719
52655W        W14076   6.834  22.699   1.395
52656W        W14077  29.955  28.487  12.580
52657W        W14078  16.595  24.538   1.859
52658W        W14079  31.444  25.111   2.813
52659W        W14080  24.176  31.138   0.453
52660W        W14081  30.040  35.910  12.468
52661W        W14082  43.419  18.763   3.833
52662W        W14083  44.356  39.952  11.453
52663W        W14084  14.242  34.589   1.807
52664W        W14085   2.243  43.901  12.431
52665W        W14086  20.526   7.407  11.512
52666W        W14087  18.678  15.718   2.833
52667W        W14088  25.680  35.875   3.253
52668W        W14089  13.778  22.239   0.395
52669W        W14090  12.709   8.873   1.267
52670W        W14091  10.739  39.449   2.281
52671W        W14092  21.524  43.954  11.437
52672W        W14093  21.097  44.005  11.935
52673W        W14094  35.090  37.024   4.830
52674W        W14095  36.403   8.715  11.898
52675W        W14096  43.993   0.466   1.838
52676W        W14097   9.357  32.906   2.746
52677W        W14098   8.226  17.183  12.525
52678W        W14099  39.812  24.637   1.437
52679W        W14100  33.105   7.287  10.898
52680W        W14101  14.100  15.621  12.060
52681W        W14102  10.174   0.894   0.407
52682W        W14103  37.464  43.431  12.092
52683W        W14104   0.985  36.901   4.817
52684W        W14105   3.216  39.483  13.796
52685W        W14106   3.865  38.553  13.026
52686W        W14107  32.960  23.239   0.260
52687W        W14108  26.057  39.011  11.118
52688W        W14109  11.809  40.970  13.404
52689W        W14110  28.176   3.398  10.080
52690W        W14111  40.404  39.328   0.847
52691W        W14112  13.813  20.161  11.934
52692W        W14113  10.200  43.881   3.275
52693W        W14114  42.968  19.751  14.411
52694W        W14115   1.416  15.192  11.482
52695W        W14116  16.704  20.582   3.675
52696W        W14117  32.922  44.289  12.359
52697W        W14118  28.652  42.894  13.026
52698W        W14119  12.163  11.231   2.351
52699W        W14120   7.385  24.518   1.221
52700W        W14121   1.348  41.353  10.578
52701W        W14122  28.518  29.144   1.706
52702W        W14123  40.921  15.777  12.477
52703W        W14124  27.032  13.628  13.387
52704W        W14125  33.582  43.781  10.442
52705W        W14126  14.741  20.612  10.612
52706W        W14127   7.874  39.829  12.353
52707W        W14128   1.422   9.654   3.360
52708W        W14129  19.257  30.634  10.919
52709W        W14130  26.006  25.054   1.389
52710W        W14131  18.263  41.430  11.542
52711W        W14132  13.302  43.432   1.428
52712W        W14133   1.898   3.454  14.768
52713W        W14134  17.228  38.507  12.824
52714W        W14135  14.304   4.273  11.561
52715W        W14136  15.754  35.902   2.728
52716W        W14137  33.435  41.326   3.179
52717W        W14138  42.478   9.866  13.855
52718W        W14139  29.147  36.584   1.410
52719W        W14140   0.919  40.027  14.775
52720W        W14141  15.693  27.503  11.599
52721W        W14142  23.584   2.779  13.907
52722W        W14143  33.075  35.438  11.570
52723W        W14144  35.057  20.524  12.978
52724W        W14145  38.350   0.788  11.436
52725W        W14146  33.106  44.908   0.950
52726W        W14147  14.262  10.732   2.323
52727W        W14148  27.481  30.563   1.881
52728W        W14149   1.443  29.659   9.986
52729W        W14150  37.377  44.456  13.943
52730W        W14151  44.377  18.285  13.309
52731W        W14152  17.678  13.109   4.674
52732W        W14153   6.187  39.527   1.388
52733W        W14154   7.268  39.445   0.285
52734W        W14155   3.461  28.470   0.243
52735W        W14156  32.927  19.744  14.345
52736W        W14157   3.230   3.718  10.948
52737W        W14158   1.958  38.974   0.816
52738W        W14159   6.737   7.285   3.260
52739W        W14160  40.045   7.789  13.821
52740W        W14161  11.824   2.363   1.760
52741W        W14162   2.896  41.979  13.926
52742W        W14163  44.289  19.224   2.745
52743W        W14164  31.579  17.644  12.986
52744W        W14165  15.264  14.600  11.996
52745W        W14166  19.632  36.453   2.728
52746W        W14167  33.949   4.940   2.372
52747W        W14168  43.339  36.048   3.868
52748W        W14169  37.572  35.493  11.901
52749W        W14170  12.688  20.174   4.287
52750W        W14171   8.342  22.566   4.145
52751W        W14172  15.104  13.695  13.369
52752W        W14173  35.539  33.968  11.390
52753W        W14174  10.696   9.288  13.377
52754W        W14175  41.421   8.744   4.319
52755W        W14176  19.569  12.738  13.851
52756W        W14177  44.991  31.503   1.931
52757W        W14178  37.517   5.296   3.844
52758W        W14179  35.592  21.711   4.152
52759W        W14180  13.774  40.878   1.290
52760W        W14181  44.854  16.173   0.261
52761W        W14182  13.199  28.461  11.962
52762W        W14183  16.785  31.001  12.010
52763W        W14184   2.313  29.466  12.444
52764W        W14185  21.717   3.867  13.412
52765W        W14186  10.256  35.462   4.604
52766W        W14187  31.950  15.691  10.899
52767W        W14188  31.557  17.156   1.925
52768W        W14189  34.431  31.555  13.491
52769W        W14190  35.064  16.764  12.343
52770W        W14191   9.765   5.273   2.824
52771W        W14192  28.638  25.006   4.769
52772W        W14193  29.548  39.483   2.902
52773W        W14194   5.412  37.987   4.751
52774W        W14195   7.411  29.118  11.537
52775W        W14196  34.475   3.876  14.843
52776W        W14197  27.182  14.796   0.754
52777W        W14198  41.939  22.183   0.357
52778W        W14199  39.850  15.682  13.333
52779W        W14200  19.590   2.287  14.329
52780W        W14201  19.630  40.824   3.362
52781W        W14202  16.214   0.861  10.032
52782W        W14203  41.398  26.582  10.520
52783W        W14204   2.247  10.790   4.284
52784W        W14205  32.423  12.285  11.051
52785W        W14206  37.011  36.557   3.737
52786W        W14207  24.606  24.607   4.611
52787W        W14208  22.618  36.952  11.608
52788W        W14209  24.596  44.880  10.630
52789W        W14210  20.183  15.624   1.404
52790W        W14211  19.041   3.855  10.438
52791W        W14212  36.427  16.661  13.924
52792W        W14213  29.994  43.472   3.829
52793W        W14214  42.323   8.836   4.732
52794W        W14215  35.480  18.081  13.313
52795W        W14216  25.611  39.317  11.915
52796W        W14217  40.531  13.108  11.528
52797W        W14218   5.268  28.585  12.088
52798W        W14219  24.550  30.435   1.701
52799W        W14220  14.642   1.370   1.722
52800W        W14221  33.064  12.316  12.483
52801W        W14222   6.921  34.070  11.426
52802W        W14223  25.126  31.511  14.927
52803W        W14224  15.140   7.673   4.636
52804W        W14225  43.349  17.644  11.384
52805W        W14226   1.798  21.244  11.516
52806W        W14227  12.703  33.130  10.965
52807W        W14228  44.353  40.993  13.933
52808W        W14229  12.147  40.834   0.358
52809W        W14230  10.158  13.729  11.564
52810W        W14231  19.615  14.693   2.818
52811W        W14232  43.924  13.112  10.037
52812W        W14233  20.610   9.348  13.824
52813W        W14234  32.898  10.732   5.260
52814W        W14235   3.241   4.274   1.900
52815W        W14236  26.618  23.078   3.700
52816W        W14237  42.009   2.936   1.899
52817W        W14238  17.795  42.851  14.770
52818W        W14239  15.113  30.426   1.223
52819W        W14240  44.481  32.595  10.929
52820W        W14241  26.517  16.081  14.482
52821W        W14242   5.888  21.241   0.951
52822W        W14243  34.868  14.103  11.939
52823W        W14244  30.130  16.162  13.976
52824W        W14245  11.717  19.592   4.699
52825W        W14246   1.246  29.482   0.752
52826W        W14247   9.862  29.650   1.383
52827W        W14248   7.731  34.058   2.408
52828W        W14249  13.823  20.051  12.362
52829W        W14250  39.986  40.428   0.910
52830W        W14251  26.094  21.705   0.925
52831W        W14252  34.944  25.535  13.903
52832W        W14253  11.236  28.585  10.978
52833W        W14254  36.423  35.518  12.032
52834W        W14255  19.072   6.846   9.534
52835W        W14256   5.246  21.546  13.515
52836W        W14257  38.392  26.190   2.844
52837W        W14258  19.076  30.163  11.944
52838W        W14259  36.521  28.058  12.413
52839W        W14260  25.587  41.441   1.392
52840W        W14261   2.841  23.995  13.825
52841W        W14262  28.481  44.479  13.415
52842W        W14263  30.001   3.398  10.127
52843W        W14264  32.022   6.214   2.691
52844W        W14265  33.609  23.182   2.818
52845W        W14266  21.148  30.925  13.875
52846W        W14267  10.310   0.747  11.890
52847W        W14268  15.710   9.823   0.320
52848W        W14269  27.676   6.704  13.899
52849W        W14270  13.829   5.287  14.391
52850W        W14271  40.850  19.086  14.012
52851W        W14272  33.078  43.365   2.315
52852W        W14273   6.186   9.689  14.315
52853W        W14274  28.016  31.599   1.785
52854W        W14275  15.197  12.825   2.725
52855W        W14276   9.330  38.045  12.414
52856W        W14277   1.901  13.265  12.841
52857W        W14278  31.404   8.747   4.733
52858W        W14279   9.234   3.324  13.543
52859W        W14280  18.146  13.340   9.924
52860W        W14281  19.284  22.644   2.683
52861W        W14282  15.277  33.115  13.477
52862W        W14283  27.129  10.175  10.635
52863W        W14284  39.918   3.912  10.924
52864W        W14285  44.948  33.474   3.175
52865W        W14286  12.223   9.198   0.819
52866W        W14287   0.949   3.310   3.294
52867W        W14288  30.131   3.310  14.420
52868W        W14289  13.648  21.658   0.369
52869W        W14290   0.474  12.143  11.465
52870W        W14291   4.703  28.038   0.950
52871W        W14292  26.669   1.754  13.388
52872W        W14293  41.906   1.817   0.424
52873W        W14294  18.722  39.427  14.312
52874W        W14295  16.177   1.370   4.735
52875W        W14296   6.771  20.086  10.545
52876W        W14297  38.378  11.143  11.416
52877W        W14298  38.940  40.455   2.188
52878W        W14299   6.360  26.009  10.015
52879W        W14300  21.024  19.731  11.562
52880W        W14301  37.444  13.751  11.915
52881W        W14302  40.536   9.869   1.289
52882W        W14303  12.816  27.653   0.341
52883W        W14304   8.366   5.734  11.412
52884W        W14305  30.461  40.871  10.418
52885W        W14306   3.237  13.130   1.323
52886W        W14307  24.106  30.526  11.424
52887W        W14308  21.598  18.105   2.226
52888W        W14309  22.682  20.197  12.351
52889W        W14310  32.591  18.782  13.508
52890W        W14311   1.271  10.650   0.878
52891W        W14312  29.980  29.141  13.048
52892W        W14313  10.794   6.804  14.507
52893W        W14314  25.566  15.605   1.856
52894W        W14315  43.286  40.451   3.168
52895W        W14316   7.707  44.498  14.386
52896W        W14317  18.248  37.934  14.890
52897W        W14318  36.481  29.035  11.520
52898W        W14319  34.549   6.880  12.373
52899W        W14320   0.805   2.396   0.309
52900W        W14321  10.723  40.538  11.111
52901W        W14322  27.964  42.918   1.930
52902W        W14323   0.289  33.381   1.789
52903W        W14324  25.147  33.522   2.251
52904W        W14325  15.750   9.358   0.811
52905W        W14326  23.512  39.999   0.853
52906W        W14327  11.239  10.178   3.212
52907W        W14328  18.764   4.311  12.539
52908W        W14329  25.496  32.421   3.669
52909W        W14330  38.530   1.932  11.075
52910W        W14331   4.762  43.000   4.703
52911W        W14332  10.787  29.066  14.393
52912W        W14333  33.884  25.498  13.313
52913W        W14334   2.333  10.347   0.756
52914W        W14335  18.790   2.251   1.219
52915W        W14336  31.026  18.774  11.855
52916W        W14337  40.428  16.762   3.295
52917W        W14338  16.285  33.093  11.521
52918W        W14339   4.874  37.901   0.844
52919W        W14340  13.761   7.364   0.766
52920W        W14341  33.468  31.006  10.154
52921W        W14342  28.567  28.561   0.385
52922W        W14343  28.591   0.323  13.865
52923W        W14344  20.231   2.776  12.342
52924W        W14345   6.360  16.776   2.888
52925W        W14346  41.504  29.167   0.758
52926W        W14347   1.888  30.415   3.187
52927W        W14348  22.117  41.897   4.145
52928W        W14349  12.229  30.632  13.018
52929W        W14350  25.509  32.094   3.280
52930W        W14351  19.679  32.127   3.173
52931W        W14352  17.299  25.487  13.917
52932W        W14353  19.221  42.391   0.829
52933W        W14354  16.578  34.938  14.890
52934W        W14355  44.808  33.420   4.697
52935W        W14356   6.285  35.919  11.073
52936W        W14357  13.829   3.737  13.038
52937W        W14358  42.823  33.904   3.650
52938W        W14359   6.404  42.365  12.359
52939W        W14360   8.353  40.968   0.941
52940W        W14361  36.039   0.767  12.346
52941W        W14362  44.980  21.155   0.767
52942W        W14363  24.016  10.335  13.965
52943W        W14364  38.879  31.469  12.088
52944W        W14365  15.622   3.282   3.374
52945W        W14366  21.069  41.933  11.472
52946W        W14367  15.244  16.173   2.309
52947W        W14368  23.549  28.946  10.508
52948W        W14369  27.061  40.536  14.005
52949W        W14370  24.543   7.818   1.868
52950W        W14371  31.426  20.613   4.805
52951W        W14372  13.754  42.829  13.912
52952W        W14373   5.243  31.624   1.908
52953W        W14374  40.863  27.120   3.203
52954W        W14375  24.033  41.403   2.767
52955W        W14376  14.182  43.923  11.960
52956W        W14377  32.903  12.816  14.397
52957W        W14378   8.363  42.350   1.788
52958W        W14379  17.652  13.313   0.339
52959W        W14380  18.623  35.094  12.545
52960W        W14381  25.491  23.112  13.380
52961W        W14382  43.926  37.029  10.432
52962W        W14383  39.931  27.517  14.492
52963W        W14384  39.402  17.243   0.464
52964W        W14385  16.308  13.188   0.789
52965W        W14386   9.751   8.820   3.717
52966W        W14387  11.288  21.514   2.292
52967W        W14388  18.575  27.530   3.214
52968W        W14389   4.739   5.883  13.442
52969W        W14390  10.334  36.458  10.591
52970W        W14391  43.951  11.138  14.796
52971W        W14392   6.687   2.280   0.732
52972W        W14393   5.769  13.626  14.819
52973W        W14394  15.660   9.705  14.833
52974W        W14395  18.171  41.296   3.663
52975W        W14396  41.521  34.941   1.810
52976W        W14397  43.465  10.222   1.258
52977W        W14398   3.909   9.713   3.768
52978W        W14399  41.314  44.431   3.202
52979W        W14400  38.994  30.634   0.458
52980W        W14401  40.915  28.621   1.279
52981W        W14402  36.061  37.906  14.766
52982W        W14403  39.331   6.313  14.784
52983W        W14404  36.044  36.435  10.461
52984W        W14405   6.678   7.316  11.881
52985W        W14406   3.763   7.889  13.006
52986W        W14407  42.283  22.105   1.211
52987W        W14408  23.605  27.542  12.979
52988W        W14409   3.370  31.939  11.102
52989W        W14410  31.520  37.855   2.411
52990W        W14411  38.393   2.443  11.452
52991W        W14412   0.836  39.358   1.234
52992W        W14413   7.856  27.516  14.382
52993W        W14414  19.154  23.163   1.823
52994W        W14415  23.527  34.920   0.953
52995W        W14416  37.064  38.423  13.885
52996W        W14417  38.439  25.530   1.697
52997W        W14418   7.866   1.288   2.312
52998W        W14419  40.886  15.104   0.764
52999W        W14420  29.981   7.307   1.399
53000W        W14421  31.433  18.235   4.820
53001W        W14422  36.884  24.088  12.347
53002W        W14423  25.531  11.760   1.383
53003W        W14424  26.684  44.502  14.978
53004W        W14425  14.328  15.686   3.656
53005W        W14426  28.620  44.939   2.842
53006W        W14427  29.936   8.303   0.409
53007W        W14428  23.503   3.285   3.189
53008W        W14429  28.929  33.454  14.279
53009W        W14430   4.795   8.669  10.132
53010W        W14431  36.079  18.551  10.501
53011W        W14432  34.560  34.598  10.636
53012W        W14433  27.159  10.729   3.340
53013W        W14434  37.547   9.860   1.868
53014W        W14435  30.485  22.188   4.815
53015W        W14436  35.035  42.434   2.872
53016W        W14437   5.394  19.081  12.547
53017W        W14438   1.391  17.591  12.463
53018W        W14439   5.404   2.450   1.703
53019W        W14440  38.526  30.007  14.487
53020W        W14441   8.176  30.082  14.910
53021W        W14442  31.605  44.307   1.705
53022W        W14443  10.699  22.600  14.851
53023W        W14444  32.963   2.233   0.272
53024W        W14445  30.126   0.336   4.264
53025W        W14446  27.615  18.142  10.990
53026W        W14447  34.050   3.314  12.964
53027W        W14448  19.129  22.251   0.943
53028W        W14449  22.995  43.351   0.833
53029W        W14450  37.373  43.956   3.805
53030W        W14451  13.228  42.283  13.924
53031W        W14452  21.679  24.634  13.360
53032W        W14453  16.644  10.242  13.836
53033W        W14454   7.820   8.770   3.845
53034W        W14455  22.731  15.183   1.355
53035W        W14456  22.548  44.944   4.718
53036W        W14457   1.378   2.253   0.916
53037W        W14458  41.357  25.084  13.473
53038W        W14459   3.403  34.069  14.819
53039W        W14460  37.344   8.669  12.934
53040W        W14461  33.904  27.610   1.890
53041W        W14462  17.142   1.360   3.224
53042W        W14463  28.624  17.241   3.676
53043W        W14464   4.721  27.987  11.479
53044W        W14465  31.972  18.137  11.575
53045W        W14466  24.980  26.165   4.733
53046W        W14467  37.431  16.092  11.476
53047W        W14468  42.384  20.115   4.603
53048W        W14469  13.275   0.745   1.761
53049W        W14470  44.831  33.438   1.249
53050W        W14471  29.577  13.832  12.866
53051W        W14472  31.019  40.312   1.248
53052W        W14473  30.412   0.331   0.748
53053W        W14474  25.047  38.967  12.461
53054W        W14475  11.674  42.909  14.013
53055W        W14476   3.240   9.287  13.359
53056W        W14477  23.203  20.734   4.198
53057W        W14478  24.002  16.765   1.383
53058W        W14479  39.382  40.546  13.837
53059W        W14480  10.636  30.094  11.513
53060W        W14481   5.271  43.466  11.495
53061W        W14482   0.926  30.490   2.184
53062W        W14483  37.429  14.164   0.245
53063W        W14484  25.068  19.109  13.059
53064W        W14485  15.163  39.903  10.992
53065W        W14486  13.808  30.966   3.350
53066W        W14487  36.400  31.929  11.500
53067W        W14488   6.703  25.055  11.952
53068W        W14489  40.399  22.190  11.539
53069W        W14490  21.028  13.327  12.429
53070W        W14491   2.964   2.763   1.253
53071W        W14492   8.325  31.076   0.960
53072W        W14493   2.784  32.410   0.362
53073W        W14494  42.306  30.591   1.337
53074W        W14495  29.964  23.988   4.597
53075W        W14496  15.154  17.061   3.757
53076W        W14497  14.266  36.064   2.419
53077W        W14498  12.344   8.734   1.256
53078W        W14499  18.116  19.191   4.223
53079W        W14500  12.788  28.630  10.990
53080W        W14501  18.604  40.327   5.127
53081W        W14502  28.504   7.291   0.418
53082W        W14503   5.326  39.917  10.568
53083W        W14504  11.769  21.572  14.937
53084W        W14505  44.794   8.279   3.831
53085W        W14506   8.744  33.545  11.110
53086W        W14507  44.933  37.832   3.373
53087W        W14508  18.149   3.431   1.842
53088W        W14509   7.275  42.866  14.020
53089W        W14510  21.082  28.182  11.454
53090W        W14511  15.796   8.872   0.455
53091W        W14512  29.060  16.181   0.472
53092W        W14513  28.543  22.602  13.906
53093W        W14514  10.332  38.373  10.641
53094W        W14515  35.047   0.963   4.730
53095W        W14516  20.546  26.666  14.896
53096W        W14517  23.654  33.966   2.366
53097W        W14518  24.680  32.437   0.761
53098W        W14519  39.518   2.245   1.423
53099W        W14520   3.895  21.641  12.428
53100W        W14521  38.454  17.302  13.480
53101W        W14522  13.646  17.129   4.832
53102W        W14523  37.393  22.559   4.690
53103W        W14524  24.140  27.611   0.909
53104W        W14525  37.577  44.454   1.285
53105W        W14526  17.278  15.259  13.351
53106W        W14527  14.191  20.617   1.923
53107W        W14528  35.518  39.380  13.855
53108W        W14529  38.537   3.310   4.269
53109W        W14530  26.076   2.297   1.806
53110W        W14531  10.321  37.455   3.806
53111W        W14532  32.143  12.698   2.215
53112W        W14533   5.321   3.227  14.005
53113W        W14534  24.078  10.219  14.872
53114W        W14535   2.955   8.697   2.770
53115W        W14536  38.911  37.045  11.537
53116W        W14537  40.491  38.906   4.239
53117W        W14538  25.157  28.988  13.477
53118W        W14539  25.160  37.545   0.408
53119W        W14540  14.710   0.425  10.904
53120W        W14541   2.872  31.480  13.427
53121W        W14542  29.922  43.335  14.809
53122W        W14543  18.279   1.820  14.843
53123W        W14544  17.705  21.087   4.127
53124W        W14545  23.512  11.286   0.845
53125W        W14546   3.251  41.421  14.781
53126W        W14547  14.096  33.064  13.941
53127W        W14548  39.901  40.464  14.959
53128W        W14549  30.545  41.008   4.146
53129W        W14550  17.722  38.474  12.526
53130W        W14551  13.649   9.241  13.975
53131W        W14552  35.861  28.178  10.890
53132W        W14553  18.211  34.551  11.046
53133W        W14554  10.706  34.594   3.795
53134W        W14555   4.748  20.255   3.285
53135W        W14556   3.792  23.537  10.924
53136W        W14557  41.013  29.969   3.834
53137W        W14558  16.092  38.921  14.778
53138W        W14559  29.114   2.914  13.437
53139W        W14560  35.899  17.614  14.972
53140W        W14561  33.051  12.350   9.537
53141W        W14562   1.856  31.009   1.740
53142W        W14563  33.460  35.603  13.826
53143W        W14564  21.161  39.026   1.243
53144W        W14565   8.782  13.603  12.917
53145W        W14566  42.432  30.424  11.994
53146W        W14567   0.362  24.143  13.354
53147W        W14568  38.072  31.001  11.374
53148W        W14569  39.980  10.283  12.965
53149W        W14570  38.030   4.747  11.032
53150W        W14571  41.001  27.985   0.358
53151W        W14572  10.817  17.789   0.257
53152W        W14573  31.032  17.306  12.374
53153W        W14574   5.696  11.180  11.003
53154W        W14575  11.682  12.657   4.652
53155W        W14576  44.280  23.030   3.698
53156W        W14577  12.291  34.600  12.548
53157W        W14578   1.359   5.762  13.805
53158W        W14579  22.667   1.299  12.904
53159W        W14580   2.946  37.428  13.437
53160W        W14581   8.183  21.721  11.378
53161W        W14582  24.055  21.572   3.871
53162W        W14583  22.065  22.102   4.785
53163W        W14584  15.214  18.727   4.610
53164W        W14585  25.544   5.918  12.458
53165W        W14586  37.438  21.174  12.877
53166W        W14587  28.044   9.806   3.385
53167W        W14588  19.643  31.983  14.358
53168W        W14589  29.117  30.631  13.841
53169W        W14590  34.089  37.446  11.613
53170W        W14591   9.697  43.340  10.504
53171W        W14592  19.213  31.513   4.163
53172W        W14593  41.357   8.263  12.899
53173W        W14594  29.652  26.628   2.225
53174W        W14595  41.953  31.583   1.765
53175W        W14596  26.625  12.689   0.476
53176W        W14597   9.877  10.754   0.796
53177W        W14598  30.507   4.840   0.965
53178W        W14599  43.330  25.029  11.916
53179W        W14600  40.473  42.347  13.828
53180W        W14601  32.906   5.283   2.178
53181W        W14602  27.650  10.806   4.336
53182W        W14603  21.547   1.408   0.904
53183W        W14604  13.260  19.217  14.378
53184W        W14605  11.851  37.503  14.862
53185W        W14606  44.338  35.452  13.905
53186W        W14607  20.620  19.607   4.170
53187W        W14608   7.703  26.195   0.301
53188W        W14609   8.738  41.844   2.228
53189W        W14610  27.959  25.594   4.753
53190W        W14611   8.690  38.962   0.795
53191W        W14612   9.795  33.089   0.402
53192W        W14613  39.972  15.726  10.539
53193W        W14614  33.486  22.593   0.772
53194W        W14615  39.823  37.368   2.282
53195W        W14616   0.953   0.367  11.057
53196W        W14617   3.935  11.770   0.304
53197W        W14618   0.380  26.664   3.656
53198W        W14619  19.732  29.995   4.324
53199W        W14620  14.719   6.716  13.029
53200W        W14621   6.700  31.941   2.786
53201W        W14622  20.211   1.964  13.839
53202W        W14623  40.524  33.535   0.364
53203W        W14624  30.964   0.988   2.365
53204W        W14625  12.618  38.342  14.446
53205W        W14626  34.080   0.433  10.049
53206W        W14627  40.422   8.214  12.447
53207W        W14628   4.229   5.844   4.232
53208W        W14629  44.369  34.375   0.897
53209W        W14630  11.362  37.542   0.850
53210W        W14631   9.789  30.421  10.978
53211W        W14632  16.128  44.460   4.345
53212W        W14633  31.432   6.397   2.709
53213W        W14634  20.699   5.773  12.416
53214W        W14635  17.743  22.549  14.470
53215W        W14636  11.271  41.988  11.609
53216W        W14637  33.448  38.014   3.175
53217W        W14638  28.054   3.856   1.368
53218W        W14639   1.783  23.658  11.057
53219W        W14640  22.548  27.043   4.169
53220W        W14641   8.378  43.420  12.864
53221W        W14642  11.843  26.126  12.003
53222W        W14643   8.171  41.442   2.382
53223W        W14644  40.310  44.921   2.823
53224W        W14645  35.500   3.256   5.246
53225W        W14646  31.936  28.972  10.594
53226W        W14647  24.074  23.621  13.811
53227W        W14648  12.231  20.532   2.867
53228W        W14649  28.983  35.469  11.967
53229W        W14650  36.564   6.412  13.514
53230W        W14651   5.877   4.427   3.372
53231W        W14652  35.001   0.296  14.294
53232W        W14653  24.094  20.683   3.823
53233W        W14654  12.169  19.115   0.886
53234W        W14655  19.042  23.572   1.370
53235W        W14656  37.486  37.390  11.430
53236W        W14657  30.980  35.041  13.043
53237W        W14658  26.547  37.834  11.997
53238W        W14659  23.586  19.770  12.006
53239W        W14660  23.649  21.648  13.009
53240W        W14661  44.832   9.810  13.974
53241W        W14662  21.599  22.531   1.394
53242W        W14663  23.997   9.722   1.355
53243W        W14664  33.917  12.670  13.933
53244W        W14665  27.128  12.200   2.790
53245W        W14666  31.009  16.587   3.199
53246W        W14667  17.278  26.094  14.313
53247W        W14668  42.891  32.630  13.977
53248W        W14669  36.924   5.346  14.833
53249W        W14670  26.478   6.683   0.790
53250W        W14671  22.162   2.355  11.443
53251W        W14672  26.006  22.580  12.830
53252W        W14673  43.013  28.014  11.977
53253W        W14674  25.568  21.250  12.001
53254W        W14675  34.075  20.044  12.428
53255W        W14676   3.273   9.367   1.254
53256W        W14677  24.080  15.688  11.542
53257W        W14678   7.729  12.671   3.718
53258W        W14679  39.812   2.775   3.707
53259W        W14680  43.924  32.049  13.440
53260W        W14681  30.415  41.817  10.523
53261W        W14682  36.947  27.096   3.662
53262W        W14683   2.262  23.213   1.780
53263W        W14684  12.688  40.348   3.207
53264W        W14685  12.851  34.513   4.672
53265W        W14686  23.629   7.297  11.548
53266W        W14687   5.690  22.089   2.226
53267W        W14688  28.115   8.659   3.180
53268W        W14689  18.287  31.644   4.211
53269W        W14690  40.980  16.738   4.354
53270W        W14691  42.835  34.434   0.775
53271W        W14692  30.442  41.368  14.359
53272W        W14693  24.703   1.940  12.884
53273W        W14694  30.107   5.296   1.251
53274W        W14695   0.975   3.813   5.737
53275W        W14696   3.269  32.134  14.428
53276W        W14697  14.246  14.825  13.957
53277W        W14698  42.906  27.061  14.457
53278W        W14699  22.719  20.666   3.191
53279W        W14700  23.211  41.819  10.432
53280W        W14701  26.171  26.662  14.933
53281W        W14702  19.705  40.312  10.640
53282W        W14703   0.385  30.584  14.018
53283W        W14704  15.213  44.379   1.815
53284W        W14705  36.090  24.644   2.334
53285W        W14706  27.475  40.007  14.351
53286W        W14707  15.327   5.283  10.982
53287W        W14708  10.367   2.790  14.984
53288W        W14709  29.643  31.089  12.919
53289W        W14710   0.405   3.289  14.353
53290W        W14711   9.235  34.031  13.313
53291W        W14712  42.945  37.992   0.912
53292W        W14713  39.422   8.261  14.911
53293W        W14714  33.004  31.917  11.096
53294W        W14715  38.538  17.799   1.794
53295W        W14716  43.964   5.296   2.291
53296W        W14717  31.017  40.445  14.445
53297W        W14718  36.381  16.806  14.349
53298W        W14719  19.582   6.270   2.864
53299W        W14720  17.244  15.730  12.841
53300W        W14721  17.307  35.884   2.239
53301W        W14722   2.268  30.980   0.251
53302W        W14723  26.959  32.114  12.977
53303W        W14724  10.335   9.313   4.219
53304W        W14725  17.117  11.710   2.297
53305W        W14726  23.089  19.113   1.210
53306W        W14727  23.092  26.654  13.307
53307W        W14728  34.407  30.482  11.872
53308W        W14729  44.264  35.053   5.124
53309W        W14730  14.277   4.333   0.268
53310W        W14731   6.914   3.808  12.484
53311W        W14732  21.026  24.520  12.948
53312W        W14733  17.629  12.143   2.728
53313W        W14734  11.855  13.295   3.649
53314W        W14735  44.294  17.219   1.243
53315W        W14736  44.490   2.772   1.426
53316W        W14737  34.472  41.995  11.078
53317W        W14738  42.876  23.114   3.743
53318W        W14739   1.838  14.216  12.425
53319W        W14740  34.463  10.731  14.379
53320W        W14741  16.177  25.133   1.236
53321W        W14742  25.469  40.323   3.648
53322W        W14743  36.005  23.643   4.764
53323W        W14744  21.257  38.940   5.282
53324W        W14745  37.352  10.776   1.825
53325W        W14746  34.598  26.569  13.365
53326W        W14747   7.789  11.798   4.698
53327W        W14748  38.486  17.693  12.372
53328W        W14749  24.522  42.407   4.782
53329W        W14750  19.093  26.040   1.891
53330W        W14751  32.604   9.851  11.525
53331W        W14752  36.451  11.366  14.027
53332W        W14753  36.579  22.620   3.647
53333W        W14754  17.733  32.576   2.344
53334W        W14755  11.758   4.314   1.841
53335W        W14756  18.567  34.022  13.384
53336W        W14757   4.332  34.881  13.462
53337W        W14758  38.046   8.273   0.813
53338W        W14759  22.240  12.733  11.877
53339W        W14760   4.415  25.170  13.914
53340W        W14761  13.685  11.854  12.478
53341W        W14762  23.541   8.229  13.865
53342W        W14763  33.067   7.329  12.083
53343W        W14764  35.602  11.763  11.411
53344W        W14765  10.657  22.685  11.404
53345W        W14766  15.722  33.018   0.481
53346W        W14767  20.204  26.611  12.365
53347W        W14768   3.452  32.569  13.852
53348W        W14769  38.459  12.334  11.075
53349W        W14770   0.343  24.993  14.852
53350W        W14771   5.261  41.484  12.972
53351W        W14772  27.096  32.490   4.745
53352W        W14773  34.945  15.292  11.461
53353W        W14774   8.269  43.950   1.933
53354W        W14775  19.724   7.714  13.377
53355W        W14776  27.065  25.021   0.386
53356W        W14777   0.336  24.558   3.694
53357W        W14778  33.517  17.082  13.342
53358W        W14779  24.644   3.750  14.411
53359W        W14780   5.800  33.898  11.045
53360W        W14781  36.090  35.392  12.073
53361W        W14782   1.344   1.388   0.318
53362W        W14783  34.918  39.885  11.903
53363W        W14784   7.800  39.831  13.466
53364W        W14785   8.233   3.846   0.841
53365W        W14786   8.233  38.566   3.377
53366W        W14787  21.684  20.565  11.536
53367W        W14788   3.429  28.029   5.310
53368W        W14789  23.000  12.209   3.853
53369W        W14790  20.687  33.619  13.380
53370W        W14791  30.091  12.737   3.209
53371W        W14792   5.864   0.389   0.943
53372W        W14793  37.896  10.691  13.399
53373W        W14794  12.133  42.844  11.936
53374W        W14795  29.544   3.823  11.865
53375W        W14796  16.202   2.792  10.637
53376W        W14797  29.011  29.939   2.898
53377W        W14798  38.564  11.803  13.307
53378W        W14799  40.538  37.880   3.780
53379W        W14800   1.735   4.904   5.156
53380W        W14801   8.827  19.116   2.418
53381W        W14802  33.565  44.499   5.159
53382W        W14803  25.481   7.379   3.245
53383W        W14804  34.912  40.325   1.818
53384W        W14805  38.513   1.746  10.425
53385W        W14806  36.453   2.236   5.740
53386W        W14807   1.794  30.616   0.884
53387W        W14808  12.696  34.580   1.727
53388W        W14809  26.033  32.931   4.254
53389W        W14810  38.861  27.591  14.375
53390W        W14811  37.399  42.904  12.409
53391W        W14812   2.739  32.455   5.643
53392W        W14813   2.863  38.527   1.761
53393W        W14814  37.894  34.514  14.408
53394W        W14815  31.625   0.471  14.962
53395W        W14816  24.986  42.833   0.299
53396W        W14817  27.613   3.359   0.942
53397W        W14818  42.514  12.186   2.773
53398W        W14819  30.135  35.361  10.418
53399W        W14820  38.964  17.273  11.561
53400W        W14821  15.690  19.046  11.595
53401W        W14822  17.222  31.975   0.817
53402W        W14823  16.299   5.780  10.631
53403W        W14824  21.163  30.078  11.591
53404W        W14825  19.130  40.502   4.658
53405W        W14826  35.874   5.418   4.787
53406W        W14827  37.869  42.945  12.887
53407W        W14828  20.178  36.585   1.800
53408W        W14829   2.371  19.593  13.821
53409W        W14830   0.935  31.419   3.853
53410W        W14831   6.409  40.521  14.786
53411W        W14832  21.076  28.111   2.339
53412W        W14833  14.318  18.563   3.370
53413W        W14834  22.151  23.178  11.103
53414W        W14835  22.615  19.536   4.175
53415W        W14836  32.002   9.800   1.344
53416W        W14837   1.243  33.556   1.720
53417W        W14838  14.626   4.878   0.416
53418W        W14839  10.237  32.949   9.962
53419W        W14840  15.739   3.350   2.316
53420W        W14841  17.221  13.623  11.022
53421W        W14842   3.869   6.747   3.310
53422W        W14843   5.362  36.384   0.385
53423W        W14844  40.439  27.604  12.851
53424W        W14845  17.213  35.863  14.420
53425W        W14846  20.065  25.080   4.223
53426W        W14847  26.680  30.496  10.094
53427W        W14848  33.951   6.252  14.988
53428W        W14849   8.882  41.393   4.625
53429W        W14850   7.177  27.944   1.907
53430W        W14851  15.271  38.833   1.822
53431W        W14852   0.808   6.773   0.934
53432W        W14853   1.758   2.927  11.936
53433W        W14854  20.570  23.157  14.512
53434W        W14855  27.653  16.222  13.484
53435W        W14856  25.594  12.803   3.735
53436W        W14857  40.048  43.955   0.299
53437W        W14858  11.755  10.381  10.016
53438W        W14859  13.610  37.910   1.866
53439W        W14860   9.385  11.299  13.395
53440W        W14861  16.249  20.625   0.363
53441W        W14862  26.565   0.360  14.396
53442W        W14863  13.125  14.762   1.778
53443W        W14864  11.846  16.259   3.829
53444W        W14865  13.631  42.414  12.968
53445W        W14866  10.380  34.587   4.780
53446W        W14867   6.372  22.172  14.316
53447W        W14868   4.811  13.602   2.311
53448W        W14869  36.879  41.033  12.945
53449W        W14870  43.974  27.964  12.518
53450W        W14871  16.251  24.645   3.229
53451W        W14872  33.616   9.717  13.966
53452W        W14873  43.949  39.966   0.819
53453W        W14874  13.195   9.817  10.619
53454W        W14875  39.981  20.051   4.186
53455W        W14876  16.580  28.035  10.604
53456W        W14877   4.773  44.009  10.002
53457W        W14878   8.287  33.568  14.835
53458W        W14879  14.329  43.385  14.870
53459W        W14880  38.879   3.807   2.180
53460W        W14881  10.196  21.738  10.901
53461W        W14882  42.925  23.171  11.862
53462W        W14883   7.712  24.618  13.854
53463W        W14884  20.270   3.759   1.783
53464W        W14885  21.112  13.293   3.870
53465W        W14886  18.576  24.624  13.512
53466W        W14887   0.494  39.943  12.888
53467W        W14888   7.284  11.208   0.741
53468W        W14889  23.632  13.176   1.268
53469W        W14890  10.224  16.226  13.923
53470W        W14891  24.058   2.869   0.447
53471W        W14892  31.119   7.691   0.952
53472W        W14893  20.717  26.582  12.494
53473W        W14894  14.754  42.805   3.683
53474W        W14895  28.496  35.991   2.683
53475W        W14896  14.594   2.772   4.316
53476W        W14897  41.895  31.107  12.826
53477W        W14898  11.622  44.318   4.158
53478W        W14899  14.614  22.246   4.280
53479W        W14900  23.605   5.842  14.496
53480W        W14901  23.596  16.267   0.864
53481W        W14902  30.076  24.510   3.204
53482W        W14903  22.616   5.408  11.892
53483W        W14904  33.439   0.292   5.768
53484W        W14905  34.613   8.333  13.473
53485W        W14906  39.034  42.383   0.353
53486W        W14907  16.255   3.904  13.329
53487W        W14908  30.094  14.621   4.627
53488W        W14909  10.279  18.272   3.180
53489W        W14910  20.570   5.222   0.959
53490W        W14911  19.643  12.734   5.202
53491W        W14912   9.852  33.020   3.282
53492W        W14913  25.683  31.915  12.560
53493W        W14914  14.304   6.824   3.667
53494W        W14915  10.867  20.201  11.564
53495W        W14916  10.180  23.186  12.829
53496W        W14917   6.420   4.809   0.772
53497W        W14918  25.561  18.711   3.351
53498W        W14919  31.125   0.380   3.638
53499W        W14920  43.951  24.202   4.674
53500W        W14921   0.381  39.919  14.459
53501W        W14922  38.851  39.820  12.469
53502W        W14923  44.440  40.476  11.940
53503W        W14924  41.954  28.540  13.814
53504W        W14925  12.221  18.592   2.828
53505W        W14926  32.475   2.302   2.689
53506W        W14927  42.335  17.129   1.407
53507W        W14928  15.796  39.836   0.727
53508W        W14929  20.546  44.961  11.973
53509W        W14930  13.276  11.640  14.282
53510W        W14931  40.431  44.930  13.533
53511W        W14932   1.972  34.495  14.344
53512W        W14933  23.517  32.428  14.995
53513W        W14934   0.366  24.980  11.437
53514W        W14935  14.305  33.401   3.151
53515W        W14936  16.639  20.183   4.263
53516W        W14937  42.369   3.420  13.039
53517W        W14938  32.439   9.677   1.319
53518W        W14939  24.109  24.227   2.294
53519W        W14940  31.532   9.820   1.234
53520W        W14941  19.120  24.684  10.521
53521W        W14942  44.314   6.303  11.606
53522W        W14943  15.799  38.459  12.855
53523W        W14944  27.647  16.606   4.659
53524W        W14945   2.398   6.681   4.353
53525W        W14946  12.322   9.760  13.423
53526W        W14947  31.043  32.974   3.155
53527W        W14948  12.184  37.460  14.276
53528W        W14949  24.706   8.784   2.188
53529W        W14950  34.903  42.961   1.356
53530W        W14951  31.136  34.075  14.990
53531W        W14952  33.919  15.716  10.959
53532W        W14953  35.915  36.903   3.712
53533W        W14954  30.128   7.403   3.305
53534W        W14955  37.500   5.836  11.403
53535W        W14956   9.805   7.369   0.373
53536W        W14957  29.628   8.328   3.749
53537W        W14958  38.907  43.898  13.443
53538W        W14959  19.699  14.669  12.879
53539W        W14960  40.901  13.669  14.876
53540W        W14961  19.132  15.779   5.231
53541W        W14962  28.938  25.575  12.862
53542W        W14963  42.390   5.422   0.326
53543W        W14964  39.958  44.291   2.824
53544W        W14965  10.637   6.775   0.789
53545W        W14966   0.848  30.140  14.032
53546W        W14967   0.422  11.257  14.457
53547W        W14968  20.043  18.208   9.621
53548W        W14969   4.346  17.741   2.280
53549W        W14970  22.658  20.630   1.707
53550W        W14971   0.896  13.712  11.116
53551W        W14972  18.608   1.321   2.178
53552W        W14973   0.894   0.304   0.392
53553W        W14974  44.844  11.690   3.633
53554W        W14975  25.017  13.746   2.215
53555W        W14976  30.460   9.277   0.820
53556W        W14977  15.099   3.338   1.221
53557W        W14978  14.216  23.492   4.298
53558W        W14979  30.910  41.970  12.413
53559W        W14980  15.165  15.223  10.427
53560W        W14981   2.941  16.646  13.822
53561W        W14982  16.124  30.640  13.871
53562W        W14983   2.315  21.584  11.112
53563W        W14984   6.748  13.185  14.833
53564W        W14985  15.305  11.721  10.978
53565W        W14986  44.289  22.671   2.227
53566W        W14987  19.090   4.923  11.925
53567W        W14988  33.013   3.884   0.301
53568W        W14989  28.522   4.837  13.037
53569W        W14990  41.027  43.474  12.082
53570W        W14991   8.402  17.253   1.289
53571W        W14992  39.465  13.838  13.025
53572W        W14993  26.057  33.887   2.242
53573W        W14994  13.799  15.328  14.283
53574W        W14995  38.460  34.526  12.957
53575W        W14996  12.311  29.058  12.053
53576W        W14997  10.847  10.375   0.745
53577W        W14998  11.218  32.039  10.944
53578W        W14999   8.236  17.304   0.909
53579W        W15000  32.581  41.368   2.779
53580W        W15001  41.805   2.231   4.290
53581W        W15002  41.331  44.895   4.234
53582W        W15003  19.635  10.372  13.913
53583W        W15004  16.259  17.216  10.640
53584W        W15005  26.011  42.032  11.499
53585W        W15006  29.670  16.253   4.249
53586W        W15007  27.502   9.849  13.458
53587W        W15008  15.123   8.322  10.412
53588W        W15009  43.861   9.193  14.965
53589W        W15010  30.077  22.088   4.718
53590W        W15011  17.093   2.865  11.013
53591W        W15012  25.593  32.544  11.016
53592W        W15013   5.715  30.015   0.387
53593W        W15014   0.459  16.626   2.310
53594W        W15015  12.716  10.379   3.792
53595W        W15016  21.124  26.587  10.551
53596W        W15017  25.068  22.684   1.880
53597W        W15018  14.766  37.370  12.000
53598W        W15019  33.461   7.352   0.950
53599W        W15020   1.462  10.812  13.489
53600W        W15021  41.367  11.808  10.946
53601W        W15022  31.935  35.057  10.889
53602W        W15023  33.889  13.157   1.847
53603W        W15024  21.106  33.082  10.902
53604W        W15025  25.640  32.886   0.444
53605W        W15026  14.104   0.783  14.441
53606W        W15027  26.530  32.908  14.432
53607W        W15028  33.069  28.147   4.728
53608W        W15029  16.769  17.305  13.972
53609W        W15030  35.533   8.883  13.521
53610W        W15031  32.930  13.668   3.278
53611W        W15032  31.427   6.185   0.850
53612W        W15033  11.828  42.004   0.260
53613W        W15034  38.445  39.927   4.290
53614W        W15035  37.487  15.790   2.869
53615W        W15036  19.071  10.643   1.698
53616W        W15037  44.428  33.875  13.028
53617W        W15038   1.782  40.903  14.978
53618W        W15039  41.936  11.136   3.341
53619W        W15040  26.568   8.173   2.667
53620W        W15041  18.121  25.024  11.067
53621W        W15042  14.101   7.294   4.828
53622W        W15043  34.581  35.098   2.290
53623W        W15044  16.597  38.948   3.315
53624W        W15045  27.615   7.849   0.825
53625W        W15046  28.025   6.238   0.753
53626W        W15047  10.384  23.130   1.396
53627W        W15048  19.261  20.201  10.523
53628W        W15049   5.757  13.109   0.283
53629W        W15050  19.133  28.509   4.678
53630W        W15051  39.944  44.341  12.393
53631W        W15052   9.807  25.544   2.739
53632W        W15053  36.868  36.430  11.955
53633W        W15054   0.982   9.272  13.546
53634W        W15055  29.482  40.390   0.255
53635W        W15056  31.625   1.911   9.521
53636W        W15057  23.664  39.537   0.892
53637W        W15058  34.456  28.105  13.356
53638W        W15059  14.181  37.878   0.919
53639W        W15060  43.886   5.687  10.634
53640W        W15061   2.832  26.489  13.485
53641W        W15062   9.395  23.680  10.632
53642W        W15063  38.534  30.444  13.358
53643W        W15064  19.725  20.124  10.597
53644W        W15065  33.453  26.988   2.707
53645W        W15066  15.189  17.639  13.845
53646W        W15067  17.284  21.056   1.719
53647W        W15068  28.005  34.369  14.427
53648W        W15069   4.822  28.161   0.363
53649W        W15070   1.824  12.268  14.776
53650W        W15071   0.422  17.794  14.882
53651W        W15072  38.961   3.248  14.515
53652W        W15073  19.224  16.127  11.405
53653W        W15074  35.967  15.820   4.176
53654W        W15075  34.403  26.204  14.763
53655W        W15076  11.199  36.458   1.805
53656W        W15077  13.259  25.519  11.962
53657W        W15078   7.911  38.063   2.214
53658W        W15079  34.899  29.645   2.821
53659W        W15080  38.452  17.303   4.158
53660W        W15081  38.029  44.998  11.375
53661W        W15082   2.918   0.275  11.431
53662W        W15083   8.271  36.097  12.986
53663W        W15084  14.321  35.887  14.333
53664W        W15085  19.067   7.854  14.763
53665W        W15086  27.948   3.823  10.919
53666W        W15087  15.766   3.864   3.646
53667W        W15088  11.849  33.596  12.433
53668W        W15089  27.633   0.378  14.987
53669W        W15090  26.518   6.700   1.893
53670W        W15091  39.370  35.543   1.794
53671W        W15092  28.554   0.793  12.453
53672W        W15093  15.703  39.954   3.789
53673W        W15094  16.232  44.891   2.380
53674W        W15095  40.989   2.371  10.919
53675W        W15096   1.935  39.439  12.404
53676W        W15097  36.968  14.263   1.866
53677W        W15098   4.768  32.620   4.771
53678W        W15099  41.864   3.354  14.455
53679W        W15100  42.920  11.151   3.683
53680W        W15101  23.672  37.572  12.046
53681W        W15102   4.715  32.503   1.842
53682W        W15103  13.129  25.478   3.805
53683W        W15104  11.790   2.790   2.341
53684W        W15105   9.711   0.454   1.696
53685W        W15106  32.102  28.668   3.638
53686W        W15107  43.915  35.380   0.375
53687W        W15108  42.899  21.647   0.873
53688W        W15109   9.756  22.075   4.330
53689W        W15110  10.230  24.559  14.958
53690W        W15111  39.913   0.849  13.791
53691W        W15112  42.943  44.983   1.330
53692W        W15113  30.966   7.297  12.449
53693W        W15114  27.502  44.992  12.875
53694W        W15115  32.537  13.802  11.495
53695W        W15116  13.306  17.275  10.582
53696W        W15117  21.149  29.513   4.306
53697W        W15118  36.390  32.581  12.382
53698W        W15119  22.529  17.653  10.568
53699W        W15120  23.674  36.988   4.199
53700W        W15121  14.231   1.402   2.889
53701W        W15122  30.940  18.151   1.443
53702W        W15123  36.961  23.167   1.935
53703W        W15124  33.489   8.358   4.222
53704W        W15125  36.010  28.172   3.714
53705W        W15126   4.859  41.928  10.579
53706W        W15127  16.116  16.248   5.733
53707W        W15128  42.413  11.840  11.890
53708W        W15129  28.935  17.154   4.741
53709W        W15130  43.272  24.017   3.296
53710W        W15131  14.155  28.522   0.437
53711W        W15132  18.671   9.157  11.464
53712W        W15133  29.022  44.367   0.791
53713W        W15134   3.886  28.173   2.812
53714W        W15135  25.588  14.634  13.795
53715W        W15136  36.584  28.502   1.268
53716W        W15137  31.149  32.089   2.686
53717W        W15138  40.426  18.063  13.844
53718W        W15139  34.011  26.080  11.115
53719W        W15140  27.486   7.337   0.959
53720W        W15141  34.029  25.085   4.123
53721W        W15142  18.554  19.099  13.383
53722W        W15143  13.640  25.625   2.318
53723W        W15144   1.327  16.598  12.881
53724W        W15145  10.765  17.641   2.366
53725W        W15146  16.646  42.920  13.318
53726W        W15147  18.623   7.405  13.349
53727W        W15148   0.394  33.055  13.937
53728W        W15149  28.635  44.941  10.587
53729W        W15150  24.100  12.294   4.798
53730W        W15151   8.890   6.681   3.327
53731W        W15152  35.963  41.855   0.964
53732W        W15153  15.790  15.162  13.985
53733W        W15154   0.904  12.693  14.917
53734W        W15155  44.277  19.582   1.706
53735W        W15156   8.352  18.231   4.331
53736W        W15157  30.058  38.906   1.449
53737W        W15158  26.149  36.405  13.063
53738W        W15159  31.446  19.120   3.735
53739W        W15160  41.786   6.354   3.196
53740W        W15161   7.774  38.853   0.484
53741W        W15162  44.889   0.333  14.447
53742W        W15163   2.791  37.442   0.745
53743W        W15164  17.630  31.068  13.477
53744W        W15165  25.649  27.674   4.350
53745W        W15166   9.688  25.640  13.453
53746W        W15167  10.177   3.846  13.850
53747W        W15168  35.106  15.275  13.543
53748W        W15169  19.069  20.696  12.384
53749W        W15170  21.655  42.887   1.896
53750W        W15171  41.867   1.367   0.940
53751W        W15172  38.343  30.089  12.957
53752W        W15173  10.861   0.281   1.255
53753W        W15174  19.746  30.101  14.491
53754W        W15175  40.960  43.457  11.012
53755W        W15176   6.864  16.633   2.216
53756W        W15177   2.805   5.267  14.355
53757W        W15178  17.616  36.408   2.262
53758W        W15179  33.052  20.732  11.870
53759W        W15180  13.712  26.993   4.123
53760W        W15181   8.752  27.670   4.352
53761W        W15182  22.653  18.668   4.834
53762W        W15183  19.707  23.022  12.846
53763W        W15184  35.592  44.313   0.789
53764W        W15185   6.920  25.103  13.424
53765W        W15186  19.696  22.560   2.192
53766W        W15187  13.230  28.492   4.187
53767W        W15188  26.978  38.330   1.330
53768W        W15189  42.828  10.311  10.910
53769W        W15190  43.291  11.176   2.404
53770W        W15191  29.483  35.573  10.566
53771W        W15192  31.058  18.668   3.679
53772W        W15193  34.058   4.928   3.297
53773W        W15194   2.721  18.253  10.625
53774W        W15195  21.089  35.988  11.109
53775W        W15196  10.659   9.881  14.909
53776W        W15197  22.608  30.068  11.599
53777W        W15198  31.039  31.416  11.943
53778W        W15199  36.870  29.956  11.494
53779W        W15200   0.334  31.475  14.342
53780W        W15201   4.913   0.437  14.977
53781W        W15202  26.550   2.277  12.855
53782W        W15203  33.387   9.229  12.073
53783W        W15204  10.674  19.777   2.846
53784W        W15205  27.573  32.950  13.330
53785W        W15206   9.760  30.996   1.356
53786W        W15207  17.307  21.185  14.018
53787W        W15208  16.780   0.319   3.792
53788W        W15209  20.698  16.613   3.684
53789W        W15210  22.169  17.118   3.860
53790W        W15211   3.321  30.106  12.060
53791W        W15212  10.817   5.311   2.312
53792W        W15213  33.017  20.638  12.402
53793W        W15214  40.864  40.905   4.788
53794W        W15215  29.174   8.707  14.422
53795W        W15216  36.474  18.250  11.383
53796W        W15217  12.657  16.574  14.792
53797W        W15218  18.239  20.161   2.252
53798W        W15219  26.516  23.621  10.570
53799W        W15220  25.036  30.088  11.075
53800W        W15221  40.891  15.310  13.983
53801W        W15222  22.698  19.079  12.923
53802W        W15223  17.615  22.055  11.007
53803W        W15224  26.506  35.409  10.527
53804W        W15225  34.867  36.036  10.614
53805W        W15226  10.229  28.034   1.420
53806W        W15227   7.770  21.141   1.225
53807W        W15228  43.938  39.492  12.022
53808W        W15229  29.095  36.404  13.450
53809W        W15230  25.126  11.668   1.430
53810W        W15231  40.543  29.967  14.031
53811W        W15232  44.279  17.066   4.256
53812W        W15233  11.258   0.959   3.703
53813W        W15234   4.268  41.502   1.743
53814W        W15235  15.135  29.023   1.275
53815W        W15236  33.389  26.991  13.929
53816W        W15237  16.728  17.083  10.592
53817W        W15238  25.489   4.871  14.432
53818W        W15239  37.840   8.353  11.485
53819W        W15240  39.462  44.940   0.273
53820W        W15241  23.087  38.446  10.609
53821W        W15242  35.908  23.088   3.180
53822W        W15243  29.161  18.592  14.432
53823W        W15244   1.253  32.464   3.226
53824W        W15245  41.894  39.898   4.352
53825W        W15246   6.400   9.207   0.380
53826W        W15247   6.879   0.827  11.060
53827W        W15248  27.154   1.391   3.795
53828W        W15249   0.307   6.708  11.927
53829W        W15250  26.014  19.267  12.054
53830W        W15251  14.323  37.886  14.295
53831W        W15252  19.670   6.732   1.325
53832W        W15253  20.646  31.020   3.149
53833W        W15254  21.534  14.609  13.323
53834W        W15255  21.088  28.137   1.379
53835W        W15256  36.079  37.447   2.283
53836W        W15257  17.301   3.400   5.207
53837W        W15258  13.263  40.484  10.463
53838W        W15259  27.555  30.428   4.610
53839W        W15260  31.032  12.764   3.344
53840W        W15261  36.080   4.268  14.916
53841W        W15262   6.372   3.390  12.352
53842W        W15263   4.295  44.945  14.901
53843W        W15264  29.974  39.834   4.160
53844W        W15265  28.542  19.632   2.795
53845W        W15266  38.508  24.481   0.414
53846W        W15267   3.801  15.809   0.480
53847W        W15268  30.450  25.509  11.004
53848W        W15269   0.488  25.045   2.731
53849W        W15270  22.117  29.576  11.879
53850W        W15271   0.259  13.703   1.424
53851W        W15272  40.926  27.566  14.404
53852W        W15273  27.068  11.776  12.401
53853W        W15274  15.282  31.648  12.944
53854W        W15275  34.561  26.175   3.695
53855W        W15276  12.638  25.016  10.632
53856W        W15277  17.578  44.899  14.953
53857W        W15278  43.393   9.720  14.418
53858W        W15279  22.037  14.741  11.882
53859W        W15280   2.272  40.426   4.755
53860W        W15281   3.914  30.958   2.827
53861W        W15282   0.925  34.521   2.180
53862W        W15283  21.732  16.123  14.856
53863W        W15284  39.473   3.349  12.551
53864W        W15285  15.694  35.090  13.964
53865W        W15286  25.210  30.096  10.544
53866W        W15287  14.589  12.286   1.721
53867W        W15288  23.985   9.373  10.478
53868W        W15289  28.617  34.923  11.518
53869W        W15290  41.013  34.105  12.453
53870W        W15291  30.462  40.899  12.402
53871W        W15292   0.755  10.782   2.880
53872W        W15293  22.191   2.343   0.482
53873W        W15294  24.688  40.498   3.276
53874W        W15295  25.601  37.965   1.768
53875W        W15296  28.480  32.538   4.197
53876W        W15297  20.206   0.784   3.271
53877W        W15298  17.106  14.163   2.784
53878W        W15299   5.928   9.155  13.861
53879W        W15300  20.607   8.722   0.868
53880W        W15301   5.883  16.693  10.956
53881W        W15302   4.309  33.038   0.791
53882W        W15303  16.289  21.237   3.823
53883W        W15304  29.951  40.999  13.935
53884W        W15305   1.862   5.295  14.376
53885W        W15306  22.082  28.619   3.330
53886W        W15307  33.612  42.383   1.287
53887W        W15308  21.114   1.417  11.581
53888W        W15309  17.093  42.890  10.931
53889W        W15310  29.465  11.643   0.325
53890W        W15311  10.323  26.467  11.480
53891W        W15312  27.489   0.810  14.402
53892W        W15313  34.108  37.051   2.228
53893W        W15314  28.655   1.914   1.277
53894W        W15315   2.266   9.857  12.411
53895W        W15316   5.874  28.095  12.369
53896W        W15317  35.945  11.673   5.209
53897W        W15318  18.223  10.375  13.518
53898W        W15319  44.971  15.191   3.753
53899W        W15320  44.790   8.265  11.045
53900W        W15321   1.344   9.151  10.532
53901W        W15322  35.422  21.711  11.980
53902W        W15323  15.577   7.702  12.051
53903W        W15324  25.101  29.973   2.706
53904W        W15325  21.037  21.170   1.425
53905W        W15326  30.569  12.738  11.609
53906W        W15327   9.211  15.106   1.919
53907W        W15328  42.010  17.161  11.414
53908W        W15329   5.328   6.863   0.281
53909W        W15330   0.406  12.159   0.302
53910W        W15331  14.796  33.539  10.046
53911W        W15332  15.718  18.245   2.758
53912W        W15333   7.183  32.461  14.298
53913W        W15334  16.710   2.462   4.335
53914W        W15335  34.949  29.170  13.844
53915W        W15336  35.022  15.206  11.938
53916W        W15337  42.322  25.590   3.247
53917W        W15338   8.827   8.392   2.836
53918W        W15339   5.910  17.169  12.374
53919W        W15340  28.091  37.491  14.410
53920W        W15341  32.591   5.740  14.372
53921W        W15342   1.830  13.106  14.032
53922W        W15343   8.364   3.431   4.333
53923W        W15344   7.806  44.351   4.625
53924W        W15345  19.595  42.897  12.354
53925W        W15346   2.856  40.507  12.356
53926W        W15347   6.222  22.707   1.438
53927W        W15348  18.237   1.795   2.804
53928W        W15349  44.010  19.694   0.466
53929W        W15350  40.505  24.562   0.405
53930W        W15351  19.181  13.602   4.335
53931W        W15352  35.488  12.323   2.356
53932W        W15353  12.850  23.663  14.391
53933W        W15354  29.642   8.757  12.861
53934W        W15355   9.654  28.995  14.369
53935W        W15356  10.360  16.571   0.360
53936W        W15357  29.573   1.245  11.892
53937W        W15358  23.511  30.084  14.433
53938W        W15359  14.797  22.068   3.243
53939W        W15360   9.670   7.726  11.106
53940W        W15361   2.812  10.334   0.776
53941W        W15362  20.136  31.939   4.211
53942W        W15363  24.682  41.985   1.401
53943W        W15364   1.255   9.257  13.317
53944W        W15365  25.218  36.363   5.121
53945W        W15366   4.418  31.119  14.293
53946W        W15367   8.356  32.968  14.815
53947W        W15368  29.956  43.445   1.343
53948W        W15369  23.511  31.419   2.671
53949W        W15370  16.609  25.082   3.262
53950W        W15371  28.536  37.381  12.376
53951W        W15372  30.648  40.412  13.948
53952W        W15373   1.482  39.504   4.260
53953W        W15374   8.171   0.817  12.995
53954W        W15375  36.849   3.886  10.457
53955W        W15376   2.377  28.979   4.298
53956W        W15377  44.990  10.254  13.953
53957W        W15378  16.725  26.505   0.901
53958W        W15379  14.722  36.007  12.903
53959W        W15380   4.848  25.090  12.377
53960W        W15381  22.176  15.786  13.437
53961W        W15382  25.029  35.870  12.056
53962W        W15383  39.022  25.563  14.497
53963W        W15384  34.441  20.118  11.601
53964W        W15385   0.804  21.614   0.415
53965W        W15386  22.595   6.755  10.460
53966W        W15387  18.577  40.381   0.465
53967W        W15388  19.119   1.322  12.510
53968W        W15389  38.846  24.499   0.362
53969W        W15390  34.980  29.164  12.887
53970W        W15391  13.839   1.973  10.513
53971W        W15392  14.685  42.780   2.419
53972W        W15393  27.523  10.365  10.474
53973W        W15394  32.618  21.107  10.910
53974W        W15395  40.935  43.835   4.243
53975W        W15396   7.192  14.231   2.330
53976W        W15397  43.769  17.166   0.793
53977W        W15398   8.295  19.270  13.431
53978W        W15399  30.443  43.789  10.936
53979W        W15400  37.999  17.607  14.953
53980W        W15401   2.735  17.763  13.318
53981W        W15402  37.410  43.008  14.468
53982W        W15403  23.133  18.740  14.331
53983W        W15404  14.207  38.038   1.923
53984W        W15405  10.253  20.233   0.827
53985W        W15406  32.991   8.863  10.446
53986W        W15407   7.903   4.900   4.608
53987W        W15408  23.017   6.775  14.954
53988W        W15409  21.604   3.445   1.249
53989W        W15410  26.597  44.905   1.861
53990W        W15411  31.065  26.960  10.449
53991W        W15412  39.861  37.836  14.023
53992W        W15413   2.879  26.972  11.571
53993W        W15414  28.636   5.743   3.259
53994W        W15415  39.027  22.703   0.389
53995W        W15416   7.266  21.230  13.962
53996W        W15417  39.930   8.234   4.735
53997W        W15418  36.067  10.297   4.759
53998W        W15419  35.094  39.032   4.177
53999W        W15420  41.826   1.809  13.455
54000W        W15421  35.945  41.923  13.885
54001W        W15422  37.982  32.472   3.276
54002W        W15423  37.902  30.555   1.703
54003W        W15424  41.512   4.329   1.894
54004W        W15425   1.462  38.835  12.852
54005W        W15426  30.657   2.849  11.088
54006W        W15427  30.127  41.793   1.314
54007W        W15428  38.404   1.409   0.354
54008W        W15429  36.578  36.992  13.925
54009W        W15430  29.598   9.747  13.366
54010W        W15431  43.492  29.437  13.403
54011W        W15432  31.047  12.162  12.542
54012W        W15433  14.262   4.382   2.378
54013W        W15434  25.972  12.761   4.244
54014W        W15435   8.733  26.189  12.472
54015W        W15436  17.192  39.059  11.111
54016W        W15437   3.409  24.157  11.427
54017W        W15438   8.239  22.050  14.872
54018W        W15439  33.017  24.550   1.278
54019W        W15440  38.549  35.570   3.778
54020W        W15441  36.907  23.696   0.414
54021W        W15442  25.585  36.359   4.335
54022W        W15443  21.254  14.103   4.282
54023W        W15444   0.367  17.674   1.741
54024W        W15445  42.974  41.320  14.869
54025W        W15446  25.578   9.655   1.299
54026W        W15447  18.710  41.401   4.119
54027W        W15448  39.465   0.458  12.074
54028W        W15449   3.395  29.589   3.318
54029W        W15450  17.297  40.023   0.795
54030W        W15451   3.915  11.702  11.113
54031W        W15452  40.013   6.863  12.445
54032W        W15453  34.493  16.236  14.991
54033W        W15454  32.940  22.734  14.804
54034W        W15455  38.016  34.954  13.365
54035W        W15456  34.414   0.349  10.921
54036W        W15457   9.348   1.482  10.432
54037W        W15458   1.260  26.038  14.315
54038W        W15459  23.672  24.154  10.938
54039W        W15460  25.158  41.908   3.796
54040W        W15461  32.917  15.255   3.760
54041W        W15462   3.827   4.436  11.412
54042W        W15463  37.372  30.559  14.292
54043W        W15464  18.137  37.871  14.450
54044W        W15465   1.432  37.838  12.534
54045W        W15466   2.840  19.623  12.920
54046W        W15467  41.939   0.836  11.471
54047W        W15468   3.439  14.628   2.401
54048W        W15469  40.481  17.634  11.523
54049W        W15470   4.313  42.805   2.249
54050W        W15471  35.429   6.363   4.609
54051W        W15472  22.231  26.538  13.335
54052W        W15473  13.204  16.808  10.150
54053W        W15474  10.153  26.143  10.138
54054W        W15475  37.537  25.576   3.160
54055W        W15476  40.845   1.461   4.340
54056W        W15477   8.670  16.788  13.822
54057W        W15478  23.687  22.252   3.162
54058W        W15479  40.482  29.967   2.757
54059W        W15480  21.701  33.035  13.896
54060W        W15481   6.413   6.685  12.962
54061W        W15482  15.283   3.339   2.709
54062W        W15483  31.063  38.874  11.120
54063W        W15484   5.751  44.465  10.508
54064W        W15485  20.728  13.751   5.703
54065W        W15486   3.835  21.162   1.746
54066W        W15487   6.266   4.858   3.660
54067W        W15488  11.231  19.262   2.751
54068W        W15489   9.383  38.567   2.301
54069W        W15490  34.520   4.812   0.334
54070W        W15491  35.052  17.134  13.429
54071W        W15492   6.794  37.080  13.904
54072W        W15493   4.279  42.433  13.045
54073W        W15494  13.191  35.517  10.471
54074W        W15495   7.202  43.868  11.067
54075W        W15496  21.074  30.581   4.151
54076W        W15497  30.109   4.785  14.331
54077W        W15498  15.712  21.591   3.289
54078W        W15499  34.962  27.010   2.870
54079W        W15500  43.938   5.262  11.490
54080W        W15501   6.328  30.028   1.334
54081W        W15502  25.586  20.565   1.278
54082W        W15503  17.696  40.462  13.401
54083W        W15504  29.973  10.788   3.249
54084W        W15505  22.513  11.170   3.146
54085W        W15506  43.367   1.416   2.292
54086W        W15507   8.666  40.530  13.913
54087W        W15508   9.708  20.271   3.185
54088W        W15509  37.953  25.570   4.692
54089W        W15510  23.212  12.151   0.411
54090W        W15511   3.863  37.484  14.002
54091W        W15512  25.071  41.415   4.735
54092W        W15513  35.498  14.827  13.947
54093W        W15514  20.566  35.985  13.029
54094W        W15515  26.633  19.202   3.164
54095W        W15516  36.391  42.914  13.438
54096W        W15517   7.220   9.813  13.926
54097W        W15518  40.402  12.318  13.968
54098W        W15519  31.066  28.548  14.412
54099W        W15520  40.364  30.981   4.672
54100W        W15521  10.171  41.520   4.695
54101W        W15522  40.965  23.028   1.251
54102W        W15523   9.242  38.525   3.308
54103W        W15524  35.972   9.888  12.540
54104W        W15525  37.079  13.833   0.269
54105W        W15526  20.545  38.032  10.482
54106W        W15527   2.919  13.769   1.899
54107W        W15528  37.475  11.741   4.756
54108W        W15529  39.502  40.033  14.465
54109W        W15530  34.494  43.908   2.285
54110W        W15531  31.930   5.828  14.905
54111W        W15532  34.108   3.929   2.416
54112W        W15533  17.268  30.057   3.382
54113W        W15534  36.526  41.428  14.843
54114W        W15535   1.469   5.746  12.376
54115W        W15536  43.506  21.695   1.761
54116W        W15537  35.976  25.601  11.092
54117W        W15538  27.484  25.477  11.861
54118W        W15539  44.503  37.452  10.559
54119W        W15540   1.748   8.777  10.477
54120W        W15541  34.542  24.117   0.340
54121W        W15542   6.333  26.105   1.259
54122W        W15543  11.261  15.172   1.895
54123W        W15544  40.974  24.633   0.786
54124W        W15545  18.280  30.938   3.731
54125W        W15546  40.017  37.857  14.983
54126W        W15547   0.356   5.888   2.890
54127W        W15548   0.772  33.551  14.864
54128W        W15549  39.047   8.262  13.350
54129W        W15550  43.022   1.917   1.307
54130W        W15551   2.787  19.735  10.426
54131W        W15552  34.438  13.124  11.976
54132W        W15553  44.435  10.264  12.493
54133W        W15554  25.577  34.013   1.749
54134W        W15555  17.238  35.386   1.407
54135W        W15556  26.109  39.013  13.825
54136W        W15557  39.909   9.647  11.538
54137W        W15558  39.010  20.236   1.409
54138W        W15559  37.066  44.923   4.739
54139W        W15560  43.353  35.019   4.218
54140W        W15561  11.623  15.313  14.763
54141W        W15562  41.338  31.040  13.960
54142W        W15563   9.254  39.360  12.058
54143W        W15564  38.973  44.390  14.820
54144W        W15565  21.645  15.594   4.614
54145W        W15566  30.480   3.402   0.959
54146W        W15567   7.789  29.661  11.117
54147W        W15568  14.246   5.274   3.698
54148W        W15569  36.863  37.538   1.765
54149W        W15570  26.519  19.048  11.892
54150W        W15571  15.681  16.083   1.844
54151W        W15572  33.909  27.119   4.609
54152W        W15573  40.870  12.692   0.732
54153W        W15574  14.289  21.251  11.096
54154W        W15575  44.378  44.432  11.533
54155W        W15576  18.583  44.480  11.070
54156W        W15577  23.494  30.535  14.975
54157W        W15578  39.030  31.646   1.355
54158W        W15579  24.523   6.319   2.404
54159W        W15580  37.868  31.446   1.710
54160W        W15581   0.912  13.693   3.804
54161W        W15582  22.064   9.832  11.459
54162W        W15583  21.724   6.870  13.030
54163W        W15584  16.583   2.384   0.881
54164W        W15585   6.188  11.745  10.602
54165W        W15586  22.244   0.849   3.191
54166W        W15587   0.947  25.018  11.887
54167W        W15588   2.872  31.150  14.945
54168W        W15589   4.828  12.628   0.747
54169W        W15590  36.945  10.661   4.674
54170W        W15591  42.459  44.788  13.914
54171W        W15592  23.161  11.195  10.456
54172W        W15593  35.551  40.416   0.376
54173W        W15594   4.407  24.976   0.322
54174W        W15595  37.580  24.685  12.844
54175W        W15596  27.660   4.303  14.405
54176W        W15597  31.571  43.885   2.244
54177W        W15598  39.950  29.063  12.941
54178W        W15599   8.782  13.250  11.908
54179W        W15600  31.495  39.914  14.020
54180W        W15601  15.765  31.094  14.891
54181W        W15602  10.866  12.150  12.495
54182W        W15603  40.895  27.188  10.524
54183W        W15604  26.177  35.371  11.567
54184W        W15605  44.904   0.301   2.213
54185W        W15606  22.153  28.579  12.412
54186W        W15607  33.406  23.202  12.885
54187W        W15608  40.348  41.031   0.842
54188W        W15609  27.515  27.135  12.412
54189W        W15610  14.640  18.277  14.774
54190W        W15611  15.193  34.890  11.472
54191W        W15612  13.226  14.678  14.871
54192W        W15613  16.595  39.528   4.154
54193W        W15614  34.870  41.529  14.481
54194W        W15615  19.272  29.159  14.946
54195W        W15616   1.307  34.561   0.823
54196W        W15617  21.257  35.483   0.832
54197W        W15618  20.723  21.514   4.717
54198W        W15619  34.092  21.215  13.841
54199W        W15620   9.665  24.610   3.384
54200W        W15621  26.560   5.926  14.982
54201W        W15622  30.530  15.630   0.843
54202W        W15623   5.341  23.581  14.388
54203W        W15624   3.319   0.434  10.497
54204W        W15625  34.519  26.600  12.837
54205W        W15626  30.083   3.262   0.473
54206W        W15627  17.206  24.562   2.293
54207W        W15628  23.062  38.868  11.436
54208W        W15629   9.367  40.840  13.029
54209W        W15630  44.301   1.752  14.831
54210W        W15631  13.254  12.207  12.518
54211W        W15632  39.377  19.610   3.262
54212W        W15633  34.405  16.594  10.430
54213W        W15634  16.806  14.217   1.426
54214W        W15635   8.695  23.515  10.475
54215W        W15636  25.061   9.326  14.295
54216W        W15637   6.255  42.436  14.508
54217W        W15638  42.019  34.968  13.517
54218W        W15639  34.554  34.513   2.309
54219W        W15640  38.864  17.214  12.449
54220W        W15641   3.456  37.893  10.442
54221W        W15642   0.458  42.798   4.621
54222W        W15643   9.293  21.527   4.708
54223W        W15644  15.652  17.164   3.737
54224W        W15645   9.646  14.724   0.364
54225W        W15646  12.216  23.049   0.345
54226W        W15647  38.519  35.539  12.395
54227W        W15648  10.357  10.209  15.000
54228W        W15649  17.703  27.994  12.519
54229W        W15650  12.662  41.833   0.340
54230W        W15651   4.381  25.559   0.323
54231W        W15652   6.239   2.888   3.641
54232W        W15653  19.749  29.108  11.874
54233W        W15654  14.281  42.305  14.881
54234W        W15655  40.442  15.204   1.253
54235W        W15656   2.742  31.059  14.339
54236W        W15657  15.823  28.467  12.519
54237W        W15658  40.513  30.139   4.759
54238W        W15659  26.557   7.833   1.717
54239W        W15660   5.836  20.533   2.179
54240W        W15661  26.046  21.203  13.350
54241W        W15662  12.702  20.567  13.889
54242W        W15663  16.191  22.548   4.250
54243W        W15664  34.606  33.542  13.352
54244W        W15665  19.218  38.380   2.197
54245W        W15666  29.024  15.638   4.230
54246W        W15667  16.744  12.615  14.477
54247W        W15668  34.587  33.594   3.680
54248W        W15669  16.585  13.116  11.026
54249W        W15670   7.888  10.634   4.156
54250W        W15671  36.942  28.099   1.719
54251W        W15672  21.607   3.334   4.122
54252W        W15673  40.816   3.244   3.250
54253W        W15674  35.964  35.987   3.230
54254W        W15675  33.510  17.153  13.954
54255W        W15676  37.937  35.440  14.394
54256W        W15677  13.768  14.279   2.831
54257W        W15678  24.099  22.726   3.192
54258W        W15679   4.732  44.288   4.699
54259W        W15680   7.393  16.133   4.601
54260W        W15681  39.925  32.957  11.927
54261W        W15682  13.814   6.246   1.714
54262W        W15683  37.953   6.908   4.327
54263W        W15684  20.036  19.265   3.177
54264W        W15685  10.355  31.006   0.796
54265W        W15686  40.053  24.666  10.458
54266W        W15687   8.234  29.462   4.116
54267W        W15688  18.079   0.483   4.702
54268W        W15689  33.558   5.414  12.545
54269W        W15690   5.327  34.529   0.268
54270W        W15691  14.626  19.549  12.538
54271W        W15692  36.933  26.954  14.482
54272W        W15693  16.254  44.792   3.195
54273W        W15694  24.646  26.542   2.774
54274W        W15695  44.419   1.309   3.245
54275W        W15696  13.155  34.027   5.271
54276W        W15697  44.458  15.278   2.666
54277W        W15698  34.091  24.095   2.280
54278W        W15699  33.511  18.065   0.840
54279W        W15700   5.749   2.462   5.595
54280W        W15701  20.241  26.104  14.803
54281W        W15702  34.450  18.646   2.871
54282W        W15703   6.419   6.413  11.410
54283W        W15704  27.093  28.670   4.818
54284W        W15705  24.685  35.094  11.613
54285W        W15706  25.647   8.887  12.372
54286W        W15707  16.603  12.164   3.343
54287W        W15708  40.983  29.065  13.843
54288W        W15709  21.039  43.814  13.417
54289W        W15710  32.079  16.774   0.456
54290W        W15711  42.860   2.911   2.266
54291W        W15712   9.830  38.520   0.250
54292W        W15713  33.905  41.383  11.463
54293W        W15714  14.767  29.547   4.754
54294W        W15715   0.432   0.915   0.931
54295W        W15716  33.539  10.325   3.206
54296W        W15717   3.293  27.028  12.490
54297W        W15718  33.427   5.402  13.389
54298W        W15719  39.041  28.133   1.773
54299W        W15720   7.281   5.245   1.330
54300W        W15721   1.309   9.813  11.507
54301W        W15722   6.759  22.165   1.850
54302W        W15723  12.641  43.840  12.468
54303W        W15724   5.815  25.508  12.513
54304W        W15725  41.976  26.540   4.191
54305W        W15726  22.086   4.872   3.706
54306W        W15727  20.176   3.731   3.636
54307W        W15728  41.379  35.925   2.865
54308W        W15729  39.342  16.661  11.884
54309W        W15730   0.964  30.965   2.266
54310W        W15731  17.790  22.036   3.836
54311W        W15732  28.091  11.668  13.357
54312W        W15733  18.239  21.229  13.975
54313W        W15734  40.451  37.937   3.220
54314W        W15735  19.268  10.774  14.875
54315W        W15736  14.239  10.347  11.511
54316W        W15737   3.436  38.487  11.503
54317W        W15738  12.629  29.483  11.579
54318W        W15739  29.154   3.724  13.457
54319W        W15740   4.257   1.457  13.408
54320W        W15741   3.866  22.195   4.657
54321W        W15742  21.580   4.732   9.595
54322W        W15743   4.701  16.208  11.014
54323W        W15744  38.378  39.902   3.334
54324W        W15745  30.480   4.852  12.405
54325W        W15746  37.564  23.122   3.298
54326W        W15747  12.825  28.563   4.215
54327W        W15748   9.681  36.009   3.373
54328W        W15749   8.218  26.493   0.743
54329W        W15750  39.390  17.680   2.273
54330W        W15751   4.758  16.729   9.966
54331W        W15752  10.804  34.609   1.882
54332W        W15753   4.404  38.003   1.879
54333W        W15754  11.317  15.691  11.952
54334W        W15755  37.530  40.868  11.472
54335W        W15756  35.864  26.602  11.382
54336W        W15757  31.974  21.570  11.377
54337W        W15758  14.119  38.831   3.255
54338W        W15759   2.390  36.018  11.872
54339W        W15760  43.939  41.929  14.503
54340W        W15761  23.161  33.414  11.577
54341W        W15762  33.980  12.153  14.353
54342W        W15763  13.644   2.787   4.631
54343W        W15764  41.437  32.993  14.846
54344W        W15765  13.211  13.121  14.501
54345W        W15766  12.177  10.693  13.411
54346W        W15767  33.577   2.226  12.870
54347W        W15768  41.357   1.971  11.391
54348W        W15769  39.063  40.986   1.229
54349W        W15770   1.483  27.675  12.382
54350W        W15771  20.050  17.600  13.377
54351W        W15772  41.958  33.489  13.795
54352W        W15773   6.358  32.414   0.305
54353W        W15774  44.836  18.281   0.807
54354W        W15775  16.658  13.130   2.781
54355W        W15776  15.784   1.293  14.952
54356W        W15777   7.886  22.548   3.289
54357W        W15778  26.675  37.005  12.985
54358W        W15779  31.115  10.317   3.791
54359W        W15780   1.402  28.993  11.377
54360W        W15781  39.920  24.114  11.057
54361W        W15782  28.526  21.590   2.395
54362W        W15783  28.940  24.019   4.192
54363W        W15784  34.901  18.211   1.285
54364W        W15785  30.649  10.814  11.521
54365W        W15786  37.978  44.391  13.479
54366W        W15787  11.216  31.122  14.379
54367W        W15788  21.626  31.572   1.243
54368W        W15789   2.359   1.309  10.443
54369W        W15790  10.695  40.437   1.258
54370W        W15791  14.692   1.244  13.941
54371W        W15792  23.115  28.166  12.997
54372W        W15793  34.491  24.049  13.962
54373W        W15794   2.326  10.255  14.371
54374W        W15795  23.589  39.906  11.537
54375W        W15796  18.060  29.512  12.057
54376W        W15797  40.327  33.007  10.590
54377W        W15798   1.766  15.598   3.731
54378W        W15799  24.125  35.869   0.439
54379W        W15800  11.242  29.437   2.313
54380W        W15801  20.152  14.107   1.762
54381W        W15802  41.327  13.125   0.756
54382W        W15803   3.951  13.276  13.916
54383W        W15804   1.885  15.155  11.106
54384W        W15805  17.603  29.966   1.347
54385W        W15806  26.970  26.613   3.810
54386W        W15807  41.912  26.962   1.355
54387W        W15808   7.731   1.922  10.488
54388W        W15809  33.905  16.743  11.444
54389W        W15810   7.671  34.501   4.807
54390W        W15811  22.502  12.762  10.524
54391W        W15812   6.299  17.113  14.451
54392W        W15813  34.071  33.880   3.830
54393W        W15814  17.275   6.819  12.346
54394W        W15815  11.743   2.386  14.961
54395W        W15816  25.636  39.027  14.941
54396W        W15817  39.884  15.232   4.781
54397W        W15818  14.827  27.658   3.741
54398W        W15819  29.169  25.103  11.856
54399W        W15820  20.062  39.062   3.295
54400W        W15821  13.299  28.529   2.890
54401W        W15822  28.122  32.100  10.106
54402W        W15823  42.453   5.259   3.797
54403W        W15824  22.534  28.174  11.894
54404W        W15825   6.739  21.747  10.572
54405W        W15826  23.688  35.453   3.835
54406W        W15827  20.613  41.418  10.602
54407W        W15828   9.229  43.820   0.733
54408W        W15829  32.017  10.286   2.821
54409W        W15830  10.376  37.557  13.396
54410W        W15831  10.174  37.526  14.956
54411W        W15832  43.457  40.502  14.466
54412W        W15833  37.947  17.238  12.824
54413W        W15834  41.820  23.714  14.384
54414W        W15835  13.268  43.805  12.382
54415W        W15836  26.095  30.488   4.214
54416W        W15837   9.194   0.921   0.242
54417W        W15838  22.738  15.690  11.046
54418W        W15839  43.336  19.682   4.332
54419W        W15840  20.654  36.057   3.379
54420W        W15841   8.358  12.795  13.889
54421W        W15842  30.513  28.504  12.484
54422W        W15843  19.552   0.759   2.838
54423W        W15844  26.561  27.661  11.445
54424W        W15845  11.212  38.466   1.876
54425W        W15846  19.069  36.950   0.347
54426W        W15847  44.835  13.787  14.936
54427W        W15848  32.627  35.600  11.115
54428W        W15849  20.638  29.074  12.561
54429W        W15850  35.517   3.779  12.013
54430W        W15851   9.769  37.961   2.714
54431W        W15852  42.900  26.961   4.700
54432W        W15853  31.139  26.693  14.848
54433W        W15854  43.271   7.397   4.227
54434W        W15855  17.732   0.858  10.638
54435W        W15856  11.363  31.045  13.885
54436W        W15857  20.745  33.989  12.347
54437W        W15858  41.002  21.097  14.343
54438W        W15859   9.858  23.984  13.969
54439W        W15860  12.841  20.077  11.530
54440W        W15861   2.761  37.027  12.047
54441W        W15862  38.338   7.896  12.878
54442W        W15863  23.164  10.744   0.964
54443W        W15864  43.826  15.617   1.414
54444W        W15865  32.564  44.357   0.789
54445W        W15866  20.032  11.841  10.605
54446W        W15867  32.027  43.020  12.442
54447W        W15868   9.233  32.599  12.982
54448W        W15869  28.540  16.217   1.705
54449W        W15870  29.539  32.616  12.992
54450W        W15871  40.893  21.758   4.787
54451W        W15872  41.358  22.575  12.985
54452W        W15873   1.282   8.779   0.829
54453W        W15874  18.625   4.869  11.093
54454W        W15875   8.394  16.294  14.418
54455W        W15876  41.968  27.458  14.999
54456W        W15877  21.022   1.281  12.053
54457W        W15878   0.877   6.708  13.891
54458W        W15879  20.537  10.307   4.695
54459W        W15880  37.526  34.410   4.268
54460W        W15881   7.719  10.168   3.814
54461W        W15882  38.433  23.064  12.073
54462W        W15883  38.857  35.567   4.284
54463W        W15884  13.836  25.678  14.931
54464W        W15885  27.622  28.181   0.392
54465W        W15886   0.935  29.664  11.009
54466W        W15887   4.274  39.960  10.971
54467W        W15888  35.526  20.580   4.163
54468W        W15889   8.217  32.015   0.393
54469W        W15890   8.681  40.968  13.002
54470W        W15891  16.139  23.119   3.780
54471W        W15892  39.452   2.411  11.581
54472W        W15893  21.083  24.084   4.322
54473W        W15894   2.408   2.926   1.809
54474W        W15895  16.578  14.595   0.902
54475W        W15896   5.775  14.675  11.109
54476W        W15897  22.250   9.686  14.394
54477W        W15898   5.852  20.128  14.837
54478W        W15899  23.011  32.102  14.786
54479W        W15900  29.129  41.918   0.781
54480W        W15901  31.539  32.002   3.262
54481W        W15902  37.542  35.925   0.368
54482W        W15903  23.018  23.734   4.828
54483W        W15904  19.255  35.906  11.517
54484W        W15905  25.171  25.181  13.924
54485W        W15906  12.229  24.190   3.154
54486W        W15907  22.713  22.624  12.866
54487W        W15908   4.330   4.816   1.331
54488W        W15909  22.155  10.762  11.387
54489W        W15910   8.271  26.539  13.525
54490W        W15911  42.354   4.275  13.474
54491W        W15912  33.578  32.495  12.483
54492W        W15913  39.044  21.075   9.973
54493W        W15914  23.544  17.684   3.268
54494W        W15915  38.032  14.696   2.338
54495W        W15916   8.711  16.672  10.455
54496W        W15917  21.106  33.499  10.636
54497W        W15918  38.868   0.369   2.723
54498W        W15919  44.445  10.764  12.880
54499W        W15920  42.492  24.693  11.885
54500W        W15921  13.270  26.981  14.907
54501W        W15922  18.578   1.352   3.686
54502W        W15923   7.410  24.229   2.183
54503W        W15924  18.586   7.237  14.361
54504W        W15925  27.115  17.250   2.281
54505W        W15926  19.067  15.804   3.783
54506W        W15927  12.129  44.949   3.154
54507W        W15928  15.793  26.030   3.189
54508W        W15929  38.891  22.061  12.418
54509W        W15930  44.388   7.391  10.026
54510W        W15931  23.556   3.354  14.473
54511W        W15932  40.391   7.320  14.906
54512W        W15933  26.568  13.316   0.751
54513W        W15934  31.581  34.371   4.790
54514W        W15935  42.354  33.575  14.452
54515W        W15936   7.332  32.535   4.800
54516W        W15937  15.610   5.904  12.451
54517W        W15938   2.472  35.530  14.447
54518W        W15939  28.467  37.545   3.161
54519W        W15940  14.164   2.237   2.269
54520W        W15941  39.037  43.348   2.885
54521W        W15942  40.526  44.784  11.900
54522W        W15943  40.045  19.098  10.988
54523W        W15944   5.383  41.457   3.678
54524W        W15945  31.545   3.399   1.418
54525W        W15946  34.458  21.111   4.753
54526W        W15947  23.072  30.470  14.794
54527W        W15948  13.217  10.642  12.415
54528W        W15949  12.317  19.534  11.996
54529W        W15950  16.783  10.636  14.794
54530W        W15951   3.286  19.221  13.412
54531W        W15952  33.429   4.780  12.565
54532W        W15953  14.761  19.651   4.791
54533W        W15954  41.998  41.467   0.867
54534W        W15955  15.738  31.539  11.860
54535W        W15956   6.898  39.951  13.902
54536W        W15957  33.000   1.334  12.524
54537W        W15958  41.519  32.981   4.159
54538W        W15959  34.074  29.608   3.284
54539W        W15960  27.082  21.078  11.435
54540W        W15961  19.088  31.943  11.931
54541W        W15962  12.715  44.952  14.493
54542W        W15963  33.509  43.358   3.686
54543W        W15964  10.713  41.481  10.490
54544W        W15965  28.103  37.552  13.330
54545W        W15966  12.219  27.495  11.964
54546W        W15967   1.393  23.516   1.924
54547W        W15968  27.160  43.962  11.045
54548W        W15969  26.957  33.027   3.845
54549W        W15970  13.286  44.824  10.927
54550W        W15971  43.306  21.746  11.094
54551W        W15972  40.416  11.674  13.909
54552W        W15973  18.708  24.120   0.765
54553W        W15974  35.456  19.755   0.738
54554W        W15975  35.974  34.443  12.491
54555W        W15976  18.092  21.687  14.945
54556W        W15977  14.278  17.628   3.733
54557W        W15978  23.052   4.241  10.606
54558W        W15979  41.471  25.609  13.314
54559W        W15980  38.564  42.953  12.852
54560W        W15981  34.473   9.789  14.818
54561W        W15982  31.022   8.859   0.334
54562W        W15983  22.652  33.124  11.543
54563W        W15984  23.169  31.534   3.195
54564W        W15985  15.694  17.576   1.262
54565W        W15986   8.684  40.495   4.170
54566W        W15987   8.219  40.431  14.960
54567W        W15988  21.610  15.091   4.652
54568W        W15989   5.816  15.773  10.941
54569W        W15990  25.650   3.422   1.374
54570W        W15991   9.223  41.947  11.466
54571W        W15992  26.602  23.138   3.216
54572W        W15993  10.745   1.902  12.941
54573W        W15994   4.220  26.156   1.285
54574W        W15995  13.214   6.690   1.844
54575W        W15996   6.391  31.500  11.996
54576W        W15997  44.837  12.214  14.468
54577W        W15998  40.450  12.635   1.898
54578W        W15999  40.969   9.681  13.902
54579W        W16000  25.478   7.672   9.976
54580W        W16001  17.241  37.368  10.923
54581W        W16002   1.837  20.694  12.552
54582W        W16003  14.103  27.578   1.350
54583W        W16004  17.289  43.924  11.915
54584W        W16005   6.736  36.357  12.550
54585W        W16006  17.739  21.664   3.177
54586W        W16007  37.344   1.918  12.911
54587W        W16008  29.659  21.724  12.886
54588W        W16009  18.662  14.652  11.996
54589W        W16010  17.180  38.439   0.946
54590W        W16011  10.381  19.633   3.652
54591W        W16012  34.917  12.651  13.470
54592W        W16013  26.555  14.789   1.370
54593W        W16014  31.456  12.702   3.865
54594W        W16015   9.241  13.213  14.336
54595W        W16016  22.229  19.155   4.801
54596W        W16017  34.870  28.665  11.384
54597W        W16018  22.541  34.552   4.267
54598W        W16019  24.547   1.249   4.815
54599W        W16020  22.747  35.365  11.891
54600W        W16021  17.692  33.054   3.745
54601W        W16022   6.365  23.719   3.730
54602W        W16023   9.268  35.101  12.828
54603W        W16024  22.053  15.226  13.044
54604W        W16025  12.781  13.117  13.488
54605W        W16026  34.505  17.229  13.965
54606W        W16027   6.321  10.809   3.206
54607W        W16028  19.709  39.843   1.916
54608W        W16029  25.984   0.354  10.584
54609W        W16030  23.666   0.865   2.890
54610W        W16031  16.216  19.166  12.013
54611W        W16032  37.006  44.902  11.436
54612W        W16033  40.962  41.484   3.673
54613W        W16034  16.750  33.074  12.521
54614W        W16035  33.524   6.219  13.016
54615W        W16036  10.383   2.438   1.370
54616W        W16037   2.438  34.938  13.027
54617W        W16038  39.855  13.633  14.434
54618W        W16039  38.446  12.793   0.266
54619W        W16040  18.064  10.178  14.866
54620W        W16041  21.679  42.974  10.632
54621W        W16042   5.693   7.669   4.276
54622W        W16043  36.352  26.477   1.245
54623W        W16044  29.469   5.863  14.852
54624W        W16045  31.980  17.559   0.301
54625W        W16046  16.163  40.858  11.606
54626W        W16047  23.672  37.429   1.355
54627W        W16048  30.593  19.558   2.217
54628W        W16049   9.184  31.442  10.919
54629W        W16050  11.842  30.474  12.512
54630W        W16051  31.021  43.436   2.845
54631W        W16052   4.729  44.284   3.252
54632W        W16053  24.070   9.820   3.740
54633W        W16054  16.134  34.015   2.702
54634W        W16055  25.165  44.837  13.953
54635W        W16056  39.399  22.688  13.431
54636W        W16057   2.779  21.115  13.866
54637W        W16058  15.703   4.789   4.787
54638W        W16059  41.379  37.053   3.188
54639W        W16060  30.555  12.620  10.446
54640W        W16061  10.811  36.978   0.728
54641W        W16062  24.998  20.533  12.425
54642W        W16063  13.151  36.476   0.274
54643W        W16064  38.526  19.120  14.934
54644W        W16065  28.117  43.879   2.290
54645W        W16066   2.238  17.619  14.427
54646W        W16067  35.550  12.660  12.993
54647W        W16068   8.167  42.373   0.772
54648W        W16069  18.779   3.318   1.295
54649W        W16070  17.174  43.340  12.575
54650W        W16071  32.540  38.857  12.947
54651W        W16072  31.999  19.078  11.875
54652W        W16073  42.514   6.679   1.244
54653W        W16074   1.952  31.584   2.221
54654W        W16075  43.458   9.797  12.874
54655W        W16076  14.338   1.430  10.409
54656W        W16077  41.024  18.585   2.822
54657W        W16078   2.874  18.212   1.238
54658W        W16079  15.701  15.759   3.310
54659W        W16080  19.063   7.256   2.822
54660W        W16081  37.981  44.430   2.837
54661W        W16082  36.888  11.801  14.363
54662W        W16083   7.407  21.731   0.734
54663W        W16084  31.959   8.179   4.710
54664W        W16085  36.905  20.768  14.503
54665W        W16086  11.280  22.119  12.875
54666W        W16087  26.674   2.949   2.805
54667W        W16088   9.306   8.249  11.467
54668W        W16089  23.040  29.454   0.425
54669W        W16090   8.755  31.004  12.541
54670W        W16091  44.808   2.760  11.930
54671W        W16092  18.204  30.057  13.825
54672W        W16093  15.816  35.024  13.044
54673W        W16094   8.818  27.022  13.062
54674W        W16095  40.872  28.037   2.786
54675W        W16096  40.828  24.677  14.474
54676W        W16097   4.756  24.178   4.790
54677W        W16098  20.662   4.721  10.056
54678W        W16099   7.691  42.809  12.425
54679W        W16100  37.456  18.622   3.365
54680W        W16101   8.832  13.261  11.042
54681W        W16102  33.468  28.651   1.412
54682W        W16103  19.604  41.941   4.294
54683W        W16104  37.542  15.710  11.127
54684W        W16105  36.589  32.424  14.818
54685W        W16106  40.026  11.753   1.380
54686W        W16107  37.538  39.321   2.713
54687W        W16108   1.273   6.678  13.820
54688W        W16109  30.627  25.632  12.895
54689W        W16110  27.473  17.721   2.242
54690W        W16111  28.046  14.267  13.470
54691W        W16112   4.364  12.770  13.958
54692W        W16113  38.552   4.775   2.182
54693W        W16114   0.372  30.478  13.453
54694W        W16115   3.877  21.718  13.861
54695W        W16116   3.375  13.244   2.854
54696W        W16117  40.862  36.879  14.001
54697W        W16118  44.491  17.074  10.590
54698W        W16119  21.029  18.253   4.644
54699W        W16120  12.141  11.302   4.680
54700W        W16121  17.685  30.988  11.077
54701W        W16122  34.584  26.543   1.721
54702W        W16123   8.260  16.686  14.768
54703W        W16124  37.446  10.828  13.046
54704W        W16125  14.340  25.209  11.029
54705W        W16126  39.951  43.917  14.879
54706W        W16127  41.463  43.987  10.891
54707W        W16128  19.238  31.593   4.785
54708W        W16129  25.162  26.953   1.761
54709W        W16130   9.202  33.572   2.839
54710W        W16131  31.105  22.737   2.268
54711W        W16132  40.849  28.049  11.434
54712W        W16133  21.111  10.244   4.312
54713W        W16134  20.545   6.214  10.942
54714W        W16135  41.811   5.424   0.847
54715W        W16136  25.677   2.389   2.676
54716W        W16137   2.265  34.491  12.865
54717W        W16138  24.165  16.093   4.156
54718W        W16139  19.598  37.528  11.099
54719W        W16140  41.304  13.250  14.443
54720W        W16141  38.390  20.217   1.234
54721W        W16142  40.306   0.856   1.803
54722W        W16143   4.374   2.333  11.952
54723W        W16144  27.544   4.334   0.320
54724W        W16145  26.465   4.372  11.117
54725W        W16146  31.591  41.353  13.539
54726W        W16147  18.591  16.726   3.819
54727W        W16148  18.236  13.226   3.806
54728W        W16149  19.762  41.431   0.854
54729W        W16150   8.310  32.618  11.102
54730W        W16151  10.205   8.862   3.852
54731W        W16152  16.737  10.311  13.422
54732W        W16153  11.865  44.451  13.880
54733W        W16154   5.323  37.481  10.440
54734W        W16155  26.203  21.072   2.257
54735W        W16156  10.368  36.940  11.580
54736W        W16157  13.648  25.609   4.632
54737W        W16158  31.467  37.927  10.984
54738W        W16159   7.334  30.527   1.914
54739W        W16160  23.501   8.852   4.829
54740W        W16161  28.088  32.579   1.882
54741W        W16162   0.961  12.793  11.030
54742W        W16163  35.093  19.592  10.454
54743W        W16164  14.159  18.256  12.384
54744W        W16165  42.387   8.297  12.056
54745W        W16166  16.675  40.029  13.823
54746W        W16167   5.398   1.438  12.498
54747W        W16168  25.522  15.761   4.731
54748W        W16169  36.476  30.910   4.303
54749W        W16170  30.934  23.046  10.444
54750W        W16171   0.377  22.228   1.367
54751W        W16172  39.397  43.824  11.548
54752W        W16173  40.478  29.160  14.303
54753W        W16174   3.448  25.211  13.944
54754W        W16175  44.442  24.169  11.389
54755W        W16176  18.699  10.292  11.097
54756W        W16177  10.203  14.219   2.677
54757W        W16178   2.458  28.939  11.106
54758W        W16179  12.174  19.639  14.364
54759W        W16180  27.571  23.714  12.350
54760W        W16181  10.156  28.962  14.461
54761W        W16182   1.468  37.860   1.425
54762W        W16183  37.409   5.819  14.974
54763W        W16184  36.951  14.134   0.340
54764W        W16185  24.051  43.987  13.916
54765W        W16186  24.497   9.664  10.907
54766W        W16187  10.377   3.216  14.795
54767W        W16188  44.828  26.163   2.347
54768W        W16189  15.807  26.562  10.609
54769W        W16190   8.246  16.276   0.380
54770W        W16191  15.179   3.423  11.994
54771W        W16192  44.979  28.009  12.010
54772W        W16193  15.809  21.209  13.349
54773W        W16194  28.620  27.083   0.849
54774W        W16195   6.214  22.580  11.884
54775W        W16196   2.297  38.837  11.526
54776W        W16197  36.408  33.406  11.907
54777W        W16198  14.779   2.951  11.526
54778W        W16199  29.082  10.316   3.833
54779W        W16200  40.019  34.080  10.467
54780W        W16201  17.070  11.799   4.801
54781W        W16202  20.656  33.513   3.772
54782W        W16203   3.391  24.216   0.729
54783W        W16204   0.882  36.047   5.238
54784W        W16205  20.154  39.867  13.911
54785W        W16206  33.613  30.581  14.318
54786W        W16207  22.218  27.001  11.378
54787W        W16208  15.681   9.820  12.039
54788W        W16209  33.530  16.746  14.943
54789W        W16210   2.393  12.704  13.324
54790W        W16211   6.831  33.424   2.410
54791W        W16212  14.645  25.682   3.710
54792W        W16213  17.587  28.152   1.720
54793W        W16214   3.443  32.908   5.101
54794W        W16215  41.347  14.642   2.888
54795W        W16216  44.448  13.844  14.361
54796W        W16217  26.205  25.076  14.491
54797W        W16218  30.947  10.805  10.116
54798W        W16219  13.304  30.140   3.664
54799W        W16220  18.591   3.236   4.694
54800W        W16221  21.612  13.229  13.004
54801W        W16222   2.424  25.602   3.631
54802W        W16223  16.713  27.977  12.094
54803W        W16224  36.555   3.872  14.380
54804W        W16225   7.885   7.222  13.547
54805W        W16226  15.286  29.558  10.080
54806W        W16227   9.172  25.031  10.158
54807W        W16228  17.764  31.632  13.822
54808W        W16229   8.182  30.968  13.030
54809W        W16230  30.634   5.237   0.254
54810W        W16231  26.541  36.489  12.929
54811W        W16232  41.476  34.537  10.452
54812W        W16233  27.538  27.452   4.334
54813W        W16234   2.264  20.225   2.179
54814W        W16235  12.794  26.175  14.352
54815W        W16236   1.469  37.544  12.073
54816W        W16237   7.314  34.119  10.964
54817W        W16238  33.988  15.718  13.799
54818W        W16239  22.241  32.482   1.363
54819W        W16240  25.529  20.067   1.346
54820W        W16241   5.307  30.612   4.178
54821W        W16242  35.443  15.765  10.416
54822W        W16243  16.309  20.170  11.918
54823W        W16244   4.230  25.572   3.352
54824W        W16245   1.838  30.045   0.342
54825W        W16246  23.576  26.148   2.216
54826W        W16247  30.989  26.064   1.833
54827W        W16248  25.071  43.765   0.957
54828W        W16249  37.410  13.323   2.724
54829W        W16250  14.255  20.758   3.747
54830W        W16251   9.193   6.235  12.546
54831W        W16252  31.487  20.767  10.959
54832W        W16253  40.350   5.312  13.886
54833W        W16254  39.965  31.635  14.460
54834W        W16255   5.798   1.349   2.394
54835W        W16256  36.965  16.610  13.814
54836W        W16257  22.681  40.377   2.358
54837W        W16258  42.415  11.219   4.164
54838W        W16259  40.429   2.886   0.453
54839W        W16260  38.437  34.931  12.471
54840W        W16261  31.072  43.951  13.474
54841W        W16262  42.297  19.617   4.793
54842W        W16263   8.277  23.733   3.177
54843W        W16264  39.905   6.823   4.158
54844W        W16265  37.888   8.371   0.470
54845W        W16266   0.324  15.198  14.449
54846W        W16267  36.857  19.077   1.437
54847W        W16268  23.088  14.211  12.076
54848W        W16269  10.819   5.265   1.219
54849W        W16270  20.239  26.546   0.308
54850W        W16271  40.892   3.372   4.278
54851W        W16272   3.238  24.534   0.855
54852W        W16273  27.486  40.394   1.268
54853W        W16274  39.931   1.860  13.942
54854W        W16275   5.888  31.426  13.307
54855W        W16276  29.524  33.111  12.456
54856W        W16277  19.157  42.930   1.338
54857W        W16278  10.663  39.973   1.218
54858W        W16279  11.338  20.595  10.442
54859W        W16280  17.196  11.664   0.817
54860W        W16281   3.258   1.428   2.885
54861W        W16282  38.462  26.647  10.578
54862W        W16283  36.505  33.459   0.331
54863W        W16284  35.918  29.080   1.766
54864W        W16285  24.028  27.472  11.528
54865W        W16286  38.036  10.376   2.358
54866W        W16287  14.247   2.360  11.042
54867W        W16288  29.661  19.092  11.037
54868W        W16289  30.922  41.846   1.364
54869W        W16290   3.908  35.010   0.859
54870W        W16291  10.285   3.765  10.621
54871W        W16292  29.476  38.551   2.723
54872W        W16293  17.303  20.060   0.291
54873W        W16294  16.217   1.247   0.748
54874W        W16295  29.945  37.381   3.212
54875W        W16296  16.113  40.380  11.053
54876W        W16297  39.466  25.681  10.426
54877W        W16298  43.375  26.611   0.834
54878W        W16299  25.492  24.017   4.341
54879W        W16300   4.903  39.536  11.861
54880W        W16301  12.184  44.916  12.014
54881W        W16302  24.158   9.187   1.292
54882W        W16303  33.977   0.886  14.820
54883W        W16304  28.577   9.309   4.234
54884W        W16305  40.338  35.443   2.207
54885W        W16306  19.619  27.957  12.366
54886W        W16307  26.584  36.994   4.645
54887W        W16308  22.624  14.634   4.282
54888W        W16309   5.888  41.859   3.209
54889W        W16310  22.026  14.214   1.440
54890W        W16311  15.190   7.325   0.895
54891W        W16312  26.124  40.320   1.256
54892W        W16313  13.194  35.550   2.859
54893W        W16314  29.542  42.472  12.938
54894W        W16315   7.863   2.743   1.859
54895W        W16316   9.786  23.051   2.674
54896W        W16317  10.645  30.968  13.896
54897W        W16318  43.846  40.847   2.743
54898W        W16319   7.274  19.763   1.252
54899W        W16320  32.007  33.541   5.155
54900W        W16321  28.537  19.593  13.362
54901W        W16322  36.593  21.589  13.365
54902W        W16323  24.692  32.958  11.922
54903W        W16324  15.110   3.778   1.840
54904W        W16325  30.127  10.141   3.639
54905W        W16326  26.142   5.349   1.445
54906W        W16327   7.907  39.058  10.978
54907W        W16328  36.565  25.578   4.712
54908W        W16329  37.430  21.165  10.079
54909W        W16330   5.216  16.274   4.799
54910W        W16331  34.904  23.510  10.015
54911W        W16332  42.291  26.162   0.827
54912W        W16333  14.790  30.097   4.690
54913W        W16334  20.768  38.378   2.381
54914W        W16335  18.190  41.421  12.016
54915W        W16336   8.867   3.900   2.668
54916W        W16337   2.386  21.053   4.645
54917W        W16338  20.033  29.609  13.390
54918W        W16339  12.669  24.988  12.857
54919W        W16340  17.201  16.302   1.876
54920W        W16341   3.788  40.907   3.300
54921W        W16342  26.564  31.995  10.452
54922W        W16343  16.728  28.576  12.378
54923W        W16344  26.660  17.277   2.735
54924W        W16345   1.275  25.062   3.711
54925W        W16346   4.372  15.297   0.882
54926W        W16347   0.777  14.691  12.962
54927W        W16348  28.513  33.973  12.079
54928W        W16349  43.437  20.044  11.399
54929W        W16350   4.305  10.290   2.403
54930W        W16351  21.156  19.679   4.698
54931W        W16352  33.088  13.652  12.983
54932W        W16353  24.104  40.951  14.920
54933W        W16354   1.340  16.634  13.861
54934W        W16355  43.792  33.022   0.726
54935W        W16356  21.212   0.445   0.742
54936W        W16357  19.156   7.879   1.830
54937W        W16358  14.127   1.788  10.945
54938W        W16359  42.019  32.133  14.940
54939W        W16360   0.974  29.056   1.276
54940W        W16361  14.211  34.114   0.925
54941W        W16362  25.047  24.593   4.665
54942W        W16363   3.342  32.991  13.313
54943W        W16364  12.279  36.967  13.337
54944W        W16365  29.978   5.922   1.850
54945W        W16366   0.833  33.548  11.903
54946W        W16367   9.171  20.686   4.153
54947W        W16368   6.281  34.420   3.341
54948W        W16369  32.128  27.517   1.226
54949W        W16370  30.530   1.850  10.444
54950W        W16371  34.492  15.608  12.494
54951W        W16372  14.690  20.538  11.543
54952W        W16373   4.258  11.868  11.898
54953W        W16374   6.418  40.870   3.371
54954W        W16375  18.695   8.728  13.932
54955W        W16376  40.469  28.492   0.260
54956W        W16377  36.953  23.023   4.737
54957W        W16378   7.282   3.729   0.795
54958W        W16379  26.130  27.943  13.886
54959W        W16380  27.949  18.700   0.824
54960W        W16381  21.554  19.695  13.453
54961W        W16382  32.448  39.935   4.761
54962W        W16383  38.536  29.130   4.242
54963W        W16384  13.668  10.787  12.913
54964W        W16385   1.322  35.089  11.045
54965W        W16386  29.145  25.066  10.955
54966W        W16387   2.900  23.082  10.522
54967W        W16388  27.568  29.071   3.738
54968W        W16389  39.448  26.151   4.216
54969W        W16390  14.171  23.544   2.776
54970W        W16391  37.997  28.971  14.508
54971W        W16392  18.244  28.053   1.853
54972W        W16393  43.464  19.535  14.888
54973W        W16394  41.844  12.351   0.781
54974W        W16395   5.726  17.184  14.981
54975W        W16396  23.719  22.237   4.801
54976W        W16397   9.327  32.478   0.853
54977W        W16398  39.552  31.546   2.191
54978W        W16399  28.973  33.579  10.404
54979W        W16400   1.290  28.655  14.341
54980W        W16401   4.909   5.891   1.358
54981W        W16402  41.863  19.249  12.549
54982W        W16403  26.987  42.407   3.661
54983W        W16404  44.975   1.401   3.297
54984W        W16405  14.815   6.789  11.494
54985W        W16406   9.249  18.584  11.435
54986W        W16407  12.317  44.763  13.856
54987W        W16408  16.231  13.779  12.871
54988W        W16409  25.075  18.768  14.464
54989W        W16410   8.831  19.181   0.463
54990W        W16411  36.001   2.418  13.474
54991W        W16412  42.867  21.572   3.372
54992W        W16413  40.026  38.994   4.718
54993W        W16414   9.786  14.643  10.590
54994W        W16415  26.088  12.252   0.420
54995W        W16416  30.598  13.799  13.892
54996W        W16417  24.017  19.163   0.917
54997W        W16418  20.645  15.232   9.545
54998W        W16419  43.784  28.003   1.825
54999W        W16420   3.232  29.553   3.789
55000W        W16421   6.755  31.586  13.384
55001W        W16422  44.879  17.700   1.372
55002W        W16423  16.278  23.184   1.873
55003W        W16424  33.888  34.042  10.640
55004W        W16425  18.704  33.008  11.967
55005W        W16426  44.854  15.712   4.117
55006W        W16427   3.289  15.138   0.966
55007W        W16428  31.402  34.463  14.985
55008W        W16429  30.145   1.439   2.323
55009W        W16430   8.359  19.130  12.380
55010W        W16431   3.252  28.056  13.963
55011W        W16432   6.690  43.881  12.564
55012W        W16433  22.240  27.957   2.299
55013W        W16434   6.268  37.528  12.465
55014W        W16435  43.773   1.326   1.752
55015W        W16436  21.698  25.988   1.917
55016W        W16437  41.332  41.338  12.546
55017W        W16438  19.626  16.633   4.134
55018W        W16439   7.778  33.053   2.675
55019W        W16440  25.127  26.114   0.333
55020W        W16441  35.047  12.666   1.291
55021W        W16442  38.345  21.706  10.520
55022W        W16443  14.752  39.495  11.993
55023W        W16444  42.785   7.323  10.102
55024W        W16445  37.535   3.371  11.482
55025W        W16446  11.747   1.262  14.769
55026W        W16447  24.707  39.554  13.051
55027W        W16448  10.358  32.494   0.864
55028W        W16449  35.425  27.008  12.974
55029W        W16450  42.290   2.798  14.470
55030W        W16451  30.104  35.870   4.126
55031W        W16452   6.882   1.434   3.797
55032W        W16453  42.941  14.689  12.509
55033W        W16454  19.599  29.534  12.568
55034W        W16455   0.836  14.226  10.134
55035W        W16456  23.733  16.308   4.652
55036W        W16457  32.004  22.512   0.895
55037W        W16458   6.254  11.351  14.780
55038W        W16459  43.893  25.050  12.887
55039W        W16460   2.948  10.684   1.760
55040W        W16461   6.410  18.125  12.969
55041W        W16462  31.584   3.784  11.078
55042W        W16463  24.146   6.813  11.603
55043W        W16464  29.430  25.546   0.284
55044W        W16465  11.692  39.377   4.317
55045W        W16466  35.956  34.930   4.215
55046W        W16467  34.955   9.748  10.574
55047W        W16468  29.596  29.163  14.966
55048W        W16469  23.672  13.622   1.884
55049W        W16470  43.889  26.698  11.878
55050W        W16471  10.765   3.411  10.535
55051W        W16472  33.437   4.300  12.387
55052W        W16473  21.538   3.732   2.328
55053W        W16474  23.005  33.607   3.356
55054W        W16475   3.896  28.170   4.165
55055W        W16476  12.746  29.460   2.791
55056W        W16477  42.029   4.804   2.201
55057W        W16478  28.512  23.700   4.309
55058W        W16479  30.630  39.440   0.357
55059W        W16480  32.059  28.983   0.465
55060W        W16481   7.764  15.736   2.901
55061W        W16482  38.880  34.575  14.462
55062W        W16483   3.402   4.805   9.981
55063W        W16484   7.372  25.490   3.204
55064W        W16485   8.220  27.006  14.399
55065W        W16486  43.484  43.454  10.909
55066W        W16487  38.436  24.109   2.797
55067W        W16488  32.131  35.453  12.841
55068W        W16489  14.166  39.849  11.872
55069W        W16490  12.782  17.697   3.334
55070W        W16491  26.671  23.661   9.998
55071W        W16492  43.408  31.935  12.533
55072W        W16493  20.648  42.874  10.579
55073W        W16494  23.029  11.868  10.467
55074W        W16495  33.087   6.215   2.339
55075W        W16496  30.487  20.192  13.959
55076W        W16497  26.167  16.166   0.318
55077W        W16498  18.687  43.475   4.203
55078W        W16499  44.328   6.744  11.384
55079W        W16500   1.288   3.382  10.102
55080W        W16501   1.862  37.838   2.308
55081W        W16502  31.620  37.360   1.251
55082W        W16503  37.867   3.275  13.446
55083W        W16504   5.919  24.505   1.925
55084W        W16505  24.710  27.022   0.954
55085W        W16506  23.209  40.345   1.223
55086W        W16507  25.681  25.080   1.800
55087W        W16508  32.518  32.465  13.399
55088W        W16509  12.345  39.885  13.458
55089W        W16510   0.425  17.624  10.599
55090W        W16511  23.601  41.327   1.856
55091W        W16512  26.605  28.616  11.375
55092W        W16513  28.491  26.125   3.664
55093W        W16514  34.876  25.974   3.699
55094W        W16515  32.910  21.659  10.642
55095W        W16516   8.307  30.062  13.548
55096W        W16517  37.430  22.108   1.927
55097W        W16518   4.897  31.409   4.147
55098W        W16519   8.764  17.649   2.221
55099W        W16520  21.054  17.250   2.886
55100W        W16521   9.351   1.472  10.916
55101W        W16522  26.629   7.740   5.234
55102W        W16523  12.196  40.412  11.587
55103W        W16524  13.272  11.357   0.876
55104W        W16525  20.668   9.308   0.920
55105W        W16526   0.868  21.534  14.401
55106W        W16527   8.371  21.158  11.423
55107W        W16528  22.044  16.737   0.788
55108W        W16529  20.056   4.920  11.554
55109W        W16530  42.364  26.193   3.653
55110W        W16531  33.452  30.960   3.161
55111W        W16532  26.070  26.610   3.838
55112W        W16533  15.118  14.246  12.426
55113W        W16534  28.505   3.762  10.443
55114W        W16535  34.997  14.657   2.824
55115W        W16536  42.479   9.176  12.956
55116W        W16537   6.259   3.275   3.794
55117W        W16538   6.801  18.083   1.875
55118W        W16539  41.040  30.549  13.964
55119W        W16540  10.263   0.971  14.768
55120W        W16541  35.595  38.480  11.908
55121W        W16542  11.319  23.573  11.572
55122W        W16543  24.057  35.572  10.414
55123W        W16544   5.247  37.360   2.769
55124W        W16545   3.289  41.836  12.902
55125W        W16546  38.057  33.474   2.779
55126W        W16547  28.115  37.341   3.149
55127W        W16548  33.098  34.593  11.041
55128W        W16549  12.325  41.298   2.322
55129W        W16550  40.954  35.392  13.862
55130W        W16551  11.332  19.693   2.743
55131W        W16552  43.334  35.430  11.510
55132W        W16553  38.948  36.995   0.951
55133W        W16554  13.696  41.525   2.873
55134W        W16555  33.556  36.865   2.750
55135W        W16556  23.491   0.803  14.901
55136W        W16557  27.988  19.655   2.726
55137W        W16558  10.295   2.337  12.512
55138W        W16559  43.339  10.324  11.036
55139W        W16560  36.905  38.908  11.586
55140W        W16561  23.060  24.112  10.597
55141W        W16562  29.132  16.772  14.445
55142W        W16563   7.859  38.916   3.846
55143W        W16564  12.639  30.978  12.426
55144W        W16565  41.398   5.875  14.512
55145W        W16566  22.521   8.658   0.357
55146W        W16567  26.661   3.220   3.386
55147W        W16568  41.985  11.813   2.306
55148W        W16569  24.723  16.185   1.346
55149W        W16570  43.889  27.523   2.733
55150W        W16571  10.683  27.155  14.876
55151W        W16572  36.392  26.041   0.419
55152W        W16573  28.602  21.035  11.093
55153W        W16574  23.168   7.775   3.694
55154W        W16575   1.259  28.472   0.308
55155W        W16576  18.762  40.806   0.958
55156W        W16577   4.783  24.977  11.520
55157W        W16578   2.813  44.802  11.381
55158W        W16579  22.053  22.641   0.903
55159W        W16580  10.768  44.872   1.876
55160W        W16581   6.789  44.840  14.473
55161W        W16582  44.483   2.720   3.768
55162W        W16583  41.402  14.778   3.340
55163W        W16584  30.621  15.734   2.894
55164W        W16585  20.138  39.381   3.781
55165W        W16586   5.831  32.555  13.062
55166W        W16587  37.884  21.201  14.415
55167W        W16588  20.258  32.609  13.891
55168W        W16589  14.823  22.712  10.982
55169W        W16590  27.098   0.777  10.556
55170W        W16591  15.241  22.050   0.285
55171W        W16592   0.445  24.987  14.483
55172W        W16593  16.300  31.559  13.060
55173W        W16594  11.773   4.297  14.995
55174W        W16595   9.298  44.819   3.302
55175W        W16596  22.583  31.021  14.984
55176W        W16597   4.208   4.383   4.827
55177W        W16598  15.619  12.791  12.526
55178W        W16599  23.658   9.298   0.859
55179W        W16600  35.489  15.583   1.355
55180W        W16601   1.255  39.857   0.880
55181W        W16602  16.299   8.234  12.492
55182W        W16603  10.344   4.919  12.989
55183W        W16604  33.444  35.535   2.775
55184W        W16605  40.432  17.613  10.954
55185W        W16606   0.849  14.167  11.933
55186W        W16607  10.179  17.185   1.754
55187W        W16608  10.773  26.157  13.469
55188W        W16609  20.559  35.013   1.874
55189W        W16610  31.998  11.268  10.475
55190W        W16611   1.751  36.930  11.548
55191W        W16612  10.315  43.344  13.328
55192W        W16613   9.772  38.468   2.189
55193W        W16614  28.182  30.419   2.884
55194W        W16615  42.006   3.380  10.033
55195W        W16616  37.005  33.918   1.240
55196W        W16617   9.683   7.844  10.420
55197W        W16618  24.146  43.346  14.787
55198W        W16619   9.276  21.207  14.884
55199W        W16620  31.089  17.657   3.154
55200W        W16621  10.846  16.239   0.896
55201W        W16622  35.094   6.329   3.174
55202W        W16623   1.279   4.302  14.948
55203W        W16624   6.289  41.015   1.760
55204W        W16625  32.929  30.601  14.777
55205W        W16626  13.247  28.556  12.876
55206W        W16627  30.646  23.199  14.863
55207W        W16628  31.061  20.729   4.655
55208W        W16629  30.507  31.918  14.346
55209W        W16630   5.883   9.311   4.715
55210W        W16631  19.085  19.070  13.340
55211W        W16632  32.441   8.363   2.744
55212W        W16633   8.176  10.805  13.036
55213W        W16634  23.709  26.488   1.258
55214W        W16635   6.405  43.794   1.809
55215W        W16636  38.539  35.936  14.493
55216W        W16637  11.319  44.965  11.876
55217W        W16638  12.644   7.758  11.979
55218W        W16639  28.573  22.025   2.231
55219W        W16640  15.653  29.922   2.254
55220W        W16641  34.887   4.389   1.387
55221W        W16642  31.524  42.282   0.247
55222W        W16643   5.375  36.917  10.501
55223W        W16644  26.001  10.634  13.026
55224W        W16645  40.042  33.530  12.956
55225W        W16646  24.528  20.170  14.498
55226W        W16647  21.244  33.444   4.214
55227W        W16648   4.789  42.298  13.445
55228W        W16649   9.705   6.338  11.969
55229W        W16650   2.872  35.588   9.564
55230W        W16651  34.956  31.462   1.329
55231W        W16652  13.290  30.433   4.758
55232W        W16653  31.519  34.085  12.001
55233W        W16654  20.537  12.704   2.876
55234W        W16655  24.973   1.950   3.676
55235W        W16656  26.559  14.194   9.949
55236W        W16657   9.376  43.021   3.354
55237W        W16658  27.049  20.529  13.898
55238W        W16659  11.273  39.850  11.559
55239W        W16660  11.314  26.114   3.195
55240W        W16661  12.132  11.345  11.049
55241W        W16662   8.676  20.157   5.191
55242W        W16663   6.754  27.641  10.972
55243W        W16664  23.157  40.454   2.406
55244W        W16665  13.195  19.221   1.729
55245W        W16666  18.066  34.486   4.707
55246W        W16667  19.101  24.710   4.668
55247W        W16668  29.035  27.538  14.914
55248W        W16669  27.664  24.529   2.894
55249W        W16670  27.637  28.983  11.537
55250W        W16671  37.873  28.132   2.342
55251W        W16672  27.520  44.296   3.168
55252W        W16673  41.040  38.849   3.240
55253W        W16674   0.494   8.350  12.868
55254W        W16675  31.031  22.099   3.726
55255W        W16676  29.583  32.436  10.949
55256W        W16677  33.495  13.134  12.447
55257W        W16678  30.455  40.349   2.405
55258W        W16679  42.312   9.826   1.697
55259W        W16680   4.395   4.702   2.743
55260W        W16681  21.078  39.468  11.559
55261W        W16682  13.600   6.908  13.350
55262W        W16683  37.903  37.403   3.674
55263W        W16684  43.890  21.568   3.804
55264W        W16685  39.980  17.063   5.707
55265W        W16686  18.106  34.082   2.668
55266W        W16687  38.545  28.989   2.376
55267W        W16688  39.890  35.857   2.853
55268W        W16689  32.101   9.184  14.878
55269W        W16690  34.897   6.399   3.834
55270W        W16691  22.673  38.033   1.245
55271W        W16692  26.586  37.955   2.380
55272W        W16693   7.878  39.861   2.219
55273W        W16694  10.292  25.154  10.147
55274W        W16695  20.266  40.008   3.385
55275W        W16696   9.358  28.041  11.949
55276W        W16697  17.687  44.400  13.062
55277W        W16698  42.822  34.536  11.129
55278W        W16699  22.641  28.977  13.852
55279W        W16700   2.900   3.901  11.548
55280W        W16701  11.659  22.046   4.653
55281W        W16702  33.874  17.617   4.262
55282W        W16703  33.495  37.072  12.059
55283W        W16704  32.536   4.353   0.858
55284W        W16705  27.107  29.564   2.777
55285W        W16706  15.226  26.610   1.415
55286W        W16707  22.099  36.863  11.965
55287W        W16708  19.189   5.198   2.235
55288W        W16709  22.508   7.341   4.688
55289W        W16710  43.514   4.298  13.381
55290W        W16711  23.535  20.250   0.260
55291W        W16712  14.833  29.043   5.245
55292W        W16713  34.499  13.216   2.847
55293W        W16714  21.081  22.013  13.919
55294W        W16715  27.116   1.894  11.566
55295W        W16716  30.969  17.592   0.291
55296W        W16717   2.884   9.259   4.804
55297W        W16718  17.573   1.402   4.214
55298W        W16719  21.035  12.848  13.952
55299W        W16720   7.392  35.075   2.377
55300W        W16721  28.456  17.093  11.906
55301W        W16722  34.580   3.805   5.229
55302W        W16723  24.165   1.752   4.314
55303W        W16724  12.157   8.291  13.422
55304W        W16725  41.031  35.076   3.724
55305W        W16726  22.530   5.348   2.665
55306W        W16727  37.017   7.406  10.973
55307W        W16728  17.259  27.998   2.278
55308W        W16729  18.604  12.728   5.226
55309W        W16730   7.753   2.869   2.224
55310W        W16731  17.235  26.010  12.009
55311W        W16732  15.605  30.907   3.332
55312W        W16733   1.858  36.481   1.700
55313W        W16734   7.399  36.576  11.530
55314W        W16735   4.766   3.233   3.778
55315W        W16736   7.761   7.752   4.681
55316W        W16737  42.446  19.211  10.411
55317W        W16738   3.446  14.181  10.099
55318W        W16739   8.241  25.146   3.859
55319W        W16740   8.163   9.779  13.035
55320W        W16741  25.503  19.639   3.793
55321W        W16742  39.945   9.242   4.319
55322W        W16743  18.673   6.236   2.897
55323W        W16744  22.515  17.263   0.437
55324W        W16745   1.410  36.531   4.202
55325W        W16746  17.560  32.127  12.440
55326W        W16747   0.923  37.890   2.691
55327W        W16748   3.299  38.915   3.269
55328W        W16749  34.953   6.357   2.839
55329W        W16750  20.166  43.957  13.414
55330W        W16751  28.065   6.260   5.092
55331W        W16752  31.553  31.119   2.763
55332W        W16753   8.858  18.093   4.820
55333W        W16754  13.242  43.482  11.377
55334W        W16755  32.991  26.560   3.299
55335W        W16756  32.514  33.613   4.709
55336W        W16757   6.426   9.865   3.818
55337W        W16758  32.418  34.561   0.912
55338W        W16759  22.051  18.181   1.300
55339W        W16760  15.798  36.475   1.228
55340W        W16761   6.419  26.515   2.281
55341W        W16762  44.415  21.101   1.229
55342W        W16763  20.113  41.938  13.346
55343W        W16764  15.604  18.125   1.327
55344W        W16765   5.415  43.901  10.430
55345W        W16766   7.184  42.830  10.992
55346W        W16767  44.268   9.801   1.863
55347W        W16768  37.006   7.896   4.240
55348W        W16769  17.171   9.830  13.516
55349W        W16770   3.215   4.349   2.221
55350W        W16771  32.462   5.747  13.830
55351W        W16772  33.937   4.370  14.494
55352W        W16773   7.813  19.728   0.244
55353W        W16774  13.652  15.589  11.538
55354W        W16775   7.338  30.550  10.556
55355W        W16776  42.399   5.848   1.823
55356W        W16777  42.999  25.962  12.830
55357W        W16778  39.352  10.335   4.301
55358W        W16779   0.460  24.678   0.307
55359W        W16780  11.167   4.764   1.901
55360W        W16781  23.681  12.839   3.771
55361W        W16782   9.889  42.459  11.027
55362W        W16783  30.500   4.422   3.250
55363W        W16784   8.331   0.921  11.464
55364W        W16785  27.589  15.311  13.430
55365W        W16786   0.474  29.951   0.808
55366W        W16787  37.341  24.519   1.262
55367W        W16788  19.597   0.302  11.038
55368W        W16789  43.918   1.865  10.630
55369W        W16790  30.615  26.956   3.229
55370W        W16791  41.432   1.278  11.512
55371W        W16792  19.059  31.581  12.943
55372W        W16793  22.529  10.244  10.605
55373W        W16794  17.675   4.380  11.602
55374W        W16795  31.965  19.066  13.015
55375W        W16796  24.491  23.547   3.656
55376W        W16797  22.022  35.055   2.337
55377W        W16798   3.885  42.347  12.964
55378W        W16799   8.187  13.109   3.849
55379W        W16800  11.230  10.659   1.295
55380W        W16801  22.647  34.465  13.499
55381W        W16802   0.742  14.211  10.539
55382W        W16803  44.801  43.408  12.508
55383W        W16804   6.797  26.545   2.784
55384W        W16805  21.636  35.505   4.662
55385W        W16806  15.725  43.886   3.221
55386W        W16807  10.871  11.700  12.525
55387W        W16808  12.677  26.988   3.321
55388W        W16809  44.402   1.886   4.162
55389W        W16810  19.052  35.991  12.386
55390W        W16811   6.766   2.273   3.201
55391W        W16812  35.854  20.042  10.565
55392W        W16813  33.498   8.306   1.701
55393W        W16814  17.260  44.918  10.604
55394W        W16815  17.088  15.146   3.376
55395W        W16816  22.694   1.768  14.423
55396W        W16817  16.754  41.434   0.924
55397W        W16818  37.957  21.700   3.833
55398W        W16819  14.143  11.650   1.272
55399W        W16820  15.802  28.538  10.586
55400W        W16821  28.152  10.747  10.469
55401W        W16822  20.153   5.365  13.540
55402W        W16823   5.820  38.561   3.746
55403W        W16824  24.486  36.467   3.328
55404W        W16825   6.186  30.510   3.698
55405W        W16826  23.608  30.138  13.419
55406W        W16827   6.748  38.404   3.293
55407W        W16828  22.617   5.252  14.790
55408W        W16829  27.445  33.457   0.471
55409W        W16830  22.227  42.945  13.903
55410W        W16831   4.443  21.260   2.702
55411W        W16832   7.850  13.287   4.663
55412W        W16833  11.814  17.210  13.467
55413W        W16834  14.209  37.054   1.258
55414W        W16835  27.146   0.371   3.767
55415W        W16836  16.620  39.023  13.934
55416W        W16837  11.289  21.081   0.470
55417W        W16838  27.494  37.424  11.962
55418W        W16839   6.369   7.710   2.291
55419W        W16840  29.171  18.219  12.362
55420W        W16841   4.804  13.260   1.396
55421W        W16842  40.054  23.235   0.479
55422W        W16843  24.687  41.005  13.344
55423W        W16844  42.349  23.659  14.363
55424W        W16845  37.086  16.629  14.404
55425W        W16846  14.748  41.953   3.662
55426W        W16847  31.436  44.427   3.838
55427W        W16848  31.611   2.806  11.390
55428W        W16849  14.815  26.200   0.870
55429W        W16850  12.798  12.818  12.469
55430W        W16851  42.368  21.597   3.755
55431W        W16852  27.946  27.002  13.045
55432W        W16853  22.508   9.258   1.257
55433W        W16854   5.786  44.816  10.108
55434W        W16855  41.986   7.254   5.260
55435W        W16856  17.644  19.648   2.366
55436W        W16857  30.438  34.060   1.355
55437W        W16858  13.725  33.382  11.421
55438W        W16859   8.326  14.289   2.214
55439W        W16860  13.717   5.782  11.049
55440W        W16861  22.141  13.182   1.337
55441W        W16862  36.387  35.926  13.410
55442W        W16863  27.554   2.305  11.440
55443W        W16864  43.397  17.563   3.295
55444W        W16865   8.249  12.825   4.636
55445W        W16866   0.941  21.709  12.350
55446W        W16867  18.775   2.809  14.515
55447W        W16868  26.589  17.282   0.350
55448W        W16869  24.614  11.271   0.318
55449W        W16870  34.081  41.512   4.342
55450W        W16871  30.505  18.211   0.833
55451W        W16872   6.908  23.724   3.635
55452W        W16873  26.486  39.355  11.420
55453W        W16874  38.489  13.194  14.788
55454W        W16875  38.413   3.379  13.517
55455W        W16876  29.551   6.417   2.833
55456W        W16877  12.215  20.652   1.424
55457W        W16878  30.645  20.176   2.245
55458W        W16879  27.585  42.896  10.155
55459W        W16880  11.801   9.827   4.326
55460W        W16881  41.827  34.516  13.328
55461W        W16882   8.232  31.950  11.492
55462W        W16883  34.918  25.573  12.059
55463W        W16884   0.336  12.711   4.733
55464W        W16885  39.894  26.503  11.972
55465W        W16886  39.033   5.763   1.211
55466W        W16887  12.797  11.748  10.476
55467W        W16888   2.880  20.644  14.888
55468W        W16889  26.117  40.442  11.869
55469W        W16890   5.916   9.757   0.731
55470W        W16891  44.383  43.339  11.442
55471W        W16892  40.952  18.074  14.399
55472W        W16893  18.177  34.436   2.377
55473W        W16894   5.393  19.586  14.453
55474W        W16895   1.370  18.136   3.349
55475W        W16896   3.862  23.631   3.285
55476W        W16897   6.273   0.366  11.882
55477W        W16898  43.272  36.584   1.444
55478W        W16899  27.469   0.323   2.692
55479W        W16900  13.166  34.119   0.472
55480W        W16901  20.658  11.744   4.199
55481W        W16902   6.238   6.703   3.661
55482W        W16903  15.685  13.200  14.792
55483W        W16904  42.513   6.723   1.739
55484W        W16905  35.431  24.488  12.413
55485W        W16906  43.279   1.334  13.472
55486W        W16907  14.273  11.652   2.405
55487W        W16908  24.137  30.566  10.640
55488W        W16909   8.373  12.202  11.560
55489W        W16910  26.577  14.125   3.158
55490W        W16911  40.510  44.809   1.808
55491W        W16912  34.865  19.153  14.410
55492W        W16913   4.399  14.225  13.881
55493W        W16914   1.939   8.765   2.865
55494W        W16915  39.353   9.802   0.751
55495W        W16916  40.451  28.127   2.740
55496W        W16917  21.125  19.274  14.307
55497W        W16918  18.078   4.728  11.553
55498W        W16919  20.092  21.101   1.215
55499W        W16920  25.685  39.551   1.924
55500W        W16921  25.144  20.746  11.870
55501W        W16922  43.511  32.622  14.404
55502W        W16923  22.182  14.244  12.840
55503W        W16924  44.392   5.250  14.930
55504W        W16925  29.050   4.378  14.965
55505W        W16926  14.105  28.015   1.246
55506W        W16927  19.095   6.738   4.783
55507W        W16928   4.840   2.286  14.459
55508W        W16929   7.809   8.741  12.417
55509W        W16930  17.761  21.545   2.843
55510W        W16931  24.668  34.474  11.417
55511W        W16932  36.500  35.510  10.606
55512W        W16933  29.635   8.293   2.810
55513W        W16934  28.645   4.289   4.819
55514W        W16935   2.394   8.769   3.684
55515W        W16936  23.493  19.083   4.215
55516W        W16937  31.090   9.299  14.465
55517W        W16938  20.644  21.597  12.031
55518W        W16939  42.438  17.676  10.587
55519W        W16940   4.729   4.761  13.447
55520W        W16941  17.187  17.231  10.976
55521W        W16942  42.399  24.493   2.891
55522W        W16943  12.362  11.256  13.515
55523W        W16944  12.763   4.450   1.375
55524W        W16945  16.269  13.259  11.964
55525W        W16946  11.824  39.410   9.931
55526W        W16947   2.248  28.463   5.716
55527W        W16948  26.997  33.559   1.387
55528W        W16949  43.969  25.075   2.773
55529W        W16950  44.898  38.841  13.330
55530W        W16951  19.233  32.572  13.856
55531W        W16952  44.471  14.168  14.875
55532W        W16953  21.527  43.981   3.664
55533W        W16954  25.088  28.131  14.393
55534W        W16955  28.179  38.865   3.641
55535W        W16956  41.489  17.305   4.692
55536W        W16957  38.842  32.954  10.544
55537W        W16958  43.304  24.688  13.061
55538W        W16959   7.768  30.030   3.850
55539W        W16960  14.112  37.378   0.388
55540W        W16961  21.564  29.551   3.713
55541W        W16962   5.201  15.290  12.052
55542W        W16963  40.861  12.762   1.866
55543W        W16964  40.316  29.540   3.833
55544W        W16965  13.796  26.475  11.576
55545W        W16966  13.757  36.519  14.436
55546W        W16967   1.753  20.220  11.994
55547W        W16968   2.378  11.168   0.837
55548W        W16969  39.825  26.668  10.416
55549W        W16970  18.208  14.296  14.860
55550W        W16971   0.405   3.900   0.915
55551W        W16972  23.138  40.455  11.006
55552W        W16973  18.090  35.013   2.728
55553W        W16974  33.396  15.701   3.355
55554W        W16975  40.434  26.619  14.977
55555W        W16976  23.708  35.437   4.728
55556W        W16977  12.847  32.437   4.782
55557W        W16978  15.824  24.647   1.231
55558W        W16979  38.842  11.368   0.472
55559W        W16980  27.446  20.632  11.515
55560W        W16981  22.644  25.597  10.449
55561W        W16982  27.663  18.129   3.723
55562W        W16983   8.402  29.142   1.286
55563W        W16984   6.377  43.269  11.043
55564W        W16985  14.588  29.974   2.824
55565W        W16986  19.601   3.787  11.578
55566W        W16987  26.980  32.013  11.596
55567W        W16988  31.577   0.448  11.097
55568W        W16989   3.909  24.522  14.324
55569W        W16990  37.486  14.605  13.312
55570W        W16991  17.657  40.027  11.451
55571W        W16992  40.834  40.871  12.071
55572W        W16993  21.748  36.448   2.798
55573W        W16994  37.081  37.904   0.249
55574W        W16995  11.628  17.669  13.975
55575W        W16996  31.542  22.189  11.466
55576W        W16997  39.049  13.659   3.333
55577W        W16998   4.742   3.739  11.970
55578W        W16999  31.094  20.668  14.005
55579W        W17000  14.290  19.043   2.391
55580W        W17001  36.477   0.855  14.764
55581W        W17002   9.179   7.353   2.875
55582W        W17003  26.128   5.390   2.854
55583W        W17004  15.159  26.683  10.445
55584W        W17005  40.847  18.555   1.903
55585W        W17006  30.083  39.844  12.940
55586W        W17007  23.588  24.226   0.376
55587W        W17008   0.305  12.275  12.012
55588W        W17009  24.587  16.125  13.996
55589W        W17010  39.505  42.356   3.685
55590W        W17011  13.630  40.323   4.183
55591W        W17012  33.020  39.898   4.772
55592W        W17013   7.871   9.811  13.387
55593W        W17014   3.913   0.758  10.895
55594W        W17015  39.498  23.212  13.024
55595W        W17016  33.578  29.123   4.293
55596W        W17017  14.141  37.361   4.693
55597W        W17018  21.221  24.564  10.527
55598W        W17019  44.800   4.763  11.970
55599W        W17020  24.624  34.469  11.065
55600W        W17021   8.340  24.070  13.812
55601W        W17022  14.309   6.760  13.048
55602W        W17023   1.777  30.436   3.727
55603W        W17024  18.577  26.957   3.716
55604W        W17025  42.295  24.483  10.982
55605W        W17026   0.875  22.529  12.346
55606W        W17027  42.940  20.742  14.356
55607W        W17028  33.017  31.630   3.724
55608W        W17029   2.353  27.072   4.680
55609W        W17030  17.796   9.750  14.845
55610W        W17031  42.380   4.844   1.730
55611W        W17032  35.068  14.189  13.878
55612W        W17033   9.861  31.563  11.009
55613W        W17034  41.034   3.748  14.875
55614W        W17035   9.684  29.928  12.430
55615W        W17036  43.960  22.737   3.653
55616W        W17037  18.138   6.216   1.319
55617W        W17038  30.121   8.868   4.299
55618W        W17039  36.901   4.847   4.748
55619W        W17040  21.076  35.542  14.924
55620W        W17041  32.408  12.308   4.684
55621W        W17042  29.120  16.716  14.944
55622W        W17043  35.576   4.765  13.525
55623W        W17044  41.445   4.778   4.135
55624W        W17045  10.255  23.039  10.578
55625W        W17046  14.123   3.416   3.338
55626W        W17047  17.279   3.399   0.916
55627W        W17048  28.616  42.880  12.501
55628W        W17049  11.216  13.239   4.611
55629W        W17050  35.480   3.784   1.382
55630W        W17051  13.237  36.939   1.774
55631W        W17052   2.875  13.835  12.052
55632W        W17053  10.638   3.226  11.034
55633W        W17054  44.396  42.363  12.361
55634W        W17055  38.032  31.512  14.004
55635W        W17056  34.578   4.342   1.724
55636W        W17057  11.256  38.046  11.465
55637W        W17058  16.727  28.936   3.374
55638W        W17059   9.271   5.411   0.278
55639W        W17060  44.313  21.569   0.423
55640W        W17061   1.332  19.103   3.805
55641W        W17062  13.648  40.826   0.943
55642W        W17063   9.259  18.708   2.277
55643W        W17064  21.122  23.161  11.946
55644W        W17065  19.188  22.229   3.656
55645W        W17066  37.422  34.066   2.749
55646W        W17067  39.828  39.885  10.504
55647W        W17068   7.297  25.059  12.541
55648W        W17069  27.132  25.526  11.028
55649W        W17070  12.682  41.528   4.236
55650W        W17071  28.613  40.890   0.267
55651W        W17072  22.204   6.214  13.014
55652W        W17073  39.978  28.551  14.896
55653W        W17074  28.629  27.954   2.885
55654W        W17075  37.476  10.754   0.301
55655W        W17076  21.512  43.479   2.381
55656W        W17077  30.096  43.418   4.354
55657W        W17078   2.333   7.253   4.694
55658W        W17079   9.344  29.043   4.171
55659W        W17080  44.756  33.618  14.942
55660W        W17081   8.376  13.298   2.265
55661W        W17082   2.958  24.661  11.013
55662W        W17083  25.076  39.945  13.933
55663W        W17084  12.771   8.802   2.220
55664W        W17085  40.430  33.898   2.178
55665W        W17086  16.107  21.601   2.188
55666W        W17087  29.988  20.582  11.960
55667W        W17088  36.098  22.503  12.996
55668W        W17089   0.335  30.444   0.855
55669W        W17090   3.281  28.548   3.679
55670W        W17091  31.981  31.120   3.866
55671W        W17092   0.793  28.652   1.912
55672W        W17093  38.974  29.583  12.392
55673W        W17094  24.102  27.010   3.205
55674W        W17095  14.259   4.840   4.145
55675W        W17096  24.043  33.399  12.509
55676W        W17097   3.391  20.552   2.313
55677W        W17098   4.824  22.217  14.772
55678W        W17099  26.701  18.235   0.408
55679W        W17100  24.051  27.971   4.154
55680W        W17101  34.568  19.710  14.999
55681W        W17102  22.547   8.661  11.393
55682W        W17103  34.450   7.731   3.785
55683W        W17104  11.323  12.157   3.372
55684W        W17105  17.648  36.550   4.287
55685W        W17106  20.030  28.434  11.963
55686W        W17107  19.183  30.979  13.000
55687W        W17108  26.467  43.485   1.709
55688W        W17109  29.065  32.517   0.273
55689W        W17110  14.731  30.160   1.438
55690W        W17111  36.842  34.449  14.822
55691W        W17112  39.013  36.524   1.318
55692W        W17113  12.223  33.418   2.889
55693W        W17114  19.225   6.846  11.418
55694W        W17115  31.572  38.993  12.027
55695W        W17116  17.085  26.514  13.430
55696W        W17117  18.693  16.571  10.995
55697W        W17118  36.949  12.204  11.571
55698W        W17119  13.277  39.347   0.800
55699W        W17120  36.057   9.270  14.826
55700W        W17121  30.426  15.302  12.494
55701W        W17122  35.428   3.718  13.947
55702W        W17123  26.044  20.560   1.929
55703W        W17124  14.821  10.650   0.455
55704W        W17125  35.914  10.274   0.798
55705W        W17126   5.687  42.374  13.793
55706W        W17127  19.174  35.538  14.784
55707W        W17128   0.951  19.672   3.674
55708W        W17129   0.855  15.796   2.884
55709W        W17130  35.402   5.913   1.294
55710W        W17131   5.816  37.910   1.921
55711W        W17132   8.190  16.657   2.220
55712W        W17133  42.812   3.270  13.994
55713W        W17134  41.310  34.095  12.024
55714W        W17135  43.812  13.192  10.537
55715W        W17136  26.651  26.981   4.190
55716W        W17137  17.645  21.701   3.634
55717W        W17138  23.091  11.190   3.691
55718W        W17139  15.136  31.630   3.631
55719W        W17140  44.261  26.683  11.103
55720W        W17141   6.713  13.222  14.386
55721W        W17142  11.766  39.318   3.349
55722W        W17143  33.404  13.328  13.967
55723W        W17144   5.772  39.811   4.598
55724W        W17145  44.001  28.675  12.531
55725W        W17146  30.951  40.351  11.393
55726W        W17147  17.219  21.524   0.797
55727W        W17148  21.662  14.264  11.048
55728W        W17149  34.013  27.445   1.230
55729W        W17150  21.667   3.922  14.029
55730W        W17151  10.193  13.266  11.520
55731W        W17152  31.565  37.530   2.667
55732W        W17153  15.150  20.687  13.824
55733W        W17154  14.318  13.656   2.205
55734W        W17155  16.581   3.298  12.001
55735W        W17156  41.388  13.343   1.402
55736W        W17157   4.799  34.579   3.333
55737W        W17158  44.990  44.795  11.516
55738W        W17159  37.554   3.910  13.387
55739W        W17160  36.013   8.823  14.966
55740W        W17161  12.836  34.990  14.804
55741W        W17162  32.442  33.065  13.466
55742W        W17163  13.228  12.246  10.949
55743W        W17164  21.514  11.180   1.221
55744W        W17165  40.388  19.065  12.911
55745W        W17166  19.231  26.565   3.842
55746W        W17167  32.970  10.199   0.949
55747W        W17168  28.089  36.561  10.992
55748W        W17169   3.378   9.169   1.776
55749W        W17170  23.570  11.364  13.852
55750W        W17171   7.842  39.427   0.879
55751W        W17172  35.417  23.636   3.826
55752W        W17173  35.071   0.809   4.247
55753W        W17174  31.124   9.285  11.512
55754W        W17175   7.824   3.275  11.388
55755W        W17176  21.077  27.137   0.471
55756W        W17177  35.568   7.850   3.703
55757W        W17178  43.908   6.677  12.055
55758W        W17179  38.564  33.049   2.700
55759W        W17180  38.070   1.424  12.941
55760W        W17181  25.005  21.733  13.309
55761W        W17182  12.654  17.121   3.178
55762W        W17183  30.479  34.380  10.458
55763W        W17184  39.018  19.697  12.375
55764W        W17185  37.472   0.981  13.957
55765W        W17186   6.699  22.195  14.324
55766W        W17187   5.693  18.599  10.512
55767W        W17188  36.581   6.829   2.767
55768W        W17189  41.988  31.526   1.368
55769W        W17190  19.198  14.815  10.024
55770W        W17191  29.098  35.991   4.692
55771W        W17192  21.050  39.536   0.727
55772W        W17193  14.124  42.331   2.236
55773W        W17194  24.180   4.394  14.441
55774W        W17195  18.294  44.912  11.408
55775W        W17196  39.445   1.797   0.279
55776W        W17197   1.330  26.122   0.447
55777W        W17198  32.086  43.385   2.715
55778W        W17199  43.365  23.602  10.457
55779W        W17200   0.949  25.167  14.763
55780W        W17201  19.689  33.417  14.386
55781W        W17202  22.155  40.026  10.546
55782W        W17203  18.130  24.721   0.872
55783W        W17204  15.166   7.223   2.231
55784W        W17205  24.031  23.124  14.375
55785W        W17206  18.127  30.548  14.498
55786W        W17207   4.268  39.908  11.555
55787W        W17208  16.263   7.823  11.955
55788W        W17209  16.248  29.123   2.813
55789W        W17210  11.346  27.062  14.798
55790W        W17211  38.518  17.074   2.326
55791W        W17212  40.819  33.898  13.892
55792W        W17213  43.010  16.707  12.542
55793W        W17214  28.171   7.906   4.127
55794W        W17215  22.502  19.642  12.075
55795W        W17216  25.975   3.341  11.901
55796W        W17217  32.885  38.513   4.669
55797W        W17218  31.476  44.851   1.239
55798W        W17219  15.253  29.607   5.275
55799W        W17220  21.212  21.583  11.014
55800W        W17221  23.713  29.660  12.061
55801W        W17222  26.179  24.571  13.506
55802W        W17223   8.281  35.890  14.969
55803W        W17224  14.676  29.148  13.379
55804W        W17225  38.423  22.110   2.900
55805W        W17226  39.403  26.058   3.334
55806W        W17227  27.057  21.722   4.267
55807W        W17228  41.415  12.303   1.330
55808W        W17229   2.416  33.552  11.534
55809W        W17230  34.482  24.106   0.757
55810W        W17231  42.824  37.933   3.329
55811W        W17232   8.884  21.605   1.243
55812W        W17233  18.700  17.183  10.026
55813W        W17234  33.476  34.514   2.803
55814W        W17235   3.738  34.891  13.951
55815W        W17236  25.558   2.332  14.399
55816W        W17237   1.824  32.105   4.198
55817W        W17238  27.674  29.568  14.918
55818W        W17239  21.259   6.919  14.920
55819W        W17240  16.775   1.955  12.043
55820W        W17241   6.722  35.568  13.527
55821W        W17242  38.540  30.961  12.550
55822W        W17243  27.094  38.965   2.290
55823W        W17244  13.350  21.513   2.666
55824W        W17245   9.717  20.743   1.782
55825W        W17246   9.676  16.763   2.722
55826W        W17247  19.688  35.102  12.077
55827W        W17248  35.924  36.992   2.734
55828W        W17249  38.942  19.773   2.740
55829W        W17250  13.234   0.875   2.679
55830W        W17251  44.364  41.347  10.508
55831W        W17252  20.225  13.799  13.451
55832W        W17253  10.702  12.331   1.228
55833W        W17254  31.569  21.742   4.243
55834W        W17255   6.712  29.452   1.761
55835W        W17256  35.565  36.089   2.315
55836W        W17257   5.786   5.903  13.916
55837W        W17258  10.711  28.554   2.213
55838W        W17259  12.342   2.930  10.590
55839W        W17260  25.984  44.466  11.463
55840W        W17261  39.541  33.515  12.968
55841W        W17262  25.571   7.833  12.060
55842W        W17263  14.807   5.802   4.290
55843W        W17264  13.260   5.699  14.314
55844W        W17265  13.658  28.986   3.192
55845W        W17266  27.672  10.853  10.599
55846W        W17267  40.330  22.682  11.480
55847W        W17268   6.795   4.768  14.495
55848W        W17269  13.329  13.134  11.492
55849W        W17270  17.740  44.843  12.399
55850W        W17271   7.791  32.978  10.981
55851W        W17272  23.106  40.947  10.624
55852W        W17273  10.335  44.439  13.921
55853W        W17274  38.861  14.769  13.355
55854W        W17275  41.471  39.947  11.870
55855W        W17276  18.581  42.303   2.730
55856W        W17277  30.604   8.662   3.178
55857W        W17278  19.267  18.165   0.248
55858W        W17279  33.968  13.701  13.850
55859W        W17280  37.884  40.797   1.439
55860W        W17281   8.325  12.767   0.755
55861W        W17282  33.617   3.915   3.779
55862W        W17283  18.579  35.091   2.796
55863W        W17284  36.487  34.094   4.715
55864W        W17285  44.329  22.252  10.907
55865W        W17286  16.255  10.297  10.556
55866W        W17287   6.227  11.840   4.200
55867W        W17288  21.099   7.310   0.911
55868W        W17289  27.943  37.450   2.263
55869W        W17290  10.372   3.460  13.963
55870W        W17291  32.947   5.907   2.347
55871W        W17292  23.520  39.407  13.454
55872W        W17293  24.087   9.326   1.855
55873W        W17294   8.699  37.937   1.798
55874W        W17295  23.706  18.769   3.245
55875W        W17296  43.959  25.003  12.515
55876W        W17297  21.683  43.325   0.242
55877W        W17298   9.755  41.979   1.758
55878W        W17299  13.208   2.765   3.647
55879W        W17300  18.745  27.984  11.494
55880W        W17301  17.699   2.893  13.915
55881W        W17302   5.325  32.620  10.481
55882W        W17303  44.902  37.082   1.891
55883W        W17304  25.641  31.435   2.691
55884W        W17305  37.858  21.194   9.991
55885W        W17306   7.394  20.607   3.780
55886W        W17307  14.666  39.902   3.172
55887W        W17308  29.543  24.999   4.711
55888W        W17309  19.572  22.196  13.505
55889W        W17310  36.014  23.018  11.982
55890W        W17311   4.834   9.681  11.524
55891W        W17312  31.076  21.614  14.774
55892W        W17313  41.388  20.694  14.782
55893W        W17314   6.919   0.281   1.892
55894W        W17315   2.431  31.489  13.792
55895W        W17316  35.479  42.848   3.378
55896W        W17317  32.135  19.580  14.302
55897W        W17318  40.960  33.395  10.907
55898W        W17319   9.363  13.293   3.853
55899W        W17320  30.095  25.219  10.531
55900W        W17321  32.008  10.685  11.463
55901W        W17322  42.965  12.238   3.756
55902W        W17323  21.661  29.060   1.308
55903W        W17324   6.206  14.228   1.928
55904W        W17325  22.149  42.935  11.566
55905W        W17326  27.153  23.054  14.868
55906W        W17327  20.625   8.291   3.325
55907W        W17328  36.491  26.045  13.969
55908W        W17329  34.052  27.540  10.506
55909W        W17330  42.303  10.268  10.478
55910W        W17331   8.676  23.656   0.301
55911W        W17332   7.718   5.362   2.285
55912W        W17333  18.074  28.956   4.301
55913W        W17334   3.892  15.106  11.547
55914W        W17335  36.947  23.602  11.916
55915W        W17336   3.241   4.864  11.400
55916W        W17337  33.992  31.460  10.893
55917W        W17338  44.332  11.739  10.957
55918W        W17339  24.054   9.781   2.816
55919W        W17340  13.208   3.883   3.819
55920W        W17341  34.529  18.101  13.845
55921W        W17342  23.706  36.945  11.959
55922W        W17343  34.917   9.388  11.382
55923W        W17344  40.929   8.280  11.478
55924W        W17345  29.052  12.243   2.775
55925W        W17346  19.592  32.925   0.299
55926W        W17347  30.049  15.302   0.389
55927W        W17348  27.547   8.700   2.712
55928W        W17349  43.335   8.681   1.863
55929W        W17350  25.490  23.035  12.839
55930W        W17351   6.909  34.377  14.807
55931W        W17352   4.811  16.165   2.273
55932W        W17353  17.800   6.726  11.423
55933W        W17354  43.958   7.831   1.242
55934W        W17355  31.931  19.693  10.535
55935W        W17356  33.577  18.179   2.741
55936W        W17357   1.311  14.249  12.419
55937W        W17358  21.059  22.693   0.388
55938W        W17359   3.929   9.661   2.304
55939W        W17360  16.221  34.520   3.660
55940W        W17361  17.603  25.515   3.708
55941W        W17362   9.764   4.394   2.284
55942W        W17363  12.754  25.635   2.779
55943W        W17364   0.979  20.086  13.469
55944W        W17365  17.200  40.982   4.122
55945W        W17366  32.605  15.678   0.743
55946W        W17367  33.028  10.866  11.528
55947W        W17368  27.127  44.370   3.636
55948W        W17369   9.690   5.331   2.238
55949W        W17370  28.152   3.262   1.888
55950W        W17371  41.396  32.411  11.427
55951W        W17372   7.747  31.431   0.287
55952W        W17373  34.464   9.335  14.852
55953W        W17374  12.729  41.449   2.403
55954W        W17375   2.331  33.506  14.350
55955W        W17376   6.200  21.587  12.568
55956W        W17377   3.307  38.940   1.838
55957W        W17378  38.391  35.073   4.811
55958W        W17379  21.522  23.035   4.680
55959W        W17380  13.272   9.778  12.892
55960W        W17381   3.838  14.320  14.899
55961W        W17382  11.740  29.519   3.343
55962W        W17383  18.248  40.394   3.695
55963W        W17384  35.919  31.642   1.715
55964W        W17385  34.443  26.637  11.570
55965W        W17386  31.573  26.508   0.410
55966W        W17387  14.603  43.841  14.986
55967W        W17388  17.271  43.294  11.080
55968W        W17389  12.195  14.648  12.458
55969W        W17390  30.518  42.892   4.831
55970W        W17391   1.375  10.205   4.322
55971W        W17392  12.809  36.427  14.020
55972W        W17393  32.485  42.819  13.464
55973W        W17394  38.065  41.515   3.691
55974W        W17395  20.267   4.906  13.359
55975W        W17396   7.325  26.020  11.441
55976W        W17397  42.439  28.040   1.928
55977W        W17398  11.673  31.433   4.159
55978W        W17399  33.023  17.081   3.245
55979W        W17400  34.601  40.330  13.871
55980W        W17401  43.899  13.342  12.464
55981W        W17402  41.927  33.557   0.955
55982W        W17403  23.527  13.793   3.223
55983W        W17404  22.070   2.301  14.957
55984W        W17405   9.707   3.235  10.431
55985W        W17406  19.684  27.472  12.467
55986W        W17407  21.615  43.371  13.449
55987W        W17408  18.633  15.813  12.865
55988W        W17409  15.732  41.909  14.858
55989W        W17410   4.440  20.086   0.766
55990W        W17411   8.344  34.873   2.366
55991W        W17412  20.035  18.290   3.335
55992W        W17413  20.034  12.673  13.965
55993W        W17414  33.014   0.958   4.178
55994W        W17415  14.795  29.029   5.697
55995W        W17416  28.652  20.084   2.274
55996W        W17417  16.137   5.835  11.026
55997W        W17418  15.650  10.324   5.095
55998W        W17419  29.598  17.616   4.303
55999W        W17420  27.180   8.849  11.378
56000W        W17421  25.089  42.850  11.406
56001W        W17422  19.675  18.265  10.893
56002W        W17423  11.135   4.879  10.539
56003W        W17424  40.396  40.373   1.892
56004W        W17425   0.355   9.275  12.919
56005W        W17426  24.505  10.264  12.041
56006W        W17427  24.040  41.292   1.228
56007W        W17428   5.433  11.724  12.044
56008W        W17429  44.401  30.570  10.517
56009W        W17430   6.827  25.537  10.155
56010W        W17431   2.739  29.569   0.340
56011W        W17432  14.119  39.331  14.031
56012W        W17433  22.688  44.965   0.277
56013W        W17434  28.614  14.256  14.315
56014W        W17435  34.603  27.473   2.748
56015W        W17436   8.775   8.887   2.332
56016W        W17437   2.237  34.871   1.329
56017W        W17438  32.118  22.684   1.704
56018W        W17439  39.331  23.040   3.238
56019W        W17440  35.101  41.439   1.249
56020W        W17441   6.189  43.293  10.540
56021W        W17442  23.597   8.303   1.271
56022W        W17443  29.994   9.821   5.320
56023W        W17444  32.609  14.606   4.191
56024W        W17445  23.229  17.061  10.902
56025W        W17446  19.285   5.221   4.652
56026W        W17447  29.615  25.601   1.859
56027W        W17448   6.263  20.538   1.306
56028W        W17449  20.079  23.551   2.738
56029W        W17450  41.523  14.328  13.950
56030W        W17451   4.720  35.511   1.788
56031W        W17452   2.237   0.387   0.472
56032W        W17453  24.652  15.823  13.912
56033W        W17454   3.401  39.935  10.403
56034W        W17455  16.098  12.229   3.666
56035W        W17456  27.995  27.668   1.880
56036W        W17457  22.174  23.042   4.671
56037W        W17458  16.781   6.796   0.320
56038W        W17459  19.277  31.130  10.548
56039W        W17460  15.231  22.222   2.216
56040W        W17461  19.586  28.619   3.159
56041W        W17462  25.696  44.332   3.260
56042W        W17463  13.661  42.985  12.353
56043W        W17464  25.168  15.751   4.687
56044W        W17465  32.471  43.987   3.689
56045W        W17466  42.944  14.227   1.401
56046W        W17467  31.024  32.101  10.612
56047W        W17468   2.731  14.117   0.431
56048W        W17469  10.244  41.892   0.958
56049W        W17470  22.225  18.702  13.385
56050W        W17471  31.971  22.668  10.417
56051W        W17472  32.441   4.889  12.082
56052W        W17473  22.650  12.308  13.792
56053W        W17474   4.923  20.161   2.764
56054W        W17475   7.858  24.002   0.405
56055W        W17476  25.573  24.535   3.712
56056W        W17477  15.652  40.884   4.734
56057W        W17478  31.406  37.413   3.179
56058W        W17479  10.643   2.276  12.073
56059W        W17480  34.110  25.085  13.002
56060W        W17481  17.187   5.757  11.576
56061W        W17482  14.827   2.446  10.601
56062W        W17483  25.076  32.540   2.852
56063W        W17484  40.327  10.867   3.221
56064W        W17485  44.958  30.605   4.679
56065W        W17486  10.751   4.790  13.975
56066W        W17487  15.737  34.985   2.868
56067W        W17488  41.341  20.136   4.739
56068W        W17489  14.307  10.358   1.761
56069W        W17490  15.807  33.603   4.189
56070W        W17491  43.362  20.157   1.761
56071W        W17492  30.498  43.843   0.803
56072W        W17493   6.302  21.121  10.900
56073W        W17494  22.685  44.001   0.402
56074W        W17495  21.165  40.341  13.811
56075W        W17496  23.985   3.861  13.452
56076W        W17497  21.623  17.788  10.159
56077W        W17498  43.409  17.279   3.155
56078W        W17499  20.696  19.548   0.966
56079W        W17500  34.067  29.654  12.341
56080W        W17501   9.717  29.937  12.871
56081W        W17502  17.080  35.106  11.887
56082W        W17503  27.518  23.047   3.779
56083W        W17504  20.043  28.149  10.073
56084W        W17505  10.864  32.561   3.758
56085W        W17506  20.721  16.707   4.114
56086W        W17507  24.210  12.169   2.750
56087W        W17508   6.707  20.533   3.329
56088W        W17509   8.206   7.860   0.772
56089W        W17510  17.659  28.056  11.908
56090W        W17511  11.810  13.842  14.766
56091W        W17512  11.318   7.239  10.965
56092W        W17513   9.659  15.252   0.741
56093W        W17514  39.004  11.822  11.089
56094W        W17515  15.609   5.896   0.917
56095W        W17516  36.420  38.040   2.194
56096W        W17517  38.394  35.075  12.838
56097W        W17518  38.435   0.352   3.252
56098W        W17519  28.529  14.631  12.951
56099W        W17520  18.193  29.652   2.756
56100W        W17521   4.281   0.410   5.288
56101W        W17522  26.163   7.382  13.863
56102W        W17523  14.607  42.332   4.309
56103W        W17524  27.177  28.442   3.783
56104W        W17525  30.643  36.066   3.290
56105W        W17526  15.802  11.135  14.824
56106W        W17527   1.241  12.199  13.537
56107W        W17528   9.302   4.245  10.514
56108W        W17529  25.498  20.051  13.467
56109W        W17530  30.946   2.378   1.893
56110W        W17531  13.141  12.777   1.929
56111W        W17532  44.764  27.125   3.296
56112W        W17533  29.129  34.544  14.375
56113W        W17534  26.511   1.886   0.922
56114W        W17535  15.231  41.383  12.556
56115W        W17536  28.050  19.114   2.828
56116W        W17537  34.458  40.025   1.417
56117W        W17538  27.445  19.063  14.325
56118W        W17539  31.981  43.997  13.859
56119W        W17540  30.114  42.471  14.291
56120W        W17541   9.662  44.430  11.911
56121W        W17542   0.865   7.206   2.372
56122W        W17543  10.342  24.659   3.215
56123W        W17544  10.240   6.676  14.984
56124W        W17545  15.150  36.356   3.669
56125W        W17546   6.795  14.141  14.396
56126W        W17547  17.151  13.634   3.813
56127W        W17548  22.156  35.366   4.124
56128W        W17549   6.347  42.932  11.934
56129W        W17550  19.203  28.461   4.309
56130W        W17551   4.711  19.174   0.933
56131W        W17552  30.149  28.090  12.856
56132W        W17553  41.978  20.695   0.275
56133W        W17554  43.495  12.251   2.381
56134W        W17555  33.113  11.742   3.314
56135W        W17556   8.365  42.845   3.260
56136W        W17557  17.633  14.611  12.550
56137W        W17558  26.491  41.040   2.773
56138W        W17559  11.737  35.536  13.428
56139W        W17560  28.599  32.622  13.904
56140W        W17561  14.184  41.409   0.318
56141W        W17562  26.169  40.462  13.369
56142W        W17563  18.192  38.044   5.240
56143W        W17564  35.056   3.791  14.813
56144W        W17565   3.796   9.200   3.254
56145W        W17566  22.575  10.749   1.764
56146W        W17567   5.807  44.836   4.789
56147W        W17568  22.126  20.714  12.084
56148W        W17569  12.183   0.867   2.333
56149W        W17570   2.401  34.966   0.474
56150W        W17571  26.104  13.702  10.490
56151W        W17572  37.047  40.883   3.816
56152W        W17573  11.246  23.581  12.975
56153W        W17574  21.711  34.410   2.712
56154W        W17575  19.118   5.399   1.367
56155W        W17576  10.283  12.362  12.543
56156W        W17577  15.111  22.542   1.312
56157W        W17578  18.775  19.072   3.646
56158W        W17579   1.787  10.664   1.425
56159W        W17580   1.256  17.064  14.758
56160W        W17581   3.269  38.473   3.316
56161W        W17582  42.295   3.419   1.368
56162W        W17583  12.289  39.889   3.839
56163W        W17584  42.341   8.211   0.449
56164W        W17585   1.814  41.966  11.056
56165W        W17586  17.157  11.202   1.910
56166W        W17587   2.367  17.642   1.729
56167W        W17588  24.520  20.742  13.421
56168W        W17589  25.558  19.269   0.790
56169W        W17590  14.757  43.482   3.171
56170W        W17591  29.609   1.805  13.403
56171W        W17592  36.848  35.466   0.430
56172W        W17593  39.364  17.675   1.231
56173W        W17594  18.291  41.537   3.232
56174W        W17595  18.656  14.328   0.297
56175W        W17596  40.806  43.893  12.572
56176W        W17597  24.019  34.002  11.571
56177W        W17598   8.691  15.305   1.791
56178W        W17599  25.493  38.950   4.824
56179W        W17600  35.993   1.333   1.800
56180W        W17601  38.454  21.652  12.090
56181W        W17602  23.215  37.078   2.809
56182W        W17603  44.852  43.783   1.932
56183W        W17604  41.000  33.004  10.468
56184W        W17605  35.880  29.123  14.497
56185W        W17606  43.982  31.010  14.852
56186W        W17607  40.432  28.666   0.881
56187W        W17608  39.817   1.849  12.867
56188W        W17609  32.967  33.024  11.550
56189W        W17610  27.104  36.987   1.283
56190W        W17611  38.839  17.166   3.250
56191W        W17612  34.938   8.198  11.378
56192W        W17613   5.417   4.391  12.567
56193W        W17614  32.568  30.521   3.706
56194W        W17615  43.916  42.397   3.347
56195W        W17616  40.473   8.867  13.546
56196W        W17617  28.577   0.934   1.342
56197W        W17618  33.390  11.855   0.258
56198W        W17619  32.437   8.169   0.877
56199W        W17620  33.117  19.230  11.115
56200W        W17621  32.051  20.073   1.739
56201W        W17622   5.778  13.629   2.353
56202W        W17623   8.292  39.418   4.756
56203W        W17624  41.507  19.540  14.901
56204W        W17625   0.416   0.348   1.725
56205W        W17626  12.223   7.383   0.906
56206W        W17627  21.038  36.567   5.219
56207W        W17628  20.571   7.721  14.406
56208W        W17629  35.087  44.824  11.445
56209W        W17630  23.685  26.540   3.707
56210W        W17631  25.624  17.276   4.738
56211W        W17632   7.231  41.901  11.410
56212W        W17633  10.853  21.259   4.159
56213W        W17634  34.611  42.949   0.391
56214W        W17635   9.870  43.331  12.905
56215W        W17636  39.994  12.676   5.295
56216W        W17637  16.173  25.590   2.740
56217W        W17638   0.829   7.353   5.303
56218W        W17639  23.206   2.931   2.851
56219W        W17640  10.366  42.839  11.103
56220W        W17641   1.483  12.697   1.351
56221W        W17642  35.498  33.050   1.921
56222W        W17643  24.021   2.859   3.635
56223W        W17644   9.878  28.529  12.367
56224W        W17645  42.375   6.269   0.864
56225W        W17646  14.114   7.185   1.831
56226W        W17647  24.990  25.619  11.379
56227W        W17648  11.780   4.763  12.917
56228W        W17649  10.729  31.989   0.961
56229W        W17650  26.080   1.894  12.569
56230W        W17651  33.410  23.167   1.340
56231W        W17652  35.928  23.608   3.780
56232W        W17653  27.992  10.645   5.317
56233W        W17654  35.419  19.215  12.075
56234W        W17655  25.997  10.765  11.035
56235W        W17656   1.310   6.397   2.277
56236W        W17657  22.590  36.470  13.459
56237W        W17658  41.372  11.169  12.384
56238W        W17659  23.561   9.359   2.699
56239W        W17660  21.224  29.602   3.777
56240W        W17661  28.561  25.064  13.836
56241W        W17662  22.641  27.600  11.881
56242W        W17663  41.313  20.637   0.807
56243W        W17664  29.061  21.562  11.877
56244W        W17665  20.627  13.321   4.784
56245W        W17666  24.682   8.659   0.751
56246W        W17667  22.154  30.531   1.408
56247W        W17668  39.901  21.101   4.790
56248W        W17669  30.445  35.093  10.517
56249W        W17670  19.753  13.320   2.338
56250W        W17671   2.739  30.525  14.362
56251W        W17672  38.546  39.520   2.357
56252W        W17673  19.074  23.624   3.201
56253W        W17674   9.173   4.855   1.847
56254W        W17675  10.847  34.390  11.605
56255W        W17676  17.121  27.049  12.536
56256W        W17677  30.556  16.580  14.470
56257W        W17678  37.903  39.547  10.968
56258W        W17679  44.928  39.515   0.947
56259W        W17680  27.019  12.194   3.863
56260W        W17681  21.687  35.547   0.270
56261W        W17682  20.573  27.455  14.828
56262W        W17683  44.995  27.086   0.351
56263W        W17684   9.186  33.453  10.597
56264W        W17685  43.892   8.260   2.776
56265W        W17686  37.384  19.253   3.171
56266W        W17687  20.556  12.823   2.304
56267W        W17688  22.033  44.467   4.763
56268W        W17689  37.508   9.795  11.011
56269W        W17690  26.674  20.095  13.924
56270W        W17691  14.626   4.333  11.525
56271W        W17692   5.283  29.937  10.538
56272W        W17693  20.526   6.882   2.385
56273W        W17694  33.439  18.253   0.282
56274W        W17695  13.112  39.374  10.947
56275W        W17696  35.600  13.116   2.858
56276W        W17697   7.746  12.841   1.849
56277W        W17698   9.705  33.084   2.261
56278W        W17699  16.691  28.981  11.856
56279W        W17700   9.777   0.347  14.444
56280W        W17701  41.499  35.916  10.593
56281W        W17702  38.335  38.905   4.213
56282W        W17703   1.399  21.116  11.902
56283W        W17704   1.293  19.766   1.215
56284W        W17705   7.405   3.377   2.741
56285W        W17706  21.577  18.660  12.088
56286W        W17707  27.504  34.585   4.605
56287W        W17708  36.058  25.093   0.860
56288W        W17709  40.347  11.152  12.441
56289W        W17710  17.602  31.546  13.397
56290W        W17711  41.479  29.094  13.334
56291W        W17712  41.535  39.928   4.679
56292W        W17713  39.493  15.782   0.765
56293W        W17714  23.654  18.235  10.430
56294W        W17715  24.491  16.277  11.436
56295W        W17716  32.613  20.737   3.225
56296W        W17717  41.308  27.500  11.973
56297W        W17718   1.958   6.271  13.855
56298W        W17719  18.247   6.319  13.851
56299W        W17720  43.850  30.976  14.485
56300W        W17721  40.532  19.686   2.291
56301W        W17722  20.164  19.201  14.917
56302W        W17723  44.468  31.440   4.235
56303W        W17724  42.295  23.629  13.851
56304W        W17725  30.082   0.858   3.288
56305W        W17726  41.032  28.125  14.470
56306W        W17727  30.113  18.121  14.407
56307W        W17728  34.611  11.799  11.579
56308W        W17729  20.714   1.879   4.353
56309W        W17730   8.658  24.977   4.215
56310W        W17731   9.773  14.180  14.338
56311W        W17732  18.055  25.169   0.342
56312W        W17733   4.814  33.583   0.405
56313W        W17734  33.027  19.064   3.381
56314W        W17735  36.424  30.060   0.431
56315W        W17736   8.284  10.193  12.560
56316W        W17737  33.583   3.323  12.499
56317W        W17738  33.441  13.222  13.538
56318W        W17739  32.053  24.638  11.860
56319W        W17740  25.626  36.410   4.837
56320W        W17741  38.424   9.393  10.466
56321W        W17742  19.086  42.397   1.348
56322W        W17743  11.300  18.669  14.476
56323W        W17744   9.257  29.046  13.377
56324W        W17745   8.859  12.836   3.667
56325W        W17746  29.079  19.744   0.949
56326W        W17747  38.560   0.923  12.996
56327W        W17748  43.372  15.671  14.992
56328W        W17749  34.593  33.983  13.350
56329W        W17750  26.458  20.591   2.321
56330W        W17751  10.353  12.229  10.580
56331W        W17752   2.290  42.792   0.778
56332W        W17753  18.679   3.452  12.455
56333W        W17754   8.715  10.745   1.274
56334W        W17755   8.282   1.851   4.642
56335W        W17756   8.858  39.361  13.004
56336W        W17757  24.484  21.150   2.330
56337W        W17758  41.305  37.466   3.783
56338W        W17759  24.099  37.834  12.451
56339W        W17760  17.294  32.962  13.359
56340W        W17761  21.191  40.483   2.893
56341W        W17762  20.608  11.255  14.288
56342W        W17763  29.551  19.159  12.510
56343W        W17764   7.674  21.632   3.740
56344W        W17765  26.963  32.402   1.283
56345W        W17766  27.655  29.474  12.080
56346W        W17767   2.941  44.995   3.179
56347W        W17768  29.036  39.006   3.294
56348W        W17769  14.127   7.358   2.179
56349W        W17770   0.788  42.895  14.366
56350W        W17771  33.119  41.355   3.155
56351W        W17772  32.116  44.782  14.392
56352W        W17773  40.513   2.800  13.540
56353W        W17774   2.954   8.818  10.896
56354W        W17775  18.579  27.947  14.507
56355W        W17776  38.951  33.581   0.791
56356W        W17777  17.692   2.360  13.010
56357W        W17778   8.848  11.277   4.624
56358W        W17779  30.614  20.665  13.009
56359W        W17780  25.656  34.043  10.416
56360W        W17781  34.598  32.076  13.800
56361W        W17782  28.595  36.590  13.378
56362W        W17783  40.983   4.389   2.351
56363W        W17784  16.080  24.186   0.320
56364W        W17785  33.531  33.021   3.714
56365W        W17786  34.563  42.289   4.826
56366W        W17787  12.665  11.867   4.203
56367W        W17788  27.484   6.680   2.318
56368W        W17789  29.926  36.032  13.334
56369W        W17790   1.949  38.524   3.210
56370W        W17791   4.710  23.706  10.948
56371W        W17792  41.853   2.403   0.338
56372W        W17793  42.392  21.520   1.818
56373W        W17794  36.472  41.472   3.256
56374W        W17795   1.859   2.793   0.310
56375W        W17796  24.580   9.170  11.856
56376W        W17797  39.960   0.873   0.351
56377W        W17798  34.918  17.683   2.326
56378W        W17799  23.647  12.845  10.435
56379W        W17800  29.947  44.902  12.875
56380W        W17801  27.465  11.676  13.469
56381W        W17802   2.304  31.128   1.220
56382W        W17803   0.835   5.862  11.595
56383W        W17804  40.909  13.337   2.695
56384W        W17805  17.260  10.653  14.379
56385W        W17806  36.562  22.040  13.907
56386W        W17807  41.978   1.779   2.335
56387W        W17808  20.747  10.208   2.861
56388W        W17809  34.613   2.887   4.697
56389W        W17810  30.012   7.902   3.655
56390W        W17811  36.866  21.648  13.379
56391W        W17812  40.982  31.418  13.887
56392W        W17813  25.013   3.857   1.310
56393W        W17814  11.296  32.103  14.872
56394W        W17815  20.609  28.651   3.293
56395W        W17816  38.471  18.572  14.952
56396W        W17817  11.804  18.073   2.253
56397W        W17818  16.806  27.598  11.857
56398W        W17819   7.314  18.202  14.920
56399W        W17820  39.017  16.147   2.902
56400W        W17821  30.550  13.834   5.140
56401W        W17822  17.728  19.156  14.348
56402W        W17823  44.275  33.427  12.843
56403W        W17824  43.978  12.803   4.282
56404W        W17825  18.728   5.761   2.853
56405W        W17826  10.657  33.411  13.331
56406W        W17827   9.385  17.090   0.473
56407W        W17828  18.200  10.843   1.859
56408W        W17829  13.675  37.051   1.819
56409W        W17830  32.006  22.246  10.563
56410W        W17831   1.967  19.780  13.867
56411W        W17832  37.909  35.365   4.113
56412W        W17833  43.774  35.361  11.478
56413W        W17834  41.021  29.575   3.777
56414W        W17835  32.944  15.599  11.536
56415W        W17836  16.139  15.112   4.610
56416W        W17837  16.704  34.011   3.717
56417W        W17838  12.715  29.568  14.023
56418W        W17839  23.520   0.413  13.375
56419W        W17840  19.100  15.179  12.936
56420W        W17841  36.028   5.785   4.196
56421W        W17842  37.424  20.237  13.896
56422W        W17843   0.915  38.840   4.731
56423W        W17844  38.520  17.156   3.307
56424W        W17845  29.617  37.415   4.280
56425W        W17846  12.849  35.069   1.700
56426W        W17847  30.960   1.404  13.475
56427W        W17848  20.116  14.169  12.399
56428W        W17849  36.950  18.571   0.860
56429W        W17850   6.202  33.118  12.505
56430W        W17851   6.898  14.685  13.320
56431W        W17852  36.971  19.255  13.931
56432W        W17853  12.349  26.520  14.844
56433W        W17854  17.734  30.528  13.987
56434W        W17855   7.239  23.998   1.762
56435W        W17856  13.710  29.501   4.245
56436W        W17857  25.136  32.958  11.559
56437W        W17858  37.922  39.978   1.430
56438W        W17859   8.280   9.265  11.495
56439W        W17860  38.412  28.641  12.352
56440W        W17861  17.663  20.540  14.444
56441W        W17862  44.272  41.983   3.806
56442W        W17863  18.592  17.723   4.835
56443W        W17864  44.985  18.181   1.361
56444W        W17865  24.150   2.882  13.413
56445W        W17866   3.721  25.198   2.252
56446W        W17867  28.599   3.453  14.017
56447W        W17868  43.493   4.313  11.011
56448W        W17869  43.006  14.189  12.084
56449W        W17870  28.631  32.901  11.878
56450W        W17871  28.050  16.741   4.728
56451W        W17872  11.258  12.700   0.943
56452W        W17873   9.267   2.736   1.293
56453W        W17874  15.327  41.966   1.733
56454W        W17875  38.897   1.977  11.883
56455W        W17876  24.098   0.297   3.151
56456W        W17877  20.223  39.867  11.015
56457W        W17878  30.541   2.842  12.470
56458W        W17879  43.493  20.221  10.469
56459W        W17880  43.470  21.225  12.975
56460W        W17881  41.469  41.435  14.976
56461W        W17882  21.224  20.562  12.508
56462W        W17883  19.560  12.833   4.817
56463W        W17884  32.957  34.551   3.633
56464W        W17885  10.367  35.485   1.283
56465W        W17886  23.571   3.355  13.536
56466W        W17887  31.014  44.999   0.951
56467W        W17888   8.774  12.201   4.664
56468W        W17889   5.825   8.226  12.889
56469W        W17890  35.566  25.168   0.397
56470W        W17891  43.977   4.403   3.700
56471W        W17892  18.681   6.837  14.762
56472W        W17893  12.736  15.148  14.791
56473W        W17894  23.119  34.608  10.964
56474W        W17895   9.885  37.844   3.783
56475W        W17896  27.554  22.235  14.758
56476W        W17897  23.236  19.259   1.808
56477W        W17898  20.751  29.940  13.812
56478W        W17899  41.813  33.414  14.481
56479W        W17900  18.675   1.754   1.874
56480W        W17901  31.018  17.781   2.213
56481W        W17902  42.288   7.701  10.536
56482W        W17903  36.974  11.259   0.956
56483W        W17904  32.584  31.622   3.204
56484W        W17905  13.624  41.346   2.289
56485W        W17906  40.493  27.640  13.961
56486W        W17907  38.855   8.393   2.681
56487W        W17908  12.254  27.185  10.505
56488W        W17909   7.851   6.243  13.809
56489W        W17910  21.677  38.999  11.511
56490W        W17911  36.371  10.696  11.562
56491W        W17912   4.337  12.252   4.151
56492W        W17913  19.760  28.497  14.418
56493W        W17914  24.663  42.432  11.539
56494W        W17915  21.252  31.419  14.351
56495W        W17916  10.166  34.877   5.216
56496W        W17917  20.636  30.640   1.925
56497W        W17918  27.558  39.021   0.396
56498W        W17919  24.556  31.050  10.973
56499W        W17920  29.961  11.307   4.117
56500W        W17921  38.564  23.731   3.763
56501W        W17922  10.358   8.209  10.633
56502W        W17923  36.076  33.001  12.351
56503W        W17924  25.029  38.550  14.477
56504W        W17925  36.845   9.286   3.364
56505W        W17926   6.714  20.695  12.419
56506W        W17927  16.573  36.905  11.461
56507W        W17928  31.426  34.881  13.887
56508W        W17929  15.674  42.470  14.971
56509W        W17930  40.952   3.330   1.270
56510W        W17931  18.549   1.953   5.121
56511W        W17932  41.889  15.766  11.962
56512W        W17933  19.176   6.838   4.206
56513W        W17934  40.353   4.406  14.345
56514W        W17935  33.621  41.981  14.401
56515W        W17936   7.757  42.996  13.474
56516W        W17937  38.350  36.920   1.443
56517W        W17938  28.163  29.487  11.406
56518W        W17939  36.575  34.410  13.048
56519W        W17940  13.831  14.780  12.006
56520W        W17941   3.347  14.679  11.040
56521W        W17942  29.451  22.521   4.769
56522W        W17943  26.989  28.543   0.310
56523W        W17944   8.890   3.890   0.773
56524W        W17945  23.141  34.886  14.276
56525W        W17946   2.916  41.306  12.369
56526W        W17947   2.353   5.411   4.117
56527W        W17948  38.059   0.922   2.295
56528W        W17949  32.419  10.350  13.390
56529W        W17950  29.540  37.387  11.025
56530W        W17951  42.343  17.101  12.961
56531W        W17952   2.362  23.013   2.196
56532W        W17953  20.193  24.166   4.650
56533W        W17954  40.932  36.844  10.605
56534W        W17955  34.102  39.370   0.480
56535W        W17956  10.274   9.277   0.794
56536W        W17957  14.113  36.420  11.858
56537W        W17958  14.784  42.454  11.410
56538W        W17959  21.700  24.219   3.345
56539W        W17960  13.347   8.816  13.033
56540W        W17961  16.085  15.791   3.271
56541W        W17962  30.468  42.447   1.228
56542W        W17963  42.796  34.425   4.726
56543W        W17964  40.842  33.995   3.171
56544W        W17965   5.332   3.235   1.821
56545W        W17966  15.144  30.494   5.279
56546W        W17967  31.584  21.740   1.891
56547W        W17968  37.078   8.813   4.789
56548W        W17969  29.525  12.359  14.969
56549W        W17970   3.325  30.652   4.343
56550W        W17971   3.276  36.564  13.517
56551W        W17972   3.713  15.088  11.122
56552W        W17973   3.712  40.988  10.529
56553W        W17974   8.869  21.018  10.644
56554W        W17975  32.451  42.793   1.360
56555W        W17976  18.251  19.156   2.863
56556W        W17977  18.137  40.813   4.713
56557W        W17978  36.912  23.705   1.770
56558W        W17979  18.275  37.025   0.417
56559W        W17980   6.282   1.420  11.974
56560W        W17981  20.597  14.802  12.082
56561W        W17982   0.481   0.438   3.702
56562W        W17983  19.741  42.383  13.540
56563W        W17984   1.824   9.283  13.513
56564W        W17985  31.495  33.020  14.820
56565W        W17986  21.204  27.013   2.369
56566W        W17987  17.652  38.359  14.825
56567W        W17988  34.070  33.508  11.004
56568W        W17989  27.172  31.992   0.843
56569W        W17990  39.466  34.424  10.939
56570W        W17991  36.363  42.517  11.493
56571W        W17992  44.318  19.731   4.319
56572W        W17993  25.041  27.593  14.406
56573W        W17994  41.795  20.182   0.374
56574W        W17995  23.574  37.992  11.600
56575W        W17996  34.474  34.425   3.170
56576W        W17997  10.648  44.281   3.305
56577W        W17998  41.298   7.299  10.426
56578W        W17999  10.854   3.267   1.726
56579W        W18000  38.532  40.839  13.835
56580W        W18001  20.628  27.648   4.763
56581W        W18002  13.230  37.051   1.232
56582W        W18003  19.743  17.573  12.568
56583W        W18004  35.875   3.780   4.722
56584W        W18005  38.893  19.199   3.869
56585W        W18006  29.577   9.383   2.192
56586W        W18007  16.242  33.027  13.979
56587W        W18008  42.806   6.746  14.837
56588W        W18009  44.274  19.701   4.792
56589W        W18010   8.228  27.577   3.235
56590W        W18011  21.069  22.722  11.483
56591W        W18012  41.428  24.227  11.433
56592W        W18013  16.140   9.234  10.967
56593W        W18014  35.980   0.460  12.984
56594W        W18015  38.457   7.762  14.449
56595W        W18016  23.141  24.575  12.502
56596W        W18017  23.126  33.562  13.933
56597W        W18018   3.758  25.965  14.284
56598W        W18019  19.747  17.243  14.956
56599W        W18020  28.957   0.774  12.347
56600W        W18021  35.038  14.100  12.896
56601W        W18022  29.580  15.756  12.453
56602W        W18023  12.631  23.011  13.435
56603W        W18024  13.159  18.612  10.944
56604W        W18025  21.720  27.573   0.341
56605W        W18026  35.860  43.458  11.908
56606W        W18027   9.788  12.795  12.875
56607W        W18028  10.779  18.563   2.867
56608W        W18029   4.864  19.107  11.521
56609W        W18030   5.793  44.475   3.694
56610W        W18031  33.613   6.313  12.431
56611W        W18032  35.370   2.439   2.796
56612W        W18033  15.286   3.337  11.506
56613W        W18034  36.016  26.045   4.669
56614W        W18035  12.816  19.239  14.789
56615W        W18036  21.021   6.750   4.748
56616W        W18037  10.248   3.303   0.244
56617W        W18038   8.310  24.174  12.856
56618W        W18039   6.350  25.470  13.881
56619W        W18040  22.704  12.816  13.345
56620W        W18041  17.223  29.966   0.946
56621W        W18042  27.632  14.644   4.352
56622W        W18043  28.489  34.046   0.936
56623W        W18044  20.174  21.022  11.900
56624W        W18045  27.000  20.129   3.631
56625W        W18046  38.891  35.990   0.823
56626W        W18047  31.121  27.552   1.442
56627W        W18048  28.026  19.222   1.225
56628W        W18049  42.510   6.679  13.360
56629W        W18050  24.489  24.098  10.523
56630W        W18051  37.980  16.121  12.530
56631W        W18052   4.817  35.940  11.899
56632W        W18053   8.160  21.729   2.248
56633W        W18054  44.298   5.430  14.411
56634W        W18055   4.878  21.733  12.413
56635W        W18056  28.099   9.156  10.642
56636W        W18057  28.510  23.702  12.409
56637W        W18058  13.157  18.645   3.290
56638W        W18059  17.735  41.971  11.444
56639W        W18060  23.027  35.546  10.997
56640W        W18061  22.622  25.549   3.303
56641W        W18062  17.583   4.816  13.409
56642W        W18063  40.511   7.198   9.976
56643W        W18064   3.955  18.193  11.608
56644W        W18065   8.195  23.496   0.852
56645W        W18066  40.397  44.790  11.117
56646W        W18067  43.378  35.061  14.836
56647W        W18068   6.185   2.824   9.573
56648W        W18069  44.771  29.040   1.276
56649W        W18070   6.826  10.739   3.346
56650W        W18071  35.985   3.247   4.182
56651W        W18072  20.270  36.407  13.845
56652W        W18073  34.546  35.894   3.665
56653W        W18074  19.126  29.925  13.864
56654W        W18075  23.171  22.534   1.803
56655W        W18076  44.885  12.341   3.239
56656W        W18077  26.466   7.238   3.305
56657W        W18078  34.908  30.432  11.503
56658W        W18079   9.789   7.862  12.560
56659W        W18080   2.454  42.325   1.881
56660W        W18081  44.871  42.901  14.302
56661W        W18082  40.505  27.105   1.416
56662W        W18083  37.570   3.838   9.555
56663W        W18084  12.263  40.971  12.498
56664W        W18085  17.071  42.023  11.422
56665W        W18086  34.520   9.703  14.359
56666W        W18087  12.624   8.386  11.049
56667W        W18088  37.382  35.946   4.643
56668W        W18089  37.045  13.845   4.297
56669W        W18090  21.157   2.343  12.971
56670W        W18091  31.151  44.499   9.968
56671W        W18092  16.699   2.413   3.147
56672W        W18093  29.096  18.235   0.856
56673W        W18094  31.514  33.494  13.985
56674W        W18095  14.698  32.093   1.770
56675W        W18096  18.197   8.166  10.563
56676W        W18097  15.713  22.178   1.249
56677W        W18098  15.698   4.410  13.468
56678W        W18099  42.800  30.985  10.457
56679W        W18100  36.412  41.834   2.698
56680W        W18101  37.944   7.669  12.431
56681W        W18102  40.439   5.207   2.388
56682W        W18103  20.717  15.621   4.116
56683W        W18104  29.087   2.311  14.955
56684W        W18105  43.914   2.338   3.679
56685W        W18106   4.936  10.640   1.887
56686W        W18107  19.134  35.996   2.376
56687W        W18108  17.742  27.008   2.414
56688W        W18109  27.465  33.601  12.452
56689W        W18110  10.767   6.240  12.829
56690W        W18111   1.811  27.013   1.368
56691W        W18112  25.553  27.448  12.526
56692W        W18113  31.066  13.350   0.733
56693W        W18114  20.524  21.034  11.434
56694W        W18115  22.238  23.691   3.715
56695W        W18116   5.727   3.412  10.508
56696W        W18117   7.303  34.546  10.636
56697W        W18118  18.094  19.740  14.912
56698W        W18119  17.296  21.192  14.300
56699W        W18120  28.988  12.139  11.007
56700W        W18121  43.871  21.233  10.037
56701W        W18122   0.781   0.425   4.279
56702W        W18123  15.704   4.284  14.962
56703W        W18124   2.356  40.879   2.879
56704W        W18125  10.771  22.742  13.422
56705W        W18126  21.728  40.514  11.495
56706W        W18127   3.762  38.428  13.486
56707W        W18128  40.403  36.432   3.761
56708W        W18129  39.524  35.038   0.813
56709W        W18130   2.780  15.815   4.752
56710W        W18131   5.908  27.025   3.258
56711W        W18132  36.870   5.366   2.903
56712W        W18133   3.329   2.784   1.749
56713W        W18134  22.729   6.233   0.726
56714W        W18135  15.812  14.745   5.124
56715W        W18136  19.746  35.040   2.198
56716W        W18137  41.489  12.651   5.146
56717W        W18138  18.637  31.063  10.546
56718W        W18139  18.552  14.687   4.341
56719W        W18140   6.777  16.142   2.412
56720W        W18141  38.454  29.652  11.430
56721W        W18142  33.588  41.936   1.741
56722W        W18143  31.936   7.268   2.412
56723W        W18144  25.114  20.607   0.432
56724W        W18145  36.883  44.381  12.345
56725W        W18146  28.600   0.844  14.284
56726W        W18147   4.289  31.955   1.810
56727W        W18148  44.411  21.597   2.296
56728W        W18149   5.400  16.649   3.170
56729W        W18150  10.728  28.151   3.344
56730W        W18151   4.263  42.478  13.878
56731W        W18152  19.143  17.168   1.834
56732W        W18153  34.032  34.460  10.908
56733W        W18154  33.042  20.564   0.773
56734W        W18155  26.550   4.944  14.930
56735W        W18156  38.948  15.694  14.507
56736W        W18157  20.165  11.188   5.188
56737W        W18158  34.508   0.427  13.503
56738W        W18159  16.566  21.583   3.791
56739W        W18160   7.198   9.880   0.297
56740W        W18161  42.981  18.081   0.847
56741W        W18162  39.000  23.086   3.633
56742W        W18163  30.651   5.307  11.522
56743W        W18164  44.778  44.273   4.700
56744W        W18165  22.099  38.009   4.797
56745W        W18166  15.659  41.314  11.523
56746W        W18167   5.386  37.397   4.176
56747W        W18168  40.856  13.631   2.785
56748W        W18169  39.345  25.569  11.861
56749W        W18170  36.536   1.896  11.955
56750W        W18171  28.141  10.162   2.730
56751W        W18172  42.438  44.906  10.557
56752W        W18173  12.137  41.344  13.546
56753W        W18174  28.573  28.549  10.609
56754W        W18175  32.016   7.799  13.535
56755W        W18176   9.176   6.325   1.441
56756W        W18177   0.401  17.196   4.248
56757W        W18178  28.055  14.260  10.058
56758W        W18179   2.769  17.285  14.783
56759W        W18180   5.349  16.725   2.882
56760W        W18181   7.334  34.373  11.881
56761W        W18182   6.736  44.887   2.717
56762W        W18183   9.838   3.276   4.165
56763W        W18184   1.759  42.798   0.733
56764W        W18185  14.644  39.872  11.004
56765W        W18186   2.774  15.674   3.315
56766W        W18187  12.147  31.072   3.183
56767W        W18188  31.069   8.164  11.953
56768W        W18189  35.021  19.265  12.055
56769W        W18190  35.505  34.505  14.371
56770W        W18191  42.928  34.449  12.551
56771W        W18192  15.634  29.100  14.317
56772W        W18193   3.863   1.373   2.892
56773W        W18194  18.184  17.721   4.727
56774W        W18195  21.090  36.396   0.443
56775W        W18196  28.542  11.159  11.017
56776W        W18197  25.567  19.097   3.642
56777W        W18198   2.853  11.830   3.793
56778W        W18199   2.732  22.176   3.654
56779W        W18200  29.648  38.440  13.473
56780W        W18201  23.540  29.440   0.407
56781W        W18202  32.125  37.491  10.943
56782W        W18203  29.067  31.582   3.379
56783W        W18204  17.143  33.486   4.230
56784W        W18205   7.293  30.015  14.317
56785W        W18206  40.841  25.042  11.976
56786W        W18207   2.315   5.727   0.894
56787W        W18208  40.913  39.316  10.592
56788W        W18209   3.415  31.571  14.321
56789W        W18210  17.303  15.789   4.621
56790W        W18211  18.628  24.025   4.227
56791W        W18212  31.532  12.828   2.782
56792W        W18213   1.735  24.225   3.368
56793W        W18214   1.813  12.615  10.998
56794W        W18215  22.135  20.537   1.744
56795W        W18216   6.915  18.114   0.746
56796W        W18217  38.384   2.941   0.878
56797W        W18218  22.161   3.932   2.873
56798W        W18219  29.031  13.117  11.909
56799W        W18220   5.320   0.457  11.045
56800W        W18221   5.335  24.022  14.897
56801W        W18222  12.210  34.487   4.200
56802W        W18223   0.315  16.738  13.435
56803W        W18224   2.754   0.421   3.739
56804W        W18225  26.185  18.177   2.859
56805W        W18226  33.972  33.108  14.361
56806W        W18227  15.622  44.929   2.704
56807W        W18228   0.850  25.630   3.157
56808W        W18229   7.237  44.299  12.374
56809W        W18230  27.092   5.715   3.326
56810W        W18231  15.289  27.170   4.169
56811W        W18232  33.499  27.511  10.534
56812W        W18233   9.361   6.240  11.557
56813W        W18234  31.417  13.747  12.856
56814W        W18235  22.048  33.394  13.951
56815W        W18236  26.112  42.331  12.895
56816W        W18237  29.527  27.566   2.318
56817W        W18238  44.369  34.985   2.896
56818W        W18239  35.918  27.096  11.432
56819W        W18240  10.872  29.450  10.521
56820W        W18241   8.793  18.182   0.752
56821W        W18242   0.753   2.378   9.668
56822W        W18243  23.722  32.116  10.149
56823W        W18244  11.329  28.501   3.716
56824W        W18245   9.292  35.455   4.741
56825W        W18246  19.235  26.501   2.285
56826W        W18247  20.667  14.118  11.593
56827W        W18248  22.634   0.308   0.844
56828W        W18249  36.055  19.153  14.410
56829W        W18250  11.631  18.265   1.219
56830W        W18251  34.487  30.018   2.733
56831W        W18252  31.408  40.038  11.024
56832W        W18253  36.992  27.968  11.873
56833W        W18254   0.370  10.139   2.382
56834W        W18255  17.271  24.093  13.060
56835W        W18256  10.275  33.932   4.183
56836W        W18257   8.671   5.773   0.309
56837W        W18258  29.048  22.046  11.479
56838W        W18259  42.515  17.756  12.466
56839W        W18260  18.716   1.467   3.200
56840W        W18261  28.988  39.006  14.403
56841W        W18262  29.978  23.008   4.272
56842W        W18263  25.151   3.902   0.768
56843W        W18264  25.969   7.250   9.443
56844W        W18265  31.614  11.684   5.226
56845W        W18266  32.418  14.751  12.832
56846W        W18267  25.529  44.263  13.941
56847W        W18268  27.104  21.599  10.429
56848W        W18269  43.820  28.607  13.036
56849W        W18270  39.003  23.699  12.848
56850W        W18271  43.286  15.578   1.213
56851W        W18272  41.983  12.638  11.489
56852W        W18273  27.033  41.355  10.950
56853W        W18274   0.794   7.221   9.956
56854W        W18275  39.348  10.845   1.784
56855W        W18276  44.865  32.470   0.354
56856W        W18277   4.893   3.758   0.940
56857W        W18278  43.439  39.903   0.361
56858W        W18279  40.011  44.294  12.838
56859W        W18280  19.560   8.345  11.052
56860W        W18281  37.466  30.511  13.985
56861W        W18282  38.526  36.962   4.281
56862W        W18283  28.978  25.969   4.631
56863W        W18284  25.678  44.842   3.281
56864W        W18285  24.192   8.678   2.766
56865W        W18286  10.827  41.419   4.303
56866W        W18287   9.163   7.228  10.448
56867W        W18288  26.116  18.787  13.907
56868W        W18289  27.492  32.582  13.835
56869W        W18290  26.063   0.944   3.320
56870W        W18291  40.501   4.827  11.935
56871W        W18292  25.074  17.081   0.269
56872W        W18293  31.486  10.786   3.174
56873W        W18294  29.586  16.197   2.407
56874W        W18295  14.209  32.475   4.787
56875W        W18296   1.844   5.351   0.748
56876W        W18297  35.576   0.249   1.259
56877W        W18298  20.149   6.840   9.612
56878W        W18299   5.804  24.986   1.224
56879W        W18300  31.950  43.383   3.231
56880W        W18301  23.100  28.588   3.811
56881W        W18302  34.080  41.519   3.646
56882W        W18303  21.692   4.391   1.234
56883W        W18304  20.600  35.972   2.860
56884W        W18305  27.606  10.189  10.914
56885W        W18306  25.136  40.491  13.362
56886W        W18307  34.880   6.313  12.345
56887W        W18308  17.285  42.980  12.001
56888W        W18309  38.345  13.255  10.901
56889W        W18310   6.417  14.790  10.473
56890W        W18311  21.232   2.300   1.907
56891W        W18312  33.026   4.735  11.022
56892W        W18313  10.162  41.519  13.800
56893W        W18314  37.424   8.404  13.539
56894W        W18315   0.427  30.921   4.814
56895W        W18316  34.072  38.565   0.348
56896W        W18317  15.777  35.053   1.928
56897W        W18318  37.366   7.745  12.026
56898W        W18319  21.140  24.661  14.826
56899W        W18320   4.428   0.494  13.822
56900W        W18321  22.133  43.931   2.336
56901W        W18322  35.864  21.567   2.806
56902W        W18323  44.755  40.379  12.510
56903W        W18324  30.522  16.269   2.832
56904W        W18325  15.822  32.040   3.672
56905W        W18326  42.469  42.935   4.203
56906W        W18327  32.053  43.393  13.936
56907W        W18328   6.900  12.673  11.040
56908W        W18329   5.846   2.313  11.507
56909W        W18330  41.527  11.146  11.035
56910W        W18331  11.130  14.291   3.740
56911W        W18332  26.658  29.993  14.312
56912W        W18333  41.362  24.018   4.134
56913W        W18334   4.847   9.225  14.917
56914W        W18335  22.610  35.040   0.726
56915W        W18336  10.329  28.514  10.937
56916W        W18337   2.741  33.388  10.082
56917W        W18338  18.704  40.485  13.055
56918W        W18339  16.152  44.779  14.443
56919W        W18340   4.398  26.533   9.935
56920W        W18341  31.107  37.492   2.249
56921W        W18342  40.810  38.366  10.404
56922W        W18343  28.035   7.398   2.836
56923W        W18344  27.674  12.141   5.667
56924W        W18345  34.910  23.529  10.918
56925W        W18346  29.146  44.276  11.447
56926W        W18347  12.830  40.882  13.982
56927W        W18348  39.403  12.646   0.928
56928W        W18349   7.231  35.504   1.216
56929W        W18350  41.040  15.229   4.341
56930W        W18351  36.355  41.899  10.472
56931W        W18352   3.430  30.105   2.698
56932W        W18353  31.067  26.532  13.327
56933W        W18354  25.662  17.750   2.664
56934W        W18355  44.803  30.084  14.475
56935W        W18356   8.404   7.357  11.487
56936W        W18357  44.871  31.442  11.446
56937W        W18358  27.144   0.383   2.819
56938W        W18359  16.578  39.943   0.428
56939W        W18360  20.749  41.030  10.972
56940W        W18361  41.837  22.225  11.390
56941W        W18362  31.528   1.482  11.562
56942W        W18363  43.853  23.997   0.778
56943W        W18364  12.248   3.370  14.410
56944W        W18365   2.368  38.000   1.274
56945W        W18366  38.435  31.039  12.079
56946W        W18367  12.664  14.211  11.537
56947W        W18368  13.250  26.553   1.750
56948W        W18369   1.329   9.301   0.311
56949W        W18370  17.195   6.313  13.062
56950W        W18371  22.031  20.229   2.837
56951W        W18372  24.724  42.966  13.025
56952W        W18373  36.536  32.959   1.698
56953W        W18374  36.051  13.614   1.331
56954W        W18375  24.028   5.786  11.433
56955W        W18376  42.016  25.093   4.234
56956W        W18377  44.396  32.962   4.210
56957W        W18378  15.655   3.861  11.906
56958W        W18379   0.795  36.963  12.368
56959W        W18380  35.588  40.397  10.487
56960W        W18381   5.766  37.896  11.371
56961W        W18382   9.352   1.393   4.783
56962W        W18383  44.881  27.056  10.905
56963W        W18384  10.369  27.083  11.870
56964W        W18385  20.657   1.253  13.445
56965W        W18386   0.479  35.374   4.657
56966W        W18387   2.426  11.865   4.244
56967W        W18388  39.042  33.029   4.277
56968W        W18389  19.613   2.780   4.191
56969W        W18390   3.742  37.514   0.428
56970W        W18391   5.377   8.696  12.066
56971W        W18392  19.580  19.682   0.964
56972W        W18393   0.255   0.743   0.295
56973W        W18394   5.745  42.522  14.452
56974W        W18395  25.687  34.100   0.339
56975W        W18396  43.804   3.310  13.965
56976W        W18397   7.767  15.198   2.669
56977W        W18398  24.594   4.234  10.545
56978W        W18399   1.786  33.404   9.970
56979W        W18400  35.586   7.412  10.914
56980W        W18401  31.055  20.102  14.015
56981W        W18402  19.140  13.345   4.803
56982W        W18403  39.813  13.342  14.366
56983W        W18404  12.294  32.543   1.362
56984W        W18405  24.528  20.670   1.400
56985W        W18406  38.933  40.503  11.568
56986W        W18407  13.209   6.850   0.947
56987W        W18408  37.356  25.186  13.445
56988W        W18409  28.539  16.248   0.893
56989W        W18410  38.924   6.844  14.356
56990W        W18411  26.078  20.114   4.244
56991W        W18412  41.981  17.144  13.310
56992W        W18413  43.799  34.559   1.795
56993W        W18414   0.894  44.772   2.273
56994W        W18415  13.628  23.494  12.979
56995W        W18416  39.412  19.125   4.731
56996W        W18417  21.646   0.492  11.857
56997W        W18418   9.318  29.952  13.435
56998W        W18419   0.447  34.430   1.720
56999W        W18420  30.975  38.017   2.297
57000W        W18421   0.932  37.513   0.793
57001W        W18422  10.730   2.909   1.906
57002W        W18423  18.582  30.450   2.213
57003W        W18424  26.598  14.631   1.798
57004W        W18425  10.259   0.463   3.301
57005W        W18426  28.093  19.723   4.134
57006W        W18427   2.960   1.345  13.007
57007W        W18428   7.740   5.248  14.496
57008W        W18429  42.498  11.220   3.805
57009W        W18430  10.308  42.847   2.230
57010W        W18431  26.485  17.778  13.871
57011W        W18432  31.970  35.031   4.727
57012W        W18433  35.936  20.259   3.180
57013W        W18434  29.466  16.669  13.357
57014W        W18435  14.622   4.867  12.538
57015W        W18436  11.695  19.173   4.251
57016W        W18437   0.984  12.294  14.961
57017W        W18438  39.451  10.230  14.487
57018W        W18439  24.050  13.273  10.959
57019W        W18440   0.808  24.123  10.976
57020W        W18441  35.902  32.026  13.851
57021W        W18442  37.043  37.343  11.052
57022W        W18443  11.345  14.612  13.543
57023W        W18444  24.614  22.075  12.939
57024W        W18445  43.392  24.516   3.658
57025W        W18446  33.028   4.845   2.801
57026W        W18447   9.662  12.725   1.709
57027W        W18448  12.232  25.566  12.575
57028W        W18449  18.674  27.610   4.784
57029W        W18450  35.102  43.510  14.957
57030W        W18451  39.975  44.404  12.002
57031W        W18452  34.548  20.058   3.644
57032W        W18453  21.684  23.722   1.710
57033W        W18454  39.913   1.853   0.921
57034W        W18455   3.793   0.257  13.834
57035W        W18456   4.412  35.546   1.359
57036W        W18457  40.512  30.968  14.377
57037W        W18458  32.949  18.765   0.831
57038W        W18459  38.045  22.596  10.133
57039W        W18460  27.948  40.947  13.921
57040W        W18461  32.549   1.329   2.810
57041W        W18462  31.131  30.493   0.295
57042W        W18463  27.692  26.998  10.439
57043W        W18464  22.227  21.637  11.427
57044W        W18465   7.876  33.883   3.355
57045W        W18466  11.234  28.592   2.843
57046W        W18467  39.541  44.009  13.020
57047W        W18468  23.001  11.808   3.653
57048W        W18469  18.649  23.204   3.848
57049W        W18470   9.747   9.166  14.319
57050W        W18471   5.715  38.340   2.691
57051W        W18472  34.976  43.784   4.335
57052W        W18473  24.512  39.443   2.713
57053W        W18474  14.242  17.193   0.411
57054W        W18475  11.696  22.597  10.569
57055W        W18476   1.441  21.128  13.309
57056W        W18477  22.720  27.583  14.882
57057W        W18478   3.715  43.495   3.636
57058W        W18479  40.032   0.983   3.255
57059W        W18480  44.990  20.271  13.062
57060W        W18481  23.041  39.352  11.442
57061W        W18482  41.006   4.425   3.644
57062W        W18483  31.426  20.212   2.382
57063W        W18484  38.837   4.264  12.510
57064W        W18485  36.411  29.046   1.409
57065W        W18486  11.789  18.129  10.130
57066W        W18487  25.643  21.183  12.827
57067W        W18488  34.978  35.960  10.953
57068W        W18489  40.041  30.424   2.353
57069W        W18490  21.701  44.971   3.864
57070W        W18491  22.554   0.957   3.250
57071W        W18492   1.933  34.114   4.303
57072W        W18493   6.250  24.116   2.410
57073W        W18494  18.148   0.791   1.719
57074W        W18495  34.605  39.856   0.319
57075W        W18496  44.373  18.730   2.411
57076W        W18497  33.453  14.124  13.370
57077W        W18498  27.006  37.020  13.468
57078W        W18499  18.086  26.067   3.698
57079W        W18500  18.237  38.886  13.506
57080W        W18501  12.773   2.231   1.363
57081W        W18502   5.828  27.004  12.463
57082W        W18503   6.702  33.887   4.257
57083W        W18504   3.234  22.046   2.704
57084W        W18505  10.828  28.602  14.992
57085W        W18506  33.986   1.464  13.996
57086W        W18507   6.922  43.462   4.149
57087W        W18508  26.594  24.205   2.259
57088W        W18509  32.032  31.141   2.814
57089W        W18510  20.106  31.015   2.238
57090W        W18511  15.190   5.912  14.939
57091W        W18512  21.525   5.222  13.463
57092W        W18513   6.354  19.249  12.526
57093W        W18514   8.775  15.135   1.378
57094W        W18515   3.940  34.903   4.217
57095W        W18516  38.986  34.885   1.807
57096W        W18517  27.104  25.161  12.475
57097W        W18518   6.209   9.210   4.606
57098W        W18519  26.068   7.710  10.637
57099W        W18520   9.182  24.217   1.214
57100W        W18521  11.705   3.436  13.497
57101W        W18522  22.202  38.453   1.762
57102W        W18523  24.535  29.928  13.456
57103W        W18524  38.944   9.673   4.221
57104W        W18525  22.598  11.193  10.044
57105W        W18526  30.643  18.721   1.217
57106W        W18527   2.811  30.413   2.881
57107W        W18528  19.110  19.671  13.518
57108W        W18529  41.866  34.909   2.291
57109W        W18530  36.491  38.933   2.739
57110W        W18531  42.888  17.564   0.443
57111W        W18532  33.382   9.794  14.988
57112W        W18533   1.752  37.498  13.993
57113W        W18534  38.857  34.485   2.809
57114W        W18535  36.584  11.781   4.788
57115W        W18536   2.798  44.481  10.924
57116W        W18537  14.304  13.148  12.403
57117W        W18538  41.916   4.205   1.814
57118W        W18539  42.843  39.481  14.014
57119W        W18540  37.928   6.210   4.296
57120W        W18541   7.709  17.633  10.993
57121W        W18542  23.544  10.724  14.907
57122W        W18543  13.633  32.468  13.545
57123W        W18544  33.409   5.776   4.802
57124W        W18545   5.880  35.889  12.003
57125W        W18546  29.132  26.103   2.285
57126W        W18547  31.448  32.623  10.897
57127W        W18548  23.041   6.184   2.791
57128W        W18549  35.503  22.713  11.399
57129W        W18550  36.401  35.056  12.422
57130W        W18551  32.600  27.972  11.515
57131W        W18552  10.381  39.947   5.085
57132W        W18553  43.849  15.593  14.326
57133W        W18554  23.092  11.815   3.341
57134W        W18555  39.912  19.202  10.645
57135W        W18556  28.436  23.135  14.425
57136W        W18557   5.930  37.490  12.427
57137W        W18558  15.729   7.887   1.832
57138W        W18559  14.652   7.695   4.758
57139W        W18560  30.024  23.067   4.742
57140W        W18561   8.813   5.720  10.094
57141W        W18562  42.833  10.200  14.374
57142W        W18563  42.794  26.594   3.280
57143W        W18564   8.226  30.576   3.386
57144W        W18565  22.599  31.606   3.762
57145W        W18566  41.408   6.733   4.155
57146W        W18567  32.609  38.069  11.884
57147W        W18568  24.538  15.620  14.779
57148W        W18569  32.936  21.052  10.997
57149W        W18570   6.768  43.435  14.790
57150W        W18571  42.282  44.922   1.896
57151W        W18572   8.655  18.178   3.846
57152W        W18573   3.444  29.113  14.323
57153W        W18574   1.393  42.845  14.515
57154W        W18575   4.257  33.881   4.300
57155W        W18576  22.539   5.200   2.248
57156W        W18577  40.512   7.860  13.977
57157W        W18578   2.843  14.231   1.284
57158W        W18579  27.546  34.377  12.400
57159W        W18580   7.801  12.203  13.830
57160W        W18581  27.005  28.633  13.854
57161W        W18582   7.187  41.517  12.415
57162W        W18583  33.602  11.315  11.901
57163W        W18584  35.402  24.517   3.324
57164W        W18585  44.325  22.097  12.873
57165W        W18586  25.195  22.024  14.843
57166W        W18587  28.569  43.768  13.326
57167W        W18588  23.075  12.282   1.805
57168W        W18589   0.920  17.642   3.146
57169W        W18590  38.389  23.659  12.988
57170W        W18591  25.694  35.852  10.467
57171W        W18592  43.274   5.222   3.195
57172W        W18593  31.568  26.633  12.047
57173W        W18594  36.894  12.225   9.635
57174W        W18595   7.815  38.950  11.888
57175W        W18596  35.890   7.761   2.189
57176W        W18597   6.741  39.031   2.294
57177W        W18598  23.563  15.127   4.747
57178W        W18599  16.098   7.270   4.136
57179W        W18600  33.552  22.593   5.102
57180W        W18601  13.331  18.736   5.097
57181W        W18602  15.130  31.053   1.838
57182W        W18603  12.733  26.659   1.398
57183W        W18604  22.186   2.453   2.386
57184W        W18605  14.643   4.251   3.669
57185W        W18606  37.344   9.358  11.561
57186W        W18607   5.840  11.641   0.863
57187W        W18608  42.398  11.274   2.326
57188W        W18609  20.613  44.376  10.963
57189W        W18610  15.658  37.855  13.848
57190W        W18611  12.144  29.066  11.508
57191W        W18612  33.077  40.361  10.433
57192W        W18613  42.288  36.077  13.467
57193W        W18614  35.897   4.223   1.379
57194W        W18615   5.403  12.172  14.025
57195W        W18616  25.519   9.885   2.727
57196W        W18617  31.607  42.927  11.580
57197W        W18618  15.772  25.054   2.729
57198W        W18619  20.139  24.160  11.887
57199W        W18620  20.256  19.086  11.588
57200W        W18621  30.623  10.209   1.885
57201W        W18622  36.509  37.358  14.322
57202W        W18623  39.319  10.292  11.412
57203W        W18624  32.954  35.853  14.385
57204W        W18625   3.443  29.426   4.245
57205W        W18626  40.365  17.768   1.935
57206W        W18627  24.501  28.485   1.815
57207W        W18628  39.391   4.860   2.364
57208W        W18629  19.045   9.190   3.783
57209W        W18630  42.941  10.870   2.299
57210W        W18631  44.333   4.225  12.386
57211W        W18632  22.129  25.527   4.732
57212W        W18633  15.312  38.871  10.582
57213W        W18634  13.190   7.706  14.334
57214W        W18635  23.165   2.288   4.169
57215W        W18636   4.351   9.856   4.159
57216W        W18637  29.446   8.359  11.376
57217W        W18638  22.634  44.956  11.052
57218W        W18639  39.326  26.658  12.488
57219W        W18640  13.647  24.103   4.657
57220W        W18641  32.502   1.309   4.210
57221W        W18642   1.817   9.149   4.330
57222W        W18643  11.230  12.834   0.341
57223W        W18644  12.220  16.569   4.117
57224W        W18645  27.067  35.926   2.274
57225W        W18646  27.943  40.325   0.766
57226W        W18647  22.114  27.604   2.812
57227W        W18648  44.391  29.502  12.508
57228W        W18649  10.344  40.545   1.402
57229W        W18650  18.290  42.465   0.855
57230W        W18651   7.820  26.633   3.268
57231W        W18652  11.328  19.280  10.972
57232W        W18653  31.988  17.290  14.934
57233W        W18654   5.756  26.131   3.694
57234W        W18655  23.149  44.320  14.987
57235W        W18656  41.803  12.245  12.988
57236W        W18657   6.418  38.034   4.633
57237W        W18658  33.569   0.356   3.780
57238W        W18659  22.215  16.169  13.940
57239W        W18660  32.993  35.577   4.809
57240W        W18661  30.010   4.314  12.891
57241W        W18662  18.257  25.562  13.470
57242W        W18663  26.197  31.003  12.967
57243W        W18664  29.027  36.391   3.206
57244W        W18665  19.118  15.160  11.533
57245W        W18666  29.098  21.264   4.804
57246W        W18667   2.759  15.217   4.684
57247W        W18668  32.137  27.101  11.444
57248W        W18669   3.857  25.484   3.738
57249W        W18670  12.785   8.758  12.412
57250W        W18671  34.983  33.034   0.258
57251W        W18672   1.328  30.105   2.326
57252W        W18673   3.286  14.218   4.838
57253W        W18674  20.238  25.677   0.757
57254W        W18675  25.638   6.868   2.674
57255W        W18676  20.225  31.493  14.308
57256W        W18677  28.017  21.227  11.525
57257W        W18678  14.599  26.641   0.343
57258W        W18679   8.847   6.719   2.665
57259W        W18680  42.383   0.947   0.319
57260W        W18681   2.902  12.149  11.484
57261W        W18682  35.530  13.843   1.859
57262W        W18683  15.213   5.727  14.503
57263W        W18684  43.340   5.214  11.537
57264W        W18685   7.832  19.268   4.738
57265W        W18686   0.368   3.285   5.152
57266W        W18687  35.454  22.178   1.918
57267W        W18688   9.333  38.416  11.385
57268W        W18689   2.262  20.223   1.320
57269W        W18690  14.660   6.241  13.866
57270W        W18691  10.263   3.239  10.406
57271W        W18692  44.972   4.233   4.712
57272W        W18693  23.045  28.618  10.581
57273W        W18694   6.306   4.307   4.169
57274W        W18695  38.853  41.881  13.930
57275W        W18696  15.631  31.622  14.826
57276W        W18697   2.797  39.481  14.346
57277W        W18698  32.501   2.887  13.372
57278W        W18699  13.294  38.005  12.364
57279W        W18700   9.847  15.754  14.469
57280W        W18701   7.414   5.198   4.597
57281W        W18702  30.046  41.508  12.374
57282W        W18703  21.580  16.804  14.780
57283W        W18704  31.029  15.112   1.424
57284W        W18705  23.061   0.279   0.804
57285W        W18706  41.886  28.474  14.281
57286W        W18707   8.345  41.422  14.380
57287W        W18708  30.557  40.053  10.515
57288W        W18709  39.984   0.297  13.832
57289W        W18710  20.629  28.069   4.692
57290W        W18711  24.079  34.022  14.460
57291W        W18712  39.350  26.597  13.363
57292W        W18713  30.047  40.398   0.418
57293W        W18714  27.177  27.512  13.965
57294W        W18715  18.168  11.825  11.465
57295W        W18716  20.059   6.424   2.304
57296W        W18717   2.428  36.565  11.994
57297W        W18718  23.066  16.229   0.382
57298W        W18719   0.309  43.507  11.425
57299W        W18720   4.872  41.978  14.401
57300W        W18721  38.437  12.810  13.427
57301W        W18722  25.167  38.903  14.432
57302W        W18723  42.844  13.651   4.696
57303W        W18724  34.046  33.467   0.747
57304W        W18725   8.753   2.269   3.342
57305W        W18726  27.001  22.086   3.649
57306W        W18727   7.701  41.380  12.373
57307W        W18728  19.568  32.630  12.475
57308W        W18729   6.891   9.167  14.920
57309W        W18730  21.061  38.550   3.190
57310W        W18731  20.162  42.806   1.228
57311W        W18732   1.323   9.256   4.215
57312W        W18733   7.665  32.625   4.753
57313W        W18734  35.053  31.078  12.349
57314W        W18735   9.185   6.229  10.453
57315W        W18736  29.120  16.195   4.258
57316W        W18737  36.992  13.119   4.267
57317W        W18738  35.915   4.350   3.681
57318W        W18739  17.183   9.286   3.290
57319W        W18740  28.469  31.603  11.955
57320W        W18741   3.306  39.502  12.405
57321W        W18742  41.311  39.884   1.225
57322W        W18743  21.641  12.248  10.632
57323W        W18744  29.149  10.140   3.311
57324W        W18745   8.209  15.659   1.874
57325W        W18746  16.801  19.648  14.844
57326W        W18747  36.066  14.751   4.638
57327W        W18748   3.362  19.681  12.082
57328W        W18749  22.724  10.296   0.460
57329W        W18750  31.464  10.362  14.017
57330W        W18751  25.996   2.429   4.161
57331W        W18752  24.984  34.590   4.765
57332W        W18753  40.901   9.225  12.916
57333W        W18754  27.082   7.855   0.857
57334W        W18755   9.874  15.782   4.277
57335W        W18756  23.577   4.265  14.458
57336W        W18757  10.267  37.946   0.804
57337W        W18758  29.631   5.432  14.832
57338W        W18759  42.780   1.397  11.075
57339W        W18760  19.709   2.372   3.203
57340W        W18761  19.158  33.981  13.407
57341W        W18762  16.750  41.461  11.041
57342W        W18763   0.344   1.328  13.817
57343W        W18764  25.090  37.888   1.432
57344W        W18765  20.211   2.860  14.915
57345W        W18766   2.461   6.689   1.761
57346W        W18767  31.549  33.008  10.433
57347W        W18768  32.410   1.305  11.102
57348W        W18769  24.059  18.644  11.103
57349W        W18770  16.127  12.787  14.821
57350W        W18771  40.481  10.237   4.185
57351W        W18772  14.706  43.816   4.684
57352W        W18773  34.533  23.078   3.221
57353W        W18774  42.300  42.910  10.950
57354W        W18775   6.212   3.808  13.984
57355W        W18776  31.007   4.758  12.927
57356W        W18777  12.773   6.774  12.416
57357W        W18778  27.580  10.843   3.813
57358W        W18779   4.375  23.714  14.883
57359W        W18780  34.480   5.329   0.849
57360W        W18781  12.760   2.237  12.483
57361W        W18782  20.535  20.084   1.319
57362W        W18783  37.426  31.057   0.437
57363W        W18784   5.737   0.419  13.870
57364W        W18785  44.780  22.525   2.668
57365W        W18786  16.756  25.694   4.692
57366W        W18787  16.104  36.421  10.491
57367W        W18788   8.279  33.020   1.384
57368W        W18789  40.988  42.361  13.324
57369W        W18790  27.500  31.928  11.448
57370W        W18791   5.301  32.983   3.658
57371W        W18792  20.059  18.235   4.124
57372W        W18793   5.726   1.913   0.854
57373W        W18794  21.678  33.398   3.632
57374W        W18795  15.109  26.518  13.389
57375W        W18796  12.850  10.221   0.342
57376W        W18797   0.471  19.585   0.823
57377W        W18798  43.380  36.057   0.771
57378W        W18799   2.737  26.188  12.495
57379W        W18800   1.432  38.065  12.044
57380W        W18801   9.211  26.502  13.400
57381W        W18802  12.235  32.436  11.876
57382W        W18803  23.218  39.370  10.960
57383W        W18804  40.334   4.367   2.844
57384W        W18805  29.934   1.826  11.864
57385W        W18806  11.233   0.972  13.811
57386W        W18807  13.119  31.909   2.870
57387W        W18808  13.341  44.838  14.019
57388W        W18809  38.444  41.823  10.450
57389W        W18810  21.551  41.840  12.532
57390W        W18811  22.222  30.961  14.872
57391W        W18812  12.280  44.837   1.814
57392W        W18813   0.249   9.786   3.686
57393W        W18814  27.987   7.836  10.624
57394W        W18815  40.476  41.491  11.385
57395W        W18816  10.284  43.960   4.316
57396W        W18817  19.152   1.971  12.069
57397W        W18818  16.162  27.516  13.858
57398W        W18819  28.517  36.496   4.224
57399W        W18820   1.434  24.500   9.640
57400W        W18821  37.427  17.649   2.721
57401W        W18822   1.944  30.648  10.144
57402W        W18823   3.425  16.772  13.924
57403W        W18824  18.222  11.207  13.405
57404W        W18825  17.558  44.950   3.360
57405W        W18826  40.502  40.007  13.919
57406W        W18827  19.094   4.779   2.207
57407W        W18828  30.451  17.266  12.848
57408W        W18829  21.026  36.098   0.280
57409W        W18830   8.403   4.217   4.620
57410W        W18831  38.028   9.784  14.845
57411W        W18832  29.546  33.007  12.963
57412W        W18833  10.301  42.916   1.412
57413W        W18834   1.464  28.142  14.963
57414W        W18835   8.713  21.051   1.881
57415W        W18836   8.818  11.862  12.014
57416W        W18837   9.265   8.170   2.674
57417W        W18838  41.409   0.424  11.507
57418W        W18839  26.660  22.036   4.696
57419W        W18840   5.873  22.145  12.423
57420W        W18841  39.465  19.646   0.437
57421W        W18842  26.669  44.332  13.537
57422W        W18843  27.561  11.860   2.201
57423W        W18844  19.230  31.947   4.248
57424W        W18845  18.555  13.636   4.127
57425W        W18846  36.851  11.152  11.585
57426W        W18847  42.493  22.546   0.894
57427W        W18848  42.507  17.190   3.851
57428W        W18849  18.127  13.177  12.537
57429W        W18850   8.818  22.588   3.228
57430W        W18851   9.230  26.692  11.016
57431W        W18852  35.891  19.158  13.027
57432W        W18853  31.529  17.260  11.580
57433W        W18854   5.909  44.814  11.529
57434W        W18855  21.593  43.857  12.075
57435W        W18856  42.408  36.906  10.506
57436W        W18857   6.410  15.296  11.379
57437W        W18858   1.402  23.985   1.379
57438W        W18859  21.512  36.088   3.262
57439W        W18860   5.220  31.011   2.836
57440W        W18861  30.413  23.014  13.826
57441W        W18862  37.876  32.896   2.805
57442W        W18863  19.728  23.550   0.391
57443W        W18864  19.143  43.425  13.961
57444W        W18865   2.437   7.748   2.856
57445W        W18866   8.172  15.698   3.732
57446W        W18867   8.280   9.686   0.909
57447W        W18868  24.227   9.888   4.710
57448W        W18869  36.396  18.284   0.838
57449W        W18870  17.667  37.518   1.763
57450W        W18871   2.399  26.583  11.516
57451W        W18872  26.150  35.896   0.900
57452W        W18873   6.187  36.002   5.120
57453W        W18874  38.973  11.702  13.326
57454W        W18875  12.358  41.374  12.957
57455W        W18876  16.261  25.213  14.942
57456W        W18877  14.640  44.459  13.937
57457W        W18878  10.717  23.222  14.483
57458W        W18879  39.061   6.334   5.249
57459W        W18880  34.439  18.706  12.434
57460W        W18881  21.101  27.638  11.865
57461W        W18882  27.011   4.882   1.447
57462W        W18883   6.280  38.969   1.847
57463W        W18884   6.352  12.305   0.835
57464W        W18885   9.374  28.641   1.344
57465W        W18886  33.894   6.378  14.374
57466W        W18887  41.370  23.711   3.317
57467W        W18888  37.415  21.258   0.425
57468W        W18889  18.586  36.921   1.850
57469W        W18890   8.213  25.152   2.273
57470W        W18891  19.610  25.135  12.835
57471W        W18892  30.500  33.940   0.312
57472W        W18893  16.276  40.868  10.508
57473W        W18894  36.000  29.981   4.159
57474W        W18895  42.965  29.059  11.549
57475W        W18896   6.684   4.895  13.039
57476W        W18897  34.067  15.157  10.945
57477W        W18898   9.858   9.783   1.777
57478W        W18899  25.965  16.115  11.892
57479W        W18900  39.825  34.120   2.892
57480W        W18901  42.957  14.227   4.664
57481W        W18902  26.142  21.663   0.352
57482W        W18903   1.745   5.377  11.563
57483W        W18904   2.283  21.124  14.774
57484W        W18905  15.733  42.308  14.371
57485W        W18906  22.565   7.356  11.045
57486W        W18907   7.743  13.664   4.166
57487W        W18908  22.619  24.686   1.284
57488W        W18909  13.142  10.275   0.888
57489W        W18910  20.724  17.194   3.651
57490W        W18911  39.542  21.690   1.380
57491W        W18912  41.895  21.571  11.022
57492W        W18913  27.176   8.676  14.433
57493W        W18914  15.255  31.906  10.151
57494W        W18915  33.431  13.631   4.252
57495W        W18916  30.117  12.823  11.532
57496W        W18917  24.201  13.816   4.222
57497W        W18918   2.848   8.282   3.346
57498W        W18919  37.973  12.634   0.301
57499W        W18920  23.526  24.493  10.574
57500W        W18921  34.407  26.586   2.862
57501W        W18922  38.491  34.459  13.839
57502W        W18923  19.578  16.172   4.831
57503W        W18924   4.330  23.693   3.271
57504W        W18925  27.119   9.780  14.835
57505W        W18926  42.527  42.006   4.306
57506W        W18927  14.834   5.742   2.219
57507W        W18928  32.909  21.241   2.815
57508W        W18929  17.083   8.222   0.355
57509W        W18930   0.843  21.024   3.249
57510W        W18931  19.106  10.814   4.189
57511W        W18932  31.008  40.020   1.379
57512W        W18933   2.415  26.618  10.896
57513W        W18934  37.958  32.906  11.978
57514W        W18935  42.001  32.135   4.802
57515W        W18936  41.034  36.875   1.431
57516W        W18937  35.398  17.254   4.641
57517W        W18938  37.914   8.846   2.184
57518W        W18939  40.967  44.324  13.548
57519W        W18940   2.790  24.504   0.831
57520W        W18941  18.092  39.949  11.564
57521W        W18942  35.479  39.962  13.043
57522W        W18943  41.811  12.715   3.287
57523W        W18944  11.799   1.274   0.427
57524W        W18945   8.705  42.936  12.362
57525W        W18946  12.810  42.899  11.055
57526W        W18947  23.235  43.929  11.905
57527W        W18948  19.259  11.667  13.422
57528W        W18949  14.742  36.494   2.696
57529W        W18950  20.735  26.476   4.749
57530W        W18951  44.839  11.657  14.825
57531W        W18952  19.238  41.873   1.352
57532W        W18953  44.822   2.358   3.789
57533W        W18954  44.870   2.824   2.199
57534W        W18955  31.520  29.952   3.839
57535W        W18956  42.369  33.525   2.250
57536W        W18957   5.197  33.382  12.405
57537W        W18958  28.019  12.851   4.123
57538W        W18959  17.280  17.699  12.859
57539W        W18960   3.280   3.425  12.459
57540W        W18961  44.904  39.519  12.998
57541W        W18962   5.209  23.107  13.405
57542W        W18963  14.615  24.691  14.873
57543W        W18964  27.948   9.761  10.565
57544W        W18965  41.321  44.812  11.540
57545W        W18966  11.761   2.452   3.810
57546W        W18967  44.834  33.491   3.747
57547W        W18968  34.443  39.452  14.897
57548W        W18969  28.185   3.250   3.234
57549W        W18970  26.106  30.061  11.566
57550W        W18971  26.110  18.590   2.225
57551W        W18972  33.115  20.106  11.471
57552W        W18973  39.808   1.369  11.118
57553W        W18974   0.942  24.637   3.327
57554W        W18975  13.281  15.119   4.258
57555W        W18976  31.471  42.001   2.857
57556W        W18977  27.045  20.145   0.742
57557W        W18978   5.279  40.020   4.724
57558W        W18979   0.310  23.541   0.398
57559W        W18980  24.113  31.992   3.228
57560W        W18981  21.534   9.669  13.016
57561W        W18982   2.397  30.513  12.097
57562W        W18983   5.243  20.557   2.737
57563W        W18984  20.146  26.469   2.707
57564W        W18985  34.519   3.942  10.938
57565W        W18986  28.444  20.263  13.511
57566W        W18987  24.698  39.474   1.825
57567W        W18988  29.931   5.693  11.594
57568W        W18989  34.071   0.388  13.861
57569W        W18990  21.190  15.289  13.459
57570W        W18991  34.555   8.792   3.369
57571W        W18992  42.985  36.841  13.435
57572W        W18993  28.639   8.206  12.364
57573W        W18994  27.616  17.126   4.182
57574W        W18995  30.989  16.639  10.430
57575W        W18996   7.726   4.388   0.855
57576W        W18997  40.880  29.495  11.056
57577W        W18998  25.055  29.160  14.276
57578W        W18999  12.157  36.372  12.465
57579W        W19000  22.078  25.604   0.809
57580W        W19001  19.758  36.060  13.045
57581W        W19002  34.917  41.941  12.558
57582W        W19003  34.901  39.525   4.632
57583W        W19004  38.479   5.903   0.736
57584W        W19005   8.841   6.922  11.510
57585W        W19006  37.863   4.316   2.184
57586W        W19007  17.750  29.961  14.023
57587W        W19008  12.826  23.039   3.862
57588W        W19009   4.428  26.036   1.735
57589W        W19010  26.468  21.026   3.653
57590W        W19011  30.151  15.715  10.104
57591W        W19012  20.637  21.190   3.326
57592W        W19013  25.014  33.390  11.921
57593W        W19014  14.193  27.686  13.839
57594W        W19015  13.148   7.409   0.412
57595W        W19016   4.705  36.070   4.210
57596W        W19017  14.144   5.848  14.503
57597W        W19018  36.501  17.152   2.260
57598W        W19019  34.996   7.299  12.475
57599W        W19020   8.871  18.286   1.284
57600W        W19021  21.147  32.059  10.450
57601W        W19022  15.785  32.516  13.345
57602W        W19023  31.426  39.001   1.747
57603W        W19024  24.079  37.957  11.962
57604W        W19025  25.637  16.677   3.330
57605W        W19026  33.594  17.612   2.393
57606W        W19027  35.990  18.613  12.004
57607W        W19028   6.244  36.924   2.705
57608W        W19029  27.522  41.991   4.813
57609W        W19030   8.859  16.687  12.459
57610W        W19031  34.546  23.111   2.202
57611W        W19032  36.976  42.973  12.905
57612W        W19033   0.490  43.845  13.331
57613W        W19034   7.223   8.321   0.875
57614W        W19035  28.128  37.354  10.536
57615W        W19036  12.689  33.058   2.275
57616W        W19037  25.073  25.590  13.914
57617W        W19038  43.785  33.441  11.068
57618W        W19039  15.810  20.179  11.006
57619W        W19040  26.695   6.687  14.995
57620W        W19041  18.594  31.571  10.419
57621W        W19042   8.866  28.669  14.448
57622W        W19043  16.125  27.510  13.442
57623W        W19044  39.999  38.571   4.251
57624W        W19045  44.353   1.269  13.838
57625W        W19046  18.611  24.993  11.910
57626W        W19047  39.022   5.739  11.411
57627W        W19048  42.318  10.699   2.242
57628W        W19049  33.965  25.486  13.888
57629W        W19050  41.787  25.569   0.321
57630W        W19051   2.943   5.359   2.261
57631W        W19052  12.294   4.708  13.445
57632W        W19053  22.735  13.146  11.458
57633W        W19054  40.801  22.666   4.813
57634W        W19055  13.346  24.204  14.512
57635W        W19056  21.647  41.967   1.831
57636W        W19057  24.220  29.075   4.663
57637W        W19058   8.731  33.430   4.619
57638W        W19059  26.671   8.771   2.791
57639W        W19060  35.925  18.112  11.469
57640W        W19061  19.558  43.443   2.239
57641W        W19062  33.384  12.278   3.364
57642W        W19063  22.207  39.553   2.773
57643W        W19064  43.367  33.878   1.722
57644W        W19065   5.704  14.188   3.303
57645W        W19066  26.016  16.747  12.022
57646W        W19067  13.763  29.951  14.463
57647W        W19068  29.586   1.398   2.361
57648W        W19069  27.623  17.090   3.741
57649W        W19070  23.047  32.941   2.770
57650W        W19071  34.585  13.677   3.189
57651W        W19072  30.585  25.010  13.436
57652W        W19073  38.397  19.668   4.697
57653W        W19074   7.765  25.115  10.470
57654W        W19075   4.370  22.554  10.107
57655W        W19076  20.655  10.338  10.091
57656W        W19077  31.986   2.723   3.669
57657W        W19078  32.613  35.501  14.488
57658W        W19079  39.329  38.384  14.911
57659W        W19080  40.917   4.698   4.187
57660W        W19081  34.893  43.270   1.723
57661W        W19082  25.178  16.122   3.708
57662W        W19083   0.768   2.785   3.785
57663W        W19084  14.262  14.819  11.945
57664W        W19085  10.245  43.360   1.377
57665W        W19086  10.243  36.938  13.899
57666W        W19087   2.347  40.905   3.670
57667W        W19088   6.311  33.986  14.927
57668W        W19089   0.450   6.262   1.698
57669W        W19090  29.140  24.634   3.671
57670W        W19091  35.920  19.143  11.544
57671W        W19092  17.562  44.452   3.367
57672W        W19093  13.286  13.741  11.908
57673W        W19094  42.815  25.017   3.314
57674W        W19095  19.572  40.902  13.044
57675W        W19096  26.983  42.339   4.636
57676W        W19097  36.520   5.276  12.383
57677W        W19098  36.472  26.498  14.318
57678W        W19099  36.382  19.708  12.355
57679W        W19100   3.928   2.867  13.982
57680W        W19101  33.941  16.101  13.893
57681W        W19102   3.386  42.996   3.271
57682W        W19103   3.728  32.919  13.388
57683W        W19104   3.220  14.786  10.591
57684W        W19105  44.765  17.787  13.975
57685W        W19106  17.073  29.169  14.894
57686W        W19107  26.638  41.470   4.117
57687W        W19108  42.905   0.809   4.754
57688W        W19109   6.274   1.380   0.951
57689W        W19110  39.915  33.106  14.799
57690W        W19111   8.308  37.060  13.386
57691W        W19112  20.163   6.358   2.721
57692W        W19113  42.288   5.336  12.011
57693W        W19114   6.381  25.159   3.760
57694W        W19115  27.146   9.768   1.424
57695W        W19116  15.253  33.104  11.056
57696W        W19117  30.003   0.378   3.711
57697W        W19118  33.967  16.624   2.739
57698W        W19119  43.918   7.247  14.425
57699W        W19120  39.022  40.881  13.352
57700W        W19121  32.988  25.978   1.803
57701W        W19122   9.698  22.038  10.936
57702W        W19123  27.090  27.122   0.265
57703W        W19124  11.681   5.847   3.862
57704W        W19125  36.470  19.284   2.774
57705W        W19126  39.033  41.018   3.831
57706W        W19127  41.460  37.924   3.346
57707W        W19128  13.236  40.478  12.090
57708W        W19129   5.432  39.980   3.226
57709W        W19130  31.957   2.454  10.049
57710W        W19131  24.682  38.536  13.332
57711W        W19132  32.434   1.321  13.981
57712W        W19133  30.045   7.233   2.283
57713W        W19134  23.674   6.908   1.301
57714W        W19135   6.863   9.660  13.821
57715W        W19136  44.844  14.733  14.459
57716W        W19137  44.373   6.811  11.905
57717W        W19138   0.896  29.434   2.757
57718W        W19139   7.890   5.304   3.838
57719W        W19140  22.109  32.515  12.359
57720W        W19141  10.864  15.184   4.779
57721W        W19142  25.569  12.177  13.947
57722W        W19143  13.736   6.279  13.856
57723W        W19144  30.646  41.407  14.798
57724W        W19145   4.907  41.439   3.707
57725W        W19146  14.231   5.300   0.958
57726W        W19147  37.401  44.408   4.278
57727W        W19148   0.462   7.386   4.745
57728W        W19149  22.040  41.932  13.439
57729W        W19150  21.719  19.240  10.437
57730W        W19151  39.392   8.721   4.337
57731W        W19152  23.537   7.766  11.488
57732W        W19153   2.873   4.742  13.314
57733W        W19154  12.731  24.995   2.888
57734W        W19155  23.068  12.254  11.470
57735W        W19156  34.911  11.353   0.360
57736W        W19157  17.633  31.617   4.252
57737W        W19158   2.805   4.902  12.433
57738W        W19159  15.211  13.276   1.884
57739W        W19160  36.982  42.464  12.386
57740W        W19161  11.714  15.088   2.356
57741W        W19162  35.109  39.457   2.230
57742W        W19163  24.127  29.606   5.155
57743W        W19164   2.379  17.072   0.748
57744W        W19165  36.479  38.008  13.044
57745W        W19166  41.955   6.864   3.188
57746W        W19167   6.888  22.138   2.345
57747W        W19168  32.513  24.617  14.959
57748W        W19169  39.937   5.260  13.910
57749W        W19170   1.262  34.583  10.897
57750W        W19171  26.060  26.180   2.316
57751W        W19172  17.166   6.246   0.778
57752W        W19173  18.576   6.227   0.483
57753W        W19174  31.152  28.556   2.368
57754W        W19175   4.358  23.511   4.234
57755W        W19176   2.296  29.157   0.443
57756W        W19177  43.405  44.493   0.378
57757W        W19178  22.082  40.933   0.948
57758W        W19179  33.608   0.365  13.987
57759W        W19180  41.021   6.287   4.200
57760W        W19181  12.804  32.490   3.262
57761W        W19182  17.154  23.655  14.838
57762W        W19183  27.527  34.495   1.414
57763W        W19184  25.055  24.490   0.755
57764W        W19185   5.290  40.908  11.961
57765W        W19186  43.503  15.110  12.983
57766W        W19187  24.992  11.695  12.045
57767W        W19188  31.535  31.583   3.168
57768W        W19189  43.483   9.666   2.718
57769W        W19190  11.281  25.097  13.404
57770W        W19191  16.607  16.632   4.129
57771W        W19192  11.770  34.999   1.365
57772W        W19193  39.314  27.161  11.474
57773W        W19194   9.204   8.254   2.355
57774W        W19195  14.300  19.545   4.617
57775W        W19196   0.487  28.493  14.984
57776W        W19197  41.924  38.338   4.238
57777W        W19198  26.061   1.896  14.791
57778W        W19199   0.854  38.058  12.346
57779W        W19200   6.325  27.984  13.521
57780W        W19201  30.475   2.804  14.481
57781W        W19202  20.664  44.426   2.714
57782W        W19203   2.231  24.484  14.952
57783W        W19204  10.830   9.315   1.221
57784W        W19205  15.315  40.898  13.796
57785W        W19206  34.084  40.019  14.848
57786W        W19207  16.077  21.648  12.409
57787W        W19208  25.600  10.236   3.228
57788W        W19209  21.060  44.317  12.403
57789W        W19210  11.839  26.023  10.916
57790W        W19211  44.805  43.296  13.547
57791W        W19212  25.620  21.749  11.106
57792W        W19213  43.854   1.482   3.363
57793W        W19214  23.068  42.822   0.364
57794W        W19215  16.277  31.118  13.990
57795W        W19216  38.854   4.908  12.390
57796W        W19217  41.971   7.368  14.321
57797W        W19218  25.171   1.738  10.970
57798W        W19219  24.556  38.502   0.949
57799W        W19220  11.229  39.065  11.397
57800W        W19221  25.026  41.477  10.911
57801W        W19222  27.092  14.144   2.277
57802W        W19223  18.252  36.865   2.832
57803W        W19224  20.162  25.569   4.229
57804W        W19225   6.898  13.807  13.818
57805W        W19226  12.706  22.042   1.370
57806W        W19227  26.119  38.368  11.467
57807W        W19228  26.532   2.918   4.640
57808W        W19229  13.193   5.879   2.405
57809W        W19230   0.888  27.565   2.218
57810W        W19231  13.273  38.943  10.965
57811W        W19232  32.899  22.056   4.646
57812W        W19233  28.182  19.715   2.231
57813W        W19234  11.786  39.966   4.611
57814W        W19235  39.380  24.521  12.916
57815W        W19236  34.870  21.536  13.847
57816W        W19237  15.654  41.462   0.250
57817W        W19238  19.210  18.175  11.603
57818W        W19239  12.348   6.304   4.179
57819W        W19240  34.930  18.124  10.912
57820W        W19241  37.932  43.322  13.410
57821W        W19242  37.958   6.266   2.265
57822W        W19243   2.468  18.286  14.805
57823W        W19244  19.654   9.383  12.073
57824W        W19245   1.843  42.295   3.846
57825W        W19246  38.867   4.406   9.944
57826W        W19247  22.247  37.983  11.403
57827W        W19248  42.983  22.534  10.962
57828W        W19249   9.708   4.447  11.997
57829W        W19250   0.383   8.296   0.908
57830W        W19251  41.536  43.346   4.818
57831W        W19252   2.829  33.970   5.298
57832W        W19253  29.985  29.927   1.383
57833W        W19254  39.435  23.508   2.852
57834W        W19255  26.183  28.036   0.381
57835W        W19256  15.270   0.296   3.267
57836W        W19257  20.098  20.555   4.736
57837W        W19258  31.595  29.559   2.849
57838W        W19259  29.139  34.073   1.882
57839W        W19260  19.610  40.335   4.716
57840W        W19261  10.820  42.849   3.638
57841W        W19262   3.301  27.595   0.382
57842W        W19263  19.765   0.889  13.942
57843W        W19264  43.003  10.662   1.815
57844W        W19265  42.003  14.757   4.674
57845W        W19266  41.468   9.889  13.490
57846W        W19267   8.800  26.539  12.959
57847W        W19268  20.557  28.618   4.653
57848W        W19269  10.240  44.857   1.803
57849W        W19270   9.834  31.461  13.838
57850W        W19271   1.832   2.272  11.379
57851W        W19272  30.140  18.115   2.416
57852W        W19273  42.917  43.811  13.896
57853W        W19274  27.116  11.840  11.908
57854W        W19275  22.043  25.138  12.429
57855W        W19276  36.558  23.107  11.993
57856W        W19277  27.528  20.267   0.918
57857W        W19278   0.930  33.109   2.204
57858W        W19279  40.473  12.262  14.390
57859W        W19280   1.243  21.716   0.419
57860W        W19281  32.499  32.415   2.897
57861W        W19282   1.918   8.355   1.736
57862W        W19283  14.288  20.083  12.845
57863W        W19284   8.197   5.916   0.303
57864W        W19285  31.084  11.308   5.759
57865W        W19286  16.144  35.509  11.968
57866W        W19287  18.616  25.601  14.807
57867W        W19288  14.662  42.363  14.470
57868W        W19289  24.606  17.075   3.864
57869W        W19290  33.055  18.778   2.281
57870W        W19291  29.094   9.186   3.794
57871W        W19292  38.930   5.293  12.090
57872W        W19293   7.390  16.296   2.745
57873W        W19294  29.566  43.913   2.365
57874W        W19295  22.151  35.518  13.874
57875W        W19296   8.685  14.170   1.827
57876W        W19297  44.326  39.029   0.797
57877W        W19298   4.363   8.308  13.502
57878W        W19299  44.869  28.575  11.580
57879W        W19300  32.467  11.864   0.940
57880W        W19301   9.235  28.461   4.344
57881W        W19302  25.653  29.476  13.847
57882W        W19303   1.909  42.019   0.331
57883W        W19304   4.399  26.186  13.853
57884W        W19305  17.712  27.943  11.603
57885W        W19306  11.131  20.134  14.327
57886W        W19307  14.754  43.912   3.717
57887W        W19308  42.998   8.670   3.353
57888W        W19309   9.151  14.218   5.147
57889W        W19310  38.875  39.892  12.973
57890W        W19311  29.115  15.211   2.372
57891W        W19312  15.589  11.682   0.851
57892W        W19313  34.024   0.284   3.807
57893W        W19314   2.397  21.609   2.335
57894W        W19315  22.521  24.058  13.375
57895W        W19316  31.123  30.139   3.260
57896W        W19317  44.342  17.271   2.664
57897W        W19318  39.000  19.104  13.508
57898W        W19319  20.591  26.968  12.890
57899W        W19320  28.020  42.902   4.704
57900W        W19321  25.152  44.462   0.824
57901W        W19322   3.942   5.352   1.305
57902W        W19323   2.831  38.972   0.455
57903W        W19324   7.278   9.234   2.411
57904W        W19325  19.045  37.050   3.240
57905W        W19326  26.204  12.190   0.761
57906W        W19327  32.471   5.785  12.864
57907W        W19328  27.692  16.689  12.452
57908W        W19329   2.884   8.344  11.426
57909W        W19330  19.637   1.958   0.950
57910W        W19331  10.819  44.400   9.962
57911W        W19332  20.060  27.623   2.269
57912W        W19333  11.179  28.601  11.464
57913W        W19334  42.999  23.993  11.088
57914W        W19335   6.402  35.567  10.545
57915W        W19336  15.189  36.051   3.161
57916W        W19337  26.497  31.108  10.600
57917W        W19338  11.798  44.903   3.642
57918W        W19339  32.532  19.261  11.037
57919W        W19340  10.747  19.666  12.452
57920W        W19341  38.960   1.428  11.561
57921W        W19342  13.187  39.838   2.675
57922W        W19343  13.831  20.529   1.314
57923W        W19344  17.669  20.625   3.801
57924W        W19345  11.222  27.108   3.205
57925W        W19346  24.546  17.120  10.601
57926W        W19347  24.535   3.280   2.413
57927W        W19348  12.304  21.182  11.459
57928W        W19349  26.635  40.925  14.435
57929W        W19350  26.554  44.792   2.373
57930W        W19351   4.341  42.800  14.375
57931W        W19352  31.124  29.650   4.207
57932W        W19353  16.729   9.255   2.336
57933W        W19354  44.418  22.738   2.837
57934W        W19355  43.455  30.534  14.342
57935W        W19356  44.940   7.221  12.533
57936W        W19357   2.966   1.849  12.032
57937W        W19358  39.538  12.675  13.396
57938W        W19359  43.286  15.141  14.021
57939W        W19360  25.642  14.727  10.972
57940W        W19361  33.958  10.348  13.528
57941W        W19362  26.578  10.721  10.944
57942W        W19363  39.916   6.183  14.771
57943W        W19364  39.369  41.992   0.330
57944W        W19365  31.983  15.808  12.427
57945W        W19366  23.643  26.146  10.641
57946W        W19367  27.657  38.907   4.829
57947W        W19368  35.996  21.247   2.384
57948W        W19369  12.177  13.306   4.180
57949W        W19370  27.112  42.812  14.493
57950W        W19371  18.189  30.010   2.252
57951W        W19372  36.522  11.339   9.942
57952W        W19373  30.958  27.034   3.813
57953W        W19374  36.413  20.755   1.358
57954W        W19375  39.519  16.154   4.193
57955W        W19376  17.109  35.476   1.894
57956W        W19377  16.690   7.235   0.409
57957W        W19378  38.351  24.541   3.731
57958W        W19379   3.389  15.242   1.299
57959W        W19380  17.742  32.621   2.888
57960W        W19381  32.085  30.523   2.851
57961W        W19382  21.059   6.865  13.429
57962W        W19383   9.688  40.872   0.945
57963W        W19384  33.105  11.274   0.887
57964W        W19385   8.191  40.004  10.606
57965W        W19386  37.024  39.891  10.413
57966W        W19387  36.897  20.238  12.481
57967W        W19388  31.486  27.501  11.081
57968W        W19389  32.007  26.536   3.659
57969W        W19390  34.045  41.903  11.107
57970W        W19391  41.960  19.211   1.853
57971W        W19392  17.110  19.565   2.871
57972W        W19393  40.901  31.045  12.524
57973W        W19394   5.761  10.688   0.936
57974W        W19395  28.039  22.184  14.949
57975W        W19396  38.413  26.623   0.831
57976W        W19397  16.164  25.187   1.715
57977W        W19398  11.368  40.507   1.354
57978W        W19399  18.150   0.934   2.314
57979W        W19400  18.273   5.394  10.935
57980W        W19401  34.016  11.277   3.236
57981W        W19402   4.221   7.389  10.947
57982W        W19403  15.703  17.644   4.778
57983W        W19404  10.844  23.029   0.746
57984W        W19405   6.920  35.092  11.953
57985W        W19406  17.272  11.835  14.925
57986W        W19407  29.480  37.981   1.211
57987W        W19408  17.740  16.633  11.091
57988W        W19409  16.126  33.957  10.922
57989W        W19410  10.192   5.360  13.363
57990W        W19411  33.063  12.818  11.543
57991W        W19412  25.617  13.824  14.909
57992W        W19413  14.614  29.614  11.431
57993W        W19414  20.057  26.194   0.350
57994W        W19415  13.601  18.664   3.362
57995W        W19416  43.329  24.159   0.741
57996W        W19417  34.601  25.115  10.620
57997W        W19418  31.146  19.692  11.403
57998W        W19419   1.450  39.466  11.372
57999W        W19420  40.409   8.656   4.231
58000W        W19421  41.401   7.360   4.616
58001W        W19422  17.125  33.451  10.567
58002W        W19423  11.650  15.187  14.275
58003W        W19424  39.986  40.963   3.722
58004W        W19425   2.243  14.149   9.971
58005W        W19426  30.659  33.384   3.651
58006W        W19427  26.014  43.276   1.702
58007W        W19428   5.291  39.377  10.506
58008W        W19429  36.518  39.932   2.813
58009W        W19430  39.035   0.492  13.874
58010W        W19431   1.780  42.889  11.539
58011W        W19432  28.559  30.442  14.774
58012W        W19433  13.220  10.249   4.163
58013W        W19434   5.906   8.805  12.377
58014W        W19435   7.781  32.087   4.204
58015W        W19436  37.059  12.351  14.356
58016W        W19437   5.691  40.892   4.143
58017W        W19438  23.558   6.328  13.042
58018W        W19439  29.630  13.253   3.313
58019W        W19440  43.303  18.737  12.508
58020W        W19441  33.948  37.054   4.246
58021W        W19442   1.800  43.996  11.595
58022W        W19443  30.418   5.732  11.036
58023W        W19444  18.221   3.245   4.284
58024W        W19445  14.094  26.557  13.436
58025W        W19446   5.341  21.594  12.497
58026W        W19447  21.193  36.856   1.327
58027W        W19448  18.710  31.898  13.019
58028W        W19449   7.903  13.294  14.822
58029W        W19450  14.777  21.148   1.317
58030W        W19451   8.842  29.581   3.184
58031W        W19452  22.746   5.398   4.279
58032W        W19453  14.183  17.163   3.277
58033W        W19454  10.268  20.661   5.317
58034W        W19455  42.976  37.005  13.900
58035W        W19456  16.755  22.643  13.917
58036W        W19457  17.682  18.053   0.266
58037W        W19458  35.036  40.544  12.841
58038W        W19459  19.659  15.667   1.876
58039W        W19460  17.119  23.660   4.274
58040W        W19461  38.938   7.789  13.991
58041W        W19462  27.575  14.250   3.823
58042W        W19463  30.926  27.640  12.429
58043W        W19464  24.145  28.511   3.847
58044W        W19465  28.640  43.312   2.356
58045W        W19466  18.623  16.110  13.813
58046W        W19467  17.099  30.483   1.253
58047W        W19468   5.230  27.141   1.934
58048W        W19469  37.042   0.863  14.888
58049W        W19470  13.611  26.965  11.542
58050W        W19471  15.275  33.395   5.106
58051W        W19472  36.044   1.425   5.182
58052W        W19473  31.106  16.270   4.320
58053W        W19474  13.683  19.172  13.416
58054W        W19475  40.007   0.417   1.807
58055W        W19476  16.652  18.602   4.683
58056W        W19477  13.776  33.613   1.261
58057W        W19478  39.049  13.712  12.459
58058W        W19479  34.560   9.235   3.733
58059W        W19480  37.405   2.454  14.466
58060W        W19481  22.008  38.066  12.370
58061W        W19482  16.737  21.241  11.118
58062W        W19483   5.354  44.313   3.159
58063W        W19484   0.818  33.933  11.577
58064W        W19485  14.233  29.056  12.898
58065W        W19486   9.341  15.329  13.464
58066W        W19487  16.315   3.359   3.349
58067W        W19488   7.783  29.166  10.511
58068W        W19489  13.807  26.082  14.515
58069W        W19490  37.070  39.812   2.871
58070W        W19491  42.463  32.047  11.934
58071W        W19492  34.093  23.515   5.219
58072W        W19493   7.242  11.853  14.378
58073W        W19494  23.134  37.990  13.390
58074W        W19495  25.990  40.902  14.301
58075W        W19496  31.090  30.919   4.654
58076W        W19497  15.642  35.884   3.821
58077W        W19498  20.711  44.354   3.281
58078W        W19499  22.518  41.872  10.498
58079W        W19500   3.912  17.158  13.443
58080W        W19501  29.990  40.871   4.631
58081W        W19502  37.515  38.937   1.838
58082W        W19503  23.494  11.815  12.433
58083W        W19504  22.541  34.416   4.602
58084W        W19505  43.907  16.105  14.472
58085W        W19506  32.489  16.593  10.943
58086W        W19507  15.700  17.188  13.342
58087W        W19508  26.157  20.699  10.897
58088W        W19509  24.679   4.368   1.430
58089W        W19510   9.819  32.465   1.449
58090W        W19511  31.553  21.705  12.419
58091W        W19512   6.676  25.043  10.951
58092W        W19513   8.293   8.744   4.722
58093W        W19514   0.963  41.794   0.310
58094W        W19515  15.640  31.967  13.464
58095W        W19516  44.378  24.104   2.373
58096W        W19517  41.950  44.299   4.717
58097W        W19518  13.661  42.498  10.589
58098W        W19519  10.845  23.073  13.947
58099W        W19520  33.529  23.017   0.478
58100W        W19521  25.048  17.597  13.985
58101W        W19522  32.040  28.129   3.293
58102W        W19523  14.127  33.020  11.934
58103W        W19524  13.218   7.365  14.476
58104W        W19525  17.150  25.625  10.513
58105W        W19526  22.527  33.893   2.702
58106W        W19527  20.697  31.531   3.789
58107W        W19528   1.847  38.488  12.503
58108W        W19529  20.218  38.446  10.495
58109W        W19530  23.071  30.453  12.364
58110W        W19531   7.713  18.547   2.400
58111W        W19532   9.385  36.402  10.631
58112W        W19533   0.799   3.221   5.272
58113W        W19534  13.292  20.552   3.255
58114W        W19535  10.753  24.620  12.969
58115W        W19536  43.313  12.769  12.496
58116W        W19537  16.618  27.053   1.373
58117W        W19538  28.164   7.217  12.445
58118W        W19539  16.777  33.937  12.542
58119W        W19540  20.082  10.226  11.040
58120W        W19541  40.990  23.207   1.864
58121W        W19542  11.347  28.514  10.620
58122W        W19543  43.273  37.907   2.789
58123W        W19544  28.485  27.037  11.552
58124W        W19545  23.145  40.489  12.421
58125W        W19546  29.038  39.842  14.907
58126W        W19547   5.790  39.330   1.748
58127W        W19548  14.281  30.958   0.442
58128W        W19549   9.871  38.007  12.843
58129W        W19550  14.588   4.929  13.331
58130W        W19551  34.976   7.376   4.805
58131W        W19552  18.697   4.351   4.165
58132W        W19553  25.480  36.940  11.893
58133W        W19554  43.993   9.350   3.240
58134W        W19555  28.989  14.316   4.159
58135W        W19556  29.526  23.615  12.076
58136W        W19557  41.881   0.818   0.478
58137W        W19558  21.228  34.973  13.992
58138W        W19559   3.941  44.905   2.799
58139W        W19560  36.992  14.756   0.405
58140W        W19561   1.250  38.386   2.254
58141W        W19562  17.735  15.279  13.507
58142W        W19563   4.861  23.086   0.369
58143W        W19564  30.979   2.959  13.879
58144W        W19565  27.944   2.959   4.275
58145W        W19566  11.188  14.641  14.803
58146W        W19567  37.502  34.007  11.949
58147W        W19568  36.986  27.079   0.943
58148W        W19569   7.897  37.510   0.870
58149W        W19570  14.145  15.138  14.429
58150W        W19571  22.997  32.933   2.353
58151W        W19572  27.174   6.912  12.016
58152W        W19573  15.627  23.091  12.941
58153W        W19574  43.489  44.878   0.461
58154W        W19575  12.237  23.050  12.093
58155W        W19576  21.543  32.545  11.022
58156W        W19577  39.516  30.642   4.129
58157W        W19578  10.140   7.885   4.734
58158W        W19579  33.965  30.523  13.888
58159W        W19580   8.741  13.653  12.367
58160W        W19581   3.306  43.794  13.828
58161W        W19582  19.666   1.335   3.745
58162W        W19583  24.181  32.398   2.736
58163W        W19584   4.720  19.151  13.898
58164W        W19585  19.749  36.447  13.821
58165W        W19586  27.987   7.409  13.012
58166W        W19587  26.685  25.216  14.875
58167W        W19588  41.321   7.354   0.295
58168W        W19589  42.924  23.666  12.545
58169W        W19590  13.291  17.556  10.412
58170W        W19591   6.277  37.884  11.429
58171W        W19592  34.431  42.343   2.818
58172W        W19593  42.423   0.297   3.192
58173W        W19594  18.226  16.721  11.898
58174W        W19595  33.969  12.184   2.230
58175W        W19596   5.719  15.193  10.989
58176W        W19597  27.451  18.656  13.881
58177W        W19598  10.815  37.870   4.178
58178W        W19599  25.178  26.018  10.555
58179W        W19600  41.317   7.851  11.499
58180W        W19601  30.602  36.880  11.873
58181W        W19602   5.213   1.932   1.288
58182W        W19603  42.519   7.182  13.516
58183W        W19604  41.352   7.317   1.311
58184W        W19605  39.880  12.644   2.697
58185W        W19606  22.040  43.502  10.916
58186W        W19607  22.006  43.806   3.742
58187W        W19608  36.932  10.372  13.926
58188W        W19609  31.561  14.728  11.907
58189W        W19610   4.260  36.445  14.788
58190W        W19611  28.506   3.854   2.225
58191W        W19612  12.270  31.909   0.403
58192W        W19613   2.440  29.057  10.064
58193W        W19614  17.595  13.263   1.771
58194W        W19615   0.955  28.142  10.492
58195W        W19616  10.185  16.758   0.910
58196W        W19617  15.682  33.581  12.953
58197W        W19618  23.206  15.753   1.931
58198W        W19619  17.236  17.267  14.488
58199W        W19620   0.916   4.375  14.024
58200W        W19621  41.471  13.784  13.886
58201W        W19622   9.770   0.792  14.503
58202W        W19623  26.693   0.886  12.487
58203W        W19624  19.622  40.500   2.747
58204W        W19625  26.987  26.194  12.895
58205W        W19626  40.048  39.052   0.449
58206W        W19627  13.170  28.047   3.748
58207W        W19628   4.328  24.145   4.278
58208W        W19629  38.362  37.053  12.008
58209W        W19630  27.057  22.689   2.277
58210W        W19631   1.945  34.369   3.188
58211W        W19632  11.218   9.288   3.679
58212W        W19633  44.992   6.777   3.371
58213W        W19634   0.929  10.741  12.342
58214W        W19635  28.999  18.719  10.551
58215W        W19636  38.895  27.542   3.229
58216W        W19637  21.518   8.860   4.764
58217W        W19638  38.396   0.489   1.451
58218W        W19639  24.120  19.078   3.234
58219W        W19640  22.658   3.234  11.891
58220W        W19641  16.263  16.242   0.445
58221W        W19642  18.557  29.119  14.326
58222W        W19643  30.986  37.070   1.911
58223W        W19644  11.293  36.947   1.272
58224W        W19645  39.850  17.063   0.926
58225W        W19646  35.998  12.163  13.046
58226W        W19647  17.791   0.854   0.481
58227W        W19648  31.047  40.910   3.693
58228W        W19649  11.361  10.294   0.771
58229W        W19650  14.608  17.687   3.200
58230W        W19651  33.459  32.040  10.927
58231W        W19652  32.940  32.969   2.841
58232W        W19653  36.452   1.277   1.221
58233W        W19654  12.241  26.010   2.790
58234W        W19655  39.820  39.541  12.408
58235W        W19656   5.363   2.961   0.763
58236W        W19657  34.543  38.971  10.617
58237W        W19658  20.164   2.376   4.295
58238W        W19659  34.571  39.379   0.955
58239W        W19660  34.063   6.800   4.812
58240W        W19661   2.268  16.133  12.056
58241W        W19662   6.185   8.691  10.153
58242W        W19663  24.995   0.267   4.628
58243W        W19664  34.973  27.643   1.305
58244W        W19665   4.759  43.293  13.381
58245W        W19666  29.080  32.091  10.929
58246W        W19667  18.085  37.894  13.993
58247W        W19668   0.332  19.557  11.955
58248W        W19669  36.869  19.157  11.089
58249W        W19670  32.443   1.294  10.506
58250W        W19671  20.665  20.084  12.004
58251W        W19672  34.002   7.679  11.393
58252W        W19673   2.347  21.043   2.711
58253W        W19674  11.752  31.017  12.473
58254W        W19675  10.245  12.336   2.179
58255W        W19676  36.355   1.754  10.924
58256W        W19677  36.548  16.228   2.252
58257W        W19678   2.318  21.626   3.859
58258W        W19679  38.525  16.677   1.329
58259W        W19680  22.019  10.681  13.937
58260W        W19681  18.066  40.822   1.897
58261W        W19682  10.843  15.153   0.357
58262W        W19683  40.501  28.937   0.873
58263W        W19684  15.806   6.420   1.906
58264W        W19685  44.996  10.867   4.620
58265W        W19686  30.919   3.873  11.862
58266W        W19687  27.997  26.080  11.537
58267W        W19688   5.698   9.654  13.545
58268W        W19689  19.678  25.213   2.693
58269W        W19690  13.328  35.930  13.457
58270W        W19691  14.618  21.559   2.414
58271W        W19692  19.759  23.624   2.870
58272W        W19693  10.262  16.776  14.024
58273W        W19694  27.081  29.070   2.227
58274W        W19695   0.808  30.585  11.916
58275W        W19696  34.553   7.393   1.710
58276W        W19697   9.317  44.452  11.958
58277W        W19698  26.189  41.940   1.281
58278W        W19699  18.098  44.861   0.450
58279W        W19700  28.177  15.706  10.088
58280W        W19701   0.452   2.324  12.368
58281W        W19702  39.855  17.174  10.472
58282W        W19703  38.395   0.816  12.060
58283W        W19704  37.554  17.593   1.783
58284W        W19705  30.544  25.653   4.130
58285W        W19706  20.153  26.586   4.122
58286W        W19707  33.521  30.570  12.049
58287W        W19708  36.522  40.042   3.320
58288W        W19709   4.874   2.921  11.475
58289W        W19710  24.193   4.310   0.868
58290W        W19711  40.509  23.150   3.724
58291W        W19712  24.137   8.692  10.973
58292W        W19713   2.280   6.884  10.473
58293W        W19714   2.895   4.392  11.991
58294W        W19715   5.918  32.547   4.182
58295W        W19716  38.536  12.259   4.800
58296W        W19717   6.742  14.784  13.814
58297W        W19718   7.813   4.892   0.259
58298W        W19719  27.686   6.271  12.935
58299W        W19720  35.890  29.661   1.737
58300W        W19721  18.636  10.828   2.733
58301W        W19722   5.863  24.047  13.490
58302W        W19723  26.627  23.986   0.371
58303W        W19724  15.220  23.620   4.160
58304W        W19725  30.497  23.210   3.253
58305W        W19726  35.868  33.564   3.265
58306W        W19727  32.896   7.737   0.255
58307W        W19728  40.976   6.903   2.271
58308W        W19729  10.365  10.852  12.408
58309W        W19730  10.644   7.347  13.960
58310W        W19731  18.087  15.818   1.334
58311W        W19732  11.206  32.074   0.283
58312W        W19733  42.434  19.567  13.910
58313W        W19734  36.873  27.448   3.226
58314W        W19735  18.283  22.201  11.018
58315W        W19736  33.876   8.160   1.818
58316W        W19737  42.970  12.668  10.929
58317W        W19738  14.694  17.141  10.117
58318W        W19739  11.648   6.412   4.774
58319W        W19740   3.882  33.426  10.933
58320W        W19741  38.461  36.532  14.988
58321W        W19742  34.060   9.191   1.783
58322W        W19743   6.862   2.907   4.780
58323W        W19744   0.446  41.413  11.447
58324W        W19745  12.229   2.731  12.829
58325W        W19746  18.646  10.254   0.865
58326W        W19747  40.389  22.139  13.372
58327W        W19748  18.655  34.469  10.608
58328W        W19749  34.895  28.572  14.365
58329W        W19750  37.083  27.155  13.526
58330W        W19751  30.558  42.018   2.708
58331W        W19752  38.892   6.361  12.494
58332W        W19753  25.605  12.779   1.772
58333W        W19754  17.724   1.297  14.792
58334W        W19755  29.921  19.669  12.880
58335W        W19756  14.624   1.340  11.033
58336W        W19757  29.558  31.426  12.360
58337W        W19758  25.656  37.432  11.068
58338W        W19759  19.740  41.989  14.984
58339W        W19760   2.465   6.742   2.841
58340W        W19761  22.553   3.799   0.355
58341W        W19762  21.169  19.584   1.926
58342W        W19763  17.647  11.362   3.200
58343W        W19764  36.586  26.974   1.797
58344W        W19765   6.827  13.110  13.331
58345W        W19766  36.897  15.223  11.520
58346W        W19767  31.419  27.163   4.262
58347W        W19768  31.482  39.546   3.713
58348W        W19769   8.845  12.259  12.051
58349W        W19770  14.622  10.719  10.948
58350W        W19771  31.083  26.683   1.747
58351W        W19772  30.936  37.987   1.907
58352W        W19773  17.641  10.254   0.301
58353W        W19774  33.895  17.716   3.804
58354W        W19775  41.887  12.685   2.262
58355W        W19776  24.109   6.373  10.925
58356W        W19777  26.081  35.479   3.381
58357W        W19778  18.572   3.432  13.475
58358W        W19779   3.865  25.039  13.931
58359W        W19780  13.220   1.804  11.016
58360W        W19781   3.790  19.620  10.899
58361W        W19782  19.546  26.981   2.331
58362W        W19783  12.742  13.263   0.271
58363W        W19784   2.295  20.206  14.513
58364W        W19785  16.302  17.698  11.527
58365W        W19786   2.760  15.659  13.310
58366W        W19787   5.770   6.298   2.780
58367W        W19788   7.277   7.699   2.753
58368W        W19789  36.416  40.367  14.944
58369W        W19790  25.056  39.386   2.360
58370W        W19791   6.340  13.796  10.535
58371W        W19792  42.292  17.169  12.361
58372W        W19793   1.824   4.260  12.975
58373W        W19794   5.225  27.623   1.291
58374W        W19795   5.364  29.476   2.718
58375W        W19796   2.782  35.458  12.536
58376W        W19797  29.574  28.988  14.021
58377W        W19798  29.526   8.306  10.439
58378W        W19799  32.545  15.657   3.780
58379W        W19800  18.618  20.565   2.838
58380W        W19801   6.830   3.873  11.123
58381W        W19802  18.612  19.655   3.659
58382W        W19803   8.694  40.308   2.710
58383W        W19804  40.853  41.888   1.234
58384W        W19805   2.472  39.989  14.844
58385W        W19806  32.629  12.190  10.613
58386W        W19807  28.145   0.313  14.798
58387W        W19808   7.679  13.203  11.945
58388W        W19809   7.753  27.522   2.313
58389W        W19810  23.193  44.307  13.791
58390W        W19811  10.692  12.754  10.606
58391W        W19812  16.255   0.802   3.355
58392W        W19813  22.028  40.874   1.335
58393W        W19814   5.379  27.171  11.029
58394W        W19815  38.389   0.362   4.764
58395W        W19816  39.455  41.480  11.530
58396W        W19817   7.203   8.788  10.491
58397W        W19818  30.098  25.967   3.731
58398W        W19819   9.792  37.524  11.059
58399W        W19820   6.812  12.325  13.434
58400W        W19821   7.710   2.879  10.427
58401W        W19822   8.373   4.744   0.958
58402W        W19823  41.805   5.366   1.697
58403W        W19824  17.103  34.396  11.582
58404W        W19825   7.177  25.594  12.496
58405W        W19826  16.791  13.724  11.033
58406W        W19827  33.944  20.096   2.762
58407W        W19828  28.549  10.646  13.938
58408W        W19829   9.236   8.852   1.703
58409W        W19830  34.023  15.267  11.454
58410W        W19831   4.919  24.573   2.843
58411W        W19832   5.350  11.735   0.404
58412W        W19833  11.736  20.607   2.347
58413W        W19834  33.489   8.752  11.016
58414W        W19835  27.993  20.590  11.036
58415W        W19836  31.955  36.436  10.973
58416W        W19837  11.750  30.118   3.727
58417W        W19838  33.891  41.795   1.398
58418W        W19839  42.997   1.944   0.302
58419W        W19840  37.536  16.734  14.982
58420W        W19841   8.236  37.576  12.378
58421W        W19842   3.299  35.573   4.271
58422W        W19843  39.958  18.740  12.373
58423W        W19844  36.950  25.630   0.883
58424W        W19845  41.516   9.878   1.779
58425W        W19846  36.998  37.916   3.273
58426W        W19847  30.005  42.823  11.524
58427W        W19848  16.188  11.809   3.869
58428W        W19849   2.239  32.079   9.677
58429W        W19850  30.503   7.720   3.787
58430W        W19851  11.368  13.631   2.384
58431W        W19852  20.122  20.702  12.890
58432W        W19853   9.786  26.078  14.399
58433W        W19854  40.810  22.652  14.492
58434W        W19855  34.474  35.602   3.849
58435W        W19856  14.596  20.643   0.335
58436W        W19857  14.804  20.209  11.877
58437W        W19858  18.288  43.945   1.908
58438W        W19859  34.520  43.349   1.865
58439W        W19860  13.635  39.552  14.500
58440W        W19861  12.759  39.380   2.783
58441W        W19862  20.606  40.050   3.676
58442W        W19863  42.803  32.520   4.253
58443W        W19864  22.734   6.795   5.179
58444W        W19865  31.923  32.932  12.559
58445W        W19866  10.873  13.643  12.570
58446W        W19867   8.778  41.880   1.793
58447W        W19868  32.606   9.252  11.959
58448W        W19869   2.746  36.063   0.881
58449W        W19870   4.775  30.016   9.969
58450W        W19871  15.658  16.766   4.673
58451W        W19872   9.702  22.640  11.512
58452W        W19873  12.190  13.112   0.783
58453W        W19874   6.265   5.907   0.787
58454W        W19875   6.206   0.453  13.795
58455W        W19876   5.760  34.893   2.764
58456W        W19877  38.343  19.575  11.966
58457W        W19878  12.284  40.828  11.916
58458W        W19879  40.436  27.512  10.572
58459W        W19880  33.605  12.754  14.808
58460W        W19881  40.496  29.609   4.354
58461W        W19882  17.222  19.094  11.000
58462W        W19883   1.749  41.015  11.993
58463W        W19884  31.069   8.728  10.942
58464W        W19885  18.595  10.818   1.841
58465W        W19886  14.748  41.536  12.501
58466W        W19887  43.841  11.220  10.409
58467W        W19888   0.879  19.667   2.727
58468W        W19889  42.900  36.415   2.408
58469W        W19890  17.802  15.120   1.309
58470W        W19891  24.046  37.919   2.662
58471W        W19892  11.860  10.806   2.780
58472W        W19893  43.309  12.198  14.011
58473W        W19894  22.691  39.449   1.402
58474W        W19895  43.801  34.423  10.510
58475W        W19896  27.686   4.817  12.505
58476W        W19897  18.121  43.283  11.599
58477W        W19898   6.290  30.590   5.107
58478W        W19899  38.960  39.345  14.954
58479W        W19900  24.706  42.860  10.511
58480W        W19901   2.314  20.627  11.085
58481W        W19902  23.002   3.264  10.142
58482W        W19903  11.365  35.459   2.686
58483W        W19904  13.761  18.761  14.357
58484W        W19905  22.536  18.787   2.318
58485W        W19906  18.271   3.235  14.809
58486W        W19907  23.588  32.905  14.801
58487W        W19908  40.981  17.226  11.980
58488W        W19909  33.935  43.944  11.030
58489W        W19910  37.981  41.876   0.900
58490W        W19911  43.391  19.285  10.585
58491W        W19912  34.521   2.726   0.377
58492W        W19913   0.388   5.833  13.887
58493W        W19914  43.767  31.456   2.857
58494W        W19915  42.430  19.154  14.360
58495W        W19916   2.964   6.725   1.298
58496W        W19917  31.488  38.384   0.818
58497W        W19918   0.372  40.806   4.705
58498W        W19919  42.486  17.714   3.810
58499W        W19920   4.920  24.616   4.325
58500W        W19921  33.434  24.076   3.827
58501W        W19922  13.625  39.492   4.599
58502W        W19923  42.291  29.154  12.905
58503W        W19924  29.046  24.608  14.307
58504W        W19925   7.757  24.692   1.232
58505W        W19926  13.693   9.732  11.931
58506W        W19927  36.877  38.935  12.928
58507W        W19928  43.804  18.217  12.349
58508W        W19929  43.935  35.104  11.523
58509W        W19930  10.864  39.916  10.119
58510W        W19931  33.929  25.615   4.196
58511W        W19932  25.590   0.850   1.231
58512W        W19933  23.585  27.491  10.434
58513W        W19934   7.281  12.626  14.008
58514W        W19935   7.877  31.511   3.153
58515W        W19936  40.888  35.527   3.331
58516W        W19937  21.038   6.780  10.421
58517W        W19938  24.015  12.168  11.395
58518W        W19939   7.188  10.145  11.026
58519W        W19940   3.732  34.521   4.761
58520W        W19941  44.790  39.883  14.337
58521W        W19942  30.924  30.932  10.993
58522W        W19943  18.256  10.845   0.399
58523W        W19944  13.756  37.536   2.373
58524W        W19945  40.435  39.939  12.016
58525W        W19946  26.003  28.643   0.852
58526W        W19947  31.460   7.214  10.990
58527W        W19948   3.777  32.460  12.393
58528W        W19949  10.666  21.193   3.279
58529W        W19950  10.778  20.101  13.479
58530W        W19951  12.262  32.498   1.845
58531W        W19952   7.257   4.771  11.106
58532W        W19953  37.831  40.507  13.930
58533W        W19954  38.973   0.439   0.421
58534W        W19955  36.841  41.796   3.168
58535W        W19956  42.394  19.738  11.974
58536W        W19957  39.408  14.121   0.748
58537W        W19958   2.797  37.881  12.927
58538W        W19959  35.981   4.766   1.737
58539W        W19960  25.525   6.364   0.776
58540W        W19961  28.146  31.119  11.932
58541W        W19962  24.140  15.730   4.803
58542W        W19963  38.949   4.751  11.507
58543W        W19964   7.267  23.108   1.429
58544W        W19965  31.991  17.560   1.410
58545W        W19966  16.179  31.024   2.847
58546W        W19967   3.738  39.386  12.940
58547W        W19968  20.730  40.467  14.279
58548W        W19969   4.941  21.230   3.861
58549W        W19970  27.634  38.359   3.767
58550W        W19971  16.187  41.503   1.741
58551W        W19972   7.780  40.835  10.032
58552W        W19973  19.620  39.848  11.504
58553W        W19974  11.767  30.959   2.849
58554W        W19975  14.812   1.429  11.505
58555W        W19976  11.779  40.843   2.733
58556W        W19977  21.205   8.222   2.756
58557W        W19978  33.079  33.499  13.397
58558W        W19979  18.115  30.979  11.877
58559W        W19980  13.192  28.639  13.947
58560W        W19981  16.797  14.695  11.031
58561W        W19982  35.407  34.484  10.916
58562W        W19983  25.008  37.544   4.289
58563W        W19984   2.410  36.552  13.953
58564W        W19985  22.250  35.489   1.741
58565W        W19986  40.910  41.886   0.892
58566W        W19987   0.951  40.375  10.511
58567W        W19988  37.949  16.245   2.741
58568W        W19989  29.033  10.360  11.117
58569W        W19990  40.484  18.246  12.865
58570W        W19991   1.399  40.845  10.598
58571W        W19992   0.379  18.683   3.703
58572W        W19993   2.921   5.809  11.500
58573W        W19994  29.629  29.558   3.800
58574W        W19995  42.922  14.242   2.811
58575W        W19996   1.398   6.853   3.255
58576W        W19997   6.268  35.030  10.910
58577W        W19998  29.036  38.967  13.326
58578W        W19999  41.358   9.732   2.797
58579W        W20000  28.164  35.078  14.496
58580W        W20001  10.672  17.799  10.589
58581W        W20002  44.919  35.496   4.793
58582W        W20003  37.455  33.048   1.868
58583W        W20004  23.541   5.807  10.480
58584W        W20005  38.397  10.385  11.894
58585W        W20006   1.388  25.630   2.343
58586W        W20007  19.699  27.502   3.167
58587W        W20008  22.252  38.535  14.907
58588W        W20009   9.303  16.231   4.195
58589W        W20010  20.108  21.515   3.797
58590W        W20011  14.607  21.201  14.446
58591W        W20012  34.963   6.376   0.266
58592W        W20013  15.167  11.679   3.222
58593W        W20014  11.656  20.596  12.421
58594W        W20015  43.500  23.165  11.001
58595W        W20016   3.326  11.820  12.364
58596W        W20017  20.616  28.074   0.810
58597W        W20018   7.682  32.502   4.291
58598W        W20019   7.826   7.180  14.429
58599W        W20020  44.925  42.952  12.067
58600W        W20021  23.636  30.941  13.946
58601W        W20022  16.087  37.543  13.953
58602W        W20023  29.949  21.235  10.523
58603W        W20024  14.337   9.379  11.906
58604W        W20025  40.835  14.206  14.477
58605W        W20026  31.964  16.723  10.483
58606W        W20027   1.336  34.053  10.473
58607W        W20028  35.959   0.311   0.881
58608W        W20029  29.053  10.692   1.340
58609W        W20030  42.427  10.793  11.571
58610W        W20031  17.638   9.326  12.907
58611W        W20032  35.093  16.141   2.736
58612W        W20033  28.510   2.921  14.007
58613W        W20034   3.780  33.441   3.261
58614W        W20035  31.961  33.534   0.870
58615W        W20036  18.294   9.161   1.216
58616W        W20037  37.475  10.696   0.848
58617W        W20038  15.753  19.754   9.927
58618W        W20039  23.588  16.137  10.586
58619W        W20040   6.241   6.326   5.140
58620W        W20041  24.565   5.728   0.314
58621W        W20042  21.596  16.602   3.270
58622W        W20043  38.923  23.088   3.258
58623W        W20044  20.230  17.290   1.245
58624W        W20045  22.689  31.010   4.230
58625W        W20046  23.128   1.901  14.759
58626W        W20047  17.206   1.804   3.774
58627W        W20048  11.765  42.787  12.521
58628W        W20049  22.123  42.488   0.324
58629W        W20050  37.953  39.507   3.715
58630W        W20051  10.877   7.337  14.979
58631W        W20052  12.206  19.053  14.759
58632W        W20053  36.890   8.882  10.635
58633W        W20054  30.025  27.963   3.182
58634W        W20055  23.562  13.227   0.385
58635W        W20056  31.040  41.850   0.362
58636W        W20057  42.956   7.358   2.725
58637W        W20058   5.857  10.355  14.792
58638W        W20059  43.888   8.749   0.767
58639W        W20060  33.897  21.062   1.935
58640W        W20061   0.942   2.964   4.132
58641W        W20062   7.895  42.814  14.996
58642W        W20063  31.944  38.392  11.566
58643W        W20064  14.814  37.434   1.793
58644W        W20065   9.183   5.776  11.905
58645W        W20066  26.567  20.173  13.308
58646W        W20067   4.864  36.450   2.251
58647W        W20068   4.409  35.434  11.008
58648W        W20069   4.282   9.330  12.536
58649W        W20070  11.840  33.089  13.836
58650W        W20071  12.223  28.018   4.147
58651W        W20072  34.372  21.072  10.489
58652W        W20073  17.185  38.959  13.510
58653W        W20074   4.838   9.358   0.869
58654W        W20075  41.371  31.011   0.328
58655W        W20076  40.904  39.856   0.370
58656W        W20077  41.872  13.309  13.027
58657W        W20078   6.377  22.247   2.840
58658W        W20079  24.159  41.974   0.479
58659W        W20080  24.129  13.762  14.332
58660W        W20081   5.751  38.444  11.448
58661W        W20082  30.146  18.783   1.243
58662W        W20083  29.616  11.174   3.826
58663W        W20084   6.919  38.832  11.548
58664W        W20085  35.036  25.608  11.475
58665W        W20086  12.771  25.546  13.858
58666W        W20087  38.524  14.716  10.420
58667W        W20088  38.344  10.205  13.312
58668W        W20089   9.855  42.810  10.058
58669W        W20090  24.622  11.835   3.338
58670W        W20091  41.954  36.869   1.713
58671W        W20092   2.884   8.218   1.749
58672W        W20093  40.415  36.885  14.783
58673W        W20094  33.430  41.813   1.272
58674W        W20095  27.603  43.390   0.963
58675W        W20096  30.511   9.670   4.135
58676W        W20097   2.430  26.027  11.863
58677W        W20098  20.179  15.671  12.464
58678W        W20099  13.833  16.290  13.826
58679W        W20100  11.261   7.260  10.502
58680W        W20101  14.153   1.777   4.656
58681W        W20102  44.782  40.928  13.839
58682W        W20103  37.021  20.162  11.998
58683W        W20104  25.127  31.926  10.598
58684W        W20105  26.011  40.026   1.929
58685W        W20106  41.360   1.239   0.899
58686W        W20107  12.225  25.562  13.359
58687W        W20108   3.711  16.715  14.014
58688W        W20109   3.259  15.272   4.713
58689W        W20110  26.001  16.313   1.407
58690W        W20111   0.952  36.885  13.314
58691W        W20112  41.985  14.773   4.229
58692W        W20113   7.846  16.799   4.785
58693W        W20114  36.849  18.225  10.630
58694W        W20115  41.531   3.911  11.052
58695W        W20116  31.452  23.143  11.498
58696W        W20117  22.592  23.594  12.991
58697W        W20118  32.901   6.919   0.322
58698W        W20119  34.548   6.718  13.843
58699W        W20120  32.013   8.317  14.488
58700W        W20121  12.737   2.268  14.781
58701W        W20122  13.272  27.986   4.346
58702W        W20123  22.666   6.855   0.309
58703W        W20124   0.458  27.139  14.331
58704W        W20125   0.856  39.019  13.975
58705W        W20126   0.951   9.287   1.879
58706W        W20127  44.856  26.068  14.966
58707W        W20128  28.602  20.656  11.375
58708W        W20129   6.741  27.692   5.164
58709W        W20130  13.704  38.838  12.897
58710W        W20131  28.545  28.051  11.589
58711W        W20132  23.115  22.653   3.155
58712W        W20133  28.576   6.868  13.333
58713W        W20134  18.733  44.961   1.811
58714W        W20135  40.884  14.307   2.713
58715W        W20136  39.456  31.491   4.224
58716W        W20137   0.751  38.481  11.867
58717W        W20138  20.234  27.615   0.354
58718W        W20139  40.008  13.640  12.425
58719W        W20140  19.635  13.270  14.819
58720W        W20141  10.304   1.961   2.699
58721W        W20142  15.226  30.964   2.411
58722W        W20143  19.069   2.451  13.439
58723W        W20144  18.707  36.509   0.750
58724W        W20145  16.641  40.954   1.931
58725W        W20146  17.570  18.156  12.466
58726W        W20147   1.897  16.584   3.677
58727W        W20148  29.127  36.904   2.336
58728W        W20149  21.665  37.899   3.147
58729W        W20150  21.191   5.713  14.502
58730W        W20151  31.065  42.794   9.923
58731W        W20152  11.645  28.082   3.846
58732W        W20153  34.926   6.371   1.872
58733W        W20154  18.729  14.745  14.324
58734W        W20155  43.489  20.724  13.054
58735W        W20156  18.102  19.636   3.853
58736W        W20157  39.837   3.357   0.914
58737W        W20158  33.064  24.117   4.622
58738W        W20159   9.222  20.641  12.551
58739W        W20160  13.192  11.784  13.488
58740W        W20161   6.423  21.171  10.556
58741W        W20162  32.074  23.129   2.391
58742W        W20163  12.171  38.024  12.936
58743W        W20164  23.094  37.576  14.840
58744W        W20165  17.623  21.036   2.815
58745W        W20166   4.365  20.534   0.740
58746W        W20167  29.642  14.808   2.897
58747W        W20168  25.696  41.911   1.326
58748W        W20169  28.087  13.128   2.351
58749W        W20170  16.212  29.024   0.346
58750W        W20171   6.241  13.202   2.411
58751W        W20172  18.650   4.759   3.793
58752W        W20173  25.010  21.549   2.204
58753W        W20174   0.913  11.804   4.644
58754W        W20175  18.700  14.262  12.924
58755W        W20176  35.475  12.153   3.287
58756W        W20177  18.112  28.630  12.020
58757W        W20178  17.587   1.339  11.107
58758W        W20179  33.594   2.335  14.448
58759W        W20180  18.197  35.491  11.554
58760W        W20181  44.818  29.440   1.430
58761W        W20182  26.480   7.736  13.389
58762W        W20183  10.663  22.248   3.665
58763W        W20184   9.271  16.249   2.337
58764W        W20185  35.901  19.610  13.498
58765W        W20186  15.137  21.634   1.280
58766W        W20187  31.548  16.284  14.507
58767W        W20188  23.072  24.211   1.401
58768W        W20189  26.068   5.325   5.700
58769W        W20190  35.363  10.821  14.889
58770W        W20191  28.445  33.971   2.680
58771W        W20192  37.899  27.139   3.181
58772W        W20193   5.336  34.881  13.344
58773W        W20194  23.102  40.937   2.835
58774W        W20195   4.340   5.816   4.825
58775W        W20196   1.440   7.183   0.457
58776W        W20197  26.147  15.708   3.382
58777W        W20198  34.885   1.482   4.676
58778W        W20199  12.186   0.837  12.068
58779W        W20200   0.947   9.810   4.352
58780W        W20201  22.536   3.432  10.589
58781W        W20202  13.316  19.149  14.879
58782W        W20203  17.756  39.998  12.962
58783W        W20204  40.003   3.722   4.796
58784W        W20205   5.343   8.291   4.600
58785W        W20206  42.960  14.208   4.118
58786W        W20207   8.357  13.109  12.031
58787W        W20208   2.790  22.738  13.529
58788W        W20209  33.985   0.923  10.590
58789W        W20210  20.269   3.827   3.161
58790W        W20211  10.138   0.306   2.224
58791W        W20212   5.758  12.262  13.316
58792W        W20213  32.138   8.251  14.864
58793W        W20214   0.430  21.744   3.680
58794W        W20215  11.207  34.914   0.322
58795W        W20216  19.052  41.034  12.463
58796W        W20217  29.575   6.858  10.564
58797W        W20218  21.546  27.028  12.525
58798W        W20219  31.966  40.903   2.699
58799W        W20220  43.784  17.644   1.804
58800W        W20221  40.843  26.528   4.163
58801W        W20222   7.323  41.538  14.849
58802W        W20223  38.447  20.093  12.502
58803W        W20224  42.862  27.689   2.841
58804W        W20225  37.392  37.998   4.707
58805W        W20226  16.704  42.902  10.934
58806W        W20227  35.392   7.302  11.559
58807W        W20228  34.889   5.758  11.576
58808W        W20229  13.206  17.690  14.407
58809W        W20230  37.438   5.820  12.930
58810W        W20231  17.215  12.639  11.504
58811W        W20232  17.765  10.367   4.708
58812W        W20233  11.781  18.607   1.354
58813W        W20234  21.618  22.565   0.362
58814W        W20235   9.690  22.659   1.928
58815W        W20236  43.302  11.158  11.533
58816W        W20237   5.343  41.520   2.903
58817W        W20238  17.754  27.593  14.439
58818W        W20239  13.326  35.909   3.689
58819W        W20240  22.659   4.220   0.412
58820W        W20241   2.287   0.949  11.557
58821W        W20242  32.995  29.513   2.203
58822W        W20243   9.263  11.725   3.281
58823W        W20244  13.176  38.831   5.309
58824W        W20245  23.141  43.933   4.781
58825W        W20246  27.069   4.831  13.344
58826W        W20247  40.895  18.791  13.801
58827W        W20248   6.331  14.654   1.845
58828W        W20249  13.335   5.929  11.945
58829W        W20250  19.631  24.100   3.642
58830W        W20251  25.212  44.458   2.790
58831W        W20252  15.309  11.204  14.766
58832W        W20253   4.251  19.270  11.079
58833W        W20254  15.194  21.606  14.985
58834W        W20255  17.658   9.651  10.995
58835W        W20256  44.336  28.133  10.986
58836W        W20257  10.141  31.444  11.606
58837W        W20258  41.994  27.167  11.916
58838W        W20259  36.468   9.274  14.509
58839W        W20260  31.533  23.717  12.451
58840W        W20261  16.759  27.041   3.173
58841W        W20262  10.706   7.210   2.363
58842W        W20263  34.914   8.248   4.687
58843W        W20264  26.555  35.085  10.604
58844W        W20265  28.503   9.761  13.395
58845W        W20266  42.506  34.876   0.334
58846W        W20267  36.591  18.225  10.149
58847W        W20268   5.796  32.479  10.443
58848W        W20269  17.661  39.968  10.946
58849W        W20270  39.031  13.184   1.407
58850W        W20271  18.126  36.869   3.209
58851W        W20272  40.978  14.228   3.778
58852W        W20273  19.758  22.708  10.480
58853W        W20274  18.614  31.986   0.320
58854W        W20275  22.142  38.570  14.317
58855W        W20276  33.425   7.715   2.414
58856W        W20277  17.193  28.131   3.241
58857W        W20278   8.686  29.172   3.673
58858W        W20279   8.733   7.704  10.594
58859W        W20280  39.902  23.096  12.876
58860W        W20281   3.222  19.173  11.554
58861W        W20282   9.293  40.897   4.778
58862W        W20283   8.698  26.534   4.680
58863W        W20284  29.124  40.924   2.891
58864W        W20285  25.009   6.800  14.378
58865W        W20286   3.826  25.523  14.341
58866W        W20287  28.936  33.896  14.914
58867W        W20288  17.262  41.940   2.783
58868W        W20289  44.482  34.402  12.483
58869W        W20290  42.419  31.051  10.486
58870W        W20291   4.292  14.755   1.920
58871W        W20292   4.730  16.181  12.385
58872W        W20293   1.785  40.365  12.027
58873W        W20294  25.143  25.209  11.516
58874W        W20295   9.383  14.116   1.252
58875W        W20296   3.312   2.272  14.393
58876W        W20297  27.642  39.006  13.881
58877W        W20298  14.205  21.647  11.880
58878W        W20299   5.734  25.054  13.869
58879W        W20300  44.007  22.549   4.343
58880W        W20301  24.697  24.140  12.988
58881W        W20302  42.295  38.500   3.708
58882W        W20303  16.186   7.277  13.316
58883W        W20304  23.097   9.273  10.618
58884W        W20305  25.618  12.800  10.469
58885W        W20306  34.580  42.920   2.293
58886W        W20307  28.437  32.096  12.960
58887W        W20308  22.038  38.571   4.168
58888W        W20309  41.334  29.546   4.199
58889W        W20310  35.950  35.591  14.888
58890W        W20311   3.744  27.085   4.302
58891W        W20312  44.433  25.696  10.489
58892W        W20313  42.933  43.426  11.945
58893W        W20314  12.181   3.400  13.458
58894W        W20315   0.860  28.595   3.698
58895W        W20316   5.837  27.487  12.001
58896W        W20317  24.162   6.418  12.925
58897W        W20318  27.465  33.484   3.732
58898W        W20319  21.247  29.489  12.517
58899W        W20320   2.384   4.808   4.307
58900W        W20321  27.459  33.928   4.773
58901W        W20322   9.848  41.940   0.442
58902W        W20323   9.209  16.223   0.434
58903W        W20324  11.649  17.615   1.337
58904W        W20325  16.210   8.802   4.677
58905W        W20326  40.891   4.723   4.689
58906W        W20327  30.453  23.608  12.375
58907W        W20328  24.059  13.172   2.301
58908W        W20329  33.005  38.493  12.930
58909W        W20330  20.613  11.718  10.542
58910W        W20331   2.729   3.900  14.413
58911W        W20332  10.261  37.414   2.360
58912W        W20333  37.474  43.855  13.793
58913W        W20334  27.645  26.164  14.949
58914W        W20335   8.346  12.761   2.324
58915W        W20336   6.373   6.822   0.454
58916W        W20337  26.515  34.950   4.202
58917W        W20338  14.198  40.924  11.981
58918W        W20339  33.988  37.446   3.723
58919W        W20340  44.272  16.602  10.147
58920W        W20341  42.784  16.803  14.321
58921W        W20342  44.867  25.160   0.763
58922W        W20343   9.199  38.359   1.880
58923W        W20344  14.637  13.113  13.996
58924W        W20345  26.145  28.471  13.525
58925W        W20346  11.790  13.149   1.436
58926W        W20347  30.070   1.305   1.856
58927W        W20348  35.558  29.125   0.907
58928W        W20349  28.946  30.138  13.022
58929W        W20350  10.143   7.369   4.826
58930W        W20351  25.704  37.942  13.356
58931W        W20352  36.995  27.499  12.096
58932W        W20353  36.411  31.523   0.849
58933W        W20354  37.412  23.182  14.835
58934W        W20355  39.546   4.220   4.256
58935W        W20356  32.956  12.154   4.218
58936W        W20357  40.933   3.300  12.900
58937W        W20358   0.297   4.309   1.262
58938W        W20359  30.099  33.008  14.885
58939W        W20360  18.253  33.957   0.331
58940W        W20361   4.407  42.860   3.380
58941W        W20362  37.513  31.512  13.472
58942W        W20363  16.090   6.841  13.408
58943W        W20364  16.112  21.532   1.341
58944W        W20365  34.534  41.304   1.324
58945W        W20366  32.050   9.159   2.670
58946W        W20367   6.266  43.430  12.010
58947W        W20368  31.067   5.750  12.517
58948W        W20369  20.160   5.381   5.298
58949W        W20370  25.005  36.528  10.909
58950W        W20371   4.331   5.330  14.363
58951W        W20372  33.524  36.507  12.856
58952W        W20373  29.449   4.270  11.407
58953W        W20374  31.541  21.037   3.647
58954W        W20375   7.895  14.789  12.984
58955W        W20376  10.296  44.930  10.475
58956W        W20377  22.233  41.962  11.030
58957W        W20378  20.588  17.113   1.839
58958W        W20379  19.611  10.662  14.512
58959W        W20380   0.294  19.115  14.451
58960W        W20381  30.026   5.855  12.051
58961W        W20382  11.734  24.694  11.548
58962W        W20383  25.152  34.069  14.922
58963W        W20384   3.910  19.214   1.411
58964W        W20385  38.541  28.652   3.349
58965W        W20386  30.120   0.322   1.235
58966W        W20387  25.591   9.862   0.242
58967W        W20388  14.305  12.779  13.024
58968W        W20389  38.358  21.126   4.226
58969W        W20390  31.110  23.637  13.014
58970W        W20391  33.899  35.434  14.763
58971W        W20392  19.601  28.468  13.795
58972W        W20393  23.632  20.084   3.225
58973W        W20394   2.774  34.476  10.915
58974W        W20395  10.362  43.953  12.373
58975W        W20396  19.674   6.781   9.972
58976W        W20397  34.932  12.715   3.837
58977W        W20398  30.459   3.422   3.299
58978W        W20399  19.092  16.181   2.326
58979W        W20400   4.327  42.775   0.945
58980W        W20401  37.339  38.491   3.379
58981W        W20402   2.720  23.163  13.871
58982W        W20403   5.784  38.386  12.438
58983W        W20404  34.387  13.749   4.354
58984W        W20405  43.963   4.908  12.508
58985W        W20406  32.956  25.547  14.013
58986W        W20407  39.405  27.500   1.807
58987W        W20408  32.105  37.038   3.831
58988W        W20409   1.834  28.013   3.333
58989W        W20410  18.194  31.945  12.559
58990W        W20411  23.084  18.237  10.404
58991W        W20412  31.483   7.737  12.392
58992W        W20413   3.428  39.467   4.154
58993W        W20414  13.160  16.791   4.832
58994W        W20415  44.263   3.925   1.291
58995W        W20416   2.813  18.782   1.827
58996W        W20417  33.584  24.076  11.863
58997W        W20418  13.736  22.586   4.241
58998W        W20419  39.490  25.157   5.216
58999W        W20420  30.088  23.181  14.817
59000W        W20421  19.123   4.873   0.245
59001W        W20422   6.874  42.348  10.962
59002W        W20423  28.094  10.865  11.888
59003W        W20424   7.305   9.785  12.510
59004W        W20425  42.410  30.058   0.278
59005W        W20426  40.027  27.566   2.685
59006W        W20427  30.623  40.957   0.423
59007W        W20428   4.714  23.633   0.794
59008W        W20429   5.737  34.885  13.051
59009W        W20430  32.629   6.365  13.023
59010W        W20431   8.299   5.882   4.136
59011W        W20432  39.434   3.915  14.396
59012W        W20433   1.306   6.724  12.531
59013W        W20434  37.975  34.977   1.876
59014W        W20435   7.269   7.837   0.251
59015W        W20436  31.053  22.066   0.849
59016W        W20437  11.357  22.649  13.325
59017W        W20438  20.104  31.581  11.586
59018W        W20439   6.771  22.694  14.902
59019W        W20440  44.492  42.448  13.362
59020W        W20441   0.883  15.581  11.983
59021W        W20442   6.893  12.207   0.870
59022W        W20443   2.778  32.486  12.056
59023W        W20444  27.954  27.108   1.866
59024W        W20445   1.903  18.217   1.343
59025W        W20446   5.878  12.325   4.213
59026W        W20447  19.645  39.008  11.375
59027W        W20448  44.806  18.070   4.776
59028W        W20449   1.957  34.915   2.739
59029W        W20450   0.409  22.126  13.475
59030W        W20451  17.719  35.580   4.826
59031W        W20452   2.818  43.844   3.808
59032W        W20453   8.891  18.087  10.612
59033W        W20454  36.946  10.654   1.338
59034W        W20455  25.631  39.327  13.964
59035W        W20456   1.948  42.908   0.358
59036W        W20457   6.258  11.221   1.257
59037W        W20458  28.452   1.319   0.319
59038W        W20459  18.075  32.589   5.746
59039W        W20460  41.803  30.937   2.381
59040W        W20461  16.237  40.910   0.454
59041W        W20462  40.880   1.807  11.447
59042W        W20463  35.369  28.447  11.046
59043W        W20464   6.364  32.981   2.688
59044W        W20465  24.580  41.944   4.648
59045W        W20466  15.145   9.864   1.269
59046W        W20467  15.744  18.652  10.490
59047W        W20468  36.588  32.562  12.913
59048W        W20469  28.950  41.961  12.365
59049W        W20470  13.307  31.580  13.050
59050W        W20471  18.601  41.304   0.955
59051W        W20472  35.038  33.592  11.005
59052W        W20473  28.009  21.128   2.794
59053W        W20474   7.847  28.626   1.316
59054W        W20475  23.194  30.634  12.042
59055W        W20476  28.938  22.138  12.868
59056W        W20477   5.406  28.450  14.031
59057W        W20478  40.534  24.700  13.493
59058W        W20479   4.441  21.148   3.637
59059W        W20480   4.425  42.450   4.148
59060W        W20481  21.590  28.511  13.351
59061W        W20482  40.378   0.347  11.927
59062W        W20483   0.329   5.272   2.338
59063W        W20484  11.720  40.412  10.486
59064W        W20485   8.745   0.889  13.334
59065W        W20486  30.107  40.532   3.148
59066W        W20487  16.670  15.140   4.803
59067W        W20488  36.876  29.474   1.822
59068W        W20489  32.990  36.575   0.754
59069W        W20490  43.788  37.869   1.365
59070W        W20491  29.121  16.672  12.067
59071W        W20492   5.888  15.299   4.634
59072W        W20493  13.167  18.573   1.411
59073W        W20494  43.351  15.317   9.932
59074W        W20495   8.182  35.391  11.379
59075W        W20496  19.615  18.643  13.803
59076W        W20497  40.467  25.076  12.412
59077W        W20498  18.749  34.426  14.341
59078W        W20499  43.411  14.664  12.515
59079W        W20500  38.352  19.751  12.992
59080W        W20501  24.640  38.836  13.338
59081W        W20502  14.197  35.388   0.863
59082W        W20503  10.348   2.451   2.201
59083W        W20504   5.382  31.419   0.732
59084W        W20505  43.439   8.841   1.344
59085W        W20506  27.964  24.668   2.778
59086W        W20507  36.458  15.246  12.561
59087W        W20508  20.670  26.160   2.397
59088W        W20509   2.411  40.902   2.216
59089W        W20510  34.447  19.069   3.699
59090W        W20511  20.766   3.731  10.640
59091W        W20512   0.372  27.972   0.929
59092W        W20513   8.655  36.513   0.381
59093W        W20514  21.754   2.357  12.396
59094W        W20515   0.367  43.965  11.584
59095W        W20516   3.904  42.957  14.960
59096W        W20517  15.260   0.417   3.748
59097W        W20518  24.551  21.702  12.527
59098W        W20519  18.706  11.304   3.316
59099W        W20520  13.767  36.881   0.960
59100W        W20521  24.981  23.531  10.534
59101W        W20522   1.948  39.493  13.053
59102W        W20523  44.339   5.277   4.635
59103W        W20524  10.831  38.013  10.599
59104W        W20525   0.448   8.869  13.346
59105W        W20526  25.659  12.328   2.881
59106W        W20527  31.123  30.643   3.793
59107W        W20528   4.919   5.876   1.761
59108W        W20529   0.349  13.740  10.613
59109W        W20530  39.812  35.382  12.405
59110W        W20531  18.672  36.902   1.438
59111W        W20532   0.419  14.749   2.405
59112W        W20533   5.218   3.435   0.422
59113W        W20534   9.182   4.432   1.870
59114W        W20535  39.342  19.711   2.371
59115W        W20536  38.359  39.425  14.023
59116W        W20537  25.087  11.821   1.817
59117W        W20538  33.524  14.219   3.229
59118W        W20539  24.086  26.189  12.055
59119W        W20540  31.909  29.608  12.389
59120W        W20541  34.877  30.462   2.744
59121W        W20542  31.550  31.982  13.419
59122W        W20543  26.102  33.052  13.981
59123W        W20544  28.470  29.567  12.566
59124W        W20545  35.989  27.010  14.413
59125W        W20546  31.129  33.469   1.846
59126W        W20547  18.187  12.808  13.329
59127W        W20548  39.362   8.375  12.986
59128W        W20549  29.515  25.004  14.491
59129W        W20550  37.976  18.256   3.152
59130W        W20551  23.698  44.362  11.464
59131W        W20552  37.379  39.327   2.247
59132W        W20553  28.962  25.536   2.717
59133W        W20554  22.724  22.184  12.339
59134W        W20555  16.741   3.750   2.314
59135W        W20556  36.365  23.702   1.266
59136W        W20557  30.422  25.476  11.931
59137W        W20558  39.892  42.437   1.725
59138W        W20559  11.751  13.709   3.792
59139W        W20560  27.672   3.302   2.787
59140W        W20561  37.456  15.183  10.995
59141W        W20562   8.824  20.104  12.350
59142W        W20563  21.212  17.187   1.238
59143W        W20564  25.588  40.919  12.992
59144W        W20565  15.182   1.404   0.782
59145W        W20566  24.001  11.350   9.947
59146W        W20567  39.920   1.268  13.048
59147W        W20568  34.461  18.186   1.909
59148W        W20569  34.469  22.118   4.161
59149W        W20570  37.405  10.155   1.803
59150W        W20571  33.930  42.407   0.322
59151W        W20572   0.789  35.963   2.218
59152W        W20573  15.290  23.678   2.668
59153W        W20574  44.432   3.423  10.438
59154W        W20575  13.696   3.751  14.003
59155W        W20576  18.740  41.514  10.468
59156W        W20577  40.021  34.510   4.225
59157W        W20578  15.291  41.414  12.890
59158W        W20579  30.430  43.322   1.364
59159W        W20580  11.360  21.054   4.124
59160W        W20581  12.815  28.441   1.441
59161W        W20582   8.338  33.509  12.430
59162W        W20583   3.722  38.898   4.202
59163W        W20584  38.854  12.647   9.930
59164W        W20585  26.514   3.290  14.391
59165W        W20586   1.287  23.068  12.062
59166W        W20587  14.337  28.562  11.381
59167W        W20588  21.621  27.949  12.997
59168W        W20589  25.560  10.789   1.363
59169W        W20590  22.739  36.409  12.512
59170W        W20591  11.304  22.043  14.323
59171W        W20592  32.435  26.502   0.253
59172W        W20593  15.109  23.688  12.539
59173W        W20594  19.683  42.798  13.845
59174W        W20595  30.564  35.365   2.248
59175W        W20596  19.748  39.957   4.143
59176W        W20597  39.506  20.540   3.358
59177W        W20598  27.466  19.046   2.755
59178W        W20599  19.579   8.250   9.967
59179W        W20600  18.084  40.495  13.477
59180W        W20601  41.320   9.849  14.479
59181W        W20602  32.607  17.748   3.196
59182W        W20603   3.409  29.041   1.369
59183W        W20604  20.210  16.771   5.571
59184W        W20605  28.564  24.031   3.350
59185W        W20606  28.127   7.227  14.800
59186W        W20607  10.645   3.334   4.252
59187W        W20608  18.759  41.347   3.283
59188W        W20609  28.466  33.098  13.420
59189W        W20610   6.225  43.984  11.060
59190W        W20611   3.334  31.961  14.857
59191W        W20612   4.210  16.729   4.674
59192W        W20613  33.952  31.604   3.180
59193W        W20614  27.479   9.158   3.805
59194W        W20615  35.497  19.666  12.064
59195W        W20616  10.216  37.889  12.389
59196W        W20617  23.097  37.474   3.653
59197W        W20618  18.753  21.692  11.570
59198W        W20619   7.410  41.922   0.808
59199W        W20620   6.319  44.971  13.993
59200W        W20621   5.420  22.526  11.548
59201W        W20622  31.068  16.696  12.872
59202W        W20623  23.144   7.786  13.016
59203W        W20624  21.026  31.620   1.312
59204W        W20625   4.327  39.476   4.699
59205W        W20626  17.063   9.293   1.336
59206W        W20627  16.700  22.222   4.114
59207W        W20628   0.289  18.573   0.874
59208W        W20629  23.126   1.752  12.849
59209W        W20630  44.781   4.922   3.871
59210W        W20631  14.155   3.251  11.127
59211W        W20632  37.048  12.611   3.718
59212W        W20633  32.048  28.981  11.011
59213W        W20634  15.133  17.176   1.819
59214W        W20635  40.917  11.854   9.996
59215W        W20636  36.008   3.923  13.395
59216W        W20637  29.046  44.433   4.233
59217W        W20638   0.263  21.672   0.483
59218W        W20639   1.909  20.597   2.858
59219W        W20640  16.656  26.168  12.890
59220W        W20641  27.535  19.064   1.695
59221W        W20642  11.316  18.187  14.417
59222W        W20643  27.196  43.318  13.899
59223W        W20644  44.990  24.685  10.501
59224W        W20645  43.349  30.005   3.859
59225W        W20646  34.547  22.131   3.218
59226W        W20647  10.235  20.193   3.231
59227W        W20648   6.878   6.189  11.986
59228W        W20649  40.344  26.024   4.197
59229W        W20650  12.214  18.248  14.516
59230W        W20651  15.323  38.386   4.660
59231W        W20652  25.622  17.062   2.390
59232W        W20653   0.265  18.210  13.817
59233W        W20654  31.496   1.784  14.445
59234W        W20655  12.757  41.952  12.383
59235W        W20656  10.357   5.353   0.481
59236W        W20657  19.595  36.369   4.163
59237W        W20658  37.476  17.686  13.435
59238W        W20659  28.647  42.974   4.655
59239W        W20660   2.904  24.635  11.884
59240W        W20661  26.205  11.212   1.699
59241W        W20662  12.223   3.925  10.922
59242W        W20663   2.393  30.933   3.843
59243W        W20664   7.322  15.766   4.689
59244W        W20665  30.944  35.511  10.942
59245W        W20666  18.763  28.638   0.403
59246W        W20667   2.452  43.327  14.834
59247W        W20668  17.163  14.804  13.360
59248W        W20669  33.542  34.582  10.991
59249W        W20670  30.424  36.905  11.519
59250W        W20671   9.773  39.517  11.524
59251W        W20672  21.208  23.008  14.949
59252W        W20673  41.826  24.223   1.811
59253W        W20674  34.036  43.827   1.348
59254W        W20675  35.933   9.214   2.238
59255W        W20676   5.842  27.137  11.551
59256W        W20677  17.746  30.560  14.418
59257W        W20678   4.875  13.750  12.092
59258W        W20679  28.949  10.345  12.911
59259W        W20680  10.794  26.088  14.278
59260W        W20681  16.184  36.397  12.835
59261W        W20682  25.545  25.172   1.412
59262W        W20683  34.608  23.673  10.521
59263W        W20684   9.279  34.034  12.948
59264W        W20685   2.244  27.128  11.575
59265W        W20686  29.986   2.961  11.611
59266W        W20687  24.198  26.177   0.748
59267W        W20688  27.196  28.947   3.385
59268W        W20689   2.371  33.460   5.179
59269W        W20690   4.768   8.262   0.882
59270W        W20691  31.040  26.474  13.996
59271W        W20692  34.945  17.179   4.630
59272W        W20693  40.961  21.605  11.404
59273W        W20694  42.495  23.204   3.847
59274W        W20695  35.959  31.636  13.480
59275W        W20696  40.985  31.525  12.889
59276W        W20697  39.032  27.498   2.274
59277W        W20698  18.072  32.069  14.809
59278W        W20699  25.032  34.477  11.607
59279W        W20700  33.903  23.107   3.670
59280W        W20701   1.330  30.156  13.793
59281W        W20702   7.806  12.308  11.016
59282W        W20703  30.070   1.865   0.953
59283W        W20704  34.975   4.921   4.298
59284W        W20705  37.416  36.378  11.611
59285W        W20706  15.663  27.592  12.456
59286W        W20707  39.317  12.172  11.017
59287W        W20708  29.627  18.663   4.343
59288W        W20709  41.421  23.521  12.960
59289W        W20710  35.559  27.115  13.536
59290W        W20711  17.083   5.823   0.779
59291W        W20712  18.276  40.823   1.285
59292W        W20713   7.709  29.517  10.007
59293W        W20714  18.060   3.274   3.677
59294W        W20715  31.029   1.977   0.388
59295W        W20716   7.293  25.611  10.596
59296W        W20717  35.028   6.377   4.760
59297W        W20718  38.485   4.290  11.484
59298W        W20719  18.155   4.937   3.753
59299W        W20720  38.071   2.254  13.335
59300W        W20721   0.923  40.498   2.411
59301W        W20722  39.428  26.484   2.366
59302W        W20723  27.459  40.044   4.694
59303W        W20724  12.190  25.638  14.440
59304W        W20725  17.644  27.106   4.744
59305W        W20726  13.222  26.027  11.065
59306W        W20727  30.412  27.460   0.759
59307W        W20728  19.041  18.660   1.262
59308W        W20729  35.101  31.940   5.303
59309W        W20730  22.031  22.244   4.251
59310W        W20731   8.364   6.864  12.350
59311W        W20732  25.540  39.010  10.465
59312W        W20733   7.289  22.738  10.902
59313W        W20734   5.865  22.012  14.512
59314W        W20735  39.062  30.946  11.611
59315W        W20736  13.745  18.700   1.307
59316W        W20737   3.416  28.157  11.594
59317W        W20738   4.285  15.730  12.066
59318W        W20739   2.878  13.788  10.599
59319W        W20740  32.013   8.862   3.821
59320W        W20741  16.741  21.261   2.209
59321W        W20742  33.473  39.540   4.641
59322W        W20743  15.227   6.233  12.403
59323W        W20744  24.601  26.052  13.434
59324W        W20745  39.360  34.609  14.811
59325W        W20746  35.054  19.056   1.820
59326W        W20747  37.956  25.153   2.822
59327W        W20748   9.212  36.423  14.841
59328W        W20749   8.253  15.763  14.305
59329W        W20750   5.854  26.066  11.595
59330W        W20751  10.686  19.097   2.851
59331W        W20752  42.951  44.350  13.312
59332W        W20753  44.958  32.462   3.345
59333W        W20754  27.464  39.876  12.017
59334W        W20755  24.040  26.959   1.828
59335W        W20756  18.258  39.444   3.798
59336W        W20757  26.640   8.765   2.369
59337W        W20758  13.249   0.389  11.443
59338W        W20759  11.169  32.112   4.340
59339W        W20760   3.314  25.110  14.927
59340W        W20761  30.080  35.046  10.437
59341W        W20762  44.285  25.162  11.099
59342W        W20763   6.883  13.249  11.924
59343W        W20764  11.633  36.381  12.952
59344W        W20765  42.855  41.419   1.266
59345W        W20766  24.623  12.660   3.869
59346W        W20767   5.434  34.486  10.558
59347W        W20768   5.800  25.150   4.252
59348W        W20769  42.501   4.701  11.012
59349W        W20770  11.800  19.560   2.781
59350W        W20771   6.410  11.363   0.824
59351W        W20772  33.513   5.811  12.509
59352W        W20773   1.296   1.744  11.917
59353W        W20774  34.116  22.573   4.236
59354W        W20775   6.263  17.191   1.747
59355W        W20776  37.896  34.506  10.938
59356W        W20777  23.502  35.460  12.873
59357W        W20778  40.924  16.720  12.932
59358W        W20779  10.720  15.184   3.721
59359W        W20780  43.959  39.321   0.735
59360W        W20781  40.834  17.265  14.302
59361W        W20782  18.143  11.702   0.949
59362W        W20783   9.338   5.199  11.077
59363W        W20784  38.344  28.962  11.946
59364W        W20785   4.246  20.525  13.884
59365W        W20786  33.516  22.671  11.992
59366W        W20787  39.346  17.252   3.649
59367W        W20788   5.363  29.616  10.590
59368W        W20789  28.123  40.008   3.373
59369W        W20790  19.090  18.747  13.050
59370W        W20791  29.948  11.739  11.396
59371W        W20792  37.836  26.128   4.250
59372W        W20793  20.610  34.513  10.453
59373W        W20794  21.590  36.925  13.867
59374W        W20795  39.848  36.440  10.505
59375W        W20796  23.699  30.540  11.468
59376W        W20797  24.227   6.298   1.369
59377W        W20798  15.633  27.610   4.766
59378W        W20799  29.966  15.738   2.899
59379W        W20800  12.280  39.475  10.969
59380W        W20801  38.421  36.965   0.313
59381W        W20802   7.360  43.401  10.612
59382W        W20803  25.523  11.144   3.798
59383W        W20804  23.576  26.032  13.855
59384W        W20805  36.568  15.306   0.756
59385W        W20806  34.120  39.406  12.976
59386W        W20807  19.738  28.493   2.686
59387W        W20808  36.082  18.597  13.826
59388W        W20809  23.501  42.411   2.667
59389W        W20810  40.496   6.426  11.046
59390W        W20811  41.444  10.175   1.904
59391W        W20812  23.163  40.544   1.922
59392W        W20813  24.203  28.983   0.895
59393W        W20814   0.904   6.745   2.330
59394W        W20815  16.732  15.656   2.840
59395W        W20816  22.746  12.137  13.442
59396W        W20817  28.081  31.530  11.989
59397W        W20818  37.065  36.878   0.377
59398W        W20819   4.798  23.232   2.858
59399W        W20820  24.042   5.751  13.532
59400W        W20821  19.225  41.032   2.230
59401W        W20822  42.856  40.320  13.008
59402W        W20823  25.105   4.804  10.588
59403W        W20824  36.544  39.976   2.324
59404W        W20825  29.061  22.720  10.486
59405W        W20826  23.562  44.791   3.824
59406W        W20827  35.380  20.185   2.306
59407W        W20828   2.882  23.635   1.240
59408W        W20829  12.841   8.774  13.314
59409W        W20830  28.555  14.740  13.834
59410W        W20831  36.914  25.711  11.105
59411W        W20832  20.543  29.990   4.751
59412W        W20833  25.488  19.672   4.124
59413W        W20834  12.262   5.369  13.803
59414W        W20835   6.676  43.997   0.415
59415W        W20836  11.186  36.013  11.942
59416W        W20837  14.701  30.921  14.468
59417W        W20838  12.752  10.822   4.606
59418W        W20839  39.943  25.609   3.644
59419W        W20840  11.272  26.968  13.538
59420W        W20841  42.024  11.845   0.931
59421W        W20842  42.350  19.251  11.425
59422W        W20843  36.580  20.641  12.900
59423W        W20844  23.077  40.335  11.901
59424W        W20845  39.494  26.019  11.529
59425W        W20846  42.023   8.163  10.472
59426W        W20847  17.195  23.211   1.758
59427W        W20848  10.756  29.550  11.893
59428W        W20849  22.592  29.081   4.323
59429W        W20850  19.696  25.500  12.457
59430W        W20851  44.432   3.843  14.384
59431W        W20852   5.828  39.873  12.341
59432W        W20853  41.364  23.494   1.237
59433W        W20854  36.562  20.622   0.352
59434W        W20855   9.644  27.468  13.922
59435W        W20856  18.710  25.141  13.382
59436W        W20857  20.126  16.624   9.940
59437W        W20858  28.135  22.169  12.090
59438W        W20859   0.318   9.730  13.806
59439W        W20860   8.346  28.457  11.128
59440W        W20861  27.466  42.955   2.806
59441W        W20862  30.454  19.199  10.984
59442W        W20863  26.545  43.958   1.277
59443W        W20864  32.987  22.573   4.764
59444W        W20865  16.771  25.052  11.918
59445W        W20866  23.538   1.246   3.205
59446W        W20867  27.023  44.378  11.380
59447W        W20868  18.588  24.692   0.254
59448W        W20869  18.596  42.010  11.009
59449W        W20870  43.859  19.040   1.718
59450W        W20871  20.692  25.612  10.915
59451W        W20872  27.467  34.572  10.636
59452W        W20873   5.376  39.809  12.574
59453W        W20874  26.998  18.174   3.858
59454W        W20875  24.618  10.192  10.453
59455W        W20876  14.609  29.468   2.377
59456W        W20877   2.396  35.927   5.208
59457W        W20878  44.500  32.425  11.499
59458W        W20879   9.748  39.986  10.138
59459W        W20880  15.724  27.143  10.905
59460W        W20881  39.965  41.993   0.912
59461W        W20882  22.584  18.267  14.816
59462W        W20883   0.385  35.403  14.928
59463W        W20884  10.635  11.303  11.889
59464W        W20885  44.847  22.595   0.811
59465W        W20886  18.665  40.953  10.999
59466W        W20887  16.273   5.268   0.466
59467W        W20888  10.227  23.528   4.751
59468W        W20889  29.446  11.689  13.943
59469W        W20890  16.658  18.749  14.363
59470W        W20891  13.680  36.424  12.869
59471W        W20892  41.294  17.747   0.411
59472W        W20893  17.256   7.842  12.940
59473W        W20894  34.020   4.423   2.408
59474W        W20895  44.768  28.048   1.447
59475W        W20896  30.956  18.698  12.431
59476W        W20897  33.557  23.732   2.344
59477W        W20898  37.020  17.301   1.764
59478W        W20899  12.307  29.483  14.377
59479W        W20900  38.338  37.544   4.796
59480W        W20901  35.412   3.772   5.088
59481W        W20902  27.577   1.825  13.481
59482W        W20903  26.975  15.592   4.141
59483W        W20904  32.431  13.674   4.230
59484W        W20905   8.806   6.739   1.746
59485W        W20906   0.889  25.032  10.062
59486W        W20907  12.239  15.235  12.544
59487W        W20908   3.318  27.519  14.327
59488W        W20909   0.904  33.119   2.883
59489W        W20910  33.130   2.841   3.335
59490W        W20911  34.444  37.947  11.571
59491W        W20912   7.684  16.145  10.532
59492W        W20913   4.293  27.171  11.391
59493W        W20914  28.672  21.115   3.796
59494W        W20915  12.739   5.811   1.407
59495W        W20916  33.922   6.820  12.014
59496W        W20917  38.515  28.094  14.450
59497W        W20918   1.797   0.901  14.823
59498W        W20919  38.862  42.377   1.275
59499W        W20920  36.458  12.782  10.976
59500W        W20921  32.028  21.075   5.144
59501W        W20922  10.341   8.841   1.219
59502W        W20923  36.377  29.085  10.593
59503W        W20924  39.470   4.358   2.225
59504W        W20925  27.027  35.566   0.306
59505W        W20926  34.572  20.171  14.451
59506W        W20927   1.885  24.507  12.471
59507W        W20928  35.490  12.340   1.228
59508W        W20929   6.244  25.009  14.512
59509W        W20930   7.683  19.650   3.158
59510W        W20931   9.771  41.901   4.743
59511W        W20932  19.046  42.364  12.992
59512W        W20933  24.978  17.712   3.701
59513W        W20934   7.739  31.115  13.535
59514W        W20935   2.881  35.048   2.690
59515W        W20936  36.846  37.381  14.505
59516W        W20937  32.532  28.132   0.766
59517W        W20938  38.981  19.070   2.771
59518W        W20939  24.163  26.179  14.368
59519W        W20940  44.281  29.112   1.257
59520W        W20941  42.884  23.522  13.918
59521W        W20942  18.149  12.786   1.258
59522W        W20943  28.990  27.587   4.227
59523W        W20944  23.640   3.439  10.958
59524W        W20945   4.429  10.263  13.045
59525W        W20946  21.153   2.794   2.325
59526W        W20947   5.333  28.477   5.605
59527W        W20948  10.660  28.662  10.606
59528W        W20949  24.080  19.080   0.473
59529W        W20950  26.664   1.925  13.817
59530W        W20951   2.775   8.687  10.424
59531W        W20952  40.348  14.106  10.000
59532W        W20953  43.939  20.724  13.958
59533W        W20954  24.711  28.176   1.730
59534W        W20955   5.331  18.649   3.753
59535W        W20956  34.112   9.305  13.493
59536W        W20957   4.824  30.583  10.039
59537W        W20958   7.206   6.190  11.540
59538W        W20959   8.171  36.466   4.625
59539W        W20960  11.192  44.391  14.938
59540W        W20961  26.962   3.952   0.275
59541W        W20962  28.988  38.059  14.483
59542W        W20963  42.424  29.166   4.302
59543W        W20964  36.489  40.853   3.146
59544W        W20965  10.209  25.670   2.368
59545W        W20966  36.050  42.947   0.377
59546W        W20967  22.684  12.269   2.699
59547W        W20968  26.556  37.884   3.744
59548W        W20969  12.186   0.410  10.624
59549W        W20970   5.419  23.014   4.295
59550W        W20971  11.708  37.560  10.534
59551W        W20972   4.766  35.024   0.754
59552W        W20973  35.933  39.887  10.989
59553W        W20974   2.944  22.732  14.489
59554W        W20975  28.589  21.588  10.565
59555W        W20976   7.266  15.319  13.912
59556W        W20977  31.503  42.980   3.683
59557W        W20978  16.258  37.534  13.339
59558W        W20979  36.553  36.512   1.889
59559W        W20980  30.089   1.812  13.481
59560W        W20981  37.457  24.713  12.059
59561W        W20982   5.232  29.463  14.019
59562W        W20983   5.735  30.616   1.734
59563W        W20984   9.307  39.428  13.062
59564W        W20985  39.052  18.178  14.013
59565W        W20986  27.116   7.360   4.231
59566W        W20987  39.335  23.061  14.775
59567W        W20988   7.685  35.860   0.378
59568W        W20989  12.196   8.392   2.187
59569W        W20990  27.091  39.346  12.434
59570W        W20991   5.925  24.222   3.641
59571W        W20992  11.840  18.225   4.193
59572W        W20993  24.513   8.867  11.908
59573W        W20994  18.594  36.857  13.338
59574W        W20995  27.153  12.790  13.026
59575W        W20996   1.928  36.568   4.627
59576W        W20997   0.467   4.253   2.272
59577W        W20998  18.142   6.303  11.037
59578W        W20999  37.554  17.232  12.467
59579W        W21000  30.912   6.711   4.809
59580W        W21001   2.239  27.011   2.214
59581W        W21002  19.100   9.698  10.640
59582W        W21003  23.512   8.883  13.792
59583W        W21004  34.001  38.853  13.408
59584W        W21005  12.189   4.858   3.801
59585W        W21006  27.026  24.492  11.533
59586W        W21007  28.067  23.585   0.726
59587W        W21008   4.311  22.702   0.865
59588W        W21009  30.569  37.461   0.931
59589W        W21010  24.644  23.021  11.512
59590W        W21011   5.324  40.919  11.035
59591W        W21012  26.614  10.816  13.462
59592W        W21013   7.728  25.036   0.370
59593W        W21014   4.250  34.896   4.264
59594W        W21015  12.228  21.068   1.810
59595W        W21016  17.061  13.835  11.886
59596W        W21017  13.760  17.788  13.407
59597W        W21018   4.368  18.262   4.245
59598W        W21019   7.872  36.875  10.938
59599W        W21020  29.664  40.799   3.864
59600W        W21021  40.996  10.199   3.731
59601W        W21022  32.468  13.346  11.888
59602W        W21023  22.640  30.625   3.287
59603W        W21024  30.465  28.067  12.088
59604W        W21025   9.229  22.597   1.899
59605W        W21026   0.463  36.507  12.555
59606W        W21027  10.267  20.075  11.444
59607W        W21028  21.636   3.286   0.812
59608W        W21029  34.454  42.485  14.891
59609W        W21030  24.609  14.230   2.732
59610W        W21031  44.792   2.389  14.832
59611W        W21032  28.090  12.278  11.855
59612W        W21033  30.624  18.073  13.462
59613W        W21034  36.878  18.615  13.994
59614W        W21035  21.547   0.975  10.445
59615W        W21036  22.688  14.147  12.074
59616W        W21037  44.780  18.202  12.381
59617W        W21038   9.868  37.440   2.774
59618W        W21039  36.483  27.551   1.374
59619W        W21040  14.264  29.453  14.018
59620W        W21041  29.153  31.028  13.962
59621W        W21042  40.398  39.475  11.002
59622W        W21043  15.205  16.758   1.766
59623W        W21044  28.620   8.893   2.883
59624W        W21045  33.027  36.969  12.024
59625W        W21046  11.182  37.075   2.302
59626W        W21047  31.563  24.065  13.418
59627W        W21048   1.469  18.684   1.819
59628W        W21049  20.126  19.177  12.978
59629W        W21050  42.870  28.941  12.394
59630W        W21051  40.516  32.609  13.812
59631W        W21052  26.487  34.376  11.593
59632W        W21053  33.587  15.303   1.853
59633W        W21054  26.137  22.030   2.221
59634W        W21055  16.687  33.607   3.791
59635W        W21056  34.053   5.239  10.574
59636W        W21057  18.707  38.384   0.409
59637W        W21058  25.574  38.009  13.953
59638W        W21059   7.236   2.722   4.199
59639W        W21060  20.220  24.546  13.377
59640W        W21061  17.142  30.948   5.645
59641W        W21062  41.832  44.866   0.376
59642W        W21063  20.531  28.009  10.582
59643W        W21064  44.297  25.124  13.006
59644W        W21065  40.968  15.295  12.050
59645W        W21066  18.579  23.561  14.490
59646W        W21067  16.685   3.877  12.341
59647W        W21068  19.637  10.710   4.614
59648W        W21069  40.991   7.368  10.903
59649W        W21070  15.624  44.882   1.828
59650W        W21071  32.042   5.768   4.137
59651W        W21072  27.953  44.885   2.266
59652W        W21073  36.891  25.212   4.124
59653W        W21074  39.857  30.647   2.782
59654W        W21075  37.373  22.052  11.005
59655W        W21076  28.073   4.704  11.462
59656W        W21077  33.064  14.153   2.363
59657W        W21078  40.456   3.264  11.580
59658W        W21079   7.242   5.856   2.727
59659W        W21080  16.206   7.814   0.250
59660W        W21081  27.081  39.464   4.755
59661W        W21082  32.066  31.043   4.249
59662W        W21083  15.759  42.794   0.844
59663W        W21084  13.343  23.092   2.226
59664W        W21085  29.504  29.629  12.468
59665W        W21086   6.896  42.418  12.837
59666W        W21087  17.178  17.150  12.004
59667W        W21088  11.794  34.538  14.817
59668W        W21089  15.668  42.436   3.214
59669W        W21090  23.038   6.796  12.970
59670W        W21091  11.153  42.354   0.373
59671W        W21092  43.934  32.925   2.247
59672W        W21093  28.539  42.363  11.447
59673W        W21094  18.622   4.827   0.892
59674W        W21095  18.252  19.155  12.854
59675W        W21096   7.409  24.100   3.355
59676W        W21097   1.751   2.912  13.847
59677W        W21098  13.111  25.707   1.853
59678W        W21099   7.734  15.253  10.472
59679W        W21100  25.974  22.018  13.906
59680W        W21101  11.264  42.303  12.454
59681W        W21102   8.212  42.788  14.930
59682W        W21103  42.794  15.299  12.462
59683W        W21104   3.386  41.386  13.499
59684W        W21105   3.219   5.763  13.005
59685W        W21106  11.130  31.002  12.053
59686W        W21107   6.299  20.053   1.449
59687W        W21108  17.295   9.678  12.957
59688W        W21109  22.548  41.939  11.979
59689W        W21110  19.612  12.799  11.098
59690W        W21111  26.064  33.882  14.953
59691W        W21112  28.152  20.718  10.627
59692W        W21113  40.322  11.220   1.818
59693W        W21114   1.931   0.357   1.211
59694W        W21115  19.596  35.509  12.373
59695W        W21116  44.300   8.342  13.508
59696W        W21117  26.068  31.522   1.268
59697W        W21118  17.242   7.381   0.405
59698W        W21119  31.080  28.665   0.294
59699W        W21120   2.346  28.094   4.756
59700W        W21121  14.602  19.155   1.847
59701W        W21122  40.455  32.096  14.515
59702W        W21123  36.381   3.258  13.938
59703W        W21124  33.059  40.871   2.818
59704W        W21125   5.763  42.799   1.255
59705W        W21126  23.124  42.359   1.280
59706W        W21127  44.399  26.573  12.900
59707W        W21128  10.233  12.301  13.999
59708W        W21129   9.175  22.249  11.563
59709W        W21130  32.990   3.807  10.907
59710W        W21131  35.933  28.931  14.961
59711W        W21132  26.064  11.850   4.678
59712W        W21133  33.420  33.487   5.155
59713W        W21134  33.038  44.899   4.281
59714W        W21135  18.228  40.849  11.898
59715W        W21136  32.117  29.530   4.260
59716W        W21137  29.523  13.204  12.351
59717W        W21138  30.142  34.455   4.307
59718W        W21139  25.060  38.369  10.891
59719W        W21140   2.956  21.675   1.694
59720W        W21141  22.617  31.037  13.039
59721W        W21142  31.594  18.659   3.316
59722W        W21143  25.005  19.558   0.826
59723W        W21144  38.508  11.656   3.651
59724W        W21145  23.711  25.595  10.941
59725W        W21146  20.108  10.802  12.825
59726W        W21147   8.383   9.237  12.368
59727W        W21148  30.552  44.831   2.216
59728W        W21149  26.994  32.033   1.715
59729W        W21150  38.022  23.013   1.879
59730W        W21151   7.250  10.752  12.038
59731W        W21152  29.173  14.800  13.003
59732W        W21153   4.436   1.942  14.316
59733W        W21154  37.446  30.070   1.426
59734W        W21155  41.014   1.772   2.205
59735W        W21156  15.223  42.930  12.466
59736W        W21157  27.164  30.968  12.345
59737W        W21158  12.687  17.682   1.223
59738W        W21159   7.699  34.606   3.808
59739W        W21160  25.038  40.403   0.908
59740W        W21161  19.076  19.149   0.421
59741W        W21162  14.319  35.562  14.279
59742W        W21163  26.973  23.582  13.353
59743W        W21164   6.794  15.329   3.284
59744W        W21165   7.360   3.780   1.417
59745W        W21166  21.740  27.963  10.505
59746W        W21167  24.621  15.746   0.834
59747W        W21168  33.882   2.852   2.863
59748W        W21169  28.111  25.669   0.825
59749W        W21170   8.393  35.859   2.708
59750W        W21171  16.104  32.006  14.991
59751W        W21172  30.434  12.690  14.969
59752W        W21173  25.563  29.966  13.958
59753W        W21174   7.190  32.557  10.429
59754W        W21175   5.824  19.649  11.052
59755W        W21176  34.572  12.704   4.642
59756W        W21177  24.540   1.787  12.490
59757W        W21178  10.384   7.310  10.956
59758W        W21179  39.854  18.553  13.406
59759W        W21180  21.100  43.498   2.701
59760W        W21181  10.156  38.467   2.791
59761W        W21182  20.618  25.558   1.905
59762W        W21183  28.974   8.396  14.876
59763W        W21184  36.939  17.291  10.497
59764W        W21185  28.076  32.391   1.277
59765W        W21186  25.587   4.736  10.447
59766W        W21187  28.004   3.732   9.926
59767W        W21188  44.416  43.345   0.893
59768W        W21189  18.563  28.149  11.905
59769W        W21190  29.023  20.597   2.366
59770W        W21191  24.137   0.911  14.887
59771W        W21192  17.750  40.976  13.820
59772W        W21193   2.939  40.890   4.127
59773W        W21194  27.146  17.739  14.004
59774W        W21195  21.147  29.025   2.855
59775W        W21196  31.993  38.402   2.293
59776W        W21197  14.276  40.922   1.864
59777W        W21198  11.807  36.547  10.446
59778W        W21199  12.628  15.594   0.406
59779W        W21200   5.303  30.965  12.380
59780W        W21201  32.513  41.938  14.323
59781W        W21202  27.056  33.038  11.860
59782W        W21203  15.579  44.997  13.876
59783W        W21204  31.153  17.586   4.671
59784W        W21205  31.026  20.620   1.776
59785W        W21206  33.077  11.179  10.961
59786W        W21207  33.606  29.060   1.701
59787W        W21208  20.631  23.119   4.682
59788W        W21209  23.189  28.043  10.930
59789W        W21210  13.117  29.139   3.640
59790W        W21211  12.756  13.303  10.484
59791W        W21212  17.785  15.763   9.987
59792W        W21213  15.258  11.727   4.134
59793W        W21214  20.643  32.491   3.175
59794W        W21215  38.508  18.608  12.933
59795W        W21216  34.499  36.463   0.826
59796W        W21217  27.591  22.216   2.778
59797W        W21218   5.231  44.799   0.352
59798W        W21219   2.234  36.478   3.172
59799W        W21220  41.302  31.966   0.244
59800W        W21221  27.603  38.445  11.855
59801W        W21222  41.917  23.105  13.948
59802W        W21223  14.179  31.641   2.819
59803W        W21224   1.839  16.195   1.356
59804W        W21225  23.240  25.964   0.853
59805W        W21226  41.403  17.750   3.230
59806W        W21227  23.996   3.307   2.722
59807W        W21228  11.829   2.832  13.052
59808W        W21229   0.781  34.071   4.126
59809W        W21230   0.457   2.957  11.948
59810W        W21231   5.326  19.626  14.896
59811W        W21232  33.476  40.837   4.599
59812W        W21233  14.619  36.967  14.010
59813W        W21234  39.544  28.145  13.976
59814W        W21235   1.393   1.837  13.328
59815W        W21236   6.757   6.755  12.341
59816W        W21237   0.263  34.111  14.476
59817W        W21238   2.379  33.448   4.205
59818W        W21239  10.175  28.981   4.787
59819W        W21240  13.226  20.194  11.482
59820W        W21241   1.941  10.216  11.579
59821W        W21242  18.223  32.607  13.459
59822W        W21243  44.412  44.348   2.303
59823W        W21244   3.713  31.536   5.583
59824W        W21245  32.992  26.056   4.620
59825W        W21246   5.706  16.651   0.874
59826W        W21247  43.963   7.374   3.719
59827W        W21248   1.449   8.389   3.687
59828W        W21249  29.090   0.388  13.495
59829W        W21250  34.108  33.535  13.425
59830W        W21251   6.317  19.598  14.428
59831W        W21252   6.787  16.132  12.942
59832W        W21253  12.186   4.747   2.339
59833W        W21254  36.984  12.742  14.377
59834W        W21255  39.359  20.233   2.264
59835W        W21256  15.800  33.100  13.411
59836W        W21257  11.224  14.157  12.369
59837W        W21258  36.921  14.768  14.324
59838W        W21259  12.139  29.924   1.699
59839W        W21260  35.580  19.133   3.250
59840W        W21261  40.450  16.092   1.906
59841W        W21262  34.590  21.756   3.835
59842W        W21263  13.293   6.834   4.630
59843W        W21264  37.832  12.344   3.708
59844W        W21265  12.351   6.810  14.448
59845W        W21266  29.058   6.753  10.906
59846W        W21267  11.789  29.452  14.806
59847W        W21268  11.222  25.218  12.935
59848W        W21269   0.400  35.030   1.267
59849W        W21270  17.789  25.671   4.675
59850W        W21271   4.216  23.508  10.052
59851W        W21272  28.077  35.981  12.459
59852W        W21273   8.278  19.162   3.824
59853W        W21274  30.425  10.678   4.618
59854W        W21275  10.376  16.764   1.857
59855W        W21276  27.456  37.471  10.153
59856W        W21277  21.259   7.311  12.081
59857W        W21278  29.098  25.056  14.791
59858W        W21279   2.241  36.463   3.814
59859W        W21280  23.132  44.387   3.315
59860W        W21281   4.419  24.672  12.436
59861W        W21282   3.378  17.147  14.012
59862W        W21283   5.861   7.252  12.832
59863W        W21284  11.173  10.773  12.079
59864W        W21285  39.418  31.021   0.757
59865W        W21286  38.340  21.708  14.793
59866W        W21287  44.855  41.527  13.934
59867W        W21288  41.809  17.787   0.921
59868W        W21289  42.418  30.937   2.179
59869W        W21290  18.589  25.138  10.948
59870W        W21291  31.051  34.050  12.376
59871W        W21292  35.567  43.270  11.491
59872W        W21293  22.539   1.343  10.431
59873W        W21294  36.981  44.375   1.774
59874W        W21295  25.020  17.150  10.493
59875W        W21296  42.381  12.269   4.328
59876W        W21297   4.755  15.174   4.217
59877W        W21298  39.507  40.388   0.834
59878W        W21299   5.767  37.862  10.619
59879W        W21300  10.139   7.417  13.499
59880W        W21301  39.555  14.630   3.282
59881W        W21302   8.314  11.152  12.929
59882W        W21303  32.982  37.408  11.089
59883W        W21304   5.210  26.572  13.381
59884W        W21305  22.731  28.594  12.888
59885W        W21306  33.877  43.384  13.307
59886W        W21307  34.924  16.765  13.938
59887W        W21308  24.167  19.052   2.679
59888W        W21309  25.588   4.359  10.083
59889W        W21310  25.477  22.603   2.416
59890W        W21311  23.041  40.517   4.263
59891W        W21312  40.888  27.160  11.093
59892W        W21313  14.108   4.408  14.458
59893W        W21314  38.532  36.592  10.892
59894W        W21315   4.769   1.434   0.346
59895W        W21316  20.584  33.088  10.977
59896W        W21317  35.856  35.878   4.168
59897W        W21318  26.484  16.156   1.893
59898W        W21319   4.924  27.671  14.422
59899W        W21320  31.515  36.965   1.851
59900W        W21321  38.514   3.712  11.609
59901W        W21322  32.577  27.592  12.968
59902W        W21323  24.538  18.135  11.474
59903W        W21324  34.118   6.893   2.284
59904W        W21325   1.869  39.046   0.293
59905W        W21326  35.042  44.301  11.120
59906W        W21327   7.910  12.700  10.642
59907W        W21328  42.789  22.517  13.795
59908W        W21329  19.745  14.319   0.911
59909W        W21330   3.279  40.043   0.789
59910W        W21331   7.313   8.271   2.189
59911W        W21332   8.384  23.991  10.608
59912W        W21333   0.983  15.747   1.450
59913W        W21334  34.869   8.845  10.089
59914W        W21335  14.111   2.762  13.324
59915W        W21336  42.510  14.234  11.919
59916W        W21337  31.039  39.935   2.325
59917W        W21338  15.582   9.255   4.715
59918W        W21339  12.292  13.315   4.761
59919W        W21340   6.912   5.920   2.243
59920W        W21341  35.477  31.121   3.321
59921W        W21342   9.787  44.493   3.855
59922W        W21343  11.714   7.704   0.752
59923W        W21344  27.520   4.804   3.844
59924W        W21345  38.483  22.201  11.995
59925W        W21346  40.434  33.405   2.705
59926W        W21347  37.861  42.374  12.378
59927W        W21348  41.870  10.863   2.880
59928W        W21349  40.799   8.331   4.715
59929W        W21350  18.186  11.259   2.215
59930W        W21351  38.477   9.697   0.780
59931W        W21352  16.248   6.222  10.987
59932W        W21353  36.044   6.707  13.328
59933W        W21354   7.712  38.561   2.186
59934W        W21355   4.789  26.963   1.361
59935W        W21356  43.016  29.132   1.807
59936W        W21357  38.848  37.841  11.038
59937W        W21358  31.943  29.995  13.422
59938W        W21359   3.912  26.478   0.343
59939W        W21360   5.282  40.382  10.613
59940W        W21361  23.084   3.363  13.427
59941W        W21362  42.805  44.822  13.497
59942W        W21363  44.359  39.916  14.413
59943W        W21364   2.832   7.399  10.612
59944W        W21365  22.032   1.255  13.976
59945W        W21366  19.777  39.847  11.103
59946W        W21367  11.723  26.051   0.254
59947W        W21368  34.527  27.170  13.499
59948W        W21369   3.874  13.701   2.812
59949W        W21370  38.940   6.860  13.986
59950W        W21371  38.906  24.082  13.885
59951W        W21372  35.956  26.129  13.410
59952W        W21373   8.381  41.349   1.354
59953W        W21374  23.509  11.708   2.408
59954W        W21375  15.816  18.240  10.127
59955W        W21376  20.698  39.836  13.319
59956W        W21377  17.242  26.472   5.156
59957W        W21378  34.561   2.399  10.487
59958W        W21379  16.609   8.725   0.948
59959W        W21380   3.942   2.938  14.345
59960W        W21381  19.678  33.967  13.003
59961W        W21382  20.139   9.683   4.141
59962W        W21383   8.765  44.298  11.097
59963W        W21384  12.228  15.765  11.420
59964W        W21385  27.065  16.124   3.168
59965W        W21386   1.385  31.091  12.043
59966W        W21387   0.908   1.938  14.802
59967W        W21388   0.778  28.036  14.465
59968W        W21389  22.239   8.886   0.246
59969W        W21390   2.736  13.106   0.410
59970W        W21391  24.131  19.041  14.514
59971W        W21392  35.023  33.494  10.602
59972W        W21393  20.563  43.839  12.442
59973W        W21394  30.486  28.144   4.660
59974W        W21395  31.528  17.280  12.539
59975W        W21396   5.258  35.383   4.632
59976W        W21397  25.704   4.706  12.927
59977W        W21398  42.510  42.338  14.331
59978W        W21399  17.801  24.638   0.908
59979W        W21400  42.294  14.764  11.409
59980W        W21401  31.993  19.067   1.235
59981W        W21402  30.045  42.789  10.036
59982W        W21403  16.206  21.185   1.866
59983W        W21404   3.759  11.820   2.706
59984W        W21405  19.261  24.195   4.731
59985W        W21406   6.345   5.195  11.916
59986W        W21407  31.430  42.482   2.203
59987W        W21408   7.694  21.646  10.641
59988W        W21409  40.383  25.476   1.860
59989W        W21410  25.578  23.989   2.186
59990W        W21411  29.931  35.375  12.042
59991W        W21412  24.706  34.053  13.957
59992W        W21413  30.646  33.983  14.500
59993W        W21414  39.871  13.208  14.864
59994W        W21415   0.966  14.287   0.887
59995W        W21416  25.118  24.193  11.120
59996W        W21417   4.821  17.767   2.271
59997W        W21418   8.221  23.557   3.629
59998W        W21419   7.857  16.611   1.327
59999W        W21420   6.228  22.704  13.978
60000W        W21421  13.160  42.525   2.299
60001W        W21422   7.780   1.426  13.470
60002W        W21423  25.659  43.467  11.534
60003W        W21424   8.368   8.826   3.256
60004W        W21425   8.815  17.078   1.774
60005W        W21426  32.453   3.915  14.362
60006W        W21427  42.938  24.499   4.807
60007W        W21428  35.377  37.521  12.867
60008W        W21429  25.590  28.558  12.933
60009W        W21430  21.650   4.818   3.318
60010W        W21431  12.232  42.999   1.416
60011W        W21432  29.464  36.418  10.582
60012W        W21433  10.306   9.376   0.357
60013W        W21434  27.100   1.265   4.724
60014W        W21435  25.628  44.497   1.371
60015W        W21436  10.265  38.335   4.622
60016W        W21437  36.087  22.509   2.882
60017W        W21438  16.626  17.247  10.889
60018W        W21439   1.927  23.654  10.489
60019W        W21440  39.910  38.422  11.420
60020W        W21441  24.211  10.756  10.530
60021W        W21442  14.760   6.893  14.368
60022W        W21443  24.541  36.859   2.894
60023W        W21444  43.429  34.976   2.229
60024W        W21445   4.412  14.239   3.215
60025W        W21446  11.198   2.384  11.111
60026W        W21447  32.458   3.373  11.018
60027W        W21448  32.608  34.015   3.314
60028W        W21449  20.762  24.017  13.905
60029W        W21450  10.247  23.049  11.461
60030W        W21451   3.279  43.383   3.854
60031W        W21452  33.114  36.096   4.353
60032W        W21453  36.453  19.109  14.791
60033W        W21454  11.252  21.067   2.685
60034W        W21455  36.472  10.288   4.216
60035W        W21456  17.131   1.283   0.775
60036W        W21457  29.135  31.007  10.599
60037W        W21458  27.085  13.608   1.935
60038W        W21459   3.737  25.561  13.880
60039W        W21460  10.336  44.476   4.613
60040W        W21461   0.762   4.828   0.244
60041W        W21462   1.865  28.126  14.355
60042W        W21463  11.230  21.607  12.996
60043W        W21464  30.625  35.586  11.548
60044W        W21465  35.860  40.508   2.365
60045W        W21466  13.232  37.520  10.616
60046W        W21467  31.646   2.798  12.018
60047W        W21468  21.690  23.065  13.014
60048W        W21469  28.980  34.100   3.301
60049W        W21470  26.557  16.611   3.630
60050W        W21471  18.136   6.761  14.982
60051W        W21472  10.221  25.665  14.801
60052W        W21473  37.512   4.355  12.982
60053W        W21474   5.922  44.462  14.894
60054W        W21475  19.680   3.827  11.007
60055W        W21476  20.220   2.828  14.360
60056W        W21477   2.929  35.378  10.100
60057W        W21478  44.259  25.591  11.397
60058W        W21479   7.829   4.944   5.155
60059W        W21480  33.112   5.346   0.958
60060W        W21481  35.898  32.570   1.839
60061W        W21482  27.691  39.411   2.237
60062W        W21483  28.623  21.235  11.915
60063W        W21484  33.045  13.242  13.826
60064W        W21485  38.072   3.410  11.416
60065W        W21486  11.646  24.522   4.754
60066W        W21487   0.302  38.889   3.169
60067W        W21488  24.211  44.313  11.555
60068W        W21489  41.850  15.268   4.352
60069W        W21490  22.528  23.050  11.900
60070W        W21491  27.957   4.915  12.920
60071W        W21492   1.442  43.885  11.925
60072W        W21493  42.804  37.445  13.997
60073W        W21494  23.991  43.992   1.831
60074W        W21495  30.969  10.209  13.499
60075W        W21496   0.848  14.174   1.862
60076W        W21497  23.012  19.042  11.462
60077W        W21498  32.424  16.590   4.661
60078W        W21499   3.775  17.217   1.846
60079W        W21500  15.728  16.159   0.789
60080W        W21501  38.983  41.508  10.603
60081W        W21502  38.570   4.753  12.911
60082W        W21503  38.414  26.518   4.322
60083W        W21504  17.662  11.221   0.440
60084W        W21505  11.798  15.788  14.863
60085W        W21506  13.297   7.719   1.342
60086W        W21507  25.687  13.120   0.377
60087W        W21508  23.010   3.276   3.662
60088W        W21509  33.602  28.502   1.743
60089W        W21510  12.172  17.792   0.321
60090W        W21511  17.739  35.579   3.289
60091W        W21512  24.704  28.665   2.862
60092W        W21513   8.765   9.878  11.501
60093W        W21514   5.375  28.506   9.655
60094W        W21515  32.421   1.477   3.321
60095W        W21516  33.411  22.710  14.448
60096W        W21517  25.033  30.146  13.020
60097W        W21518  21.656  44.916  12.971
60098W        W21519   3.854   6.795   4.660
60099W        W21520   1.930  34.406   1.757
60100W        W21521  27.477  10.294   4.279
60101W        W21522  20.742  12.246   0.428
60102W        W21523  30.940   7.377  13.521
60103W        W21524   1.908  25.025  14.498
60104W        W21525  17.579  33.114  12.089
60105W        W21526  32.142   3.323   3.817
60106W        W21527  32.050  18.697  10.588
60107W        W21528  29.100  10.662   1.815
60108W        W21529  41.008  10.786  11.047
60109W        W21530  36.056  13.619  10.991
60110W        W21531  44.756  27.164  12.359
60111W        W21532  39.325  41.354  11.951
60112W        W21533  38.062   4.388   0.933
60113W        W21534  29.989  44.996  13.866
60114W        W21535   1.282   0.973  14.024
60115W        W21536  27.029  29.509  10.546
60116W        W21537  43.364  15.317  13.482
60117W        W21538  10.214   2.441  13.995
60118W        W21539   6.413  20.561   4.641
60119W        W21540  28.052  23.671   9.965
60120W        W21541   2.261   7.783   4.343
60121W        W21542  34.096  41.899   2.782
60122W        W21543  22.730  16.698   2.825
60123W        W21544  38.426   0.328   1.861
60124W        W21545  38.466  10.702   4.326
60125W        W21546   3.284   7.790   2.866
60126W        W21547  27.468   8.403   1.284
60127W        W21548   4.352  40.455   1.903
60128W        W21549  20.570  15.243  13.001
60129W        W21550  41.412   5.855   1.277
60130W        W21551  29.652  41.465  12.385
60131W        W21552  14.803  17.097  11.493
60132W        W21553  26.118  22.700   0.770
60133W        W21554  12.138  24.603  14.793
60134W        W21555  39.349  18.218   4.324
60135W        W21556  27.680   2.729  11.091
60136W        W21557  15.765  19.274   0.337
60137W        W21558  19.131  24.168  10.620
60138W        W21559  44.007  31.909  14.873
60139W        W21560  10.758  28.952   2.868
60140W        W21561   2.283  14.705   1.698
60141W        W21562   1.237  37.024   1.718
60142W        W21563   8.718  24.055   5.084
60143W        W21564   2.434  30.646  14.379
60144W        W21565  16.755  36.437   3.300
60145W        W21566  25.205  24.029  12.341
60146W        W21567  30.975  44.787  10.563
60147W        W21568   3.759  25.542   1.786
60148W        W21569  21.188   6.716  14.020
60149W        W21570  29.984  36.535   3.331
60150W        W21571  33.467  14.207  13.980
60151W        W21572   2.446  37.502  14.949
60152W        W21573  42.433  29.999  14.778
60153W        W21574  42.940  18.117   2.889
60154W        W21575  16.712  35.526  10.960
60155W        W21576  10.255  43.841   1.729
60156W        W21577  37.504  39.507  14.924
60157W        W21578  19.114  37.917  11.438
60158W        W21579   7.389  20.746   0.415
60159W        W21580  14.690  13.639   0.262
60160W        W21581  23.215   7.266   5.261
60161W        W21582  38.551  31.060  11.610
60162W        W21583   7.896   5.740   1.859
60163W        W21584  18.646  23.125  10.462
60164W        W21585   6.747  11.775   2.721
60165W        W21586  37.929  38.547  10.972
60166W        W21587  35.441  28.658  14.320
60167W        W21588  32.006  35.016   0.303
60168W        W21589   9.727  43.447  14.771
60169W        W21590   9.329  43.290   1.377
60170W        W21591  22.715  10.767   1.331
60171W        W21592   7.712   8.329  10.896
60172W        W21593  35.530  38.450  11.505
60173W        W21594  34.522  33.985   0.925
60174W        W21595  14.331  25.691   4.779
60175W        W21596  32.970  43.885  11.028
60176W        W21597  37.496   1.852  10.027
60177W        W21598  16.613  33.611  14.005
60178W        W21599  17.766  22.147  12.462
60179W        W21600  16.175  25.184  10.418
60180W        W21601   1.341  22.069  12.552
60181W        W21602  37.048   2.834  10.599
60182W        W21603   5.400   6.687  12.444
60183W        W21604  39.943  31.147   3.352
60184W        W21605   3.762   9.719   3.171
60185W        W21606   5.871   7.886   0.290
60186W        W21607   6.231  22.696   2.380
60187W        W21608  24.532  10.172   3.374
60188W        W21609  17.568   1.748   2.250
60189W        W21610  15.185   4.439  10.474
60190W        W21611  23.064  41.451   2.414
60191W        W21612  36.941  10.380   4.350
60192W        W21613  43.943   0.796   3.796
60193W        W21614   7.409  23.005  10.525
60194W        W21615  42.815  35.968  12.860
60195W        W21616  35.376   8.336   3.155
60196W        W21617  41.497  13.182  13.382
60197W        W21618  27.683  40.528  14.865
60198W        W21619  39.811  10.694  11.406
60199W        W21620  35.096  21.081  12.912
60200W        W21621  12.706  18.674  11.516
60201W        W21622  42.371  32.571  11.974
60202W        W21623  19.138  41.027   4.335
60203W        W21624  13.161  16.742  11.600
60204W        W21625  40.453  38.513   0.853
60205W        W21626  16.633   3.383  12.382
60206W        W21627  41.976  30.118  12.460
60207W        W21628  26.521  29.585  10.625
60208W        W21629  25.574  32.454  14.999
60209W        W21630  33.975  41.945   0.406
60210W        W21631   0.312  15.303  10.466
60211W        W21632  19.625  37.578  13.438
60212W        W21633  26.052  34.992   1.394
60213W        W21634  44.472  10.805  13.883
60214W        W21635  11.144  41.464  14.839
60215W        W21636  38.840   2.319  11.106
60216W        W21637   6.817  10.383  11.392
60217W        W21638   4.209  36.054  13.312
60218W        W21639  35.025  44.933   0.863
60219W        W21640  27.495  44.784   1.898
60220W        W21641  31.506  37.565   3.741
60221W        W21642  15.818  31.453   3.802
60222W        W21643  17.088  11.318   4.687
60223W        W21644  43.332   3.302  14.923
60224W        W21645  21.139   8.692   3.373
60225W        W21646  36.404  28.096  12.867
60226W        W21647  25.174  26.078  12.425
60227W        W21648  11.643  31.093   0.779
60228W        W21649  27.053  17.647   4.718
60229W        W21650  29.627   3.889   2.694
60230W        W21651  41.019  11.778   1.812
60231W        W21652   2.452  28.127  11.093
60232W        W21653  19.632  24.698   2.697
60233W        W21654  40.423   1.374   4.344
60234W        W21655   1.851  38.331  14.030
60235W        W21656   7.762  20.081   2.328
60236W        W21657  35.917  30.933  12.037
60237W        W21658  35.385  42.018   2.312
60238W        W21659   1.327   6.256  12.077
60239W        W21660  32.637  42.454   4.215
60240W        W21661   5.730  30.617   0.943
60241W        W21662   0.261  31.550   3.147
60242W        W21663   3.757  25.522  11.456
60243W        W21664  40.396  21.660   4.265
60244W        W21665  40.909  34.019   2.769
60245W        W21666  21.733   1.401  11.017
60246W        W21667  31.126  14.175  14.913
60247W        W21668  42.844  32.111   3.865
60248W        W21669  39.541  21.614  12.865
60249W        W21670  11.689  32.937   2.406
60250W        W21671  10.864  39.377  10.087
60251W        W21672  16.236   8.203   1.807
60252W        W21673  31.955   0.339   9.939
60253W        W21674  41.497  42.865  13.514
60254W        W21675  30.909  33.609  14.844
60255W        W21676  21.258  37.886  12.094
60256W        W21677  11.347  40.964  12.355
60257W        W21678  33.053  25.016  11.034
60258W        W21679  22.102  29.048  12.992
60259W        W21680  43.854   9.222  10.583
60260W        W21681   9.284  22.151  12.511
60261W        W21682   0.867  27.964   4.614
60262W        W21683  32.081  14.251   2.891
60263W        W21684  25.705  21.561   3.726
60264W        W21685   8.706  19.780  13.410
60265W        W21686  24.168  40.497   4.277
60266W        W21687   4.728   0.835  10.410
60267W        W21688  33.470   5.820   3.814
60268W        W21689  31.019  44.301   2.242
60269W        W21690   0.917  13.288  13.858
60270W        W21691  39.020  17.135  10.518
60271W        W21692  26.622  27.991   0.835
60272W        W21693  36.092  33.490   2.741
60273W        W21694  19.563  21.526   2.827
60274W        W21695  26.502  23.539  13.406
60275W        W21696  37.499  44.991   4.246
60276W        W21697  18.628  28.473   2.339
60277W        W21698  29.510  22.025   2.343
60278W        W21699  22.526  11.753   2.417
60279W        W21700   2.924   5.341   4.288
60280W        W21701  14.277  36.990  13.920
60281W        W21702  33.416  10.286   0.390
60282W        W21703  20.687  37.348   4.317
60283W        W21704  25.197  13.270  13.333
60284W        W21705  11.276   9.853  14.987
60285W        W21706  29.017   2.391   0.922
60286W        W21707  32.051  36.395  11.553
60287W        W21708  33.000   3.355   5.294
60288W        W21709  12.359  20.638  11.119
60289W        W21710  40.042  14.165   0.465
60290W        W21711  36.363  15.291   2.827
60291W        W21712  14.630  38.021   4.284
60292W        W21713  23.170  15.660   4.216
60293W        W21714  15.722  23.188  10.990
60294W        W21715  15.297  32.416  11.959
60295W        W21716   9.753  37.336  13.816
60296W        W21717  11.129  14.141  12.026
60297W        W21718   3.300  27.584  14.998
60298W        W21719   6.868  19.158  13.004
60299W        W21720  42.924  26.151  11.436
60300W        W21721   2.243  37.836   4.117
60301W        W21722  14.107  41.349   4.342
60302W        W21723  34.974  25.997  12.365
60303W        W21724  24.530  12.834  12.552
60304W        W21725   9.714  21.127  13.383
60305W        W21726  18.568   6.916   4.640
60306W        W21727  41.921  26.520  12.047
60307W        W21728   1.874  43.817  13.873
60308W        W21729  41.878  20.216  11.413
60309W        W21730  12.794  11.844  14.878
60310W        W21731   8.859  30.127   0.303
60311W        W21732  12.270  44.334   1.437
60312W        W21733  27.518  36.923   0.920
60313W        W21734  32.096  31.027  10.516
60314W        W21735   1.831  29.551  12.547
60315W        W21736   1.860  23.159   4.213
60316W        W21737   3.844  31.151  12.944
60317W        W21738   6.310  37.416  14.461
60318W        W21739  17.244  12.357  12.951
60319W        W21740  24.014  37.359   3.207
60320W        W21741   5.803  19.161  12.044
60321W        W21742  20.655  25.594  14.948
60322W        W21743   0.793  31.454  14.791
60323W        W21744  32.077  15.171  12.024
60324W        W21745  36.569   2.909   0.857
60325W        W21746  11.750  21.202   3.637
60326W        W21747   1.294  32.954  11.918
60327W        W21748  23.614  20.076   0.917
60328W        W21749  11.244  34.028  14.928
60329W        W21750  23.629  36.848   1.332
60330W        W21751  21.080  15.623  12.395
60331W        W21752  38.407  32.142  14.456
60332W        W21753   4.714  29.455   3.730
60333W        W21754  36.346  35.446  14.452
60334W        W21755  30.458  29.001   3.661
60335W        W21756  15.228  18.290  13.499
60336W        W21757  29.481  40.324  13.444
60337W        W21758   9.379  42.805   1.871
60338W        W21759  37.360  16.274   4.756
60339W        W21760   0.944  14.278   2.228
60340W        W21761  43.310  43.015   1.797
60341W        W21762   8.301   3.835   1.373
60342W        W21763  19.615  30.144   2.268
60343W        W21764   1.307  29.986  12.482
60344W        W21765  24.093   2.319   0.889
60345W        W21766  37.867  17.730   2.274
60346W        W21767  44.962  27.515   3.359
60347W        W21768   5.335  15.713  10.489
60348W        W21769  27.163  36.904   4.744
60349W        W21770  33.003  34.992   4.171
60350W        W21771  31.144  14.613   4.726
60351W        W21772   6.351  36.071  12.031
60352W        W21773  39.944  20.753   0.892
60353W        W21774  19.202  21.165   0.476
60354W        W21775  15.741  34.513   0.482
60355W        W21776  40.403  32.131  14.811
60356W        W21777   2.965  30.630  10.522
60357W        W21778  33.581   8.219   4.727
60358W        W21779   3.352  18.050  13.401
60359W        W21780  12.194  14.804   1.211
60360W        W21781  13.753  30.543   5.675
60361W        W21782   1.790  25.086   1.317
60362W        W21783  25.138  35.869   1.716
60363W        W21784  12.199  31.403   3.632
60364W        W21785  42.802   6.876  12.011
60365W        W21786  35.966  25.601  14.857
60366W        W21787  44.934  23.123  11.055
60367W        W21788  18.633   1.414  14.314
60368W        W21789  42.432   9.356   4.769
60369W        W21790  11.301   4.295   3.181
60370W        W21791  27.664  23.609  13.912
60371W        W21792  44.769   0.363  12.487
60372W        W21793  43.348   6.225  10.888
60373W        W21794  43.837  11.278   4.122
60374W        W21795  15.120  23.077   0.945
60375W        W21796  42.995  20.255   1.434
60376W        W21797  32.038  21.584   2.237
60377W        W21798  29.160  33.487   4.770
60378W        W21799  30.469   0.269  10.944
60379W        W21800   3.448  34.609   0.273
60380W        W21801  17.245  32.051   5.178
60381W        W21802  43.448  37.034  11.570
60382W        W21803  13.832  26.552   1.220
60383W        W21804  32.520   6.406  12.009
60384W        W21805  43.863  38.046  12.535
60385W        W21806   0.778  12.717  10.468
60386W        W21807  11.129  34.061  11.110
60387W        W21808  21.748  17.098  11.387
60388W        W21809   0.369  30.103   3.294
60389W        W21810  17.101  23.648  14.016
60390W        W21811  27.667   1.750  14.776
60391W        W21812  14.829  43.878   0.947
60392W        W21813  39.979   5.861  11.500
60393W        W21814  31.572  30.090  14.798
60394W        W21815  23.600  35.090   2.265
60395W        W21816   4.850   7.841   3.706
60396W        W21817  30.456  33.001  13.043
60397W        W21818  20.645  32.122   2.754
60398W        W21819  28.629  32.416   3.772
60399W        W21820  38.991  39.839  10.456
60400W        W21821  16.290  26.136   1.391
60401W        W21822   6.701  19.122  13.468
60402W        W21823  30.093  14.619   3.707
60403W        W21824  16.626  38.544   1.842
60404W        W21825  37.455  15.325   4.797
60405W        W21826  21.033  28.447   1.269
60406W        W21827  40.493  13.645   3.856
60407W        W21828  11.235   6.828   3.304
60408W        W21829  42.323  12.170  13.870
60409W        W21830  13.765  39.995   3.724
60410W        W21831  40.317  22.065   1.240
60411W        W21832  24.162  10.735  12.373
60412W        W21833  30.158  13.819   0.399
60413W        W21834  20.589  21.080   2.208
60414W        W21835  23.003   3.824   0.443
60415W        W21836   5.222  37.019   0.905
60416W        W21837  10.234  12.634   2.731
60417W        W21838  41.035   7.729   1.338
60418W        W21839  28.017  43.463   4.266
60419W        W21840  31.006  13.702   1.711
60420W        W21841  29.089  43.379  12.043
60421W        W21842  29.003  12.781  14.805
60422W        W21843  43.944  44.933   4.787
60423W        W21844  14.232   9.796   2.200
60424W        W21845  10.333  10.319   2.379
60425W        W21846  25.489  23.159   3.824
60426W        W21847   9.791   8.812   0.340
60427W        W21848  19.069  41.514   2.404
60428W        W21849  29.948  15.151  12.351
60429W        W21850  17.173   2.840   2.900
60430W        W21851   2.773  19.229  10.459
60431W        W21852  35.962  17.573   3.221
60432W        W21853  14.643  29.616   5.755
60433W        W21854  26.066   8.754   2.734
60434W        W21855  41.490  27.610  12.463
60435W        W21856  44.339   2.253  14.458
60436W        W21857  27.476   2.773  14.960
60437W        W21858  13.838   2.723  12.085
60438W        W21859  19.615  41.473   0.475
60439W        W21860  17.711  17.720  14.408
60440W        W21861  34.997   9.832  11.038
60441W        W21862  33.573  34.105   0.279
60442W        W21863  15.175  15.786  10.507
60443W        W21864  13.273  41.943   4.763
60444W        W21865  28.669  11.257  11.400
60445W        W21866  36.376  32.497   3.181
60446W        W21867  13.761  21.714   3.728
60447W        W21868   4.367  34.929   3.647
60448W        W21869  20.146   3.906   2.390
60449W        W21870  13.760  33.982  11.545
60450W        W21871   6.734  39.976  14.293
60451W        W21872  42.370  33.509   0.401
60452W        W21873  17.216  34.427   2.373
60453W        W21874   6.332   8.169  14.409
60454W        W21875  18.614   3.264   4.200
60455W        W21876  42.847  31.517  12.935
60456W        W21877  14.285  25.623  10.462
60457W        W21878  35.027  27.511   0.418
60458W        W21879   8.361  37.944   4.142
60459W        W21880  42.979   9.690   4.306
60460W        W21881  24.092  16.766  12.555
60461W        W21882  14.158  26.690  12.540
60462W        W21883  12.282  30.657  14.305
60463W        W21884  28.535  18.263  12.392
60464W        W21885   5.748   0.859  14.342
60465W        W21886  39.373  17.636   4.630
60466W        W21887  32.567  44.906   2.218
60467W        W21888  29.604  18.635   3.241
60468W        W21889  28.975  41.360  11.914
60469W        W21890  31.441  32.530  14.276
60470W        W21891  34.979  38.943  14.003
60471W        W21892   3.832  43.884  14.786
60472W        W21893  38.365   6.891  13.464
60473W        W21894   6.819  25.581  10.903
60474W        W21895  17.192  12.311   0.883
60475W        W21896  41.795  39.547   1.400
60476W        W21897  19.199  42.484  10.497
60477W        W21898   0.378  19.233   0.292
60478W        W21899  42.920  23.627  10.624
60479W        W21900  10.737  12.801   1.733
60480W        W21901  28.671  33.127   4.143
60481W        W21902  19.678  30.500  13.546
60482W        W21903  22.516  28.668  14.993
60483W        W21904  31.626  43.979  12.096
60484W        W21905  38.560  10.322   3.292
60485W        W21906  11.714  31.466  10.551
60486W        W21907   5.290   7.665   0.480
60487W        W21908  16.618  16.589  13.501
60488W        W21909   2.415   0.835   3.176
60489W        W21910   0.347  21.555   1.387
60490W        W21911   4.239   0.389   2.223
60491W        W21912  30.001   8.800   3.201
60492W        W21913  18.743  40.926  11.405
60493W        W21914  37.069  35.603  14.492
60494W        W21915  39.809  12.215   1.253
60495W        W21916  36.021  35.952  13.531
60496W        W21917   9.809  40.955   3.770
60497W        W21918  33.907  31.608   4.342
60498W        W21919   8.757  39.908   0.804
60499W        W21920  17.578   8.286   4.648
60500W        W21921  14.302  19.738  14.783
60501W        W21922   2.412  16.709  14.907
60502W        W21923  28.987  36.491  14.300
60503W        W21924  24.140  38.479   2.356
60504W        W21925  28.560   4.833  13.497
60505W        W21926  22.635   9.700   1.272
60506W        W21927  15.160  31.970   5.230
60507W        W21928   7.801  31.602  12.453
60508W        W21929  44.264  42.786   2.215
60509W        W21930  18.582  13.163  12.350
60510W        W21931  10.254  34.909  13.059
60511W        W21932  34.041  33.512   1.767
60512W        W21933  34.397   3.285   1.764
60513W        W21934  29.588  13.185  11.930
60514W        W21935  14.318  23.178  10.502
60515W        W21936  29.469  24.215  11.874
60516W        W21937   4.849  28.117  11.996
60517W        W21938  37.012  14.823   3.804
60518W        W21939  25.054  16.098   1.244
60519W        W21940   7.713  36.390   0.916
60520W        W21941  27.538  28.169   1.792
60521W        W21942  18.253  35.386  13.791
60522W        W21943  24.591   0.335   4.722
60523W        W21944  39.933  26.697  14.886
60524W        W21945  40.007  30.033   1.375
60525W        W21946  37.413  44.997  10.988
60526W        W21947  38.055  36.974   1.434
60527W        W21948  27.102  34.972  13.804
60528W        W21949  29.523   4.709   3.204
60529W        W21950  32.478  18.109   1.307
60530W        W21951  16.276  34.603   0.479
60531W        W21952  37.406  29.556  14.380
60532W        W21953  39.886  40.445   3.201
60533W        W21954  35.000   9.226   2.884
60534W        W21955  10.280  32.065   5.100
60535W        W21956  41.959  21.105  14.325
60536W        W21957  21.517  33.970   4.167
60537W        W21958  36.877   3.900  12.917
60538W        W21959  41.370  17.283  11.018
60539W        W21960  41.040  15.786  12.022
60540W        W21961   1.380  19.050  13.807
60541W        W21962  16.218  41.391  11.024
60542W        W21963  38.907  25.494   5.195
60543W        W21964  21.262  29.059   1.333
60544W        W21965   3.370   7.728   3.651
60545W        W21966  23.100  11.273  10.984
60546W        W21967  37.030  11.189   0.363
60547W        W21968  22.726  37.350   3.364
60548W        W21969  26.084   4.333   0.795
60549W        W21970   5.707  19.579  12.918
60550W        W21971   7.230  27.470  14.462
60551W        W21972   5.726  21.242   1.288
60552W        W21973   2.773  12.709   2.255
60553W        W21974  43.335   8.661  10.966
60554W        W21975   5.205  42.847   0.911
60555W        W21976  30.493  15.641  13.824
60556W        W21977   0.776  40.494  13.992
60557W        W21978  44.289  13.806  14.899
60558W        W21979   1.884  13.330  10.448
60559W        W21980   5.238  41.883  10.891
60560W        W21981  27.187   1.373  12.446
60561W        W21982  27.615   5.928   1.853
60562W        W21983  31.647  35.009  12.830
60563W        W21984  11.676  37.830  14.944
60564W        W21985  11.713  14.631  12.030
60565W        W21986   2.382  24.598   2.666
60566W        W21987   2.411   7.270   2.217
60567W        W21988  30.578  17.699  14.355
60568W        W21989  20.132  29.013  14.951
60569W        W21990  19.608  34.446   1.426
60570W        W21991  12.785  42.857   0.735
60571W        W21992  40.043   0.464   0.912
60572W        W21993   9.853  17.178   2.203
60573W        W21994  42.427  42.956  14.967
60574W        W21995  25.486  40.379  12.080
60575W        W21996  13.841   1.380  12.483
60576W        W21997  44.837  35.867  10.414
60577W        W21998  18.217   3.323  11.022
60578W        W21999  29.065   1.317  12.439
60579W        W22000  35.978   9.783  13.831
60580W        W22001  44.315  13.320   3.199
60581W        W22002  37.577  11.163   0.297
60582W        W22003  19.122  28.158  11.561
60583W        W22004  35.958  32.611   3.645
60584W        W22005  16.567  30.053  11.019
60585W        W22006  39.472   5.390  12.910
60586W        W22007  15.708   9.381  14.973
60587W        W22008  23.573  45.000   1.859
60588W        W22009   8.756   7.813  14.448
60589W        W22010  43.361   6.729   4.222
60590W        W22011  30.615   0.838  10.918
60591W        W22012  10.331  43.356  14.475
60592W        W22013   0.397  44.758  11.043
60593W        W22014  42.921  39.914  12.934
60594W        W22015  11.793  37.934   0.448
60595W        W22016   0.416  33.912  13.410
60596W        W22017  18.213   9.720  12.542
60597W        W22018  20.244  18.296   2.270
60598W        W22019  18.275  37.932  13.439
60599W        W22020   8.667   5.245   3.693
60600W        W22021  31.534  29.649  13.507
60601W        W22022   0.389  28.557  11.486
60602W        W22023  29.979  23.584   2.186
60603W        W22024  28.624  13.246   5.170
60604W        W22025  28.535   1.865   4.758
60605W        W22026  25.700  17.301  10.977
60606W        W22027  16.582   7.343  14.019
60607W        W22028  20.255  44.358  12.839
60608W        W22029  42.422   8.302   3.792
60609W        W22030  33.448  19.172  13.443
60610W        W22031   4.891  41.520  11.489
60611W        W22032  28.516  16.096   0.264
60612W        W22033  14.684  44.304  13.458
60613W        W22034  30.912  13.229  14.843
60614W        W22035  14.809  10.838  13.412
60615W        W22036  27.048   3.314  10.478
60616W        W22037  34.951  28.018   3.276
60617W        W22038  32.510  38.404   2.238
60618W        W22039  42.426  23.544   1.261
60619W        W22040   4.874  20.272  10.452
60620W        W22041   9.725  21.639  13.017
60621W        W22042  41.868  27.026   0.465
60622W        W22043  19.157  31.924  13.958
60623W        W22044  13.650  44.873  13.979
60624W        W22045  28.461  41.808  10.440
60625W        W22046  44.341  15.156  11.487
60626W        W22047  42.946  44.906  10.517
60627W        W22048  28.572  43.412   3.702
60628W        W22049  12.648  38.902   4.618
60629W        W22050  13.156  25.615  10.546
60630W        W22051  27.041  30.958   4.795
60631W        W22052  27.568   5.801   0.928
60632W        W22053  40.385  23.553   5.208
60633W        W22054  27.679  33.612  11.410
60634W        W22055  41.317  23.003  14.370
60635W        W22056  23.008  15.161   1.219
60636W        W22057  21.589   4.925  12.915
60637W        W22058  35.910  13.198  13.465
60638W        W22059  16.192  38.973   0.416
60639W        W22060  37.532  20.662   2.398
60640W        W22061  22.164  36.921   2.784
60641W        W22062  38.410  18.282  13.887
60642W        W22063  37.541  32.944  12.069
60643W        W22064   1.417   3.711   2.848
60644W        W22065  10.215  16.219   4.165
60645W        W22066   2.230   0.465  11.962
60646W        W22067  37.999   0.762   3.842
60647W        W22068  31.963   6.239   4.687
60648W        W22069  31.134  36.387  12.344
60649W        W22070  44.759  34.095   0.924
60650W        W22071  25.692  10.263  14.420
60651W        W22072  15.599  41.521  11.103
60652W        W22073  43.484  12.792   3.703
60653W        W22074  40.515   6.845  11.081
60654W        W22075  17.168  26.563  11.543
60655W        W22076   5.825  20.186   2.771
60656W        W22077  23.723   5.874   2.877
60657W        W22078  10.236  44.807  14.801
60658W        W22079  44.349  33.570   4.120
60659W        W22080   7.882  11.288   2.684
60660W        W22081   2.459   7.776   1.823
60661W        W22082  37.460  10.765  13.486
60662W        W22083  16.095  30.620  12.452
60663W        W22084   8.771  44.804  10.612
60664W        W22085  42.849  15.619  12.969
60665W        W22086  23.990  37.428  11.875
60666W        W22087  34.454  37.987   0.339
60667W        W22088  15.705  29.977  14.833
60668W        W22089   6.906   3.341   1.374
60669W        W22090  13.745  35.924  10.521
60670W        W22091  30.063   7.270   0.310
60671W        W22092  14.768  13.660  14.894
60672W        W22093  11.678  30.164  11.398
60673W        W22094  37.360  13.771   1.288
60674W        W22095  37.859  29.501   2.767
60675W        W22096  11.138  38.514  11.404
60676W        W22097  17.158  10.837   1.294
60677W        W22098  30.498  18.772   0.834
60678W        W22099   3.876  13.694   3.760
60679W        W22100  27.170  14.746  11.598
60680W        W22101  39.932  21.547   4.242
60681W        W22102  42.297  38.046  10.445
60682W        W22103  25.972  24.664  12.840
60683W        W22104   6.262  36.966   0.786
60684W        W22105  39.490   9.839   4.782
60685W        W22106  27.048   7.757  14.295
60686W        W22107  27.494  15.716  10.943
60687W        W22108   1.937   5.248   1.882
60688W        W22109  31.549  11.837  13.342
60689W        W22110  25.551  22.134  14.368
60690W        W22111  32.579  20.051  13.426
60691W        W22112  14.707  42.317  13.800
60692W        W22113  28.459  29.066  11.109
60693W        W22114  43.865  22.674  11.937
60694W        W22115  22.585  22.649  10.919
60695W        W22116  40.806  22.099  13.835
60696W        W22117   3.767  26.516   3.292
60697W        W22118  30.155  41.406  11.980
60698W        W22119  33.432  18.727  10.139
60699W        W22120  20.102  19.610  10.097
60700W        W22121  42.395   7.894   2.707
60701W        W22122  23.712  11.367  10.932
60702W        W22123  35.879  30.045  12.453
60703W        W22124  36.941  19.552   0.249
60704W        W22125  24.143  12.694   0.253
60705W        W22126  11.787  14.726   3.654
60706W        W22127  11.243  17.779   3.814
60707W        W22128  34.577  43.491  13.396
60708W        W22129   0.839  28.974   3.696
60709W        W22130  24.187  11.184   4.734
60710W        W22131   7.848  20.575  11.467
60711W        W22132   6.732   1.848  14.988
60712W        W22133  14.817  38.488   0.260
60713W        W22134   9.653  37.482   2.353
60714W        W22135  32.888  18.074  13.375
60715W        W22136  28.676   7.213   3.345
60716W        W22137  33.979  15.194   0.765
60717W        W22138   4.342  13.748   2.887
60718W        W22139  25.120   0.395  11.929
60719W        W22140   9.302   9.697   0.320
60720W        W22141   7.908  26.696   2.885
60721W        W22142  34.111   8.796   1.870
60722W        W22143   9.877   0.261  10.425
60723W        W22144  27.103   0.303  12.905
60724W        W22145  22.643  44.444  10.518
60725W        W22146   1.797  21.678   1.836
60726W        W22147  24.483  12.223  12.423
60727W        W22148  18.652  11.749   2.752
60728W        W22149  38.458  37.491  11.501
60729W        W22150  17.682  32.031   0.955
60730W        W22151  44.270  33.567  10.437
60731W        W22152  36.060   2.834  13.889
60732W        W22153  26.139   3.279   3.804
60733W        W22154  29.156  38.477  11.038
60734W        W22155  32.069  29.499  10.583
60735W        W22156  17.221  36.553   4.174
60736W        W22157   3.788   2.855   3.314
60737W        W22158  17.779  44.815   0.416
60738W        W22159  14.671  30.116  10.900
60739W        W22160   3.258  32.629  12.043
60740W        W22161  32.566  35.958  11.601
60741W        W22162  38.388  26.968  13.837
60742W        W22163   5.330  11.643  14.983
60743W        W22164  28.991  24.115  10.429
60744W        W22165  30.984  35.484  13.322
60745W        W22166  14.308  41.532  12.404
60746W        W22167   6.744   7.680   3.320
60747W        W22168  32.606  10.257  12.479
60748W        W22169  18.576  20.668  12.404
60749W        W22170  22.185  23.678   1.309
60750W        W22171  28.073  38.061   2.337
60751W        W22172   8.353  23.227   2.367
60752W        W22173  27.984  35.399   1.861
60753W        W22174   4.417  27.032  11.095
60754W        W22175  15.126  35.469  12.495
60755W        W22176  44.921  43.933   2.375
60756W        W22177  42.989  29.450   0.791
60757W        W22178  12.623  12.690  14.399
60758W        W22179   0.882  25.685  11.017
60759W        W22180  32.495  22.241   3.840
60760W        W22181  19.254  37.377  11.522
60761W        W22182  27.469  35.091  12.087
60762W        W22183  25.128  13.322  13.988
60763W        W22184  20.575  12.638  11.444
60764W        W22185   6.886  37.000   0.351
60765W        W22186  36.892  41.300  14.514
60766W        W22187  32.079  12.852  12.434
60767W        W22188  18.059   6.391   3.632
60768W        W22189  42.348  22.626  12.511
60769W        W22190  10.771  42.030   2.836
60770W        W22191  27.058   0.480   0.412
60771W        W22192  10.314  27.140   0.895
60772W        W22193   6.385  10.381   3.256
60773W        W22194  29.588   9.343   3.221
60774W        W22195   9.222  23.115   1.879
60775W        W22196  28.457  21.546   0.335
60776W        W22197  38.052  14.265   9.975
60777W        W22198  31.579  10.264  14.840
60778W        W22199  18.087  32.413   9.937
60779W        W22200  23.152  23.004  11.082
60780W        W22201  29.072  37.507  13.904
60781W        W22202   8.310  42.012   3.772
60782W        W22203   6.833  37.379  13.484
60783W        W22204  24.207  10.676   1.285
60784W        W22205  28.101  33.124   3.262
60785W        W22206  42.399   8.679  11.433
60786W        W22207  17.277  35.999  13.897
60787W        W22208  17.633  15.677   4.212
60788W        W22209  19.647  16.140   4.251
60789W        W22210   7.692  35.419  12.910
60790W        W22211  18.167  28.070   0.879
60791W        W22212  28.644  43.824   0.298
60792W        W22213  42.018  38.548   1.816
60793W        W22214  33.518  33.895  10.978
60794W        W22215  34.508  27.550  13.468
60795W        W22216   2.332   3.871   0.950
60796W        W22217  26.469  34.584  13.886
60797W        W22218  44.491  28.065   3.700
60798W        W22219  12.272   6.862   4.655
60799W        W22220  34.433   7.827   4.696
60800W        W22221  27.982   8.792  14.932
60801W        W22222  24.564  20.727  14.318
60802W        W22223  44.812  37.532  14.985
60803W        W22224  21.156   3.233   2.418
60804W        W22225  24.533  31.985   4.189
60805W        W22226  17.189   2.316  10.631
60806W        W22227  25.135   6.403   0.930
60807W        W22228   9.340  27.005   1.407
60808W        W22229  31.968  31.131  12.061
60809W        W22230  27.016  31.488  13.492
60810W        W22231  37.963  36.894  14.836
60811W        W22232  42.031  24.200   5.298
60812W        W22233  34.569   9.789  11.022
60813W        W22234  28.947  43.792  13.859
60814W        W22235  27.061  25.164   3.248
60815W        W22236   6.389   5.361   5.087
60816W        W22237  19.732  39.928  10.564
60817W        W22238   2.419  12.659   2.745
60818W        W22239   9.200   3.911  14.366
60819W        W22240  18.059  35.071   1.841
60820W        W22241   7.353   4.383   0.870
60821W        W22242   2.396   6.391  10.898
60822W        W22243  29.935  43.351   2.778
60823W        W22244  27.535  20.159  10.475
60824W        W22245   4.429  36.920   1.426
60825W        W22246  12.297  33.991  13.855
60826W        W22247  15.202  28.151  11.416
60827W        W22248  36.893  35.006   3.817
60828W        W22249   0.278  43.851   2.336
60829W        W22250  32.125  21.564  11.039
60830W        W22251  17.790   0.757   1.709
60831W        W22252   0.341  27.539  13.859
60832W        W22253  40.307  13.144   2.745
60833W        W22254  18.267  12.636  12.071
60834W        W22255  14.754  24.106   2.290
60835W        W22256  35.401  41.451  10.428
60836W        W22257  33.926  29.002   2.249
60837W        W22258   3.426   9.828  13.048
60838W        W22259  10.720  42.473  12.966
60839W        W22260  27.083  43.917   0.813
60840W        W22261  11.814  14.314   0.335
60841W        W22262  21.106  33.542  11.525
60842W        W22263  44.811  23.664   4.149
60843W        W22264   2.389  11.230  10.160
60844W        W22265  20.112  36.883  11.059
60845W        W22266  35.928  20.174   0.961
60846W        W22267   8.723  40.838   5.607
60847W        W22268   8.839  30.603  14.473
60848W        W22269  33.986  39.014  11.123
60849W        W22270   5.826  12.657  14.951
60850W        W22271  18.622   0.853  12.358
60851W        W22272   7.274  11.162  11.068
60852W        W22273  33.957  25.027   2.400
60853W        W22274  35.568  34.506  10.586
60854W        W22275  44.406  35.005   0.931
60855W        W22276   2.462  33.076   3.690
60856W        W22277   7.690  37.509   5.082
60857W        W22278  16.627  29.536   3.642
60858W        W22279   8.193  33.446  10.518
60859W        W22280  37.455  27.999   4.687
60860W        W22281  15.120  19.549   1.295
60861W        W22282  21.729  35.584  11.855
60862W        W22283  27.533  28.605   4.217
60863W        W22284  16.793  30.035   4.730
60864W        W22285  25.701  12.292   0.349
60865W        W22286  21.595  16.579   1.421
60866W        W22287  17.578   5.308  10.486
60867W        W22288  25.591  34.572  11.412
60868W        W22289  36.019   3.452  15.000
60869W        W22290   7.176  20.563   4.730
60870W        W22291  23.088  11.196   4.692
60871W        W22292  17.110  32.545   0.376
60872W        W22293   0.256   7.832  10.989
60873W        W22294  11.355   1.936  12.377
60874W        W22295   4.379   8.884  14.838
60875W        W22296  28.938  20.698   3.810
60876W        W22297  37.495  33.396  14.769
60877W        W22298  32.413  22.016  14.485
60878W        W22299   4.770   3.453  12.042
60879W        W22300  17.666  10.221  12.489
60880W        W22301  26.678   9.338   2.742
60881W        W22302  43.948  14.768   4.261
60882W        W22303  19.727  23.219  13.889
60883W        W22304   3.276  13.223  13.355
60884W        W22305  19.752   5.241   3.764
60885W        W22306  20.114  42.450  10.588
60886W        W22307   7.190  28.011   1.418
60887W        W22308  30.437  11.796   2.380
60888W        W22309  26.617  22.637  10.423
60889W        W22310  28.449   2.467   4.714
60890W        W22311   4.330  26.681  10.926
60891W        W22312  43.848  28.103   2.692
60892W        W22313   3.829   0.278   4.327
60893W        W22314   0.402  26.654  13.350
60894W        W22315  35.599  20.662  13.461
60895W        W22316  41.958  30.413   4.789
60896W        W22317  37.494  16.589   3.841
60897W        W22318   4.351  19.108   1.269
60898W        W22319  17.190   0.270   1.333
60899W        W22320  11.658  26.510   2.812
60900W        W22321  36.061  37.883   1.793
60901W        W22322  27.085  29.596  11.112
60902W        W22323  22.229  20.652  12.345
60903W        W22324  30.134  44.411  10.069
60904W        W22325  32.475   9.881  14.923
60905W        W22326  24.619  34.481   1.210
60906W        W22327  33.555  14.600  11.006
60907W        W22328  43.290  29.096  11.466
60908W        W22329  33.438  18.678  14.295
60909W        W22330  31.088  23.168   0.361
60910W        W22331   8.261  15.619   2.661
60911W        W22332  19.243  25.609  11.980
60912W        W22333  44.297  18.063  10.576
60913W        W22334  12.360  12.182  12.957
60914W        W22335  42.307  31.528   1.431
60915W        W22336   8.188  44.001  14.362
60916W        W22337  10.688  12.321   2.784
60917W        W22338  16.182  43.443  12.468
60918W        W22339  43.879   6.274  13.050
60919W        W22340   7.673  21.098   4.335
60920W        W22341  41.906  15.644   4.668
60921W        W22342   5.887  34.964  13.389
60922W        W22343  21.214  15.172   3.370
60923W        W22344  24.202  18.060   5.128
60924W        W22345   2.359  36.974   2.189
60925W        W22346   6.689  10.306   0.798
60926W        W22347  24.069  42.380  12.875
60927W        W22348  33.552  16.611  11.971
60928W        W22349  17.573  28.593  12.865
60929W        W22350   3.729  33.382   3.860
60930W        W22351  14.334  37.475   1.321
60931W        W22352   2.851  30.534  13.057
60932W        W22353  36.003  21.049   0.821
60933W        W22354  12.237   3.799  14.403
60934W        W22355   3.281  22.506   2.273
60935W        W22356  22.243   2.226  12.068
60936W        W22357  25.990  28.005  10.495
60937W        W22358  35.570  25.491   1.930
60938W        W22359  13.790  44.899  10.480
60939W        W22360   2.773  12.753   3.302
60940W        W22361   6.206  21.133   1.242
60941W        W22362   3.915   7.193   5.230
60942W        W22363   4.322  28.085  13.404
60943W        W22364  21.641   9.173   4.750
60944W        W22365   0.429  21.186  10.076
60945W        W22366  42.493   0.377  12.436
60946W        W22367   8.842  33.100   3.153
60947W        W22368   7.840  41.466   4.779
60948W        W22369  16.165  29.929  12.349
60949W        W22370  17.566  36.506  13.524
60950W        W22371  28.133   7.367  13.963
60951W        W22372   2.847  42.440  11.373
60952W        W22373  26.640  34.031   1.852
60953W        W22374  30.152  17.061  10.894
60954W        W22375  22.046  32.499   4.250
60955W        W22376  18.564  35.463  11.066
60956W        W22377  32.046   2.737  11.109
60957W        W22378  12.267  24.073  14.385
60958W        W22379  20.593  15.206  13.474
60959W        W22380  21.130  37.357   4.241
60960W        W22381  30.643   6.723  14.813
60961W        W22382  35.499  34.043   3.790
60962W        W22383   7.360   4.775  12.087
60963W        W22384   7.330  13.665   2.843
60964W        W22385  20.109   3.315  14.895
60965W        W22386  18.638  13.646  13.478
60966W        W22387  10.284   7.282   4.301
60967W        W22388  26.095  12.622   0.385
60968W        W22389  40.972  34.543  13.023
60969W        W22390  30.918  23.208  12.039
60970W        W22391  32.468  16.776  12.951
60971W        W22392   9.873  10.150  12.906
60972W        W22393  26.001  39.428   0.293
60973W        W22394   7.396  23.636  13.855
60974W        W22395   7.344  13.616   0.250
60975W        W22396  22.215   5.922  12.481
60976W        W22397  15.629  31.479  10.445
60977W        W22398  31.409   6.185  13.547
60978W        W22399  11.182  43.398  14.366
60979W        W22400  20.115   2.290   1.265
60980W        W22401  22.177  14.622  12.430
60981W        W22402  32.488   0.419  10.534
60982W        W22403  13.818  23.120  11.040
60983W        W22404  23.011   5.374   2.680
60984W        W22405  28.023  14.777   2.718
60985W        W22406   2.850  32.971   3.798
60986W        W22407   1.859   6.419  12.973
60987W        W22408  34.498  41.372  12.474
60988W        W22409  43.832  42.399   4.702
60989W        W22410   1.879   3.423  13.519
60990W        W22411   9.256  40.461   2.828
60991W        W22412  43.954  38.540  11.534
60992W        W22413   0.785   7.273   0.346
60993W        W22414  26.467  10.214   0.877
60994W        W22415  31.498   1.300   1.767
60995W        W22416  44.930  32.531   4.230
60996W        W22417  22.619  11.836  10.894
60997W        W22418   3.332  42.927   0.821
60998W        W22419  17.571   4.317  12.063
60999W        W22420  23.223  18.181   0.749
61000W        W22421   7.269  24.595  11.431
61001W        W22422  24.575  37.565  13.959
61002W        W22423  14.239  29.639   2.354
61003W        W22424   3.773  19.078   3.192
61004W        W22425   4.428  22.056   4.758
61005W        W22426  13.322  17.595   2.704
61006W        W22427   6.867  26.150   0.884
61007W        W22428   7.880   6.396   1.272
61008W        W22429  24.125  27.082   2.223
61009W        W22430  30.519  42.527   4.767
61010W        W22431  36.467  30.113  10.979
61011W        W22432  25.469  28.677   4.280
61012W        W22433  28.485  33.103  14.841
61013W        W22434  16.782  29.512   4.661
61014W        W22435   3.883  13.662  13.821
61015W        W22436  12.818  30.131  11.051
61016W        W22437  27.022  34.880  11.508
61017W        W22438   1.248   5.720   2.843
61018W        W22439  30.474  17.134   2.185
61019W        W22440  19.746  42.998   2.743
61020W        W22441   4.327   6.811  11.995
61021W        W22442  22.548  22.501   2.183
61022W        W22443  12.135  28.644  11.505
61023W        W22444  37.974  27.624   1.354
61024W        W22445  26.580   0.373  12.538
61025W        W22446   7.808  22.503   1.788
61026W        W22447  21.223  26.959  14.481
61027W        W22448  13.703   2.363   2.731
61028W        W22449  44.457  11.807  13.320
61029W        W22450  26.678  35.989  14.854
61030W        W22451  38.892  23.625  13.842
61031W        W22452  40.986  44.481  12.546
61032W        W22453  14.321  17.597   0.831
61033W        W22454  11.233  40.508   2.395
61034W        W22455  35.030  40.380   3.243
61035W        W22456   1.412   8.341   2.302
61036W        W22457   4.759   9.686  14.407
61037W        W22458  10.709  34.918   2.758
61038W        W22459   3.868  32.038   2.747
61039W        W22460  12.122  39.883   1.270
61040W        W22461  44.341  21.211   2.300
61041W        W22462  35.945  38.018  12.377
61042W        W22463  20.681  40.343   3.333
61043W        W22464  34.872  39.825  14.769
61044W        W22465  26.190  10.738  12.073
61045W        W22466   0.488  10.777   4.631
61046W        W22467  38.061  40.897   0.836
61047W        W22468  26.555  14.213   5.228
61048W        W22469  14.792   0.263   0.355
61049W        W22470  33.031  36.927   1.912
61050W        W22471  22.546  37.905  12.472
61051W        W22472   6.838   7.390  14.881
61052W        W22473  33.417   1.467   5.138
61053W        W22474   8.208  36.415   5.265
61054W        W22475  28.021  41.926   1.217
61055W        W22476  31.506   2.942   0.484
61056W        W22477  38.881  20.569  13.989
61057W        W22478  29.948  20.652  12.978
61058W        W22479   8.321  34.444  11.090
61059W        W22480  22.630   5.410  10.055
61060W        W22481  13.732   1.946   0.283
61061W        W22482  20.092   5.793   2.887
61062W        W22483  20.226   8.767  10.411
61063W        W22484  19.590  42.797  13.331
61064W        W22485  26.650  34.104  14.844
61065W        W22486  15.304  37.857   0.829
61066W        W22487   7.798  40.382   2.276
61067W        W22488  12.186  23.570  10.540
61068W        W22489  24.552  18.140  14.855
61069W        W22490   5.864   6.184   1.243
61070W        W22491  39.451   3.411  14.898
61071W        W22492  38.075  12.160   4.683
61072W        W22493   8.236  20.607   1.744
61073W        W22494  40.929   1.822   0.771
61074W        W22495  19.731  23.177  11.087
61075W        W22496  15.675  19.711  10.416
61076W        W22497  14.755  18.657   4.809
61077W        W22498  41.860  15.804  14.332
61078W        W22499  34.393  22.540  13.892
61079W        W22500  36.946  26.555   1.316
61080W        W22501  30.989   3.453   3.352
61081W        W22502  24.032  14.171   4.321
61082W        W22503  11.863  28.134  13.946
61083W        W22504   7.765  13.618   0.352
61084W        W22505   7.756  25.626   0.468
61085W        W22506  36.852   7.671  12.893
61086W        W22507  30.124  19.746  14.352
61087W        W22508  26.079  35.872  14.347
61088W        W22509  40.348  19.558  13.473
61089W        W22510  39.540  41.956  11.023
61090W        W22511  29.582  40.041   2.836
61091W        W22512  20.118  27.941  12.937
61092W        W22513  12.120  21.079  13.372
61093W        W22514   4.382  14.594   3.307
61094W        W22515  26.081  43.336  11.011
61095W        W22516  38.898  31.043   4.655
61096W        W22517   9.211  26.088  10.543
61097W        W22518  34.467   0.979  14.280
61098W        W22519  21.629  43.892   3.244
61099W        W22520  21.545  29.483   1.790
61100W        W22521  34.557   5.255  10.485
61101W        W22522  11.281   4.381  11.092
61102W        W22523  12.245   9.790   0.335
61103W        W22524  10.287  14.763   3.717
61104W        W22525  22.612  33.538  10.564
61105W        W22526  29.081  32.468   2.820
61106W        W22527  38.426  23.585   0.941
61107W        W22528  28.588  22.719  13.356
61108W        W22529  18.613  21.116   1.282
61109W        W22530  33.971   3.746  13.529
61110W        W22531   5.836   0.827  12.356
61111W        W22532  20.178  17.781   3.704
61112W        W22533  10.261  27.531   0.453
61113W        W22534  35.997   2.226  12.900
61114W        W22535  33.129   1.955   2.692
61115W        W22536  39.465   9.216  10.570
61116W        W22537   9.215   9.815  13.423
61117W        W22538  39.502  22.657   1.374
61118W        W22539   8.306  10.299   4.647
61119W        W22540  32.433  43.966  13.994
61120W        W22541  11.242  10.777  14.926
61121W        W22542  39.328  24.081  13.500
61122W        W22543  35.001   5.925  13.004
61123W        W22544   1.855  37.938  13.044
61124W        W22545  40.915   7.691   2.404
61125W        W22546  44.401  15.663  12.579
61126W        W22547   6.379  44.935  11.124
61127W        W22548  31.428  29.479  11.516
61128W        W22549  32.075  17.573   4.807
61129W        W22550  37.526  42.916   2.311
61130W        W22551  24.584   1.399   0.286
61131W        W22552  38.833  31.073  13.907
61132W        W22553  29.922  29.950  13.519
61133W        W22554   4.727  22.664  12.353
61134W        W22555  18.139  20.245  13.894
61135W        W22556  42.429  12.268   0.405
61136W        W22557   9.801   2.446  11.871
61137W        W22558   6.681  42.327  10.537
61138W        W22559  44.808  28.099  12.902
61139W        W22560  27.547   0.337  11.489
61140W        W22561  34.107   2.311   2.402
61141W        W22562  15.229  33.517   3.211
61142W        W22563  25.154  12.358   4.137
61143W        W22564   6.214  21.234   3.261
61144W        W22565  33.504   7.784  12.862
61145W        W22566  10.795  36.883   0.356
61146W        W22567  36.094   7.747   1.907
61147W        W22568  25.125  15.285   4.156
61148W        W22569  41.395  25.071   4.115
61149W        W22570  38.922  43.332   4.263
61150W        W22571  41.873  26.104  13.318
61151W        W22572  21.752   9.188  11.491
61152W        W22573  19.186  23.185   2.323
61153W        W22574  18.224   4.235  10.434
61154W        W22575  20.044  38.373   2.874
61155W        W22576   3.355  10.233   2.728
61156W        W22577  40.308  31.617  11.033
61157W        W22578  22.641   4.249   5.713
61158W        W22579  36.842  39.032  11.006
61159W        W22580   4.357  42.029  13.907
61160W        W22581  34.424  39.953  10.985
61161W        W22582  35.919  34.899  12.003
61162W        W22583  26.107  25.691  14.010
61163W        W22584  30.539  10.192   5.212
61164W        W22585  28.058  12.669   2.706
61165W        W22586  30.648  41.877   4.629
61166W        W22587  11.742   8.253   2.825
61167W        W22588  31.000  35.029  14.332
61168W        W22589  11.856  18.643  12.891
61169W        W22590  13.283  13.291  14.891
61170W        W22591  23.987  30.610   4.793
61171W        W22592  24.181   1.810  13.858
61172W        W22593   5.224  23.602   2.342
61173W        W22594  11.130  35.067   3.384
61174W        W22595  10.276   2.269  13.476
61175W        W22596  12.187  12.279  14.969
61176W        W22597   9.714  37.443  14.917
61177W        W22598   2.417  37.940  11.888
61178W        W22599  43.949   9.887   3.316
61179W        W22600  17.299  21.670   4.727
61180W        W22601  16.246  35.385  13.982
61181W        W22602  10.770  44.272   1.786
61182W        W22603  35.874  43.462  12.915
61183W        W22604  18.711  38.457  12.552
61184W        W22605   1.816  42.819   2.685
61185W        W22606  38.451  21.579  12.513
61186W        W22607   8.834  15.179   3.713
61187W        W22608  35.102   6.202  14.321
61188W        W22609  16.605  34.001  11.455
61189W        W22610  29.115  28.497   2.774
61190W        W22611   2.409   9.312  11.545
61191W        W22612   3.384  42.358  10.593
61192W        W22613  12.772  34.410  14.357
61193W        W22614  18.646  24.071   3.359
61194W        W22615  44.936  42.305  12.435
61195W        W22616  18.288   9.792   3.692
61196W        W22617  14.801   5.328  12.412
61197W        W22618  30.129  27.141   4.253
61198W        W22619  30.128  12.675  12.941
61199W        W22620  17.658  13.823   0.758
61200W        W22621  35.096   8.264   0.330
61201W        W22622  12.691  37.062  12.081
61202W        W22623  11.313  18.725  12.522
61203W        W22624  20.658   2.334  13.324
61204W        W22625   9.201   0.360   2.834
61205W        W22626  31.140  28.944  10.453
61206W        W22627  38.328  44.975  10.921
61207W        W22628  18.637  19.053  11.457
61208W        W22629   6.373   5.238  10.121
61209W        W22630  16.614   4.889  12.470
61210W        W22631  44.980  39.435  13.516
61211W        W22632  33.112  31.639  11.092
61212W        W22633  25.000  11.248  12.385
61213W        W22634  32.590  29.507  11.926
61214W        W22635  32.000  15.291   4.692
61215W        W22636  35.106   3.818  13.419
61216W        W22637  25.490   9.277  14.461
61217W        W22638  28.525   9.878   4.827
61218W        W22639   6.313  43.491  12.542
61219W        W22640  43.899  25.692   1.436
61220W        W22641  40.353  32.926  14.309
61221W        W22642  44.808  17.747   2.849
61222W        W22643   2.278  31.508  13.005
61223W        W22644  20.143   4.777  13.968
61224W        W22645  14.597  20.700   4.281
61225W        W22646  18.255  34.116   3.793
61226W        W22647  20.211  19.082  11.021
61227W        W22648  31.928  24.053   2.397
61228W        W22649  31.606   9.153  14.800
61229W        W22650  40.811  21.740  13.435
61230W        W22651  23.043  36.509  14.298
61231W        W22652  10.162  35.902  14.473
61232W        W22653   8.678  13.239   3.167
61233W        W22654   9.149   2.321  11.404
61234W        W22655  37.055   5.721   2.824
61235W        W22656  15.632   0.745   3.719
61236W        W22657  12.283  23.643   0.482
61237W        W22658  25.111  42.404   0.830
61238W        W22659  35.513  14.299  10.471
61239W        W22660  11.368  44.870   2.388
61240W        W22661  35.941   1.796   4.702
61241W        W22662  44.479   7.749   0.900
61242W        W22663  37.489   7.853   2.889
61243W        W22664   3.953  43.299  13.452
61244W        W22665  25.200  24.060   4.724
61245W        W22666   0.442   4.327  14.396
61246W        W22667  32.045  22.242  12.914
61247W        W22668  39.350   6.803  14.839
61248W        W22669  21.069  31.616   1.839
61249W        W22670  23.035  18.092   4.767
61250W        W22671  19.621  33.479   1.277
61251W        W22672  42.289   7.288  10.917
61252W        W22673   5.345  19.757   4.240
61253W        W22674  10.753  39.487   3.374
61254W        W22675   5.333  12.241  10.459
61255W        W22676  11.141  36.034   0.474
61256W        W22677  35.873  20.153   4.804
61257W        W22678  37.432  33.589   3.374
61258W        W22679  41.872  38.533   2.814
61259W        W22680  34.984  21.722  11.378
61260W        W22681  14.285   6.764   4.735
61261W        W22682  26.999  15.149  13.360
61262W        W22683  24.526   5.822   3.660
61263W        W22684  23.516  24.216  13.536
61264W        W22685  10.864   4.797   3.709
61265W        W22686   7.770  25.071  14.997
61266W        W22687  19.647  39.965  12.579
61267W        W22688  42.816   7.673  10.574
61268W        W22689  34.066  40.989  12.418
61269W        W22690  31.082  31.118  12.022
61270W        W22691  39.902  27.111   2.729
61271W        W22692   8.328   1.281   2.225
61272W        W22693   5.765   2.471   2.232
61273W        W22694  40.464  27.098   4.338
61274W        W22695  11.690  39.930  11.603
61275W        W22696  40.850   7.236  12.544
61276W        W22697   6.911  43.272  13.439
61277W        W22698  37.078  19.050  14.946
61278W        W22699  38.931  12.324  14.842
61279W        W22700  24.552   9.296   4.604
61280W        W22701  20.087  34.042   0.798
61281W        W22702  35.075  12.167  12.467
61282W        W22703  11.351  23.575  13.918
61283W        W22704  38.877  20.754   4.352
61284W        W22705  29.128   6.848  12.451
61285W        W22706   9.249  11.865  10.558
61286W        W22707  43.380   9.857   4.189
61287W        W22708  32.013  42.443  11.032
61288W        W22709  10.727  10.655  12.854
61289W        W22710  22.221  24.993  10.946
61290W        W22711   8.751   5.257   2.876
61291W        W22712   4.378  43.882  14.854
61292W        W22713  40.493   9.255  13.852
61293W        W22714  26.695  38.549  14.001
61294W        W22715  22.517  31.048   4.622
61295W        W22716  33.888  44.340  13.441
61296W        W22717  13.262  27.091  13.903
61297W        W22718  36.429  31.988  14.342
61298W        W22719   0.260   5.893   0.729
61299W        W22720  10.217  28.479   3.721
61300W        W22721  10.241  19.570  13.930
61301W        W22722  11.647  34.413  10.124
61302W        W22723  21.533  14.738   1.904
61303W        W22724  34.075  41.009   3.365
61304W        W22725  34.951  36.526  14.341
61305W        W22726  19.542  30.075   0.783
61306W        W22727  44.302  18.676  10.463
61307W        W22728  18.074  42.902   2.317
61308W        W22729  36.468  42.352   0.909
61309W        W22730  14.223  26.071  13.916
61310W        W22731  28.100   2.893  12.911
61311W        W22732  40.521  17.702   2.761
61312W        W22733  36.455   3.844  11.577
61313W        W22734  25.170  21.589  12.022
61314W        W22735  10.713   3.723   1.926
61315W        W22736  37.510  24.109   0.923
61316W        W22737  42.923   0.950   1.913
61317W        W22738  25.621  20.527  13.051
61318W        W22739  39.504   1.967  10.494
61319W        W22740  11.866  34.910   4.320
61320W        W22741   2.731  34.919   9.946
61321W        W22742  18.789  42.804   5.099
61322W        W22743  18.072  42.977  12.834
61323W        W22744  30.024  12.659  12.500
61324W        W22745  30.123  25.171   2.331
61325W        W22746  33.528  32.036   4.660
61326W        W22747   1.976  19.276   3.706
61327W        W22748  20.653  44.939   4.168
61328W        W22749  38.032  18.592  13.393
61329W        W22750   4.356  18.684   1.905
61330W        W22751  37.473  36.539   1.292
61331W        W22752  14.288   9.355  13.002
61332W        W22753  21.242  33.987   1.247
61333W        W22754  26.057  31.921  13.403
61334W        W22755  26.504  44.482  13.895
61335W        W22756  27.657  26.002   1.750
61336W        W22757  10.157  25.516   0.329
61337W        W22758  15.638   2.832   2.804
61338W        W22759   4.374   4.407  14.000
61339W        W22760  38.486  25.085   1.371
61340W        W22761  36.509  33.093   3.187
61341W        W22762  32.951   5.395  11.057
61342W        W22763  37.911  21.578  12.460
61343W        W22764  15.313  19.248   0.385
61344W        W22765   8.232  41.333   5.245
61345W        W22766  40.038  33.464   2.684
61346W        W22767   4.749  15.740   2.225
61347W        W22768  34.472   2.734  12.957
61348W        W22769  17.775  38.407   4.126
61349W        W22770  35.971   5.363  13.536
61350W        W22771  18.268   7.185  10.488
61351W        W22772  32.557  37.864  14.476
61352W        W22773  20.645  39.976   4.319
61353W        W22774   5.248  36.369  13.521
61354W        W22775   0.744  13.144  11.518
61355W        W22776  44.764  36.872  14.277
61356W        W22777  40.842  43.945   2.792
61357W        W22778  11.629   0.265   2.181
61358W        W22779  32.112  15.698   5.259
61359W        W22780   7.405  31.964  13.795
61360W        W22781   2.934  28.140  14.003
61361W        W22782  41.386  38.061   0.403
61362W        W22783   7.892  29.524   3.762
61363W        W22784  26.106  42.819   4.252
61364W        W22785  15.769  16.698  14.849
61365W        W22786   1.869  32.056  10.918
61366W        W22787  12.242   7.692  14.344
61367W        W22788  16.212  44.458  14.980
61368W        W22789   2.848  11.172  14.784
61369W        W22790  23.664  43.513   3.193
61370W        W22791  41.909  11.271  11.479
61371W        W22792   4.341  18.201   3.768
61372W        W22793   6.899   9.827   2.371
61373W        W22794  27.183  15.140   1.753
61374W        W22795  28.655   1.959  12.047
61375W        W22796   6.380  36.883  12.371
61376W        W22797  33.994  41.925  11.951
61377W        W22798  35.562   1.907   1.834
61378W        W22799  41.442   0.409   3.374
61379W        W22800  13.810  25.134  10.983
61380W        W22801   6.185  43.021  13.424
61381W        W22802  13.690  33.534  14.991
61382W        W22803  37.990  27.507   4.837
61383W        W22804  25.551   6.823  12.011
61384W        W22805   3.944  27.131  10.428
61385W        W22806  14.670  10.712   2.821
61386W        W22807  29.516  24.666   0.305
61387W        W22808  25.175   3.742  12.075
61388W        W22809  22.636  39.874   1.295
61389W        W22810  35.511   5.369   4.286
61390W        W22811   4.944   7.314   0.933
61391W        W22812  24.025  22.095  10.887
61392W        W22813   0.250  22.617  10.898
61393W        W22814   2.449  12.754  10.404
61394W        W22815   8.808   7.278  11.913
61395W        W22816   4.845  39.058  12.039
61396W        W22817   3.370  23.703   2.718
61397W        W22818  26.474  19.079  13.871
61398W        W22819   7.837  12.696  12.440
61399W        W22820  20.526  34.948  10.628
61400W        W22821  17.758  22.213   2.181
61401W        W22822  44.366   6.421   0.838
61402W        W22823  26.150   2.401   4.815
61403W        W22824  10.704  30.101   3.866
61404W        W22825  27.506  14.222   2.764
61405W        W22826   7.781  35.904   9.924
61406W        W22827  36.510   9.185   3.643
61407W        W22828   5.730  28.049   1.441
61408W        W22829  34.102  33.027  13.904
61409W        W22830  25.667  34.421  13.023
61410W        W22831  24.625  29.094   4.832
61411W        W22832  26.128  38.520   4.223
61412W        W22833  10.155  28.168   4.805
61413W        W22834  41.945   7.883  14.509
61414W        W22835  14.625  11.643   1.713
61415W        W22836  25.692  13.804  13.821
61416W        W22837  11.782   0.296   0.463
61417W        W22838  23.114  42.282   4.704
61418W        W22839  36.514  28.579   2.868
61419W        W22840   0.255  12.267  14.902
61420W        W22841  34.391  13.769   0.844
61421W        W22842  32.440  31.405   0.302
61422W        W22843  33.389  28.102   5.253
61423W        W22844  31.414  31.899  11.095
61424W        W22845   9.317  20.721  13.456
61425W        W22846  33.987  44.499   1.752
61426W        W22847  18.578  30.555   5.192
61427W        W22848  34.369  10.658  14.991
61428W        W22849   8.380  22.139   2.752
61429W        W22850  10.237   4.248   1.855
61430W        W22851  34.946   5.772   5.281
61431W        W22852   0.889  43.928   3.219
61432W        W22853  20.037   3.399  10.025
61433W        W22854  29.931  20.599  13.908
61434W        W22855  27.077   8.218  14.917
61435W        W22856  31.911  42.291  14.448
61436W        W22857   2.737   2.355   3.203
61437W        W22858  19.592  10.202   3.224
61438W        W22859   0.791   2.378  14.383
61439W        W22860  11.736  25.607  12.471
61440W        W22861   6.825  10.747   0.922
61441W        W22862   2.339  35.913   2.798
61442W        W22863  38.350  34.392   3.715
61443W        W22864  25.095  18.545  12.870
61444W        W22865  25.045  31.563   1.792
61445W        W22866  30.417   5.881  13.445
61446W        W22867  28.494  12.334  11.963
61447W        W22868  30.610  37.400   1.796
61448W        W22869   3.945   5.232  13.814
61449W        W22870  35.484  29.092  14.936
61450W        W22871  25.468  36.407   1.761
61451W        W22872  15.193  32.980   2.827
61452W        W22873  35.452  16.157  12.450
61453W        W22874  44.955   8.240   4.200
61454W        W22875   8.332  30.472   1.283
61455W        W22876  35.102  44.294   0.451
61456W        W22877  16.790  36.928  10.538
61457W        W22878  26.460  20.645   1.808
61458W        W22879   2.233  38.391   3.814
61459W        W22880  29.935  40.922  12.434
61460W        W22881  12.315  10.212  14.782
61461W        W22882  40.466   1.389  11.864
61462W        W22883  33.882  19.102   1.312
61463W        W22884  31.436   2.290  10.048
61464W        W22885   3.365  13.180  14.312
61465W        W22886  36.041   3.237  10.072
61466W        W22887  30.433  32.592   4.627
61467W        W22888  42.028  44.948  12.982
61468W        W22889  37.026  39.861  11.603
61469W        W22890  10.873  20.175   0.419
61470W        W22891  28.552  26.608  10.950
61471W        W22892   3.380  30.418   2.324
61472W        W22893   1.859  16.198  14.946
61473W        W22894  43.420   6.756   2.216
61474W        W22895  39.958  17.262  11.973
61475W        W22896  21.604  15.779   2.731
61476W        W22897   1.311   4.912   1.794
61477W        W22898   5.789  16.764   2.748
61478W        W22899  17.652  40.421  12.038
61479W        W22900  19.724  42.434   2.270
61480W        W22901  20.707  19.539   2.419
61481W        W22902  38.483  15.318  11.571
61482W        W22903   3.275   4.856  14.987
61483W        W22904  26.141   9.214   2.784
61484W        W22905  16.156   5.808   4.279
61485W        W22906  36.967  32.570   2.673
61486W        W22907  28.071  12.851  12.837
61487W        W22908  36.010  14.295  13.031
61488W        W22909   6.724  14.275   3.696
61489W        W22910  21.119  13.125  10.893
61490W        W22911  41.347  38.549   1.299
61491W        W22912  39.472  44.946  12.002
61492W        W22913  12.714  44.303  11.530
61493W        W22914  24.160  42.891  14.429
61494W        W22915  15.599   5.772  14.387
61495W        W22916  28.954  41.329  12.427
61496W        W22917  31.470   0.897   3.863
61497W        W22918  18.644  13.739  12.506
61498W        W22919  41.801   4.814   1.745
61499W        W22920  11.335  10.764  11.556
61500W        W22921  16.709  37.394  12.882
61501W        W22922   1.964   3.838  12.030
61502W        W22923  33.449  10.700   2.748
61503W        W22924   5.714  31.613   3.655
61504W        W22925  28.006  17.145   0.264
61505W        W22926   8.269  34.423   1.829
61506W        W22927  30.070   9.716   5.675
61507W        W22928  20.578  38.029   4.635
61508W        W22929   8.208  33.477   4.754
61509W        W22930  44.301  34.903  12.538
61510W        W22931  15.142  35.882  13.348
61511W        W22932  34.477  42.779   2.725
61512W        W22933  27.064  19.139   0.279
61513W        W22934  33.476  14.763  12.038
61514W        W22935  32.066  24.659   2.739
61515W        W22936  25.002   9.844   2.237
61516W        W22937  36.895  41.316  10.477
61517W        W22938   4.707   3.825   3.768
61518W        W22939  14.143  38.959  12.351
61519W        W22940  23.047   9.153  13.061
61520W        W22941  22.063  34.090   0.425
61521W        W22942  44.845  15.166  11.928
61522W        W22943  39.461  26.086   4.739
61523W        W22944  16.077  18.653  14.342
61524W        W22945  13.259  22.133  10.616
61525W        W22946  10.736  36.924   3.330
61526W        W22947  15.263  15.320   0.470
61527W        W22948   8.819  26.607   0.793
61528W        W22949  14.818   9.766  11.542
61529W        W22950  19.643   8.381  14.407
61530W        W22951  41.898   5.857   0.461
61531W        W22952  19.648  31.472   4.302
61532W        W22953  42.470   0.353  12.870
61533W        W22954  10.345  42.407   1.406
61534W        W22955  26.532  12.283   4.666
61535W        W22956  19.592   6.891   5.161
61536W        W22957  19.631  21.052   1.402
61537W        W22958  21.086   0.791   3.214
61538W        W22959  28.673  30.434  10.541
61539W        W22960  36.545  16.289   1.773
61540W        W22961  11.373  16.098  14.390
61541W        W22962  39.041   7.300   0.249
61542W        W22963   6.751  33.623  14.003
61543W        W22964  39.498   8.671   3.230
61544W        W22965  12.698  34.036   5.694
61545W        W22966   4.827   3.892   3.160
61546W        W22967  28.177  21.582   4.270
61547W        W22968  39.488  30.007   4.176
61548W        W22969  11.699  24.173   2.223
61549W        W22970   0.935  22.727   5.225
61550W        W22971   0.261  30.481  12.475
61551W        W22972  18.248  40.040  12.396
61552W        W22973   2.327   2.961  13.371
61553W        W22974  15.200  27.159  11.389
61554W        W22975   2.813  18.160  14.889
61555W        W22976  40.980  16.713  14.777
61556W        W22977  44.294   2.368   3.306
61557W        W22978  37.004  24.085  11.035
61558W        W22979   1.336   7.855   2.322
61559W        W22980   9.824  32.559   0.735
61560W        W22981  12.275  29.632  11.470
61561W        W22982  10.751  16.698  12.014
61562W        W22983  22.586  38.467  11.929
61563W        W22984   4.709  31.995   0.851
61564W        W22985  14.183  29.168  11.514
61565W        W22986   3.825  31.049  11.427
61566W        W22987   3.854   1.366  13.409
61567W        W22988  36.954  34.592   3.681
61568W        W22989  13.613   4.926   3.263
61569W        W22990  18.215  23.666   4.715
61570W        W22991  11.762  44.954  10.892
61571W        W22992  26.048   1.745   0.746
61572W        W22993   5.821  16.590   3.827
61573W        W22994  18.652  26.620   4.765
61574W        W22995  44.339   3.944  13.051
61575W        W22996  38.884  35.071   5.160
61576W        W22997  16.105   3.253  14.513
61577W        W22998  32.947  21.244  13.312
61578W        W22999   0.338  33.494  10.961
61579W        W23000  37.351  31.412   1.267
61580W        W23001  29.999  17.282   0.308
61581W        W23002  39.837  16.131  14.991
61582W        W23003   5.331  22.087   0.391
61583W        W23004   9.800   8.888  14.992
61584W        W23005  33.097  41.309   3.704
61585W        W23006   1.326  40.050  11.103
61586W        W23007  19.581  22.644   0.751
61587W        W23008  16.640  21.146   1.242
61588W        W23009  25.160  17.588   1.330
61589W        W23010  36.011  44.972  11.523
61590W        W23011   7.302   4.788  12.958
61591W        W23012  15.716  24.140  14.962
61592W        W23013  38.984  33.896  14.974
61593W        W23014  11.203  43.269   2.876
61594W        W23015  10.326   2.381   0.749
61595W        W23016  43.779  43.840   0.249
61596W        W23017  18.111  26.647   4.242
61597W        W23018  44.377   5.799   1.733
61598W        W23019  10.651  40.012   2.254
61599W        W23020  21.193  17.712   4.173
61600W        W23021  39.935  21.749  11.085
61601W        W23022  26.604  40.903  12.917
61602W        W23023  37.861  15.164  12.451
61603W        W23024  22.585  17.234   2.851
61604W        W23025  10.847  13.174  13.540
61605W        W23026  33.463  42.804   1.288
61606W        W23027  11.339  36.569  13.475
61607W        W23028  14.232   3.868   1.346
61608W        W23029  21.565  12.814   9.481
61609W        W23030  36.419  25.207   2.219
61610W        W23031  13.618  40.871  13.525
61611W        W23032  17.067  20.756  13.389
61612W        W23033   5.878  23.552  10.493
61613W        W23034  36.513  13.762   0.405
61614W        W23035  26.552  25.648  13.872
61615W        W23036  44.299  41.831  12.389
61616W        W23037  37.040  41.935   4.252
61617W        W23038  26.965   1.820   4.153
61618W        W23039  38.451  33.003   3.787
61619W        W23040   6.879  14.304   2.311
61620W        W23041  37.983   6.913   2.285
61621W        W23042  36.001  10.239  12.377
61622W        W23043  24.651   8.358   3.739
61623W        W23044  32.130  38.395  13.853
61624W        W23045  44.927  16.127  13.997
61625W        W23046   9.705   8.815   1.822
61626W        W23047  15.800   4.315   4.702
61627W        W23048  31.585  35.540   1.886
61628W        W23049  31.441   0.464  13.456
61629W        W23050  30.422   4.258   3.643
61630W        W23051  41.794  42.292  13.055
61631W        W23052  14.132  10.806   3.835
61632W        W23053  20.656  38.849   0.304
61633W        W23054  11.629  14.735  14.831
61634W        W23055  38.434  20.709   3.656
61635W        W23056  10.854  26.951   1.867
61636W        W23057  22.061  24.202  11.934
61637W        W23058  25.678  18.074   3.789
61638W        W23059  37.862  23.995   4.249
61639W        W23060  25.192  24.694   0.331
61640W        W23061  36.354  13.635   4.124
61641W        W23062  34.077  20.680  12.057
61642W        W23063  25.548  34.614   2.684
61643W        W23064  43.779   7.767  12.358
61644W        W23065  31.916  20.133  13.002
61645W        W23066  11.664  15.798   4.275
61646W        W23067  16.304   9.796  12.031
61647W        W23068  12.678  40.942   2.825
61648W        W23069  18.708   8.687  11.502
61649W        W23070  14.242  27.164   1.346
61650W        W23071  36.563  44.974  14.389
61651W        W23072  27.970  43.489  10.590
61652W        W23073  20.617  13.198  12.576
61653W        W23074  22.108   2.238   0.781
61654W        W23075  10.787   8.328  12.578
61655W        W23076   0.401  22.711   0.931
61656W        W23077   0.306   3.954  11.862
61657W        W23078   6.395  19.209   0.851
61658W        W23079  34.475  23.705  11.466
61659W        W23080  36.360  38.857   1.429
61660W        W23081  14.118  41.355   1.387
61661W        W23082  21.146  10.355   1.752
61662W        W23083  36.445  29.126   5.294
61663W        W23084   5.389  15.788   2.815
61664W        W23085  10.148  37.912   3.825
61665W        W23086  41.477  40.395   0.909
61666W        W23087  42.486  31.918   3.750
61667W        W23088  44.491  35.002  13.004
61668W        W23089  24.483  13.145   4.746
61669W        W23090  34.951  25.087  10.530
61670W        W23091  17.279   3.446  12.991
61671W        W23092  11.213  23.084   4.763
61672W        W23093   9.305  15.686   2.770
61673W        W23094  27.085  40.468  11.543
61674W        W23095  29.632  22.713  14.504
61675W        W23096   1.482   0.752   2.298
61676W        W23097   8.206  14.109   4.600
61677W        W23098  30.578  37.422   4.264
61678W        W23099  25.972  29.960  14.344
61679W        W23100  43.000   3.386   3.268
61680W        W23101  20.222  13.116  12.957
61681W        W23102  25.186  40.031   4.776
61682W        W23103  30.533   9.829   0.444
61683W        W23104  33.946   5.346  12.835
61684W        W23105  40.939  12.225   0.330
61685W        W23106  41.336  12.233   2.348
61686W        W23107  26.079  21.017  12.489
61687W        W23108  37.888  22.202  11.021
61688W        W23109  32.548  36.891  13.849
61689W        W23110  32.402  13.645   2.749
61690W        W23111   9.718  20.720  13.505
61691W        W23112  35.103  20.135   4.664
61692W        W23113  21.164  30.114  14.360
61693W        W23114  10.194  13.601   1.797
61694W        W23115  13.230  27.111  10.990
61695W        W23116  30.480  26.680   2.844
61696W        W23117  36.382  38.490   3.380
61697W        W23118  22.224  37.376  14.464
61698W        W23119  31.528  17.652   3.251
61699W        W23120  40.326   4.876   3.161
61700W        W23121   0.790   9.272  14.844
61701W        W23122  21.220  16.567   3.799
61702W        W23123  44.473  38.974   1.717
61703W        W23124  12.208   2.315  12.827
61704W        W23125  10.746   5.303   4.647
61705W        W23126   2.939  33.087  13.830
61706W        W23127   8.689  21.149  11.947
61707W        W23128  19.673  20.100   4.190
61708W        W23129  19.734  27.140  14.889
61709W        W23130   7.226  12.132  10.591
61710W        W23131  22.718  26.196   1.744
61711W        W23132  44.879  25.551   0.391
61712W        W23133  19.631   9.886   2.191
61713W        W23134  37.010  13.792   1.893
61714W        W23135  34.866   3.310  12.535
61715W        W23136  18.762   7.378   3.721
61716W        W23137  23.990  24.622  14.471
61717W        W23138   0.947  34.939  13.843
61718W        W23139  22.228   6.758  12.905
61719W        W23140  20.641  20.580  11.961
61720W        W23141   2.294   0.401  14.993
61721W        W23142   4.727  23.551   9.936
61722W        W23143  27.161  20.115   2.266
61723W        W23144  43.281   1.869  14.379
61724W        W23145  15.087   3.810  10.977
61725W        W23146   3.220   6.830  13.472
61726W        W23147  28.681  33.114   3.321
61727W        W23148  33.878  41.388  11.019
61728W        W23149  41.943  13.176  10.053
61729W        W23150  13.298  31.034   0.821
61730W        W23151  35.370  11.861  10.900
61731W        W23152  23.137   0.901   1.727
61732W        W23153  32.044  27.192  13.953
61733W        W23154  40.952  41.319  10.472
61734W        W23155   3.398  12.694   0.412
61735W        W23156  34.943   5.280   2.885
61736W        W23157  28.943  15.823  12.530
61737W        W23158  37.854  31.096  11.091
61738W        W23159  26.017  20.239  10.543
61739W        W23160  19.056   2.778  11.494
61740W        W23161   2.242  39.011   3.330
61741W        W23162  34.100  33.898  13.883
61742W        W23163  34.038  31.914   4.702
61743W        W23164  21.144   3.238   1.903
61744W        W23165  12.284  34.429   3.208
61745W        W23166   3.884  42.482   2.204
61746W        W23167  32.552   4.746   1.771
61747W        W23168  33.005  14.766   0.841
61748W        W23169  22.592  39.558   3.232
61749W        W23170  26.209  16.163  10.991
61750W        W23171  15.769  38.052  12.347
61751W        W23172   8.321  38.453   4.765
61752W        W23173  32.130  15.584  10.582
61753W        W23174  13.293  12.160  10.406
61754W        W23175  14.144  16.613   1.856
61755W        W23176  27.095  24.978  11.041
61756W        W23177  16.683  23.703  13.847
61757W        W23178  10.342  19.145  14.465
61758W        W23179  28.152  28.979   1.372
61759W        W23180  18.731  33.456  11.481
61760W        W23181  37.990  41.881   2.900
61761W        W23182  33.390  17.210   2.757
61762W        W23183  19.076  23.025   1.309
61763W        W23184  23.586  42.867   2.770
61764W        W23185   0.818  22.089  13.932
61765W        W23186  19.253   0.769   0.261
61766W        W23187  15.764  41.444  12.401
61767W        W23188   4.246  44.483  11.586
61768W        W23189  38.988  13.764   1.811
61769W        W23190   8.868  40.475  13.308
61770W        W23191   2.898   9.255  10.568
61771W        W23192  12.199  22.657   4.698
61772W        W23193  42.018  18.623   3.772
61773W        W23194  43.455  16.312  11.886
61774W        W23195  26.952  12.796   3.184
61775W        W23196  21.064  10.338   4.679
61776W        W23197   6.914  38.005  10.964
61777W        W23198  35.500  37.834  14.292
61778W        W23199  13.765  15.748  11.101
61779W        W23200  36.041  42.008   3.852
61780W        W23201  23.500  38.395   4.607
61781W        W23202  30.417  22.713   4.631
61782W        W23203   0.832   5.337   1.443
61783W        W23204  19.223   9.361   1.251
61784W        W23205  30.589  13.600  11.988
61785W        W23206   5.254  19.594   1.888
61786W        W23207   2.301  41.959   3.718
61787W        W23208  32.413  19.650  14.430
61788W        W23209  35.017  20.704   2.743
61789W        W23210  39.952  16.295  11.882
61790W        W23211   2.299  27.957   2.285
61791W        W23212  42.903   8.875  13.833
61792W        W23213  35.479  21.025   1.342
61793W        W23214   9.387  29.114   1.774
61794W        W23215  14.653  16.309  10.501
61795W        W23216  31.976  29.017   3.373
61796W        W23217  18.583  38.863  12.416
61797W        W23218  32.047  17.181   4.681
61798W        W23219  27.111  37.902  12.994
61799W        W23220  23.986  34.921   2.385
61800W        W23221  10.692  26.595   3.387
61801W        W23222  36.897  41.951  13.518
61802W        W23223  28.509  17.721  11.947
61803W        W23224  39.462  22.526  10.114
61804W        W23225   0.260  21.028  14.959
61805W        W23226  33.946  11.317  12.043
61806W        W23227  28.986  40.991   0.863
61807W        W23228   1.369  25.658  10.479
61808W        W23229  26.698  17.132  11.489
61809W        W23230  24.501   1.957   3.723
61810W        W23231  38.835  19.757   3.795
61811W        W23232  20.679   8.737  12.356
61812W        W23233  23.240  43.347  11.443
61813W        W23234  41.470  12.362   4.221
61814W        W23235   4.265  44.953  10.028
61815W        W23236   1.945  11.762  14.454
61816W        W23237   9.836  18.586   2.368
61817W        W23238  37.873  24.073  10.484
61818W        W23239  19.042   5.215  10.899
61819W        W23240   0.921   0.896  10.613
61820W        W23241  37.461  26.998   4.641
61821W        W23242  15.225  13.269   2.401
61822W        W23243  33.922   2.431  14.009
61823W        W23244   9.318  38.976   2.190
61824W        W23245   9.268  41.900  10.077
61825W        W23246  24.048  23.040  11.109
61826W        W23247  18.116   4.889   0.731
61827W        W23248  11.213  37.918   3.782
61828W        W23249  27.983  30.126   3.179
61829W        W23250  37.453   0.269   3.147
61830W        W23251  20.690  38.545  11.858
61831W        W23252  36.075  37.577   0.340
61832W        W23253  31.093  19.654  14.313
61833W        W23254  25.107   1.478   0.426
61834W        W23255  32.068  22.013  10.978
61835W        W23256  16.634  25.997  13.403
61836W        W23257   3.435  36.943   0.808
61837W        W23258  25.996  39.960  10.496
61838W        W23259  11.820  16.152   3.301
61839W        W23260  16.749  34.931   0.733
61840W        W23261  38.375  36.053  12.438
61841W        W23262   7.710   8.806   1.431
61842W        W23263  33.899  23.559   3.763
61843W        W23264  13.824  19.112   1.286
61844W        W23265  36.004  12.677  14.778
61845W        W23266  32.939  30.454   3.341
61846W        W23267  17.221  14.137  12.515
61847W        W23268  29.059   5.367  11.610
61848W        W23269  23.715   5.388   0.827
61849W        W23270  17.150  25.052   5.171
61850W        W23271  15.639  24.984  12.878
61851W        W23272  24.527   6.741   1.289
61852W        W23273   4.412  31.596   3.716
61853W        W23274   9.781  18.695  13.434
61854W        W23275  16.077  23.569   3.632
61855W        W23276  32.052   2.274   2.372
61856W        W23277  19.733   6.261   3.382
61857W        W23278   3.812  26.702  10.508
61858W        W23279  27.072   6.908   3.379
61859W        W23280  12.708  10.242  14.005
61860W        W23281  10.783  29.124   0.791
61861W        W23282  32.399   8.782  13.406
61862W        W23283  41.825   8.329   0.348
61863W        W23284  40.480  27.646   4.277
61864W        W23285  18.278   7.379   3.750
61865W        W23286  31.406  31.464  12.859
61866W        W23287  19.125   9.814  14.931
61867W        W23288  37.029   0.770  10.450
61868W        W23289  24.047  32.624   2.375
61869W        W23290   1.342  13.621   2.351
61870W        W23291  11.270  26.593   0.358
61871W        W23292  17.143   7.755   1.776
61872W        W23293   1.403  21.030   0.944
61873W        W23294  34.457   1.242  10.585
61874W        W23295  14.162  15.639   4.346
61875W        W23296   3.367  17.671   4.332
61876W        W23297   1.749  20.046   2.255
61877W        W23298   9.176  23.637   4.224
61878W        W23299   4.775  42.780   4.227
61879W        W23300   9.353  16.182  11.520
61880W        W23301  17.073  17.273   2.662
61881W        W23302   4.750  19.186  12.981
61882W        W23303  27.122  13.345   4.828
61883W        W23304  38.920   3.711   3.346
61884W        W23305  10.180  27.495   3.761
61885W        W23306   8.398  37.392   4.156
61886W        W23307  15.232  12.287   1.231
61887W        W23308  41.968  44.495   0.789
61888W        W23309  10.171  26.005  13.955
61889W        W23310  22.203  44.862  12.371
61890W        W23311   9.334  24.505  14.470
61891W        W23312  22.037   8.697   3.669
61892W        W23313   8.165  13.309   2.768
61893W        W23314  31.139  12.330  13.995
61894W        W23315  21.636  11.742  11.955
61895W        W23316   7.332  36.013   4.255
61896W        W23317   3.735  10.721  12.363
61897W        W23318  40.394  22.582  14.911
61898W        W23319   2.453   0.972  14.962
61899W        W23320  21.738  26.702   4.675
61900W        W23321   7.226  28.524  12.529
61901W        W23322  13.674   8.240   0.430
61902W        W23323  15.598  25.138  13.322
61903W        W23324  10.700  14.619  14.785
61904W        W23325  22.171  30.100   4.248
61905W        W23326  24.021  33.881   2.319
61906W        W23327  40.490   7.265  13.982
61907W        W23328  29.946   2.398   4.224
61908W        W23329  20.557   2.753   2.776
61909W        W23330  12.726  29.648  12.484
61910W        W23331   6.417   0.886  14.843
61911W        W23332   2.415  33.915   4.141
61912W        W23333  26.966  34.898  10.530
61913W        W23334  19.676  21.637   1.450
61914W        W23335  18.783   7.676  14.343
61915W        W23336  21.540  35.037  13.903
61916W        W23337   5.317  15.702   2.223
61917W        W23338  42.883   2.770  12.413
61918W        W23339  32.541  26.588  12.834
61919W        W23340  43.480  16.271   3.676
61920W        W23341  16.780  12.132   2.868
61921W        W23342  23.669  20.191  12.548
61922W        W23343  27.183   3.455  12.567
61923W        W23344  37.565   1.316   4.337
61924W        W23345   3.783  24.682   0.824
61925W        W23346   8.180  29.567   0.311
61926W        W23347  16.689  31.990   2.722
61927W        W23348  29.549  32.598  14.965
61928W        W23349  25.138  34.613  13.841
61929W        W23350  25.007   6.895  10.610
61930W        W23351  16.569  24.064   4.251
61931W        W23352  40.465  35.387   4.204
61932W        W23353   8.256   4.883   0.476
61933W        W23354  12.841  22.252   3.350
61934W        W23355   0.479  24.573  10.956
61935W        W23356  35.071  21.164  10.912
61936W        W23357  29.080   9.748   2.810
61937W        W23358  17.718  24.093  14.023
61938W        W23359   1.751   1.323   1.860
61939W        W23360  30.097  35.537   3.863
61940W        W23361  44.323  19.126  13.804
61941W        W23362   8.805  29.488  13.501
61942W        W23363  33.888   0.763  12.458
61943W        W23364   8.826  40.358  11.459
61944W        W23365   5.310  29.565   2.369
61945W        W23366  13.599  28.588   0.332
61946W        W23367  22.560  40.408   4.296
61947W        W23368  43.981   6.748   4.806
61948W        W23369  36.985   2.469  11.972
61949W        W23370  41.363  35.021  13.896
61950W        W23371  23.156  19.728  13.024
61951W        W23372   0.449  43.843   4.797
61952W        W23373  24.668  44.418   3.853
61953W        W23374  25.705  22.741  13.992
61954W        W23375  38.552   0.284  12.422
61955W        W23376  34.555  34.443   1.350
61956W        W23377   0.412  34.420  14.824
61957W        W23378  41.498  33.551   0.479
61958W        W23379   5.764  41.035  14.822
61959W        W23380   4.393  26.579   1.894
61960W        W23381  19.230   0.294   2.717
61961W        W23382  42.986  32.913   4.208
61962W        W23383  14.239  38.388  11.518
61963W        W23384  21.042  42.025   3.162
61964W        W23385   6.332  35.078   4.624
61965W        W23386  22.684   4.419  13.945
61966W        W23387  36.373  23.001  13.316
61967W        W23388  17.755   2.255   0.426
61968W        W23389  44.338  38.878  12.945
61969W        W23390  43.966  26.599   4.260
61970W        W23391  12.194  41.925  12.945
61971W        W23392  36.367  37.340  10.533
61972W        W23393  16.200   5.282  13.054
61973W        W23394  35.523  44.427  11.525
61974W        W23395  18.713   5.236  10.473
61975W        W23396  26.078   7.249   4.748
61976W        W23397  22.593  18.623  13.999
61977W        W23398   5.748   3.896   3.750
61978W        W23399  33.480  19.053  11.114
61979W        W23400  28.538  23.057   1.904
61980W        W23401  27.081  24.202   4.211
61981W        W23402  14.147  12.633  11.975
61982W        W23403  32.456  40.811   3.256
61983W        W23404   9.813  24.993  10.635
61984W        W23405   0.840  44.401   2.784
61985W        W23406  29.438   3.338  13.945
61986W        W23407  20.144  44.375   1.347
61987W        W23408  35.472   6.754  10.999
61988W        W23409  38.512  27.530  12.380
61989W        W23410  14.223  33.459  13.823
61990W        W23411  21.696  22.168  10.577
61991W        W23412  25.475  40.537   4.205
61992W        W23413  44.798  43.873   3.312
61993W        W23414   6.291   3.731   0.785
61994W        W23415  31.949  20.648  11.560
61995W        W23416   7.751  32.951  12.388
61996W        W23417  30.061  23.037  11.394
61997W        W23418  27.577   4.850   2.804
61998W        W23419   2.272  24.549  10.093
61999W        W23420  25.523   2.332   0.933
62000W        W23421  38.433  26.613   2.870
62001W        W23422   4.793  37.060   4.221
62002W        W23423  16.599  13.669   4.185
62003W        W23424   9.383  42.460   1.750
62004W        W23425  44.776  31.024  10.443
62005W        W23426   4.825   8.218   1.764
62006W        W23427   0.951  43.364   3.664
62007W        W23428  17.071   5.385  14.358
62008W        W23429  34.577  10.696  13.388
62009W        W23430  39.992   8.169  10.513
62010W        W23431   0.850   6.333  12.528
62011W        W23432  15.679  30.565   2.414
62012W        W23433  17.213   8.871  11.393
62013W        W23434   2.389  29.604   5.302
62014W        W23435  39.432   3.457   0.436
62015W        W23436  18.124  27.610   3.820
62016W        W23437   0.845  26.610  12.446
62017W        W23438  33.426   5.234  14.801
62018W        W23439  40.932  32.913   0.833
62019W        W23440   5.362   4.786   1.430
62020W        W23441  31.560  36.552  14.489
62021W        W23442  24.084  36.865  12.371
62022W        W23443  11.136  40.959  10.472
62023W        W23444  29.964  23.568  14.778
62024W        W23445   2.806  33.576   0.832
62025W        W23446   5.792  34.930  11.039
62026W        W23447  17.783  10.202  10.452
62027W        W23448  13.644  29.108  12.417
62028W        W23449   2.932   6.337   0.784
62029W        W23450  21.602   1.861  12.559
62030W        W23451  44.764  30.030   1.344
62031W        W23452  14.722  35.934   4.832
62032W        W23453   2.460  14.155   2.315
62033W        W23454  11.289   5.358   4.644
62034W        W23455  40.540  21.050   3.792
62035W        W23456  39.409  27.097   3.298
62036W        W23457  23.637  22.652   1.352
62037W        W23458  41.820  24.109  12.858
62038W        W23459  35.414  41.299   0.406
62039W        W23460   5.910  11.250   2.713
62040W        W23461   6.214   4.406  13.909
62041W        W23462   9.811  11.299  14.496
62042W        W23463  28.455  41.965  14.773
62043W        W23464  19.704  19.192  10.951
62044W        W23465  30.527  16.705  14.960
62045W        W23466  35.865  44.476  13.463
62046W        W23467   1.430  15.739   1.272
62047W        W23468  18.083  44.321   2.752
62048W        W23469  11.187  21.628  11.548
62049W        W23470   0.443  13.120   0.810
62050W        W23471  30.436  44.815  12.352
62051W        W23472  44.803  23.031   4.621
62052W        W23473  36.027  21.677   0.466
62053W        W23474  42.807   8.213   4.279
62054W        W23475   3.331  36.551  13.804
62055W        W23476  38.819  23.110  10.467
62056W        W23477   9.252  12.317   2.281
62057W        W23478  39.825   0.871  10.554
62058W        W23479  24.082   9.782   0.728
62059W        W23480  40.421  30.569  10.991
62060W        W23481  29.550  19.711   3.683
62061W        W23482  11.630  12.164   1.698
62062W        W23483  32.917  22.015   2.341
62063W        W23484  44.289   5.226   1.215
62064W        W23485  16.735   4.399   4.223
62065W        W23486  17.584  38.015   4.632
62066W        W23487  42.025  29.145   9.979
62067W        W23488  23.493  13.171  13.392
62068W        W23489  32.512  25.179  10.459
62069W        W23490  21.636  16.807   4.200
62070W        W23491   9.178  29.061  14.459
62071W        W23492   3.445  21.098  13.005
62072W        W23493   9.365  11.250  13.892
62073W        W23494  26.983  19.623  12.577
62074W        W23495  13.679  38.965   2.373
62075W        W23496  33.513  35.542   3.315
62076W        W23497   1.736  20.070  10.537
62077W        W23498  29.135  31.907   4.349
62078W        W23499  14.626  34.522   3.217
62079W        W23500  22.695  28.664   3.333
62080W        W23501  37.904  23.216  14.424
62081W        W23502  21.642  13.770   1.329
62082W        W23503   5.388  39.936   0.782
62083W        W23504  22.598  28.506  13.333
62084W        W23505  16.802  22.560   4.119
62085W        W23506   3.332  30.009  12.346
62086W        W23507   4.765  32.987  14.497
62087W        W23508  40.488  19.701   1.714
62088W        W23509   8.227  31.596   1.356
62089W        W23510   5.355  33.493   1.705
62090W        W23511  16.123   4.794  11.007
62091W        W23512  35.554  13.693   2.688
62092W        W23513  19.752  32.609  10.974
62093W        W23514  35.413   4.253   3.778
62094W        W23515   6.867  31.438  11.556
62095W        W23516  12.142  35.422  11.917
62096W        W23517   5.861  10.877  10.416
62097W        W23518  17.719  24.994  13.502
62098W        W23519   0.765  32.973  11.107
62099W        W23520  16.676  30.920   3.866
62100W        W23521   7.183  18.150  13.476
62101W        W23522  18.758  27.500   3.707
62102W        W23523   6.813   7.300   4.775
62103W        W23524  22.734  18.651   1.369
62104W        W23525  23.021  37.373  12.473
62105W        W23526   2.779   1.357  11.125
62106W        W23527  22.704   2.902  13.816
62107W        W23528  35.384  38.851   1.314
62108W        W23529  31.439  10.813  10.976
62109W        W23530  25.505   4.285   1.750
62110W        W23531  42.367   9.762  12.084
62111W        W23532  30.573  34.934   5.280
62112W        W23533  18.632  31.088  12.562
62113W        W23534  22.030   4.931   1.289
62114W        W23535   5.208   5.917  14.786
62115W        W23536   5.415  19.680  10.563
62116W        W23537  16.791  36.861   4.209
62117W        W23538  10.658  23.068  10.958
62118W        W23539  44.433  41.401  14.414
62119W        W23540  18.741   9.371  13.408
62120W        W23541  39.440  10.871  13.324
62121W        W23542   9.860  35.591  11.403
62122W        W23543  29.171  29.101  12.096
62123W        W23544  13.271  42.934  14.283
62124W        W23545   6.226  32.497  10.438
62125W        W23546  42.944  44.404   2.723
62126W        W23547  25.084  44.321   4.300
62127W        W23548   2.360   8.293   4.819
62128W        W23549  35.563  44.870  14.362
62129W        W23550  31.007  42.320  11.375
62130W        W23551  17.293   7.297  10.467
62131W        W23552  12.842  42.024   2.747
62132W        W23553  21.556  38.416   3.834
62133W        W23554  21.123  24.159   2.892
62134W        W23555   0.252  42.995  13.897
62135W        W23556  28.944  30.424   1.917
62136W        W23557  23.670   8.373   9.526
62137W        W23558  20.670  40.888  14.000
62138W        W23559  28.973  25.652   1.298
62139W        W23560  19.545  33.598   1.698
62140W        W23561  29.545  23.584  11.380
62141W        W23562  28.072  18.120  10.027
62142W        W23563  21.713  34.071   3.187
62143W        W23564  37.339  13.635  11.411
62144W        W23565  12.809  28.983   3.733
62145W        W23566  20.121  34.914  13.006
62146W        W23567  37.379   1.402   3.209
62147W        W23568  40.874  15.785   0.955
62148W        W23569  15.822   1.759  14.440
62149W        W23570  16.633   8.299   3.310
62150W        W23571  36.521  30.492   3.182
62151W        W23572  36.062   9.877  14.846
62152W        W23573   0.946  17.070  12.534
62153W        W23574  15.613   9.281   0.258
62154W        W23575  19.597  18.708   2.741
62155W        W23576  24.578  43.394   1.917
62156W        W23577  27.509  11.351  13.453
62157W        W23578  14.129   8.369   1.350
62158W        W23579  16.665  11.278   4.727
62159W        W23580   8.749  16.650   0.805
62160W        W23581  12.761  12.332   1.417
62161W        W23582  28.111  21.615   0.794
62162W        W23583  30.490   6.277  14.824
62163W        W23584  16.581  21.123   1.886
62164W        W23585  44.839  23.603   1.400
62165W        W23586  38.564  44.801  10.451
62166W        W23587  37.960  38.457   0.912
62167W        W23588  37.060   8.823   0.457
62168W        W23589  33.014  34.965  14.986
62169W        W23590  39.381  35.963   1.821
62170W        W23591   5.809   9.758  12.990
62171W        W23592  23.500   8.243   4.183
62172W        W23593  15.109  22.165  13.546
62173W        W23594  13.210  18.246  11.534
62174W        W23595  44.450  17.231  13.829
62175W        W23596  32.942  31.105   2.812
62176W        W23597   3.339   2.727   1.217
62177W        W23598  16.197   8.297   2.810
62178W        W23599   8.709  13.708   4.598
62179W        W23600  21.118  22.688  13.393
62180W        W23601  15.780   4.307  14.328
62181W        W23602   8.355  14.134   2.738
62182W        W23603  22.148  24.560   0.320
62183W        W23604  43.843  43.000   2.678
62184W        W23605  18.594  15.098  11.991
62185W        W23606  27.012  33.069  14.839
62186W        W23607   5.227   8.702  14.761
62187W        W23608  17.691  25.700  14.501
62188W        W23609   9.228  44.813  14.944
62189W        W23610  37.404  20.688  10.488
62190W        W23611  18.744  20.666   1.444
62191W        W23612   7.682  39.515   2.182
62192W        W23613  35.962  40.883   2.879
62193W        W23614  37.050  44.754   3.725
62194W        W23615  41.809  29.583   3.718
62195W        W23616   8.832  24.545  13.010
62196W        W23617  27.674  43.920  14.962
62197W        W23618  29.975  15.172   0.744
62198W        W23619   2.279  34.110   1.296
62199W        W23620  37.339   9.267  12.923
62200W        W23621  10.354  27.119   3.308
62201W        W23622   1.830  29.628  14.893
62202W        W23623  44.882  28.669  13.332
62203W        W23624  22.570  30.436   0.808
62204W        W23625  18.552  18.065  12.439
62205W        W23626  27.110   2.735  14.863
62206W        W23627  28.028  27.509   0.269
62207W        W23628  21.572  35.544  12.977
62208W        W23629  15.173  15.642   4.811
62209W        W23630  38.346  14.811   0.824
62210W        W23631  35.888  11.158  11.859
62211W        W23632  23.622  38.536   3.149
62212W        W23633  40.483  26.037  12.350
62213W        W23634  35.896  26.593   4.676
62214W        W23635  11.635  42.932   3.155
62215W        W23636  38.836  24.099   1.253
62216W        W23637  39.432   5.820   0.937
62217W        W23638  23.030  13.613   0.429
62218W        W23639   6.232  27.156   3.718
62219W        W23640  41.491  40.807  13.424
62220W        W23641  12.155  23.588   3.863
62221W        W23642  35.471  20.565   0.754
62222W        W23643  11.710  24.655  10.993
62223W        W23644   3.277  37.559   3.856
62224W        W23645  32.611  12.237  11.880
62225W        W23646  30.089  44.495   2.829
62226W        W23647   8.781  35.484  14.467
62227W        W23648  23.129  13.821   4.136
62228W        W23649  20.232  24.670  11.603
62229W        W23650  36.906  32.937  11.862
62230W        W23651  38.855  30.059  14.957
62231W        W23652  33.423   6.759   0.846
62232W        W23653  20.082  36.380  10.527
62233W        W23654  25.624  41.987  14.887
62234W        W23655  14.259  41.519   4.707
62235W        W23656  11.230  38.548   2.253
62236W        W23657  16.175  22.225   3.789
62237W        W23658  34.054  31.901   3.720
62238W        W23659  40.946  39.871   2.736
62239W        W23660  18.600  19.660  11.461
62240W        W23661  19.763  24.167   1.310
62241W        W23662   9.699   2.727  13.063
62242W        W23663  40.464  34.944  13.397
62243W        W23664  43.380  15.149  14.492
62244W        W23665  31.438  35.932  12.383
62245W        W23666  10.869  31.645   2.704
62246W        W23667  33.981  23.711  14.891
62247W        W23668  32.925  31.588   1.433
62248W        W23669  10.198  11.202  12.880
62249W        W23670  17.266   4.729   0.962
62250W        W23671  27.015  26.195   0.753
62251W        W23672  39.453  30.521   4.758
62252W        W23673  43.807  29.555   4.115
62253W        W23674  35.042  31.950   3.283
62254W        W23675   9.735  22.111   3.716
62255W        W23676  24.518   7.181   2.768
62256W        W23677  39.397  18.289  14.345
62257W        W23678  16.231  28.008  13.506
62258W        W23679  26.997  14.677  12.935
62259W        W23680  21.226  21.539   2.832
62260W        W23681   5.881  11.666  14.429
62261W        W23682  22.042  23.226  14.427
62262W        W23683   2.762  32.518  14.862
62263W        W23684   7.324  31.647  14.987
62264W        W23685  29.170  19.709  12.497
62265W        W23686   8.267  14.757  13.312
62266W        W23687  42.862  25.496  11.610
62267W        W23688  32.434  32.043   4.206
62268W        W23689  24.976   4.863   1.292
62269W        W23690  36.407   2.396   9.522
62270W        W23691  41.818  17.660   1.227
62271W        W23692   5.197  13.776   4.758
62272W        W23693  11.772  18.177  12.831
62273W        W23694  32.920   6.200   0.816
62274W        W23695  17.170  32.494  12.579
62275W        W23696  34.595  27.564   4.303
62276W        W23697  23.029   4.829   2.889
62277W        W23698   5.837  37.864  14.407
62278W        W23699   8.281  35.366  14.999
62279W        W23700  15.756  11.285  12.928
62280W        W23701  40.335  34.547  12.376
62281W        W23702  34.928  25.068  12.366
62282W        W23703  31.968   6.366  10.544
62283W        W23704   2.418  39.398  10.583
62284W        W23705  27.091  12.144   0.440
62285W        W23706   1.940  31.577   9.999
62286W        W23707   3.849   2.817   4.654
62287W        W23708  31.122  12.731   2.699
62288W        W23709  22.561  34.030   2.399
62289W        W23710  12.314  10.214   4.125
62290W        W23711  30.907  13.778   3.659
62291W        W23712  33.523   1.373   4.354
62292W        W23713  22.603  20.592   4.236
62293W        W23714   8.172  21.039  12.529
62294W        W23715  24.577  12.685   4.179
62295W        W23716   0.419  34.476   3.164
62296W        W23717   9.311  35.874   1.795
62297W        W23718  11.759  23.529   0.348
62298W        W23719  35.528  15.139   4.760
62299W        W23720  36.999   2.781   0.402
62300W        W23721  15.768  12.748   0.884
62301W        W23722   1.261  29.561  13.856
62302W        W23723  14.234  37.563  12.015
62303W        W23724   2.736  16.672   2.245
62304W        W23725  10.656  34.919  13.885
62305W        W23726  27.574  20.275   1.748
62306W        W23727  26.183  11.255  14.980
62307W        W23728  14.727  38.556  13.825
62308W        W23729  32.940   9.180  14.845
62309W        W23730  27.607  23.734  10.895
62310W        W23731  22.639  33.600  13.399
62311W        W23732  11.772   1.756  12.919
62312W        W23733  27.094  28.581  14.926
62313W        W23734  40.458  11.816  14.515
62314W        W23735  27.548   1.852   1.297
62315W        W23736  17.131  25.013   2.206
62316W        W23737  22.196  11.835  11.381
62317W        W23738  30.456  20.668  10.961
62318W        W23739   8.796  18.727  11.009
62319W        W23740  17.100  44.322   0.367
62320W        W23741  37.466  37.877  14.787
62321W        W23742  33.565  44.326  13.352
62322W        W23743  25.047  33.899   0.427
62323W        W23744  42.300   7.798   1.760
62324W        W23745   9.246  36.053  12.865
62325W        W23746  23.734  14.123   2.371
62326W        W23747  30.460  31.485   0.261
62327W        W23748   7.274  12.156   3.696
62328W        W23749  38.951  13.293   5.776
62329W        W23750  30.464  34.100   4.350
62330W        W23751   6.844  16.302  14.460
62331W        W23752  22.683  29.615  10.155
62332W        W23753  35.451  39.491  12.877
62333W        W23754   6.210  39.977  12.350
62334W        W23755  31.086   9.743   4.159
62335W        W23756   6.385  11.760  14.871
62336W        W23757   5.208  26.081   0.396
62337W        W23758  42.377  40.448   1.888
62338W        W23759   5.334   1.859   0.842
62339W        W23760  32.530  35.919   2.198
62340W        W23761  32.080  20.113   5.176
62341W        W23762  44.769   4.263   1.374
62342W        W23763   7.198  34.016   2.217
62343W        W23764   5.281  13.658   1.733
62344W        W23765  25.119  41.998   1.412
62345W        W23766  19.774  17.605   2.232
62346W        W23767  32.057  33.561   1.721
62347W        W23768  43.312  28.056   3.344
62348W        W23769  11.338  33.381  12.015
62349W        W23770  10.284  10.727  14.783
62350W        W23771  26.465  25.038  11.527
62351W        W23772   8.212  19.049  13.934
62352W        W23773  22.623  27.994   0.910
62353W        W23774  39.395  27.983   2.722
62354W        W23775  17.228  37.051   3.823
62355W        W23776  13.344  20.206  14.483
62356W        W23777  44.335  41.936   4.640
62357W        W23778  21.224  22.234   0.344
62358W        W23779   6.201  25.993   3.179
62359W        W23780   6.302  30.485  11.555
62360W        W23781   4.942   0.767   2.729
62361W        W23782   4.810  37.372  11.950
62362W        W23783  27.605  22.071   0.376
62363W        W23784  44.976  31.018  14.409
62364W        W23785  43.481  23.109  13.820
62365W        W23786  20.574  38.999   3.788
62366W        W23787  18.076  23.182   3.742
62367W        W23788  28.641  24.489  10.606
62368W        W23789   4.255  37.484   1.339
62369W        W23790  39.325  43.923  12.552
62370W        W23791  11.281  27.131   4.782
62371W        W23792  32.530  19.546  14.936
62372W        W23793   2.731   2.869   5.691
62373W        W23794  35.910  39.340  14.928
62374W        W23795  13.313  20.745   4.284
62375W        W23796  13.233  33.022   2.314
62376W        W23797   2.780  29.466  12.841
62377W        W23798  25.212  32.961   1.298
62378W        W23799  20.529  22.508   4.825
62379W        W23800  43.279  24.500  14.859
62380W        W23801   0.301  19.618  12.829
62381W        W23802   9.352   1.859  12.458
62382W        W23803  38.550  14.796   5.097
62383W        W23804  40.007   7.733  12.865
62384W        W23805  16.768  33.963   1.771
62385W        W23806  14.215  29.998   1.867
62386W        W23807  39.824  29.502  11.007
62387W        W23808  10.785  34.589   0.284
62388W        W23809  21.048  10.303   1.419
62389W        W23810  27.546   0.936  13.001
62390W        W23811  12.731  25.529  11.907
62391W        W23812  19.697  28.101   1.275
62392W        W23813  39.934   9.814  12.888
62393W        W23814  13.270  13.738  13.890
62394W        W23815  15.775   0.836   2.181
62395W        W23816   6.843   1.942   1.412
62396W        W23817  34.909   7.811   1.913
62397W        W23818  32.934  13.766   2.398
62398W        W23819  21.719  19.632   2.707
62399W        W23820  40.020   3.731  12.864
62400W        W23821  37.948  16.257  13.409
62401W        W23822  10.141  25.495  12.058
62402W        W23823   1.775  13.288   2.311
62403W        W23824  43.423  14.789   1.745
62404W        W23825  14.589  35.590   4.723
62405W        W23826  10.804  11.350  10.415
62406W        W23827  20.535  11.359   1.881
62407W        W23828   2.417  40.542  12.023
62408W        W23829  17.736  10.383  11.536
62409W        W23830  15.755  26.981   0.426
62410W        W23831  40.342  33.032  13.344
62411W        W23832  12.339  16.223   2.337
62412W        W23833  11.281  22.503   1.368
62413W        W23834  25.148  24.096   0.799
62414W        W23835   8.846  17.197  12.981
62415W        W23836  15.657  43.809   2.332
62416W        W23837   7.839  23.114  13.895
62417W        W23838  21.744  20.059  14.904
62418W        W23839  29.552  24.095   2.182
62419W        W23840  13.819  18.742  12.964
62420W        W23841  36.576  18.702   1.244
62421W        W23842  13.749   2.813   0.344
62422W        W23843   1.365  30.607   5.292
62423W        W23844  37.509  29.078   0.836
62424W        W23845  31.139  12.848   1.216
62425W        W23846  43.974   4.226   0.939
62426W        W23847   5.855  27.462  13.392
62427W        W23848  33.470   9.280   3.798
62428W        W23849  29.467  35.374  14.854
62429W        W23850   2.423  43.478  12.090
62430W        W23851   3.782  36.502  14.999
62431W        W23852  28.997  11.266  12.961
62432W        W23853  12.641  37.566  13.958
62433W        W23854  28.635  21.601  10.981
62434W        W23855   1.943  31.107  11.500
62435W        W23856   2.779  35.588  11.027
62436W        W23857  17.586   3.865   0.929
62437W        W23858  44.299  41.351  13.925
62438W        W23859  27.575  37.490   3.271
62439W        W23860  12.845  35.996   1.894
62440W        W23861   8.659   5.408   4.655
62441W        W23862  24.621  14.749   3.148
62442W        W23863  44.924   6.903   1.879
62443W        W23864   4.366   9.863  13.798
62444W        W23865  27.612   7.855  14.900
62445W        W23866   8.375  24.609   3.666
62446W        W23867   6.709  44.265   4.276
62447W        W23868  18.649  20.658  13.505
62448W        W23869  17.725  18.072  11.120
62449W        W23870  38.962   2.902   1.337
62450W        W23871   1.815  29.152  11.986
62451W        W23872  44.871  29.127   2.358
62452W        W23873  37.033  29.005   3.263
62453W        W23874  31.605   1.289   3.327
62454W        W23875   8.838   3.273   0.276
62455W        W23876  42.887  39.058   1.244
62456W        W23877  16.246  22.083  11.517
62457W        W23878   1.974  28.571   0.262
62458W        W23879   4.774   1.889  11.552
62459W        W23880  10.721  17.073  14.351
62460W        W23881  22.086  23.505  12.955
62461W        W23882  35.386   3.926  14.510
62462W        W23883  24.483  41.418  14.864
62463W        W23884  18.548   7.412   0.838
62464W        W23885  30.024  26.653  11.436
62465W        W23886  39.891  29.029  11.971
62466W        W23887  30.493  21.727   0.462
62467W        W23888   1.249   9.708   3.837
62468W        W23889  22.188   8.733   5.111
62469W        W23890  14.704  26.510  11.432
62470W        W23891   8.683  10.366  13.447
62471W        W23892   5.265   8.196  13.404
62472W        W23893  30.425   5.200  13.513
62473W        W23894  41.322  39.339  11.954
62474W        W23895   9.862  20.690   0.908
62475W        W23896  28.475  11.138  14.813
62476W        W23897   6.398   4.942  14.978
62477W        W23898  37.442  38.490  10.430
62478W        W23899  35.887  33.486  10.430
62479W        W23900  35.575   0.341  14.832
62480W        W23901  30.966  40.509  13.040
62481W        W23902  15.666  33.114  14.791
62482W        W23903  11.759  24.099  11.910
62483W        W23904  32.940  35.547  12.056
62484W        W23905  30.463   2.903   3.710
62485W        W23906  36.565  16.093  14.429
62486W        W23907  10.853  31.951  10.531
62487W        W23908  40.341   9.774   2.864
62488W        W23909  40.424  15.133  14.405
62489W        W23910  39.558  23.234  11.591
62490W        W23911   8.780   2.943   0.348
62491W        W23912   7.684  17.608   2.720
62492W        W23913   7.845  23.546  14.867
62493W        W23914   0.798  14.703   3.661
62494W        W23915  19.262  35.104   0.303
62495W        W23916  38.946  10.344  12.546
62496W        W23917  35.604  14.701   0.318
62497W        W23918  17.730  10.249  14.347
62498W        W23919   1.312  13.603  11.912
62499W        W23920  32.041  26.490   2.721
62500W        W23921  19.170  44.479   4.612
62501W        W23922  34.090  16.579  13.943
62502W        W23923   5.353  13.220  11.930
62503W        W23924  13.122  35.070  13.481
62504W        W23925  29.510  23.683  13.492
62505W        W23926  31.047  21.750   3.648
62506W        W23927   1.443  41.875   4.719
62507W        W23928  11.156  38.360   5.188
62508W        W23929  23.581  33.398   3.290
62509W        W23930   0.747   3.822   0.755
62510W        W23931  43.373   6.315  11.495
62511W        W23932   4.733  33.497  10.512
62512W        W23933  22.120  31.615  13.368
62513W        W23934  17.773  18.283  13.336
62514W        W23935  25.713  15.660   5.134
62515W        W23936  10.329  23.060   4.305
62516W        W23937  21.543  39.062  13.932
62517W        W23938  42.336  32.399  14.911
62518W        W23939  12.262  20.138  13.499
62519W        W23940   6.278  42.980   2.746
62520W        W23941   4.210   5.242   1.373
62521W        W23942  24.649  39.344  10.903
62522W        W23943  32.630   7.878  11.878
62523W        W23944  24.664  44.944  12.373
62524W        W23945   3.895  42.985  10.445
62525W        W23946  38.476  28.180  12.967
62526W        W23947  41.022  12.615  11.576
62527W        W23948  15.644  28.054   0.481
62528W        W23949  27.598  24.668  12.020
62529W        W23950  34.392  22.161  14.334
62530W        W23951  30.158  37.831   1.738
62531W        W23952  37.362   9.218   4.649
62532W        W23953  20.719  18.649   4.632
62533W        W23954  21.650  10.258  13.010
62534W        W23955  20.607  15.787  11.398
62535W        W23956  22.666   5.886   1.767
62536W        W23957  25.568  27.539   2.203
62537W        W23958  17.243   1.357   2.232
62538W        W23959  28.681  23.674   1.878
62539W        W23960   7.171   4.336   2.830
62540W        W23961  33.505   0.376  14.286
62541W        W23962  14.309   5.817   2.219
62542W        W23963  31.624  29.437   4.701
62543W        W23964  11.735  26.123   0.905
62544W        W23965  39.969  16.190   2.213
62545W        W23966   8.314  27.502   2.352
62546W        W23967  23.112  30.440   1.373
62547W        W23968   3.367  14.197   2.869
62548W        W23969   9.788   3.325  13.952
62549W        W23970  22.117   9.288   4.193
62550W        W23971  12.348  44.470   1.911
62551W        W23972  30.634   2.458  12.514
62552W        W23973  15.158   3.893   4.206
62553W        W23974  32.113   0.449   3.252
62554W        W23975  42.865  27.554  13.342
62555W        W23976  31.968   6.228   2.351
62556W        W23977  24.996  16.571   4.268
62557W        W23978  10.363  24.703   0.425
62558W        W23979  24.609  27.170   4.349
62559W        W23980  40.844  42.790   2.678
62560W        W23981  34.993  25.967   1.886
62561W        W23982   9.789  31.507  10.622
62562W        W23983  10.819  31.529   4.251
62563W        W23984  43.353  15.136   1.325
62564W        W23985  25.076  13.740   0.305
62565W        W23986  30.155  42.516   2.362
62566W        W23987  38.010   4.856   1.370
62567W        W23988  25.515  23.149   4.608
62568W        W23989   2.780   0.762   1.905
62569W        W23990  23.564  27.049   0.385
62570W        W23991  23.059  29.490  10.460
62571W        W23992  11.670  11.849   0.306
62572W        W23993  41.341  42.390   0.828
62573W        W23994  44.300  34.038   4.178
62574W        W23995  38.932  10.875  13.317
62575W        W23996  44.466  44.380   2.715
62576W        W23997  11.328  35.552  10.425
62577W        W23998  36.527  24.061   3.164
62578W        W23999   0.866  19.723   3.330
62579W        W24000   6.794  25.175   3.177
62580W        W24001   2.265   1.299  11.466
62581W        W24002   5.931   0.986  10.570
62582W        W24003  31.109  39.352  10.630
62583W        W24004  43.952   8.214  14.015
62584W        W24005   2.259  22.528   4.739
62585W        W24006  28.461  38.387  13.318
62586W        W24007  19.585  30.133  13.516
62587W        W24008   8.204  26.652  14.498
62588W        W24009  13.727  10.145   4.812
62589W        W24010  39.021  26.560  10.015
62590W        W24011  20.124   8.887   2.193
62591W        W24012  25.031  11.707   0.345
62592W        W24013  22.053  13.271   9.955
62593W        W24014   1.868  25.016  11.982
62594W        W24015  32.050  17.776  14.883
62595W        W24016   5.367  32.891   5.614
62596W        W24017  14.328  30.140  13.991
62597W        W24018  26.150  40.043  14.280
62598W        W24019  33.005   9.706   3.173
62599W        W24020  18.572  23.586   5.125
62600W        W24021  18.283  21.047  10.593
62601W        W24022   1.391  28.594  13.324
62602W        W24023  11.644   5.849   4.628
62603W        W24024   8.672   9.695   2.415
62604W        W24025  33.899   4.335  11.990
62605W        W24026  37.575  34.066   1.347
62606W        W24027  10.846  43.930  11.486
62607W        W24028  14.639  30.509  11.991
62608W        W24029   5.866  27.628   3.348
62609W        W24030  19.114  34.940  13.324
62610W        W24031  44.821  34.877   0.777
62611W        W24032   3.816   2.780  10.898
62612W        W24033  25.475  28.608  12.070
62613W        W24034   5.316  12.813  12.571
62614W        W24035  33.074  18.279  10.893
62615W        W24036  21.724  35.402   0.923
62616W        W24037   4.209  18.280  10.432
62617W        W24038  33.964  25.965   2.202
62618W        W24039  15.121  19.236   4.671
62619W        W24040  22.686  34.377  10.899
62620W        W24041  16.206  17.270  12.347
62621W        W24042  10.686   0.293   1.884
62622W        W24043  43.777   0.358  14.016
62623W        W24044  15.162  36.059  14.829
62624W        W24045  14.728   3.440   3.751
62625W        W24046  35.952  16.094   4.325
62626W        W24047  39.011   7.775   4.626
62627W        W24048  34.514   4.895   4.300
62628W        W24049   9.337  11.837   0.353
62629W        W24050   0.921  35.981  14.032
62630W        W24051  27.617  39.924  12.422
62631W        W24052   0.377   3.881   5.633
62632W        W24053   1.966  40.037  11.612
62633W        W24054   5.689  37.063   3.677
62634W        W24055  29.156  10.229  10.444
62635W        W24056   9.758   1.257  14.989
62636W        W24057  40.381  29.621  14.367
62637W        W24058  38.525  33.407   2.282
62638W        W24059  39.532  34.412  10.559
62639W        W24060  16.290  42.286   2.807
62640W        W24061   6.322  34.979  11.875
62641W        W24062   7.296  40.848   0.417
62642W        W24063  24.583  36.908   4.346
62643W        W24064  15.745   1.950  12.460
62644W        W24065   2.822  38.047   3.208
62645W        W24066  25.131  24.013   3.836
62646W        W24067  33.066  34.978  13.028
62647W        W24068   5.762  37.481   0.871
62648W        W24069  13.815  23.534   1.335
62649W        W24070   9.314  16.715  14.843
62650W        W24071   2.859  44.291   9.505
62651W        W24072  20.747   7.886  10.911
62652W        W24073  25.985   8.222   3.696
62653W        W24074  15.264  26.192  14.922
62654W        W24075  39.413  11.756   3.147
62655W        W24076  25.098  41.312  12.844
62656W        W24077  25.131  30.985   0.770
62657W        W24078  18.209  41.319  13.498
62658W        W24079  31.078  32.615  12.857
62659W        W24080  24.140   4.275   2.826
62660W        W24081  13.317  37.387  12.385
62661W        W24082  13.238   2.844   0.777
62662W        W24083   0.986   3.348   1.264
62663W        W24084  20.649  42.357  13.337
62664W        W24085  31.436  16.151  14.816
62665W        W24086  33.626  11.722   2.753
62666W        W24087   9.819  41.291   0.363
62667W        W24088  25.110  18.769   2.835
62668W        W24089   3.296   4.418   3.277
62669W        W24090  27.061  12.742  10.988
62670W        W24091  25.538   9.323   3.710
62671W        W24092  37.953  13.283   0.324
62672W        W24093   6.210  23.494  13.850
62673W        W24094  39.518  18.066   2.366
62674W        W24095  29.611  17.122   0.863
62675W        W24096  30.161  33.088  14.323
62676W        W24097  40.907  10.798   0.804
62677W        W24098  26.081   6.218   3.148
62678W        W24099   8.387   9.166   2.714
62679W        W24100  22.198  32.475  14.786
62680W        W24101  21.742  43.949  13.027
62681W        W24102  44.462   0.470   2.865
62682W        W24103   0.944  34.034   1.394
62683W        W24104   3.860  13.669  12.342
62684W        W24105   1.863  20.704   0.301
62685W        W24106  38.353  13.171   1.246
62686W        W24107  17.668  38.917   3.218
62687W        W24108  14.809   6.297   3.787
62688W        W24109   0.388  36.014   4.184
62689W        W24110   4.280  29.626   1.397
62690W        W24111  15.585  22.501   0.290
62691W        W24112  13.731  38.497  12.846
62692W        W24113  37.875   6.185  12.027
62693W        W24114  12.660  14.783  13.985
62694W        W24115  42.006  26.061   1.740
62695W        W24116  21.575   0.454  13.312
62696W        W24117  29.454   7.228   3.782
62697W        W24118  11.858   5.733   3.281
62698W        W24119  42.796   4.763   4.736
62699W        W24120  36.496  27.593   3.748
62700W        W24121  23.126  26.155   1.887
62701W        W24122  23.191   9.658  10.531
62702W        W24123  30.152  16.305   1.709
62703W        W24124   2.798  28.126   0.830
62704W        W24125  17.182  37.521  14.021
62705W        W24126  40.998  26.470   1.894
62706W        W24127   8.697   9.254  13.311
62707W        W24128  15.814  28.969  13.984
62708W        W24129  42.999  27.173   0.442
62709W        W24130  24.648   3.452  12.974
62710W        W24131  13.619  15.690   2.776
62711W        W24132  28.449   4.332  10.517
62712W        W24133  23.530  43.857  13.437
62713W        W24134  23.664   1.449  11.601
62714W        W24135  10.756  41.967  12.506
62715W        W24136  35.593   6.706   2.242
62716W        W24137  27.493  41.382  13.332
62717W        W24138  12.196  16.091  14.356
62718W        W24139  39.558  11.726   4.722
62719W        W24140  14.811  28.117   0.879
62720W        W24141  35.584  24.181   3.339
62721W        W24142  42.340  14.297   2.843
62722W        W24143  21.111  38.518  14.347
62723W        W24144  35.911  41.421   0.470
62724W        W24145  42.776  10.169  10.577
62725W        W24146  34.956  42.001  13.449
62726W        W24147  34.865  31.063   0.328
62727W        W24148  25.482  20.640   4.729
62728W        W24149  20.739  24.178  12.932
62729W        W24150  32.548  15.233  12.965
62730W        W24151   3.392  10.668  12.343
62731W        W24152   9.805  39.488  14.299
62732W        W24153  12.184  40.342   0.938
62733W        W24154  30.946   5.268  11.444
62734W        W24155   1.475  25.058  12.050
62735W        W24156  10.327   8.350   1.846
62736W        W24157   4.847  32.009   3.229
62737W        W24158  14.692  32.610   1.450
62738W        W24159  26.155  41.787   3.737
62739W        W24160  26.174   8.301  13.916
62740W        W24161   8.288  23.115   0.819
62741W        W24162  13.244   3.916  11.904
62742W        W24163  19.738  32.972  11.536
62743W        W24164  16.268  16.616   9.955
62744W        W24165  34.114   6.317   2.716
62745W        W24166   1.477  12.221   0.363
62746W        W24167  12.181   9.214  11.528
62747W        W24168  27.955  33.574  10.123
62748W        W24169   7.201   5.329  12.034
62749W        W24170  24.007  12.333  13.051
62750W        W24171  43.853  11.743   2.349
62751W        W24172  24.119  31.958  11.482
62752W        W24173  16.273  31.989   5.108
62753W        W24174   0.962   8.791  14.323
62754W        W24175  16.750  21.601  10.552
62755W        W24176  10.171  28.634  14.941
62756W        W24177   1.920  18.125  11.060
62757W        W24178  33.446  27.566   2.822
62758W        W24179  15.249   5.423  11.909
62759W        W24180  12.635  29.067  13.397
62760W        W24181  31.022  26.170  14.779
62761W        W24182  19.057  15.127   0.908
62762W        W24183  43.944  30.608  14.291
62763W        W24184   7.250  37.487   4.835
62764W        W24185  23.135  24.491  14.351
62765W        W24186  44.483   5.841  14.989
62766W        W24187  20.664  19.162   3.663
62767W        W24188  24.720  19.206  13.396
62768W        W24189  33.036  27.972  11.505
62769W        W24190  26.555  34.419  13.459
62770W        W24191  13.348  22.711  14.969
62771W        W24192  39.992  15.259   2.268
62772W        W24193   5.339  27.630   3.706
62773W        W24194  23.177   1.741   0.789
62774W        W24195   9.334  18.100  13.513
62775W        W24196  22.598  13.192  11.052
62776W        W24197  29.021   9.645  10.484
62777W        W24198  27.113  13.228   4.168
62778W        W24199  28.607  23.211  10.410
62779W        W24200  40.878   2.955   3.234
62780W        W24201  10.287  31.107   4.280
62781W        W24202  32.065   2.883  14.873
62782W        W24203  19.176  44.259   2.727
62783W        W24204  14.650  43.938  14.330
62784W        W24205   8.193  36.932  13.833
62785W        W24206  36.587  32.620  10.911
62786W        W24207  44.313  22.198  10.533
62787W        W24208  33.014  29.133  12.367
62788W        W24209  15.233   2.351   2.686
62789W        W24210  41.466  19.630   1.441
62790W        W24211  38.520  21.095   0.949
62791W        W24212  15.174   6.190  14.481
62792W        W24213  19.282  32.994  12.880
62793W        W24214  24.483  33.607  12.403
62794W        W24215  11.735  19.768   5.301
62795W        W24216  24.171  23.216   0.346
62796W        W24217   5.304  34.061   1.873
62797W        W24218   8.747  22.586  13.012
62798W        W24219  30.490   9.264  11.083
62799W        W24220  15.096  39.963   3.692
62800W        W24221   7.870   2.234   4.765
62801W        W24222  14.728  34.068   2.354
62802W        W24223  10.792  24.708  10.898
62803W        W24224  26.640  26.585   0.860
62804W        W24225   3.855   7.301   2.850
62805W        W24226  23.651  31.451  11.375
62806W        W24227  34.480  26.984   0.257
62807W        W24228  29.097   3.239  14.874
62808W        W24229  32.021  21.696  12.015
62809W        W24230  17.753  19.565  12.056
62810W        W24231  12.128  37.033  13.846
62811W        W24232  44.850  44.259  13.457
62812W        W24233  37.905  14.251   3.238
62813W        W24234  31.431  26.585  12.391
62814W        W24235  12.824   5.344  14.962
62815W        W24236  19.277  37.509  12.572
62816W        W24237  29.496  15.122  11.967
62817W        W24238  41.893  35.042   1.220
62818W        W24239  26.152  38.866  12.993
62819W        W24240  33.979  23.064   2.336
62820W        W24241  38.512  37.851  10.895
62821W        W24242  44.458  18.211  10.022
62822W        W24243   0.285  11.258  13.895
62823W        W24244  16.745  35.436   2.239
62824W        W24245  32.030   2.365   1.804
62825W        W24246  16.635  25.031   3.735
62826W        W24247  26.170  27.634  14.460
62827W        W24248  25.488   0.358  12.362
62828W        W24249  23.023  25.599  11.435
62829W        W24250  12.156  41.385  13.922
62830W        W24251  29.979  24.064  11.018
62831W        W24252  27.190   9.733  11.376
62832W        W24253  15.142   8.795   2.753
62833W        W24254  12.201  35.057  11.981
62834W        W24255  22.557  29.949   2.376
62835W        W24256   1.831  26.544  12.089
62836W        W24257  20.175  13.302  14.408
62837W        W24258  17.256   3.835  12.449
62838W        W24259  20.188   7.405  13.864
62839W        W24260  21.069  28.679  13.008
62840W        W24261   8.328  29.004  10.470
62841W        W24262  24.183   6.299  13.933
62842W        W24263   1.284  15.114  12.989
62843W        W24264   5.783  41.348  12.956
62844W        W24265   4.232  42.384   4.714
62845W        W24266   7.316  33.577  14.341
62846W        W24267  18.650  39.898   1.276
62847W        W24268  19.055   6.388  13.030
62848W        W24269   3.891  13.268   4.170
62849W        W24270   5.724  40.964   3.234
62850W        W24271  40.448  37.387  13.943
62851W        W24272   9.343  30.415  13.350
62852W        W24273  13.737   4.362  13.509
62853W        W24274  31.443   9.730   9.631
62854W        W24275   4.864  27.608  14.764
62855W        W24276  37.055  26.633   0.866
62856W        W24277  36.432  17.573   4.796
62857W        W24278   6.317  13.198  10.531
62858W        W24279  30.496  43.954   1.284
62859W        W24280  38.373  14.302   3.668
62860W        W24281  15.749  34.376  14.761
62861W        W24282  14.191   3.397  12.451
62862W        W24283  14.134  17.220   1.781
62863W        W24284  10.207  22.634   0.450
62864W        W24285  13.748   9.367   4.684
62865W        W24286  40.365  23.565   4.709
62866W        W24287  32.942  31.645  10.426
62867W        W24288  36.518  42.487  11.079
62868W        W24289  44.365  26.156  10.603
62869W        W24290  10.738  29.619  11.081
62870W        W24291  19.735  16.276   0.834
62871W        W24292  27.028  11.166   2.734
62872W        W24293  44.912  23.535   0.355
62873W        W24294  28.569  21.718   0.811
62874W        W24295  14.665  21.592   3.787
62875W        W24296  38.831  27.966  13.430
62876W        W24297  30.611  31.589   1.808
62877W        W24298  10.225  30.424  10.405
62878W        W24299  38.952  42.379  13.388
62879W        W24300   5.818   8.682   0.843
62880W        W24301  43.916  13.279   4.188
62881W        W24302  39.445  41.886  14.802
62882W        W24303   2.405  24.104  10.975
62883W        W24304  17.114  29.670  11.956
62884W        W24305  16.756   4.700  10.980
62885W        W24306  34.955  18.127   0.315
62886W        W24307  42.844   7.205   4.680
62887W        W24308  42.831  35.886   4.791
62888W        W24309  23.999  17.166  13.806
62889W        W24310  40.894  33.095  12.494
62890W        W24311  11.841  23.657  14.301
62891W        W24312   8.184  28.600   2.207
62892W        W24313  17.644  39.002   3.818
62893W        W24314  14.794  34.069   3.823
62894W        W24315   3.356  18.280  14.461
62895W        W24316  25.639   8.283  11.472
62896W        W24317  10.224  18.639  11.085
62897W        W24318   6.729  37.339   3.724
62898W        W24319   7.246  12.796  14.280
62899W        W24320  42.347  19.534  13.327
62900W        W24321   4.909  13.115  10.906
62901W        W24322  21.026  35.583   2.821
62902W        W24323  22.034  18.668   4.720
62903W        W24324  44.264  24.581   2.773
62904W        W24325  34.023  40.987  11.038
62905W        W24326   4.788   6.863   1.428
62906W        W24327  32.513  16.674   1.442
62907W        W24328   0.895   6.301  13.931
62908W        W24329  41.408  34.589  12.854
62909W        W24330  10.804  26.672   4.327
62910W        W24331  30.428   4.727   4.120
62911W        W24332  32.066  15.727  14.029
62912W        W24333  43.963  39.357  10.619
62913W        W24334  31.137  33.915  13.310
62914W        W24335  14.686   0.323  13.792
62915W        W24336  41.996   5.392   2.238
62916W        W24337   0.941   5.860  13.385
62917W        W24338   2.749  44.461   1.844
62918W        W24339   4.934  43.475  13.911
62919W        W24340  17.701  37.972   2.693
62920W        W24341  17.793  11.731  12.866
62921W        W24342  16.676  33.464  11.593
62922W        W24343  28.469   9.879  10.464
62923W        W24344  30.548  34.967  12.408
62924W        W24345  21.101  22.235   3.205
62925W        W24346  39.353   9.205  14.491
62926W        W24347  22.596  23.564  11.411
62927W        W24348  40.006  40.403  12.522
62928W        W24349  19.617  18.780   5.235
62929W        W24350  34.392  22.510  14.489
62930W        W24351  27.121  13.140   3.237
62931W        W24352  30.105  29.427  13.876
62932W        W24353  41.024  32.487   0.462
62933W        W24354  36.433  12.853   2.394
62934W        W24355  20.636  32.503   2.238
62935W        W24356   2.287  43.839  12.880
62936W        W24357  28.163  17.294  14.828
62937W        W24358  20.608   5.424  14.449
62938W        W24359  10.258  22.742  13.901
62939W        W24360  21.242  17.773  12.908
62940W        W24361  31.118  44.438  14.335
62941W        W24362  23.732  28.046  12.033
62942W        W24363  29.590   1.860   2.259
62943W        W24364  35.446  34.933   1.351
62944W        W24365   6.732   1.459   1.932
62945W        W24366  20.099  43.494   2.671
62946W        W24367   3.256   5.198  10.123
62947W        W24368  34.925  36.532   2.888
62948W        W24369  33.915  34.908  14.283
62949W        W24370  23.999   6.902   2.418
62950W        W24371  19.073   6.294   0.445
62951W        W24372  20.626  19.186  14.961
62952W        W24373   2.460  13.196   3.685
62953W        W24374   7.330   4.920  10.600
62954W        W24375  43.016   6.204   0.460
62955W        W24376  22.623  20.565   0.875
62956W        W24377   1.862   6.821  10.981
62957W        W24378  40.343  40.872  12.866
62958W        W24379  17.153  41.904   3.195
62959W        W24380  33.059  22.703  10.592
62960W        W24381  41.882   4.275   2.248
62961W        W24382  38.466  18.162   2.834
62962W        W24383  17.071  11.356  14.404
62963W        W24384  28.999  42.435   1.243
62964W        W24385  16.797   2.248   1.830
62965W        W24386  26.166   6.202   0.418
62966W        W24387  26.103  26.492   0.815
62967W        W24388   6.747  44.972  13.896
62968W        W24389  12.240  37.947  10.949
62969W        W24390  24.127  38.890   5.304
62970W        W24391  36.983   0.974   0.385
62971W        W24392  37.466  21.569  13.036
62972W        W24393  36.057  32.607  12.956
62973W        W24394  12.804   7.251   3.223
62974W        W24395  37.441  25.218  10.573
62975W        W24396  28.506  42.979   2.296
62976W        W24397  12.799  13.296   1.429
62977W        W24398  37.557  17.648   3.192
62978W        W24399  15.720  29.126  12.461
62979W        W24400  32.953  31.958  13.922
62980W        W24401  19.183   1.453   4.118
62981W        W24402  19.545  14.811  10.912
62982W        W24403  37.020   6.379   1.270
62983W        W24404  10.323   7.198   2.393
62984W        W24405  20.699  18.641  10.983
62985W        W24406   5.235   7.397   0.436
62986W        W24407   2.898  19.721   3.674
62987W        W24408  37.076  18.072   4.625
62988W        W24409   4.415   3.861  12.918
62989W        W24410  31.111  41.026   1.266
62990W        W24411  38.399  13.176  11.954
62991W        W24412  42.027  27.981   3.866
62992W        W24413  12.275  35.058  12.945
62993W        W24414  31.053  26.038  13.806
62994W        W24415   6.771  43.498  10.488
62995W        W24416  15.755  16.625   1.244
62996W        W24417   0.301  35.055  12.956
62997W        W24418  32.001  43.831   1.222
62998W        W24419  31.002  14.592  14.866
62999W        W24420   5.399  36.038   4.679
63000W        W24421  35.045  13.163   3.800
63001W        W24422  41.855  37.936  12.976
63002W        W24423  19.098   5.411  14.467
63003W        W24424   2.463   0.863   1.771
63004W        W24425  32.501  15.732   1.903
63005W        W24426  40.819  15.177   2.854
63006W        W24427  24.008  34.418  10.604
63007W        W24428  40.418  39.938  12.824
63008W        W24429  19.647  20.705   2.743
63009W        W24430  43.801  33.605  11.983
63010W        W24431  39.339  42.455  11.080
63011W        W24432  39.429   7.726   1.882
63012W        W24433  33.041  12.315   3.820
63013W        W24434   0.432  19.551  14.438
63014W        W24435  24.150  22.612  11.955
63015W        W24436  30.418  16.122  13.904
63016W        W24437  40.510   5.330   0.767
63017W        W24438  12.161   3.320  10.431
63018W        W24439  10.660  41.892   3.800
63019W        W24440  32.961   4.804   1.331
63020W        W24441  30.964  15.708   5.239
63021W        W24442   5.246  44.760   1.784
63022W        W24443  39.460  41.011  11.938
63023W        W24444   7.805  34.975   2.336
63024W        W24445  31.965  24.184   1.218
63025W        W24446  15.776  16.697  10.123
63026W        W24447  31.406  22.506  13.533
63027W        W24448   7.743  33.420  10.542
63028W        W24449   9.183  26.023  11.062
63029W        W24450  38.522  31.945  12.871
63030W        W24451  18.733  43.333  11.499
63031W        W24452  18.765  40.914   0.401
63032W        W24453   4.926  28.670   2.705
63033W        W24454  19.209   7.205   1.335
63034W        W24455  22.167  17.647  14.835
63035W        W24456  40.830  26.173  13.868
63036W        W24457   4.891   8.335  12.363
63037W        W24458  20.646   1.970  13.314
63038W        W24459  34.521  36.922   0.941
63039W        W24460  19.590  26.592   0.902
63040W        W24461   8.357  14.616  13.839
63041W        W24462  38.505  21.044   4.706
63042W        W24463  14.265  14.215  12.901
63043W        W24464  26.677  12.666   4.132
63044W        W24465  13.657   5.278   2.765
63045W        W24466  29.538  28.501  14.861
63046W        W24467   6.425  37.893  14.463
63047W        W24468  33.122  41.901  11.470
63048W        W24469   2.785  41.329   4.641
63049W        W24470  25.218  30.081   0.918
63050W        W24471  34.534   3.944  12.022
63051W        W24472  27.580  38.344   3.258
63052W        W24473  38.886  39.473   2.388
63053W        W24474  39.420  10.734  13.026
63054W        W24475   0.836  36.064  12.917
63055W        W24476  12.715  44.953  11.461
63056W        W24477  15.696  17.593   0.862
63057W        W24478  15.113   6.796  13.826
63058W        W24479   6.800  30.559   0.939
63059W        W24480   9.292  24.556  12.896
63060W        W24481   4.745  12.821   4.690
63061W        W24482  10.318  43.782  14.308
63062W        W24483   1.358  40.997   2.886
63063W        W24484  39.477   5.844  12.501
63064W        W24485  36.937  41.808  11.068
63065W        W24486   5.311  36.499   1.848
63066W        W24487  23.241   5.396  13.887
63067W        W24488  34.541  32.497   1.935
63068W        W24489   0.265  44.402  11.077
63069W        W24490  14.329   5.356  13.999
63070W        W24491   9.880   7.323   1.341
63071W        W24492  22.632  38.359   0.728
63072W        W24493  30.519  30.118  14.284
63073W        W24494  23.990  11.799  14.358
63074W        W24495   7.392  31.990  12.842
63075W        W24496   7.724   0.265  14.778
63076W        W24497  25.000  43.965  12.533
63077W        W24498  28.479  13.286  12.562
63078W        W24499  28.632  12.275  12.871
63079W        W24500   3.879  34.475  11.060
63080W        W24501  44.361  33.540   3.369
63081W        W24502  21.098  22.622   5.225
63082W        W24503   5.220   6.795   4.743
63083W        W24504  37.844  39.392   0.373
63084W        W24505  13.841  32.044   4.703
63085W        W24506  35.098   2.768  10.914
63086W        W24507  24.058   1.922   2.398
63087W        W24508   2.956  14.640   2.391
63088W        W24509  21.055  20.110  12.493
63089W        W24510  32.035  18.597   4.660
63090W        W24511  18.100   6.208   2.679
63091W        W24512  42.399  39.927  11.521
63092W        W24513  43.424  43.458   0.322
63093W        W24514  37.977  10.847  10.563
63094W        W24515  36.352   2.844   9.533
63095W        W24516  15.726  16.181   2.841
63096W        W24517  20.727  25.208   1.333
63097W        W24518  31.581  33.057   1.754
63098W        W24519  29.471   2.412   1.750
63099W        W24520  16.238   3.771   3.159
63100W        W24521   4.315  39.902   1.291
63101W        W24522  42.496  22.213  11.877
63102W        W24523  28.164  23.492  13.525
63103W        W24524  35.425  12.737  13.540
63104W        W24525  22.557  32.927   4.803
63105W        W24526   1.381  19.145   0.256
63106W        W24527  31.056   1.849  14.475
63107W        W24528  27.018  23.539   1.447
63108W        W24529  25.180   0.291   1.393
63109W        W24530  28.543   7.803   0.401
63110W        W24531   0.349  26.046  14.383
63111W        W24532  16.235  33.889   3.237
63112W        W24533  43.927   6.357  12.341
63113W        W24534  27.476   4.728  13.510
63114W        W24535  35.583   6.822   2.813
63115W        W24536  15.634  17.757  12.362
63116W        W24537  27.995  42.474   2.215
63117W        W24538  22.138  28.132   4.761
63118W        W24539  25.063   0.350  11.106
63119W        W24540  17.742   0.954   3.797
63120W        W24541   5.751  43.386   2.300
63121W        W24542   0.750  35.010  14.780
63122W        W24543  20.712  26.061  13.388
63123W        W24544  32.888  41.913   1.902
63124W        W24545  19.266  41.831  13.525
63125W        W24546  34.016   3.232  14.991
63126W        W24547  42.829  17.722   0.730
63127W        W24548   7.907  12.835  13.807
63128W        W24549   8.324  32.927   0.836
63129W        W24550  44.990  14.297   4.822
63130W        W24551  38.447  13.675  14.015
63131W        W24552   0.320  20.564   1.258
63132W        W24553   1.791  10.760  13.310
63133W        W24554  31.135  44.810   3.380
63134W        W24555  11.176  12.765  14.324
63135W        W24556  40.977  16.786  10.451
63136W        W24557  20.545  21.643  10.927
63137W        W24558  28.456  30.611  12.838
63138W        W24559  31.129  18.181   2.777
63139W        W24560  30.040  24.627  12.062
63140W        W24561  21.057  28.061   2.895
63141W        W24562  14.155  34.038  14.770
63142W        W24563  41.863  17.719   3.705
63143W        W24564  21.516  27.001  11.611
63144W        W24565  21.583  33.440   3.163
63145W        W24566  36.493  10.292   1.212
63146W        W24567  26.015   1.825  14.313
63147W        W24568  25.142   3.404  12.383
63148W        W24569  36.028  29.005   2.669
63149W        W24570  30.437   6.218  14.334
63150W        W24571  37.839   0.280  10.467
63151W        W24572   6.284   6.760  10.996
63152W        W24573   4.867  19.258  11.864
63153W        W24574  27.135   6.363   0.283
63154W        W24575  40.354  13.321   1.223
63155W        W24576  44.278  33.102   2.233
63156W        W24577  17.655  28.656   0.768
63157W        W24578   8.369  22.703  12.051
63158W        W24579  43.492  30.056  12.466
63159W        W24580   0.371  20.069   0.301
63160W        W24581   4.433  44.988   2.274
63161W        W24582   9.791  43.281   0.834
63162W        W24583   2.741  30.527  11.997
63163W        W24584  12.708  44.772   1.851
63164W        W24585  43.278  40.330   0.310
63165W        W24586   7.686  10.160   2.804
63166W        W24587  38.459  23.992   3.759
63167W        W24588  40.830  25.633   4.803
63168W        W24589  18.767   0.763   2.188
63169W        W24590  12.197  26.017   0.892
63170W        W24591   3.443  21.696  13.900
63171W        W24592  25.971  30.641  11.114
63172W        W24593  20.611  34.930   3.745
63173W        W24594  44.812  41.806  13.403
63174W        W24595  31.057  22.511  12.529
63175W        W24596  24.660  18.290  12.353
63176W        W24597  17.788   9.265  12.402
63177W        W24598  34.936  24.018   4.205
63178W        W24599   5.357  34.383   5.108
63179W        W24600  12.183  21.582   0.878
63180W        W24601  31.635  42.858  13.874
63181W        W24602   5.219  30.997   1.866
63182W        W24603  17.660  19.065  13.389
63183W        W24604  20.729   3.395   4.324
63184W        W24605   6.414  31.488  11.465
63185W        W24606  12.789  29.120  12.050
63186W        W24607   5.307  35.556  11.411
63187W        W24608   2.317  29.127   1.758
63188W        W24609  16.111  19.779   0.905
63189W        W24610  39.373   9.234   0.730
63190W        W24611  28.152  14.655  14.781
63191W        W24612  39.818   9.874   4.611
63192W        W24613  25.551  33.525  11.018
63193W        W24614  18.115   9.789  11.460
63194W        W24615  31.551  21.237  12.450
63195W        W24616  42.382   4.255  10.415
63196W        W24617  15.238  18.719   3.735
63197W        W24618  33.904  26.205  12.092
63198W        W24619  36.889  42.420  14.509
63199W        W24620   1.480  39.900  13.805
63200W        W24621  17.786  26.127  14.017
63201W        W24622  23.077   4.284  12.949
63202W        W24623   9.170   6.771  12.487
63203W        W24624  39.962  33.125  13.467
63204W        W24625   6.225  33.442  10.581
63205W        W24626  37.579  43.856   2.222
63206W        W24627   2.727   2.828   9.534
63207W        W24628  31.560   5.204  13.024
63208W        W24629  28.632  24.189  13.958
63209W        W24630  27.470  28.498   2.869
63210W        W24631   9.241  43.835   2.705
63211W        W24632  11.660  37.382   0.326
63212W        W24633  15.603  15.647  11.890
63213W        W24634   5.412  35.403   1.253
63214W        W24635   7.284  11.160   3.314
63215W        W24636   2.357  30.099   5.131
63216W        W24637   8.657   7.211  14.808
63217W        W24638   1.320  27.519   3.692
63218W        W24639  20.145   8.230   0.434
63219W        W24640  17.565  22.095   4.323
63220W        W24641   1.412   3.842  12.935
63221W        W24642   8.308  13.685   1.333
63222W        W24643  31.506  24.500   2.357
63223W        W24644  26.060  34.385   0.914
63224W        W24645   4.762  25.064  13.867
63225W        W24646   5.438  12.747  10.593
63226W        W24647  42.811  15.679  10.992
63227W        W24648  41.468  18.088  10.644
63228W        W24649  33.892  39.323   3.642
63229W        W24650  15.149  41.804   4.220
63230W        W24651  17.600  41.857  11.955
63231W        W24652  38.905  37.481   4.736
63232W        W24653  35.360  10.155   2.680
63233W        W24654  24.667  40.488   4.790
63234W        W24655  42.420  33.085  14.383
63235W        W24656  43.009  30.103   2.401
63236W        W24657  20.125  30.494  12.380
63237W        W24658  38.468  29.644  14.481
63238W        W24659  23.643  15.728  14.424
63239W        W24660  28.624  30.960   0.727
63240W        W24661  21.663  43.007   3.332
63241W        W24662   5.932  19.150  14.423
63242W        W24663  31.552  27.578  13.441
63243W        W24664  38.917  40.958   4.114
63244W        W24665  20.183   2.736  11.912
63245W        W24666  18.600   0.450  10.499
63246W        W24667  14.305  12.194  12.090
63247W        W24668  38.880  28.030   3.281
63248W        W24669  15.094  14.322   4.745
63249W        W24670  33.894  25.062  12.440
63250W        W24671  44.299   7.821   3.252
63251W        W24672   1.775  36.488  11.011
63252W        W24673   2.915  18.112   0.257
63253W        W24674  39.995  36.363  14.844
63254W        W24675  29.932  28.002  10.975
63255W        W24676  15.248  39.523   2.764
63256W        W24677  26.499  34.487  10.556
63257W        W24678  43.314  22.644  12.939
63258W        W24679   1.749   8.319  10.458
63259W        W24680  27.653   4.276   3.295
63260W        W24681  17.297  25.993   0.278
63261W        W24682  19.572  21.693   4.171
63262W        W24683  41.832  28.986   3.339
63263W        W24684  15.782  34.942   5.092
63264W        W24685   7.823  13.271   2.288
63265W        W24686   0.478  29.114   2.328
63266W        W24687   7.246  41.886   1.427
63267W        W24688  30.465  10.184  11.562
63268W        W24689   6.415  30.490   4.343
63269W        W24690  35.523  17.623  10.582
63270W        W24691  35.453   7.389   3.183
63271W        W24692  30.533  36.009   4.759
63272W        W24693  14.193  24.985  11.872
63273W        W24694  11.659   1.359   3.192
63274W        W24695  43.377   4.267  10.534
63275W        W24696   9.833  22.183   3.330
63276W        W24697  29.554  29.977  13.805
63277W        W24698  18.760  12.282  11.048
63278W        W24699   6.746   7.304   2.208
63279W        W24700   6.306  31.638   3.275
63280W        W24701   7.829  18.283  14.776
63281W        W24702  44.880  40.522   1.825
63282W        W24703  13.824  15.176  14.829
63283W        W24704  19.133   2.457   2.853
63284W        W24705   4.330   5.691   1.423
63285W        W24706   6.205  31.490   0.319
63286W        W24707  39.035  33.039   0.297
63287W        W24708  11.698  27.510  10.961
63288W        W24709  36.047   0.461  13.382
63289W        W24710  11.697  20.160  10.946
63290W        W24711  40.939   7.849   1.766
63291W        W24712  39.368  22.524   3.313
63292W        W24713  34.497  31.457   4.276
63293W        W24714   7.389  24.193  11.912
63294W        W24715  26.516   4.273  10.521
63295W        W24716   3.880  29.658   1.781
63296W        W24717  30.645  42.031  13.845
63297W        W24718  42.923  28.088  10.642
63298W        W24719  17.801  12.296  13.002
63299W        W24720   2.915  20.153   4.314
63300W        W24721  27.039  36.367   1.879
63301W        W24722  15.325  22.683  10.948
63302W        W24723  37.560  24.037   4.346
63303W        W24724   3.226   4.887  11.962
63304W        W24725  40.376  39.547   2.729
63305W        W24726  25.169  30.944   4.684
63306W        W24727  33.500  37.447  10.546
63307W        W24728  39.346  30.975   4.291
63308W        W24729  33.935  43.880  12.391
63309W        W24730  37.510  20.219  13.479
63310W        W24731  19.572  30.942   4.271
63311W        W24732  16.089   4.231   0.746
63312W        W24733  37.911  11.722   2.711
63313W        W24734  13.165  35.377   2.384
63314W        W24735  19.052  10.667  11.022
63315W        W24736  24.202  28.486   0.388
63316W        W24737  18.740   3.889   1.815
63317W        W24738  18.721  15.767   9.963
63318W        W24739  37.947  36.881  14.001
63319W        W24740  18.176  27.134  12.929
63320W        W24741  23.701  26.655   0.322
63321W        W24742  24.130  25.170  12.457
63322W        W24743   6.764  27.632  14.888
63323W        W24744  20.760  39.364  11.125
63324W        W24745  12.224  24.660   4.284
63325W        W24746  19.065  18.643  10.451
63326W        W24747   4.252  18.716  12.443
63327W        W24748  37.352  38.510   2.415
63328W        W24749   5.858  43.929   4.123
63329W        W24750   9.685   5.828   3.635
63330W        W24751  23.046  37.024  12.555
63331W        W24752  18.626  40.955  13.010
63332W        W24753  39.437   8.892  11.577
63333W        W24754  33.408   2.742  14.922
63334W        W24755  19.588  16.180  14.317
63335W        W24756  44.504  29.461  14.488
63336W        W24757  10.867   9.215  10.568
63337W        W24758  27.134   8.670   5.109
63338W        W24759  33.414  27.997   3.661
63339W        W24760  44.404   7.776   1.872
63340W        W24761  30.151  11.163   0.911
63341W        W24762  43.780  22.636   3.362
63342W        W24763  15.600  43.948   4.749
63343W        W24764  26.997  30.934  11.073
63344W        W24765   8.357  43.860  10.887
63345W        W24766  34.020  14.157  13.017
63346W        W24767   1.427  10.687  12.881
63347W        W24768   3.726   4.315   2.386
63348W        W24769  13.160  21.095   0.312
63349W        W24770   9.335  19.267   1.831
63350W        W24771  33.938  34.091   1.232
63351W        W24772  38.388  42.843  11.109
63352W        W24773  25.080  28.529  10.948
63353W        W24774   2.465   2.877   0.278
63354W        W24775  34.121  15.750  11.977
63355W        W24776  22.051   0.961   2.260
63356W        W24777  14.110  11.153   0.876
63357W        W24778   2.266  36.030  11.429
63358W        W24779  17.084  17.667   3.253
63359W        W24780  12.304  34.920   1.433
63360W        W24781  22.580  40.474   1.805
63361W        W24782  11.243  30.095   0.468
63362W        W24783   7.750   8.185   1.346
63363W        W24784  13.611  42.351  10.915
63364W        W24785   9.873   0.749  14.953
63365W        W24786  16.267   1.964   4.121
63366W        W24787  43.963  29.053  11.054
63367W        W24788  44.923  15.275   4.191
63368W        W24789  42.373  38.527  14.770
63369W        W24790  37.905  32.911  11.491
63370W        W24791   3.295  26.665  10.438
63371W        W24792  42.848  40.879   3.225
63372W        W24793  11.732  11.722  12.437
63373W        W24794   1.475  28.572   2.373
63374W        W24795  18.686  41.968   2.864
63375W        W24796  30.560  28.561   0.850
63376W        W24797  10.177  22.035   3.300
63377W        W24798  41.992   5.318  10.968
63378W        W24799  17.593   0.383  10.930
63379W        W24800  29.166  30.001   1.302
63380W        W24801  33.565  36.502   3.182
63381W        W24802  31.956  12.198   9.522
63382W        W24803  12.253  11.172  14.513
63383W        W24804  39.557  31.916   2.211
63384W        W24805  23.630  32.394   2.884
63385W        W24806  34.378  21.148  13.331
63386W        W24807  19.149   0.391  14.919
63387W        W24808  41.797   9.223  14.842
63388W        W24809  43.285  39.555  14.927
63389W        W24810   5.876  28.011  10.583
63390W        W24811   1.951  27.628   2.360
63391W        W24812  41.364   3.938   1.905
63392W        W24813   4.745  25.073   4.165
63393W        W24814   4.731  30.498   0.275
63394W        W24815  29.164  30.006  14.501
63395W        W24816  14.308  30.012   1.330
63396W        W24817  33.000  17.244   2.688
63397W        W24818   4.794  36.437   0.760
63398W        W24819  13.782  36.348  12.461
63399W        W24820  41.984  37.336   1.281
63400W        W24821  15.114   2.736  13.476
63401W        W24822  13.212   2.776   1.448
63402W        W24823  16.682   5.788  11.401
63403W        W24824  34.613  19.183   0.821
63404W        W24825  20.139  28.564  12.893
63405W        W24826  34.545  22.708   2.235
63406W        W24827  31.908  41.478  10.135
63407W        W24828  15.747  28.115   1.785
63408W        W24829  36.943  38.423   4.669
63409W        W24830  12.731   9.795  11.053
63410W        W24831  40.323  39.352  12.918
63411W        W24832   2.445  40.412  13.312
63412W        W24833  31.578  21.543   0.826
63413W        W24834  28.644  18.074  11.590
63414W        W24835  18.164  23.664   2.837
63415W        W24836  41.411  31.529   0.299
63416W        W24837   4.205  29.949   0.768
63417W        W24838  27.035  23.185   3.634
63418W        W24839  17.796  43.301   4.615
63419W        W24840  33.451   0.969   5.645
63420W        W24841  14.133  31.472  14.432
63421W        W24842  35.018  23.092  13.531
63422W        W24843  16.785  14.270  13.947
63423W        W24844  40.915  29.968  14.980
63424W        W24845  18.121   7.669  13.791
63425W        W24846  37.464   0.311  11.965
63426W        W24847  14.176  39.930  14.923
63427W        W24848  16.601  19.273   0.473
63428W        W24849   4.377  13.207   0.910
63429W        W24850   4.772  10.804  12.068
63430W        W24851  27.688  29.919  14.834
63431W        W24852  33.127  12.294   1.365
63432W        W24853  30.605  16.237   5.208
63433W        W24854   0.471  28.108   2.349
63434W        W24855   9.298  25.662  12.512
63435W        W24856  21.715  14.129   4.191
63436W        W24857  42.796  34.583  14.778
63437W        W24858  26.043  33.876   4.218
63438W        W24859  15.191  20.734   3.741
63439W        W24860  42.284  34.565  11.421
63440W        W24861  21.651  30.931  14.399
63441W        W24862  26.108   7.698   2.269
63442W        W24863  14.184  35.516   0.337
63443W        W24864  13.705  30.940  11.401
63444W        W24865  20.114  37.574  11.432
63445W        W24866  36.534  34.548  10.635
63446W        W24867  19.776   3.364  13.799
63447W        W24868  36.068  38.841  10.555
63448W        W24869  32.897   6.262  10.443
63449W        W24870  14.245   3.837   0.446
63450W        W24871  34.877  35.859  13.043
63451W        W24872  33.946  11.271  13.905
63452W        W24873  25.658  29.547  12.998
63453W        W24874  44.415  42.908   4.244
63454W        W24875   6.362  21.622   4.638
63455W        W24876   5.417  13.201  11.083
63456W        W24877  39.827  12.741   3.772
63457W        W24878  28.963  18.744  12.024
63458W        W24879  16.101  11.294   0.475
63459W        W24880  22.525   5.385  11.047
63460W        W24881  44.001  34.598   0.244
63461W        W24882  34.013   6.778  10.420
63462W        W24883  24.583  13.120  10.941
63463W        W24884  34.101  40.449   3.243
63464W        W24885   9.294  13.287   1.734
63465W        W24886  42.434   9.218   3.167
63466W        W24887  24.984   6.841   0.896
63467W        W24888   9.320  40.843   4.151
63468W        W24889  28.473  18.573   0.792
63469W        W24890   0.378  31.622   3.834
63470W        W24891  35.911  17.238  12.070
63471W        W24892  39.965  25.093  11.925
63472W        W24893  29.120  35.453   2.214
63473W        W24894  21.628  43.808   4.200
63474W        W24895  29.630  33.390   0.891
63475W        W24896  11.342  31.061  11.585
63476W        W24897  12.343   1.423  14.998
63477W        W24898  34.502   3.421   3.364
63478W        W24899  32.987  24.708   3.228
63479W        W24900   9.822  15.597  12.474
63480W        W24901  16.708  10.687   2.670
63481W        W24902  15.156  24.230   1.322
63482W        W24903  26.532  16.081   3.860
63483W        W24904  10.369  24.482  14.284
63484W        W24905  17.293  16.272  13.839
63485W        W24906  15.262  23.033  12.042
63486W        W24907   6.196  27.151   0.738
63487W        W24908  38.461  43.363   3.287
63488W        W24909  15.750  33.948   2.248
63489W        W24910  17.595  34.584   2.328
63490W        W24911  41.506  31.475  10.544
63491W        W24912  38.895  22.025  14.024
63492W        W24913  23.558   6.799   3.836
63493W        W24914  14.225   1.761  14.839
63494W        W24915  19.271   9.750   1.253
63495W        W24916  17.076  35.058  13.541
63496W        W24917   6.893   6.804  13.309
63497W        W24918  30.463  39.457   3.205
63498W        W24919  16.594  35.583   0.303
63499W        W24920  38.039  24.484   4.139
63500W        W24921  40.997   7.327   3.806
63501W        W24922   8.820  17.760  12.891
63502W        W24923  27.645  41.855   0.251
63503W        W24924  19.112  28.488   0.385
63504W        W24925  30.151  38.892   4.187
63505W        W24926  41.905  15.289   2.218
63506W        W24927  39.950  17.623   3.863
63507W        W24928  36.902   1.361   1.773
63508W        W24929  26.132  33.421   0.248
63509W        W24930  12.638   4.338   4.796
63510W        W24931   3.456  17.228   0.347
63511W        W24932  14.245  38.036  11.951
63512W        W24933  32.557   6.779   1.868
63513W        W24934  37.014  35.436   3.298
63514W        W24935  25.507  14.785   1.286
63515W        W24936  14.233  34.538  10.605
63516W        W24937  22.040  44.978  14.325
63517W        W24938  42.474   1.479   1.338
63518W        W24939  43.474  18.635   3.331
63519W        W24940  32.600  23.516   2.774
63520W        W24941  23.223  18.215  11.051
63521W        W24942  38.555  44.962  13.949
63522W        W24943   3.814  35.934  14.496
63523W        W24944  41.524  21.658  14.504
63524W        W24945  33.896  43.794   0.731
63525W        W24946  21.751  39.518  11.030
63526W        W24947  37.944  38.330   0.285
63527W        W24948  18.717   5.317  13.817
63528W        W24949   1.950  30.512  10.545
63529W        W24950  26.458  38.996  10.560
63530W        W24951  41.385  38.350   0.482
63531W        W24952  30.006  26.655  10.420
63532W        W24953   2.229  21.594  12.398
63533W        W24954  16.568   9.174  11.442
63534W        W24955  42.825  40.817   3.774
63535W        W24956  35.928  25.163   1.869
63536W        W24957  24.560  20.273  11.599
63537W        W24958  28.436  14.678   3.262
63538W        W24959  39.368  38.041  12.412
63539W        W24960  10.288  32.072   4.675
63540W        W24961  14.218  40.990   0.785
63541W        W24962  20.543  19.756   1.916
63542W        W24963  35.491   7.213   1.900
63543W        W24964  10.385  38.056  11.524
63544W        W24965   7.906  36.023  14.391
63545W        W24966  12.308   4.878  14.305
63546W        W24967  10.805   7.792   4.630
63547W        W24968   8.794  43.817  13.964
63548W        W24969  32.445  19.604   0.429
63549W        W24970  41.427   5.838   1.731
63550W        W24971  24.063  30.078   2.686
63551W        W24972  18.660  17.119   2.186
63552W        W24973  27.592  18.649   0.474
63553W        W24974  39.945  23.717  10.470
63554W        W24975  41.922  14.336   4.250
63555W        W24976  39.555  13.157   0.894
63556W        W24977  13.142  33.459   1.917
63557W        W24978  35.958   8.778   3.200
63558W        W24979   2.427  33.090   5.118
63559W        W24980  29.127   4.283   2.384
63560W        W24981  27.105  30.048   3.262
63561W        W24982  42.928  26.057  14.405
63562W        W24983  25.038   8.842   0.767
63563W        W24984  25.563  18.719  14.396
63564W        W24985  40.499  11.372   4.714
63565W        W24986  11.637  17.082  11.383
63566W        W24987  39.444  10.313   0.900
63567W        W24988  39.468  32.068   0.470
63568W        W24989  27.616  11.308  14.484
63569W        W24990  31.533   4.443  13.439
63570W        W24991  39.901  34.585  11.100
63571W        W24992  37.458   5.751   4.340
63572W        W24993  26.153  23.526  13.950
63573W        W24994   4.890  31.602   3.191
63574W        W24995  17.777   8.195   1.737
63575W        W24996   9.783  21.675  14.335
63576W        W24997  15.225  28.952   0.251
63577W        W24998  44.873  23.047   1.259
63578W        W24999  41.007  32.906   1.270
63579W        W25000  17.287  41.415   4.629
63580W        W25001  26.568   9.167  13.938
63581W        W25002   3.912  15.683  11.986
63582W        W25003  27.658  12.697  14.948
63583W        W25004   1.465  15.790  10.959
63584W        W25005  38.041  16.079   4.310
63585W        W25006  15.097   2.854  12.536
63586W        W25007   6.704  22.531  13.062
63587W        W25008  28.950  15.769   4.730
63588W        W25009  40.041   9.277   3.381
63589W        W25010  14.188   5.224  11.389
63590W        W25011  21.141  23.023   2.856
63591W        W25012   5.784  38.868   1.278
63592W        W25013  28.555   9.253  13.875
63593W        W25014  20.611  43.019   2.825
63594W        W25015   3.937  24.689  11.605
63595W        W25016  32.601  32.114  12.361
63596W        W25017  30.010   2.722  11.071
63597W        W25018  31.991  16.172  13.487
63598W        W25019   3.419  37.396  13.326
63599W        W25020  13.317  27.132   0.463
63600W        W25021  13.602  22.031  14.493
63601W        W25022  27.104  23.094  14.500
63602W        W25023  29.020  19.547  13.437
63603W        W25024  28.009  35.583   4.257
63604W        W25025   7.758  40.542  10.481
63605W        W25026   1.795   3.848   4.784
63606W        W25027  31.436  13.225   2.371
63607W        W25028  33.571  23.542   2.829
63608W        W25029  11.689   9.179   0.481
63609W        W25030  24.545  14.305   0.382
63610W        W25031  33.052  14.649  11.489
63611W        W25032  27.962  43.777  12.856
63612W        W25033   3.725   1.280   5.184
63613W        W25034  32.109  26.959   0.305
63614W        W25035   8.213  32.127   2.264
63615W        W25036   6.764  19.060  12.547
63616W        W25037  37.483   3.857  12.389
63617W        W25038   9.175  11.694   2.354
63618W        W25039  15.324  16.286  10.514
63619W        W25040  13.346  39.061   4.156
63620W        W25041  24.661  36.558   0.869
63621W        W25042  24.980   2.922  13.356
63622W        W25043  36.380  31.509   4.742
63623W        W25044  44.456   8.666   3.773
63624W        W25045   1.888  30.951   3.674
63625W        W25046  15.723  19.749  11.088
63626W        W25047  33.462   0.867  13.416
63627W        W25048  38.938  35.358   4.694
63628W        W25049   0.900  16.318  11.447
63629W        W25050  36.065   4.903  11.006
63630W        W25051  35.857  26.152   0.743
63631W        W25052   3.812  10.639  11.033
63632W        W25053  30.137  30.558   4.188
63633W        W25054  38.825   1.309  13.501
63634W        W25055  32.891  37.563   1.830
63635W        W25056  40.360  43.878  11.063
63636W        W25057   1.832  33.971   2.264
63637W        W25058  10.673  39.840  13.855
63638W        W25059  37.423  21.625  13.936
63639W        W25060  17.179  29.035   4.782
63640W        W25061  35.923  12.183  11.549
63641W        W25062  29.016  11.171  13.486
63642W        W25063  41.940  33.965  12.514
63643W        W25064   6.760  13.160  10.932
63644W        W25065   0.794  13.287   2.674
63645W        W25066  33.036   7.821  13.405
63646W        W25067   7.688  31.625   4.321
63647W        W25068  10.850  41.332  14.831
63648W        W25069  35.993  10.326  14.924
63649W        W25070   8.394  15.164   1.749
63650W        W25071  19.755  37.022   1.390
63651W        W25072  30.035   3.798  13.798
63652W        W25073  33.904   3.814   9.938
63653W        W25074  22.604  15.227   0.325
63654W        W25075   9.768   0.927  13.462
63655W        W25076  16.212  26.200   3.280
63656W        W25077  20.186  36.470  12.414
63657W        W25078  40.847  39.528  12.847
63658W        W25079  17.093  35.383  12.832
63659W        W25080   8.848  24.571  11.969
63660W        W25081  41.350  32.067  12.375
63661W        W25082  27.471   7.397   4.645
63662W        W25083  18.163  44.879   1.794
63663W        W25084  15.138  41.006   0.778
63664W        W25085  24.092   1.343  14.905
63665W        W25086  41.530  40.508   5.245
63666W        W25087  37.449  37.840   1.329
63667W        W25088  35.039  36.357   4.611
63668W        W25089  40.041  32.502  13.496
63669W        W25090  34.863   5.717  11.040
63670W        W25091  18.113   5.351   2.893
63671W        W25092  32.888  19.635  11.522
63672W        W25093  28.631   6.303  13.817
63673W        W25094  10.827  11.814  13.817
63674W        W25095   9.328  15.714   4.351
63675W        W25096  25.127   8.341   3.828
63676W        W25097  40.478  21.144  14.781
63677W        W25098  38.000  39.419   0.933
63678W        W25099  22.166  16.731  10.596
63679W        W25100  24.679  27.959  12.996
63680W        W25101  29.442  21.100   4.206
63681W        W25102  31.061   0.359   0.457
63682W        W25103  31.985  33.031  13.922
63683W        W25104  36.481  35.862  12.428
63684W        W25105   1.432   5.303  13.500
63685W        W25106  33.598  21.166   3.240
63686W        W25107  10.808  34.526   4.750
63687W        W25108  12.156  34.569   1.216
63688W        W25109  34.067   2.753  14.764
63689W        W25110  37.420  39.411  13.936
63690W        W25111   6.286   1.793   5.267
63691W        W25112  39.440  10.739  10.455
63692W        W25113   6.212  26.556  13.913
63693W        W25114  26.563  16.165  11.551
63694W        W25115  27.096  23.585   4.158
63695W        W25116  15.698  12.304  10.585
63696W        W25117  21.185  26.618   2.851
63697W        W25118  31.914  42.821   3.387
63698W        W25119  19.093  36.090   2.762
63699W        W25120  10.335  26.153   2.313
63700W        W25121  11.198  37.076  13.493
63701W        W25122  18.257  12.165  14.934
63702W        W25123  32.076  41.500  14.352
63703W        W25124  23.137  12.208  14.855
63704W        W25125  33.907  11.148  10.019
63705W        W25126  24.210  10.197   2.859
63706W        W25127  20.589  35.498  13.057
63707W        W25128  18.121  27.668  14.284
63708W        W25129  20.138  33.994   2.243
63709W        W25130  34.996  38.358   1.388
63710W        W25131  39.822   7.388   4.797
63711W        W25132  44.885   1.331  13.044
63712W        W25133  26.523  24.194  12.943
63713W        W25134  19.566  18.254   5.089
63714W        W25135  30.644   2.852   0.323
63715W        W25136   6.758   4.718  12.067
63716W        W25137  22.700   1.824   4.838
63717W        W25138  26.630  27.517   3.183
63718W        W25139   2.405  20.053  11.879
63719W        W25140   0.355  13.806  12.083
63720W        W25141  28.064   0.808  13.444
63721W        W25142  17.223  34.049   4.705
63722W        W25143   6.422  15.161   1.706
63723W        W25144  41.955  19.259   4.726
63724W        W25145   8.828  36.912   1.731
63725W        W25146  18.082  15.786   0.408
63726W        W25147  33.597  19.635  11.976
63727W        W25148  43.906  27.593  11.567
63728W        W25149   9.272  20.169   1.743
63729W        W25150  27.945  31.571   4.776
63730W        W25151  18.290  38.826  12.408
63731W        W25152  43.815  22.227   0.952
63732W        W25153   7.365  28.004   0.478
63733W        W25154   4.421  14.271  11.548
63734W        W25155  28.111   7.303   5.124
63735W        W25156  11.725  43.321  14.439
63736W        W25157  32.401  33.010  14.393
63737W        W25158  29.478   8.396  14.977
63738W        W25159  20.533  41.851   2.262
63739W        W25160  17.608  10.260  11.068
63740W        W25161  26.521  43.950  12.951
63741W        W25162  37.936  24.628   2.376
63742W        W25163   7.243  14.814  11.536
63743W        W25164  35.531  11.166  12.371
63744W        W25165  25.994  15.636   1.725
63745W        W25166  36.538  13.233   3.800
63746W        W25167  41.929  41.345   5.198
63747W        W25168  32.092  36.852   3.283
63748W        W25169  38.879  34.379  14.846
63749W        W25170  17.202  36.368   2.735
63750W        W25171  10.304  41.473   3.265
63751W        W25172  24.589  29.924  14.406
63752W        W25173  24.100  37.998  10.980
63753W        W25174   4.330  31.640   4.703
63754W        W25175  28.995  19.596   3.285
63755W        W25176  42.979  20.664  10.116
63756W        W25177  25.162  37.385  11.869
63757W        W25178   2.247  41.952   3.362
63758W        W25179  11.850  31.959   5.206
63759W        W25180  16.705  26.658   3.348
63760W        W25181  15.596   4.415  12.416
63761W        W25182   3.368   6.795   3.818
63762W        W25183  22.039  10.223  10.959
63763W        W25184  40.353  37.552  10.570
63764W        W25185  16.768  17.161  11.394
63765W        W25186  38.389  34.400   4.610
63766W        W25187  11.275  16.738  13.832
63767W        W25188   4.222  26.157   9.603
63768W        W25189   6.787  35.565  12.361
63769W        W25190   5.761  17.265   4.192
63770W        W25191   7.768  22.648  14.904
63771W        W25192  34.067  26.662   3.819
63772W        W25193  34.919  14.694   4.712
63773W        W25194  11.813  15.729   1.350
63774W        W25195  12.691  27.456   4.762
63775W        W25196  31.422  27.177   2.862
63776W        W25197  37.869  42.483  12.875
63777W        W25198  20.210   8.275  13.514
63778W        W25199  42.917  13.719  13.419
63779W        W25200  15.664  15.815  14.815
63780W        W25201   5.317  21.673  10.468
63781W        W25202  18.734  12.335   2.216
63782W        W25203  12.274   5.329  11.904
63783W        W25204  22.602  16.078  12.008
63784W        W25205  43.945  14.639  12.459
63785W        W25206   2.310   9.695   3.796
63786W        W25207  16.803  36.482  11.929
63787W        W25208  38.823  14.773   1.331
63788W        W25209   2.370  29.160   3.833
63789W        W25210  25.196  28.626  14.447
63790W        W25211  30.122  33.526  10.442
63791W        W25212  37.942  19.192   2.709
63792W        W25213  41.422  14.777  12.875
63793W        W25214   3.877  23.176   5.669
63794W        W25215   0.460  35.416  11.584
63795W        W25216  11.331  17.215   4.204
63796W        W25217  13.247  24.611  14.840
63797W        W25218  28.516   1.397  12.901
63798W        W25219  37.394  12.807   1.827
63799W        W25220  19.053  19.703   2.220
63800W        W25221  14.732  25.601   0.928
63801W        W25222  36.551  19.091   0.965
63802W        W25223  39.323  10.229  10.009
63803W        W25224   4.729  29.667  14.339
63804W        W25225  38.915   7.681  14.770
63805W        W25226  38.532   8.203   0.271
63806W        W25227  11.798   9.229  11.963
63807W        W25228  22.561   0.949   4.707
63808W        W25229  32.001  34.607   0.482
63809W        W25230  14.307   9.149  14.796
63810W        W25231  35.975  11.242   3.205
63811W        W25232  23.521  41.864  12.542
63812W        W25233  18.117  33.610   4.772
63813W        W25234  20.619  10.820  10.431
63814W        W25235  21.745  25.071  13.413
63815W        W25236  27.681  26.146  13.961
63816W        W25237  13.257   0.854  11.389
63817W        W25238  41.374   6.290   0.801
63818W        W25239  15.107   8.850   1.346
63819W        W25240  31.551  44.420  14.304
63820W        W25241  15.686  29.006   0.769
63821W        W25242   7.354   3.738  14.959
63822W        W25243  38.932  33.446  12.346
63823W        W25244  27.062   7.880   4.759
63824W        W25245   3.352  44.385   3.210
63825W        W25246  22.999  18.791   2.858
63826W        W25247  17.247  26.613  13.796
63827W        W25248  31.587   6.916  11.552
63828W        W25249  33.104   7.887   3.714
63829W        W25250  21.600  32.624  10.433
63830W        W25251   2.863  42.847   0.345
63831W        W25252  44.993  21.038  13.872
63832W        W25253  20.069  41.014  13.886
63833W        W25254  28.513   6.799   2.708
63834W        W25255  42.021  34.054  14.811
63835W        W25256  23.574   1.382   2.408
63836W        W25257  16.124  38.820   1.723
63837W        W25258  13.684  34.534  10.897
63838W        W25259  32.003   1.353   4.782
63839W        W25260  32.945  42.307   4.600
63840W        W25261  36.982  11.157  10.916
63841W        W25262   2.795   7.677   0.426
63842W        W25263  39.320  16.229  14.803
63843W        W25264  37.942   4.378  14.825
63844W        W25265  38.941  22.624   5.268
63845W        W25266  12.610  10.160  12.419
63846W        W25267  35.595  38.361  12.831
63847W        W25268   3.865  32.941   2.821
63848W        W25269   3.330   3.908   1.416
63849W        W25270  29.495   9.325   3.660
63850W        W25271  37.019  26.076   0.435
63851W        W25272  37.041  27.672   3.847
63852W        W25273   3.242  40.440   4.626
63853W        W25274  19.762  33.878  11.441
63854W        W25275  34.090   8.263  13.892
63855W        W25276  35.403  36.579   3.751
63856W        W25277  15.193  36.060  14.311
63857W        W25278  10.152  35.027  13.867
63858W        W25279  12.706  38.047  10.478
63859W        W25280   6.241   0.328  10.531
63860W        W25281  40.830  19.247  10.536
63861W        W25282  43.393  19.186  13.443
63862W        W25283  35.533  40.451  13.892
63863W        W25284  40.484  17.801   3.164
63864W        W25285   0.354   4.420  10.585
63865W        W25286   3.709  35.597  12.967
63866W        W25287  29.080  20.536   1.261
63867W        W25288   0.341   2.882   2.669
63868W        W25289  17.567   6.827   3.299
63869W        W25290   3.903  40.512  13.876
63870W        W25291  35.578  32.968  10.448
63871W        W25292   4.329  30.094   2.333
63872W        W25293   3.307  17.279   5.187
63873W        W25294  25.473  33.874  12.500
63874W        W25295  35.571   6.334  10.623
63875W        W25296   5.237  38.378  14.348
63876W        W25297  12.743  26.142  11.993
63877W        W25298  12.746   9.810   3.369
63878W        W25299  34.476  25.607  13.888
63879W        W25300  27.477  44.376  10.641
63880W        W25301  10.299  14.212  11.608
63881W        W25302  30.111  43.806   1.231
63882W        W25303   4.707  30.032  12.343
63883W        W25304  31.923  17.610  14.342
63884W        W25305  41.972  13.613  11.860
63885W        W25306  42.293   5.209   3.220
63886W        W25307  20.700  37.875  13.488
63887W        W25308  19.748  26.694   3.311
63888W        W25309  31.541  12.781  12.478
63889W        W25310  13.694  29.964  12.970
63890W        W25311  25.580   8.220  12.472
63891W        W25312  31.058  18.693  14.467
63892W        W25313  28.556  16.591   1.754
63893W        W25314  35.401  41.951  12.422
63894W        W25315  34.952  39.391   1.879
63895W        W25316  33.101  39.330  11.043
63896W        W25317  32.899  10.375  10.138
63897W        W25318  10.647   5.911   4.182
63898W        W25319  11.756   0.348   3.167
63899W        W25320   4.301  42.443   3.175
63900W        W25321  15.308  37.422   1.367
63901W        W25322  43.801  22.610  14.831
63902W        W25323  44.360   2.949  12.863
63903W        W25324   7.400  43.479   1.851
63904W        W25325  34.436  40.841   4.651
63905W        W25326  41.041  19.076   2.398
63906W        W25327  31.609   0.888  10.465
63907W        W25328  40.504  37.561  14.834
63908W        W25329   0.909  18.723  14.325
63909W        W25330  24.073  24.712   4.303
63910W        W25331  41.328   7.341   3.654
63911W        W25332   7.247  12.332   2.246
63912W        W25333  11.776  11.233  12.416
63913W        W25334  18.262   1.856   4.334
63914W        W25335  42.321  28.623  14.448
63915W        W25336   5.388  43.993  14.012
63916W        W25337  38.503  40.492  10.619
63917W        W25338  22.587  35.035   2.718
63918W        W25339  29.612  15.791   3.859
63919W        W25340  24.716  43.377   2.218
63920W        W25341   6.704   5.734   0.355
63921W        W25342  29.591  31.571  13.903
63922W        W25343  15.182  38.357  10.531
63923W        W25344  42.957  30.020  13.524
63924W        W25345  22.999  23.622  13.056
63925W        W25346  30.128  22.706   2.233
63926W        W25347  41.849  18.178   0.363
63927W        W25348  43.276  38.468  11.863
63928W        W25349  29.465  26.598  13.457
63929W        W25350  31.403  35.084  11.501
63930W        W25351  24.661  11.709   2.833
63931W        W25352  24.717   3.809  13.979
63932W        W25353  10.194  10.769   2.288
63933W        W25354  30.988  29.938   2.784
63934W        W25355  12.272  37.491   3.662
63935W        W25356  28.642   8.299  11.414
63936W        W25357  27.611  26.645  14.916
63937W        W25358  44.325  15.648   3.366
63938W        W25359   7.239  43.493  14.905
63939W        W25360  27.551   5.204   3.648
63940W        W25361  11.639   6.705   1.289
63941W        W25362  30.588  22.738  13.544
63942W        W25363  26.976  34.029  14.760
63943W        W25364  41.444  32.580  11.927
63944W        W25365  27.533  15.269   2.743
63945W        W25366  39.356  29.128   3.812
63946W        W25367  14.340  29.036   1.382
63947W        W25368   6.380  42.916   1.818
63948W        W25369  15.725  40.845  14.918
63949W        W25370  36.395  17.603  11.449
63950W        W25371  36.907  42.396   2.701
63951W        W25372  20.674  18.601   2.812
63952W        W25373   3.825  16.808   0.261
63953W        W25374  40.498  36.920  14.420
63954W        W25375   5.425   4.216  14.301
63955W        W25376  25.576   7.866   1.879
63956W        W25377  20.574   9.349   1.696
63957W        W25378  34.482  34.403  11.065
63958W        W25379  34.968  20.139   1.245
63959W        W25380  22.541  31.972  12.467
63960W        W25381  37.577   9.872   4.763
63961W        W25382   6.679  17.182  12.980
63962W        W25383   8.759  44.808  13.425
63963W        W25384  36.552  35.945   2.257
63964W        W25385  20.169   8.381  12.341
63965W        W25386  43.422  37.069   4.669
63966W        W25387  40.460  26.628   2.245
63967W        W25388  21.195  42.523  10.920
63968W        W25389  20.624   3.247   1.722
63969W        W25390  13.759  43.279   4.201
63970W        W25391  38.522  32.612  12.428
63971W        W25392   0.333   1.897   2.840
63972W        W25393   7.780  32.960   2.311
63973W        W25394  16.628  41.034  11.955
63974W        W25395  36.586  23.716  13.391
63975W        W25396  36.960   5.193  10.483
63976W        W25397  12.159  16.155  13.854
63977W        W25398  28.563  35.940  12.883
63978W        W25399   2.913  16.296  14.778
63979W        W25400  19.694  28.467  14.788
63980W        W25401  43.010  34.434   3.298
63981W        W25402  16.641   4.403   0.279
63982W        W25403  28.150  29.567  13.013
63983W        W25404  12.130  12.818  10.926
63984W        W25405   1.455  13.208   2.393
63985W        W25406   6.242  19.050  13.984
63986W        W25407  24.016   0.790   2.288
63987W        W25408  15.102  19.183  14.418
63988W        W25409  26.486  24.543  14.991
63989W        W25410   7.275  44.415   1.783
63990W        W25411   2.427  26.075   3.682
63991W        W25412  15.287  24.040   2.323
63992W        W25413  14.301  17.063   4.641
63993W        W25414  16.579  30.458  13.055
63994W        W25415  14.737  12.727  13.464
63995W        W25416  11.796  23.598   5.167
63996W        W25417  15.327   2.380  14.478
63997W        W25418  30.422  43.381  13.913
63998W        W25419  20.705  31.492   1.225
63999W        W25420   1.954   3.786   2.830
64000W        W25421  17.602  38.493   1.235
64001W        W25422   4.259  35.021   1.412
64002W        W25423  22.183   9.836   0.463
64003W        W25424  34.534   6.272   4.644
64004W        W25425  33.875  10.160   3.832
64005W        W25426  32.422  44.265  12.844
64006W        W25427  23.612   8.288  11.987
64007W        W25428  26.197  37.460   0.941
64008W        W25429  29.941  20.087   2.878
64009W        W25430   0.410  17.147   0.840
64010W        W25431  23.099  26.570   0.349
64011W        W25432  42.860  41.473  14.337
64012W        W25433  37.888  14.317  14.959
64013W        W25434  23.209  44.999   1.343
64014W        W25435   3.354  19.112   1.428
64015W        W25436  11.719  22.105  14.785
64016W        W25437  15.090  13.722  11.003
64017W        W25438  19.126  24.227  13.315
64018W        W25439  33.113   7.701   0.793
64019W        W25440  10.376   9.170  11.513
64020W        W25441  40.945  32.575   3.346
64021W        W25442  15.595  21.137   2.712
64022W        W25443   8.879  19.658  11.936
64023W        W25444   0.885  38.496   0.864
64024W        W25445   8.268  44.425  12.030
64025W        W25446  27.574  17.240  11.095
64026W        W25447  11.732   8.180  10.506
64027W        W25448  37.477  25.677  13.399
64028W        W25449  42.352  18.555   2.712
64029W        W25450  19.669   4.211  12.902
64030W        W25451  17.284  19.191   4.635
64031W        W25452  29.167  37.493   3.824
64032W        W25453  35.465  34.019  12.880
64033W        W25454  35.591  39.908  11.437
64034W        W25455  23.506  21.689  14.347
64035W        W25456   4.885  21.720  11.929
64036W        W25457  38.557   2.322  13.523
64037W        W25458  42.883  25.679  11.998
64038W        W25459  36.386   4.316   0.956
64039W        W25460   0.333   0.260  13.979
64040W        W25461  34.489  14.797   0.729
64041W        W25462   1.953  41.400   3.735
64042W        W25463   0.961  35.535   1.381
64043W        W25464   0.484  12.739   3.783
64044W        W25465  14.605  44.314   3.735
64045W        W25466   8.206  21.625  14.477
64046W        W25467  16.094  19.645  12.953
64047W        W25468  31.504  25.565   0.251
64048W        W25469   1.963  14.599  13.908
64049W        W25470  43.775   0.914   1.749
64050W        W25471  15.322  22.651   3.737
64051W        W25472   5.285  43.805  12.012
64052W        W25473  17.665  44.280  11.071
64053W        W25474   1.302  17.296  10.435
64054W        W25475  27.687  40.912  13.862
64055W        W25476  27.561   2.832  14.459
64056W        W25477  26.566  26.069  11.123
64057W        W25478  20.237   2.338   3.784
64058W        W25479  22.223   6.899  10.058
64059W        W25480   6.333  44.283   4.203
64060W        W25481   6.370  16.662   1.376
64061W        W25482   0.331   5.739   3.377
64062W        W25483   6.807  30.135  12.076
64063W        W25484  20.643   5.200   3.854
64064W        W25485  17.191  44.489  13.973
64065W        W25486  43.815   2.318  13.320
64066W        W25487   8.659  13.125  13.485
64067W        W25488  21.039   7.201   1.717
64068W        W25489  20.112  30.600  10.609
64069W        W25490  37.568   6.687  10.580
64070W        W25491  27.108  28.056   4.633
64071W        W25492  27.641  16.588  11.127
64072W        W25493  37.542  10.276  14.849
64073W        W25494  23.175  19.040  10.957
64074W        W25495   7.666  30.028   2.852
64075W        W25496  37.438  39.876   1.347
64076W        W25497  39.516   9.379   2.298
64077W        W25498  20.049   0.407   0.927
64078W        W25499  44.421  34.956  14.461
64079W        W25500  14.669  26.499  14.914
64080W        W25501  15.089  25.474   4.161
64081W        W25502  34.975  39.365  13.395
64082W        W25503  22.187  27.680   4.815
64083W        W25504  11.178   8.214   1.873
64084W        W25505   0.891  39.539  10.452
64085W        W25506  13.601  14.308  12.089
64086W        W25507  43.851  33.982   0.907
64087W        W25508   3.859  33.514  13.876
64088W        W25509  36.406   4.843   5.313
64089W        W25510  43.904  44.830  11.024
64090W        W25511  10.256  27.625   2.347
64091W        W25512  30.585   1.943  10.081
64092W        W25513  30.976  44.796  14.496
64093W        W25514  23.531  44.976  12.893
64094W        W25515   5.337  34.042   4.213
64095W        W25516  14.294  16.307  12.566
64096W        W25517   2.274   4.350  12.434
64097W        W25518   0.912  17.174   1.902
64098W        W25519  12.776  38.509   0.786
64099W        W25520  41.485  32.985   0.475
64100W        W25521   8.291  44.392  14.025
64101W        W25522  25.002  15.122   1.331
64102W        W25523  15.118   8.259   1.216
64103W        W25524   3.733  42.326   1.410
64104W        W25525  19.179  14.760   2.332
64105W        W25526  35.918  24.016   1.804
64106W        W25527   3.292   8.821  14.783
64107W        W25528  26.527  14.805  13.373
64108W        W25529   7.872  37.462  11.010
64109W        W25530  23.648  32.519  11.498
64110W        W25531   9.711   5.839  13.916
64111W        W25532  11.844  18.160   3.762
64112W        W25533  17.094   9.707  13.882
64113W        W25534  19.723  29.448   5.141
64114W        W25535   0.783  11.764   5.190
64115W        W25536  11.743  33.569   3.845
64116W        W25537  44.314   7.686  13.338
64117W        W25538   6.903  35.016  11.551
64118W        W25539  30.608  38.499  14.306
64119W        W25540  16.136  42.462   1.708
64120W        W25541  15.719  28.681  11.081
64121W        W25542  43.868  37.506   2.286
64122W        W25543  32.420  28.574  11.025
64123W        W25544  38.872   1.977   0.332
64124W        W25545  34.094  40.357  13.464
64125W        W25546  23.534   2.229   4.734
64126W        W25547  15.185  44.890  14.453
64127W        W25548  21.561  39.062   3.775
64128W        W25549  22.669   2.905  12.002
64129W        W25550  42.968  35.984   3.749
64130W        W25551  44.394  10.643   0.745
64131W        W25552  27.639  17.776   4.210
64132W        W25553  40.007   4.277  13.311
64133W        W25554   6.815  29.105   1.879
64134W        W25555   3.249  30.095  13.942
64135W        W25556  22.723  16.172  14.025
64136W        W25557  13.670  16.159  10.992
64137W        W25558   1.296   0.986  11.445
64138W        W25559  44.341  41.966  11.051
64139W        W25560  40.823   2.437  10.451
64140W        W25561  29.033  26.628  12.354
64141W        W25562  38.947   9.309   0.949
64142W        W25563   3.736   8.774   3.719
64143W        W25564  37.466   6.352  14.920
64144W        W25565  23.553  32.886   2.879
64145W        W25566  13.322  29.926  13.468
64146W        W25567  14.738  40.445  14.872
64147W        W25568   0.425   9.253  12.346
64148W        W25569   3.758  41.536  11.941
64149W        W25570   1.358  33.397   4.166
64150W        W25571  29.164  38.488  13.437
64151W        W25572  34.917  39.834   1.751
64152W        W25573  34.876  26.702  13.804
64153W        W25574   4.704  25.010  13.520
64154W        W25575  29.982  17.219  10.535
64155W        W25576  38.905  35.966  14.947
64156W        W25577  21.205  29.171  11.401
64157W        W25578   3.353  38.961   2.682
64158W        W25579   7.346   7.230   0.345
64159W        W25580  40.849  18.632  13.365
64160W        W25581  17.069   6.212   4.725
64161W        W25582   7.907  34.965   1.355
64162W        W25583   9.316  29.099  14.885
64163W        W25584   9.806  30.556   3.283
64164W        W25585  11.622   8.764  10.060
64165W        W25586  38.938  28.519   9.934
64166W        W25587   3.719  39.396   4.325
64167W        W25588  33.458  21.018  13.859
64168W        W25589  12.146  11.647   3.240
64169W        W25590  29.099  38.544  14.791
64170W        W25591  41.040  27.031  13.863
64171W        W25592  32.484  11.190  14.012
64172W        W25593   4.221  28.980   2.306
64173W        W25594   9.333  19.581  14.924
64174W        W25595  19.209   6.233  14.939
64175W        W25596  20.580   5.825  13.373
64176W        W25597  44.459  19.251  13.055
64177W        W25598  16.186  40.489  14.809
64178W        W25599  26.987   6.795  12.573
64179W        W25600  28.557  21.751   4.126
64180W        W25601  15.194  38.363  13.010
64181W        W25602   6.202   2.390   4.117
64182W        W25603   4.324  19.581   0.788
64183W        W25604  38.419  35.872  13.953
64184W        W25605  13.242  25.551   2.696
64185W        W25606  33.482  33.029  14.778
64186W        W25607  39.372  21.675   0.384
64187W        W25608  15.672  38.968   3.312
64188W        W25609   2.734  36.959  13.462
64189W        W25610   2.896  17.626  11.567
64190W        W25611  21.136  40.030   0.847
64191W        W25612  42.388  33.076  10.889
64192W        W25613  20.671  44.845  12.982
64193W        W25614  27.545  33.553  14.835
64194W        W25615  32.909   2.237   2.416
64195W        W25616  17.152  18.608   3.167
64196W        W25617  44.932  27.486  10.950
64197W        W25618   9.781  34.047   0.438
64198W        W25619  25.699  33.618   4.786
64199W        W25620   4.328   1.899   2.402
64200W        W25621   6.842  15.248   1.345
64201W        W25622  24.111  33.539  13.332
64202W        W25623   3.786  15.255  13.310
64203W        W25624   9.752  37.927   0.442
64204W        W25625  16.312  16.183  13.818
64205W        W25626   8.695  35.519   0.806
64206W        W25627   6.772  21.126   2.268
64207W        W25628  42.335  16.625   4.733
64208W        W25629  44.285   9.833  13.817
64209W        W25630  22.019   3.286   9.554
64210W        W25631  36.886  38.826  10.566
64211W        W25632  42.943  15.673  12.522
64212W        W25633  21.067   1.876   0.313
64213W        W25634  41.907  24.651  11.010
64214W        W25635  26.548  27.449   1.759
64215W        W25636  39.348  42.512  14.365
64216W        W25637  39.933  43.860   4.601
64217W        W25638  42.805  44.327   3.342
64218W        W25639   3.265   4.733   4.286
64219W        W25640  16.174  28.587   4.738
64220W        W25641  37.431  39.846  10.102
64221W        W25642   6.281   4.234  12.976
64222W        W25643  14.150  24.005   1.769
64223W        W25644  20.135   9.743   0.320
64224W        W25645  20.746   6.302  11.542
64225W        W25646  39.023  34.009  11.559
64226W        W25647  28.106  34.088  12.449
64227W        W25648  30.051  42.865  11.072
64228W        W25649  28.106  41.833  12.425
64229W        W25650  41.945  33.531  10.409
64230W        W25651  27.033  13.351   0.398
64231W        W25652  25.654  43.798   4.294
64232W        W25653  16.757   5.769  13.323
64233W        W25654  18.279  34.447  14.434
64234W        W25655  42.015   9.228  10.496
64235W        W25656   9.868  10.374  14.450
64236W        W25657  39.977  22.229   2.309
64237W        W25658   9.740  30.605   2.278
64238W        W25659  20.039  43.398  13.878
64239W        W25660  32.449  16.096  13.024
64240W        W25661  23.517  26.630  11.094
64241W        W25662  24.662  28.637  13.537
64242W        W25663  31.002  24.098   0.394
64243W        W25664  24.647   8.276   2.341
64244W        W25665  26.477  22.535   4.330
64245W        W25666  40.435  42.512   1.891
64246W        W25667   3.323   6.299  14.952
64247W        W25668  26.984  10.844   1.256
64248W        W25669  16.076   3.313   1.302
64249W        W25670  10.850   4.712   1.343
64250W        W25671  36.427  36.353  12.530
64251W        W25672  11.247  27.954  13.435
64252W        W25673   0.745  15.278  13.960
64253W        W25674  31.934  20.631  10.942
64254W        W25675  32.452  44.379   2.313
64255W        W25676  28.972  12.300  12.447
64256W        W25677  42.796  38.446   2.772
64257W        W25678  39.903   1.360   3.763
64258W        W25679  31.946   9.262   3.309
64259W        W25680  38.956  15.798  11.451
64260W        W25681   6.281   4.349   3.223
64261W        W25682  35.095  39.906  11.467
64262W        W25683  27.159  41.835  13.997
64263W        W25684   6.275  39.872  13.060
64264W        W25685  10.686   6.210  11.438
64265W        W25686  19.730  42.378  11.604
64266W        W25687  27.537  17.782  14.888
64267W        W25688  35.937  28.513   2.761
64268W        W25689   8.205   4.801   4.642
64269W        W25690  11.787   3.235  12.910
64270W        W25691   2.799  41.293   2.354
64271W        W25692  20.179   8.367  10.548
64272W        W25693  24.623  13.142   2.834
64273W        W25694  42.396  31.140   0.959
64274W        W25695  35.552  23.087   0.249
64275W        W25696  35.997  39.004   1.298
64276W        W25697  21.638  27.472   3.814
64277W        W25698  33.905  17.574  12.042
64278W        W25699  18.176  42.925  14.297
64279W        W25700   4.866  38.568   0.873
64280W        W25701  44.861   9.830   4.601
64281W        W25702  11.681  42.332   4.167
64282W        W25703   8.656  23.990   4.207
64283W        W25704  18.182  24.597  14.022
64284W        W25705  35.867  25.531   3.196
64285W        W25706  41.036  23.629  13.528
64286W        W25707  29.035  25.601  11.452
64287W        W25708  30.520  29.992   4.305
64288W        W25709   5.831  29.100   1.244
64289W        W25710   0.351   6.727   4.178
64290W        W25711  31.522   9.777  14.472
64291W        W25712  23.498   0.746   1.262
64292W        W25713  37.344  20.568  11.531
64293W        W25714  42.929  31.007  14.949
64294W        W25715  37.904  15.756   2.330
64295W        W25716  24.133  39.436  13.826
64296W        W25717   3.920  16.668   4.228
64297W        W25718  33.430  43.271   2.210
64298W        W25719  13.349  29.057  13.527
64299W        W25720   6.261  19.779   5.143
64300W        W25721  16.624  27.956   4.248
64301W        W25722  40.832   2.426   3.171
64302W        W25723  36.492  23.987   5.137
64303W        W25724  38.496  20.254  14.977
64304W        W25725  24.088  42.283   1.388
64305W        W25726  39.924  13.827  14.838
64306W        W25727   4.320   2.733  11.597
64307W        W25728   9.734  21.118  10.452
64308W        W25729  14.332  23.671   2.351
64309W        W25730   8.765  31.126  13.461
64310W        W25731   4.315  33.448   0.416
64311W        W25732  41.804  21.234   3.734
64312W        W25733  17.626  22.648  13.398
64313W        W25734  28.075  21.094  12.407
64314W        W25735  24.521  38.487   1.370
64315W        W25736  29.641  31.410   0.330
64316W        W25737  16.073  31.134  14.977
64317W        W25738  17.252  21.047  12.077
64318W        W25739  35.414   7.762  11.416
64319W        W25740   0.751  34.995  10.063
64320W        W25741  36.556  34.932   1.928
64321W        W25742  31.543  16.711   0.249
64322W        W25743  29.021  42.865   3.714
64323W        W25744  35.061   5.334  11.972
64324W        W25745  43.791  36.985   3.367
64325W        W25746  24.194   2.402  13.460
64326W        W25747   9.385   2.721  11.899
64327W        W25748   9.663   2.883   2.832
64328W        W25749   4.303  37.888  11.479
64329W        W25750  24.142  26.639  14.383
64330W        W25751   0.404  27.131   4.703
64331W        W25752  13.640  30.091  12.469
64332W        W25753  22.250  40.463  10.946
64333W        W25754  39.364  10.142  10.902
64334W        W25755  34.402   4.779   9.927
64335W        W25756  15.662  16.280  11.047
64336W        W25757   9.186  39.365   3.304
64337W        W25758  42.313  39.909   2.268
64338W        W25759   4.401  17.789   3.227
64339W        W25760  32.976  34.964  11.950
64340W        W25761   6.338  27.570   3.826
64341W        W25762  13.145  23.192   3.186
64342W        W25763  15.089  26.598   1.713
64343W        W25764  44.856   7.701   3.673
64344W        W25765  44.793  25.148  10.940
64345W        W25766  19.253  21.520  10.990
64346W        W25767  16.259   1.776  11.442
64347W        W25768  27.049  23.627  11.610
64348W        W25769   2.290  29.963   2.765
64349W        W25770  10.171   1.322   0.360
64350W        W25771   7.259   6.363   4.133
64351W        W25772  37.835  30.537   2.238
64352W        W25773  27.052  15.640  10.909
64353W        W25774  18.633  37.012   3.349
64354W        W25775  25.199  41.466   1.303
64355W        W25776   0.342  14.266  10.479
64356W        W25777  25.472  25.201   0.796
64357W        W25778  37.918  26.059  12.522
64358W        W25779   4.728  15.638  12.390
64359W        W25780  31.541  28.526  14.844
64360W        W25781  18.780   1.944  12.024
64361W        W25782   2.441  17.717  12.529
64362W        W25783   5.322  34.506  12.021
64363W        W25784  19.057  29.447   1.240
64364W        W25785  15.644  22.044   3.370
64365W        W25786  40.007  39.996  14.475
64366W        W25787  11.223  38.330   9.970
64367W        W25788  32.563  23.653   1.725
64368W        W25789  18.745  25.653  13.477
64369W        W25790  40.935  34.027  12.839
64370W        W25791  21.686   7.753   3.728
64371W        W25792   6.686   7.337  12.457
64372W        W25793  42.982  21.170  12.386
64373W        W25794  29.501  16.163  11.549
64374W        W25795  25.638  41.366  13.011
64375W        W25796  25.167  21.616  14.842
64376W        W25797   9.293  21.099   0.901
64377W        W25798  40.518   9.272  10.574
64378W        W25799  33.561   6.821   2.863
64379W        W25800  28.177  21.218  14.313
64380W        W25801  44.776  13.288   2.891
64381W        W25802  29.989   5.860   4.813
64382W        W25803  22.113  37.393   2.707
64383W        W25804   4.293   1.866  14.876
64384W        W25805  16.589   6.295  12.497
64385W        W25806  13.691  10.158  13.527
64386W        W25807  17.607  16.156  13.541
64387W        W25808   4.940   4.807   0.432
64388W        W25809  10.354  28.516  10.517
64389W        W25810  20.737  20.213  10.621
64390W        W25811  14.266  43.419   0.912
64391W        W25812  41.455  35.413   2.368
64392W        W25813  11.324  42.308   1.741
64393W        W25814   6.231   6.827  13.964
64394W        W25815  33.416   0.752  11.602
64395W        W25816   2.871  32.589   2.406
64396W        W25817  22.069  39.380  14.006
64397W        W25818  34.468   1.790  12.490
64398W        W25819  10.207  43.926  11.975
64399W        W25820   6.827  41.507   1.918
64400W        W25821  19.542  41.421  12.961
64401W        W25822  40.850   5.354   0.344
64402W        W25823  40.543  26.645   4.726
64403W        W25824   7.876  29.501  11.374
64404W        W25825  20.674  18.280  13.415
64405W        W25826  44.347  33.522  12.443
64406W        W25827  17.116  23.003  14.965
64407W        W25828  34.011   1.351  14.769
64408W        W25829   9.210  43.512   3.700
64409W        W25830  28.183  13.636  10.085
64410W        W25831  40.935  27.088  14.878
64411W        W25832  20.144  43.363   4.660
64412W        W25833  24.585  28.070  10.418
64413W        W25834   1.317  16.110   1.868
64414W        W25835   2.763  40.833  11.556
64415W        W25836  43.909   5.332  12.967
64416W        W25837  19.197  24.648  13.824
64417W        W25838  39.019  38.445  12.046
64418W        W25839   7.206   0.985  13.843
64419W        W25840  29.996  28.672   0.900
64420W        W25841  38.944   0.899   3.812
64421W        W25842  25.185   3.940  11.074
64422W        W25843   5.851  42.479   4.749
64423W        W25844   1.855  40.461  12.380
64424W        W25845  33.481  41.354  11.574
64425W        W25846   0.413  10.791  14.789
64426W        W25847  18.124   6.243  14.436
64427W        W25848   2.332  34.446  14.485
64428W        W25849   3.307  35.471  11.481
64429W        W25850  34.118  26.608   2.666
64430W        W25851  14.181  42.029  13.469
64431W        W25852  29.522   7.878  11.528
64432W        W25853  34.032  28.524   0.355
64433W        W25854  26.550   1.821   2.203
64434W        W25855  12.624  34.007   3.260
64435W        W25856  31.902   8.714   1.247
64436W        W25857  39.915  24.980  14.956
64437W        W25858  17.772  16.568  14.280
64438W        W25859  32.401  25.129   3.669
64439W        W25860  38.505  26.117   3.194
64440W        W25861  42.398  38.438   4.822
64441W        W25862  11.325  19.617  13.990
64442W        W25863  25.210   2.769  12.476
64443W        W25864  22.637  28.156  10.902
64444W        W25865   5.290  28.173  11.559
64445W        W25866  44.885  26.964  14.941
64446W        W25867  27.527  23.991   3.221
64447W        W25868   9.299  40.408  13.956
64448W        W25869  16.671  13.200  14.434
64449W        W25870  19.265  43.847   0.898
64450W        W25871  16.738  14.191  14.324
64451W        W25872   4.350  25.600   2.866
64452W        W25873  23.490  33.410  11.474
64453W        W25874  13.790  25.484   0.883
64454W        W25875  40.030  29.081   2.851
64455W        W25876  37.397  26.545  14.488
64456W        W25877  25.505  31.940   1.281
64457W        W25878  41.032   7.209   0.314
64458W        W25879  16.767  32.634   2.870
64459W        W25880  43.884  42.846  10.955
64460W        W25881  40.956  16.232   1.846
64461W        W25882  27.124  17.126  12.354
64462W        W25883   1.769  19.186  12.496
64463W        W25884  32.896   8.833   0.894
64464W        W25885  38.909  28.947   4.755
64465W        W25886  10.714  23.055   1.916
64466W        W25887  35.361   9.776   1.335
64467W        W25888  39.522   6.782  10.422
64468W        W25889  17.190  42.884   2.231
64469W        W25890  26.022   3.306   1.383
64470W        W25891   0.925   1.739  13.541
64471W        W25892  41.854  28.542   4.208
64472W        W25893  42.294   5.872   3.844
64473W        W25894  42.505   2.871   3.642
64474W        W25895  44.837   7.373  11.946
64475W        W25896  37.535  28.471  12.375
64476W        W25897  32.971   8.203   4.804
64477W        W25898  14.605  40.377   0.325
64478W        W25899   7.404   0.746   3.192
64479W        W25900   8.392  28.573   0.806
64480W        W25901   1.403  23.229  10.442
64481W        W25902  32.419  11.248   4.695
64482W        W25903  34.045  17.604   1.305
64483W        W25904   2.824  24.131  11.954
64484W        W25905  11.632  12.266  14.340
64485W        W25906  42.350   3.741   1.753
64486W        W25907  23.024  35.402  13.062
64487W        W25908  12.734   5.213  12.853
64488W        W25909   2.720  40.331  11.935
64489W        W25910  40.535  10.644  12.430
64490W        W25911  39.417   2.387   2.299
64491W        W25912   9.177  28.009   4.221
64492W        W25913  38.542  12.213  13.952
64493W        W25914  21.219  33.622  12.954
64494W        W25915   8.352  21.081  11.098
64495W        W25916   1.870  11.858   0.243
64496W        W25917  20.045  43.393   4.223
64497W        W25918   5.432  35.094   1.381
64498W        W25919  10.717  18.635   1.221
64499W        W25920  18.051  26.028   0.472
64500W        W25921  38.543  32.438   3.817
64501W        W25922  43.368  41.403  13.314
64502W        W25923  23.211  44.405   0.960
64503W        W25924   9.764  25.141   2.805
64504W        W25925  20.078  35.876   2.728
64505W        W25926  12.121  30.068  13.815
64506W        W25927   2.230  30.466   2.812
64507W        W25928  22.193  13.157  10.606
64508W        W25929  37.380   0.382  12.872
64509W        W25930  38.534  34.509   4.145
64510W        W25931  15.707  37.366  13.413
64511W        W25932  34.899  39.842   2.855
64512W        W25933  37.855   0.750  10.022
64513W        W25934  37.914  25.704  13.523
64514W        W25935  34.069  27.609  12.037
64515W        W25936  40.360  32.420   3.641
64516W        W25937  26.525  32.419   4.305
64517W        W25938  20.071  15.727   5.191
64518W        W25939  10.320  32.101  14.010
64519W        W25940   3.807   1.395  10.518
64520W        W25941  27.558  16.606   1.855
64521W        W25942  33.096  36.502  10.939
64522W        W25943  11.727  32.510   2.288
64523W        W25944  32.942  21.259   2.273
64524W        W25945  39.344  16.198  10.615
64525W        W25946  17.222  15.780  11.866
64526W        W25947  36.451  33.578   3.270
64527W        W25948  15.741  17.247  12.907
64528W        W25949  12.835  35.900  10.521
64529W        W25950  34.559   5.320  10.900
64530W        W25951  43.465  22.085  14.791
64531W        W25952  43.274  29.101   9.931
64532W        W25953  28.448   4.291   2.412
64533W        W25954  31.985  39.519   1.819
64534W        W25955   3.795  28.168  12.096
64535W        W25956  20.645  25.982  14.868
64536W        W25957  41.908   3.783  11.948
64537W        W25958  33.111  19.665   2.864
64538W        W25959  10.876  41.934  14.858
64539W        W25960  14.653   7.685   1.745
64540W        W25961  27.189  12.151  14.355
64541W        W25962  29.434  11.206  14.031
64542W        W25963  21.165  16.780   3.305
64543W        W25964   1.439   1.412  12.577
64544W        W25965  38.060  25.081   3.209
64545W        W25966  17.714  24.569   2.210
64546W        W25967  28.447  28.521  13.406
64547W        W25968  22.730  39.959  11.953
64548W        W25969   2.360   3.784  10.933
64549W        W25970  42.906  27.957  14.872
64550W        W25971   1.432  15.255   2.250
64551W        W25972  29.164  41.426  12.831
64552W        W25973   8.296  16.300   4.737
64553W        W25974  14.823  12.665   1.708
64554W        W25975  34.961  38.828  10.459
64555W        W25976  35.547  11.320  13.382
64556W        W25977   7.295  24.566  12.845
64557W        W25978  35.564   2.408   1.905
64558W        W25979  36.983  24.989   3.249
64559W        W25980  18.277  31.078  13.958
64560W        W25981  38.915   4.241  10.491
64561W        W25982  39.323  13.619   2.707
64562W        W25983   2.250  19.725   4.646
64563W        W25984  34.936  22.162   4.796
64564W        W25985  34.062  13.733  11.533
64565W        W25986  36.478  22.631   1.450
64566W        W25987   3.295  39.403  14.451
64567W        W25988  43.896  44.849   0.274
64568W        W25989  30.419  27.184   2.776
64569W        W25990   5.202  15.269   3.373
64570W        W25991   3.452  36.098   4.730
64571W        W25992  13.342  38.855  14.901
64572W        W25993  17.741   0.864  14.940
64573W        W25994  36.945   0.476  12.992
64574W        W25995  37.510  14.231   1.240
64575W        W25996  27.581  19.075   0.337
64576W        W25997  20.105  12.837   2.372
64577W        W25998  13.301  31.443  14.339
64578W        W25999   1.431  43.972  14.967
64579W        W26000  34.114  42.481   0.901
64580W        W26001  15.811   3.316   4.782
64581W        W26002  16.671  22.630   2.771
64582W        W26003  37.084  10.299  11.526
64583W        W26004  23.100  32.600  13.472
64584W        W26005  38.898   6.427   0.480
64585W        W26006  29.937   6.255  14.468
64586W        W26007  37.892  36.392   1.856
64587W        W26008  17.165  37.023  10.553
64588W        W26009  23.536  26.501  11.535
64589W        W26010  21.111  40.840   5.187
64590W        W26011  35.092   0.977  11.447
64591W        W26012  10.183  37.521  14.307
64592W        W26013  20.681  29.983   2.395
64593W        W26014  28.152  34.575  13.021
64594W        W26015  29.990   5.361  12.033
64595W        W26016   1.246  21.516   2.886
64596W        W26017   6.428  39.040  14.352
64597W        W26018  31.084   7.741   2.868
64598W        W26019  39.922  14.670   0.260
64599W        W26020  34.497   5.287   1.926
64600W        W26021   8.808  41.313  13.374
64601W        W26022  42.917  27.570   1.920
64602W        W26023  18.656  38.974   1.865
64603W        W26024  42.489   6.241   2.362
64604W        W26025  18.601  25.157  12.969
64605W        W26026  18.276  41.988   4.747
64606W        W26027   0.973  16.250  12.360
64607W        W26028  39.866   2.390   1.935
64608W        W26029  41.373  27.629  13.419
64609W        W26030   8.859   9.792   1.306
64610W        W26031  10.647  13.772   2.769
64611W        W26032  28.651  23.039  14.985
64612W        W26033  38.380  27.657   4.232
64613W        W26034  25.502   4.830  10.958
64614W        W26035  23.591  13.654  12.480
64615W        W26036  11.643  18.753  11.494
64616W        W26037  39.809  21.116   2.688
64617W        W26038  29.553  14.613  14.876
64618W        W26039  26.998  35.893  11.120
64619W        W26040  31.131  12.754  11.024
64620W        W26041  31.909  20.200   1.216
64621W        W26042  19.180  34.370   2.784
64622W        W26043   1.421  44.338  10.935
64623W        W26044  34.381  37.565  13.524
64624W        W26045  43.325   8.746   3.657
64625W        W26046  10.632  37.445  14.369
64626W        W26047   2.433  22.663   2.716
64627W        W26048  34.889  35.441   1.335
64628W        W26049  12.148  38.941   1.877
64629W        W26050  42.021  28.446   2.775
64630W        W26051  36.468   7.779   3.291
64631W        W26052  15.710  36.869   4.649
64632W        W26053  30.148   7.266   2.780
64633W        W26054  17.631  42.924   0.407
64634W        W26055  23.574  32.507   3.310
64635W        W26056  37.983   7.248  12.401
64636W        W26057   9.775  23.170   1.441
64637W        W26058  10.663  14.673   1.393
64638W        W26059   2.340  32.486  13.470
64639W        W26060  19.191  18.110   2.308
64640W        W26061  27.988   3.902   1.899
64641W        W26062  20.123  18.205  11.054
64642W        W26063  36.574  25.141   2.731
64643W        W26064  31.061  13.257  10.422
64644W        W26065  30.556  16.582   1.828
64645W        W26066  18.567  27.671  14.788
64646W        W26067  39.816  39.348   3.723
64647W        W26068   5.424  39.435   2.864
64648W        W26069  37.058  22.562   3.643
64649W        W26070  15.765  10.367  12.482
64650W        W26071  43.020   9.837  11.538
64651W        W26072  35.054  13.340  11.954
64652W        W26073  28.147   5.302  11.483
64653W        W26074  39.491  37.984   3.376
64654W        W26075  25.126  19.128   4.133
64655W        W26076  28.623  25.651   0.792
64656W        W26077  40.524  22.655   0.897
64657W        W26078   2.395   7.724  14.971
64658W        W26079  39.977   2.367  11.456
64659W        W26080  19.544  44.975   2.878
64660W        W26081   2.445  27.086   4.348
64661W        W26082  32.097  34.999   2.258
64662W        W26083  40.808   9.362   1.929
64663W        W26084  32.915  31.137  14.405
64664W        W26085  22.006  41.843  11.442
64665W        W26086   6.774  17.690  11.463
64666W        W26087  39.456  42.796   0.268
64667W        W26088  40.548  26.468   3.349
64668W        W26089  44.909  19.179   1.889
64669W        W26090  21.207  41.460   2.811
64670W        W26091  34.966  30.969   1.920
64671W        W26092   4.244  23.035  14.372
64672W        W26093   3.887  11.787   1.732
64673W        W26094  37.034  38.562   1.335
64674W        W26095  11.218  21.690  14.511
64675W        W26096   3.851  12.633   3.766
64676W        W26097  23.011  19.201  12.996
64677W        W26098  22.010   6.695  11.383
64678W        W26099  26.081   9.702  12.833
64679W        W26100  25.659   0.309   2.766
64680W        W26101  27.513  17.148  13.508
64681W        W26102  29.007  11.665  13.434
64682W        W26103  41.787   4.251  13.797
64683W        W26104  40.875  20.111  13.388
64684W        W26105  24.696  22.655   2.366
64685W        W26106   5.766  24.715  12.359
64686W        W26107   8.166  26.134  13.475
64687W        W26108  28.149  35.903   3.856
64688W        W26109  21.145  41.512  12.995
64689W        W26110  18.645  31.497   4.615
64690W        W26111  18.790  39.366  13.509
64691W        W26112   9.782  24.034   0.917
64692W        W26113  36.452  34.525  11.123
64693W        W26114  31.118  14.798  10.634
64694W        W26115  26.522  19.160  12.472
64695W        W26116  25.573  35.075   5.149
64696W        W26117  16.598  13.801   0.960
64697W        W26118  18.260   9.703   2.778
64698W        W26119  42.305  36.502   2.686
64699W        W26120  16.079  37.435   2.416
64700W        W26121   3.891   1.837   4.697
64701W        W26122  34.395  39.059   4.249
64702W        W26123  22.168  32.413   3.300
64703W        W26124  43.345  26.458  12.431
64704W        W26125   5.696  38.996   4.334
64705W        W26126  25.478   3.953   3.341
64706W        W26127  37.016  30.563  14.800
64707W        W26128  24.134  24.200   4.747
64708W        W26129  15.794  43.276   3.750
64709W        W26130  28.531  40.846  13.048
64710W        W26131   9.814  20.753  13.991
64711W        W26132  29.051  13.315   2.265
64712W        W26133   1.430  12.357   3.203
64713W        W26134  13.627  39.423  10.490
64714W        W26135   6.187  26.646   4.207
64715W        W26136  24.117  14.163  11.049
64716W        W26137  15.133  10.350   2.871
64717W        W26138  20.601  37.549   0.838
64718W        W26139  41.457  41.841  14.400
64719W        W26140  39.364  18.738  14.791
64720W        W26141  17.088   9.273   0.817
64721W        W26142  10.293  19.057  14.970
64722W        W26143  25.048  10.637   3.170
64723W        W26144  40.928  21.545  13.058
64724W        W26145  35.575   1.836   5.607
64725W        W26146  37.503  21.201  12.047
64726W        W26147  33.880  40.916   1.807
64727W        W26148   2.926  23.126   2.385
64728W        W26149  10.325  36.571   1.791
64729W        W26150  18.676  35.567  12.580
64730W        W26151  32.005  30.638  11.491
64731W        W26152   8.751   5.819  12.080
64732W        W26153  13.765  19.156  14.348
64733W        W26154  30.641  11.736   1.827
64734W        W26155  40.508  35.077   2.394
64735W        W26156  13.112  43.770  13.437
64736W        W26157  30.571  30.146   1.778
64737W        W26158  32.511  19.585   3.196
64738W        W26159  30.973  19.582  10.984
64739W        W26160  24.491  15.711  12.569
64740W        W26161  26.993  30.516   3.235
64741W        W26162  32.885  18.655  13.428
64742W        W26163   9.694   5.265   3.222
64743W        W26164  22.683  34.920  11.040
64744W        W26165  18.165  23.507  14.024
64745W        W26166  37.866  14.605  14.809
64746W        W26167   1.968  30.424   2.303
64747W        W26168  20.557  36.945  11.064
64748W        W26169  31.924  42.817   3.654
64749W        W26170  15.775  26.053   2.355
64750W        W26171  42.443   1.945  14.420
64751W        W26172  34.443  13.273  11.467
64752W        W26173  27.674   2.270   0.422
64753W        W26174  32.938   5.388   9.635
64754W        W26175   8.179  14.118  13.853
64755W        W26176  16.094  37.486  10.417
64756W        W26177  37.444   8.387   2.694
64757W        W26178  15.202  35.857   1.379
64758W        W26179  12.161   5.215  10.943
64759W        W26180  44.441   4.893  12.073
64760W        W26181  12.835  39.319   0.317
64761W        W26182   3.872  38.007   2.407
64762W        W26183  18.722   0.804   4.187
64763W        W26184   2.444  13.805   0.923
64764W        W26185  39.052  12.853  11.052
64765W        W26186   6.757  43.893   4.250
64766W        W26187  42.447  26.069  13.033
64767W        W26188  32.012  15.108   2.246
64768W        W26189  43.843  25.967   2.745
64769W        W26190   3.338  32.577  10.049
64770W        W26191  43.930  22.528   1.709
64771W        W26192  36.014   4.294   0.347
64772W        W26193   2.393  27.062  13.406
64773W        W26194  41.935  41.408   1.893
64774W        W26195  43.434  37.952  13.047
64775W        W26196  15.311  39.451   3.816
64776W        W26197  23.604  26.972   3.299
64777W        W26198   9.811   3.251  14.496
64778W        W26199  25.974  10.229   3.863
64779W        W26200  14.180  24.673   2.698
64780W        W26201  19.549  31.011  12.957
64781W        W26202  38.024  29.511  12.832
64782W        W26203  29.100  42.885  11.935
64783W        W26204   5.753  10.218  11.981
64784W        W26205   4.330  24.551   0.927
64785W        W26206  33.468   6.826  13.848
64786W        W26207  35.064  33.607  12.419
64787W        W26208  38.338  40.427  13.802
64788W        W26209  21.092   8.800  14.285
64789W        W26210   9.184  32.109  14.946
64790W        W26211  24.983  37.007   1.914
64791W        W26212  38.916  42.985  13.964
64792W        W26213  44.984  16.221   2.332
64793W        W26214  23.509  28.672   3.321
64794W        W26215  12.269  30.434  12.492
64795W        W26216  20.684   3.844  14.292
64796W        W26217  42.333  39.486   1.262
64797W        W26218   4.705  29.162  10.094
64798W        W26219  37.538   7.251  14.834
64799W        W26220  19.109  21.525   0.901
64800W        W26221  16.185   7.337   4.744
64801W        W26222  13.266  27.970   2.740
64802W        W26223  28.581   0.850  13.497
64803W        W26224  13.618   0.791   1.277
64804W        W26225  34.437  39.875  12.418
64805W        W26226  26.492  29.465   4.284
64806W        W26227  13.200  14.698   2.845
64807W        W26228   6.336  13.748   0.271
64808W        W26229  38.347  31.937   3.340
64809W        W26230   1.796  33.561   2.295
64810W        W26231  17.609   5.927   0.936
64811W        W26232  42.906  28.490   1.440
64812W        W26233   0.878  36.915  14.893
64813W        W26234  36.949   4.342  12.504
64814W        W26235  41.979   7.667  13.439
64815W        W26236   9.245   2.254   3.826
64816W        W26237  34.885  29.998  14.886
64817W        W26238  25.040  14.711   0.942
64818W        W26239  34.905  43.291   3.182
64819W        W26240  25.527  18.205  11.482
64820W        W26241   0.941   2.827  11.544
64821W        W26242  12.342  23.545   3.361
64822W        W26243  32.097  31.546   0.787
64823W        W26244  26.579  18.755   4.158
64824W        W26245  28.525  24.136   1.354
64825W        W26246   0.890   5.777  13.955
64826W        W26247   4.355  10.879  14.280
64827W        W26248  14.820  11.242   4.307
64828W        W26249   7.828  21.540   2.208
64829W        W26250  11.828  27.533   4.718
64830W        W26251  37.581  24.707  13.404
64831W        W26252  39.022   5.403   0.333
64832W        W26253  13.291  18.290   2.765
64833W        W26254  11.297  35.982  10.582
64834W        W26255  35.515  21.733   3.845
64835W        W26256  26.550  22.643   3.303
64836W        W26257  25.987  42.855   2.749
64837W        W26258  11.851  32.570   0.941
64838W        W26259  15.109  33.018   0.748
64839W        W26260  36.446  19.075  14.474
64840W        W26261  44.400   3.924  13.469
64841W        W26262  22.668   0.288   0.399
64842W        W26263  10.645   4.342   2.881
64843W        W26264   6.683  14.616   2.355
64844W        W26265  38.851   2.346  14.328
64845W        W26266  43.975   2.470   2.668
64846W        W26267   4.421  44.850   1.317
64847W        W26268  20.690  14.314  10.956
64848W        W26269  12.172  41.902  11.455
64849W        W26270  33.021  27.987  14.343
64850W        W26271  19.765  44.282   4.608
64851W        W26272  36.470  14.097   0.873
64852W        W26273  13.819  19.741   4.733
64853W        W26274   9.730  15.260  13.031
64854W        W26275  25.675  35.859   0.965
64855W        W26276  29.633  27.178  14.888
64856W        W26277  19.566   1.861  14.505
64857W        W26278   1.476  38.571  14.939
64858W        W26279   0.303   3.362   3.339
64859W        W26280  21.567  34.424  12.823
64860W        W26281  12.842   4.729   3.262
64861W        W26282  22.678  15.629  12.407
64862W        W26283  23.622  37.908   3.277
64863W        W26284  20.576   3.442  12.057
64864W        W26285  41.862   0.970   3.254
64865W        W26286   1.425  11.298   2.690
64866W        W26287  39.920  14.290   2.373
64867W        W26288  38.541  37.955   2.857
64868W        W26289   4.434  16.189   0.402
64869W        W26290  19.633  22.556  13.834
64870W        W26291  40.335  42.826   1.294
64871W        W26292   7.793  11.795  11.557
64872W        W26293  15.327  32.406   2.210
64873W        W26294   0.483  41.445  12.548
64874W        W26295  14.269  37.437   2.718
64875W        W26296  42.890  27.090  12.396
64876W        W26297  33.512  35.492   0.746
64877W        W26298   4.415  32.583  14.955
64878W        W26299  25.690  33.085  14.467
64879W        W26300   2.330  31.004   1.824
64880W        W26301   8.747  25.041   3.381
64881W        W26302  10.230  26.668   2.721
64882W        W26303   7.860  36.865   0.736
64883W        W26304  39.991  32.454   1.849
64884W        W26305  44.882  42.779   4.278
64885W        W26306  25.124  14.777  14.977
64886W        W26307  26.693  32.469   0.921
64887W        W26308  20.150  44.279  14.858
64888W        W26309  29.095  26.537  11.112
64889W        W26310   9.191   4.759  13.896
64890W        W26311  24.126  35.929   3.784
64891W        W26312  10.817  42.789  13.046
64892W        W26313  16.119   0.903  12.970
64893W        W26314   7.362  25.042  10.543
64894W        W26315  18.094  28.989  11.549
64895W        W26316   3.874  29.983  11.449
64896W        W26317  40.026   4.805   1.438
64897W        W26318  31.955  23.541   3.689
64898W        W26319  37.839   4.424   1.852
64899W        W26320  25.527  32.086   0.280
64900W        W26321  14.221   5.421  14.443
64901W        W26322  11.800   0.819  14.968
64902W        W26323  41.996  34.109   0.816
64903W        W26324  32.589  44.374  11.893
64904W        W26325  19.537  32.611   3.298
64905W        W26326  42.776  42.900  14.879
64906W        W26327  33.015  29.611  10.903
64907W        W26328  33.456  33.068  13.988
64908W        W26329  36.054  24.191  11.400
64909W        W26330  39.381   5.337   3.278
64910W        W26331  33.118  10.717   2.808
64911W        W26332  26.144  44.920   1.429
64912W        W26333  31.592  16.206   0.730
64913W        W26334  19.765  18.259   4.187
64914W        W26335   3.911   9.718  14.765
64915W        W26336  43.766  30.629   1.441
64916W        W26337   3.305  37.549   2.329
64917W        W26338  10.214  30.477  12.563
64918W        W26339  34.048  43.967  14.837
64919W        W26340  41.012   2.767   2.784
64920W        W26341   8.660   3.862  11.066
64921W        W26342  29.033   4.754   0.874
64922W        W26343  35.575  23.039   3.185
64923W        W26344  33.937  29.636   4.168
64924W        W26345  29.491  42.324   1.256
64925W        W26346  27.970  10.288   9.985
64926W        W26347  34.597   1.313   3.870
64927W        W26348  40.465  19.692   0.318
64928W        W26349   6.701  19.219   4.642
64929W        W26350   1.897   3.321   0.353
64930W        W26351  44.819  34.914   1.915
64931W        W26352  23.616  38.901   1.442
64932W        W26353   8.896  10.250   4.779
64933W        W26354  17.638  11.328   1.414
64934W        W26355   5.392   5.769   4.145
64935W        W26356  14.307   0.975  11.433
64936W        W26357   7.384  17.284  10.639
64937W        W26358  20.094  30.565  13.957
64938W        W26359  37.455  26.111   2.813
64939W        W26360   8.302  39.965  12.855
64940W        W26361  43.886  20.101  13.904
64941W        W26362  39.438  24.716   1.771
64942W        W26363  32.947  28.518   1.750
64943W        W26364  38.384  37.395   3.748
64944W        W26365  14.750  32.422  12.501
64945W        W26366  36.869  10.198   1.216
64946W        W26367  20.081  13.825  11.914
64947W        W26368  24.053  16.760  10.917
64948W        W26369  33.061  19.272   2.813
64949W        W26370  23.220  22.094   4.287
64950W        W26371  39.967  14.700  13.954
64951W        W26372  32.986  15.325  12.826
64952W        W26373  13.720  31.532  12.998
64953W        W26374   5.739  24.159   4.621
64954W        W26375   0.331  24.715   1.232
64955W        W26376  21.612  35.050   0.347
64956W        W26377  22.193  44.756  13.457
64957W        W26378  40.453  19.542  10.100
64958W        W26379  14.128  13.194  13.461
64959W        W26380  39.435  12.190   3.693
64960W        W26381  26.171  18.241   1.922
64961W        W26382  18.705  14.666  12.860
64962W        W26383  19.137  36.002  11.960
64963W        W26384  16.201  22.725  11.870
64964W        W26385   2.773  25.142   0.481
64965W        W26386   6.324  31.561  12.859
64966W        W26387  11.853   2.322  11.396
64967W        W26388   0.820  16.672  14.956
64968W        W26389  11.764  12.315   4.257
64969W        W26390  19.775  42.470   4.345
64970W        W26391  25.206  25.203  12.915
64971W        W26392  31.937  16.615   2.877
64972W        W26393  36.511  42.282   4.210
64973W        W26394  33.601  34.609   2.199
64974W        W26395  25.629  21.079   2.398
64975W        W26396  22.102   0.840   3.639
64976W        W26397  37.036  31.626  13.541
64977W        W26398  28.999  29.064  14.797
64978W        W26399  11.760  23.697  13.896
64979W        W26400  32.573  37.970  11.067
64980W        W26401  13.843  14.815   0.903
64981W        W26402  15.794  36.458   3.723
64982W        W26403  14.615  14.132   0.383
64983W        W26404  31.442  38.984   0.831
64984W        W26405  36.025  40.519  14.430
64985W        W26406  10.143   1.767   0.828
64986W        W26407   1.892  36.394   4.212
64987W        W26408  41.899  12.195  13.843
64988W        W26409   0.424  17.306   0.354
64989W        W26410  20.715  29.573   4.799
64990W        W26411  27.175  16.199  14.276
64991W        W26412  43.447   1.354   1.215
64992W        W26413  33.445  37.031  14.473
64993W        W26414  10.816  22.201  10.545
64994W        W26415  18.122  24.606   4.736
64995W        W26416  33.405  10.199  12.091
64996W        W26417   4.273  10.851   0.327
64997W        W26418  15.675  13.621  10.948
64998W        W26419  37.955   7.267  14.293
64999W        W26420  13.661  21.742   3.277
65000W        W26421  19.075   7.221  14.949
65001W        W26422  13.615   5.247   3.251
65002W        W26423   5.245  20.166  10.988
65003W        W26424  30.618  13.753   2.792
65004W        W26425  42.794  24.705  13.032
65005W        W26426  17.097  32.054   1.298
65006W        W26427  26.037   4.727  13.795
65007W        W26428   5.271  29.533  14.954
65008W        W26429  23.713  44.858   2.279
65009W        W26430  42.810  41.323  10.481
65010W        W26431  17.090  19.586   3.685
65011W        W26432  25.103  42.951   3.754
65012W        W26433   7.406  42.393  10.888
65013W        W26434  11.354  32.436  13.333
65014W        W26435  43.945  29.669   3.749
65015W        W26436  13.236  17.729   1.404
65016W        W26437  26.581   8.877   3.158
65017W        W26438  24.509  41.892  10.918
65018W        W26439   7.215  28.582   4.760
65019W        W26440  13.123  10.852   0.373
65020W        W26441  18.698   3.251   3.155
65021W        W26442  42.945   6.748  13.060
65022W        W26443  36.088   5.262   3.377
65023W        W26444   5.243  40.002   0.305
65024W        W26445  10.235   0.338   4.825
65025W        W26446  35.550  43.483  14.357
65026W        W26447  27.108  36.530  10.617
65027W        W26448   4.223  41.294   2.178
65028W        W26449  44.771  39.491   2.724
65029W        W26450  25.218  43.455   3.356
65030W        W26451  33.597  44.276   4.224
65031W        W26452  31.572  40.900   2.670
65032W        W26453   8.786  35.520   4.192
65033W        W26454  32.561  36.973  12.566
65034W        W26455   7.391  29.655  12.994
65035W        W26456  41.873  11.344  12.547
65036W        W26457  18.760  17.690   0.463
65037W        W26458   1.413  31.135   3.333
65038W        W26459   8.163  10.696   1.700
65039W        W26460  44.791   7.323  13.995
65040W        W26461   3.930   4.765   2.342
65041W        W26462  32.528   6.896  11.464
65042W        W26463  39.848  21.021   5.126
65043W        W26464  25.637  31.510  10.462
65044W        W26465   5.824  20.675   2.791
65045W        W26466  27.686  21.576  10.532
65046W        W26467  14.831  41.876  11.437
65047W        W26468   2.335  28.642   4.820
65048W        W26469  34.989   8.176   0.829
65049W        W26470  23.112   2.262  12.515
65050W        W26471  32.393  31.445   2.753
65051W        W26472  18.578  22.181  11.058
65052W        W26473  18.715  28.607  10.597
65053W        W26474  23.509  33.892  14.845
65054W        W26475  20.181  34.574  14.293
65055W        W26476   4.895  23.621   3.234
65056W        W26477  42.933  22.112  14.465
65057W        W26478   6.203  13.607   3.362
65058W        W26479   6.217   9.149  11.942
65059W        W26480   9.812  19.729   4.637
65060W        W26481   3.286  26.105  13.954
65061W        W26482  42.017  12.302   1.829
65062W        W26483  38.462   2.302  13.928
65063W        W26484  15.623  31.626  13.483
65064W        W26485   1.254  24.002   0.826
65065W        W26486  40.911  23.522   2.200
65066W        W26487  16.800   6.347   0.302
65067W        W26488   2.352  24.230  10.546
65068W        W26489  13.175   5.347   4.191
65069W        W26490  27.960  40.010  11.492
65070W        W26491  36.966  35.894   1.447
65071W        W26492   4.243  18.093  14.328
65072W        W26493  26.484  25.566   0.858
65073W        W26494   2.874  33.882   1.350
65074W        W26495  28.942  10.223   0.934
65075W        W26496  12.689  20.069  11.879
65076W        W26497  13.741   8.692   4.601
65077W        W26498   6.852  10.868  12.051
65078W        W26499  42.428  19.140   0.957
65079W        W26500   1.951  13.748   1.852
65080W        W26501  40.539  40.370  11.594
65081W        W26502   8.882   6.808  10.923
65082W        W26503  41.459  41.476   0.882
65083W        W26504   2.328   4.418   1.701
65084W        W26505  31.579  24.554   2.736
65085W        W26506  17.284   2.959   1.719
65086W        W26507  34.390  31.638  10.430
65087W        W26508  39.947  14.823  13.368
65088W        W26509  26.466  38.378   3.361
65089W        W26510  26.141  29.533   4.147
65090W        W26511  14.828   7.226   5.319
65091W        W26512  44.759  17.590   2.182
65092W        W26513  35.373  10.825  10.565
65093W        W26514  13.205   3.798  13.802
65094W        W26515   2.277  18.128  11.564
65095W        W26516  19.540  33.013  10.620
65096W        W26517   9.226  32.030   1.321
65097W        W26518   9.850  22.534  14.383
65098W        W26519   5.846  16.593  10.591
65099W        W26520   0.759  30.928  14.927
65100W        W26521  37.898  28.120  12.087
65101W        W26522   7.351  23.160   3.661
65102W        W26523  42.958  14.706   4.209
65103W        W26524  44.348   0.423  10.017
65104W        W26525  28.088   0.294   1.243
65105W        W26526  24.666  29.003  14.993
65106W        W26527  20.180  19.590  10.956
65107W        W26528   0.440  28.525   4.175
65108W        W26529   4.310  40.007  12.864
65109W        W26530   4.449  22.227   2.694
65110W        W26531  22.594  36.432  14.850
65111W        W26532   8.271  16.719  11.462
65112W        W26533  31.521  25.708   4.264
65113W        W26534  29.151  42.521   3.866
65114W        W26535  39.973   4.934  10.128
65115W        W26536  36.543  16.797   2.261
65116W        W26537   5.776  34.438   4.797
65117W        W26538  31.474  43.367  10.614
65118W        W26539  22.162  31.898   3.635
65119W        W26540   2.413  14.701  14.400
65120W        W26541   5.832  30.158   4.172
65121W        W26542  43.291  19.187   1.933
65122W        W26543  40.509   5.799  11.122
65123W        W26544  12.120  31.592   4.736
65124W        W26545  43.353  44.417   2.749
65125W        W26546  34.493  22.193   0.369
65126W        W26547  20.633  23.585   0.336
65127W        W26548  28.937  13.739   0.909
65128W        W26549   9.272  15.751   3.348
65129W        W26550  29.986  20.622  14.362
65130W        W26551  38.379  35.107  11.390
65131W        W26552  14.706  18.626   3.799
65132W        W26553   1.838  28.543  13.885
65133W        W26554  40.993  14.591   0.811
65134W        W26555  35.042  27.175  13.931
65135W        W26556  29.545  24.713   2.306
65136W        W26557   4.318  27.982   0.400
65137W        W26558  13.200  16.669   1.906
65138W        W26559  28.131   0.388   0.276
65139W        W26560  12.251  16.579  14.512
65140W        W26561  42.288  12.835  13.924
65141W        W26562   2.743  44.857   3.654
65142W        W26563   7.319  10.679  14.831
65143W        W26564  25.489   1.922   3.358
65144W        W26565  20.100  19.093   1.706
65145W        W26566  21.064  11.658   0.871
65146W        W26567  27.088  24.137   2.330
65147W        W26568  42.779   0.464  14.279
65148W        W26569  25.609   4.371   0.858
65149W        W26570  35.592  42.850  13.810
65150W        W26571  26.024  37.480  10.460
65151W        W26572  22.138  14.726  11.598
65152W        W26573  10.172   5.706   3.155
65153W        W26574  38.436  39.042  11.950
65154W        W26575   3.722   0.890  12.512
65155W        W26576  35.043   8.893  12.452
65156W        W26577  31.918  33.879  14.313
65157W        W26578  12.123  36.368   0.409
65158W        W26579  33.966  42.459  13.312
65159W        W26580   0.354  32.061   0.260
65160W        W26581   5.192  22.654  11.107
65161W        W26582  24.126   3.429  14.997
65162W        W26583  11.319  33.593  11.575
65163W        W26584  36.014  42.985   4.234
65164W        W26585  13.776   1.765   2.673
65165W        W26586  33.608  42.016   0.328
65166W        W26587  17.580  37.512   4.147
65167W        W26588   2.891   2.871  14.869
65168W        W26589  37.362  14.209  13.362
65169W        W26590  32.020   5.295  11.500
65170W        W26591  32.555  20.593   4.126
65171W        W26592   5.327  38.534   0.835
65172W        W26593   7.314   7.802   3.332
65173W        W26594  21.632   9.814  13.833
65174W        W26595  27.686  33.094  12.519
65175W        W26596   9.358  42.394   0.791
65176W        W26597  38.008  11.266  14.011
65177W        W26598   2.355  20.545   2.857
65178W        W26599  29.146  28.135  11.933
65179W        W26600  26.458  23.022  10.416
65180W        W26601  41.473   3.390   0.278
65181W        W26602  13.776  35.534  14.888
65182W        W26603   1.860  41.930  13.530
65183W        W26604   5.366  44.771  14.955
65184W        W26605  12.618   6.732  14.025
65185W        W26606  34.882   3.417  14.448
65186W        W26607   8.245  28.447  13.513
65187W        W26608  27.955  38.993   0.339
65188W        W26609  13.264  14.266   3.344
65189W        W26610  37.450   0.413  13.880
65190W        W26611   5.311  22.585  14.775
65191W        W26612  20.041  13.234   0.381
65192W        W26613  32.629  22.104  13.341
65193W        W26614  31.923  18.054   3.693
65194W        W26615   4.816  15.714  13.327
65195W        W26616  43.489   7.827  10.450
65196W        W26617  21.525  38.542  13.966
65197W        W26618  44.447  28.109   0.404
65198W        W26619  44.009  34.868   3.822
65199W        W26620  21.084   8.167  14.027
65200W        W26621   7.279  11.794  13.431
65201W        W26622  18.613  44.762   4.831
65202W        W26623  14.633  34.422  13.479
65203W        W26624  25.655  33.066  11.937
65204W        W26625  16.586  23.058   0.289
65205W        W26626  17.238  37.910   0.338
65206W        W26627   3.938  23.528   2.898
65207W        W26628   1.952   3.343   4.764
65208W        W26629  31.054  30.123  11.067
65209W        W26630  44.282  12.327  12.925
65210W        W26631  15.304  42.345   2.852
65211W        W26632  44.993  43.937  14.828
65212W        W26633  12.126  39.042   3.693
65213W        W26634  36.457  16.646  12.536
65214W        W26635  18.752  10.721   1.257
65215W        W26636  34.089  27.050  14.308
65216W        W26637  25.159  36.559   0.463
65217W        W26638  13.183   6.300  13.310
65218W        W26639   4.309  44.845   2.686
65219W        W26640  19.665  28.539   0.849
65220W        W26641  22.247  26.018  14.930
65221W        W26642   4.321  38.445   3.688
65222W        W26643   5.850  19.691   4.676
65223W        W26644  25.701  27.542  14.821
65224W        W26645   9.281   4.271   2.857
65225W        W26646  25.149  23.193  11.006
65226W        W26647  40.317   2.379  13.323
65227W        W26648  42.420  44.266   2.400
65228W        W26649  11.667   4.941  11.078
65229W        W26650   8.780  37.496  13.433
65230W        W26651  30.140   7.801  12.020
65231W        W26652  10.782   1.304   3.738
65232W        W26653  41.344  31.975   0.782
65233W        W26654   6.771  16.808  12.978
65234W        W26655  34.586  12.123   4.237
65235W        W26656   1.899  15.296  12.960
65236W        W26657  36.420  36.411   0.802
65237W        W26658   9.836  21.745  12.015
65238W        W26659  12.255  19.061  13.317
65239W        W26660  25.515  37.084  12.996
65240W        W26661  43.311  22.634  14.936
65241W        W26662   1.278   2.330  14.001
65242W        W26663  16.273  16.131   5.273
65243W        W26664   9.745  29.921  14.481
65244W        W26665  20.132   7.360   2.282
65245W        W26666  28.939   1.775  10.508
65246W        W26667   3.926  21.241   3.842
65247W        W26668  39.065  41.380  12.355
65248W        W26669  43.308  14.674  10.609
65249W        W26670  26.551  39.449  11.065
65250W        W26671  38.901  39.040   0.437
65251W        W26672  31.019  17.758   0.920
65252W        W26673   7.902  19.179   2.880
65253W        W26674  23.028  23.989   1.696
65254W        W26675  27.095  36.045  13.520
65255W        W26676  41.471  39.848  11.492
65256W        W26677  20.536  31.521  10.564
65257W        W26678   9.792  40.987  10.550
65258W        W26679  20.065  11.665  14.432
65259W        W26680  18.216  19.079  11.371
65260W        W26681  44.856   6.277  14.953
65261W        W26682  10.645  38.961   4.682
65262W        W26683  14.664  18.110   4.354
65263W        W26684   3.838  26.147   5.116
65264W        W26685  15.779  21.254   1.406
65265W        W26686  30.596  44.289  11.044
65266W        W26687  19.763  44.358   1.875
65267W        W26688  23.004  39.362   0.400
65268W        W26689  26.626  27.176  13.407
65269W        W26690  11.338  27.033   4.302
65270W        W26691   7.380  36.076  11.479
65271W        W26692  24.521  16.111   3.700
65272W        W26693   8.868  39.020  12.511
65273W        W26694  15.663  29.604   2.672
65274W        W26695  30.489   8.756   2.380
65275W        W26696  19.746  44.916  10.906
65276W        W26697   0.818   4.846   3.653
65277W        W26698  34.907  19.770   3.693
65278W        W26699  33.626   6.724  12.015
65279W        W26700  34.980  11.166  10.131
65280W        W26701  37.990  29.566   0.457
65281W        W26702  42.790   6.831   0.372
65282W        W26703   3.910  34.884   2.222
65283W        W26704  38.923  38.554  11.089
65284W        W26705  14.724  17.294   4.247
65285W        W26706   2.749  44.892   9.532
65286W        W26707  24.492  35.029   4.768
65287W        W26708  34.058  17.791  11.426
65288W        W26709  15.198   9.771  13.404
65289W        W26710   3.867   2.252   3.378
65290W        W26711  31.142   7.726   4.265
65291W        W26712   9.262  15.607  10.574
65292W        W26713  26.011  17.223   3.659
65293W        W26714   5.328   1.350   1.725
65294W        W26715  11.350  30.123   0.801
65295W        W26716  22.234  24.633  12.573
65296W        W26717  42.983  25.696   3.640
65297W        W26718   1.814  24.169  13.946
65298W        W26719  23.145  41.997   3.727
65299W        W26720   4.770   2.249   0.914
65300W        W26721  14.316  20.589  11.426
65301W        W26722  39.334  43.933   1.818
65302W        W26723  11.688   5.231  11.425
65303W        W26724  24.993   9.774  14.280
65304W        W26725  29.448  13.214   2.389
65305W        W26726  44.821  39.065  11.040
65306W        W26727   0.318  13.704   2.185
65307W        W26728   0.969  28.085   4.318
65308W        W26729  26.107  41.469   1.289
65309W        W26730   1.956  43.961  11.050
65310W        W26731  35.078  17.202   2.395
65311W        W26732   6.402  23.227   4.601
65312W        W26733   8.292  12.711   1.860
65313W        W26734  20.183  27.103   1.716
65314W        W26735   7.675   8.791  11.948
65315W        W26736  16.628  13.311  12.972
65316W        W26737  14.679  28.086   3.158
65317W        W26738  29.670  18.662  12.439
65318W        W26739  42.988  40.839  11.996
65319W        W26740  17.642  15.819  12.009
65320W        W26741   2.798  20.273  13.407
65321W        W26742  31.973   2.456  12.075
65322W        W26743  23.732  21.219  11.611
65323W        W26744  31.044  34.878   4.158
65324W        W26745  29.624  40.498  14.915
65325W        W26746   9.878  21.587   1.907
65326W        W26747  32.070  18.213  12.000
65327W        W26748  38.343  40.799   4.138
65328W        W26749  25.528  16.568   3.770
65329W        W26750  39.355  32.534   4.259
65330W        W26751  10.677  24.649   3.217
65331W        W26752  36.525  44.347   0.380
65332W        W26753  30.626  14.107  10.998
65333W        W26754  39.532  16.590   1.913
65334W        W26755   4.791   8.775   3.290
65335W        W26756  31.624  24.714  14.882
65336W        W26757  26.092  28.505  13.888
65337W        W26758   8.227  37.432   4.662
65338W        W26759   9.329  27.598   1.236
65339W        W26760  16.750   8.778   0.333
65340W        W26761  36.882  24.579  11.428
65341W        W26762  27.038  33.448  10.929
65342W        W26763  31.455  35.967   3.212
65343W        W26764  42.021  23.560   2.737
65344W        W26765  17.556   3.935  14.369
65345W        W26766  10.277  11.150  13.312
65346W        W26767  29.024  33.436  10.928
65347W        W26768  24.195  11.644   3.166
65348W        W26769  26.006   8.872  12.988
65349W        W26770  20.093  38.990   4.733
65350W        W26771  26.081  13.671  14.919
65351W        W26772  32.885  30.636  11.497
65352W        W26773  15.239  40.349  11.056
65353W        W26774  22.105  30.530  14.951
65354W        W26775  16.634  12.686  12.991
65355W        W26776  33.890  33.490  12.502
65356W        W26777   7.208  12.262  14.375
65357W        W26778  44.357  20.559  12.530
65358W        W26779  29.626  12.166  12.467
65359W        W26780   4.886   5.299  12.884
65360W        W26781   4.786   7.305  13.414
65361W        W26782  17.627  17.291   3.148
65362W        W26783  22.043  39.930   3.646
65363W        W26784  23.186  32.410  12.968
65364W        W26785  38.032  27.493  12.380
65365W        W26786  24.521  28.946  13.371
65366W        W26787   9.150  23.025   2.305
65367W        W26788  11.171  16.254  11.997
65368W        W26789  16.148  30.994  14.483
65369W        W26790  34.547  28.456   1.767
65370W        W26791  21.616  26.990  14.926
65371W        W26792  28.045   5.709  12.082
65372W        W26793  37.083  24.072  13.925
65373W        W26794  20.192  36.565   1.396
65374W        W26795  19.175  10.732   0.362
65375W        W26796   2.913  40.903  14.468
65376W        W26797  42.983  26.144   1.774
65377W        W26798  19.230  29.943   4.636
65378W        W26799   4.348  36.499   0.355
65379W        W26800   1.312  18.756   2.404
65380W        W26801  30.433  15.793  13.463
65381W        W26802  40.439  20.625  14.839
65382W        W26803  27.117  23.520  10.521
65383W        W26804  17.682  27.462  11.451
65384W        W26805   9.178  27.626  14.294
65385W        W26806  14.317  22.121   1.838
65386W        W26807  41.518  43.408   1.843
65387W        W26808  10.168  29.079   2.766
65388W        W26809  27.605  42.503   2.896
65389W        W26810  17.273   0.419   0.758
65390W        W26811  27.482  22.623  12.962
65391W        W26812  20.273  40.808  11.531
65392W        W26813   3.276  36.913  10.956
65393W        W26814  13.703  16.599   2.406
65394W        W26815   8.383  12.647  14.434
65395W        W26816   5.780  39.982  13.907
65396W        W26817  32.002  35.578  11.059
65397W        W26818  17.693  42.837  12.070
65398W        W26819  31.041   4.297  13.437
65399W        W26820  36.000  23.028  14.025
65400W        W26821  39.495  21.742   3.259
65401W        W26822   1.315  26.642   0.853
65402W        W26823  29.451  20.080  14.507
65403W        W26824  20.693   5.773   5.688
65404W        W26825  37.496  15.175   1.263
65405W        W26826  24.506  43.290  13.441
65406W        W26827   6.858  34.594  11.396
65407W        W26828  29.087  32.408  12.910
65408W        W26829  41.378  28.562  12.831
65409W        W26830  30.104  13.816   3.242
65410W        W26831  15.592  40.892  14.298
65411W        W26832  42.933  11.625  13.975
65412W        W26833  30.441  17.624  13.920
65413W        W26834  15.733  14.238  13.971
65414W        W26835  36.572  12.121   1.223
65415W        W26836  41.786  36.086   4.661
65416W        W26837   6.732  34.562  14.026
65417W        W26838  39.813  13.799  11.945
65418W        W26839  17.638  11.253  14.996
65419W        W26840   3.458   1.891   1.234
65420W        W26841  14.754  32.971   1.823
65421W        W26842  18.191  42.336  11.431
65422W        W26843   5.853   3.857   2.340
65423W        W26844   2.242  28.453  13.949
65424W        W26845  12.290  33.955  14.468
65425W        W26846   7.183  40.470   0.410
65426W        W26847  33.035  28.484  10.426
65427W        W26848  30.014  29.523   0.741
65428W        W26849  39.382  25.114  11.527
65429W        W26850  23.512   7.339  13.964
65430W        W26851  31.497   7.191  14.512
65431W        W26852  28.650  35.957  12.469
65432W        W26853  26.506  13.281  10.889
65433W        W26854   5.261  40.367   4.714
65434W        W26855   3.299   8.831   0.305
65435W        W26856  20.523  35.467   3.341
65436W        W26857  26.039   4.869   1.708
65437W        W26858   6.397  14.213  12.435
65438W        W26859  29.112   0.874   2.214
65439W        W26860  26.206  26.544   1.320
65440W        W26861  24.700  36.981  14.494
65441W        W26862  42.912   3.785  10.943
65442W        W26863  14.827   3.402   9.939
65443W        W26864  40.395  36.966   2.286
65444W        W26865  18.275   7.172   1.357
65445W        W26866   8.854   5.258   3.234
65446W        W26867  34.886   5.295   2.249
65447W        W26868  23.507   6.335   0.937
65448W        W26869  33.462  33.004   1.303
65449W        W26870   9.161  16.775  13.458
65450W        W26871  36.489  39.980   0.814
65451W        W26872  41.803  14.101   0.901
65452W        W26873   8.314  40.365  10.893
65453W        W26874  24.564  24.084  12.076
65454W        W26875   3.376   0.306   0.319
65455W        W26876  41.887  27.147   0.941
65456W        W26877  39.378   2.886  10.405
65457W        W26878  42.405   0.336   2.389
65458W        W26879  26.553  42.953  14.475
65459W        W26880  24.217   0.486   3.768
65460W        W26881  31.450  43.357   0.933
65461W        W26882  35.357  30.619   0.749
65462W        W26883  19.167   6.194   1.730
65463W        W26884  44.283  28.949   1.830
65464W        W26885  44.823   6.330  10.470
65465W        W26886  12.798  10.723  11.946
65466W        W26887  34.887  13.147   4.139
65467W        W26888  10.297  31.488   2.812
65468W        W26889  13.189  28.018  11.389
65469W        W26890  36.532  29.919   2.695
65470W        W26891  10.236   8.716  14.392
65471W        W26892   4.907   7.889   3.272
65472W        W26893  27.191  41.850   2.700
65473W        W26894  39.380  39.527   3.316
65474W        W26895  38.056  16.624   3.256
65475W        W26896  37.945   4.788  11.446
65476W        W26897  33.107  29.149   0.954
65477W        W26898  35.388  40.842   2.887
65478W        W26899  42.360   7.864   3.345
65479W        W26900  36.986  17.085   0.758
65480W        W26901   5.231  14.609   3.345
65481W        W26902  10.194  24.125   0.244
65482W        W26903  28.075  20.751   0.388
65483W        W26904  32.960   6.234   1.844
65484W        W26905  33.590  34.582  11.901
65485W        W26906  41.352  24.712   3.222
65486W        W26907  23.152  33.463   3.632
65487W        W26908  10.699  16.245   3.831
65488W        W26909  32.562  30.075  12.424
65489W        W26910   8.707  31.448  12.045
65490W        W26911  29.634  33.517   1.900
65491W        W26912  30.576  18.179  12.566
65492W        W26913  27.132  42.873   4.670
65493W        W26914  28.048  31.486  14.319
65494W        W26915   9.383  27.556   0.371
65495W        W26916   4.207  21.742   2.827
65496W        W26917  37.846  17.781   0.320
65497W        W26918  24.163  22.726  14.486
65498W        W26919  18.135  20.628  12.875
65499W        W26920  16.611  27.492  14.785
65500W        W26921  21.686  36.582   4.247
65501W        W26922   0.308   7.210  13.880
65502W        W26923   8.272  39.439   3.304
65503W        W26924  39.821  38.955   3.670
65504W        W26925  32.458   6.231   1.353
65505W        W26926  31.946  18.289   3.294
65506W        W26927  32.404  17.158   3.280
65507W        W26928  34.429  40.402  12.835
65508W        W26929  31.911  41.428  12.465
65509W        W26930   3.862  36.960   3.638
65510W        W26931  37.544  40.432  11.889
65511W        W26932  28.608  33.469  14.489
65512W        W26933  16.616  30.450   0.843
65513W        W26934  27.111  38.904   0.874
65514W        W26935  40.927  18.054  11.591
65515W        W26936   8.793  20.101  13.439
65516W        W26937  23.197  20.212   3.634
65517W        W26938  43.357   6.690  10.466
65518W        W26939  15.696  10.735  14.780
65519W        W26940  34.923   2.858  14.768
65520W        W26941  19.762  14.780  10.575
65521W        W26942  37.416  14.282   4.720
65522W        W26943  34.379  29.142  10.544
65523W        W26944  17.768  33.612   1.393
65524W        W26945  35.437  19.684   2.273
65525W        W26946  43.442  17.259   2.705
65526W        W26947  31.560   2.758   3.381
65527W        W26948  36.532   7.706  14.472
65528W        W26949  25.185  28.628   3.751
65529W        W26950  33.893  11.146  12.390
65530W        W26951  11.196  38.523  14.904
65531W        W26952  22.995  43.013  11.600
65532W        W26953   7.772  42.994   0.248
65533W        W26954  14.662  18.616  10.998
65534W        W26955  37.873   2.751   4.665
65535W        W26956  15.670   6.677   3.174
65536W        W26957  17.581  23.571  13.544
65537W        W26958  28.538  42.965   2.725
65538W        W26959  23.705   1.368   4.321
65539W        W26960  28.592  21.646   1.284
65540W        W26961  26.600  41.341  14.880
65541W        W26962  26.703  10.833  11.431
65542W        W26963   9.158  39.816   2.196
65543W        W26964  12.710  38.984  12.000
65544W        W26965   2.837  33.029  12.444
65545W        W26966  14.118  26.635   3.222
65546W        W26967  29.037   5.394  13.330
65547W        W26968   8.274  23.600   1.700
65548W        W26969  31.504  44.782   0.366
65549W        W26970   6.182  33.497   2.719
65550W        W26971  31.981  44.357   1.779
65551W        W26972  37.985  15.201  14.418
65552W        W26973  19.156   9.798   4.194
65553W        W26974  38.900  44.322   5.245
65554W        W26975  24.586  26.486   1.346
65555W        W26976  18.555  36.074  13.535
65556W        W26977  23.184  22.115  12.443
65557W        W26978  12.270   6.216   1.883
65558W        W26979  44.948  23.685  12.541
65559W        W26980   5.227  20.739  14.994
65560W        W26981  16.707  44.496  13.475
65561W        W26982  41.904  15.813  12.999
65562W        W26983   5.273  43.021  10.030
65563W        W26984  11.220  11.731   4.701
65564W        W26985  42.927  19.664  13.915
65565W        W26986  43.779  22.219  11.985
65566W        W26987   1.976  42.488   1.359
65567W        W26988  38.058  14.673  11.513
65568W        W26989  26.125  24.106   1.834
65569W        W26990  26.624  26.647   1.780
65570W        W26991   3.830   4.257  13.512
65571W        W26992  28.671  25.667  10.982
65572W        W26993  30.152   9.329   0.280
65573W        W26994  31.526  28.558  10.620
65574W        W26995  11.346   0.952  13.454
65575W        W26996  28.017  23.670   4.640
65576W        W26997   0.334  14.316   4.158
65577W        W26998  34.553  12.776   3.860
65578W        W26999  23.713   0.358  14.286
65579W        W27000  10.257  17.761   2.187
65580W        W27001  44.911  26.508   4.622
65581W        W27002  29.090  18.095  14.882
65582W        W27003  33.591  34.970  14.812
65583W        W27004  17.283   6.852   4.752
65584W        W27005  20.138  27.468   1.726
65585W        W27006  42.294  29.599   4.770
65586W        W27007  32.407  11.633   3.307
65587W        W27008   2.469   3.925  13.826
65588W        W27009  20.046  31.410  12.076
65589W        W27010  43.270  17.671  12.428
65590W        W27011  34.433  39.373   0.473
65591W        W27012   5.899  33.102  13.431
65592W        W27013   1.911   3.875   3.781
65593W        W27014   6.767  21.516  10.936
65594W        W27015   3.333  26.122  11.513
65595W        W27016   0.900  44.957  10.460
65596W        W27017  25.145  37.359   3.217
65597W        W27018  40.964  35.395   4.327
65598W        W27019  23.691   1.937   0.895
65599W        W27020  40.398  34.080   4.742
65600W        W27021  16.786  19.190  13.951
65601W        W27022   8.291  34.519   3.172
65602W        W27023  21.257  37.576  12.537
65603W        W27024  23.027  20.693  12.501
65604W        W27025  10.806  21.553   1.790
65605W        W27026  30.488  40.806  12.838
65606W        W27027  43.016  42.431  12.940
65607W        W27028  30.625  17.067  13.791
65608W        W27029   9.807  39.443  12.058
65609W        W27030  30.414  44.452   3.778
65610W        W27031  17.104  39.503   0.248
65611W        W27032  34.924  10.351   3.659
65612W        W27033  33.011  34.898  10.437
65613W        W27034  44.879   7.709  10.505
65614W        W27035  10.348   0.441  14.946
65615W        W27036   5.802  18.077   4.150
65616W        W27037  24.536   6.375  13.426
65617W        W27038  24.157  27.512   1.264
65618W        W27039  36.547  40.501   9.976
65619W        W27040  19.217  28.017   0.889
65620W        W27041  16.098   1.966   2.211
65621W        W27042  13.843  44.262  12.484
65622W        W27043  27.028  24.227   3.667
65623W        W27044  20.766   4.405   2.350
65624W        W27045  17.567  27.541  11.128
65625W        W27046  10.760  30.485   0.267
65626W        W27047  13.234  32.549  11.923
65627W        W27048  44.292  43.299  13.794
65628W        W27049  43.818  38.905   0.392
65629W        W27050  34.585  40.044  12.978
65630W        W27051  35.411  13.265   4.678
65631W        W27052  34.008  17.270   1.270
65632W        W27053  35.927   1.878   1.275
65633W        W27054  43.334   0.254  11.898
65634W        W27055  43.933  41.295   3.795
65635W        W27056   4.910   9.267  11.380
65636W        W27057  21.577   4.943   3.733
65637W        W27058  29.100  12.795   9.598
65638W        W27059   2.850  44.414  13.393
65639W        W27060   8.885  32.032   1.236
65640W        W27061  28.031  15.224  11.910
65641W        W27062  25.996   8.761  10.902
65642W        W27063   8.298  26.135  11.589
65643W        W27064  17.796  29.624  12.851
65644W        W27065  35.489  23.661   1.351
65645W        W27066  18.168  25.045   4.158
65646W        W27067  15.613  27.997  14.999
65647W        W27068   2.833  30.085  14.431
65648W        W27069   1.872  25.014  11.600
65649W        W27070  16.208  13.275  14.426
65650W        W27071  33.562  42.318   4.328
65651W        W27072  17.637  26.148   4.730
65652W        W27073  24.646   6.204  14.929
65653W        W27074  43.418  19.565   3.738
65654W        W27075  11.752   6.279  13.979
65655W        W27076  15.752   9.229   4.314
65656W        W27077  16.183  42.018   2.204
65657W        W27078   7.696  41.866   5.237
65658W        W27079  25.524  26.541  13.513
65659W        W27080  26.165  24.118   0.428
65660W        W27081  31.102  23.133  11.118
65661W        W27082  15.753  19.662   0.840
65662W        W27083   2.797   7.718  12.971
65663W        W27084  14.141   1.881   9.958
65664W        W27085   2.262   5.824  12.092
65665W        W27086   4.855  15.324  12.498
65666W        W27087   0.362  13.646  14.376
65667W        W27088  31.000  32.439  13.459
65668W        W27089  36.911  15.760  12.950
65669W        W27090  41.338   2.967  11.932
65670W        W27091  28.667  14.770   4.610
65671W        W27092  40.360  34.500   0.758
65672W        W27093  29.956  10.282   5.710
65673W        W27094  12.665   6.255   0.822
65674W        W27095   8.796   1.886   2.868
65675W        W27096  27.094  36.562  13.017
65676W        W27097   9.785  19.693  13.939
65677W        W27098  28.663  15.305   0.345
65678W        W27099  35.069  39.410   3.311
65679W        W27100   7.802  29.489   2.783
65680W        W27101  28.667   7.823   4.244
65681W        W27102   2.890   7.403  11.612
65682W        W27103  39.465  33.502  13.975
65683W        W27104   1.872  24.610   1.305
65684W        W27105   7.403   9.267   1.334
65685W        W27106   7.282  40.863   2.235
65686W        W27107  41.037  20.236  10.575
65687W        W27108   0.968  39.010   3.223
65688W        W27109  15.303  43.396   2.394
65689W        W27110  23.489  34.028  14.456
65690W        W27111  11.297  18.623  10.589
65691W        W27112  18.674  13.205   4.169
65692W        W27113  44.847  25.663   4.244
65693W        W27114   6.389  17.725  14.874
65694W        W27115  19.642  11.229  11.885
65695W        W27116  26.635  30.550  10.998
65696W        W27117  35.093  36.464   0.321
65697W        W27118  36.881   7.742   1.817
65698W        W27119  34.889  21.634   4.179
65699W        W27120  41.863  27.499   1.324
65700W        W27121   1.483  22.028  14.883
65701W        W27122  19.579  43.487  10.966
65702W        W27123  17.284   9.694   4.640
65703W        W27124  26.558  20.265  12.030
65704W        W27125  29.503  36.944   3.152
65705W        W27126   1.341  17.692   0.368
65706W        W27127  43.445  41.975   0.377
65707W        W27128  38.565  21.693   0.916
65708W        W27129  19.055  39.941   0.888
65709W        W27130   1.360  44.844   2.839
65710W        W27131  32.943   1.303   1.766
65711W        W27132  29.546  24.040  13.318
65712W        W27133   3.271  30.636   5.312
65713W        W27134  30.523  30.987   3.167
65714W        W27135  38.929  22.685  10.954
65715W        W27136  44.887  17.579  10.421
65716W        W27137  29.547  39.986   2.250
65717W        W27138  19.564   6.406  14.462
65718W        W27139  37.061  12.739  11.458
65719W        W27140  17.084  22.737  10.890
65720W        W27141  32.933  19.258  11.380
65721W        W27142  29.118  23.230  11.038
65722W        W27143  24.590  13.729  12.563
65723W        W27144  27.959   7.384   2.186
65724W        W27145  38.342  17.755  13.806
65725W        W27146  24.981  18.292  14.766
65726W        W27147   8.309  41.300  10.043
65727W        W27148  13.740  11.728  10.942
65728W        W27149  28.078  30.495  11.871
65729W        W27150  27.514  16.727  14.851
65730W        W27151  41.979  38.000   3.793
65731W        W27152   3.414  11.189   0.294
65732W        W27153  20.628  43.416   4.295
65733W        W27154  13.791   4.401   1.699
65734W        W27155  31.912  19.268  13.522
65735W        W27156  24.058  33.930  12.049
65736W        W27157  31.601  28.065   3.789
65737W        W27158  40.392   1.300   0.773
65738W        W27159  36.891  32.073   3.277
65739W        W27160  20.553  25.003  10.969
65740W        W27161  40.322   9.738   4.643
65741W        W27162  17.256   8.246  13.430
65742W        W27163  32.390  30.472  14.398
65743W        W27164  29.499   0.839   2.787
65744W        W27165  35.415  20.066   3.788
65745W        W27166  24.065  27.050  11.986
65746W        W27167  14.658  42.322   0.813
65747W        W27168  24.161  20.753  12.360
65748W        W27169  22.660  12.202   0.940
65749W        W27170  25.052  13.845   3.831
65750W        W27171  29.650   9.187  12.490
65751W        W27172  28.570  33.601   3.795
65752W        W27173   5.713  25.029  13.519
65753W        W27174   3.291   9.706  13.910
65754W        W27175  36.422  30.057  14.512
65755W        W27176  44.969  40.012   1.886
65756W        W27177  21.652  12.653   4.162
65757W        W27178  43.507  44.265   1.868
65758W        W27179  23.620  31.427  13.912
65759W        W27180  10.743  14.120   3.227
65760W        W27181  20.053  28.594  10.554
65761W        W27182  38.989  36.518   1.876
65762W        W27183   3.927  41.041   0.274
65763W        W27184  27.522  23.612  13.013
65764W        W27185  40.049   5.312   0.924
65765W        W27186   1.327   2.400   0.300
65766W        W27187  19.756  35.985  14.819
65767W        W27188   7.706   1.785   0.788
65768W        W27189  15.705   6.345   3.863
65769W        W27190  40.852  38.570  14.851
65770W        W27191  43.878  15.739   4.691
65771W        W27192  16.718   8.284  14.371
65772W        W27193  34.047  40.372   4.165
65773W        W27194   7.693  10.355  11.481
65774W        W27195  18.129  26.561  12.362
65775W        W27196   3.926   3.336  13.421
65776W        W27197  20.226  35.859  11.943
65777W        W27198  27.940  27.670   2.763
65778W        W27199  35.054  37.933   4.792
65779W        W27200  23.684  26.199  12.007
65780W        W27201  31.622   5.422   3.637
65781W        W27202  33.532  17.783   0.800
65782W        W27203   9.346  14.201   3.801
65783W        W27204  27.463   0.340   3.323
65784W        W27205   7.859   5.890   3.304
65785W        W27206  35.921  44.414  11.379
65786W        W27207  35.442  36.912   3.796
65787W        W27208  21.070   4.378   4.116
65788W        W27209  34.106  41.298  14.954
65789W        W27210  40.046   5.867   0.839
65790W        W27211  43.343  44.777   1.836
65791W        W27212  38.330  32.430   3.240
65792W        W27213  44.806  39.383  14.921
65793W        W27214   1.375  16.647  12.341
65794W        W27215  35.990  30.536   2.379
65795W        W27216   4.722  38.829  12.430
65796W        W27217   3.409  11.850  14.289
65797W        W27218  42.987   6.881   4.611
65798W        W27219  24.595  13.775   0.247
65799W        W27220  28.048  29.021  11.074
65800W        W27221   0.778  11.763  14.911
65801W        W27222   2.818  35.511   0.408
65802W        W27223  27.119  19.576   3.820
65803W        W27224  18.737  23.531  11.409
65804W        W27225  32.578   3.288   2.346
65805W        W27226   7.850  14.744  11.908
65806W        W27227  30.647  39.914   1.316
65807W        W27228   0.751  20.692   4.175
65808W        W27229  37.510  41.405   3.225
65809W        W27230  12.820  44.442  12.926
65810W        W27231  42.844  27.669  11.973
65811W        W27232  27.626  41.899  11.465
65812W        W27233  40.378  19.111   1.827
65813W        W27234   7.777  25.520  14.891
65814W        W27235   7.695  44.939  12.534
65815W        W27236  41.996  27.617   4.122
65816W        W27237  37.864  38.327  12.844
65817W        W27238  34.027  15.230   4.672
65818W        W27239  35.530   2.722  13.058
65819W        W27240  20.188  32.400  10.913
65820W        W27241  32.135  13.784   0.365
65821W        W27242  39.344  43.012  14.865
65822W        W27243  36.945  29.087  13.480
65823W        W27244  37.455  34.004  12.348
65824W        W27245  44.443  11.704   5.148
65825W        W27246  21.718  17.758  10.897
65826W        W27247  29.466  40.528   4.777
65827W        W27248  42.031  33.559  11.012
65828W        W27249  38.884  14.659  14.494
65829W        W27250  13.194  42.889  11.022
65830W        W27251  30.545  31.527   3.327
65831W        W27252  32.889   2.909  13.950
65832W        W27253  22.589  43.367  13.957
65833W        W27254  14.326   5.726  12.062
65834W        W27255  28.527  25.528   0.266
65835W        W27256   1.878  34.382  10.499
65836W        W27257   5.425  35.558  12.861
65837W        W27258   2.812  20.143   4.687
65838W        W27259  11.793  33.104  14.860
65839W        W27260  29.651  36.491  14.981
65840W        W27261  32.890  36.431  11.601
65841W        W27262  34.071  26.207   2.697
65842W        W27263  27.611   1.904   4.120
65843W        W27264  42.313  21.075  11.411
65844W        W27265  42.359   6.276   3.310
65845W        W27266   7.360  15.119   2.730
65846W        W27267  26.468  18.742  11.460
65847W        W27268  22.203  19.121  10.953
65848W        W27269  16.255   9.670   0.894
65849W        W27270  37.888  42.927   2.316
65850W        W27271  38.863   0.902   0.479
65851W        W27272  16.725  29.995   5.228
65852W        W27273   4.750  39.886  10.949
65853W        W27274  12.177  10.654  13.899
65854W        W27275  26.099  13.764   4.734
65855W        W27276   7.236  16.716  12.418
65856W        W27277  37.052  31.460  10.932
65857W        W27278   9.215  25.995  11.589
65858W        W27279  38.917  25.119  12.400
65859W        W27280  20.554  36.028  11.897
65860W        W27281  24.658  30.935  11.447
65861W        W27282   9.345   3.215  14.287
65862W        W27283  10.312  21.176   3.730
65863W        W27284  40.346   0.256  10.945
65864W        W27285  22.171  13.635   5.307
65865W        W27286  10.797  33.878  11.970
65866W        W27287   5.924  43.318   4.341
65867W        W27288  13.706  39.366  13.800
65868W        W27289  10.153   1.441  10.442
65869W        W27290  43.798  24.624  14.489
65870W        W27291  10.746  16.162  11.041
65871W        W27292  12.352  13.125  13.967
65872W        W27293  38.337  12.811  14.869
65873W        W27294  27.008   6.228  14.491
65874W        W27295  13.764  34.996  14.844
65875W        W27296  36.873  19.235  11.465
65876W        W27297  24.220  17.206   5.295
65877W        W27298  24.185  41.478  11.504
65878W        W27299  28.061   5.709  14.429
65879W        W27300  42.411  15.083  10.467
65880W        W27301   7.753  41.337  13.442
65881W        W27302  10.756   4.318  10.430
65882W        W27303  13.719  17.701  12.010
65883W        W27304  44.333  41.801  13.819
65884W        W27305  23.131  24.690   0.877
65885W        W27306   9.792   7.793  11.892
65886W        W27307  22.676  37.458  14.480
65887W        W27308   7.378  44.832  11.054
65888W        W27309  15.763  29.167  11.003
65889W        W27310   0.414  16.624  14.859
65890W        W27311  29.148   7.776   3.373
65891W        W27312  35.104  20.224   0.262
65892W        W27313  11.656   8.860   3.749
65893W        W27314  30.045   5.217   2.695
65894W        W27315   8.371  25.630  11.430
65895W        W27316   1.366  24.704   4.635
65896W        W27317   2.758  28.562   1.870
65897W        W27318  44.937  18.230  13.353
65898W        W27319  12.279  27.662   1.702
65899W        W27320   1.904   7.226  11.552
65900W        W27321  24.615  21.665  11.123
65901W        W27322   1.472  10.794   2.383
65902W        W27323  15.123  39.550  11.594
65903W        W27324  21.142  36.083   4.141
65904W        W27325  37.397  44.802   3.205
65905W        W27326  11.357  24.613   0.902
65906W        W27327  37.997  32.112   0.435
65907W        W27328  23.116  34.013  11.488
65908W        W27329  39.825  27.976   3.258
65909W        W27330   8.356  29.647   2.229
65910W        W27331  35.439   5.713   9.607
65911W        W27332  26.505  43.387   4.241
65912W        W27333   2.340  41.471   0.745
65913W        W27334   5.933  13.811  13.525
65914W        W27335  44.883  26.507  13.812
65915W        W27336  40.361  32.477  13.429
65916W        W27337   6.741  14.304   0.896
65917W        W27338  31.409   2.437   5.776
65918W        W27339  11.371  31.988   1.769
65919W        W27340  44.483  15.137   0.339
65920W        W27341  23.213   3.899   2.814
65921W        W27342  39.337   5.262   4.342
65922W        W27343   5.217  32.110  10.600
65923W        W27344   0.394  31.050  12.563
65924W        W27345  19.251  11.281  14.397
65925W        W27346  36.451  41.334  14.343
65926W        W27347  26.698   8.843  12.093
65927W        W27348  11.243   9.703   2.255
65928W        W27349   9.167  10.701   1.873
65929W        W27350  21.706  13.743  10.555
65930W        W27351  36.464   9.163  10.431
65931W        W27352   4.822  44.915  12.392
65932W        W27353   8.803  20.163   2.707
65933W        W27354  41.794  10.707   4.132
65934W        W27355  32.600  25.983   1.240
65935W        W27356  25.602  13.667  14.332
65936W        W27357  20.097  41.857  10.537
65937W        W27358  42.848  44.313   3.694
65938W        W27359  13.801  30.122   1.240
65939W        W27360  20.224  26.056  12.408
65940W        W27361  37.562  42.927   9.944
65941W        W27362  19.132  14.112   0.806
65942W        W27363  24.092  33.617   1.860
65943W        W27364  14.273  40.335   5.313
65944W        W27365  37.899  33.419   1.893
65945W        W27366  32.942  11.787   2.272
65946W        W27367  11.138  16.676   2.767
65947W        W27368  12.265  33.099  10.059
65948W        W27369   0.489  29.611   0.734
65949W        W27370  14.239  27.112  12.485
65950W        W27371  24.181   0.750  12.552
65951W        W27372  30.587  28.649  14.453
65952W        W27373  38.940  44.957  11.080
65953W        W27374  32.585  24.723   2.336
65954W        W27375  38.841   8.696   4.660
65955W        W27376  32.005  33.068   3.299
65956W        W27377   5.416  41.035   0.856
65957W        W27378  12.680  33.615  10.957
65958W        W27379  34.444  31.504   1.785
65959W        W27380  39.540  13.275  12.340
65960W        W27381  39.993  39.429  13.313
65961W        W27382  35.502  31.424   3.652
65962W        W27383  25.989   6.232   1.884
65963W        W27384  24.605  30.078  12.848
65964W        W27385  41.413  32.407   4.694
65965W        W27386  11.336  36.066  12.897
65966W        W27387   3.843   8.718  10.991
65967W        W27388  22.107  39.436   1.745
65968W        W27389  34.885  12.128   3.288
65969W        W27390  23.213  19.610  12.043
65970W        W27391  35.020   5.429  13.936
65971W        W27392   4.871  18.132   2.192
65972W        W27393  37.433   6.738  12.930
65973W        W27394  34.591  36.463  14.865
65974W        W27395  14.616  30.933   3.343
65975W        W27396  44.409   2.472  13.961
65976W        W27397  43.515  25.714  11.457
65977W        W27398  24.568  35.879   2.666
65978W        W27399  18.689   1.738   3.245
65979W        W27400   2.958   8.163   2.746
65980W        W27401  11.678  43.935  14.978
65981W        W27402  29.668  39.545  13.344
65982W        W27403  10.365  26.480   2.268
65983W        W27404   3.789  17.673  14.847
65984W        W27405  20.632  28.000   1.802
65985W        W27406  42.952  36.424  13.832
65986W        W27407   3.816  33.517  12.535
65987W        W27408  25.173  44.934  12.348
65988W        W27409   3.786  41.808   0.412
65989W        W27410  26.960  26.558   2.702
65990W        W27411  20.645   1.384  14.386
65991W        W27412  13.195  10.806  10.564
65992W        W27413  36.002  43.309   2.419
65993W        W27414   5.821  27.610   0.917
65994W        W27415  22.710  12.731   2.742
65995W        W27416  37.923  32.531   2.690
65996W        W27417  18.230  25.036  13.923
65997W        W27418  24.981  11.145   0.298
65998W        W27419  12.355  35.365   4.605
65999W        W27420  10.156  16.272   2.279
66000W        W27421  12.186  12.180   3.681
66001W        W27422  44.794  30.982  14.882
66002W        W27423   7.286  19.756  11.885
66003W        W27424  31.140   3.901  12.374
66004W        W27425  28.012  39.982   4.280
66005W        W27426  29.433   3.855   4.238
66006W        W27427  38.955  38.526  11.400
66007W        W27428  17.202   7.877  14.361
66008W        W27429   0.302  36.094  10.643
66009W        W27430  38.510  20.247  13.378
66010W        W27431  32.571  35.109  10.556
66011W        W27432   4.844   5.262  13.348
66012W        W27433  12.735  35.420   0.387
66013W        W27434  37.534  15.154   2.818
66014W        W27435   6.686  34.436  14.301
66015W        W27436  39.552   0.252  13.811
66016W        W27437  43.892  23.645   3.296
66017W        W27438   6.319  32.917  10.581
66018W        W27439   0.759  11.750   0.759
66019W        W27440   4.284  35.424   4.341
66020W        W27441  33.118   3.838   9.931
66021W        W27442  38.349  13.211   0.895
66022W        W27443  38.938  20.038  11.491
66023W        W27444  38.066  24.566   2.887
66024W        W27445   6.829  42.944  12.356
66025W        W27446  17.716  36.001  10.917
66026W        W27447  28.451  32.986  10.942
66027W        W27448  25.492  18.133   1.857
66028W        W27449  37.525  39.388   3.203
66029W        W27450   1.831   1.342   2.899
66030W        W27451  10.242  28.524  14.431
66031W        W27452   9.158  26.658  10.036
66032W        W27453  20.550  41.911   0.275
66033W        W27454  24.215   0.351  14.478
66034W        W27455  13.296   7.269   4.180
66035W        W27456  10.816  13.143  14.879
66036W        W27457  17.241  39.453   2.793
66037W        W27458  26.690  43.787   2.816
66038W        W27459  15.707  27.518  13.408
66039W        W27460  32.637  29.627  12.846
66040W        W27461   1.976   3.386   4.209
66041W        W27462  44.006   6.424   3.304
66042W        W27463   1.364   6.691   3.684
66043W        W27464   5.296   1.377  14.974
66044W        W27465  30.486  13.780  13.395
66045W        W27466  19.107  25.697   0.731
66046W        W27467   9.283   1.254   4.318
66047W        W27468  43.957   7.771  13.019
66048W        W27469  29.021   1.372  12.836
66049W        W27470   0.966  33.434   4.346
66050W        W27471   6.240  27.020   2.278
66051W        W27472  27.564   0.384  12.874
66052W        W27473  42.447   5.409   4.685
66053W        W27474  37.996  41.813  12.963
66054W        W27475  31.408  19.243   2.662
66055W        W27476  36.505  32.597   4.833
66056W        W27477   1.878   9.737  13.450
66057W        W27478  42.843  40.033  12.380
66058W        W27479  34.469   6.319   0.734
66059W        W27480  19.258  34.426   3.318
66060W        W27481  41.305   1.886   4.176
66061W        W27482  19.188  16.316  10.510
66062W        W27483  39.042  36.918  11.877
66063W        W27484   1.914  40.018   3.193
66064W        W27485  22.118   3.349   0.843
66065W        W27486  23.568  30.656   1.429
66066W        W27487  30.030  42.791   0.728
66067W        W27488   9.811  35.419   0.899
66068W        W27489  17.306  41.859  12.851
66069W        W27490  30.576   7.364  11.440
66070W        W27491  37.947   4.850   0.321
66071W        W27492   6.775  44.821   2.204
66072W        W27493  27.122  15.722  12.917
66073W        W27494  44.774  27.637  14.913
66074W        W27495   7.290  33.061  14.328
66075W        W27496   8.683  26.575  14.844
66076W        W27497  27.001  17.166   1.254
66077W        W27498  40.360  24.517   3.858
66078W        W27499  11.654  39.885   4.148
66079W        W27500  36.023  41.815   1.272
66080W        W27501  39.810  12.632   9.502
66081W        W27502  34.379  39.402   4.621
66082W        W27503  18.557  17.233  14.983
66083W        W27504  38.535  29.591  12.964
66084W        W27505  26.068  41.486  11.469
66085W        W27506  15.795  36.079  11.954
66086W        W27507  19.069  44.331   0.858
66087W        W27508   2.901   8.885   4.710
66088W        W27509  42.033  27.590   0.433
66089W        W27510  20.587  26.046  13.062
66090W        W27511  22.122  37.020   1.912
66091W        W27512  30.491  24.978   2.247
66092W        W27513  28.650  26.046   0.966
66093W        W27514  36.931  12.353   4.694
66094W        W27515  30.601  36.545  14.924
66095W        W27516   2.942   0.939   3.278
66096W        W27517   6.786   9.667  13.328
66097W        W27518  37.085  12.635   0.294
66098W        W27519   8.786  40.520  12.481
66099W        W27520  10.238  34.587   5.153
66100W        W27521   5.738   1.387   0.247
66101W        W27522  26.051  14.274  12.055
66102W        W27523  24.649  18.559  11.506
66103W        W27524  14.117  34.949   2.838
66104W        W27525  23.689  41.425  12.882
66105W        W27526  44.365  38.478   2.283
66106W        W27527   2.811  37.440  14.427
66107W        W27528  12.255  13.645  14.994
66108W        W27529  35.966   0.852   1.928
66109W        W27530  43.288  31.080  14.288
66110W        W27531  20.194  44.494   4.305
66111W        W27532  31.915   6.736  10.595
66112W        W27533  10.349  38.499  14.763
66113W        W27534   4.801   2.368  11.589
66114W        W27535  43.974  16.225  13.997
66115W        W27536  14.594  22.689  12.440
66116W        W27537  30.052  21.146   5.261
66117W        W27538  27.961  33.112   0.399
66118W        W27539  12.138  43.945   3.340
66119W        W27540  41.956   1.934  13.872
66120W        W27541  26.097  40.427  10.484
66121W        W27542  19.581  40.346  11.583
66122W        W27543  24.538   3.404   1.736
66123W        W27544   8.855  16.131  12.899
66124W        W27545  21.572  44.963   0.420
66125W        W27546  30.550  25.473  11.398
66126W        W27547  27.136  42.526   1.319
66127W        W27548  28.644  26.160  12.852
66128W        W27549  44.383  42.378   2.754
66129W        W27550  25.595  41.958   2.193
66130W        W27551   9.739  20.257   0.274
66131W        W27552  21.556  27.665   4.181
66132W        W27553  23.687  21.078   3.664
66133W        W27554   2.420  10.857  14.329
66134W        W27555   8.803  19.636  14.009
66135W        W27556  23.497  19.566  10.513
66136W        W27557  29.018  14.686   2.330
66137W        W27558  30.018   1.239  14.464
66138W        W27559  31.584  17.157  13.355
66139W        W27560   7.297  15.327   4.766
66140W        W27561  22.699  27.680  10.146
66141W        W27562   1.405   7.336  12.979
66142W        W27563  29.557  19.222   4.647
66143W        W27564  26.562  22.158  12.353
66144W        W27565  25.117  26.596  11.856
66145W        W27566  34.455   0.910   2.878
66146W        W27567  41.511  36.579   4.638
66147W        W27568  20.063  10.257  12.455
66148W        W27569   5.378  14.146   3.148
66149W        W27570  17.265   0.888   1.450
66150W        W27571  36.956  33.928  13.447
66151W        W27572  31.528  37.906  13.411
66152W        W27573  23.026  17.731   0.891
66153W        W27574  33.465   2.272  12.041
66154W        W27575  39.971  40.877  11.875
66155W        W27576  20.732  30.534  11.890
66156W        W27577   8.829   2.722   2.893
66157W        W27578   2.447  37.849   1.919
66158W        W27579   6.239   1.354   1.812
66159W        W27580  26.523   7.341   1.246
66160W        W27581   5.240  35.870  10.966
66161W        W27582  26.662   2.838  12.482
66162W        W27583  30.475  17.720   3.159
66163W        W27584  19.098   5.830   3.864
66164W        W27585   1.359  12.836   4.628
66165W        W27586   7.670  14.239  13.907
66166W        W27587  27.021  30.448   4.232
66167W        W27588   2.958  25.192   0.947
66168W        W27589  33.036  15.288   3.289
66169W        W27590  38.931   3.444   4.355
66170W        W27591  18.130   4.242   0.301
66171W        W27592  14.246  28.962   3.318
66172W        W27593   7.411  20.528   3.334
66173W        W27594  24.060  28.591   1.794
66174W        W27595  41.956  29.579   0.333
66175W        W27596   0.452  30.148  14.875
66176W        W27597  38.508  35.853  10.463
66177W        W27598   3.401  24.496   3.168
66178W        W27599  20.754   8.783  12.082
66179W        W27600  40.879   3.912   2.800
66180W        W27601   9.365  25.184   3.702
66181W        W27602  42.512  39.857   0.455
66182W        W27603  41.525  43.962   4.786
66183W        W27604   7.379  21.237   2.294
66184W        W27605   0.456   7.397   2.809
66185W        W27606  40.950  18.619   1.296
66186W        W27607  20.710   5.409  10.156
66187W        W27608  25.537  29.964  13.477
66188W        W27609  27.077  34.454  14.324
66189W        W27610   1.408  33.505  10.492
66190W        W27611  24.660  11.738   1.739
66191W        W27612  18.600  23.239   4.149
66192W        W27613  44.427  22.668   4.181
66193W        W27614  26.155  35.904  10.456
66194W        W27615   1.938  42.520   3.266
66195W        W27616  36.067  38.350   1.727
66196W        W27617  40.305  31.004  10.932
66197W        W27618   5.209  20.103   4.655
66198W        W27619   5.890  37.382   0.432
66199W        W27620  19.134  17.225   2.835
66200W        W27621  30.524   1.420  13.401
66201W        W27622  30.433  21.617  14.306
66202W        W27623  35.385  39.507   3.754
66203W        W27624  31.613  37.949   2.791
66204W        W27625   0.829  16.620  14.330
66205W        W27626  35.011  36.402  11.025
66206W        W27627  12.819  12.337  13.851
66207W        W27628  13.787  23.086  12.381
66208W        W27629  28.103  21.647   1.848
66209W        W27630  19.691   5.348  12.034
66210W        W27631  39.021  34.010  11.080
66211W        W27632  22.712  25.083  14.023
66212W        W27633  18.148   1.265  14.372
66213W        W27634  42.852  22.077   1.731
66214W        W27635   0.772   6.789   0.406
66215W        W27636  20.700   3.784   3.683
66216W        W27637  29.031  14.272   1.302
66217W        W27638  17.801  19.052   4.166
66218W        W27639  31.105  21.023   3.216
66219W        W27640   9.226   7.899  12.851
66220W        W27641  22.248  19.718  14.451
66221W        W27642   7.850  44.783  13.970
66222W        W27643  10.686  24.075   3.170
66223W        W27644  42.305   8.369  10.933
66224W        W27645   3.367  28.653   1.376
66225W        W27646   7.792   5.263  13.895
66226W        W27647  14.825  33.517  10.560
66227W        W27648  14.167  18.692   4.789
66228W        W27649  44.404   1.468   0.369
66229W        W27650   2.327  24.711  13.456
66230W        W27651  33.908  30.457   2.238
66231W        W27652  39.491   0.353   3.756
66232W        W27653  28.107  42.971  10.029
66233W        W27654  38.569  30.494   4.266
66234W        W27655  17.637  30.442   0.851
66235W        W27656  25.668   5.427   1.220
66236W        W27657  26.550   0.371   0.780
66237W        W27658  15.201  31.474  12.580
66238W        W27659  39.859  18.259   2.185
66239W        W27660  32.977  12.224   9.936
66240W        W27661  35.915  15.305   1.373
66241W        W27662  24.088  30.528  12.362
66242W        W27663  14.316  39.442   0.459
66243W        W27664  32.462  14.172   1.315
66244W        W27665  31.439   9.243  13.512
66245W        W27666  22.598  11.199  10.605
66246W        W27667  42.854  18.136  12.858
66247W        W27668  16.087  37.444  10.920
66248W        W27669  35.907   3.242  12.425
66249W        W27670  13.729   7.803  12.065
66250W        W27671  17.644  29.635  14.314
66251W        W27672   6.270  11.167   1.702
66252W        W27673  39.338   2.844   4.128
66253W        W27674  31.551   7.396  10.596
66254W        W27675  31.478  19.151  13.384
66255W        W27676  12.200  16.149   3.184
66256W        W27677  23.009  24.055   4.288
66257W        W27678  23.659   2.895   2.398
66258W        W27679   4.884  31.068  11.062
66259W        W27680   2.772   4.793  11.497
66260W        W27681  39.393  11.830  14.437
66261W        W27682  40.509  10.369  11.373
66262W        W27683  14.284  35.487   4.271
66263W        W27684   8.302  36.006  11.977
66264W        W27685  31.596  31.619   4.649
66265W        W27686   0.457   7.175  14.404
66266W        W27687   1.924  26.037   9.575
66267W        W27688  29.962  15.651   1.884
66268W        W27689  22.517  27.136   4.793
66269W        W27690  15.603  22.593  11.906
66270W        W27691  31.014  32.049  13.890
66271W        W27692  22.533   5.789   0.921
66272W        W27693   9.735  12.769  13.906
66273W        W27694  14.833  21.630  13.352
66274W        W27695  11.708   6.201   5.186
66275W        W27696   6.688   8.387  12.840
66276W        W27697   5.194   7.330   3.381
66277W        W27698   8.403  40.475  13.907
66278W        W27699  33.481  33.566   1.328
66279W        W27700  10.164  16.073   4.604
66280W        W27701  21.111  29.139   0.437
66281W        W27702  32.471  42.934  12.039
66282W        W27703   9.274  18.713  10.508
66283W        W27704  16.170  18.153  13.039
66284W        W27705   9.364  16.266  11.877
66285W        W27706  21.602  12.143   0.290
66286W        W27707  33.445  36.385  11.974
66287W        W27708  38.974  42.443   2.738
66288W        W27709  38.373   8.162  12.903
66289W        W27710  16.126  17.771  11.989
66290W        W27711   5.219  38.870   0.779
66291W        W27712  12.195  11.687  10.470
66292W        W27713   0.322  27.579  12.069
66293W        W27714  34.371   6.425   3.263
66294W        W27715  17.614   5.248   4.694
66295W        W27716  20.202  15.096  14.996
66296W        W27717  43.504  19.572   3.262
66297W        W27718   0.475  43.864   0.411
66298W        W27719  29.142   9.375  10.888
66299W        W27720  40.466  29.467  12.424
66300W        W27721  25.529  25.586  11.539
66301W        W27722  12.232  20.121  14.321
66302W        W27723  36.551  37.462   1.301
66303W        W27724  11.727  25.671  10.480
66304W        W27725  24.528  22.164  12.088
66305W        W27726   8.347   8.370   1.357
66306W        W27727   8.313  43.796   3.785
66307W        W27728  43.775  39.419  13.335
66308W        W27729  20.199   0.849   9.922
66309W        W27730  31.560   0.891   0.346
66310W        W27731  28.594  37.949  10.513
66311W        W27732  41.333   3.388  12.957
66312W        W27733  16.289  23.009  12.449
66313W        W27734  32.005  33.972  10.470
66314W        W27735  27.677  23.645   4.661
66315W        W27736   4.372  26.049   0.823
66316W        W27737  25.021  44.403   1.428
66317W        W27738  43.312  21.177   3.672
66318W        W27739  30.917   1.301   3.728
66319W        W27740  26.574   6.793   2.668
66320W        W27741  17.671  23.126   2.719
66321W        W27742   4.293  33.562  12.907
66322W        W27743  16.794  12.273   0.905
66323W        W27744   6.726  13.758  14.773
66324W        W27745  36.386   4.812  12.837
66325W        W27746   4.334  34.946  10.125
66326W        W27747  40.930  17.139   0.400
66327W        W27748   2.338  24.576   3.725
66328W        W27749  28.476  29.110  14.818
66329W        W27750   5.329  33.098  14.472
66330W        W27751  33.933  16.097   3.647
66331W        W27752  12.119  44.433   4.764
66332W        W27753  39.540  25.061   4.699
66333W        W27754  34.446  28.167   1.901
66334W        W27755  10.764  11.798  11.507
66335W        W27756  18.615   9.718   3.346
66336W        W27757  44.902  16.204   4.237
66337W        W27758   3.435   5.248  11.050
66338W        W27759   3.736  16.189   4.796
66339W        W27760  24.019  35.947  15.000
66340W        W27761  33.554   4.231   0.869
66341W        W27762  20.645  38.472  11.415
66342W        W27763  18.563  33.883  10.942
66343W        W27764  39.479   7.904  13.360
66344W        W27765   4.233  12.204   0.756
66345W        W27766  43.293  38.985   3.281
66346W        W27767   8.383  39.325   0.837
66347W        W27768  37.378  43.954  12.026
66348W        W27769  39.349  32.479   0.322
66349W        W27770  37.891  38.930   3.385
66350W        W27771  21.689  13.828   2.824
66351W        W27772  39.881  24.480  14.942
66352W        W27773  44.776  23.201   3.303
66353W        W27774   2.288  13.707  14.499
66354W        W27775  35.944  41.914   4.603
66355W        W27776  28.578   0.747   2.850
66356W        W27777   0.817  13.602  12.958
66357W        W27778  16.107  15.685  13.347
66358W        W27779  26.689  22.520  11.506
66359W        W27780   1.417   4.251   0.372
66360W        W27781  19.692  17.226  12.083
66361W        W27782  20.676   5.866   1.703
66362W        W27783  35.048  26.099  14.822
66363W        W27784   2.853  19.073   2.765
66364W        W27785  40.372  18.202  13.441
66365W        W27786  27.590   8.380  13.827
66366W        W27787   7.708  14.130  11.119
66367W        W27788  37.484  37.865  11.108
66368W        W27789  42.376  21.043  12.419
66369W        W27790  32.024  33.585   3.717
66370W        W27791  15.308  18.576   0.391
66371W        W27792   3.301  21.211  12.011
66372W        W27793   3.333  20.223  13.531
66373W        W27794  25.065  16.802   3.250
66374W        W27795   0.254  10.198  11.015
66375W        W27796   8.689   6.856   4.673
66376W        W27797  18.133   6.850   3.352
66377W        W27798   8.316  41.989  14.932
66378W        W27799  25.477  34.885  12.842
66379W        W27800  15.251  12.251  11.588
66380W        W27801  29.650  28.484   0.250
66381W        W27802  13.730  40.836   4.248
66382W        W27803  39.984   3.414  12.379
66383W        W27804   3.278  38.396  14.775
66384W        W27805  40.974  29.938   0.297
66385W        W27806  24.222  37.484   2.837
66386W        W27807  24.128  23.213  10.561
66387W        W27808  14.230  27.578   4.190
66388W        W27809   9.246  27.115  10.502
66389W        W27810  28.495   8.881   5.216
66390W        W27811  37.017  19.192  12.895
66391W        W27812  29.473  21.684   2.349
66392W        W27813  21.689   2.321  14.999
66393W        W27814  35.106  11.129  10.585
66394W        W27815  34.420   3.276  11.536
66395W        W27816  20.724  24.073  11.496
66396W        W27817  39.355  37.477  10.474
66397W        W27818   0.442   2.721   0.311
66398W        W27819   0.933   3.217  13.523
66399W        W27820   4.320  39.408   2.825
66400W        W27821  37.003  12.327  12.468
66401W        W27822  32.454  27.154   2.714
66402W        W27823  35.483  15.683   4.793
66403W        W27824  10.296  43.937  11.121
66404W        W27825  42.475  25.497  13.536
66405W        W27826  41.951  30.092  11.942
66406W        W27827  29.044  38.045  13.966
66407W        W27828  28.168  44.348  11.023
66408W        W27829  24.508  27.186  11.866
66409W        W27830  28.521  18.624  14.861
66410W        W27831  38.954  36.860   1.870
66411W        W27832  24.498  42.494   4.196
66412W        W27833  41.385  33.488   4.265
66413W        W27834  36.485  31.451   3.173
66414W        W27835  37.947  21.538  11.587
66415W        W27836  41.342   0.448  14.817
66416W        W27837  25.545   0.361  14.949
66417W        W27838  20.210  24.629   1.288
66418W        W27839  29.451  12.176  11.895
66419W        W27840  17.300  30.023  10.908
66420W        W27841  42.970  22.148  11.043
66421W        W27842  40.475  41.986   4.654
66422W        W27843  37.942  37.493   1.705
66423W        W27844  25.138  22.555  10.557
66424W        W27845  36.874  40.855   1.270
66425W        W27846  34.553  13.282   1.234
66426W        W27847  32.411  34.485   3.634
66427W        W27848   5.846  11.240  12.983
66428W        W27849   2.400  29.588   2.220
66429W        W27850  32.615   8.403   3.203
66430W        W27851  41.993   0.343   2.336
66431W        W27852  35.902  33.437   3.819
66432W        W27853  12.320  38.545  14.505
66433W        W27854  40.344  35.575   3.737
66434W        W27855  20.589   8.888  14.934
66435W        W27856   0.832  41.502  11.959
66436W        W27857   6.340   4.259  13.480
66437W        W27858   4.333   7.874   0.861
66438W        W27859   3.843  34.479  10.469
66439W        W27860   2.416  42.787   2.879
66440W        W27861   7.857  16.591  11.886
66441W        W27862  16.593  37.546  11.435
66442W        W27863  25.211   1.323  14.391
66443W        W27864  17.691  43.809  12.375
66444W        W27865  33.527  41.902   4.282
66445W        W27866  44.487  10.654  12.012
66446W        W27867  11.701  25.148  14.315
66447W        W27868  31.535  43.975  11.042
66448W        W27869  31.617  16.600   9.962
66449W        W27870  21.679  34.524  13.499
66450W        W27871  41.869  24.657   1.819
66451W        W27872  43.436  13.135   3.319
66452W        W27873  25.975  30.124  11.101
66453W        W27874  11.364  26.086   0.805
66454W        W27875   0.819  19.283  12.024
66455W        W27876  35.894  39.050  13.414
66456W        W27877  16.236  13.805   1.914
66457W        W27878  19.115   1.837   4.830
66458W        W27879   0.447  37.987   4.158
66459W        W27880  21.138  31.449  12.923
66460W        W27881  23.153   6.897   4.286
66461W        W27882   0.939  33.875  11.902
66462W        W27883   6.372  37.488  13.892
66463W        W27884  43.957  13.812  14.477
66464W        W27885   3.873  30.650   3.787
66465W        W27886  40.399  36.850   3.274
66466W        W27887   7.711  41.489   3.324
66467W        W27888  11.153  30.535   4.685
66468W        W27889   3.439  19.234   1.770
66469W        W27890  12.639   7.212   0.451
66470W        W27891  37.020   4.804  12.080
66471W        W27892   6.370  44.934   0.940
66472W        W27893   5.280  15.178   0.321
66473W        W27894  31.428  34.414   4.160
66474W        W27895  44.447  43.309  11.983
66475W        W27896  31.477  27.125  13.814
66476W        W27897  30.617  38.049   2.817
66477W        W27898  35.570  44.365  12.956
66478W        W27899  43.905  11.296  13.433
66479W        W27900  22.214   3.307   2.258
66480W        W27901  42.976  26.170  13.491
66481W        W27902  38.899  28.026  10.617
66482W        W27903  43.795  14.210  11.449
66483W        W27904   2.723  19.064   3.331
66484W        W27905  14.181  26.160   2.190
66485W        W27906   4.406  39.386  14.363
66486W        W27907  29.139  37.032   3.324
66487W        W27908  29.638  43.822  13.534
66488W        W27909  13.138  25.214   5.307
66489W        W27910  23.199  12.175  14.333
66490W        W27911  35.563  43.800  10.995
66491W        W27912  28.050  38.516   1.765
66492W        W27913  11.177  28.517   1.298
66493W        W27914  31.949  25.544  12.369
66494W        W27915  34.974  12.745   4.297
66495W        W27916  12.673   0.954   2.344
66496W        W27917   0.790  20.199   1.378
66497W        W27918  12.355  34.009  12.955
66498W        W27919  37.532   2.854  10.630
66499W        W27920   4.829  17.652   3.679
66500W        W27921  17.254  39.499   1.804
66501W        W27922  43.326  24.651   3.278
66502W        W27923   1.959   8.399  12.374
66503W        W27924   8.196  30.562   1.888
66504W        W27925   6.310  24.546   2.718
66505W        W27926  37.418  19.206  13.326
66506W        W27927  21.181  22.225  12.901
66507W        W27928  25.468  29.489   2.703
66508W        W27929  22.042  40.872  13.865
66509W        W27930  26.692  37.389   1.218
66510W        W27931  27.485  17.730  10.915
66511W        W27932  26.035  22.677  11.892
66512W        W27933  10.660   7.678  11.504
66513W        W27934  13.649   1.740  10.922
66514W        W27935  40.510  19.722   4.709
66515W        W27936   1.835  16.661  14.822
66516W        W27937   3.772  22.513  14.015
66517W        W27938  17.217  18.261  11.897
66518W        W27939  11.322   6.323   2.282
66519W        W27940  26.185  11.212  12.056
66520W        W27941   5.255   1.300   5.225
66521W        W27942  20.744  44.001   3.288
66522W        W27943  27.501   8.807   0.872
66523W        W27944  37.565  16.123   2.382
66524W        W27945  16.278  24.106   4.686
66525W        W27946  40.824  25.673  11.933
66526W        W27947  37.070   6.352  10.431
66527W        W27948   0.439  29.430   1.862
66528W        W27949  37.919  27.971   2.759
66529W        W27950  23.102  25.101   0.302
66530W        W27951  29.052  11.701  10.489
66531W        W27952  42.473  42.827   0.368
66532W        W27953  18.171  30.447   3.170
66533W        W27954  27.101  17.234   4.732
66534W        W27955  44.933  15.632  10.028
66535W        W27956  39.053  36.410  11.552
66536W        W27957   3.406   9.880  14.939
66537W        W27958  12.667  19.779   4.121
66538W        W27959  25.021  29.531   5.257
66539W        W27960  44.955  16.669   2.852
66540W        W27961   6.749  21.549   2.287
66541W        W27962  36.879  25.199  14.917
66542W        W27963  42.878  41.335   0.960
66543W        W27964   2.794  25.632   2.853
66544W        W27965   5.364  31.055   4.820
66545W        W27966  38.973  42.365   4.182
66546W        W27967  32.894   1.900  10.016
66547W        W27968  33.475  43.919   1.857
66548W        W27969  44.830  17.304  11.488
66549W        W27970  31.464  33.481   1.776
66550W        W27971  37.967  30.019   1.268
66551W        W27972  27.593  20.041   4.217
66552W        W27973   2.339  13.826  13.850
66553W        W27974  19.191  31.639   0.955
66554W        W27975   6.347  35.520  12.868
66555W        W27976   7.718  42.791  13.844
66556W        W27977   2.406  18.182  13.338
66557W        W27978  24.191  42.957  14.028
66558W        W27979  33.118  33.124   1.276
66559W        W27980  19.229  26.098   0.297
66560W        W27981   3.235  20.636  10.438
66561W        W27982  16.159  23.190   2.240
66562W        W27983  27.520  44.434   4.761
66563W        W27984  20.075  31.024   3.251
66564W        W27985   4.887  21.110  13.436
66565W        W27986  17.713  36.974  13.953
66566W        W27987  39.969  10.791   2.346
66567W        W27988   7.341  29.976  10.417
66568W        W27989   3.256  37.365  11.861
66569W        W27990  42.485   4.900   0.930
66570W        W27991  30.032   8.811   2.829
66571W        W27992   4.307  20.678  12.356
66572W        W27993  42.521  40.870   1.912
66573W        W27994  10.305  22.124  10.915
66574W        W27995   4.805   0.811   4.176
66575W        W27996  18.159  38.900   2.724
66576W        W27997  24.141  19.739  12.403
66577W        W27998  34.536   5.777   3.633
66578W        W27999  17.097  12.744  14.996
66579W        W28000  17.624  27.067  14.291
66580W        W28001  31.002   3.819  10.022
66581W        W28002  41.848   5.871  13.829
66582W        W28003  19.566  18.629  10.963
66583W        W28004  44.902  11.239  12.961
66584W        W28005  41.438  22.713  11.464
66585W        W28006  12.682   5.811   0.319
66586W        W28007  33.450   8.334  12.912
66587W        W28008  43.812   6.417  10.895
66588W        W28009  43.488  13.220  12.450
66589W        W28010  33.087   9.176   0.421
66590W        W28011  10.156  18.181  13.341
66591W        W28012  20.158  17.657  14.801
66592W        W28013  43.972  30.987  12.971
66593W        W28014   9.769  21.125   4.639
66594W        W28015  10.187  23.565  13.010
66595W        W28016  34.066  29.564  11.042
66596W        W28017  30.964  26.521   4.234
66597W        W28018  35.084  23.672  10.523
66598W        W28019  33.952  41.868  12.876
66599W        W28020   2.400  13.282  12.355
66600W        W28021  22.676   2.836  11.556
66601W        W28022  27.110  16.269   1.264
66602W        W28023  10.285   6.188   3.321
66603W        W28024  20.548  28.951   4.249
66604W        W28025   6.382  42.349  12.075
66605W        W28026  14.636  42.410  10.517
66606W        W28027  29.159  33.417  13.329
66607W        W28028  15.654  35.862   0.752
66608W        W28029  11.236  35.365  12.906
66609W        W28030  23.539  30.016  13.999
66610W        W28031   9.238  24.574   4.792
66611W        W28032  10.634  17.176  14.019
66612W        W28033   0.925  29.003  13.307
66613W        W28034  38.891   2.470   4.761
66614W        W28035  41.988  42.335  11.571
66615W        W28036   1.971  30.007  11.982
66616W        W28037  15.814  14.137  14.415
66617W        W28038  25.574  31.536   0.758
66618W        W28039   8.844  44.334  10.088
66619W        W28040  29.922   9.743  10.502
66620W        W28041  27.003  26.501   2.267
66621W        W28042   8.750  18.729   4.776
66622W        W28043   0.884  40.509  14.515
66623W        W28044  44.901  44.924  11.117
66624W        W28045  17.782  31.638  10.901
66625W        W28046  37.905  36.484  11.513
66626W        W28047  18.698  43.351   4.717
66627W        W28048  19.165   2.261  11.537
66628W        W28049   9.324  12.162  14.781
66629W        W28050  28.946   1.738   4.678
66630W        W28051   9.838   9.677   4.606
66631W        W28052   9.803   3.228  12.445
66632W        W28053  44.293   7.795  11.468
66633W        W28054  18.709  20.127  13.042
66634W        W28055  23.574  25.582  13.995
66635W        W28056  19.701  43.445  12.572
66636W        W28057  35.551  41.423  11.913
66637W        W28058  20.742  38.458   0.731
66638W        W28059  21.067  15.176   0.337
66639W        W28060   6.690  27.525   2.739
66640W        W28061   2.744   9.878  14.889
66641W        W28062  10.712  20.171  11.950
66642W        W28063   7.909  15.217  11.471
66643W        W28064  36.955  23.520   2.830
66644W        W28065  27.144  35.476   4.167
66645W        W28066  43.943  22.233   3.212
66646W        W28067  22.205  12.123   2.899
66647W        W28068  37.490  23.994  11.985
66648W        W28069  10.304  40.438  11.532
66649W        W28070  25.704  22.211   1.909
66650W        W28071   7.347  29.953  11.019
66651W        W28072  25.512   7.833  10.437
66652W        W28073  23.688   7.734   1.329
66653W        W28074  16.080  14.314   3.819
66654W        W28075  42.449  20.748   3.688
66655W        W28076   7.797  18.076  11.013
66656W        W28077   9.842  19.630  13.048
66657W        W28078  18.172  18.569  12.096
66658W        W28079  31.978   7.713  11.926
66659W        W28080   1.850  24.561   4.717
66660W        W28081  40.990  40.981  12.467
66661W        W28082  26.541  35.916   3.640
66662W        W28083  26.143  16.603   0.461
66663W        W28084  12.753  16.673   4.331
66664W        W28085  28.523  40.451  12.384
66665W        W28086  20.762  31.995  11.390
66666W        W28087  11.318  17.228   0.263
66667W        W28088  23.136  27.076  14.474
66668W        W28089  35.469  12.825  10.526
66669W        W28090   6.913  34.920   3.152
66670W        W28091  38.545  37.949  13.422
66671W        W28092  21.166  25.576  10.943
66672W        W28093  22.589   9.876   3.660
66673W        W28094  30.068  30.452   3.869
66674W        W28095  18.272  19.126   0.458
66675W        W28096  28.001  20.560   2.273
66676W        W28097  26.972  34.088   1.728
66677W        W28098  17.627  13.218  12.931
66678W        W28099  37.001  44.911  11.915
66679W        W28100   9.239  23.169  14.866
66680W        W28101  39.378   2.241  10.595
66681W        W28102   4.804  34.404   4.774
66682W        W28103  11.172  18.621   1.764
66683W        W28104  41.321  35.978  11.071
66684W        W28105  39.495  17.218  13.463
66685W        W28106   5.924  13.636   3.750
66686W        W28107   3.721  36.956   3.265
66687W        W28108  12.817  16.199  11.040
66688W        W28109  35.025   4.818  11.873
66689W        W28110  41.920  20.597  13.822
66690W        W28111  10.723  16.709   3.687
66691W        W28112  38.847  12.693  14.940
66692W        W28113  43.460   1.903   0.845
66693W        W28114  29.441  17.303   1.226
66694W        W28115  28.984  41.826  11.914
66695W        W28116   6.331  36.948  13.037
66696W        W28117  20.648  39.011   2.751
66697W        W28118  43.977  30.636   4.800
66698W        W28119   8.192  35.865   5.256
66699W        W28120  43.360   3.397  13.331
66700W        W28121  43.321   6.229   1.904
66701W        W28122  21.089  26.659  13.361
66702W        W28123  38.532  37.563  13.000
66703W        W28124  32.549  10.698   1.244
66704W        W28125  19.183  25.468   2.398
66705W        W28126  37.854   7.807  14.365
66706W        W28127  43.873  34.517  12.994
66707W        W28128  39.505  38.974   0.896
66708W        W28129  15.104   3.921   0.342
66709W        W28130  21.164   5.762  13.421
66710W        W28131   1.801   5.832  10.933
66711W        W28132  41.997  12.767  10.515
66712W        W28133  20.183   0.451  10.551
66713W        W28134  15.204   5.816   4.290
66714W        W28135  35.974   4.844   2.386
66715W        W28136  29.104  16.771   3.169
66716W        W28137  38.070  31.423   4.631
66717W        W28138  13.687   3.711  10.592
66718W        W28139  33.128  20.049  12.495
66719W        W28140  32.006  30.624  14.808
66720W        W28141  30.531   2.724   3.274
66721W        W28142  32.569  42.820  11.407
66722W        W28143   0.286  14.737  13.382
66723W        W28144  26.479  37.580   0.431
66724W        W28145   7.677  11.308   2.195
66725W        W28146  23.183   7.797   0.473
66726W        W28147   2.936   9.351   4.144
66727W        W28148   7.865   1.453  11.989
66728W        W28149  28.145  25.059   4.725
66729W        W28150  11.284   7.677  14.330
66730W        W28151  16.786   8.388   2.793
66731W        W28152   3.459  32.491   0.298
66732W        W28153  41.479  12.120  13.896
66733W        W28154   0.789   5.690   4.620
66734W        W28155  41.970   5.825   4.823
66735W        W28156  36.030  33.477   4.784
66736W        W28157   1.342   7.251   4.631
66737W        W28158  13.212  18.706   3.680
66738W        W28159   4.309  40.035  10.600
66739W        W28160  37.425  35.393   2.179
66740W        W28161  26.558  42.014   0.373
66741W        W28162  33.945  34.380  11.887
66742W        W28163  39.923  12.660  12.410
66743W        W28164  13.157  27.680   0.967
66744W        W28165  23.576  28.578   1.379
66745W        W28166  34.431  17.649  12.567
66746W        W28167  35.867  11.282   1.386
66747W        W28168  23.120  22.639  11.042
66748W        W28169   5.933  22.034  13.960
66749W        W28170  40.865  38.066  10.405
66750W        W28171  44.378  24.096  10.429
66751W        W28172  39.050  24.199  11.536
66752W        W28173  35.082  19.260  11.445
66753W        W28174  40.994  29.498   1.242
66754W        W28175  21.248  18.123  12.561
66755W        W28176  31.026   3.394  11.063
66756W        W28177  31.575  42.487  12.823
66757W        W28178   8.814  27.112   4.131
66758W        W28179   7.240  20.190   0.279
66759W        W28180  33.575  34.062   9.990
66760W        W28181  27.989  28.452  12.479
66761W        W28182  36.539   0.447  10.492
66762W        W28183  17.295  30.654   3.215
66763W        W28184  39.360  40.017   2.269
66764W        W28185  20.191  41.989   3.382
66765W        W28186  22.172   2.255  10.904
66766W        W28187   2.441  27.060   1.892
66767W        W28188  42.992  22.506   0.817
66768W        W28189  24.032  24.032   4.295
66769W        W28190  42.878   0.284  10.414
66770W        W28191  10.859   5.753   2.342
66771W        W28192  34.376  44.423  11.471
66772W        W28193   5.213   0.927   4.786
66773W        W28194  24.496   0.369  11.376
66774W        W28195  35.580  41.844  13.001
66775W        W28196  39.939  18.092  12.875
66776W        W28197  28.158  26.624   4.728
66777W        W28198  25.057  24.172   0.246
66778W        W28199   3.314  12.849   3.709
66779W        W28200  37.911  40.873   2.736
66780W        W28201  21.705   1.820  14.394
66781W        W28202  37.357   2.359  14.767
66782W        W28203  25.129  27.584   2.205
66783W        W28204  18.788  30.129  13.500
66784W        W28205  35.082  38.418  14.018
66785W        W28206   4.806  33.529   1.863
66786W        W28207   7.895  18.720  13.409
66787W        W28208  42.394   3.851  14.283
66788W        W28209  10.364  26.594   4.619
66789W        W28210   4.418  38.921   3.280
66790W        W28211  33.439  11.281  13.038
66791W        W28212   9.226   3.879  11.093
66792W        W28213  31.526  13.737   2.190
66793W        W28214  33.503  17.800   3.839
66794W        W28215  26.481   3.457  11.961
66795W        W28216  34.419  40.436  13.317
66796W        W28217   1.324  15.110   4.186
66797W        W28218  16.622   3.863   0.327
66798W        W28219  27.562  10.353   1.740
66799W        W28220  40.025  38.468  12.920
66800W        W28221  19.264  16.251   0.398
66801W        W28222   7.298   9.389   0.425
66802W        W28223   1.942   7.741  13.943
66803W        W28224  36.471   2.869  12.088
66804W        W28225  16.315  13.229   3.672
66805W        W28226  29.174   9.236  12.900
66806W        W28227  29.603   2.906  12.408
66807W        W28228  41.839   0.316   1.753
66808W        W28229   5.381  41.517  10.573
66809W        W28230  37.973  24.184  12.448
66810W        W28231  32.414  27.579  13.874
66811W        W28232  29.015  16.282  13.027
66812W        W28233  41.448  19.603   1.753
66813W        W28234  27.591  37.564  14.892
66814W        W28235   8.400  23.550   1.350
66815W        W28236   0.371   6.426   4.217
66816W        W28237  39.555  39.342   3.810
66817W        W28238  30.507  38.919   3.696
66818W        W28239  39.017  33.405   9.962
66819W        W28240  16.130  21.025  14.329
66820W        W28241  29.941  29.114  11.971
66821W        W28242  18.166  28.450   3.163
66822W        W28243  34.595  36.558  11.073
66823W        W28244  26.044  21.564  14.871
66824W        W28245   9.304  40.364  12.824
66825W        W28246  15.820  24.087   3.680
66826W        W28247  28.158  26.487  12.932
66827W        W28248  41.949  23.710   3.350
66828W        W28249  29.147  35.558  10.602
66829W        W28250  16.307  17.789  14.310
66830W        W28251  33.454   3.243  11.953
66831W        W28252   1.925  11.305   0.412
66832W        W28253  41.414   1.888  14.292
66833W        W28254  28.558  37.484  11.459
66834W        W28255  14.318  44.418   1.894
66835W        W28256  29.472  18.277  11.078
66836W        W28257   4.358  21.218   4.616
66837W        W28258  11.668   5.776  13.957
66838W        W28259  10.314  42.353   0.860
66839W        W28260  38.966  29.010   3.842
66840W        W28261  18.248  19.670   4.206
66841W        W28262  15.089  24.022   3.181
66842W        W28263  31.486  15.611  10.054
66843W        W28264  21.653  11.622   0.272
66844W        W28265  27.521  19.177  14.875
66845W        W28266  30.590  33.913  12.341
66846W        W28267   5.264  40.832  14.923
66847W        W28268  17.588  34.547   1.917
66848W        W28269  13.631  35.471   2.327
66849W        W28270  13.621  31.136  12.494
66850W        W28271  29.577   6.349  13.964
66851W        W28272  43.300   7.227   0.349
66852W        W28273   7.185  29.495   4.761
66853W        W28274   7.182  35.884  12.003
66854W        W28275  11.242  38.362   1.226
66855W        W28276  21.106   0.280  14.338
66856W        W28277  32.540  12.318  12.933
66857W        W28278  11.139  25.074   3.733
66858W        W28279  31.925  16.675   2.279
66859W        W28280   4.917  31.470   3.717
66860W        W28281  10.180  43.403   2.230
66861W        W28282   9.388  28.632   3.364
66862W        W28283  14.318  18.218   4.609
66863W        W28284  18.709  26.461   3.771
66864W        W28285  40.972  44.443  10.530
66865W        W28286  27.576  30.653  13.494
66866W        W28287  37.028  36.358  14.833
66867W        W28288  11.284  29.071   1.298
66868W        W28289   0.821  40.855   0.326
66869W        W28290  18.078   0.368  10.577
66870W        W28291  28.538  41.357   0.894
66871W        W28292  15.634  29.628  12.936
66872W        W28293  28.044  43.799  11.048
66873W        W28294  30.542   7.345   4.172
66874W        W28295  32.465  29.501  10.635
66875W        W28296  20.642   3.340  10.627
66876W        W28297  22.557  27.514   4.253
66877W        W28298   9.198  41.343  12.526
66878W        W28299   9.195  40.374   0.863
66879W        W28300   8.800  14.141  11.547
66880W        W28301  31.580   7.737   2.818
66881W        W28302   0.436   7.751  11.445
66882W        W28303   1.829   5.701  14.317
66883W        W28304  20.135  13.264  11.945
66884W        W28305   4.236  37.379  12.548
66885W        W28306   8.725  38.347   3.857
66886W        W28307  42.902  24.574   0.437
66887W        W28308  33.129   4.371   1.271
66888W        W28309  20.665   1.894   0.289
66889W        W28310  28.039  41.486  13.006
66890W        W28311  14.313  13.124   2.203
66891W        W28312  13.807  17.560  11.069
66892W        W28313  26.515   7.668  11.598
66893W        W28314  11.693  37.831  10.426
66894W        W28315   4.860  17.580   3.328
66895W        W28316  16.200   3.327   4.267
66896W        W28317  32.444  34.613   1.926
66897W        W28318  14.183   4.876  11.545
66898W        W28319  25.992  16.574   3.636
66899W        W28320  17.613  29.613  10.588
66900W        W28321   4.814   1.860   2.253
66901W        W28322  42.801  23.650   4.698
66902W        W28323  28.017   1.357  13.848
66903W        W28324  24.561  42.516  13.926
66904W        W28325  32.463  24.037   2.332
66905W        W28326  21.085  25.508  14.401
66906W        W28327  42.826  43.275  14.404
66907W        W28328   5.727  29.977   1.323
66908W        W28329  24.001  40.935  10.549
66909W        W28330  27.962  13.605   2.821
66910W        W28331  20.091   7.820   2.703
66911W        W28332  24.223  40.033  12.974
66912W        W28333   8.754  43.927  12.858
66913W        W28334   6.244  21.058  11.911
66914W        W28335  14.753   1.768  12.050
66915W        W28336  35.404  38.026  11.489
66916W        W28337   9.330  16.572  10.101
66917W        W28338  37.913  17.748  10.981
66918W        W28339  36.428  38.422   0.843
66919W        W28340  41.843  31.947   0.866
66920W        W28341  36.849  41.009  10.891
66921W        W28342  18.708  22.085   4.668
66922W        W28343   8.246   1.428  14.286
66923W        W28344  11.332  33.607   4.624
66924W        W28345   2.469  38.858   0.366
66925W        W28346  17.272  34.454   2.849
66926W        W28347  22.049   3.832   5.713
66927W        W28348   3.749  35.019   1.254
66928W        W28349   5.352  10.323   4.139
66929W        W28350  10.381  36.433   4.629
66930W        W28351  18.608  24.011   0.481
66931W        W28352  15.643  15.303  12.080
66932W        W28353   9.753  38.995   0.366
66933W        W28354  43.388  41.323   1.356
66934W        W28355  36.376  27.961  10.965
66935W        W28356  28.069  13.606   0.413
66936W        W28357  32.891  16.796   0.446
66937W        W28358   6.764  22.061   2.818
66938W        W28359   2.923   1.847   0.808
66939W        W28360  35.441   5.421   0.369
66940W        W28361  34.497  44.316   0.966
66941W        W28362   3.926  41.301   4.251
66942W        W28363  26.208  11.347   4.835
66943W        W28364   4.327  44.311   4.787
66944W        W28365  28.962  40.449  11.602
66945W        W28366   3.446  31.468  12.065
66946W        W28367   6.351  20.029  12.527
66947W        W28368  18.685   9.774   2.898
66948W        W28369   8.854  29.493   2.263
66949W        W28370  32.066  33.946  12.848
66950W        W28371  16.231  12.835   0.824
66951W        W28372  41.324  37.992   1.260
66952W        W28373   2.431  25.059   9.611
66953W        W28374  17.149  28.168  13.984
66954W        W28375  18.153  16.698   4.133
66955W        W28376   8.308  43.343  12.513
66956W        W28377  22.222  11.253   0.441
66957W        W28378  20.537   9.729   4.128
66958W        W28379  16.749  12.746  11.882
66959W        W28380   3.411  11.850  13.910
66960W        W28381  29.433  32.553   2.272
66961W        W28382   7.829  37.911  11.015
66962W        W28383  17.755   5.809   1.270
66963W        W28384  11.649  13.752   3.347
66964W        W28385  37.960  23.103  13.038
66965W        W28386  33.969  40.426  10.909
66966W        W28387  41.011  11.288   2.853
66967W        W28388  16.617  42.468  14.287
66968W        W28389  41.009  40.476   2.746
66969W        W28390  42.496  29.656  13.816
66970W        W28391  12.641   8.692  11.001
66971W        W28392   5.689  39.446   9.527
66972W        W28393  41.499  16.598   2.819
66973W        W28394  13.719  24.699  10.613
66974W        W28395  21.163   7.888  13.890
66975W        W28396  19.048  27.075  12.831
66976W        W28397  28.975  40.951  13.454
66977W        W28398  17.217  10.760  13.994
66978W        W28399  41.002  15.634   3.270
66979W        W28400  13.274   2.962  14.464
66980W        W28401  38.529   7.298   0.461
66981W        W28402  37.959  42.297  11.947
66982W        W28403  24.224  43.454  14.277
66983W        W28404  32.932  28.633   0.773
66984W        W28405   1.977   6.304  11.921
66985W        W28406  33.985  11.840   1.246
66986W        W28407  36.989  13.677   4.609
66987W        W28408  28.070  34.949  13.833
66988W        W28409   4.886  33.067   0.405
66989W        W28410   2.345  39.940  10.523
66990W        W28411  14.130  25.617  11.426
66991W        W28412  27.000  16.736  10.984
66992W        W28413  20.528  17.062  13.348
66993W        W28414  10.780  22.197   0.270
66994W        W28415  21.556   6.413  12.939
66995W        W28416  33.614  31.404   2.336
66996W        W28417  37.488  13.846   5.635
66997W        W28418  19.126  21.648  11.406
66998W        W28419   0.777  13.225  14.424
66999W        W28420  26.204  27.556   2.267
67000W        W28421  20.648  39.845  14.789
67001W        W28422  29.064  35.091  10.470
67002W        W28423  39.520  41.355   0.753
67003W        W28424  13.686  34.112   3.852
67004W        W28425  25.057   3.458  10.984
67005W        W28426  27.514   5.913   4.148
67006W        W28427  20.225  32.104  10.463
67007W        W28428  23.591  15.176  12.500
67008W        W28429  29.491  28.603  10.420
67009W        W28430  15.092  12.737  13.430
67010W        W28431  35.570  31.921  11.061
67011W        W28432  24.618   0.897   3.708
67012W        W28433  15.329  25.639  12.036
67013W        W28434  41.437  12.616   2.276
67014W        W28435  10.663   0.910  13.508
67015W        W28436  36.949  35.477   1.785
67016W        W28437  43.483   4.377  13.843
67017W        W28438  20.586  13.174   1.257
67018W        W28439   9.714  30.966  12.379
67019W        W28440  13.609  39.361   3.156
67020W        W28441  26.081  32.039  12.875
67021W        W28442  43.313  23.097  14.784
67022W        W28443  37.081  40.500   2.701
67023W        W28444  23.011  27.120  12.540
67024W        W28445  40.397  42.394  13.494
67025W        W28446   6.855  32.005  14.325
67026W        W28447  40.426  26.682  11.453
67027W        W28448  34.557   2.406  13.991
67028W        W28449  19.224   6.405   3.187
67029W        W28450  42.459   7.377   1.872
67030W        W28451   3.848  44.264  12.399
67031W        W28452  20.104  24.106   3.847
67032W        W28453   0.856  10.145   4.273
67033W        W28454  36.910  28.024  13.988
67034W        W28455  20.566   9.681  14.961
67035W        W28456   1.480   4.243   1.795
67036W        W28457  31.488  44.819  12.085
67037W        W28458  21.111  30.993  14.953
67038W        W28459   8.241   7.249  12.049
67039W        W28460  23.562  39.875  13.345
67040W        W28461   2.259  20.126   3.758
67041W        W28462  39.826  34.581   0.951
67042W        W28463  27.993  10.632   3.859
67043W        W28464  22.013   4.209  10.480
67044W        W28465  41.897  14.596   5.177
67045W        W28466  19.080   7.830   2.267
67046W        W28467   1.771  10.852   1.771
67047W        W28468  10.654  30.563  14.414
67048W        W28469  10.315   5.381   0.774
67049W        W28470  44.407  37.066  12.914
67050W        W28471   6.745  34.024  12.364
67051W        W28472   7.205  14.662  10.626
67052W        W28473  41.444  37.356   2.256
67053W        W28474  23.616  21.023  10.603
67054W        W28475  38.841  18.225  14.964
67055W        W28476  30.055  44.945  12.408
67056W        W28477  17.188  41.868  13.391
67057W        W28478   5.723  41.309   3.843
67058W        W28479   7.685  30.068   3.234
67059W        W28480   4.749   4.249   0.396
67060W        W28481   8.899  12.295   3.721
67061W        W28482   8.210  37.581   3.365
67062W        W28483  44.294   4.421   0.467
67063W        W28484  20.214  38.425  14.292
67064W        W28485  15.229  29.114  10.504
67065W        W28486   0.876  23.092  10.959
67066W        W28487  15.315  30.982   0.410
67067W        W28488   6.779  30.031  12.484
67068W        W28489  14.765  40.463   4.275
67069W        W28490  44.796   3.758   0.384
67070W        W28491  43.835  18.116   3.378
67071W        W28492  16.605  33.517   3.150
67072W        W28493  42.021  19.217   0.285
67073W        W28494   4.305   4.754  11.445
67074W        W28495   8.855  11.214  11.483
67075W        W28496  23.686   7.214   1.291
67076W        W28497  36.496  15.249  13.862
67077W        W28498  40.001  17.684   3.205
67078W        W28499  14.695  27.974  14.972
67079W        W28500   6.754  37.970  10.067
67080W        W28501   1.868  27.482   0.898
67081W        W28502  27.159  27.636  14.847
67082W        W28503  22.028   4.746  14.790
67083W        W28504   4.277   9.150  14.868
67084W        W28505  14.095  18.221  10.523
67085W        W28506  35.097   7.278  12.950
67086W        W28507   8.368  40.861  11.935
67087W        W28508   3.326  27.654   1.808
67088W        W28509  34.437  30.495  10.498
67089W        W28510  22.670  26.524  11.410
67090W        W28511  37.960  42.955   2.801
67091W        W28512  31.982   8.317   2.314
67092W        W28513   3.456  29.116  11.939
67093W        W28514  44.260  29.971  11.493
67094W        W28515  43.985  17.558  13.828
67095W        W28516  32.956   5.212   3.316
67096W        W28517  36.850  30.033   0.364
67097W        W28518  25.139  36.010  12.342
67098W        W28519  34.082  33.581   4.254
67099W        W28520  26.080  28.175   1.770
67100W        W28521   9.201  23.573  13.486
67101W        W28522  13.817   4.714   0.743
67102W        W28523  39.057  33.592   4.286
67103W        W28524  29.545   0.868  12.037
67104W        W28525   7.874  14.592  12.497
67105W        W28526  34.510  30.483   0.781
67106W        W28527  18.088  11.264   3.189
67107W        W28528   4.707   9.367   2.876
67108W        W28529  35.561  16.657  14.848
67109W        W28530  27.677   0.263  14.480
67110W        W28531  32.613  43.317   3.341
67111W        W28532  21.258  31.405  10.552
67112W        W28533   9.177  26.098   3.251
67113W        W28534   5.295  38.328   1.451
67114W        W28535  35.577  24.593  12.901
67115W        W28536   5.741  12.224   3.245
67116W        W28537  10.254   7.902  14.479
67117W        W28538   2.887  37.483  10.621
67118W        W28539   3.917  15.786  13.512
67119W        W28540  40.337  39.412  14.031
67120W        W28541  35.440   5.421   5.610
67121W        W28542  37.374  13.627  12.875
67122W        W28543  19.644  12.188  11.032
67123W        W28544  37.463   2.936  14.392
67124W        W28545   5.768  27.167   2.848
67125W        W28546  30.938   2.470  11.120
67126W        W28547  30.543  44.497   0.349
67127W        W28548  24.641  36.025   1.256
67128W        W28549  20.101  11.749  11.478
67129W        W28550  17.707  28.470  14.347
67130W        W28551   9.381  24.646  10.900
67131W        W28552  14.168  41.391   0.892
67132W        W28553   6.895  43.993  13.871
67133W        W28554  37.347  33.875  14.514
67134W        W28555  19.716  38.435  13.474
67135W        W28556   4.323  35.102   2.872
67136W        W28557  16.782  20.615   3.169
67137W        W28558   6.754  43.484  10.977
67138W        W28559  30.136  44.906  10.975
67139W        W28560  16.318  44.296  10.592
67140W        W28561  31.423  18.712   3.786
67141W        W28562  24.058  36.422   3.328
67142W        W28563  43.483  28.038   0.451
67143W        W28564  31.038  22.701  13.461
67144W        W28565   3.731  21.542  11.488
67145W        W28566  43.513  24.228  13.835
67146W        W28567  37.852  43.840   3.322
67147W        W28568  22.189  18.562  14.486
67148W        W28569  20.254  22.548   3.160
67149W        W28570  31.480  12.204   2.392
67150W        W28571  35.983  10.172   0.255
67151W        W28572  39.034   4.830  14.801
67152W        W28573  24.229  19.547  12.826
67153W        W28574  43.390   5.340   0.476
67154W        W28575  14.751  34.112  12.035
67155W        W28576  18.093  26.592  14.967
67156W        W28577  20.198  28.619  13.813
67157W        W28578  37.012  42.939  14.899
67158W        W28579  29.172   4.437   2.823
67159W        W28580  35.925  24.984   4.642
67160W        W28581  10.835  22.186   0.867
67161W        W28582  18.652  19.106   2.284
67162W        W28583  15.113   1.765   3.640
67163W        W28584  31.633   5.818   4.259
67164W        W28585  11.712  30.100  13.876
67165W        W28586  44.872   7.399   3.712
67166W        W28587  24.696  34.557  13.884
67167W        W28588  26.202  23.617  14.940
67168W        W28589  24.143  22.190   4.226
67169W        W28590  19.673  17.163   2.403
67170W        W28591   1.784  32.140   0.273
67171W        W28592  15.642   5.270  14.032
67172W        W28593   7.283  21.727   4.832
67173W        W28594   0.837  12.209  10.423
67174W        W28595  28.088  21.076   4.641
67175W        W28596  10.812  15.721  11.527
67176W        W28597  18.116  32.538   3.262
67177W        W28598  18.653  39.390  14.834
67178W        W28599  44.297  17.632  14.344
67179W        W28600  32.542  25.503  12.444
67180W        W28601  43.916   0.343  11.042
67181W        W28602  15.671  25.544  10.540
67182W        W28603  43.917  19.777   3.761
67183W        W28604  15.663  14.113  13.411
67184W        W28605  30.526   9.741  11.569
67185W        W28606  37.550  24.069   3.806
67186W        W28607  30.025  25.693  10.921
67187W        W28608  23.183  42.830   3.166
67188W        W28609  19.635  37.895  14.290
67189W        W28610  34.016  15.681  10.514
67190W        W28611  37.922  23.997   1.359
67191W        W28612  40.523   3.311   5.284
67192W        W28613  13.725   6.764  14.967
67193W        W28614  43.442  27.948   2.350
67194W        W28615   2.905  36.448  14.404
67195W        W28616  28.595   3.734   1.841
67196W        W28617   5.922   5.891   0.402
67197W        W28618  28.532  19.678   1.717
67198W        W28619   5.241   6.881   1.318
67199W        W28620   4.708  39.927   0.922
67200W        W28621  32.059  31.492   3.677
67201W        W28622  24.045  43.322   4.355
67202W        W28623  10.634  32.572  13.975
67203W        W28624  12.800  38.821   1.430
67204W        W28625  12.835  40.996   1.225
67205W        W28626  32.940  36.842   3.826
67206W        W28627  11.639  15.204   3.262
67207W        W28628  35.425  13.649   4.819
67208W        W28629  17.779  26.628  14.305
67209W        W28630  11.143  22.641   2.896
67210W        W28631  11.727  36.874  12.825
67211W        W28632  16.154   8.201  14.499
67212W        W28633  10.258  20.573   3.806
67213W        W28634   6.918  20.247  12.837
67214W        W28635   8.352  34.950   4.233
67215W        W28636  26.044  38.976   2.857
67216W        W28637  32.589  13.271   0.859
67217W        W28638  42.932  35.429   0.349
67218W        W28639   5.218  34.937   3.761
67219W        W28640   5.314  17.072  13.338
67220W        W28641  20.232  38.444   3.230
67221W        W28642  37.534  25.668  11.548
67222W        W28643  40.379  24.676   4.216
67223W        W28644  17.725  16.150  12.558
67224W        W28645   3.813  39.899  14.977
67225W        W28646  36.407  40.026   0.337
67226W        W28647  31.645  33.592  10.080
67227W        W28648  40.846   8.765  11.440
67228W        W28649  15.145  25.570   3.219
67229W        W28650  41.792  44.907   4.645
67230W        W28651  19.070  40.371  14.358
67231W        W28652  30.487   2.408  13.511
67232W        W28653   5.834  12.851   2.311
67233W        W28654  41.384  11.205   2.247
67234W        W28655  18.761   0.818  13.814
67235W        W28656  29.958  14.703  10.952
67236W        W28657  30.977  36.009   1.729
67237W        W28658  23.067  25.566  13.825
67238W        W28659  16.262   5.797  14.391
67239W        W28660  10.335   1.804   3.253
67240W        W28661  15.731   2.778   3.345
67241W        W28662  43.768  44.492   0.404
67242W        W28663  25.640   2.438  10.527
67243W        W28664  28.468  28.160   2.255
67244W        W28665  19.744  13.692  12.892
67245W        W28666   5.785  32.525   1.328
67246W        W28667  44.889  37.054   2.863
67247W        W28668  39.321  18.117  11.402
67248W        W28669  10.194  42.019  12.436
67249W        W28670  39.816   3.392  11.516
67250W        W28671  32.069  11.128   1.728
67251W        W28672   3.370  40.380  13.481
67252W        W28673  13.336   8.900  12.511
67253W        W28674  43.463  26.517   2.359
67254W        W28675  36.364  10.767  14.860
67255W        W28676  18.646   8.750   3.211
67256W        W28677  29.574  31.017  14.827
67257W        W28678  44.848   3.834   1.786
67258W        W28679  44.816  28.012  12.557
67259W        W28680  13.772  33.910   1.306
67260W        W28681  15.631  12.627  12.915
67261W        W28682  19.045  15.722  13.872
67262W        W28683   5.809  26.632  12.357
67263W        W28684   6.893  42.018   3.317
67264W        W28685  18.165   2.727  12.352
67265W        W28686  34.108  36.469  13.039
67266W        W28687  40.354  19.120  14.012
67267W        W28688   5.385  14.725  11.396
67268W        W28689   3.718   3.217   4.187
67269W        W28690  22.526  38.932   1.767
67270W        W28691  11.269  18.225  11.572
67271W        W28692  19.191  39.442  12.451
67272W        W28693  10.148  29.027  14.922
67273W        W28694  27.576  19.124  12.932
67274W        W28695  17.719  23.148  13.031
67275W        W28696  17.739  29.920  13.021
67276W        W28697   8.336  17.142  14.319
67277W        W28698  22.700  43.406   1.297
67278W        W28699   9.310  14.297   2.813
67279W        W28700  10.747   8.211   1.417
67280W        W28701  37.416  25.641  10.922
67281W        W28702  12.229   2.827   2.694
67282W        W28703  25.068  41.801  13.014
67283W        W28704  43.409  21.062   4.783
67284W        W28705   0.941  33.588  13.938
67285W        W28706   1.412  20.123   0.873
67286W        W28707  24.479  35.427  10.628
67287W        W28708  24.060  32.637  14.359
67288W        W28709  40.037  33.559   2.382
67289W        W28710  12.180  32.569  14.446
67290W        W28711  34.427  26.484   4.713
67291W        W28712  38.918  26.460   0.330
67292W        W28713  18.592  30.426  10.928
67293W        W28714  38.540  28.993  11.042
67294W        W28715  36.454  18.219   2.770
67295W        W28716  25.574  12.740  10.007
67296W        W28717  20.599   6.270   4.633
67297W        W28718  27.459  41.880   2.281
67298W        W28719   6.225  43.273   3.328
67299W        W28720   5.219   0.436  12.054
67300W        W28721  31.136  16.177   3.294
67301W        W28722   0.874   4.892   4.271
67302W        W28723   3.849  38.395   1.403
67303W        W28724  10.140   4.840  10.410
67304W        W28725  32.982  44.002  14.774
67305W        W28726   4.300  34.393  14.839
67306W        W28727  28.464  20.592  13.350
67307W        W28728  16.180   5.834  13.547
67308W        W28729  26.002   2.931  12.851
67309W        W28730  39.902  11.214  14.886
67310W        W28731  42.334  41.459  14.328
67311W        W28732   3.427   5.352   3.168
67312W        W28733  24.056   3.307   4.646
67313W        W28734   3.218  30.138  14.334
67314W        W28735  44.893  13.712   2.729
67315W        W28736   6.390  13.328   0.828
67316W        W28737   7.235  26.479   1.862
67317W        W28738  15.700   8.837   9.994
67318W        W28739   7.287   6.323  10.420
67319W        W28740  21.673  25.486  10.968
67320W        W28741  12.693   7.809  12.985
67321W        W28742  35.096  19.268  10.893
67322W        W28743  43.966   2.910   1.782
67323W        W28744   6.248   6.342  10.416
67324W        W28745  36.514  41.503   0.391
67325W        W28746   3.296  37.906   4.664
67326W        W28747  10.805  24.516  12.497
67327W        W28748  42.869   3.426   2.662
67328W        W28749   7.848  26.614   2.215
67329W        W28750  13.798   0.748   4.789
67330W        W28751   8.666  43.880  13.329
67331W        W28752  22.711  32.498  12.838
67332W        W28753   8.398  40.479   3.327
67333W        W28754  24.588   9.736  13.506
67334W        W28755  10.308  24.113   4.803
67335W        W28756  35.934  26.007   3.213
67336W        W28757  20.057   2.246  10.580
67337W        W28758  28.490  25.653   2.388
67338W        W28759  32.935  30.553   0.819
67339W        W28760  33.583   2.826   2.413
67340W        W28761  44.919  10.236  12.035
67341W        W28762  36.447   9.187   1.697
67342W        W28763  24.564  34.064   0.364
67343W        W28764  18.073  24.063   0.806
67344W        W28765  15.621  19.670   3.304
67345W        W28766  22.643  20.631  10.502
67346W        W28767  23.590  13.706   1.284
67347W        W28768   6.327   2.794   2.235
67348W        W28769  15.316  30.590   0.902
67349W        W28770  12.358  31.530  12.832
67350W        W28771   7.339  32.971  11.893
67351W        W28772  19.601  35.035  14.279
67352W        W28773  33.125  41.462   1.223
67353W        W28774  34.435  32.904  10.970
67354W        W28775  15.683  26.206  14.021
67355W        W28776  20.269  34.593  10.601
67356W        W28777  42.316  27.083   4.140
67357W        W28778  36.010   1.240  12.943
67358W        W28779  14.316  24.519   1.354
67359W        W28780   6.188  10.777   1.399
67360W        W28781  18.718  37.845  13.893
67361W        W28782   8.302  23.735  14.900
67362W        W28783  44.332   5.385  10.501
67363W        W28784   8.353  39.351   2.812
67364W        W28785  27.662  35.411  10.950
67365W        W28786  27.089   5.904  14.934
67366W        W28787  16.572  42.900  14.871
67367W        W28788  18.061   9.217   4.282
67368W        W28789  31.532  22.583   4.236
67369W        W28790  15.083  29.131  13.311
67370W        W28791   9.761  17.076  12.348
67371W        W28792  38.936  43.946   0.364
67372W        W28793   4.843  42.321  14.425
67373W        W28794  11.344  38.339  13.307
67374W        W28795  29.034  12.628   2.185
67375W        W28796  13.262  17.223   3.645
67376W        W28797   5.928  33.442  11.015
67377W        W28798  27.682  36.385  13.816
67378W        W28799  12.767  26.637   0.794
67379W        W28800  44.485  35.904  12.916
67380W        W28801   5.732  40.820  11.119
67381W        W28802  37.499  32.414  12.052
67382W        W28803  19.222  10.864   2.349
67383W        W28804   6.794  25.644   1.233
67384W        W28805  25.521  25.218  11.031
67385W        W28806  13.684  40.011  10.990
67386W        W28807  40.943  21.528   1.224
67387W        W28808  33.904  18.703  13.409
67388W        W28809  14.107  32.007  12.050
67389W        W28810  15.693  24.504   2.860
67390W        W28811  11.702   2.341   2.839
67391W        W28812  34.398   2.332  13.464
67392W        W28813  17.098  37.480  11.979
67393W        W28814  11.746  38.558  13.442
67394W        W28815  40.980  10.340   1.257
67395W        W28816   9.381   9.154   4.700
67396W        W28817  27.526   0.895   3.318
67397W        W28818  44.282   6.270   0.381
67398W        W28819  16.073   1.851   3.870
67399W        W28820   4.292   7.231  13.435
67400W        W28821   6.772  26.574   1.301
67401W        W28822  27.015  25.091   1.383
67402W        W28823  16.810  38.008  12.981
67403W        W28824  29.012  14.157  14.358
67404W        W28825  24.043  29.936  11.594
67405W        W28826   8.338  14.608  10.469
67406W        W28827  16.770  24.704  10.421
67407W        W28828  13.340  20.650  11.926
67408W        W28829  14.711   5.318  11.928
67409W        W28830  44.362  33.981  13.335
67410W        W28831  38.960   8.321  12.851
67411W        W28832  12.855  25.031  13.415
67412W        W28833  38.949  23.195  12.450
67413W        W28834  29.952  21.580  10.418
67414W        W28835  13.726  30.566  14.899
67415W        W28836  27.485  30.978   0.447
67416W        W28837   7.712  11.226  12.976
67417W        W28838  31.025  28.663   1.256
67418W        W28839   5.908  44.849  13.872
67419W        W28840  28.448   8.276  13.478
67420W        W28841  11.249   7.729   1.239
67421W        W28842  39.545   7.199  12.973
67422W        W28843   1.913  28.458  10.033
67423W        W28844  36.958  20.588  10.942
67424W        W28845  21.641  29.572  14.889
67425W        W28846  37.449  41.483   3.758
67426W        W28847  10.311  27.046  11.017
67427W        W28848  12.773  33.989  11.894
67428W        W28849  18.109  22.020  13.396
67429W        W28850  30.924  25.175   3.855
67430W        W28851   8.847  20.133  12.009
67431W        W28852   0.348  37.084   2.682
67432W        W28853  21.209   0.885  11.867
67433W        W28854  31.453   8.663   0.894
67434W        W28855  35.444  21.231  14.505
67435W        W28856  33.492  32.936   2.875
67436W        W28857  25.532  16.179   2.349
67437W        W28858  16.255  10.719   2.739
67438W        W28859   0.875  11.745  14.364
67439W        W28860  22.601  16.701  11.578
67440W        W28861  43.309   4.331   1.215
67441W        W28862  33.902  38.463   4.763
67442W        W28863  35.924  11.169  12.361
67443W        W28864  33.379  27.516   4.245
67444W        W28865  11.184  14.693   3.311
67445W        W28866  10.842  14.644  13.899
67446W        W28867  28.560  25.149   1.829
67447W        W28868   4.331  33.092   1.317
67448W        W28869  26.486  40.048  12.396
67449W        W28870  24.504  42.862   3.830
67450W        W28871  18.725  44.768  10.621
67451W        W28872  38.924   7.276   2.417
67452W        W28873   9.768  10.732  13.039
67453W        W28874  18.687  40.407   1.738
67454W        W28875  27.672   2.238   4.244
67455W        W28876  39.061  27.004   5.172
67456W        W28877  21.233  36.476  11.106
67457W        W28878  40.480  16.309   4.746
67458W        W28879  23.677  31.992  14.865
67459W        W28880  27.007  11.740  12.836
67460W        W28881  21.171  11.828   1.357
67461W        W28882   2.264  34.567   0.833
67462W        W28883  43.334   8.373   0.789
67463W        W28884  24.974  11.135  12.828
67464W        W28885  13.844  27.515   0.751
67465W        W28886  35.406  26.006  11.056
67466W        W28887   2.241  12.288  10.505
67467W        W28888  20.260  39.958   2.408
67468W        W28889  43.304   1.456   3.816
67469W        W28890   7.894  19.618   1.270
67470W        W28891  42.807   0.871  12.013
67471W        W28892  30.451  40.015  11.934
67472W        W28893  40.414  20.527   1.383
67473W        W28894   4.241  25.615   3.652
67474W        W28895   0.869  28.522  11.099
67475W        W28896  21.758  20.588  12.993
67476W        W28897  16.576  19.644   4.229
67477W        W28898   1.872  35.539   3.380
67478W        W28899  42.370  39.453   3.742
67479W        W28900  18.631  12.133  14.493
67480W        W28901  23.568  31.642  13.023
67481W        W28902  25.197   9.840  12.507
67482W        W28903  38.934  17.176   1.830
67483W        W28904  34.963   5.863   3.867
67484W        W28905  23.084  20.572   0.394
67485W        W28906  37.421  18.186   1.797
67486W        W28907  26.170   2.884  14.330
67487W        W28908  23.117   8.769  12.007
67488W        W28909  19.567  44.899   3.750
67489W        W28910  36.368  15.296   2.396
67490W        W28911  24.088  11.251   0.317
67491W        W28912  17.083  27.166  13.535
67492W        W28913  24.090   8.777   3.367
67493W        W28914  41.364  35.387  14.500
67494W        W28915  28.082  15.171  12.854
67495W        W28916  13.276   4.846  12.503
67496W        W28917  37.485   1.882   5.175
67497W        W28918  28.950  30.127   0.301
67498W        W28919  17.133   2.866  14.842
67499W        W28920  28.063  20.688  12.083
67500W        W28921  18.063  35.500   3.215
67501W        W28922  14.736  16.609  14.461
67502W        W28923  42.431   8.832   2.263
67503W        W28924   4.875  35.558  14.322
67504W        W28925  33.938   2.259   1.286
67505W        W28926  32.536   3.385   5.194
67506W        W28927  27.681  12.327   5.238
67507W        W28928  11.223  33.130  13.320
67508W        W28929  36.081  40.504  13.477
67509W        W28930  42.926  26.952   2.867
67510W        W28931   1.819   6.243  14.766
67511W        W28932  24.508   3.413   3.229
67512W        W28933  33.604  44.930   4.346
67513W        W28934  33.596  23.698  10.955
67514W        W28935  43.764   2.806   2.343
67515W        W28936  38.436  12.735  13.991
67516W        W28937   3.760  30.022  10.626
67517W        W28938   3.456  11.344  13.063
67518W        W28939  30.923   8.348   0.283
67519W        W28940   1.425   7.739   0.791
67520W        W28941  24.113  18.116  10.595
67521W        W28942  13.130  16.100  14.805
67522W        W28943  41.356  10.379  10.936
67523W        W28944  19.107  31.981  14.881
67524W        W28945  32.589  28.663   3.842
67525W        W28946  11.296  36.011  12.377
67526W        W28947  26.602  10.280  13.310
67527W        W28948  34.451  22.619  14.956
67528W        W28949  26.545  22.072  11.584
67529W        W28950  21.173  40.858  13.036
67530W        W28951   1.474  42.391  11.431
67531W        W28952  13.257  16.126  12.856
67532W        W28953  39.503  39.406   4.616
67533W        W28954  19.700  13.755  12.054
67534W        W28955  36.087  27.999   4.323
67535W        W28956  28.107   2.446  11.492
67536W        W28957  18.107   0.814  12.524
67537W        W28958  44.835   1.462   3.755
67538W        W28959  27.639  43.444  11.921
67539W        W28960  29.593   8.384   4.760
67540W        W28961   2.952  37.352  10.896
67541W        W28962  34.949   9.718  12.033
67542W        W28963  41.367  20.548  13.500
67543W        W28964  40.878  12.254   3.317
67544W        W28965  44.476  32.623  11.956
67545W        W28966  41.519  22.149  10.565
67546W        W28967  43.402  27.126   1.296
67547W        W28968  23.987  43.350   0.305
67548W        W28969  12.360   5.808  13.368
67549W        W28970  34.012  31.480   4.635
67550W        W28971   3.316  11.860   3.282
67551W        W28972  21.695   6.811  11.602
67552W        W28973  13.610  39.008  14.334
67553W        W28974  30.618  16.274  13.035
67554W        W28975  10.264  25.654   1.387
67555W        W28976  24.074  18.565   4.687
67556W        W28977   9.235   4.394   3.770
67557W        W28978  26.194  27.514   0.744
67558W        W28979  12.312  23.077   4.215
67559W        W28980  40.529  28.079   4.715
67560W        W28981  23.188  23.692  10.924
67561W        W28982  31.032  28.988  10.965
67562W        W28983  43.288   3.369   1.729
67563W        W28984  42.446  43.413  14.940
67564W        W28985  19.251  20.716  11.518
67565W        W28986  33.397  43.806  14.454
67566W        W28987  30.908  21.104   1.788
67567W        W28988  21.169   6.727   3.200
67568W        W28989  34.001   5.362   2.817
67569W        W28990  35.416  28.179  12.566
67570W        W28991   1.760  42.330  14.989
67571W        W28992   3.353   9.327   0.801
67572W        W28993   7.223  42.877   4.226
67573W        W28994   5.220   0.348   2.803
67574W        W28995   3.916  15.102   0.860
67575W        W28996  16.075  25.129   3.719
67576W        W28997  23.518   7.758   4.724
67577W        W28998  24.172   3.774  14.462
67578W        W28999  21.094  10.176  11.553
67579W        W29000   6.240   9.754   1.249
67580W        W29001   0.451  17.293  11.474
67581W        W29002  31.491  11.147  12.354
67582W        W29003   3.766   0.305   0.839
67583W        W29004  18.718  20.595  13.976
67584W        W29005   8.404  11.146   0.840
67585W        W29006   9.232  40.377   5.133
67586W        W29007  17.268  37.968  12.941
67587W        W29008  15.204   7.894  13.428
67588W        W29009   1.811   0.391  12.509
67589W        W29010  34.066  20.693  13.803
67590W        W29011  44.843  10.174  10.067
67591W        W29012  18.560   5.768  11.946
67592W        W29013  36.009   0.412   3.359
67593W        W29014  44.357  23.588   0.732
67594W        W29015  38.506  29.483   2.722
67595W        W29016  39.481  26.147   0.292
67596W        W29017   0.756  44.476  14.868
67597W        W29018  38.474  11.843  14.776
67598W        W29019   4.857  12.315  13.847
67599W        W29020  16.747  43.851   4.328
67600W        W29021  23.530   0.939  13.955
67601W        W29022  15.123  41.912  10.571
67602W        W29023  36.870  32.519   3.650
67603W        W29024  26.132   6.223  13.034
67604W        W29025   3.943   0.936  12.071
67605W        W29026  23.659  15.085   0.912
67606W        W29027  41.832  42.283  10.497
67607W        W29028  23.563  18.098   4.145
67608W        W29029  33.437   0.309  12.831
67609W        W29030  43.311  30.506   4.675
67610W        W29031   6.394  14.590   4.713
67611W        W29032  18.126   0.378  14.901
67612W        W29033   5.387  12.664  14.434
67613W        W29034  36.428  18.106  13.539
67614W        W29035  42.925  37.470  12.365
67615W        W29036  29.622  39.336  14.396
67616W        W29037   6.795  18.629  12.343
67617W        W29038  30.122   5.831  13.017
67618W        W29039  44.765  31.972  14.853
67619W        W29040   5.898  44.411  11.947
67620W        W29041  36.998  31.934  13.985
67621W        W29042  37.039   1.767   4.801
67622W        W29043  42.914  17.271   3.792
67623W        W29044   6.290  10.777   0.282
67624W        W29045  22.094  23.505  14.325
67625W        W29046  38.547  11.197   1.229
67626W        W29047  31.141  37.997   0.310
67627W        W29048  13.628  43.883   2.192
67628W        W29049   3.447  18.140  11.547
67629W        W29050   7.860  31.563   2.815
67630W        W29051  17.218  37.055   0.770
67631W        W29052  24.082  34.984   5.103
67632W        W29053   9.727  26.206   1.871
67633W        W29054  43.978   5.364   2.715
67634W        W29055  13.339  24.146  13.337
67635W        W29056  34.029  39.548  14.496
67636W        W29057  25.970  38.497  14.894
67637W        W29058  14.598  29.438  12.385
67638W        W29059   6.336  15.782   3.364
67639W        W29060  15.740   9.259   2.832
67640W        W29061   6.817   0.275  10.901
67641W        W29062  21.564  31.019  10.631
67642W        W29063  10.705  37.547  12.826
67643W        W29064  14.832  28.008   4.204
67644W        W29065   5.737   9.214  11.029
67645W        W29066  39.909  35.947   1.351
67646W        W29067  40.325  42.384   3.295
67647W        W29068   1.893  30.023  10.971
67648W        W29069   3.331   3.384   5.139
67649W        W29070  16.734   2.245   1.322
67650W        W29071  31.574   8.327  13.045
67651W        W29072  13.840  42.347   3.798
67652W        W29073  12.231  14.318   4.196
67653W        W29074  33.456  11.712   4.808
67654W        W29075  33.996  32.105   4.251
67655W        W29076  37.422   3.283  10.517
67656W        W29077  30.065   0.934  13.515
67657W        W29078  23.042  27.653   4.838
67658W        W29079  43.842  13.205  13.882
67659W        W29080   7.353   4.372  12.071
67660W        W29081  16.764  24.558   2.745
67661W        W29082  17.785  28.661  11.996
67662W        W29083  21.697   4.443  10.622
67663W        W29084  35.578  30.485   1.703
67664W        W29085  35.879  42.406  11.003
67665W        W29086  10.861  26.662  11.943
67666W        W29087  19.612  11.246  13.815
67667W        W29088  21.738  23.241   3.174
67668W        W29089  29.095   9.715   2.366
67669W        W29090  22.727  42.294  13.541
67670W        W29091  44.286  21.713   3.342
67671W        W29092   6.239  11.861   3.735
67672W        W29093  27.553  34.083  12.091
67673W        W29094  16.706  36.944  12.529
67674W        W29095  34.373   9.730  11.436
67675W        W29096   3.812   3.382   2.411
67676W        W29097  19.146  31.567  14.276
67677W        W29098  16.643  32.608   3.677
67678W        W29099  36.539  23.092   3.261
67679W        W29100  13.641  22.563   2.705
67680W        W29101  44.278   1.778   3.812
67681W        W29102  40.806  29.648  12.875
67682W        W29103  43.895  33.981  13.321
67683W        W29104  22.521  17.690   3.245
67684W        W29105  23.497  16.773  12.554
67685W        W29106   8.218   5.738  12.872
67686W        W29107   4.829   1.939   2.816
67687W        W29108  27.117  44.268  12.865
67688W        W29109  42.948  10.753   3.661
67689W        W29110  30.537  11.709   0.799
67690W        W29111  41.915  44.010  12.946
67691W        W29112  29.591  27.197  11.918
67692W        W29113  39.822  34.938   0.284
67693W        W29114  35.025  12.787   2.243
67694W        W29115  26.585  28.163  11.530
67695W        W29116  34.597  35.485   1.311
67696W        W29117  26.123   8.783  10.571
67697W        W29118  40.889  17.211  14.019
67698W        W29119   0.973  36.530  13.950
67699W        W29120  34.048  15.187  11.946
67700W        W29121  38.847  19.058   4.296
67701W        W29122  24.614  35.864  10.907
67702W        W29123  10.290  34.991  10.047
67703W        W29124  17.766  16.208   3.684
67704W        W29125  16.307  37.380   9.942
67705W        W29126  32.431   0.963  12.502
67706W        W29127  13.187  31.055  11.978
67707W        W29128   6.231  18.255   3.357
67708W        W29129   1.761  20.213   5.124
67709W        W29130  10.753  24.046   3.867
67710W        W29131  33.576  19.670  13.375
67711W        W29132  29.459   5.747  14.503
67712W        W29133  39.825   1.863  11.529
67713W        W29134   7.739  43.412  12.867
67714W        W29135  11.344   9.749   3.255
67715W        W29136  14.678   5.836   1.386
67716W        W29137  17.575  33.127  11.030
67717W        W29138   5.723   1.265   4.198
67718W        W29139   6.899   9.185   1.926
67719W        W29140  14.744   8.313   2.330
67720W        W29141  23.149  18.698  12.853
67721W        W29142  12.655  30.113   0.929
67722W        W29143  40.801  19.738   4.200
67723W        W29144   3.273  10.760  12.054
67724W        W29145  42.392  17.196   2.317
67725W        W29146  12.750  32.052  11.994
67726W        W29147   0.795   4.248   2.853
67727W        W29148  35.600   6.209  10.986
67728W        W29149  30.037   6.820   4.653
67729W        W29150  43.442  31.015  14.956
67730W        W29151   0.257  10.695  10.628
67731W        W29152  17.146   9.367  14.450
67732W        W29153   2.370  16.297   4.739
67733W        W29154  15.278  24.172  13.929
67734W        W29155  43.843  30.105   2.837
67735W        W29156  27.012   8.308   1.739
67736W        W29157  33.057   5.404   4.175
67737W        W29158  43.010  17.094  11.971
67738W        W29159  41.948  26.138   0.442
67739W        W29160   6.864  10.143  13.897
67740W        W29161  33.416  38.448   4.122
67741W        W29162   9.315  25.671  14.821
67742W        W29163  19.665  18.198  13.864
67743W        W29164  37.044  39.486  13.385
67744W        W29165  42.872  33.007  10.549
67745W        W29166  26.050  15.129   0.347
67746W        W29167  30.071   8.862  12.843
67747W        W29168   1.323  44.956   4.141
67748W        W29169  11.302  43.943  11.094
67749W        W29170  35.493  13.599  12.357
67750W        W29171   9.219  42.357   9.941
67751W        W29172   2.381  19.066   4.287
67752W        W29173   8.782  28.942   3.342
67753W        W29174  20.053  22.128  10.581
67754W        W29175  37.413   4.440  10.486
67755W        W29176   5.808  36.056  11.118
67756W        W29177  24.507  40.827   2.684
67757W        W29178   6.687  28.170   0.776
67758W        W29179  13.844  22.081   3.745
67759W        W29180   9.713  20.551  13.005
67760W        W29181  12.842  16.726  13.011
67761W        W29182  22.179  17.158   2.359
67762W        W29183  30.464   8.189  10.590
67763W        W29184  37.514   4.326   3.652
67764W        W29185  32.547  28.984  12.826
67765W        W29186  23.119  16.117   4.294
67766W        W29187   8.358  39.521  13.345
67767W        W29188   4.378  28.057   1.796
67768W        W29189   5.379  19.774   2.259
67769W        W29190   8.655  36.917  11.045
67770W        W29191  19.194  41.012   3.166
67771W        W29192  36.426   0.248  12.914
67772W        W29193   2.953  44.803   2.827
67773W        W29194  15.294   2.804   0.248
67774W        W29195   1.865   3.282  10.617
67775W        W29196  22.143   4.354   3.320
67776W        W29197  13.227  20.255  11.092
67777W        W29198   6.848  15.655  12.869
67778W        W29199  13.806  11.787   0.811
67779W        W29200  42.004   0.866  10.603
67780W        W29201  24.479  30.067   0.291
67781W        W29202  11.783  25.099  10.449
67782W        W29203  32.587  17.710   4.298
67783W        W29204   9.758  29.036   2.752
67784W        W29205  25.121   5.411   9.621
67785W        W29206  22.614  35.935   0.925
67786W        W29207  13.818  34.005   3.147
67787W        W29208  30.138  33.967   0.936
67788W        W29209   8.209  36.905   4.146
67789W        W29210  20.732  35.853  10.511
67790W        W29211  37.005  13.147   3.346
67791W        W29212   2.264   2.845   2.868
67792W        W29213  11.752   9.837   2.831
67793W        W29214  43.857  41.793   2.682
67794W        W29215  32.065  24.108  13.476
67795W        W29216  22.522  22.060   2.774
67796W        W29217  23.020   7.904   2.696
67797W        W29218  19.596  18.282  11.401
67798W        W29219   0.314  25.111  12.468
67799W        W29220  17.201  24.155   3.265
67800W        W29221  29.447  36.979  12.437
67801W        W29222   1.819  11.823  13.441
67802W        W29223  21.638  16.648   1.722
67803W        W29224  19.127  10.688  10.557
67804W        W29225  30.050  10.248   2.808
67805W        W29226   2.328   5.396  12.028
67806W        W29227  20.735  10.252   0.295
67807W        W29228  25.027  15.115  12.879
67808W        W29229  30.466  33.011  13.345
67809W        W29230   9.730  27.454   2.740
67810W        W29231  16.651  43.320  11.123
67811W        W29232  29.995  25.132  11.485
67812W        W29233  17.741  32.107  13.455
67813W        W29234  14.150  40.397   0.770
67814W        W29235   0.853   0.877  11.589
67815W        W29236   8.171  10.872   4.279
67816W        W29237  19.064  15.255  13.924
67817W        W29238  26.997   8.189   4.690
67818W        W29239  25.079   1.411   2.831
67819W        W29240  42.387  43.491  13.878
67820W        W29241  41.798  29.479   4.775
67821W        W29242  27.994  28.163   5.140
67822W        W29243  40.407  13.108  13.359
67823W        W29244  10.671  30.111  10.463
67824W        W29245  19.165   7.288  10.502
67825W        W29246   5.365  18.647   2.724
67826W        W29247  35.982  41.504   0.840
67827W        W29248   1.417   7.212   1.386
67828W        W29249  15.131  32.436  12.877
67829W        W29250  22.697   0.913   2.228
67830W        W29251   5.913  29.069  14.027
67831W        W29252  29.506  39.004  13.056
67832W        W29253  16.183  10.705  12.843
67833W        W29254  10.844  32.539   4.703
67834W        W29255   8.166  39.402  10.577
67835W        W29256  22.131  38.513   0.328
67836W        W29257  17.698   5.866  11.856
67837W        W29258  15.201  14.204   1.425
67838W        W29259  34.514   9.363   2.816
67839W        W29260   1.347  21.665   1.293
67840W        W29261  10.165  43.813   3.643
67841W        W29262   8.789  12.692  10.443
67842W        W29263  40.507  41.344   2.673
67843W        W29264  14.742  14.620   1.386
67844W        W29265   2.774  32.041  14.003
67845W        W29266  15.325  23.008   1.343
67846W        W29267  43.284  31.592  13.063
67847W        W29268  14.307  44.910  10.578
67848W        W29269   7.814   9.260  12.823
67849W        W29270   1.827   3.953  11.468
67850W        W29271  34.441   9.204  11.878
67851W        W29272   3.264  13.687   1.384
67852W        W29273  37.382  31.001  14.928
67853W        W29274  33.910  33.569   4.795
67854W        W29275   6.815  33.541   2.894
67855W        W29276  28.575  39.504   0.896
67856W        W29277  34.113  34.933   3.164
67857W        W29278  41.356  13.154   3.166
67858W        W29279   4.395  43.899  10.628
67859W        W29280  12.621  10.796  13.419
67860W        W29281  44.442  43.308   2.250
67861W        W29282  36.899  21.574   2.200
67862W        W29283  27.507  19.046  11.125
67863W        W29284  18.762  31.929   2.195
67864W        W29285  42.935   1.792  14.454
67865W        W29286  37.007   2.721  13.476
67866W        W29287   0.849  10.819  12.974
67867W        W29288   2.326  36.391  10.953
67868W        W29289  44.296  40.984  13.424
67869W        W29290  36.484   0.253   1.728
67870W        W29291  19.226  24.479   4.203
67871W        W29292  42.985  34.864  12.860
67872W        W29293  15.716  42.464   2.771
67873W        W29294   7.239   0.293   3.225
67874W        W29295  29.086  12.191  10.415
67875W        W29296  43.437   1.400   0.437
67876W        W29297  23.113  33.544  10.585
67877W        W29298  41.394  11.198   1.734
67878W        W29299  29.439  32.099   1.320
67879W        W29300  39.970  44.344   4.228
67880W        W29301   9.656   4.817   3.158
67881W        W29302  28.048  16.733   4.173
67882W        W29303   1.250  12.723   3.161
67883W        W29304   6.694  32.442  11.897
67884W        W29305   2.264  31.436  14.359
67885W        W29306  40.925  31.594  11.062
67886W        W29307  16.124  12.685  13.512
67887W        W29308  43.827  30.962  13.895
67888W        W29309   3.920  33.561   2.343
67889W        W29310   4.803  19.672   2.243
67890W        W29311  43.331  28.494   3.272
67891W        W29312  23.646  24.632   1.818
67892W        W29313   3.857  44.932  12.033
67893W        W29314   1.445  20.238   2.747
67894W        W29315  38.391   4.944   2.682
67895W        W29316   2.821  30.042  11.599
67896W        W29317   7.911  10.269  12.517
67897W        W29318  11.713  11.147  13.954
67898W        W29319  17.138  18.143  14.989
67899W        W29320  25.042  25.120  14.486
67900W        W29321  40.005  35.431  13.899
67901W        W29322  38.867  16.574   1.869
67902W        W29323  28.934   8.401   4.801
67903W        W29324   3.823  14.113  13.317
67904W        W29325  34.573   2.783   2.260
67905W        W29326   3.934  12.336   0.931
67906W        W29327  12.704   0.807   1.317
67907W        W29328  22.201  34.053  12.453
67908W        W29329  42.026  39.531   0.348
67909W        W29330  42.322  35.103  13.393
67910W        W29331  17.573  10.683  13.800
67911W        W29332  43.433  14.741   5.730
67912W        W29333  33.486   4.333   2.828
67913W        W29334  32.033  11.776  12.515
67914W        W29335  15.292  33.063   9.564
67915W        W29336  22.678  34.417   3.687
67916W        W29337  10.212  39.816  13.394
67917W        W29338   0.455   4.778   0.410
67918W        W29339  41.345  18.616   0.313
67919W        W29340   5.195  17.070  12.998
67920W        W29341  18.698  13.666  12.022
67921W        W29342  16.722  14.779  14.292
67922W        W29343   7.781  39.477   3.219
67923W        W29344  43.891  28.119  10.941
67924W        W29345  21.074  32.076  12.342
67925W        W29346  34.501   0.830   9.554
67926W        W29347  27.978   9.771  12.474
67927W        W29348  39.036  17.734  13.998
67928W        W29349   0.812   7.282  12.386
67929W        W29350  24.057  33.600  12.839
67930W        W29351  15.163  10.296   2.309
67931W        W29352  40.052  14.796  12.068
67932W        W29353   3.733  30.021  13.968
67933W        W29354  28.107  11.247  11.988
67934W        W29355  31.060   0.935   3.177
67935W        W29356   1.372  32.911  10.557
67936W        W29357  11.288   5.197  10.898
67937W        W29358  10.776  43.928   1.355
67938W        W29359  37.914  10.173   2.830
67939W        W29360  27.553  15.803   1.924
67940W        W29361  12.693  23.678  10.535
67941W        W29362  23.084   9.307   1.738
67942W        W29363  24.563  10.673   0.921
67943W        W29364  10.164  35.526  12.938
67944W        W29365   4.399   8.189   1.412
67945W        W29366  38.879  24.034   4.349
67946W        W29367   6.188  22.227   0.833
67947W        W29368   2.894  33.015   1.896
67948W        W29369  11.181  37.898  12.004
67949W        W29370  16.081  33.985  10.626
67950W        W29371  32.438   5.240  12.515
67951W        W29372   0.470  16.719   4.196
67952W        W29373  12.769  17.092  11.587
67953W        W29374  26.574  11.679   5.215
67954W        W29375  26.161  24.530   1.444
67955W        W29376   0.790  31.073  11.871
67956W        W29377  10.308  39.824  11.468
67957W        W29378   5.438  14.667   4.835
67958W        W29379  18.626  32.507  10.460
67959W        W29380  36.465   7.665   2.222
67960W        W29381  12.253  21.148  14.961
67961W        W29382  26.499  26.499  13.816
67962W        W29383  41.907  37.374  12.435
67963W        W29384  27.943  36.976  13.469
67964W        W29385  30.924  26.168   3.633
67965W        W29386   5.696  43.311  10.987
67966W        W29387  30.605  18.711   3.867
67967W        W29388  34.993  35.917   5.159
67968W        W29389  12.848  34.431  13.919
67969W        W29390  10.780  22.684  11.941
67970W        W29391  10.804   4.418  12.376
67971W        W29392  22.505  34.461  13.932
67972W        W29393   4.246  42.460  11.964
67973W        W29394  23.229  21.133   2.385
67974W        W29395  20.194   6.387   3.674
67975W        W29396  42.901  42.948   3.726
67976W        W29397  22.023  34.997  11.891
67977W        W29398  10.651  42.403   2.870
67978W        W29399   1.975  34.601   2.903
67979W        W29400   3.258  18.681  14.818
67980W        W29401  10.343   6.749   3.766
67981W        W29402  41.531  37.449  12.050
67982W        W29403  18.660  38.858   0.728
67983W        W29404  35.855   9.742   0.307
67984W        W29405  24.018  28.965  12.986
67985W        W29406  21.719  36.437  11.868
67986W        W29407  21.643  36.358   1.925
67987W        W29408  21.251   8.387   0.422
67988W        W29409  23.214  14.796   0.282
67989W        W29410  39.433  34.932  10.431
67990W        W29411   3.253  28.504  11.493
67991W        W29412  23.512  18.725   1.738
67992W        W29413  13.162  37.888   2.836
67993W        W29414  44.401  28.531  12.419
67994W        W29415  13.149  12.726  14.802
67995W        W29416  31.504  29.558   0.474
67996W        W29417  30.057  14.704  11.458
67997W        W29418  15.733  38.953   2.801
67998W        W29419  44.317  33.960   3.730
67999W        W29420  14.643   9.224   4.832
68000W        W29421   4.231  38.505   4.634
68001W        W29422  25.480  32.034  12.917
68002W        W29423   6.774   2.827   9.512
68003W        W29424   8.323   8.352  14.337
68004W        W29425  16.308   1.883  13.984
68005W        W29426  22.517   6.901  10.118
68006W        W29427  11.681  32.606  14.373
68007W        W29428  43.789  39.941  13.970
68008W        W29429  23.673   6.245  14.275
68009W        W29430   0.787  31.553   0.385
68010W        W29431  28.072   9.832   4.343
68011W        W29432  33.625  18.598   3.630
68012W        W29433  36.572  24.997  10.942
68013W        W29434   8.168  44.919  13.038
68014W        W29435  20.173  18.609   2.782
68015W        W29436   2.893  10.360  13.063
68016W        W29437  12.141  34.535  13.308
68017W        W29438   9.815  10.780  11.420
68018W        W29439  41.838  15.138  11.963
68019W        W29440  12.330   9.243  10.962
68020W        W29441  19.208  30.917  13.340
68021W        W29442  26.075  15.746  11.029
68022W        W29443  31.055  29.006   0.930
68023W        W29444  18.706  35.861  11.070
68024W        W29445   2.942  14.153  13.911
68025W        W29446   9.742  31.140   1.915
68026W        W29447  26.605  11.197   3.736
68027W        W29448  15.144  39.066  11.515
68028W        W29449   6.369  24.521   0.768
68029W        W29450   7.671   0.377  10.540
68030W        W29451  43.331  35.417   4.781
68031W        W29452  17.779  23.090   3.857
68032W        W29453  22.178   1.891  14.421
68033W        W29454  38.970  27.945   0.438
68034W        W29455  28.506  42.313   0.470
68035W        W29456  24.503  38.057   0.808
68036W        W29457  39.542  20.244   0.381
68037W        W29458  27.459  32.047   1.297
68038W        W29459   5.405  37.018   0.482
68039W        W29460   7.380  12.837  11.521
68040W        W29461  42.967  38.968  14.504
68041W        W29462   5.810  36.925  13.812
68042W        W29463   0.305   0.448   0.822
68043W        W29464  18.728  17.296  14.380
68044W        W29465  43.323   5.876  12.372
68045W        W29466  22.012  17.715  13.047
68046W        W29467  29.167   6.744   2.417
68047W        W29468  24.664  23.493  10.942
68048W        W29469  20.603  23.647   4.705
68049W        W29470  31.497  20.182   3.665
68050W        W29471  31.933  17.729  13.816
68051W        W29472  44.270  38.407   1.339
68052W        W29473  41.381  24.060   0.451
68053W        W29474   8.175  20.096   4.345
68054W        W29475  37.004  23.035  14.495
68055W        W29476  37.547  18.095  11.936
68056W        W29477   8.894  34.426  11.857
68057W        W29478  44.886   6.203  11.050
68058W        W29479  24.564  36.404   1.361
68059W        W29480   9.759   3.237   9.947
68060W        W29481  38.948   4.758   0.843
68061W        W29482   6.423  21.524   4.315
68062W        W29483  38.937  30.076  11.091
68063W        W29484   9.693  11.685   0.928
68064W        W29485   7.745  35.596  14.432
68065W        W29486  32.135   2.867   0.295
68066W        W29487  33.598  40.324  13.818
68067W        W29488   5.390  27.607  11.496
68068W        W29489  10.271  29.605  14.801
68069W        W29490  21.227  21.187  13.410
68070W        W29491   3.454  36.428  12.832
68071W        W29492   1.249  37.418   9.994
68072W        W29493  22.020  36.035   3.369
68073W        W29494  27.629   2.440   1.759
68074W        W29495  24.516  36.875   0.792
68075W        W29496  25.141   6.860   3.247
68076W        W29497  41.923  30.435   2.744
68077W        W29498  32.544  34.537  13.468
68078W        W29499  44.325  11.289  13.441
68079W        W29500  30.134   7.803  12.903
68080W        W29501   2.227  16.636  10.525
68081W        W29502  12.801  42.859  13.307
68082W        W29503  30.104  10.765   1.236
68083W        W29504  22.534   5.317  13.429
68084W        W29505   5.930   3.221  12.539
68085W        W29506  15.773   8.231   5.273
68086W        W29507  19.124  10.335   0.360
68087W        W29508  32.412  20.132   1.314
68088W        W29509  40.961  32.498   2.351
68089W        W29510   3.364  42.435  14.390
68090W        W29511  23.565  33.923  13.484
68091W        W29512  30.575   4.442   0.958
68092W        W29513   4.334   8.742   0.415
68093W        W29514  43.388   1.883  13.986
68094W        W29515  36.436  14.280  12.855
68095W        W29516  44.936  13.181   0.924
68096W        W29517  40.893  25.004  13.366
68097W        W29518  26.534   7.278   4.816
68098W        W29519  20.596   6.916   3.771
68099W        W29520  33.434  32.981  14.276
68100W        W29521   2.397  44.319   1.729
68101W        W29522   4.449  43.866  12.846
68102W        W29523  26.504  30.618   2.804
68103W        W29524  13.128   1.949  12.092
68104W        W29525  16.625  31.638   4.134
68105W        W29526   9.808  14.161   5.194
68106W        W29527  17.632   1.959  11.069
68107W        W29528  44.754  29.997  13.948
68108W        W29529  13.832   5.404  13.878
68109W        W29530  43.791  17.652  10.907
68110W        W29531  30.136  36.593  13.973
68111W        W29532  17.291   6.377  10.478
68112W        W29533  42.481   1.797  12.986
68113W        W29534  15.810  42.778  11.070
68114W        W29535  40.982  43.482  11.421
68115W        W29536  24.604  38.065  10.985
68116W        W29537  12.620  36.908  10.619
68117W        W29538  10.249   3.719  11.592
68118W        W29539   3.380  42.331   0.477
68119W        W29540  18.744  37.989  12.399
68120W        W29541  40.523  38.961  12.037
68121W        W29542  31.490   5.249   2.185
68122W        W29543   5.407   1.443  11.126
68123W        W29544  27.573  22.602   1.695
68124W        W29545  34.919  38.332  14.799
68125W        W29546  43.508  12.172   1.877
68126W        W29547  30.032  44.933  11.864
68127W        W29548  21.552  11.669  13.037
68128W        W29549  13.199   7.698   3.742
68129W        W29550  42.877  42.827   0.386
68130W        W29551  42.948  39.031  10.493
68131W        W29552  31.439  30.538   1.234
68132W        W29553  31.524  21.262  10.936
68133W        W29554  44.299   9.326  14.983
68134W        W29555  42.909  17.139  13.029
68135W        W29556  24.619  18.558  13.807
68136W        W29557  16.708  43.305  12.896
68137W        W29558  11.211  42.426  13.493
68138W        W29559  32.972  31.034   1.226
68139W        W29560  14.135  11.788  11.886
68140W        W29561  22.083   6.884   4.648
68141W        W29562   2.368  17.066   4.604
68142W        W29563   9.656  19.708   2.246
68143W        W29564  24.190  41.299   3.654
68144W        W29565  35.424  31.561  11.974
68145W        W29566  25.117  27.008   3.316
68146W        W29567  22.070   4.822  13.855
68147W        W29568   0.363  24.201   4.305
68148W        W29569  30.034  43.850  12.349
68149W        W29570   6.792  34.439  13.309
68150W        W29571  19.708  28.565  10.565
68151W        W29572  44.961  37.988   2.722
68152W        W29573  11.151  32.056  14.300
68153W        W29574  32.115   4.783  12.921
68154W        W29575   4.933  18.708  11.403
68155W        W29576  19.579  30.518  11.056
68156W        W29577  14.268  35.505  11.445
68157W        W29578  25.688  19.653  14.860
68158W        W29579  37.904  35.363  11.490
68159W        W29580  34.412  33.989   2.877
68160W        W29581  13.687  25.609  10.404
68161W        W29582  42.372  34.907  12.560
68162W        W29583  33.601  27.453  12.874
68163W        W29584  36.479  36.558   4.763
68164W        W29585  41.309  33.029  13.460
68165W        W29586  42.453  34.884  11.957
68166W        W29587  21.212   9.382  12.352
68167W        W29588  14.284  38.367  13.939
68168W        W29589  11.216  15.699   2.707
68169W        W29590  16.738  34.033   0.296
68170W        W29591  44.465  15.103   0.921
68171W        W29592   2.828  19.072  11.381
68172W        W29593  19.190  39.483  14.491
68173W        W29594  10.191  14.746  13.442
68174W        W29595  19.247   4.329   2.823
68175W        W29596   0.824  18.722   3.796
68176W        W29597   8.317   4.772  11.880
68177W        W29598  22.708  29.653  13.842
68178W        W29599  42.303  40.907   1.391
68179W        W29600  44.998  18.664   0.334
68180W        W29601  22.021  13.830  11.576
68181W        W29602  22.687  14.770   3.795
68182W        W29603  41.300  35.569  11.889
68183W        W29604  23.689  12.304   4.275
68184W        W29605   7.751  26.108  13.057
68185W        W29606   7.214  19.707  11.505
68186W        W29607  43.395  27.990   1.700
68187W        W29608  23.067  21.018   3.263
68188W        W29609  29.005  22.088  14.396
68189W        W29610  31.151  36.568   3.720
68190W        W29611   7.669  16.615   2.345
68191W        W29612  44.878  16.812  12.846
68192W        W29613  18.569  39.852  14.941
68193W        W29614  30.462  43.292  10.568
68194W        W29615  13.638  18.063  13.410
68195W        W29616   3.734  11.776   9.950
68196W        W29617  28.174  18.776   4.765
68197W        W29618  40.446  21.734  10.511
68198W        W29619  27.097  27.163  13.530
68199W        W29620  32.987  20.205   0.940
68200W        W29621  11.207  42.522  14.861
68201W        W29622  40.832  32.963  13.469
68202W        W29623  31.648  42.283   1.270
68203W        W29624  28.022  35.492  14.321
68204W        W29625  38.489   6.914  14.919
68205W        W29626  11.349  22.511   2.186
68206W        W29627  40.475   5.254   3.752
68207W        W29628   6.907  29.481  13.309
68208W        W29629  43.471  21.620   0.359
68209W        W29630  38.949  12.800   1.377
68210W        W29631  30.631   3.262  11.110
68211W        W29632  36.056   2.798   1.763
68212W        W29633  23.636   1.838   3.682
68213W        W29634  27.110  22.144  10.889
68214W        W29635  17.113  11.630   2.872
68215W        W29636  23.194  31.081   0.881
68216W        W29637  35.955   9.222  14.330
68217W        W29638   9.151  10.146   4.260
68218W        W29639   3.251  17.656   0.840
68219W        W29640   2.291  43.327   2.277
68220W        W29641  32.004  31.019  13.925
68221W        W29642  17.713  19.207   2.410
68222W        W29643  13.695   5.711   3.782
68223W        W29644   3.814  24.206  13.844
68224W        W29645  13.642  26.617   4.836
68225W        W29646  39.993  42.306  14.996
68226W        W29647  27.964  37.565  10.153
68227W        W29648  17.756  15.087   2.850
68228W        W29649  22.175   2.956  13.523
68229W        W29650  22.216  43.404   3.162
68230W        W29651  34.568  29.452  12.088
68231W        W29652   7.685  44.990  11.018
68232W        W29653  32.584   8.848  12.894
68233W        W29654  34.550  41.536  13.954
68234W        W29655   9.877  17.676  13.515
68235W        W29656   6.236   9.790   4.799
68236W        W29657  39.811  33.394   0.868
68237W        W29658  25.679   3.368  14.923
68238W        W29659  27.575  20.524   2.868
68239W        W29660  27.604  22.715  14.466
68240W        W29661   2.796  10.635   0.961
68241W        W29662   1.750  17.279   1.353
68242W        W29663  18.279   3.753   0.460
68243W        W29664  21.735  27.957   3.803
68244W        W29665   4.354  34.514  10.982
68245W        W29666  21.042  27.456  12.404
68246W        W29667  13.309   6.188  10.109
68247W        W29668  27.485  17.573   3.707
68248W        W29669   9.379  31.592  14.295
68249W        W29670   2.303  42.957  14.515
68250W        W29671   9.669  33.480  10.447
68251W        W29672  22.537  10.190   1.920
68252W        W29673   8.239   8.798  13.873
68253W        W29674  30.944  34.371  14.898
68254W        W29675  43.378  30.164   0.310
68255W        W29676   6.919  28.087   9.944
68256W        W29677  32.473  41.902  13.971
68257W        W29678  35.049   1.474  13.337
68258W        W29679  18.739  11.866   9.947
68259W        W29680  11.641   5.908  13.336
68260W        W29681   8.846  34.118   0.943
68261W        W29682  35.574  13.682  13.931
68262W        W29683   9.363   8.324   1.859
68263W        W29684  20.614  17.139  12.444
68264W        W29685  40.303  39.032  14.865
68265W        W29686  35.583  20.241  11.462
68266W        W29687  24.711  32.943  12.989
68267W        W29688   6.728  34.051  13.455
68268W        W29689  26.642  16.664  12.888
68269W        W29690  43.848  30.547  11.034
68270W        W29691  22.125  14.633  14.963
68271W        W29692  19.749   8.858  12.914
68272W        W29693  10.690   1.771  12.011
68273W        W29694  18.673  19.278   0.841
68274W        W29695  28.643   9.691   3.185
68275W        W29696  33.080  30.130  14.474
68276W        W29697  37.079  26.060   1.808
68277W        W29698  40.973  43.276  13.326
68278W        W29699  37.524  15.783  10.451
68279W        W29700   6.679  31.075  13.985
68280W        W29701  27.951  22.582  13.026
68281W        W29702  38.864  26.578  12.835
68282W        W29703  44.989   4.851  12.837
68283W        W29704   3.742  32.943  10.051
68284W        W29705  16.659  41.826   2.237
68285W        W29706  14.223  25.032   0.737
68286W        W29707  31.566  17.589   2.767
68287W        W29708  26.986  12.681   4.701
68288W        W29709  38.493  30.127  12.042
68289W        W29710  40.442   5.704   2.204
68290W        W29711  36.506  35.093  14.842
68291W        W29712  24.611  29.560  10.454
68292W        W29713  26.631  37.959   1.904
68293W        W29714  30.983  11.659   3.205
68294W        W29715  44.485  18.080   1.730
68295W        W29716  11.257  40.415  14.943
68296W        W29717   9.807  24.015   1.334
68297W        W29718  15.616   4.864  14.794
68298W        W29719  23.586  27.525  13.911
68299W        W29720  27.163   6.704   2.368
68300W        W29721  20.743  20.560   4.325
68301W        W29722  26.500  24.613   5.208
68302W        W29723  24.537  13.125   0.436
68303W        W29724  11.849  38.990  13.919
68304W        W29725   4.702  27.159  14.919
68305W        W29726   2.826  28.060  11.063
68306W        W29727  43.804  31.501  12.427
68307W        W29728  11.638  12.342   4.739
68308W        W29729  39.934  28.481   4.745
68309W        W29730  10.230  18.694  11.442
68310W        W29731  43.886  25.175   3.360
68311W        W29732   6.774  26.035  13.531
68312W        W29733  16.586  35.084  11.437
68313W        W29734  11.734   9.705  10.962
68314W        W29735  20.739  28.119  14.982
68315W        W29736  38.464  37.439  12.565
68316W        W29737  21.219  34.433   0.478
68317W        W29738  28.630  37.869   2.680
68318W        W29739  41.509  11.288   4.132
68319W        W29740  36.091  24.130   2.683
68320W        W29741   4.211  13.631   1.728
68321W        W29742  35.956  26.674   1.370
68322W        W29743   2.820  12.799   1.872
68323W        W29744  36.945  37.496   1.280
68324W        W29745  19.608  14.338   3.715
68325W        W29746   3.940  42.920  10.952
68326W        W29747   2.821  34.957  14.964
68327W        W29748  33.596  26.108   2.685
68328W        W29749  24.712  19.050   1.904
68329W        W29750   7.398  19.045  13.310
68330W        W29751  37.383  20.043  11.115
68331W        W29752  44.417  28.442  14.906
68332W        W29753  21.138  24.101   3.261
68333W        W29754  28.041  19.602  10.923
68334W        W29755  30.092  35.084   4.266
68335W        W29756   9.721  29.926   3.191
68336W        W29757  22.653   8.844  12.980
68337W        W29758  16.092  20.069   4.334
68338W        W29759  11.279   3.801   1.855
68339W        W29760   0.947   2.752  12.868
68340W        W29761  14.673  37.976  13.934
68341W        W29762   6.228  22.563  14.351
68342W        W29763  11.126   3.837  11.508
68343W        W29764  28.024  15.155  14.771
68344W        W29765  30.550   2.956  13.342
68345W        W29766   2.844  29.116  14.441
68346W        W29767  27.064   3.261   4.746
68347W        W29768  40.904  20.130  11.416
68348W        W29769  13.285  31.940  11.071
68349W        W29770  10.839   5.399  13.904
68350W        W29771  43.317  16.114  10.569
68351W        W29772  32.404  25.188  11.436
68352W        W29773  42.436  18.570   4.701
68353W        W29774  39.520  41.981  13.014
68354W        W29775  28.104  17.616  11.898
68355W        W29776  28.662  11.643  13.842
68356W        W29777  12.172  32.614   4.605
68357W        W29778  40.505   7.292  13.441
68358W        W29779  27.606   4.226   3.640
68359W        W29780  21.642  40.013   0.269
68360W        W29781  29.999  37.055   4.346
68361W        W29782  15.087   5.759   4.599
68362W        W29783   8.656  18.758   1.290
68363W        W29784  12.173  33.402  14.316
68364W        W29785  34.475  16.767  11.898
68365W        W29786  21.085  32.570   4.693
68366W        W29787  17.154  26.154  14.926
68367W        W29788   6.307  37.344   3.188
68368W        W29789   6.738  21.164  13.535
68369W        W29790  13.814   3.919   1.220
68370W        W29791  19.743   5.397   1.341
68371W        W29792   6.718  37.341   0.943
68372W        W29793  43.510  29.599  11.111
68373W        W29794  40.422  27.048  11.601
68374W        W29795   2.737  40.311  14.828
68375W        W29796  36.032  37.974  12.863
68376W        W29797  14.319   3.953   4.286
68377W        W29798   6.749  20.607   4.150
68378W        W29799  40.964  33.406  13.410
68379W        W29800  18.619  11.355  13.016
68380W        W29801  32.409  31.564  10.452
68381W        W29802   4.369  27.192   3.225
68382W        W29803  22.206   3.952   1.862
68383W        W29804  28.047   6.329  12.966
68384W        W29805   4.935   3.811   2.265
68385W        W29806  24.560  41.894  12.516
68386W        W29807  24.027  31.034   3.664
68387W        W29808  29.925  13.841   2.205
68388W        W29809   0.752   4.323  11.408
68389W        W29810  16.757  43.473   1.899
68390W        W29811  22.554  38.354   1.831
68391W        W29812  23.119   3.329   9.470
68392W        W29813  27.140  32.904  10.550
68393W        W29814  18.649  12.656  11.579
68394W        W29815  17.176  20.565  11.965
68395W        W29816  24.043   8.390  10.438
68396W        W29817  10.760   9.191   4.289
68397W        W29818  21.593  28.960   1.926
68398W        W29819  31.121  17.071  11.927
68399W        W29820  41.499  34.038  14.511
68400W        W29821  32.915  15.639   1.256
68401W        W29822   9.257  30.930  11.107
68402W        W29823  42.485  39.317   1.829
68403W        W29824  34.464  26.545  12.569
68404W        W29825  36.455  30.110   1.805
68405W        W29826  17.183  36.025   3.722
68406W        W29827  12.857  33.400  14.771
68407W        W29828  12.625  27.992   0.758
68408W        W29829  14.324   8.767   1.244
68409W        W29830  39.392  18.258  11.913
68410W        W29831   6.321  35.442  14.023
68411W        W29832   4.374   1.877   0.934
68412W        W29833   6.718  15.579   1.236
68413W        W29834  24.046  35.075  10.928
68414W        W29835   8.287   3.348  13.537
68415W        W29836  20.114  40.016  12.550
68416W        W29837   7.779  11.177  14.281
68417W        W29838  18.073   4.449  11.865
68418W        W29839  15.817  44.467   0.778
68419W        W29840  17.781   9.237  12.032
68420W        W29841  40.046  42.932   4.200
68421W        W29842  13.167  34.605  11.116
68422W        W29843   8.894  35.950  11.020
68423W        W29844  21.705   5.861   0.418
68424W        W29845  18.694  34.497  12.552
68425W        W29846   7.864  21.058   2.881
68426W        W29847  44.852  27.184  14.489
68427W        W29848  39.915   8.234   3.686
68428W        W29849  11.856  32.601   1.855
68429W        W29850   1.313   5.248  12.988
68430W        W29851   6.210  31.978   4.645
68431W        W29852  38.922  31.922   4.710
68432W        W29853  19.547  37.432   2.801
68433W        W29854  37.363  18.236  14.891
68434W        W29855  34.395   0.256   5.233
68435W        W29856  21.729  26.497  11.453
68436W        W29857  37.351  26.518  13.526
68437W        W29858  33.122   7.883   1.768
68438W        W29859  24.066   6.233  14.899
68439W        W29860  20.232  30.063   2.680
68440W        W29861  10.174  38.993   1.766
68441W        W29862  42.802  24.126   4.309
68442W        W29863   4.891   0.381   1.785
68443W        W29864  24.027  18.558  12.400
68444W        W29865  44.753  32.400  14.856
68445W        W29866   0.263  22.252  12.031
68446W        W29867  24.576  33.117   2.739
68447W        W29868  39.037   9.231  10.522
68448W        W29869   2.880  28.097  10.586
68449W        W29870  31.963   5.862   3.329
68450W        W29871  42.920  36.957  11.053
68451W        W29872   8.217  20.131   3.199
68452W        W29873  26.021   5.761   2.822
68453W        W29874  20.661  34.975   4.170
68454W        W29875  22.518  32.626   2.394
68455W        W29876   5.687  35.451   4.727
68456W        W29877  37.394  40.038   1.870
68457W        W29878  30.133  30.972   2.217
68458W        W29879  41.788  36.085   3.631
68459W        W29880  13.105  16.653  10.496
68460W        W29881  17.239  18.671  14.502
68461W        W29882  25.592  24.211  12.571
68462W        W29883  25.031  10.685  11.093
68463W        W29884  42.361  15.582  11.515
68464W        W29885   9.178  43.929   4.265
68465W        W29886  41.454   2.467   4.635
68466W        W29887   1.736  27.503   1.821
68467W        W29888  29.503  28.034  13.403
68468W        W29889   6.233  22.585   2.898
68469W        W29890  25.541   5.798   5.570
68470W        W29891  27.182  12.656  14.836
68471W        W29892  12.618   1.934  11.509
68472W        W29893  22.187   9.236  10.942
68473W        W29894  11.346  31.990  13.393
68474W        W29895  24.156   1.851   1.737
68475W        W29896   0.904   0.399   2.839
68476W        W29897  18.680  28.001   2.182
68477W        W29898  43.942  35.013  13.955
68478W        W29899  39.315   1.933   0.783
68479W        W29900  29.655  30.046  14.394
68480W        W29901  42.502   7.891  12.930
68481W        W29902  39.970  34.463   0.264
68482W        W29903  42.412  11.165   0.755
68483W        W29904  36.947  31.511   0.772
68484W        W29905  17.723   9.655   1.743
68485W        W29906  30.050  38.900   3.693
68486W        W29907  10.769   0.818  13.894
68487W        W29908  43.468  27.139   1.895
68488W        W29909  25.099   0.982   2.258
68489W        W29910   7.270   2.434   2.308
68490W        W29911  42.865  25.477   2.697
68491W        W29912  12.726   7.719   3.781
68492W        W29913  38.357  40.331  13.543
68493W        W29914  11.150   9.249   1.317
68494W        W29915  33.891  29.470   4.647
68495W        W29916  25.153  18.194   4.183
68496W        W29917  42.495  42.354  13.392
68497W        W29918  39.444  15.634  14.879
68498W        W29919   7.703   5.222   1.836
68499W        W29920  18.608   8.730  11.040
68500W        W29921  23.541  24.074   4.610
68501W        W29922  10.697   9.241   3.662
68502W        W29923  13.298  20.559  13.954
68503W        W29924  27.495   3.822   0.810
68504W        W29925   9.742   7.819   0.379
68505W        W29926   2.829  25.149  13.961
68506W        W29927   3.798  17.159   0.878
68507W        W29928  13.216  37.340   2.216
68508W        W29929  29.586  34.943  11.112
68509W        W29930  23.542  36.858  14.364
68510W        W29931  17.556  29.172   4.628
68511W        W29932   5.357  36.927   3.332
68512W        W29933   9.238   3.835   0.355
68513W        W29934  18.605  36.957  10.638
68514W        W29935   1.339  29.019  10.000
68515W        W29936  23.533  12.303  12.571
68516W        W29937   3.821  19.188  11.925
68517W        W29938  38.444   0.979   3.809
68518W        W29939  23.719  31.542   3.634
68519W        W29940  14.261  36.842   0.458
68520W        W29941  15.724  26.697   3.357
68521W        W29942  43.957   2.268  13.851
68522W        W29943   0.824  12.245   3.716
68523W        W29944  42.030  33.885   4.352
68524W        W29945  30.625  39.365  12.412
68525W        W29946  29.949  12.739  13.328
68526W        W29947  15.650  42.421  12.856
68527W        W29948  29.558  35.017   2.684
68528W        W29949   7.809  40.942   1.707
68529W        W29950   1.300  24.703   0.864
68530W        W29951  29.085  26.155   4.184
68531W        W29952  32.096  34.424   3.654
68532W        W29953   9.695  19.732  11.501
68533W        W29954  42.388  22.069   1.734
68534W        W29955  36.907  38.431  11.081
68535W        W29956  43.955  35.109   0.930
68536W        W29957  42.011  41.359  11.013
68537W        W29958  15.742   6.855  13.985
68538W        W29959  40.041  34.935   3.302
68539W        W29960  38.405   1.870  11.927
68540W        W29961  31.529  37.521   4.165
68541W        W29962  15.199  29.999   3.341
68542W        W29963   2.406  14.332   1.417
68543W        W29964  36.895  21.676   0.443
68544W        W29965  43.509  34.535  12.065
68545W        W29966   0.792  16.073   3.201
68546W        W29967  33.032  34.486  10.616
68547W        W29968  37.447  44.975   0.458
68548W        W29969  26.967  32.431   4.203
68549W        W29970  30.511  27.528   1.831
68550W        W29971   2.777  40.822   3.700
68551W        W29972  23.155   1.245   1.861
68552W        W29973  20.742  13.249   3.836
68553W        W29974  21.184  43.348  13.497
68554W        W29975  36.951  28.037   0.895
68555W        W29976  38.036  30.649  14.987
68556W        W29977  38.511  24.087   1.235
68557W        W29978  42.993   3.907  13.802
68558W        W29979  43.475   3.381   5.211
68559W        W29980  15.769  13.174  13.045
68560W        W29981  17.703  32.602   3.773
68561W        W29982   3.778   5.310  13.477
68562W        W29983   3.909  38.511  10.923
68563W        W29984  41.413   6.299   1.745
68564W        W29985  18.192   5.913  11.865
68565W        W29986  25.499  32.964   3.264
68566W        W29987  36.002  38.489   2.731
68567W        W29988  38.848   8.723  13.971
68568W        W29989  17.741   1.271  12.959
68569W        W29990  10.258   0.891  12.877
68570W        W29991  23.128   1.968  12.388
68571W        W29992  13.678   2.906   3.145
68572W        W29993  26.526  15.616  11.516
68573W        W29994  12.845  28.528   0.952
68574W        W29995  10.678  21.252  10.985
68575W        W29996  31.540   7.862   1.446
68576W        W29997  33.949  27.008  12.937
68577W        W29998   8.290  21.690  13.857
68578W        W29999  38.524  32.952  13.420
68579W        W30000   1.898  42.887  10.953
68580W        W30001  13.226   5.782   0.880
68581W        W30002  15.669  15.634  12.944
68582W        W30003  26.182  25.158  12.477
68583W        W30004  29.140  27.069  11.424
68584W        W30005  24.488  12.242  11.546
68585W        W30006  22.576  26.683   0.468
68586W        W30007  43.939  18.089  12.906
68587W        W30008  44.894  40.424  14.467
68588W        W30009  14.115   3.385   1.887
68589W        W30010  36.451   6.398   3.760
68590W        W30011  36.067  22.505   0.418
68591W        W30012   9.175  33.105   0.920
68592W        W30013  27.498  36.028  10.618
68593W        W30014  21.165  41.931   1.908
68594W        W30015  27.656  18.766  11.485
68595W        W30016  27.597  32.550   1.343
68596W        W30017  18.179  42.825  13.327
68597W        W30018   9.303  11.680   1.360
68598W        W30019  31.565  18.244  11.037
68599W        W30020  11.855  41.514   1.932
68600W        W30021  35.930  21.558   1.741
68601W        W30022  22.162   3.460  10.542
68602W        W30023  28.596  43.979  13.824
68603W        W30024   2.741   0.373  14.512
68604W        W30025   3.309   8.753   2.244
68605W        W30026  33.419  20.711  12.072
68606W        W30027  23.639  21.758  12.458
68607W        W30028  37.958  19.685   4.609
68608W        W30029   3.276  18.088   1.868
68609W        W30030   4.343  19.647   3.258
68610W        W30031  12.691  30.019   4.709
68611W        W30032   1.754  34.538  12.020
68612W        W30033  33.062  33.427  14.969
68613W        W30034  23.678  44.985  13.343
68614W        W30035   8.310  37.005  11.595
68615W        W30036  37.503  31.035   1.243
68616W        W30037  38.535  24.606  11.388
68617W        W30038  37.060   0.949   2.290
68618W        W30039  37.523  13.766  11.031
68619W        W30040   0.280   3.413   4.262
68620W        W30041  31.051  43.863   3.337
68621W        W30042  34.450  11.188  12.984
68622W        W30043  17.678   0.433  13.834
68623W        W30044   8.176  22.038   3.791
68624W        W30045  23.097  28.075   2.220
68625W        W30046  12.155  34.904  14.361
68626W        W30047  15.233  40.512  10.614
68627W        W30048  33.893  15.214  14.298
68628W        W30049  14.303   8.736  14.295
68629W        W30050  22.692  31.031  11.096
68630W        W30051  40.961  36.075  10.640
68631W        W30052  16.732  11.187  10.546
68632W        W30053  31.522   3.802  13.867
68633W        W30054  10.686  32.051  13.503
68634W        W30055  14.662  18.210   1.309
68635W        W30056   6.278  14.625   4.117
68636W        W30057   1.876  44.801  12.372
68637W        W30058  18.092  19.666  11.964
68638W        W30059   6.899  19.697   0.951
68639W        W30060  31.542  44.401  12.949
68640W        W30061  22.520   9.704  14.821
68641W        W30062  30.434  40.395  11.522
68642W        W30063  44.407   8.669  12.928
68643W        W30064  29.442  21.068   0.394
68644W        W30065  23.220   2.432   1.210
68645W        W30066  20.745   5.376   9.658
68646W        W30067  25.575  10.769   3.786
68647W        W30068   9.760  43.365   1.293
68648W        W30069  25.543  14.696  14.508
68649W        W30070  40.351  16.085   0.323
68650W        W30071  18.670  32.528   1.310
68651W        W30072  28.015   4.340  14.850
68652W        W30073   2.263  38.890   2.317
68653W        W30074  30.502  24.978   4.780
68654W        W30075   5.689  16.619   1.352
68655W        W30076  40.053  11.680  12.056
68656W        W30077  38.861  26.647   1.270
68657W        W30078  36.964  14.753   0.906
68658W        W30079   1.797   2.457   0.361
68659W        W30080  25.686  17.269  11.888
68660W        W30081  39.330  13.657   0.930
68661W        W30082  25.115  15.590   5.265
68662W        W30083  19.628   7.288  13.007
68663W        W30084  27.506  24.020  10.589
68664W        W30085  43.831   7.367  12.439
68665W        W30086   3.326  10.846  14.953
68666W        W30087  44.472  40.029   0.917
68667W        W30088  26.610  42.416  14.425
68668W        W30089  17.065  28.970   2.338
68669W        W30090   8.768   5.836  10.437
68670W        W30091  29.576  30.561  10.620
68671W        W30092  10.268   9.326   1.213
68672W        W30093  42.374  15.195  10.966
68673W        W30094   9.678  43.901   4.650
68674W        W30095  13.321   2.372  14.420
68675W        W30096  43.981  44.494  13.475
68676W        W30097   4.317  35.976   2.807
68677W        W30098  11.315   2.380  12.405
68678W        W30099  20.147   1.255   1.790
68679W        W30100  18.206  37.406   3.827
68680W        W30101  13.331  14.327   3.775
68681W        W30102  18.089  11.775   3.237
68682W        W30103  28.500   9.692  10.899
68683W        W30104  33.033  16.221   4.201
68684W        W30105  10.841  14.183  12.853
68685W        W30106  17.122  32.617   0.949
68686W        W30107  29.999   3.787  11.044
68687W        W30108   2.884  34.982   0.432
68688W        W30109  24.570   3.884  14.819
68689W        W30110   1.334  16.798   0.468
68690W        W30111   2.335  14.786   0.469
68691W        W30112   1.806   7.849  11.522
68692W        W30113   3.761  42.354  11.090
68693W        W30114  41.327  17.604   4.701
68694W        W30115  26.148  36.410   1.902
68695W        W30116  29.948  29.951  12.997
68696W        W30117  41.914  32.071   1.915
68697W        W30118  13.797  29.053  10.978
68698W        W30119  14.687   2.398  10.997
68699W        W30120   0.323  37.515  11.484
68700W        W30121  44.366  21.106   0.789
68701W        W30122  44.771  21.166   2.343
68702W        W30123  24.501  41.034   4.705
68703W        W30124  28.544  10.250  12.022
68704W        W30125  36.588  25.468   2.884
68705W        W30126  11.260  42.840   4.198
68706W        W30127  17.643  39.972  10.554
68707W        W30128  44.007  19.651  11.453
68708W        W30129   2.957  18.781  12.068
68709W        W30130  16.747  12.771   4.719
68710W        W30131  43.867  20.059   3.186
68711W        W30132  12.817  25.523  11.088
68712W        W30133  41.830   4.298   4.149
68713W        W30134  44.995  33.481   2.304
68714W        W30135   1.786  37.895  14.030
68715W        W30136   4.795  14.327  14.880
68716W        W30137   7.795  31.429   1.401
68717W        W30138  37.554  19.599  12.830
68718W        W30139   6.883  27.467  11.414
68719W        W30140  44.993  44.928  12.991
68720W        W30141   9.217  40.394   0.459
68721W        W30142   6.894  17.650  11.903
68722W        W30143   9.158  23.997   4.751
68723W        W30144  25.146   1.309   4.250
68724W        W30145  12.219  33.567   3.767
68725W        W30146  19.132  30.599   2.852
68726W        W30147   6.326  19.052   1.331
68727W        W30148  18.206  43.895  12.448
68728W        W30149  23.519  13.219  13.850
68729W        W30150  44.375  40.849  10.407
68730W        W30151  24.175   7.303   0.938
68731W        W30152  19.059  19.140   3.821
68732W        W30153  37.831  10.283  12.364
68733W        W30154   0.886  20.153   0.880
68734W        W30155   9.671   9.681   0.339
68735W        W30156   2.306  29.037  14.984
68736W        W30157  16.681  40.475   0.410
68737W        W30158   3.913  27.541  11.972
68738W        W30159  17.239  44.298  12.848
68739W        W30160   0.882   8.664  10.122
68740W        W30161  32.598  33.589   2.690
68741W        W30162   9.653  25.504   1.851
68742W        W30163   0.887  43.826  13.327
68743W        W30164  12.354  29.158   2.738
68744W        W30165  34.895  16.588   9.978
68745W        W30166  20.696  37.502   1.324
68746W        W30167  33.541  13.767  12.417
68747W        W30168  14.744  42.487   2.403
68748W        W30169   4.891   1.255   0.792
68749W        W30170   9.284  25.631   1.934
68750W        W30171   9.334  10.730  14.509
68751W        W30172  18.266  11.682   4.119
68752W        W30173  21.125  16.241   0.347
68753W        W30174  43.283   8.257  14.006
68754W        W30175   1.800   0.790   3.676
68755W        W30176   7.392  27.987   3.212
68756W        W30177  37.852  35.107   9.978
68757W        W30178   3.303  43.418  11.575
68758W        W30179  27.649  38.019  14.798
68759W        W30180  23.164  18.122   1.272
68760W        W30181  21.229  38.551   1.247
68761W        W30182  26.006   5.318  13.902
68762W        W30183  34.922  27.626  14.874
68763W        W30184  10.209  17.173   2.848
68764W        W30185  22.654  19.763   4.712
68765W        W30186  34.475   4.723   0.892
68766W        W30187  19.236  18.717  14.458
68767W        W30188  41.424  11.191   0.805
68768W        W30189  16.187   3.329   2.264
68769W        W30190  10.226  32.954   4.633
68770W        W30191  38.010  21.744  13.480
68771W        W30192   9.735  14.767  11.088
68772W        W30193  33.383  36.356   0.436
68773W        W30194   5.420  23.557  14.983
68774W        W30195  29.115  30.415   1.438
68775W        W30196  15.749  35.511  13.537
68776W        W30197   3.265   1.371  13.961
68777W        W30198   6.795   0.758   1.935
68778W        W30199  20.239  12.286  13.054
68779W        W30200  21.230  12.820   2.891
68780W        W30201  25.587  44.957  11.950
68781W        W30202  22.126  29.602   1.889
68782W        W30203  35.551  19.534   4.281
68783W        W30204  33.902  13.699   3.321
68784W        W30205  29.574  23.508   0.852
68785W        W30206  24.995  43.466   3.816
68786W        W30207  28.131  17.595  12.859
68787W        W30208   3.293  15.704  12.340
68788W        W30209  21.693  35.379  10.954
68789W        W30210  35.544  16.643  12.026
68790W        W30211  11.150  30.434  12.469
68791W        W30212  32.062  33.417  13.041
68792W        W30213   0.768  44.453   0.474
68793W        W30214  43.299  21.597  12.399
68794W        W30215   1.962  24.587  10.421
68795W        W30216  41.807   7.883  11.956
68796W        W30217  31.956  10.843  11.941
68797W        W30218  29.424  15.798   1.289
68798W        W30219  17.236  20.728  13.046
68799W        W30220  40.483  30.988  13.795
68800W        W30221  21.156   6.897  13.034
68801W        W30222  20.741  15.809  12.348
68802W        W30223  39.811  38.843  12.030
68803W        W30224  14.697   4.707   2.713
68804W        W30225  42.380  33.068   4.702
68805W        W30226  19.735  31.133  14.415
68806W        W30227  18.683  13.260  13.323
68807W        W30228  36.013   4.773  13.064
68808W        W30229  40.963  30.529   1.386
68809W        W30230   4.862   6.348  10.426
68810W        W30231  16.154   3.898  14.515
68811W        W30232  15.094  43.457   2.783
68812W        W30233  38.400  42.900  10.627
68813W        W30234  32.038  10.353   5.269
68814W        W30235   3.419   8.762   1.365
68815W        W30236   4.287  20.714   0.323
68816W        W30237  42.890  28.526   1.778
68817W        W30238   2.423   5.258  11.495
68818W        W30239  27.026  16.180   0.394
68819W        W30240  35.423  34.607  13.826
68820W        W30241  24.063  24.041   0.462
68821W        W30242   6.258  12.789   4.745
68822W        W30243   1.392   6.905   4.151
68823W        W30244   9.849  11.799  14.951
68824W        W30245  35.569  25.665   2.314
68825W        W30246  33.122  16.688   4.294
68826W        W30247   4.804  21.647   3.317
68827W        W30248  35.986  20.082   3.771
68828W        W30249  39.936  33.046  10.553
68829W        W30250  41.351   2.397   1.276
68830W        W30251  28.532  25.666  13.034
68831W        W30252  25.578   8.784  11.458
68832W        W30253  39.900  13.292   2.813
68833W        W30254  43.968  39.313   4.256
68834W        W30255  23.693   4.754   3.285
68835W        W30256   4.209  25.206  11.881
68836W        W30257  11.164  21.088   1.282
68837W        W30258  25.476  28.483   3.648
68838W        W30259   4.379  19.165   2.699
68839W        W30260  20.201  26.146   2.411
68840W        W30261  12.162  36.584  12.992
68841W        W30262   0.909  13.286  12.571
68842W        W30263  14.656  21.558   0.936
68843W        W30264   3.743  35.058  14.941
68844W        W30265  28.929  17.196   1.781
68845W        W30266  26.563  11.241   1.851
68846W        W30267  43.988  37.951   2.776
68847W        W30268  10.312  12.193  13.456
68848W        W30269  10.167  40.850  11.948
68849W        W30270   4.323   3.927  14.026
68850W        W30271  12.730  23.073   0.950
68851W        W30272  36.409  32.537   0.963
68852W        W30273  44.267  40.537   4.185
68853W        W30274  16.220  28.658   3.261
68854W        W30275  15.801  37.355  14.763
68855W        W30276   0.876  19.280  11.422
68856W        W30277   2.926  29.100   3.156
68857W        W30278  34.047  42.494   3.251
68858W        W30279   4.394  41.859  11.059
68859W        W30280  42.370   0.479   0.955
68860W        W30281  40.305  16.286   0.835
68861W        W30282  10.751  14.169   1.706
68862W        W30283  34.480  39.391   2.368
68863W        W30284  20.080  34.996   1.715
68864W        W30285   7.869   4.891   2.215
68865W        W30286  40.439  25.500  12.353
68866W        W30287  35.586  18.732  11.038
68867W        W30288  29.002  12.288   3.226
68868W        W30289   5.831  30.480  11.608
68869W        W30290  11.261   1.972   1.307
68870W        W30291   1.415   2.299   5.145
68871W        W30292   8.758  17.796   3.777
68872W        W30293   0.847  42.781   1.873
68873W        W30294  31.075   8.824  12.933
68874W        W30295  10.708  40.818  12.422
68875W        W30296  28.055   6.894  11.954
68876W        W30297  33.568  31.611   0.319
68877W        W30298  37.372  12.357  10.898
68878W        W30299  43.378  30.583   1.792
68879W        W30300  33.449   3.229  14.856
68880W        W30301  35.890  19.663  13.987
68881W        W30302  41.953   6.418  11.998
68882W        W30303  32.887   2.303   1.700
68883W        W30304  22.667   4.849  12.343
68884W        W30305   4.795  32.417  10.016
68885W        W30306  30.021  25.101   2.811
68886W        W30307  28.084  28.674  13.887
68887W        W30308  32.069  29.519   3.735
68888W        W30309   5.332  12.197  12.030
68889W        W30310  27.966   5.854  13.937
68890W        W30311  27.495   1.432   4.692
68891W        W30312   1.948  13.291   0.266
68892W        W30313  28.633  31.427   2.759
68893W        W30314   2.788   6.313   1.432
68894W        W30315  20.209  43.005  11.076
68895W        W30316  27.959  16.224   4.649
68896W        W30317  35.078  41.371   3.704
68897W        W30318  23.155   4.727   3.744
68898W        W30319  42.302  25.100  13.442
68899W        W30320  31.098   4.937  10.466
68900W        W30321  24.113  23.643   5.122
68901W        W30322  33.906  18.068  11.040
68902W        W30323   5.916  41.461  10.507
68903W        W30324  39.347  15.597   4.328
68904W        W30325   1.419  36.379   3.329
68905W        W30326   4.927   5.714  14.359
68906W        W30327  10.246  35.040   2.354
68907W        W30328  35.457  24.542   3.814
68908W        W30329  34.117  13.669  10.010
68909W        W30330  22.079  17.090  10.036
68910W        W30331   2.312   2.411   1.889
68911W        W30332  19.200   8.802  11.426
68912W        W30333   2.761  25.969   1.804
68913W        W30334   4.923  15.092  11.909
68914W        W30335  26.011  13.255   3.254
68915W        W30336  20.128   5.425   9.972
68916W        W30337  20.156  33.468   1.331
68917W        W30338  26.697  16.783   2.305
68918W        W30339  14.752  19.145  11.953
68919W        W30340  13.740  33.944  14.796
68920W        W30341   7.846   0.480   3.186
68921W        W30342  15.284  28.143   2.762
68922W        W30343  35.599   7.371   4.319
68923W        W30344  34.029  37.469   4.598
68924W        W30345  34.558   3.426  12.475
68925W        W30346  26.185   9.328  11.552
68926W        W30347  39.061  36.526   3.750
68927W        W30348   1.400   5.840   2.238
68928W        W30349   8.873  15.137  12.023
68929W        W30350  37.567   5.817   3.295
68930W        W30351  21.017  29.552   0.338
68931W        W30352  42.452  16.273  14.446
68932W        W30353  39.376  23.204  13.931
68933W        W30354  25.499  18.758   2.333
68934W        W30355  24.644  16.167   0.404
68935W        W30356  36.569  28.435   3.267
68936W        W30357  42.814  23.213  14.963
68937W        W30358  37.969  30.995   1.817
68938W        W30359  19.203   0.817  14.482
68939W        W30360  44.397  36.044  11.550
68940W        W30361   6.313  14.739  12.834
68941W        W30362  33.038   9.259  10.920
68942W        W30363  18.180  17.796   0.750
68943W        W30364  33.503  36.868   4.659
68944W        W30365  25.705   7.355   1.807
68945W        W30366   7.875  43.873  10.926
68946W        W30367  22.532  11.175   3.674
68947W        W30368  31.094  32.958   4.200
68948W        W30369   3.755   8.402  12.465
68949W        W30370  23.124  40.034   3.764
68950W        W30371  44.894  38.979   4.249
68951W        W30372  25.155  44.312  14.393
68952W        W30373   1.353  41.968   2.674
68953W        W30374  12.181  31.941   1.722
68954W        W30375   4.784  31.994   2.880
68955W        W30376  25.024  20.172  11.495
68956W        W30377  38.367  20.549  11.014
68957W        W30378   8.869  36.959  11.914
68958W        W30379   8.320  32.089   4.660
68959W        W30380  35.999  20.542  10.985
68960W        W30381   4.878  33.393   3.178
68961W        W30382   5.903  31.033   0.949
68962W        W30383  16.610  11.718  12.930
68963W        W30384  13.747  13.777  10.564
68964W        W30385  27.940  18.190   4.829
68965W        W30386  16.666  18.186  14.900
68966W        W30387   5.821  32.933  10.565
68967W        W30388  12.195  13.778   2.188
68968W        W30389  34.083  10.290  11.956
68969W        W30390  29.621  34.894   3.261
68970W        W30391  36.592  44.005   4.354
68971W        W30392   5.232  17.622   0.889
68972W        W30393  30.635  33.509   4.837
68973W        W30394  16.782  11.261  13.996
68974W        W30395  32.623  31.930  10.440
68975W        W30396  25.666  17.672   0.931
68976W        W30397  19.147  11.711  12.019
68977W        W30398  20.663  25.504  13.947
68978W        W30399   4.217  38.984  13.541
68979W        W30400  17.689  25.590   2.274
68980W        W30401  35.538  20.769  12.847
68981W        W30402   2.462   1.280   4.822
68982W        W30403  21.534  15.330  13.994
68983W        W30404  25.486   0.454   3.811
68984W        W30405   8.202  37.377  13.540
68985W        W30406  18.191  18.084   3.863
68986W        W30407  32.064  40.448  10.962
68987W        W30408  17.160  35.392  14.909
68988W        W30409  15.596   3.351   1.359
68989W        W30410  11.156  32.589  10.940
68990W        W30411  25.053  43.340  11.881
68991W        W30412   0.949  37.857   1.807
68992W        W30413  42.382   2.299  10.576
68993W        W30414   2.328  15.255  12.980
68994W        W30415  17.793  10.799   3.721
68995W        W30416  23.702  18.225  11.027
68996W        W30417   6.231  28.571   0.360
68997W        W30418  36.069   4.916  11.471
68998W        W30419  20.694  17.773  13.926
68999W        W30420  30.456   4.354   1.898
69000W        W30421  31.462  32.064   0.879
69001W        W30422  21.118  32.093  13.054
69002W        W30423  13.716  27.627   3.735
69003W        W30424   9.800  11.128  12.504
69004W        W30425  28.565  27.051  14.436
69005W        W30426  43.485  41.346   1.816
69006W        W30427  30.979   1.862   3.796
69007W        W30428  18.594   5.819   0.297
69008W        W30429  23.059   3.872   9.593
69009W        W30430  16.298  29.926  11.931
69010W        W30431  16.614  31.940  13.398
69011W        W30432  10.712  25.000   0.746
69012W        W30433   2.300   1.286   3.167
69013W        W30434   7.270   1.350  12.432
69014W        W30435  11.263  21.664  13.954
69015W        W30436  22.521  18.166  13.542
69016W        W30437   0.289  14.741   2.752
69017W        W30438  26.105  24.495  14.293
69018W        W30439   3.735  19.541  13.848
69019W        W30440  28.105  15.134   0.876
69020W        W30441   5.364  24.148  14.446
69021W        W30442  14.235  31.128   3.659
69022W        W30443   9.832  35.857   2.238
69023W        W30444  41.992  22.519   9.922
69024W        W30445   4.718  36.484   3.740
69025W        W30446  17.733  30.060   2.319
69026W        W30447  38.553   1.925   4.638
69027W        W30448   2.373  41.877   4.297
69028W        W30449  25.990  33.458  12.019
69029W        W30450  15.679   6.840   4.697
69030W        W30451  31.956  40.399   1.367
69031W        W30452  35.439  22.536   0.801
69032W        W30453   8.372  42.482  10.569
69033W        W30454   0.873  32.078  12.374
69034W        W30455   4.945  43.792  13.051
69035W        W30456  33.550  34.596   1.880
69036W        W30457   6.248  18.600   1.256
69037W        W30458  40.348   1.348  14.438
69038W        W30459  29.175   5.850  10.937
69039W        W30460  38.994  24.062  11.866
69040W        W30461  22.691  18.129   0.416
69041W        W30462   9.825  24.627  12.925
69042W        W30463  24.080  33.559   0.952
69043W        W30464  15.172   3.315   4.304
69044W        W30465  28.572  39.438   2.178
69045W        W30466   0.278  44.421  12.879
69046W        W30467  13.167   4.848   0.774
69047W        W30468  20.090   2.879   1.771
69048W        W30469  27.022  16.769   1.856
69049W        W30470  14.689  15.802  11.084
69050W        W30471  41.320  35.403   4.685
69051W        W30472   1.240   0.319  10.480
69052W        W30473  27.623  17.072  13.798
69053W        W30474  34.459  31.004  14.466
69054W        W30475  34.995  40.491  14.402
69055W        W30476   4.790   5.759   0.254
69056W        W30477  20.752  42.825   5.087
69057W        W30478  39.366  22.169  13.016
69058W        W30479  30.027  25.109   1.866
69059W        W30480  22.130   9.230  14.385
69060W        W30481  40.993  30.597   2.817
69061W        W30482  28.078  19.149   1.703
69062W        W30483   1.780  21.102   0.911
69063W        W30484  17.802  32.563  11.468
69064W        W30485  34.414  16.587  12.406
69065W        W30486  35.379  11.791  14.305
69066W        W30487  27.511  35.954   4.132
69067W        W30488  19.714  28.067   4.230
69068W        W30489  38.837   1.912   1.753
69069W        W30490   7.762  23.048  12.046
69070W        W30491  13.680  19.046  13.018
69071W        W30492  35.984   8.184   1.226
69072W        W30493   3.791   3.716   1.724
69073W        W30494  19.120  14.125  12.957
69074W        W30495   4.264  12.636   3.295
69075W        W30496   4.439   5.812   2.873
69076W        W30497  32.586  12.344   0.243
69077W        W30498  21.068  23.491  14.853
69078W        W30499   6.730  24.119   2.191
69079W        W30500  14.267  37.443   1.788
69080W        W30501  17.627  40.043  13.903
69081W        W30502  44.261  18.231   0.896
69082W        W30503  29.499  36.409   1.403
69083W        W30504  17.620  38.564   3.329
69084W        W30505   1.924  43.962   1.448
69085W        W30506  41.861   8.330   2.212
69086W        W30507  28.679   8.682  13.994
69087W        W30508  11.325  40.884   9.953
69088W        W30509  36.954   0.892  14.287
69089W        W30510  41.821  24.170  14.758
69090W        W30511  40.363  13.215   2.341
69091W        W30512  13.725   3.775   2.674
69092W        W30513  21.730   1.846   4.599
69093W        W30514  38.005  14.671   2.688
69094W        W30515  41.516  31.003  12.040
69095W        W30516  35.862   1.319   4.682
69096W        W30517  31.581  35.074   4.156
69097W        W30518  41.484   3.913  11.431
69098W        W30519  21.607  40.512  11.984
69099W        W30520  28.569  16.783  10.439
69100W        W30521  18.755  37.351  12.073
69101W        W30522   2.778  17.652   4.309
69102W        W30523  26.532  25.050   4.355
69103W        W30524  20.135   2.350  13.838
69104W        W30525   8.780  29.928  10.578
69105W        W30526   2.835  37.469  14.857
69106W        W30527  44.397  29.062   4.820
69107W        W30528  25.572  34.970  13.421
69108W        W30529  16.181  24.172  11.593
69109W        W30530  44.991  40.353  13.528
69110W        W30531  23.539   7.891   9.647
69111W        W30532   0.476  29.149   3.862
69112W        W30533  26.017  37.057   2.785
69113W        W30534  28.003   4.237   3.670
69114W        W30535  24.176  22.063   1.276
69115W        W30536  22.147  10.871  12.992
69116W        W30537  10.293  30.482   4.339
69117W        W30538  11.818   9.702  12.573
69118W        W30539   4.739  22.226  11.865
69119W        W30540  22.020  35.041  11.021
69120W        W30541  15.647  41.839   5.198
69121W        W30542  15.666  14.112  13.049
69122W        W30543  15.684   0.318   1.805
69123W        W30544  35.561  34.592   1.816
69124W        W30545  35.579  31.414   2.196
69125W        W30546  29.090   1.411   2.752
69126W        W30547  17.726   8.276  12.349
69127W        W30548  19.212  22.071  13.541
69128W        W30549  21.539  43.470   2.875
69129W        W30550  16.636  26.551   2.841
69130W        W30551  41.536  32.483  12.369
69131W        W30552  18.682  25.592  11.399
69132W        W30553   5.264  28.466  13.332
69133W        W30554  10.812  29.928   0.828
69134W        W30555   7.407  36.402   2.246
69135W        W30556   9.846  40.494  13.880
69136W        W30557   9.286  22.136  10.533
69137W        W30558  12.794   4.238  13.544
69138W        W30559   3.414  33.054   4.707
69139W        W30560  31.086   2.271   3.155
69140W        W30561  35.361  33.456  14.990
69141W        W30562  13.823   0.905   0.273
69142W        W30563  22.610  25.490  14.775
69143W        W30564  24.189  43.993  11.460
69144W        W30565  32.916  34.890   3.773
69145W        W30566   9.214  44.976  10.996
69146W        W30567  18.248  44.979  10.479
69147W        W30568  30.638  36.355  11.980
69148W        W30569  34.994  10.845   3.185
69149W        W30570  28.113  26.061  13.823
69150W        W30571  24.499  25.116   2.252
69151W        W30572  27.511  24.201  13.436
69152W        W30573  38.889   4.226  14.859
69153W        W30574  17.106  26.525   0.473
69154W        W30575  20.222  13.649  12.575
69155W        W30576  35.374  40.985  11.565
69156W        W30577  44.833  27.520  14.502
69157W        W30578  35.953   7.772  13.859
69158W        W30579  42.878   0.275   3.795
69159W        W30580  24.531   7.905   1.265
69160W        W30581   7.219  12.675   0.755
69161W        W30582  42.402  15.279  11.976
69162W        W30583   0.343  37.452   4.712
69163W        W30584   5.897   2.230  12.480
69164W        W30585   3.451  11.734   3.637
69165W        W30586  20.598  38.505   4.260
69166W        W30587  28.959  29.538   3.858
69167W        W30588  41.850  21.652   0.832
69168W        W30589  22.517  15.201  14.929
69169W        W30590   1.753   2.432   2.699
69170W        W30591  43.488  23.585   0.861
69171W        W30592   0.408  35.927   1.286
69172W        W30593  37.486  44.890   2.863
69173W        W30594   0.831  12.117  11.509
69174W        W30595   3.275  13.245  12.038
69175W        W30596  23.562   1.974   1.752
69176W        W30597  13.108  34.378   3.813
69177W        W30598  39.368  29.476   1.721
69178W        W30599  33.036  17.593   4.168
69179W        W30600  36.436  26.126   4.143
69180W        W30601   1.419  16.800  10.427
69181W        W30602  16.727   8.691   5.253
69182W        W30603  25.695  11.298   2.250
69183W        W30604  31.454  43.859  14.761
69184W        W30605  43.866   8.261  10.476
69185W        W30606   4.895  43.976   3.759
69186W        W30607  33.119  37.439  11.419
69187W        W30608  27.148  26.520  12.950
69188W        W30609   2.403  29.950  10.901
69189W        W30610   0.348  44.009   4.320
69190W        W30611  40.481  22.130   4.639
69191W        W30612  38.966  43.508   3.658
69192W        W30613  35.945  24.630   3.758
69193W        W30614   4.442  25.980  13.046
69194W        W30615  14.136  28.568   3.382
69195W        W30616   0.814   0.318   3.633
69196W        W30617  28.004  38.968   4.638
69197W        W30618   7.201  13.643  14.318
69198W        W30619  13.217  36.915   0.829
69199W        W30620  16.728  26.973  14.858
69200W        W30621  16.720  14.713  12.853
69201W        W30622   5.238  31.013   1.284
69202W        W30623  30.608  30.909  10.521
69203W        W30624  22.113  18.185  10.595
69204W        W30625   4.698   8.682  12.365
69205W        W30626   8.811  21.216  12.540
69206W        W30627  42.864  27.085   1.341
69207W        W30628   4.843  12.332   3.839
69208W        W30629   8.883  37.570  11.404
69209W        W30630  11.333   4.702   0.330
69210W        W30631  18.653  42.373  12.071
69211W        W30632   8.194  19.098   1.859
69212W        W30633  39.818  35.428   4.805
69213W        W30634  43.417  31.049   1.369
69214W        W30635  39.456  39.410   1.440
69215W        W30636   0.389  37.566   0.735
69216W        W30637  20.213  34.089   4.209
69217W        W30638  18.614  27.152  14.897
69218W        W30639  44.429  42.446   1.386
69219W        W30640  29.610  17.061   3.238
69220W        W30641  35.479  19.254   1.357
69221W        W30642  31.942   8.785  13.990
69222W        W30643  31.136  21.034   2.900
69223W        W30644  40.504  26.985   0.905
69224W        W30645  35.385  27.535  11.985
69225W        W30646  18.234  40.861  14.833
69226W        W30647   8.736  22.135  13.493
69227W        W30648  42.517  13.288  11.968
69228W        W30649  24.692   3.877   4.776
69229W        W30650  18.062  36.943   1.702
69230W        W30651   7.340  31.144   0.412
69231W        W30652  20.617  21.722   1.328
69232W        W30653  14.184  42.506  11.127
69233W        W30654  33.994  10.273  12.866
69234W        W30655  44.833  15.312   0.807
69235W        W30656  40.367  32.486   0.435
69236W        W30657  15.175  35.004  12.549
69237W        W30658  42.952  20.653   4.135
69238W        W30659  27.588  13.825  12.396
69239W        W30660  38.530   4.214   0.776
69240W        W30661  26.188  37.541   1.862
69241W        W30662   2.775  29.923  11.859
69242W        W30663   1.460  15.736   4.671
69243W        W30664  38.435  11.263  11.002
69244W        W30665  44.992  16.708   4.329
69245W        W30666   4.266   6.249  12.497
69246W        W30667  14.108  13.833  14.981
69247W        W30668  12.810  10.297   1.437
69248W        W30669   4.282  38.339  13.986
69249W        W30670  33.893  12.282  10.104
69250W        W30671  28.603  24.569  11.414
69251W        W30672  25.589  43.367  13.976
69252W        W30673  31.495   3.281   1.862
69253W        W30674  43.959  15.282   5.282
69254W        W30675   4.311  33.544  13.959
69255W        W30676  33.569  37.849   2.759
69256W        W30677  25.072  39.455  13.056
69257W        W30678   2.422  19.242   3.667
69258W        W30679   3.922  34.885  13.547
69259W        W30680  17.196  10.166   1.282
69260W        W30681  28.022   3.321   0.914
69261W        W30682  34.033  14.114   4.673
69262W        W30683   7.257  21.744   1.730
69263W        W30684  41.024  36.390   0.916
69264W        W30685   3.290  10.234  11.423
69265W        W30686  21.051  39.464   3.345
69266W        W30687  25.120  20.651   4.712
69267W        W30688   7.879   9.196   3.153
69268W        W30689  33.957  30.444   3.672
69269W        W30690  18.781   5.400  10.992
69270W        W30691  13.785  13.827  14.401
69271W        W30692  12.284  32.889  14.283
69272W        W30693  28.594  23.677   0.847
69273W        W30694  26.562  19.706   3.243
69274W        W30695  28.941  11.689  14.927
69275W        W30696   4.402  38.864   3.779
69276W        W30697  23.707  11.693  10.893
69277W        W30698  13.157  17.581   0.781
69278W        W30699  25.018   3.715   1.919
69279W        W30700   2.244  16.276  13.458
69280W        W30701   5.366  21.708  11.450
69281W        W30702   4.432  29.965   1.902
69282W        W30703  19.633  32.493  11.998
69283W        W30704  40.502  21.180  10.888
69284W        W30705  12.619   9.349  10.407
69285W        W30706  11.167  10.697  12.524
69286W        W30707  41.043  22.695   4.223
69287W        W30708  19.227   9.776   3.236
69288W        W30709   8.359  18.630   4.336
69289W        W30710  17.166   1.842  10.063
69290W        W30711  33.021   5.377   1.931
69291W        W30712   5.931  31.079   4.638
69292W        W30713  34.453  29.650   3.851
69293W        W30714  23.126   9.279   4.246
69294W        W30715  16.585  23.150  13.326
69295W        W30716  44.402  32.444  10.523
69296W        W30717  27.150  20.217   4.762
69297W        W30718  30.635  36.934   3.795
69298W        W30719   5.377  31.022  10.626
69299W        W30720  20.227  18.073  14.868
69300W        W30721  31.498  21.738   2.883
69301W        W30722  27.556  42.433   0.959
69302W        W30723  39.465  19.208   2.704
69303W        W30724  20.623   2.895   3.288
69304W        W30725  37.526  42.402  12.904
69305W        W30726   3.890   6.810  10.408
69306W        W30727  22.560   7.863   4.168
69307W        W30728  38.567  34.492  12.011
69308W        W30729   8.758  28.438   2.381
69309W        W30730  23.643   4.418  13.899
69310W        W30731  11.697  36.903  12.560
69311W        W30732  21.581   5.211  12.448
69312W        W30733  17.116  22.629   3.842
69313W        W30734   0.796  41.860  12.428
69314W        W30735  32.401  32.510  13.845
69315W        W30736  42.896  38.047  12.896
69316W        W30737   8.168  36.457   2.268
69317W        W30738   9.320  16.730   4.628
69318W        W30739  11.826  19.640  11.989
69319W        W30740   6.845  10.716  10.562
69320W        W30741  14.800  34.580  10.591
69321W        W30742  11.193  33.434  14.951
69322W        W30743  13.803  12.346   2.337
69323W        W30744   5.299  18.701   0.350
69324W        W30745  43.322  11.184  12.498
69325W        W30746  26.052  44.856  11.976
69326W        W30747  43.020  22.092  14.843
69327W        W30748  13.185   6.783  13.466
69328W        W30749  13.267  34.982   5.213
69329W        W30750  31.477  28.073  10.898
69330W        W30751  29.110   7.768   2.241
69331W        W30752  10.682  43.285  11.611
69332W        W30753  41.788  26.684  11.589
69333W        W30754  31.605   5.409   4.171
69334W        W30755   0.785  34.434  10.615
69335W        W30756  15.653   6.342  11.384
69336W        W30757  36.583   3.867   4.814
69337W        W30758  33.484  27.004  11.085
69338W        W30759  30.918  40.998   2.356
69339W        W30760  32.416  36.889   2.254
69340W        W30761  12.235  11.243   0.405
69341W        W30762  10.230   2.872  10.624
69342W        W30763   8.333   2.229   1.800
69343W        W30764  32.587  42.023  11.034
69344W        W30765  13.300  31.418  12.394
69345W        W30766  44.865   2.347   0.310
69346W        W30767  24.654  26.638   3.150
69347W        W30768  30.106   3.847  12.943
69348W        W30769  13.211  21.058  11.405
69349W        W30770   3.354  26.661  14.846
69350W        W30771   5.340  37.342   1.293
69351W        W30772  18.221  25.115  11.868
69352W        W30773  26.694  10.770  10.641
69353W        W30774   7.684  35.969   2.342
69354W        W30775  37.018  22.104   2.825
69355W        W30776  34.391  41.031  14.364
69356W        W30777  44.902  42.869  12.992
69357W        W30778  16.603  15.198  10.502
69358W        W30779   7.229  44.418   4.122
69359W        W30780   2.795  38.394  11.478
69360W        W30781  24.559   2.404  13.820
69361W        W30782   4.938  21.029   3.273
69362W        W30783  29.510  39.826   4.825
69363W        W30784   3.234  17.093  14.380
69364W        W30785  11.165  13.317  11.573
69365W        W30786  36.004   2.289   3.633
69366W        W30787   2.816   8.894   0.354
69367W        W30788  28.074  42.303  11.934
69368W        W30789   8.169  37.390   1.928
69369W        W30790  40.384  32.403  14.339
69370W        W30791  30.962   8.804  12.348
69371W        W30792  14.336  14.291   2.747
69372W        W30793  37.030  25.703  12.096
69373W        W30794   6.914  15.591  14.829
69374W        W30795  40.893  15.315   5.243
69375W        W30796  14.652   8.672   1.234
69376W        W30797   8.822  17.770   0.908
69377W        W30798  32.515  27.627   1.283
69378W        W30799  12.157  23.638  12.541
69379W        W30800  37.479   5.423  10.490
69380W        W30801  27.125  25.626   0.888
69381W        W30802  30.499  21.697  12.567
69382W        W30803  27.967  10.728  12.917
69383W        W30804  31.585  36.347   3.255
69384W        W30805  39.995   2.317  13.329
69385W        W30806   5.206  16.759  14.333
69386W        W30807  37.848  24.177  14.953
69387W        W30808  38.386  23.175   0.947
69388W        W30809  26.520  27.560  12.467
69389W        W30810  37.377  33.433  11.516
69390W        W30811  27.496   7.226  13.834
69391W        W30812  16.623  36.550   2.692
69392W        W30813   1.287  36.002  10.912
69393W        W30814  42.969  16.118  12.009
69394W        W30815  43.280  23.212   0.335
69395W        W30816  28.953   1.872  14.877
69396W        W30817  41.853  14.605  14.920
69397W        W30818  34.039  40.836  11.613
69398W        W30819   5.371  26.662   2.327
69399W        W30820  39.042  28.631   2.246
69400W        W30821  34.368  32.128   4.636
69401W        W30822  16.805   7.891  10.461
69402W        W30823  12.120  11.213  10.463
69403W        W30824  26.069  32.620  13.008
69404W        W30825   6.235  14.661  11.051
69405W        W30826  13.669  12.648   3.695
69406W        W30827  10.189   5.419   1.726
69407W        W30828  44.794   7.694   0.280
69408W        W30829  22.607  33.582   9.984
69409W        W30830  26.508   1.765   3.302
69410W        W30831   2.308  22.247  13.033
69411W        W30832  27.082  33.470  11.509
69412W        W30833  25.637  27.088  11.592
69413W        W30834  10.183  25.134   1.219
69414W        W30835  15.278  37.440   0.425
69415W        W30836   6.775  12.262  14.330
69416W        W30837   9.829  22.513   0.897
69417W        W30838  43.279  14.107  12.948
69418W        W30839  13.638  23.612  10.555
69419W        W30840  28.600   5.862  12.058
69420W        W30841  39.353  23.608   3.799
69421W        W30842  42.825  17.129  13.927
69422W        W30843   0.406  14.819  13.930
69423W        W30844  17.584  26.181  13.024
69424W        W30845  37.531  17.180  11.033
69425W        W30846  11.279  41.793   1.918
69426W        W30847   3.891   4.345   5.783
69427W        W30848  31.641  44.758  14.843
69428W        W30849  30.533   6.716  11.921
69429W        W30850  33.044  12.775   5.774
69430W        W30851  27.542  13.271   1.259
69431W        W30852   8.770   7.332  12.535
69432W        W30853  20.080  22.158  10.947
69433W        W30854  40.420  18.278  10.944
69434W        W30855  16.237  38.820  12.023
69435W        W30856  16.626  41.897   1.873
69436W        W30857  18.258  21.177   5.248
69437W        W30858   7.308   6.421   1.829
69438W        W30859   1.445  18.597   4.120
69439W        W30860  24.552   1.929  11.602
69440W        W30861  29.958  37.539  13.952
69441W        W30862  15.652  34.038   4.609
69442W        W30863  12.171   1.386  12.343
69443W        W30864   0.355   8.364   4.192
69444W        W30865  14.122  32.575   2.187
69445W        W30866   8.351   2.258  10.524
69446W        W30867  43.475  10.722   3.382
69447W        W30868  18.632   2.750  11.911
69448W        W30869  28.598  43.401  10.906
69449W        W30870  44.948  31.124   4.200
69450W        W30871  13.808   8.395   1.277
69451W        W30872  32.503  34.584  10.557
69452W        W30873   7.295  24.657   4.654
69453W        W30874   9.261  36.397  10.909
69454W        W30875   3.928  43.512   1.805
69455W        W30876   2.866  15.578   1.249
69456W        W30877  41.919  29.153  12.949
69457W        W30878  18.203  43.886   3.209
69458W        W30879  27.952   2.382  12.568
69459W        W30880  41.791  39.851  10.470
69460W        W30881  40.836  22.138  14.470
69461W        W30882  13.154  14.728  10.545
69462W        W30883  40.383  28.034  12.532
69463W        W30884  34.048  42.815  12.084
69464W        W30885  22.722   3.867   5.599
69465W        W30886  27.470  40.933  12.555
69466W        W30887  22.516   1.790   4.337
69467W        W30888  25.506  43.801  12.391
69468W        W30889   2.257  27.549   2.224
69469W        W30890  13.643  11.318  14.809
69470W        W30891  34.999  19.277   2.266
69471W        W30892  33.393  21.742   4.337
69472W        W30893   8.847   1.759   0.903
69473W        W30894  40.955  20.151   2.809
69474W        W30895  15.250  19.641   3.163
69475W        W30896  36.061  31.091  12.951
69476W        W30897   3.261  29.554  13.808
69477W        W30898  23.188  21.114  12.876
69478W        W30899   2.294   3.316   4.250
69479W        W30900  14.228  27.984   3.228
69480W        W30901  37.431  33.446  12.823
69481W        W30902   7.821  25.075   0.843
69482W        W30903  41.003   1.960   0.324
69483W        W30904  37.357  28.077   5.163
69484W        W30905  36.464  31.439   3.804
69485W        W30906  44.349   2.745  14.912
69486W        W30907   1.285  28.956   5.237
69487W        W30908  42.469  18.193  11.995
69488W        W30909   7.341  25.966  10.914
69489W        W30910  15.788  18.741  14.847
69490W        W30911  10.257   3.362  12.069
69491W        W30912  35.408  31.438  10.539
69492W        W30913  39.024  21.588   2.809
69493W        W30914  23.132  34.561   2.714
69494W        W30915  24.564  26.620  14.513
69495W        W30916  38.823  33.130  12.998
69496W        W30917  19.737  17.784  10.429
69497W        W30918  28.983  41.000   1.751
69498W        W30919  13.317  39.457  13.034
69499W        W30920   2.770  31.045  13.393
69500W        W30921  10.865   8.802   3.870
69501W        W30922   2.412   1.395   1.852
69502W        W30923  24.559  31.556   0.827
69503W        W30924  35.022  16.702  10.998
69504W        W30925  26.159  11.212   3.314
69505W        W30926  24.204  29.062   2.713
69506W        W30927  30.138  28.085  12.416
69507W        W30928  41.314  19.062  10.449
69508W        W30929  13.261  24.052  12.956
69509W        W30930  26.681  38.371   0.790
69510W        W30931   5.390  39.410   1.796
69511W        W30932  14.624  41.040   1.275
69512W        W30933  38.899  13.220   0.366
69513W        W30934  37.475  18.095  12.410
69514W        W30935  40.485   7.311  10.504
69515W        W30936  14.723   9.649  14.388
69516W        W30937  37.003  21.247   3.818
69517W        W30938  24.160  29.529   0.384
69518W        W30939  34.469   2.268   2.890
69519W        W30940  36.968   3.713  10.946
69520W        W30941  37.519   9.837  13.902
69521W        W30942   5.216  13.173  11.558
69522W        W30943  34.002  43.288  12.547
69523W        W30944  29.943  28.491   2.225
69524W        W30945   0.374  11.676  11.093
69525W        W30946  13.783  12.660  14.321
69526W        W30947  25.663  10.381  11.953
69527W        W30948  39.546  44.497   3.782
69528W        W30949  36.058   5.267  12.905
69529W        W30950  14.774  41.402   4.641
69530W        W30951  26.132  27.965   1.246
69531W        W30952  22.207  32.596   0.316
69532W        W30953  10.768  39.813   1.828
69533W        W30954  43.366  22.695  12.427
69534W        W30955  19.738  44.778  12.548
69535W        W30956  31.580  15.089   9.984
69536W        W30957  19.270  24.130  14.778
69537W        W30958   8.778  41.493   5.242
69538W        W30959  19.257  12.329   4.716
69539W        W30960  28.062   6.775   3.271
69540W        W30961  10.650   8.188   4.694
69541W        W30962  41.299  31.479   4.319
69542W        W30963  17.769  38.930   4.348
69543W        W30964  27.062  34.036   4.270
69544W        W30965  22.506  30.443   4.734
69545W        W30966   3.430   2.860   0.311
69546W        W30967  25.170  34.900   1.807
69547W        W30968  17.299  37.431   1.428
69548W        W30969   7.798  20.621   0.765
69549W        W30970  31.913  25.508  14.815
69550W        W30971  26.566  24.090   1.273
69551W        W30972  39.344  20.220   1.239
69552W        W30973  17.236  25.176  10.456
69553W        W30974   6.848  28.635  10.587
69554W        W30975   8.848  20.641  10.891
69555W        W30976  37.064   4.403   2.396
69556W        W30977  17.720  23.576  14.970
69557W        W30978  42.785   9.283   1.331
69558W        W30979  21.064  29.661  13.431
69559W        W30980  23.208  29.165   2.880
69560W        W30981   6.337   1.299  10.915
69561W        W30982  10.141  38.871  11.534
69562W        W30983   1.322   4.259   3.854
69563W        W30984  37.043  35.545  10.584
69564W        W30985   3.435  33.560  12.926
69565W        W30986  44.992  25.184   2.693
69566W        W30987   4.409  30.909   3.242
69567W        W30988  34.044  39.969   0.739
69568W        W30989   8.734  11.660   4.240
69569W        W30990  24.492   2.941   1.712
69570W        W30991  27.022  20.160  10.642
69571W        W30992  24.665  16.790   0.863
69572W        W30993  34.414   5.691   4.287
69573W        W30994  29.452  24.564   0.893
69574W        W30995  37.507  30.513  13.407
69575W        W30996  38.527  40.321  14.475
69576W        W30997   7.777  28.436   3.800
69577W        W30998   9.268  41.007   2.184
69578W        W30999  44.962   1.293   2.853
69579W        W31000   2.876  20.711  11.997
69580W        W31001  33.046  40.540  14.276
69581W        W31002  17.634  19.692  10.942
69582W        W31003  18.785  14.819   2.662
69583W        W31004  32.977  10.762  13.422
69584W        W31005   2.766  35.493  12.837
69585W        W31006   2.359   1.416  13.465
69586W        W31007  12.752  13.648  14.000
69587W        W31008  31.139  19.614   5.229
69588W        W31009  16.269  16.793   2.888
69589W        W31010  20.146  27.109  11.566
69590W        W31011  35.896   1.854   3.340
69591W        W31012  15.279   8.878  14.483
69592W        W31013   4.372  12.719   0.358
69593W        W31014   2.393  37.479  11.928
69594W        W31015   1.754  34.440   1.299
69595W        W31016  17.292   6.761   1.243
69596W        W31017  26.698  20.732   0.266
69597W        W31018  39.316  41.032   4.779
69598W        W31019  15.141   6.730   2.385
69599W        W31020   5.230  35.071   4.731
69600W        W31021  28.676  36.391   1.431
69601W        W31022  33.425  28.447   3.693
69602W        W31023  15.102   0.410  12.870
69603W        W31024  17.704  36.865  11.876
69604W        W31025  22.153  32.024  13.410
69605W        W31026  29.079  38.826   2.358
69606W        W31027  15.235  20.180   1.217
69607W        W31028  14.660  17.158  13.876
69608W        W31029  16.157  30.133  10.623
69609W        W31030  37.427  35.540   0.753
69610W        W31031  10.298  27.958  14.918
69611W        W31032  14.640  31.051  13.516
69612W        W31033  35.587  41.352  13.885
69613W        W31034  31.959  36.891  12.924
69614W        W31035   3.353  14.824  14.310
69615W        W31036  23.119  42.031   2.302
69616W        W31037  25.194  40.483  12.520
69617W        W31038  23.673  16.594   2.413
69618W        W31039  39.926   5.700   0.470
69619W        W31040  19.579  41.489  10.026
69620W        W31041  14.229   2.874  12.848
69621W        W31042  20.676  15.754   0.824
69622W        W31043   3.238  22.544   5.119
69623W        W31044  44.262  38.076   3.361
69624W        W31045  37.495   6.364  13.375
69625W        W31046  26.550  44.281  10.908
69626W        W31047   9.842  38.896  13.420
69627W        W31048  30.651  31.052  13.510
69628W        W31049  17.558   9.869   3.223
69629W        W31050  10.301   3.817  13.056
69630W        W31051  24.528  17.654   2.418
69631W        W31052  20.662   8.818  13.444
69632W        W31053  31.092   4.328   4.813
69633W        W31054  43.809  24.665  12.377
69634W        W31055  27.160  44.320  10.145
69635W        W31056  27.156  44.977  12.358
69636W        W31057  24.628  43.515   3.739
69637W        W31058   7.775  24.079   3.764
69638W        W31059  40.386  43.817   4.189
69639W        W31060   0.356   5.779  14.872
69640W        W31061  34.937   7.669  10.482
69641W        W31062  34.013  15.261   1.268
69642W        W31063  25.510  35.894  13.830
69643W        W31064  26.107  11.273  11.515
69644W        W31065   6.900  33.084   4.224
69645W        W31066   7.208  40.848  10.441
69646W        W31067  29.008   8.844   0.481
69647W        W31068  34.451  26.003   2.686
69648W        W31069   9.844  26.112  11.123
69649W        W31070  21.222   9.848  10.494
69650W        W31071  35.416   7.344  12.341
69651W        W31072  15.777  15.175   2.863
69652W        W31073  43.289  38.948   9.944
69653W        W31074   4.914  27.635  12.043
69654W        W31075  44.456  16.243   1.917
69655W        W31076  35.551  41.370   0.728
69656W        W31077  44.005  30.512   3.249
69657W        W31078   9.176   0.353  10.928
69658W        W31079  29.173  15.794   9.982
69659W        W31080   1.385  41.898  11.912
69660W        W31081  22.583   1.346   4.270
69661W        W31082  21.669  44.328  13.506
69662W        W31083   1.333  28.669  10.943
69663W        W31084  14.187  36.980  11.937
69664W        W31085  43.516   4.906   3.162
69665W        W31086  10.718  21.649   3.148
69666W        W31087  17.183  36.551  11.022
69667W        W31088   2.426  15.282  14.440
69668W        W31089  16.662   4.805   2.268
69669W        W31090  37.508  20.711   4.139
69670W        W31091   7.251   0.848   4.179
69671W        W31092  26.631  21.043  13.417
69672W        W31093  30.916  27.097   2.247
69673W        W31094   6.682  23.692   2.827
69674W        W31095  22.105  36.090   4.805
69675W        W31096  36.027  37.582   1.378
69676W        W31097  32.107  42.929  14.454
69677W        W31098   5.400  33.403   1.220
69678W        W31099  23.517  28.522  14.839
69679W        W31100  13.178   5.213  12.824
69680W        W31101   4.782   8.305  14.978
69681W        W31102  44.771  32.502  14.440
69682W        W31103  14.101  43.831  13.037
69683W        W31104   3.897  41.909   2.699
69684W        W31105  20.051  25.167  13.953
69685W        W31106  30.440  38.899   5.281
69686W        W31107   7.828  10.381   5.203
69687W        W31108  10.753  19.129  11.584
69688W        W31109  19.718  34.064  14.833
69689W        W31110   6.271   1.321   2.897
69690W        W31111  42.781  20.711   3.644
69691W        W31112  28.990  21.187   2.179
69692W        W31113  43.009  14.270  11.483
69693W        W31114   1.319  42.802   4.348
69694W        W31115  10.655  41.903   4.827
69695W        W31116  44.381  27.655  13.893
69696W        W31117   6.813  18.762  11.610
69697W        W31118  42.527  31.486  11.936
69698W        W31119   5.816  38.538   0.892
69699W        W31120  20.148   3.433   3.292
69700W        W31121   4.380  11.779  11.028
69701W        W31122  20.709  11.222  12.356
69702W        W31123  38.965  38.972  12.340
69703W        W31124  10.755  41.512   3.694
69704W        W31125  22.062  17.288  14.934
69705W        W31126  33.494   4.915  10.943
69706W        W31127  16.677  22.083   3.221
69707W        W31128  12.352   2.342   0.462
69708W        W31129  28.503  36.049   4.214
69709W        W31130  37.897  26.462  13.475
69710W        W31131   8.666  33.410  12.567
69711W        W31132  13.803   7.341  13.031
69712W        W31133  14.144  35.566  12.907
69713W        W31134  33.081  28.588  12.557
69714W        W31135  39.463  33.424   1.257
69715W        W31136   7.708  28.618  14.774
69716W        W31137   1.936  29.098   2.192
69717W        W31138  13.261  17.232   1.718
69718W        W31139  42.335  17.131   3.302
69719W        W31140   5.877  14.644   1.426
69720W        W31141  33.603   7.742   0.817
69721W        W31142  43.909  29.063  13.382
69722W        W31143  44.285  18.198   0.452
69723W        W31144  30.050  30.437  13.357
69724W        W31145  31.552   4.343   2.810
69725W        W31146  16.108  44.852  12.449
69726W        W31147  22.736  30.013  12.343
69727W        W31148  40.835  34.433   0.798
69728W        W31149  28.472   7.257   2.304
69729W        W31150  36.986  36.059  10.460
69730W        W31151  10.773  35.406   3.275
69731W        W31152  18.564   9.860   1.289
69732W        W31153   0.378   8.161  14.863
69733W        W31154   1.796  23.094  10.583
69734W        W31155  28.103  44.937   0.343
69735W        W31156  25.563   1.811  14.288
69736W        W31157  41.990  37.348   3.203
69737W        W31158   5.725  44.504   1.225
69738W        W31159  18.590  29.105  14.023
69739W        W31160  41.909  20.090  10.630
69740W        W31161  31.073   7.315   0.379
69741W        W31162   6.729  41.909  13.925
69742W        W31163   4.436   7.882  14.020
69743W        W31164  10.169  22.682  11.085
69744W        W31165  19.559  28.483  11.448
69745W        W31166  26.047  25.511  14.894
69746W        W31167  43.829  31.132   1.831
69747W        W31168   8.258  43.845  11.475
69748W        W31169  20.185  14.674  14.439
69749W        W31170  24.200  24.547   3.776
69750W        W31171  40.541  38.474   4.705
69751W        W31172  31.518  38.862   1.222
69752W        W31173  26.981  14.207  11.581
69753W        W31174   5.249  43.764   0.891
69754W        W31175  44.910  24.034   1.413
69755W        W31176   3.358  22.227   0.304
69756W        W31177  25.077   0.911  10.591
69757W        W31178  26.103  24.051   4.176
69758W        W31179  44.991  38.435   1.251
69759W        W31180  37.880  36.482   4.149
69760W        W31181  12.725  34.048   4.171
69761W        W31182  28.669  44.421  11.394
69762W        W31183  33.508  44.887   0.891
69763W        W31184  15.629  12.354   4.691
69764W        W31185  23.544  43.827   4.259
69765W        W31186  34.381  19.161   2.741
69766W        W31187  31.489  13.678   1.326
69767W        W31188  30.106   4.780  12.520
69768W        W31189  30.576  36.348  11.064
69769W        W31190  42.405  18.204   1.807
69770W        W31191  11.777  27.147  14.860
69771W        W31192   0.771  11.688   2.322
69772W        W31193  12.187  32.481   9.454
69773W        W31194  41.408  11.861  13.836
69774W        W31195  26.499   1.879  10.516
69775W        W31196  22.607  26.151   3.160
69776W        W31197  44.288  30.583  12.516
69777W        W31198  26.649  12.302   3.242
69778W        W31199  32.099  12.764  11.424
69779W        W31200  41.790  24.226  11.515
69780W        W31201  21.742  13.200  12.488
69781W        W31202   5.429  39.470   1.248
69782W        W31203   7.273   2.911  11.540
69783W        W31204  22.689  20.160  11.892
69784W        W31205  33.562  30.097  10.429
69785W        W31206  22.558  10.667   4.729
69786W        W31207   7.840  18.628  13.921
69787W        W31208   2.796  12.170   4.305
69788W        W31209  37.464  15.143  10.594
69789W        W31210  19.557  14.740   4.319
69790W        W31211   3.874  33.091  14.399
69791W        W31212  23.642   0.486  11.971
69792W        W31213  44.778   1.380   0.845
69793W        W31214   7.892  16.786   4.192
69794W        W31215  11.866  18.259   4.624
69795W        W31216  11.750  43.006   0.425
69796W        W31217  31.006  10.243  13.945
69797W        W31218  12.815  19.765   0.423
69798W        W31219  16.128  25.143   2.794
69799W        W31220   2.772   5.313   0.730
69800W        W31221  11.697   2.928   1.881
69801W        W31222  11.287  42.305   4.644
69802W        W31223  13.252  37.051   0.242
69803W        W31224   5.732  18.625   3.255
69804W        W31225  20.738  11.293   2.338
69805W        W31226  17.597  17.111  13.406
69806W        W31227  33.399  15.799  10.625
69807W        W31228   9.151  18.765   3.631
69808W        W31229   6.773  38.409  12.516
69809W        W31230  30.101  19.737   0.867
69810W        W31231  25.493  42.000  12.522
69811W        W31232  18.691  32.617  11.380
69812W        W31233  25.661  39.504  10.502
69813W        W31234   0.445  10.768  11.553
69814W        W31235  33.603   1.334  10.100
69815W        W31236   7.364  30.136  13.952
69816W        W31237   1.341  13.316   1.303
69817W        W31238  31.636  28.078   4.195
69818W        W31239   5.274  35.975   3.259
69819W        W31240   7.816   1.334   0.377
69820W        W31241  32.457  11.755  14.299
69821W        W31242   3.432  26.686   0.302
69822W        W31243  40.901  41.303   1.774
69823W        W31244  33.492  20.263  14.796
69824W        W31245  13.140   2.845  14.856
69825W        W31246  39.359  25.968   3.870
69826W        W31247  40.347  40.002  13.331
69827W        W31248  34.470  14.290  13.488
69828W        W31249  24.707  18.763   0.734
69829W        W31250  24.487  30.462   0.431
69830W        W31251   4.374  30.062   1.224
69831W        W31252  39.333  38.036  11.914
69832W        W31253  25.569  19.124   4.244
69833W        W31254   6.744  14.308   3.350
69834W        W31255   8.712  20.077   2.203
69835W        W31256   2.431  24.484   0.327
69836W        W31257  33.030  18.777  11.891
69837W        W31258  16.662  31.515  14.828
69838W        W31259  27.503   8.299  11.437
69839W        W31260   4.264  27.573   4.284
69840W        W31261  22.663  21.197   4.827
69841W        W31262   6.863  23.100  10.458
69842W        W31263  22.049   4.286  14.348
69843W        W31264  41.434   5.284  11.002
69844W        W31265   3.280  33.494  10.967
69845W        W31266  17.120  18.680  12.466
69846W        W31267  21.041  43.316   3.294
69847W        W31268   6.788  23.052  14.999
69848W        W31269  22.506  37.884  11.497
69849W        W31270  31.405  38.358  13.387
69850W        W31271  25.526   2.917  11.996
69851W        W31272  37.465   2.858  12.435
69852W        W31273  27.024   3.380   3.380
69853W        W31274  11.644  28.490   3.302
69854W        W31275  11.862  15.206   2.877
69855W        W31276  10.321  15.319   3.194
69856W        W31277  15.726  26.648   4.625
69857W        W31278  30.579   3.713   2.260
69858W        W31279  36.486  42.942   1.284
69859W        W31280  13.757  22.148   0.821
69860W        W31281  14.328   9.727  14.976
69861W        W31282   1.823   8.318  13.493
69862W        W31283   9.803  32.621   0.320
69863W        W31284  33.506   7.383   1.335
69864W        W31285   2.437  17.117  10.438
69865W        W31286  28.468  30.474   1.234
69866W        W31287   8.769  14.113  10.949
69867W        W31288  43.927  31.432   2.407
69868W        W31289  23.071  31.419   1.451
69869W        W31290  41.846  25.972   2.189
69870W        W31291  30.428  28.471   0.382
69871W        W31292  39.334  31.601  12.906
69872W        W31293   6.189   8.673  12.877
69873W        W31294   2.247   9.656   2.220
69874W        W31295  39.039  32.433   1.836
69875W        W31296  40.510   3.936   1.299
69876W        W31297  25.087   4.204   0.884
69877W        W31298  41.325  14.695  12.573
69878W        W31299  36.434  31.018  12.867
69879W        W31300  20.683  44.381  13.493
69880W        W31301  44.472  29.455  12.096
69881W        W31302  26.976  21.190   1.305
69882W        W31303  12.686   3.880   3.843
69883W        W31304  32.104  20.581  12.432
69884W        W31305  37.910  32.098  13.936
69885W        W31306  44.499  16.577  11.435
69886W        W31307   0.254  35.489  14.334
69887W        W31308  40.847   4.753  13.409
69888W        W31309  38.422  41.451   0.446
69889W        W31310  35.014  19.111  13.536
69890W        W31311   7.784   1.872  11.585
69891W        W31312  11.149  33.053   1.249
69892W        W31313  34.919   6.733   1.818
69893W        W31314  21.743  41.814   3.871
69894W        W31315  38.825  22.576  12.040
69895W        W31316  29.558  42.825  10.605
69896W        W31317  37.533  40.847  13.425
69897W        W31318   6.380  33.550   0.837
69898W        W31319  34.500   0.395  12.435
69899W        W31320   5.858  23.065  12.427
69900W        W31321  27.520  22.030  10.628
69901W        W31322  21.731   1.242  12.856
69902W        W31323   6.344   5.340   3.254
69903W        W31324  44.911   4.795  13.933
69904W        W31325  15.270   3.398   2.393
69905W        W31326  17.623  32.961  14.952
69906W        W31327  32.583  16.142   3.153
69907W        W31328  39.507  44.889   4.273
69908W        W31329  13.108   8.214   1.706
69909W        W31330   1.926  43.472   3.328
69910W        W31331  10.330  13.695   2.707
69911W        W31332  40.027  23.509   1.781
69912W        W31333  12.156  28.620   1.817
69913W        W31334  35.077  11.244  12.560
69914W        W31335  25.205  39.861   1.318
69915W        W31336   4.407  37.452  11.856
69916W        W31337  13.658  37.914  12.944
69917W        W31338  17.694  18.091  13.887
69918W        W31339  37.522  18.612   4.633
69919W        W31340  37.956   9.311  11.932
69920W        W31341   1.941  26.088  11.899
69921W        W31342  14.723  36.499   1.410
69922W        W31343  16.164   9.197  11.609
69923W        W31344   5.769  14.185   1.316
69924W        W31345  34.088  28.935   0.828
69925W        W31346   5.341  38.058   4.226
69926W        W31347  19.062  23.022  12.988
69927W        W31348   2.835   3.313   3.185
69928W        W31349  16.215  34.426  14.891
69929W        W31350  37.552   3.460   1.402
69930W        W31351  31.492  15.781  10.452
69931W        W31352  21.573  31.921   2.797
69932W        W31353  32.552  18.215  13.902
69933W        W31354  43.947  11.270   0.794
69934W        W31355   9.259  34.085  14.813
69935W        W31356  15.088   4.419  14.914
69936W        W31357  28.019  12.662  11.084
69937W        W31358  39.039  31.108   2.685
69938W        W31359  43.962  28.470  14.758
69939W        W31360  34.554  32.107   1.338
69940W        W31361  20.591  42.801   4.813
69941W        W31362   5.309  19.206   0.429
69942W        W31363  40.823  38.389   2.329
69943W        W31364   1.851  18.154   3.629
69944W        W31365  15.598   7.866  11.076
69945W        W31366  11.324  17.597   1.717
69946W        W31367  21.613   8.860  11.497
69947W        W31368  37.041  40.423  12.010
69948W        W31369  32.506  41.927  11.607
69949W        W31370  17.679  40.951   0.442
69950W        W31371  37.336  10.271   1.329
69951W        W31372  16.188  10.145  11.922
69952W        W31373   8.275  11.328   2.320
69953W        W31374  39.825  27.646   3.307
69954W        W31375  15.784  38.940  12.536
69955W        W31376  29.058  24.540   0.475
69956W        W31377  15.758  42.411   2.302
69957W        W31378  33.950  13.725  11.856
69958W        W31379  17.697  27.527   4.226
69959W        W31380  39.319   8.714   3.770
69960W        W31381  11.255   4.846  14.759
69961W        W31382   4.439  31.571   0.838
69962W        W31383  24.088  13.778   4.604
69963W        W31384  35.467  30.478  14.801
69964W        W31385  18.185  41.385  14.316
69965W        W31386  20.205   6.302   3.351
69966W        W31387   1.767   1.943   1.878
69967W        W31388  14.823  43.363  12.573
69968W        W31389  25.179  35.071   3.249
69969W        W31390  18.629  15.147  14.438
69970W        W31391  19.067  17.159   0.915
69971W        W31392   8.901  37.834   3.160
69972W        W31393   2.408   7.256  12.006
69973W        W31394  21.520  12.323   3.280
69974W        W31395  11.365  26.973  11.457
69975W        W31396  16.728  36.919   0.843
69976W        W31397  43.476  41.536  14.440
69977W        W31398  25.984   5.741   4.813
69978W        W31399  11.341  40.381   4.654
69979W        W31400   1.953  44.988  14.900
69980W        W31401  23.517  38.547  12.419
69981W        W31402  26.477  29.461   1.795
69982W        W31403  41.016   6.793   3.191
69983W        W31404  21.580   2.901   3.211
69984W        W31405  34.001  14.200  12.396
69985W        W31406  27.160  25.667   1.242
69986W        W31407  32.530  25.208   2.803
69987W        W31408  15.783   0.900  12.994
69988W        W31409  29.047  38.478   1.340
69989W        W31410  14.320  21.068   2.869
69990W        W31411  43.499  37.559   1.795
69991W        W31412  21.714  40.970  11.409
69992W        W31413   5.830  38.426  13.443
69993W        W31414   0.284   4.330  13.824
69994W        W31415  17.624   3.458   3.212
69995W        W31416  43.377   9.248  12.542
69996W        W31417  25.665  25.566  12.875
69997W        W31418  17.176  11.273  14.864
69998W        W31419  13.620  38.400  11.995
69999W        W31420   0.272  15.172  12.512
70000W        W31421   2.237  12.697  14.826
70001W        W31422  21.613   8.777   4.322
70002W        W31423  24.526  44.978  12.918
70003W        W31424  15.087   2.420  13.022
70004W        W31425  28.163  29.093   3.320
70005W        W31426  42.460   8.845  10.477
70006W        W31427  26.698  21.599   0.819
70007W        W31428  20.684  28.596   2.790
70008W        W31429  12.299  36.967   4.252
70009W        W31430  42.417   7.409   2.685
70010W        W31431  19.553  31.952  13.521
70011W        W31432  31.419  44.493  10.603
70012W        W31433  24.197  27.538  14.507
70013W        W31434   4.379  32.445   0.784
70014W        W31435  26.473  25.674  10.600
70015W        W31436  11.844  24.017   0.404
70016W        W31437  41.838  35.376   1.842
70017W        W31438  21.647  37.451   1.819
70018W        W31439  39.888  31.921  10.982
70019W        W31440   3.276  44.869  10.947
70020W        W31441  28.566   6.297   1.725
70021W        W31442  10.695  12.651   2.228
70022W        W31443  17.203  18.053   3.251
70023W        W31444  38.958  27.510  11.546
70024W        W31445  10.168  38.337  12.465
70025W        W31446  16.181   2.727   2.312
70026W        W31447  28.938  25.001  13.339
70027W        W31448   8.299  40.421   2.200
70028W        W31449  30.656  28.608  12.911
70029W        W31450  40.902  14.295  13.410
70030W        W31451  37.069  15.783   2.389
70031W        W31452  17.307  34.371  10.053
70032W        W31453  43.456  40.538  11.058
70033W        W31454   1.806  27.691  13.907
70034W        W31455   7.334  25.188  11.870
70035W        W31456  10.361  26.133  12.021
70036W        W31457  13.295   4.751  10.553
70037W        W31458  24.682  30.605  10.959
70038W        W31459   8.690   3.834  14.336
70039W        W31460  16.692  26.171  14.394
70040W        W31461  12.662  38.497   2.215
70041W        W31462   2.331  35.423  10.561
70042W        W31463   5.862  34.411  11.480
70043W        W31464  18.757  43.463   3.332
70044W        W31465   5.928  24.189  12.439
70045W        W31466  21.661   9.198   0.271
70046W        W31467   7.845  40.320   0.893
70047W        W31468   4.867  30.972   5.705
70048W        W31469  26.624  44.327   2.800
70049W        W31470  39.031  43.790   0.777
70050W        W31471   1.773  32.392  13.520
70051W        W31472   4.889  34.485   0.865
70052W        W31473  11.220  41.305  11.021
70053W        W31474  32.423  21.200  13.409
70054W        W31475   8.341   2.430  10.935
70055W        W31476  22.157   5.375  14.341
70056W        W31477   0.470   6.919  14.446
70057W        W31478  26.603  37.403   3.237
70058W        W31479   7.293   9.293  11.595
70059W        W31480  31.985   6.233  11.390
70060W        W31481  18.616  26.580  10.570
70061W        W31482  15.699  11.213  14.000
70062W        W31483   0.387   3.834  13.797
70063W        W31484  22.530  41.407   3.699
70064W        W31485  23.654  25.514   1.375
70065W        W31486  32.099  32.539   0.761
70066W        W31487  15.719  26.116   0.387
70067W        W31488   3.298  30.541   0.948
70068W        W31489  44.973  19.145   3.188
70069W        W31490  16.246  36.943  12.938
70070W        W31491  13.261  37.576   2.681
70071W        W31492  19.637  29.095  13.362
70072W        W31493  10.755  24.505   4.618
70073W        W31494  10.313   7.248  13.943
70074W        W31495  31.443  42.855  11.923
70075W        W31496  13.705  31.447   3.712
70076W        W31497  12.312  36.400   1.338
70077W        W31498  11.231  11.631   4.257
70078W        W31499  26.199   8.745   0.769
70079W        W31500  16.812  30.132  14.395
70080W        W31501  39.830  16.717   9.660
70081W        W31502  30.918  13.234   3.813
70082W        W31503  12.749  42.425   0.354
70083W        W31504  44.799   7.699  14.970
70084W        W31505   3.406  13.793   2.749
70085W        W31506   2.330  33.584   3.182
70086W        W31507  34.499  29.949  11.593
70087W        W31508   5.424  16.199   4.290
70088W        W31509  30.460  15.747  10.992
70089W        W31510   6.889   9.381   1.290
70090W        W31511  40.007  43.963  11.476
70091W        W31512  26.518  15.717  14.290
70092W        W31513  35.952  12.193  14.408
70093W        W31514   9.367  21.200  11.416
70094W        W31515  38.074  40.810   4.347
70095W        W31516  31.632   0.915  12.546
70096W        W31517  40.964  27.644  10.902
70097W        W31518  41.978  11.136  13.863
70098W        W31519  13.238  44.950   1.288
70099W        W31520  22.546  13.644  12.503
70100W        W31521  10.694  11.698  14.491
70101W        W31522   8.762  42.524   0.798
70102W        W31523  38.061  24.055   2.690
70103W        W31524  32.624  41.814  14.781
70104W        W31525   8.307  27.020  12.056
70105W        W31526  44.413  36.037   1.221
70106W        W31527  31.916  26.008  14.028
70107W        W31528  38.054  36.376   4.770
70108W        W31529  21.628  21.642   4.163
70109W        W31530  43.807  29.537  13.391
70110W        W31531   5.203  41.303   1.265
70111W        W31532  26.460   4.325   0.798
70112W        W31533  18.101  33.066  11.514
70113W        W31534  20.065  10.763  11.021
70114W        W31535  11.355   8.193   3.230
70115W        W31536   6.423  17.795   4.182
70116W        W31537   6.231  26.672  14.997
70117W        W31538  19.694  17.689   4.313
70118W        W31539  23.111  43.861   3.664
70119W        W31540  28.985  37.483   2.894
70120W        W31541   2.283   2.331   2.419
70121W        W31542  20.228  37.946  13.903
70122W        W31543  31.138  11.699   4.612
70123W        W31544  17.245   3.251   2.224
70124W        W31545   4.361  34.913  12.339
70125W        W31546  22.027  20.092   3.387
70126W        W31547  30.991   3.799   2.290
70127W        W31548  15.643   5.275  14.841
70128W        W31549  32.473   7.760  12.484
70129W        W31550  40.304  24.157   3.216
70130W        W31551  25.993  21.547  14.390
70131W        W31552  13.153   8.300   1.417
70132W        W31553  10.214  13.143   1.926
70133W        W31554  37.509   2.868   2.731
70134W        W31555  14.294  32.931   0.448
70135W        W31556  20.641  26.576   2.314
70136W        W31557   1.474  39.971   0.479
70137W        W31558   0.946   7.727  10.096
70138W        W31559   8.301  19.685  11.023
70139W        W31560  24.156  17.077  14.473
70140W        W31561  22.719  28.065  14.445
70141W        W31562  33.414  11.671  12.480
70142W        W31563  27.173  20.148  12.836
70143W        W31564  39.014  23.560   3.847
70144W        W31565  41.043  40.052  14.460
70145W        W31566   2.463  41.022   0.774
70146W        W31567  23.731  12.337  10.942
70147W        W31568  20.744   3.764  14.928
70148W        W31569  27.508  24.664  13.487
70149W        W31570  39.028  37.464   0.456
70150W        W31571  20.042  14.619  12.443
70151W        W31572  26.187  38.069   3.766
70152W        W31573  20.749  21.230  12.546
70153W        W31574  40.994  27.565   2.835
70154W        W31575  18.732  43.845  13.413
70155W        W31576  38.902  15.219   0.307
70156W        W31577  31.612   2.833  12.423
70157W        W31578  44.956  17.625   1.872
70158W        W31579  14.135  38.531  10.579
70159W        W31580  14.130  43.399   1.801
70160W        W31581  15.823  16.214   0.330
70161W        W31582  44.398  13.772   4.777
70162W        W31583  31.577  10.189  13.490
70163W        W31584  28.151  14.824  13.950
70164W        W31585  25.217   3.249  11.925
70165W        W31586   4.256  28.518   1.914
70166W        W31587  31.506  30.465   3.846
70167W        W31588  23.140  24.174   0.791
70168W        W31589  25.521   0.768  12.077
70169W        W31590  28.655  31.535  11.450
70170W        W31591  13.770  22.209  14.921
70171W        W31592  30.624  42.380   2.824
70172W        W31593  40.374  22.204  12.966
70173W        W31594   3.354  39.907  11.120
70174W        W31595  10.371  38.569   0.961
70175W        W31596  44.438  30.973  12.515
70176W        W31597  12.625   6.230  12.500
70177W        W31598  17.217  40.926   3.714
70178W        W31599  26.623  30.568   3.786
70179W        W31600  37.061  25.201   2.665
70180W        W31601  32.397  33.028  12.935
70181W        W31602  10.146  10.747  14.011
70182W        W31603  14.594  44.310  14.342
70183W        W31604  44.328   8.835  11.534
70184W        W31605  28.466  23.712  11.036
70185W        W31606  18.671  42.865  13.341
70186W        W31607  44.393  31.620   1.272
70187W        W31608  23.218  24.667  13.384
70188W        W31609  13.271  17.616   3.824
70189W        W31610  30.445  44.807  10.985
70190W        W31611  16.313  39.956   3.219
70191W        W31612  42.311   4.433  14.387
70192W        W31613  43.970  35.925  14.417
70193W        W31614  43.951  11.834   1.353
70194W        W31615   1.238   7.883  10.455
70195W        W31616  32.982  27.662   2.213
70196W        W31617   5.891  44.325  13.791
70197W        W31618   0.485  27.677  11.400
70198W        W31619  27.149  10.834   0.371
70199W        W31620  37.909  40.417   4.197
70200W        W31621  30.417  40.966   3.156
70201W        W31622  32.927  32.401   1.368
70202W        W31623  13.180  41.006   2.794
70203W        W31624  21.584  23.107  12.066
70204W        W31625  18.217  25.574  14.491
70205W        W31626  10.161  21.124  14.972
70206W        W31627  28.044  33.469  12.871
70207W        W31628   6.270  20.103   4.206
70208W        W31629  18.128  28.615  11.596
70209W        W31630  16.702  19.726  12.880
70210W        W31631  39.908  34.866  13.970
70211W        W31632  13.714   7.246   2.805
70212W        W31633  23.645  28.487  13.507
70213W        W31634  11.189  27.638  12.881
70214W        W31635  15.730   4.779   2.777
70215W        W31636  19.779  39.459   1.439
70216W        W31637  31.121   1.957  13.031
70217W        W31638   4.796  42.384   1.787
70218W        W31639  28.560  21.255  13.802
70219W        W31640   9.274   7.895   3.339
70220W        W31641  17.248  28.082   3.855
70221W        W31642  44.943  19.210  11.867
70222W        W31643   3.748  16.203   3.333
70223W        W31644  11.313   2.935   1.866
70224W        W31645  32.955  30.148  13.528
70225W        W31646  16.234  40.907  13.417
70226W        W31647  17.275   2.433   0.756
70227W        W31648  28.547  18.281   4.300
70228W        W31649  19.227  23.667   4.800
70229W        W31650  10.854  25.569  13.874
70230W        W31651   4.753  35.999  14.005
70231W        W31652  22.216  42.784   2.185
70232W        W31653  24.559  19.059   4.784
70233W        W31654   7.705  44.881   1.931
70234W        W31655  36.083  26.507   3.358
70235W        W31656  10.238  16.678  14.465
70236W        W31657  36.926  36.589  10.980
70237W        W31658  29.996  27.940   4.606
70238W        W31659  18.226  32.597   1.702
70239W        W31660   5.856  42.854  14.016
70240W        W31661  14.275  11.752  14.330
70241W        W31662  17.125  16.242  11.891
70242W        W31663  19.155  41.837  12.018
70243W        W31664  19.127  42.874   2.413
70244W        W31665  14.646  40.487  11.609
70245W        W31666  28.676  15.708   2.347
70246W        W31667   8.692  33.962   4.802
70247W        W31668  42.863  27.540  14.934
70248W        W31669  41.930   1.977  14.855
70249W        W31670  41.316  24.703  13.937
70250W        W31671  17.199   2.423   3.758
70251W        W31672   3.745  34.408   3.859
70252W        W31673  12.739  39.931  13.868
70253W        W31674  31.441  42.900   5.216
70254W        W31675  35.566  18.781  12.373
70255W        W31676  26.994  20.552   2.323
70256W        W31677  36.565   6.740  10.981
70257W        W31678  30.907  15.083   4.630
70258W        W31679  31.140   0.748   9.947
70259W        W31680  10.225  35.418  12.474
70260W        W31681   9.382  29.043   1.394
70261W        W31682  41.531  22.231  11.460
70262W        W31683  21.697  28.979   2.751
70263W        W31684   1.455  33.100  12.902
70264W        W31685  21.081  13.258   4.805
70265W        W31686  15.226  34.607   0.249
70266W        W31687  31.039  27.567   4.833
70267W        W31688   9.188  31.959  11.597
70268W        W31689  27.106  44.412   4.301
70269W        W31690  28.076  22.656   1.897
70270W        W31691  37.911  40.524   9.972
70271W        W31692  10.737  13.202  11.545
70272W        W31693   4.363  27.146   5.730
70273W        W31694  39.454  34.467  13.388
70274W        W31695  24.481  12.116  11.887
70275W        W31696  33.431  33.947   3.750
70276W        W31697  17.684  41.884  11.068
70277W        W31698  15.274  21.686  10.412
70278W        W31699  10.787  11.860   4.124
70279W        W31700  23.203  35.078   3.646
70280W        W31701   4.275  31.021  11.882
70281W        W31702   1.756   8.228  12.868
70282W        W31703  11.809   7.753  10.467
70283W        W31704  42.500  34.968   0.945
70284W        W31705  43.921  22.563   0.919
70285W        W31706  18.052  28.059  14.293
70286W        W31707  24.031  20.049  10.489
70287W        W31708  11.367  42.840  11.572
70288W        W31709  34.930  35.998  14.417
70289W        W31710  11.185  23.008   2.737
70290W        W31711   0.947   9.773  13.938
70291W        W31712  13.116   5.917   3.763
70292W        W31713  41.042  29.950  13.029
70293W        W31714  31.037  20.263  11.073
70294W        W31715  11.359  19.536   4.192
70295W        W31716  19.674  29.451   2.211
70296W        W31717  31.944   1.899   4.157
70297W        W31718   9.231  26.109   1.210
70298W        W31719  20.652  41.036   4.822
70299W        W31720  34.439   4.410  11.415
70300W        W31721  21.580  22.104   1.809
70301W        W31722  39.475  18.579  12.551
70302W        W31723  22.571  23.539   4.601
70303W        W31724   7.702  19.606   4.648
70304W        W31725  14.121  24.064  14.359
70305W        W31726  36.537  21.738  12.361
70306W        W31727  29.663  15.755   0.347
70307W        W31728   7.243   7.867  13.904
70308W        W31729  17.261  15.115  14.800
70309W        W31730  44.483  34.501  11.901
70310W        W31731  12.236  34.034   0.737
70311W        W31732  34.930  36.991  14.798
70312W        W31733  34.116  16.643   3.154
70313W        W31734  25.597  40.802   0.361
70314W        W31735  28.463  40.840  14.441
70315W        W31736  26.612  29.648  11.563
70316W        W31737  15.201  44.967  11.105
70317W        W31738   7.226  29.603  13.966
70318W        W31739   3.856  34.511   1.438
70319W        W31740  36.588  13.758  14.020
70320W        W31741  43.333  37.993  12.455
70321W        W31742  16.169  20.086  14.501
70322W        W31743  15.780   4.722   1.444
70323W        W31744  20.600  20.531  13.046
70324W        W31745  39.901  23.139   0.766
70325W        W31746  16.741  33.040   3.864
70326W        W31747  36.411   3.904   2.792
70327W        W31748  38.856   1.969   0.801
70328W        W31749  35.455  42.438   0.287
70329W        W31750   6.408  22.098   1.359
70330W        W31751  25.113  21.674   4.645
70331W        W31752   3.735  12.710   0.294
70332W        W31753   4.780   5.218  14.958
70333W        W31754  11.282  17.264  14.884
70334W        W31755  15.327  32.495  13.910
70335W        W31756   7.204  23.230  13.865
70336W        W31757  12.160  31.008  14.298
70337W        W31758  28.529  19.576   4.259
70338W        W31759  15.813  30.560  11.976
70339W        W31760  11.211  40.810  13.818
70340W        W31761  35.052  40.317  12.063
70341W        W31762  20.177  39.483   4.198
70342W        W31763  23.992   0.796  14.028
70343W        W31764   3.844  32.978   4.164
70344W        W31765   4.785  27.521   2.769
70345W        W31766   5.433  37.488   3.207
70346W        W31767   0.837  25.643   0.834
70347W        W31768  34.084  12.248  12.917
70348W        W31769   7.682  23.166  10.904
70349W        W31770  18.237   2.901   2.253
70350W        W31771  32.414  41.822  12.895
70351W        W31772  44.827  35.915  11.577
70352W        W31773  24.618  40.443  11.089
70353W        W31774   7.285  26.171   2.342
70354W        W31775  29.974  35.535   1.847
70355W        W31776  14.797  30.021   5.302
70356W        W31777   4.276  30.655  12.060
70357W        W31778  24.218  18.086   3.730
70358W        W31779  42.334  32.136   3.266
70359W        W31780   0.984  37.463   1.218
70360W        W31781  16.203  13.753  13.536
70361W        W31782  30.047   2.457   2.286
70362W        W31783  28.531  13.127   0.766
70363W        W31784  38.365  22.637  14.954
70364W        W31785  30.453  23.230  10.937
70365W        W31786  31.447  44.311  12.537
70366W        W31787  29.048  25.127  11.553
70367W        W31788  30.503  43.810  13.397
70368W        W31789  24.160  42.898  10.965
70369W        W31790  30.045  11.231   1.708
70370W        W31791  12.638   1.296   3.336
70371W        W31792  43.771   3.721   2.903
70372W        W31793  27.510  12.122  10.502
70373W        W31794  29.500   6.734   4.624
70374W        W31795  19.696   7.673  10.574
70375W        W31796   3.736  35.857  10.894
70376W        W31797   7.766  28.046   1.242
70377W        W31798  20.225  24.975  14.813
70378W        W31799  10.183  23.553   5.169
70379W        W31800  33.407  24.673  12.861
70380W        W31801  44.397   1.437   2.828
70381W        W31802  44.408  29.092  12.562
70382W        W31803  32.046   1.378   4.291
70383W        W31804   1.776  26.140   3.659
70384W        W31805  27.558  38.553   1.754
70385W        W31806  20.149   8.229  11.423
70386W        W31807   8.337  24.703  10.919
70387W        W31808  26.473  16.575   0.799
70388W        W31809   1.922  21.703   1.308
70389W        W31810  34.930   7.754   0.408
70390W        W31811  22.685  42.018   3.145
70391W        W31812  30.963  41.507  11.043
70392W        W31813   4.344  23.174   4.179
70393W        W31814  25.028   1.939  13.876
70394W        W31815  42.843  13.698   0.731
70395W        W31816  19.245  16.569   0.269
70396W        W31817  31.073   5.428  13.946
70397W        W31818  33.960  26.573  11.992
70398W        W31819  17.298  41.865  10.481
70399W        W31820  31.612  38.896   2.752
70400W        W31821  13.201  32.030   3.206
70401W        W31822  13.337   8.378  11.948
70402W        W31823  41.379  15.228  13.901
70403W        W31824  29.144  38.833   3.694
70404W        W31825  27.673   3.286  10.916
70405W        W31826  30.121  13.231   2.691
70406W        W31827  40.017   7.329   4.223
70407W        W31828  34.062  17.648   4.679
70408W        W31829   5.308  34.975   2.847
70409W        W31830  28.951  39.855   2.336
70410W        W31831  40.969  10.157   0.300
70411W        W31832   5.412  34.878  10.590
70412W        W31833  15.776  43.502  14.421
70413W        W31834  37.468  14.825  11.521
70414W        W31835   7.318   4.726   1.874
70415W        W31836  12.189  22.008  14.303
70416W        W31837  15.295  41.379   0.406
70417W        W31838  29.631  44.429   1.755
70418W        W31839  20.131  30.467   5.304
70419W        W31840  10.681  16.220  14.503
70420W        W31841  20.160  18.790   4.711
70421W        W31842  28.503  43.788   4.143
70422W        W31843  33.959   4.841  14.275
70423W        W31844  22.519  23.588   2.218
70424W        W31845  41.481  41.404   3.304
70425W        W31846  42.466  19.194   4.766
70426W        W31847  34.481   7.223   3.653
70427W        W31848   0.950  42.957  11.572
70428W        W31849  42.789  18.626   4.719
70429W        W31850  31.952  21.259  11.487
70430W        W31851   6.817  15.623  12.470
70431W        W31852   0.786  17.275   2.396
70432W        W31853   2.781  11.797  10.480
70433W        W31854  27.662  26.108  12.874
70434W        W31855  18.114  29.051   2.362
70435W        W31856  41.426  39.396   3.346
70436W        W31857   1.442  19.239   2.260
70437W        W31858  24.601  43.818  11.096
70438W        W31859  40.964   2.916  10.531
70439W        W31860  24.590   8.678   2.806
70440W        W31861   9.883  38.428  14.465
70441W        W31862  44.443  23.155   2.678
70442W        W31863  16.721  17.253  14.441
70443W        W31864  12.210  38.001   1.841
70444W        W31865  41.346   4.428  14.930
70445W        W31866  14.720   2.349  14.808
70446W        W31867   0.268   8.735   2.784
70447W        W31868   7.326   0.305  12.904
70448W        W31869  27.060  34.899   3.345
70449W        W31870  40.461  21.022   1.916
70450W        W31871  12.630   8.165   1.759
70451W        W31872  19.160  13.611  13.368
70452W        W31873   1.873   0.823  12.989
70453W        W31874  37.914  19.159   1.239
70454W        W31875  21.590  22.151  12.389
70455W        W31876  40.451   5.718  11.426
70456W        W31877  25.966  37.532  12.544
70457W        W31878  39.872  44.459   3.808
70458W        W31879  20.716  20.702   0.437
70459W        W31880  20.564  40.879  12.916
70460W        W31881   4.881  11.263   1.871
70461W        W31882   9.386  25.480  11.909
70462W        W31883  22.502  16.619  12.058
70463W        W31884   4.205   2.917  11.877
70464W        W31885  39.903  14.716   2.698
70465W        W31886  22.131  41.957  14.401
70466W        W31887  23.021   2.943   3.167
70467W        W31888  11.781  24.151   2.672
70468W        W31889  17.202  29.669   3.245
70469W        W31890   8.896  24.541   4.780
70470W        W31891  39.409  44.313  14.374
70471W        W31892   3.363   1.415  11.931
70472W        W31893   5.357  29.102  12.541
70473W        W31894  34.433  37.341  11.061
70474W        W31895  25.498  21.515   1.322
70475W        W31896  18.786   5.329  11.563
70476W        W31897   6.295  31.552  13.496
70477W        W31898  43.378  35.045   2.785
70478W        W31899  36.973  19.071  14.425
70479W        W31900   3.824  33.483  13.548
70480W        W31901  24.663  36.389  12.974
70481W        W31902  29.100   6.216   4.187
70482W        W31903  31.521   3.932   1.798
70483W        W31904   3.805  19.778   4.815
70484W        W31905  33.508  15.802  10.032
70485W        W31906  22.252  24.519   2.738
70486W        W31907   0.844  25.478   3.773
70487W        W31908  34.521  44.916   0.759
70488W        W31909  16.693  34.592  14.903
70489W        W31910   0.971  22.718   2.347
70490W        W31911   7.837  10.208   1.272
70491W        W31912  10.371  12.788   1.287
70492W        W31913  38.548   5.810   1.818
70493W        W31914  18.627   9.838  13.484
70494W        W31915  37.041  36.890  12.034
70495W        W31916   3.354  23.543  10.945
70496W        W31917  13.209  22.073   0.889
70497W        W31918  29.056  19.543   1.790
70498W        W31919  21.610  43.287   3.228
70499W        W31920  19.139   2.340  12.466
70500W        W31921  13.265  41.459  10.945
70501W        W31922  40.539   6.917  10.531
70502W        W31923  34.590  26.955   1.861
70503W        W31924  15.630  18.220  10.550
70504W        W31925   3.441  43.389   2.749
70505W        W31926  31.026  15.188  14.435
70506W        W31927  32.034  25.065   0.253
70507W        W31928  34.560  44.408   1.363
70508W        W31929  11.739   0.409  12.880
70509W        W31930  11.180  37.542  14.770
70510W        W31931   1.756   2.823   2.364
70511W        W31932   0.987  23.501   1.446
70512W        W31933   3.775   5.239   4.651
70513W        W31934  38.967  38.035   0.806
70514W        W31935  11.686  12.647  12.574
70515W        W31936  22.027  36.008  11.056
70516W        W31937  30.625   9.723  12.546
70517W        W31938  22.045  25.175   2.736
70518W        W31939  44.895  26.702   3.372
70519W        W31940  16.093  40.399  11.862
70520W        W31941  20.552   1.294   1.809
70521W        W31942  14.644   3.836   3.642
70522W        W31943  35.992   8.227  10.534
70523W        W31944  19.206  42.967  14.832
70524W        W31945  36.457  20.203  14.787
70525W        W31946   0.327  21.750  14.888
70526W        W31947  29.130  20.651  12.059
70527W        W31948  40.937  31.551   4.755
70528W        W31949  14.156   2.798  11.573
70529W        W31950  40.465  43.879   0.444
70530W        W31951  20.104   6.921  12.528
70531W        W31952  32.555  43.503   4.616
70532W        W31953  15.302  13.149   1.309
70533W        W31954  22.159  35.444   3.380
70534W        W31955  21.209   3.238  12.841
70535W        W31956  11.174   9.341  11.462
70536W        W31957  42.323  44.348  13.325
70537W        W31958   5.372  19.631  13.022
70538W        W31959   0.838  44.352   1.902
70539W        W31960  11.643   5.928  10.570
70540W        W31961  26.572  37.556  10.891
70541W        W31962  34.874   8.334   1.823
70542W        W31963  44.792  23.500  14.393
70543W        W31964  15.584   6.282   1.320
70544W        W31965  20.200  36.843   4.253
70545W        W31966  18.123  35.923  11.405
70546W        W31967   5.385  17.081  10.069
70547W        W31968  42.979  18.583   5.254
70548W        W31969  28.628  28.940   0.433
70549W        W31970  36.030  18.131   4.598
70550W        W31971  27.515  16.624  11.524
70551W        W31972  31.614  22.697   1.770
70552W        W31973  16.218  22.687  12.408
70553W        W31974  38.999  35.905   1.340
70554W        W31975  42.319   0.320   4.628
70555W        W31976   8.178  33.877   3.211
70556W        W31977   3.455  35.892  12.501
70557W        W31978  35.550  17.209  13.386
70558W        W31979   4.238   1.451  12.507
70559W        W31980  39.851  23.086   1.318
70560W        W31981  19.534  29.051   1.267
70561W        W31982  17.105  41.825  12.003
70562W        W31983  44.397  42.842  11.891
70563W        W31984   5.250  25.518   3.219
70564W        W31985  21.114  29.453   0.799
70565W        W31986  29.130  28.172  13.908
70566W        W31987  33.017  24.634   2.310
70567W        W31988  16.168  32.083  11.372
70568W        W31989  38.866  39.849   0.898
70569W        W31990  40.365   7.670   3.736
70570W        W31991  30.054  44.351  11.473
70571W        W31992   0.312   2.406  13.806
70572W        W31993  22.215  36.055   2.877
70573W        W31994  37.534  33.506   1.436
70574W        W31995  33.492  29.574  14.906
70575W        W31996  32.914  43.767   4.191
70576W        W31997  40.400  33.532  11.049
70577W        W31998  10.304  14.720   1.785
70578W        W31999  44.892  42.510  12.064
70579W        W32000   0.859  20.678   3.163
70580W        W32001   1.763  12.288  14.419
70581W        W32002  23.212  25.054  13.381
70582W        W32003  18.627  28.929  13.378
70583W        W32004  22.690   5.362  14.515
70584W        W32005  31.498  23.048  14.031
70585W        W32006   2.437  12.638   5.106
70586W        W32007  14.729  16.223  13.912
70587W        W32008  34.439  36.559   0.300
70588W        W32009  26.077  43.862   4.286
70589W        W32010  22.194  40.917   3.274
70590W        W32011   8.798  42.317   5.294
70591W        W32012  11.155  34.385   2.832
70592W        W32013   1.288   6.723  11.059
70593W        W32014   1.892   0.840  14.310
70594W        W32015  23.226  41.340   1.216
70595W        W32016  33.874   3.269  14.428
70596W        W32017  23.091  40.338  12.897
70597W        W32018  31.633   9.802   3.351
70598W        W32019  42.859   3.795  14.918
70599W        W32020   8.824  39.378  11.403
70600W        W32021  12.740   4.787  12.906
70601W        W32022  27.552  31.136   1.753
70602W        W32023  43.473  44.923   1.411
70603W        W32024   1.260  16.236  11.517
70604W        W32025   6.745  42.392   0.930
70605W        W32026  34.602  18.610   3.297
70606W        W32027  32.106  37.340   1.803
70607W        W32028  41.036   5.357  14.290
70608W        W32029  35.028  33.911  13.320
70609W        W32030   4.424  33.614  10.594
70610W        W32031  22.063   7.674   3.147
70611W        W32032  35.862   8.831   3.710
70612W        W32033  41.924  38.970  12.028
70613W        W32034  25.529   1.477  12.541
70614W        W32035  15.326  37.470  10.913
70615W        W32036  27.676  15.125  11.939
70616W        W32037  42.431  13.198   2.333
70617W        W32038  29.425  38.457  14.444
70618W        W32039  24.028  31.443  11.888
70619W        W32040  38.332  25.035  11.388
70620W        W32041  21.028  39.453  10.899
70621W        W32042  23.033  44.938   1.787
70622W        W32043  33.517   5.776  13.969
70623W        W32044  41.332   7.252  14.348
70624W        W32045  40.955  39.061  13.540
70625W        W32046  17.783   1.450   4.702
70626W        W32047  14.134  19.259  14.984
70627W        W32048  13.837  20.607  14.509
70628W        W32049  22.095  11.785   4.213
70629W        W32050  22.126  25.515  11.882
70630W        W32051  27.043  28.076   0.400
70631W        W32052  30.567  10.769  10.427
70632W        W32053  41.825   8.886  13.044
70633W        W32054  20.677   7.342   4.197
70634W        W32055   0.955  35.022  11.927
70635W        W32056  33.422  42.869   9.941
70636W        W32057  18.197  22.734  10.993
70637W        W32058  26.055  21.158  14.421
70638W        W32059  29.066  22.139   3.713
70639W        W32060   6.297   6.246  12.956
70640W        W32061  19.739  19.081  13.494
70641W        W32062   2.770  26.592  12.978
70642W        W32063  23.659  41.472  14.380
70643W        W32064  27.594   3.791   2.847
70644W        W32065  25.180  30.987   1.849
70645W        W32066  33.032  31.061  12.397
70646W        W32067   9.180  28.092  13.434
70647W        W32068   4.283   4.260   3.852
70648W        W32069  33.045  29.647   3.770
70649W        W32070  20.158  26.165  14.447
70650W        W32071  11.785  32.106   0.809
70651W        W32072   8.857  27.048  12.351
70652W        W32073   4.802  35.901   3.662
70653W        W32074   7.828  19.107   1.732
70654W        W32075  29.943  38.386  13.323
70655W        W32076   1.307  18.150  12.947
70656W        W32077  34.566  17.069   4.721
70657W        W32078  30.597  18.065   2.303
70658W        W32079  27.459  15.809  12.095
70659W        W32080  20.691  25.592   4.128
70660W        W32081  35.908   8.774   0.314
70661W        W32082  17.561  14.237  11.436
70662W        W32083  18.694  35.469  14.321
70663W        W32084   8.817  41.978  13.474
70664W        W32085  29.924  43.514  11.478
70665W        W32086  32.434  15.804  13.903
70666W        W32087  12.278  16.753  13.433
70667W        W32088  12.336   3.879   1.215
70668W        W32089  22.632  18.783  10.996
70669W        W32090  39.816  14.607   3.254
70670W        W32091  36.036  30.111   0.274
70671W        W32092   6.206  38.945  12.505
70672W        W32093  29.099   5.831  14.429
70673W        W32094  31.938  40.547   5.245
70674W        W32095  24.223   8.742   4.321
70675W        W32096  17.593   0.939   0.916
70676W        W32097  16.170  23.222   4.747
70677W        W32098  18.238   9.692  13.878
70678W        W32099  26.524  35.047  12.095
70679W        W32100  24.223   9.219   3.718
70680W        W32101  40.822  35.522   0.727
70681W        W32102   7.714   5.865  14.313
70682W        W32103  14.151  27.070  10.435
70683W        W32104  11.764  14.268   1.795
70684W        W32105  32.455  31.541  11.915
70685W        W32106  13.175  31.117  13.997
70686W        W32107  42.840  25.659  10.982
70687W        W32108  17.607  15.734   0.261
70688W        W32109  43.409   0.945   0.421
70689W        W32110  42.374  26.204   1.889
70690W        W32111  40.017  34.913  10.621
70691W        W32112  33.411  32.944  12.932
70692W        W32113  27.002  30.150  12.850
70693W        W32114  38.354  36.414   0.762
70694W        W32115  41.346  18.664   3.191
70695W        W32116  20.741   2.880  12.533
70696W        W32117  21.079   8.249  13.425
70697W        W32118  10.268   2.365  10.992
70698W        W32119   7.688  14.139  10.530
70699W        W32120   6.303  43.398   1.901
70700W        W32121   9.667   0.931   1.707
70701W        W32122  39.498  21.128  13.054
70702W        W32123  13.646  35.440   3.771
70703W        W32124  27.535  12.735   0.371
70704W        W32125  17.196  37.076   1.407
70705W        W32126  40.438  14.118   0.844
70706W        W32127  44.263  36.066  12.369
70707W        W32128  39.487   2.268  13.900
70708W        W32129  24.707  29.114  11.437
70709W        W32130  30.552  33.491   2.769
70710W        W32131  24.586  17.680   1.441
70711W        W32132  36.457  32.107   5.100
70712W        W32133  11.215  28.546   4.695
70713W        W32134  41.507  34.017  11.394
70714W        W32135  34.607  24.113   1.851
70715W        W32136  40.352  37.426  11.499
70716W        W32137   0.479  21.225  10.932
70717W        W32138  17.162  26.534   2.358
70718W        W32139  29.566   1.824  10.977
70719W        W32140  22.021  10.203   0.793
70720W        W32141  10.244  28.109   5.238
70721W        W32142  25.121  36.443  11.880
70722W        W32143  35.983  23.712  14.986
70723W        W32144  33.532  15.305   9.995
70724W        W32145  11.827  35.044  12.526
70725W        W32146  16.800  40.928   2.828
70726W        W32147  20.097  44.845   1.248
70727W        W32148  31.972  26.661  14.996
70728W        W32149  35.373  43.929   2.819
70729W        W32150  37.924  20.130   3.231
70730W        W32151  43.799  32.552   4.326
70731W        W32152  10.817  40.437   4.761
70732W        W32153  13.837  11.173   4.310
70733W        W32154  20.235   5.396  12.946
70734W        W32155  28.940   8.666  11.890
70735W        W32156  13.156  35.976  10.120
70736W        W32157  31.127  42.971  11.068
70737W        W32158   5.734   8.398  11.989
70738W        W32159   0.782  21.685   3.716
70739W        W32160  39.026  12.196   2.335
70740W        W32161  25.150  32.488  13.913
70741W        W32162   0.963   6.206   2.305
70742W        W32163  31.926  31.454  12.572
70743W        W32164  11.265  36.998   3.196
70744W        W32165  32.025  39.051  11.916
70745W        W32166   8.898   6.362   4.624
70746W        W32167  44.959  41.852  10.448
70747W        W32168  12.280  26.990  14.937
70748W        W32169  33.410  12.753  11.959
70749W        W32170  25.524  13.717  10.528
70750W        W32171   8.804  25.599  12.360
70751W        W32172   6.793  24.557  10.495
70752W        W32173  13.315  28.540   1.933
70753W        W32174  38.884  35.959   2.827
70754W        W32175  38.069   7.175  10.987
70755W        W32176  31.632  20.094  14.842
70756W        W32177  35.972  15.813  14.463
70757W        W32178  35.110  44.356   3.635
70758W        W32179   3.310  31.405   3.230
70759W        W32180  19.248  42.461   0.454
70760W        W32181   4.216  40.005   2.793
70761W        W32182   3.333  23.715  11.529
70762W        W32183  18.743  44.440   4.773
70763W        W32184  25.095   2.855   4.673
70764W        W32185   1.391   4.795   3.245
70765W        W32186  18.161  22.566  13.524
70766W        W32187  25.526  40.874   4.808
70767W        W32188  31.005  39.480   2.672
70768W        W32189  22.565   2.854   5.216
70769W        W32190  18.585  31.532   3.858
70770W        W32191  13.147  24.192  12.052
70771W        W32192  10.248   3.772  10.002
70772W        W32193  29.060  38.934   1.695
70773W        W32194   1.946  36.893  10.424
70774W        W32195   5.772  40.475   3.837
70775W        W32196   6.238  22.570   5.274
70776W        W32197  32.949  15.163   4.147
70777W        W32198  13.659   7.812   1.866
70778W        W32199  13.343  24.168  12.432
70779W        W32200  20.092  36.964  13.014
70780W        W32201  10.274  29.637  10.562
70781W        W32202   2.955  42.776  13.954
70782W        W32203  41.992  30.515  14.023
70783W        W32204  36.026  33.600   1.355
70784W        W32205  17.704  18.251  14.306
70785W        W32206  28.487  38.502   1.378
70786W        W32207  15.278  24.205  12.095
70787W        W32208  16.620   8.730  12.887
70788W        W32209  10.155  42.360   5.262
70789W        W32210  39.006  40.398  10.028
70790W        W32211  22.552   8.837   2.311
70791W        W32212  40.432  41.037  12.036
70792W        W32213  44.828  36.847  12.012
70793W        W32214   1.924  40.811  13.431
70794W        W32215  29.542  35.975  12.838
70795W        W32216   9.325  34.371   0.380
70796W        W32217  19.265  12.714   3.855
70797W        W32218   6.226  44.875  10.551
70798W        W32219  29.106  31.477  14.915
70799W        W32220  11.208  18.110  11.021
70800W        W32221  40.496  42.475   0.823
70801W        W32222  11.331  38.893  14.427
70802W        W32223  44.762  26.042   3.326
70803W        W32224  30.626  38.950  11.448
70804W        W32225  35.574  20.745   1.794
70805W        W32226  25.533   6.327  13.531
70806W        W32227  10.217  44.499   2.381
70807W        W32228  25.631  15.197   3.785
70808W        W32229  40.479  16.618   0.859
70809W        W32230  36.531  44.465  11.458
70810W        W32231  22.591  30.075   1.933
70811W        W32232  10.834  37.412  11.983
70812W        W32233  18.574  44.809  11.092
70813W        W32234  25.514   3.227  12.555
70814W        W32235  28.970  25.033   0.424
70815W        W32236  29.664  10.781  11.921
70816W        W32237  31.987  43.888  10.594
70817W        W32238  33.047  35.396   1.248
70818W        W32239   8.853   7.405   4.302
70819W        W32240  33.561  30.027  14.341
70820W        W32241   1.291  41.994   0.846
70821W        W32242  37.954  33.611   3.272
70822W        W32243  32.484   7.333   1.727
70823W        W32244  39.824  35.365  13.393
70824W        W32245   4.341   5.254  11.428
70825W        W32246  27.652  26.550   1.891
70826W        W32247  43.271  42.440   0.470
70827W        W32248  17.730   5.334   2.415
70828W        W32249   9.292  19.622   4.162
70829W        W32250  44.938  39.890  10.946
70830W        W32251  34.101  12.274   1.706
70831W        W32252  12.810  21.594  12.385
70832W        W32253  18.207  38.948  13.911
70833W        W32254  23.005   8.180  12.440
70834W        W32255  11.802   0.747   4.252
70835W        W32256   9.763  24.156   1.841
70836W        W32257   2.892  18.648  11.431
70837W        W32258  29.977  34.042   4.629
70838W        W32259  13.802  23.020   1.811
70839W        W32260  22.209   9.861   0.852
70840W        W32261  17.143  13.733   0.750
70841W        W32262   2.340   4.778  14.894
70842W        W32263  15.720  28.614   3.163
70843W        W32264  39.405  17.798   2.795
70844W        W32265  30.098  16.672  11.522
70845W        W32266  41.819  22.720   0.746
70846W        W32267   3.443  26.463   0.864
70847W        W32268  33.482  28.637  11.035
70848W        W32269  42.022  36.348   5.090
70849W        W32270  21.037   4.253  10.429
70850W        W32271   3.829   4.841  12.566
70851W        W32272  28.983  26.462  13.857
70852W        W32273  17.613   9.657  12.936
70853W        W32274  13.239  44.828   3.851
70854W        W32275   8.318  25.184  12.884
70855W        W32276  21.036  18.204  13.058
70856W        W32277  14.173   5.287   4.656
70857W        W32278   0.377  30.978   1.869
70858W        W32279  11.823   7.714  13.921
70859W        W32280  33.090  38.406  10.442
70860W        W32281  11.824  42.974  14.810
70861W        W32282  17.118  16.745   0.926
70862W        W32283  15.146  44.296  11.466
70863W        W32284   8.860   8.809  11.036
70864W        W32285   2.789  10.336   1.854
70865W        W32286  41.828  28.465  12.867
70866W        W32287   2.265   5.861  12.451
70867W        W32288  26.517  19.139   3.793
70868W        W32289  16.128  24.993  12.897
70869W        W32290  29.506   0.412   3.750
70870W        W32291  37.444  26.078   4.695
70871W        W32292   6.677   9.274   3.377
70872W        W32293   6.340  15.149   4.692
70873W        W32294  11.257  44.390   1.847
70874W        W32295   8.834  36.423   1.777
70875W        W32296  44.772  25.470  14.021
70876W        W32297  13.121   5.385   1.842
70877W        W32298   0.415  29.594   3.294
70878W        W32299  21.599  21.260   3.222
70879W        W32300  16.636  18.091   4.172
70880W        W32301  13.207  30.507   1.230
70881W        W32302  22.052  13.600   0.777
70882W        W32303  24.571  21.682  14.985
70883W        W32304   9.348   5.281   4.640
70884W        W32305   7.252  21.671  11.606
70885W        W32306  42.876  27.469   4.174
70886W        W32307  18.283  26.673   0.938
70887W        W32308  25.512  18.722  11.389
70888W        W32309   6.217  13.117  11.468
70889W        W32310  18.687  25.051   1.893
70890W        W32311  27.173  26.609   1.759
70891W        W32312   7.845  13.677   3.665
70892W        W32313   5.861  18.642  12.924
70893W        W32314  38.875  22.592   3.713
70894W        W32315  18.109  19.562   4.800
70895W        W32316  14.162  15.186  12.865
70896W        W32317  22.580  23.525   0.418
70897W        W32318  15.715  13.655   4.197
70898W        W32319   3.286  44.414   0.817
70899W        W32320  37.393   7.886   3.834
70900W        W32321   7.867  20.051  13.961
70901W        W32322   2.416  26.980  14.774
70902W        W32323   8.181  34.020   1.933
70903W        W32324  28.534   4.743   2.237
70904W        W32325  33.393  38.988   3.218
70905W        W32326  22.534   5.230   0.345
70906W        W32327  44.303  42.926  10.535
70907W        W32328  33.615   0.448   3.272
70908W        W32329  32.603  18.130   2.392
70909W        W32330  25.571   9.378   0.865
70910W        W32331  39.867  17.629   5.198
70911W        W32332  41.938   1.923   2.754
70912W        W32333  19.172  33.405  14.809
70913W        W32334   6.324   7.853  13.939
70914W        W32335   8.854  34.495  12.435
70915W        W32336   1.451  36.043  12.952
70916W        W32337  33.437  31.552  14.873
70917W        W32338  11.689  35.985  10.030
70918W        W32339  31.950   3.905  10.644
70919W        W32340   5.255  18.649  13.353
70920W        W32341  44.756  31.094   4.805
70921W        W32342  25.048  17.104   4.132
70922W        W32343  24.163  37.462  10.954
70923W        W32344  31.550  21.164  13.492
70924W        W32345  11.220   0.799  12.852
70925W        W32346  13.831   4.821   2.903
70926W        W32347  33.613  44.322  10.935
70927W        W32348   5.696  19.199   1.898
70928W        W32349  13.671  20.040   2.789
70929W        W32350  38.045  10.826  12.549
70930W        W32351  21.120  44.298   3.788
70931W        W32352  15.608  41.295  14.002
70932W        W32353  41.914  36.396   3.856
70933W        W32354  27.058   1.913   2.355
70934W        W32355  29.947  28.621   3.726
70935W        W32356  15.712  17.265  12.361
70936W        W32357  21.196  31.927   2.210
70937W        W32358   7.874   6.732   1.441
70938W        W32359  43.348  32.076  13.320
70939W        W32360  40.027  22.063   0.939
70940W        W32361  14.793  28.023   0.260
70941W        W32362  40.369  39.328   3.688
70942W        W32363  30.571   3.261   2.864
70943W        W32364   7.193  30.125  12.055
70944W        W32365  11.154  39.924   2.763
70945W        W32366  30.014  12.182  14.348
70946W        W32367  39.837  37.851   2.411
70947W        W32368  15.209  31.103  13.518
70948W        W32369   8.677  44.776  13.944
70949W        W32370  38.554  10.349   2.702
70950W        W32371  43.967  26.457   3.860
70951W        W32372  42.484  25.505   0.910
70952W        W32373   6.403  15.233   4.130
70953W        W32374  17.724  26.011   4.239
70954W        W32375  42.292  44.866  12.459
70955W        W32376   4.785   9.831   4.269
70956W        W32377  29.476  13.320   1.792
70957W        W32378  29.589   8.654   9.926
70958W        W32379  44.816   4.422   0.284
70959W        W32380  26.072   5.345  11.075
70960W        W32381  12.129   6.275  11.934
70961W        W32382  21.675  28.482  12.345
70962W        W32383  36.042  14.602   0.823
70963W        W32384  16.792  22.210   3.787
70964W        W32385  44.826  36.405  13.960
70965W        W32386  35.879  23.005   2.870
70966W        W32387  32.457  31.428  12.460
70967W        W32388  22.103  33.528  11.435
70968W        W32389  10.754  18.611   4.602
70969W        W32390   3.308  31.621  14.876
70970W        W32391  42.975   6.346  13.800
70971W        W32392  38.396  10.852  11.913
70972W        W32393  37.338   9.376   3.333
70973W        W32394  36.473  26.679  11.540
70974W        W32395   0.347  16.581  13.962
70975W        W32396  43.022  24.627   0.732
70976W        W32397  25.657  25.173   3.220
70977W        W32398   6.418   4.906  14.355
70978W        W32399  41.507  31.988  13.801
70979W        W32400  27.148  21.137  13.819
70980W        W32401  43.516  42.020  14.919
70981W        W32402  32.615  20.623   1.703
70982W        W32403  17.306  41.918   1.905
70983W        W32404  39.870  40.452  13.034
70984W        W32405  14.663  39.525   0.478
70985W        W32406   2.790  30.932   3.854
70986W        W32407  23.033  23.179  14.399
70987W        W32408  24.527  44.941   1.927
70988W        W32409  27.042  37.542   2.749
70989W        W32410   0.930   3.401  12.578
70990W        W32411  18.647   3.768   0.369
70991W        W32412   5.281  11.670  11.571
70992W        W32413   7.357  29.619  10.637
70993W        W32414  15.645   1.264   4.182
70994W        W32415  15.305  26.592   2.805
70995W        W32416  10.772  22.175   4.720
70996W        W32417   4.380  14.628  13.547
70997W        W32418  37.542  34.590   4.711
70998W        W32419  33.941  44.822   4.137
70999W        W32420   0.850  26.540  14.292
71000W        W32421   7.201  40.348   1.826
71001W        W32422  19.241  36.854   4.740
71002W        W32423  40.342  44.472   1.237
71003W        W32424   7.192  20.229  12.901
71004W        W32425  42.935   5.436   1.321
71005W        W32426  22.085  14.612   1.836
71006W        W32427   4.920  23.072   3.233
71007W        W32428  15.725   9.244  10.499
71008W        W32429  17.140   1.884  12.940
71009W        W32430  41.903   3.323  14.006
71010W        W32431  36.505  38.517  10.605
71011W        W32432  29.447  28.072  14.017
71012W        W32433  25.000  15.623  12.362
71013W        W32434  18.571  42.518   0.862
71014W        W32435   5.244  28.519   1.830
71015W        W32436  38.874   4.732   0.393
71016W        W32437   4.924  13.120  12.872
71017W        W32438  30.533  10.696   9.950
71018W        W32439  41.919  26.508   3.362
71019W        W32440  38.909  16.101   1.399
71020W        W32441  22.241  17.188  14.454
71021W        W32442   4.293  30.477  14.479
71022W        W32443   0.817  13.134  12.885
71023W        W32444  11.730  43.454  13.047
71024W        W32445   9.361  17.281  12.077
71025W        W32446  18.087  12.814   2.748
71026W        W32447  36.551   0.774  12.967
71027W        W32448   3.866  36.028   5.183
71028W        W32449   9.800   1.842  10.917
71029W        W32450   5.229  20.712   3.321
71030W        W32451  32.626  40.415   1.225
71031W        W32452  18.101  17.738   4.301
71032W        W32453  41.301  34.992   4.631
71033W        W32454  10.142  39.410   1.287
71034W        W32455  44.317  21.168  13.893
71035W        W32456  32.995  20.190  10.897
71036W        W32457   5.692  31.972  12.923
71037W        W32458  14.095  18.635  11.919
71038W        W32459  22.193  33.054   2.397
71039W        W32460  24.629   1.797   0.274
71040W        W32461  33.431  40.863   1.793
71041W        W32462  15.760  15.312  10.097
71042W        W32463  33.382   4.381   3.699
71043W        W32464  36.976  33.100   0.760
71044W        W32465  16.721  32.968   4.250
71045W        W32466  19.231  39.964  14.764
71046W        W32467  14.198  23.052  13.518
71047W        W32468  37.570   8.688   1.715
71048W        W32469  20.561  28.626  11.470
71049W        W32470  35.487  18.787  13.890
71050W        W32471  32.097  25.078   0.869
71051W        W32472  22.579   7.256  13.417
71052W        W32473  33.528  22.200   1.907
71053W        W32474  43.837  27.642   0.818
71054W        W32475  31.409  31.063   4.128
71055W        W32476  21.587  44.822   1.416
71056W        W32477  25.568   4.808  13.953
71057W        W32478  38.499  25.996  10.912
71058W        W32479  29.144  17.564   1.905
71059W        W32480  41.351  17.224  12.006
71060W        W32481   8.241  16.156  13.360
71061W        W32482  20.684  27.178   4.775
71062W        W32483  40.317  36.441  13.957
71063W        W32484  25.599  19.111   2.727
71064W        W32485  32.903  35.077   1.396
71065W        W32486  12.206  17.681   2.874
71066W        W32487   1.764  44.775   1.258
71067W        W32488  19.124  41.965  13.924
71068W        W32489  39.520   4.707   2.677
71069W        W32490  23.216  42.885  13.508
71070W        W32491  38.046  22.088   3.147
71071W        W32492   2.839   4.822   1.798
71072W        W32493  38.940  18.184  13.342
71073W        W32494   7.180  42.479   3.187
71074W        W32495  38.925   9.676  11.465
71075W        W32496  11.862   7.797   1.699
71076W        W32497   1.831  35.596  12.496
71077W        W32498  10.780  33.991   2.237
71078W        W32499  20.239  37.932  12.398
71079W        W32500  13.298  38.541  14.958
71080W        W32501  13.168  40.964   0.413
71081W        W32502  39.849  39.959   0.856
71082W        W32503  41.517  18.747  10.483
71083W        W32504  39.874  23.673  13.361
71084W        W32505  29.172  36.077  14.434
71085W        W32506  26.478  42.521  12.914
71086W        W32507  31.074  36.564  11.999
71087W        W32508  39.953  40.907   0.315
71088W        W32509  39.374  17.630  14.378
71089W        W32510  15.281  18.741  13.846
71090W        W32511  37.967   9.355   4.234
71091W        W32512  16.191   5.299   4.747
71092W        W32513  42.787  35.931   0.775
71093W        W32514  42.473  32.571  12.422
71094W        W32515  13.745  34.440  11.421
71095W        W32516  33.061  11.643   1.434
71096W        W32517  40.528   7.881  11.539
71097W        W32518   8.738  27.053   1.372
71098W        W32519  13.268  34.471   4.656
71099W        W32520   4.782  37.884   2.749
71100W        W32521  33.942   0.493   1.930
71101W        W32522  20.138   5.369  11.017
71102W        W32523  36.896  36.855   1.712
71103W        W32524  31.915  11.727   3.374
71104W        W32525  10.266  33.470  11.901
71105W        W32526   6.693  12.831  14.871
71106W        W32527  11.354  21.046  13.373
71107W        W32528  24.036  10.720   3.669
71108W        W32529  13.781  43.459  13.934
71109W        W32530  38.973  13.239   2.232
71110W        W32531   2.310  10.855  13.506
71111W        W32532  31.924   3.434   4.257
71112W        W32533  33.989  31.588   2.725
71113W        W32534   3.307   6.340  10.957
71114W        W32535  40.350   6.300   5.197
71115W        W32536  37.462  31.082  11.096
71116W        W32537  14.183  40.384  12.086
71117W        W32538  23.086  26.600  14.362
71118W        W32539  26.571   0.442   1.869
71119W        W32540  23.149  34.099  14.825
71120W        W32541  27.173  40.489   2.230
71121W        W32542  22.559  21.199  11.594
71122W        W32543   0.900   9.757   1.700
71123W        W32544  22.726  28.670   1.919
71124W        W32545  21.752  32.466   4.196
71125W        W32546  41.003  11.367   0.245
71126W        W32547  36.986  23.050  11.551
71127W        W32548  36.882  31.566  14.490
71128W        W32549  31.941  37.865  11.478
71129W        W32550   4.771  17.067   2.183
71130W        W32551   7.835  27.038  14.922
71131W        W32552  23.093  17.742   1.866
71132W        W32553  17.721  29.448   4.353
71133W        W32554  40.429  15.283  12.497
71134W        W32555  42.783  44.348  13.799
71135W        W32556  34.558  10.875   0.300
71136W        W32557   2.271  38.942   1.415
71137W        W32558  22.543   6.773  14.298
71138W        W32559  28.515  22.158  12.012
71139W        W32560  17.144  36.444  14.763
71140W        W32561  39.055  29.996   2.745
71141W        W32562   3.896  31.418   3.746
71142W        W32563  20.229  22.194  11.915
71143W        W32564  14.692  15.154  14.879
71144W        W32565  23.657  34.952  11.451
71145W        W32566   1.824  42.839  12.529
71146W        W32567  10.707  44.970  14.995
71147W        W32568  33.018  16.754   4.635
71148W        W32569  39.400  39.015  14.405
71149W        W32570  13.624   4.706   4.759
71150W        W32571  15.247  13.611  11.522
71151W        W32572  37.885   2.358  10.020
71152W        W32573  18.202  25.626  12.500
71153W        W32574  42.814  18.128  12.555
71154W        W32575  32.612  23.563   0.415
71155W        W32576  19.758  10.261   1.899
71156W        W32577  40.001   3.788   2.210
71157W        W32578   4.415   1.767  13.490
71158W        W32579  28.116  15.203  12.344
71159W        W32580  27.140  23.502   0.401
71160W        W32581  14.200  42.373  11.510
71161W        W32582  10.325  32.085   2.877
71162W        W32583  22.151  18.748  14.776
71163W        W32584  14.718  44.860  13.320
71164W        W32585  30.081  30.583  14.864
71165W        W32586  21.540  14.111   5.236
71166W        W32587  15.686  38.548  11.474
71167W        W32588  37.415  23.627   0.466
71168W        W32589  22.729  31.485   0.944
71169W        W32590  13.773  40.052  12.090
71170W        W32591  23.499  31.107   4.786
71171W        W32592  20.617  22.134  13.914
71172W        W32593  16.222  43.393   2.727
71173W        W32594  21.636  15.649   0.321
71174W        W32595  28.443  24.481  12.094
71175W        W32596   8.756  20.153  11.610
71176W        W32597  15.243  25.164  11.997
71177W        W32598  37.896  13.836   1.232
71178W        W32599   8.309  17.768   4.263
71179W        W32600  28.976  21.596   4.786
71180W        W32601  22.712  14.155   3.295
71181W        W32602  25.010  19.592   3.374
71182W        W32603  23.174   7.703   3.194
71183W        W32604  11.266  42.287   2.882
71184W        W32605  42.335  42.776   0.808
71185W        W32606  27.526   8.403  14.358
71186W        W32607  23.579   3.890  11.006
71187W        W32608  20.047   4.413  11.372
71188W        W32609  41.918  20.529  11.917
71189W        W32610  25.060  22.121  14.014
71190W        W32611  10.632   6.844  11.868
71191W        W32612  19.705  37.880   3.656
71192W        W32613  13.642  24.981  14.806
71193W        W32614  39.412  43.385  13.337
71194W        W32615   3.251  34.550  12.428
71195W        W32616  35.964  19.635   3.179
71196W        W32617   7.242  20.055   3.773
71197W        W32618  16.756  36.557   1.862
71198W        W32619  44.914  37.356   2.726
71199W        W32620   1.453  24.649   0.398
71200W        W32621  14.799  29.133   2.700
71201W        W32622  29.626  36.548   1.746
71202W        W32623  25.696   3.766   9.484
71203W        W32624  26.038   0.803   3.685
71204W        W32625  22.167  17.704  12.521
71205W        W32626  43.947  27.119   3.758
71206W        W32627  27.558   8.180   2.402
71207W        W32628  12.220  16.651  12.976
71208W        W32629  44.990  14.725   0.269
71209W        W32630  17.186   9.761  14.366
71210W        W32631  15.756  22.718  11.034
71211W        W32632  26.531   5.865   2.230
71212W        W32633  26.494  41.356  13.790
71213W        W32634  25.160   8.351  14.870
71214W        W32635  43.796  33.536  11.608
71215W        W32636  43.809   3.267  10.508
71216W        W32637  24.603  33.396  12.087
71217W        W32638   8.850  23.153  13.953
71218W        W32639  10.853  38.831   5.298
71219W        W32640   8.172  25.985  13.045
71220W        W32641   6.689   4.277  12.400
71221W        W32642  29.527   3.763   1.924
71222W        W32643  18.123  28.037   3.757
71223W        W32644  35.508  36.910  11.536
71224W        W32645  29.474  29.560   1.764
71225W        W32646  25.007  24.548  11.585
71226W        W32647   0.387  18.248  12.472
71227W        W32648  36.884  32.091   2.308
71228W        W32649  41.936  29.167  14.448
71229W        W32650  14.319  14.834   1.894
71230W        W32651   7.777  33.593  11.071
71231W        W32652  21.041  29.540   2.296
71232W        W32653  40.902   4.714  12.855
71233W        W32654   7.362  11.692  13.034
71234W        W32655  13.291  38.467  12.555
71235W        W32656  25.128   2.943   1.389
71236W        W32657  38.918  19.702   2.395
71237W        W32658  11.844  41.945  12.864
71238W        W32659  18.204  23.010   1.914
71239W        W32660   2.803  19.680   0.861
71240W        W32661  14.275   4.823  14.287
71241W        W32662   6.828   7.744   2.331
71242W        W32663  42.800  29.426   2.418
71243W        W32664  24.081   4.357  11.036
71244W        W32665  36.375  23.228   0.882
71245W        W32666  10.648  22.668  14.019
71246W        W32667   6.418  29.054   3.674
71247W        W32668  36.573  33.603   1.224
71248W        W32669  18.151   7.775  12.968
71249W        W32670  32.985   9.185  12.824
71250W        W32671   4.217  43.386   4.354
71251W        W32672  25.001  12.647  14.901
71252W        W32673   2.401  25.616  12.896
71253W        W32674   2.439  23.591  11.602
71254W        W32675  42.805  29.950   4.183
71255W        W32676  42.811   6.738   3.752
71256W        W32677  15.605   9.211  11.859
71257W        W32678  41.805  27.593  12.558
71258W        W32679  25.990  29.972  12.355
71259W        W32680  11.691   3.852  14.301
71260W        W32681  26.485  41.865  14.780
71261W        W32682  20.635  36.521   2.733
71262W        W32683  26.111  39.558  13.476
71263W        W32684  17.604  32.619   1.741
71264W        W32685  10.291  13.346   3.386
71265W        W32686   0.968  43.965  10.588
71266W        W32687   0.921   0.755  13.006
71267W        W32688   7.760  32.026  11.499
71268W        W32689  33.465  36.356   1.871
71269W        W32690  33.994  38.399  12.958
71270W        W32691  10.286  31.076   0.273
71271W        W32692  30.111  24.215  11.941
71272W        W32693   2.308  25.188   3.674
71273W        W32694   5.779  36.420  11.036
71274W        W32695  30.086  17.629  11.065
71275W        W32696  43.341  34.915   0.287
71276W        W32697  17.564  29.437   2.856
71277W        W32698   7.196   3.816  14.507
71278W        W32699  23.013  31.954   0.938
71279W        W32700  10.737   5.715  12.340
71280W        W32701  34.528  28.033  13.937
71281W        W32702  24.682  21.549   0.248
71282W        W32703  27.666  23.588   0.867
71283W        W32704  22.128  18.111  11.881
71284W        W32705  37.963  12.180  13.317
71285W        W32706  36.885  36.886   1.221
71286W        W32707  20.671  41.881   0.748
71287W        W32708   8.710  18.752   0.818
71288W        W32709   2.803  39.460   0.468
71289W        W32710  10.155  11.757  14.487
71290W        W32711   3.216  34.926   1.790
71291W        W32712  42.017  26.565   5.133
71292W        W32713  25.038  33.561   2.701
71293W        W32714   5.282  27.132   3.250
71294W        W32715  26.609  35.367   0.743
71295W        W32716  32.548  37.437   0.335
71296W        W32717   1.355  44.773  14.398
71297W        W32718  35.598  26.178  10.610
71298W        W32719  22.588  36.914   2.387
71299W        W32720  39.474  31.035  13.468
71300W        W32721  35.922   1.797  13.998
71301W        W32722  34.545  28.963   0.789
71302W        W32723  15.579   3.946  14.419
71303W        W32724  32.105  41.404  11.569
71304W        W32725  37.882  41.897  13.323
71305W        W32726   9.199  21.163   0.368
71306W        W32727  10.721   5.802   0.322
71307W        W32728  27.545  41.517   0.466
71308W        W32729  36.928  35.554   4.617
71309W        W32730  27.618  40.508   4.312
71310W        W32731  14.825  40.967  14.438
71311W        W32732  36.860  23.188  11.127
71312W        W32733  10.206  16.659   3.658
71313W        W32734   6.355  40.361  12.091
71314W        W32735   5.790   0.821  11.855
71315W        W32736  19.744  23.038  12.029
71316W        W32737  43.437  35.547   2.358
71317W        W32738  13.198  21.084  14.771
71318W        W32739  22.550  15.295   2.783
71319W        W32740  44.775  22.553  14.953
71320W        W32741  16.076  21.581  11.906
71321W        W32742  32.920  21.733   4.708
71322W        W32743   8.289   3.721  10.547
71323W        W32744  33.464  17.751   1.744
71324W        W32745  15.615   0.930  14.026
71325W        W32746  43.981  37.032   4.719
71326W        W32747   4.323  44.948   3.684
71327W        W32748  39.984  32.102   1.245
71328W        W32749  18.584   8.263   0.285
71329W        W32750  42.379  28.112   0.259
71330W        W32751  33.027  14.753   2.357
71331W        W32752  24.053  38.035   1.819
71332W        W32753  19.109  23.053  11.126
71333W        W32754   2.457  23.621   1.774
71334W        W32755  17.307  29.166   1.721
71335W        W32756   5.392  16.257  13.020
71336W        W32757  12.222   0.295  12.060
71337W        W32758  10.339  40.446   2.225
71338W        W32759   2.880  21.528   4.121
71339W        W32760  31.981  37.348   1.290
71340W        W32761  15.660  12.780  11.932
71341W        W32762  40.391  36.517   4.645
71342W        W32763  29.442  42.944   0.738
71343W        W32764   9.829  38.927  11.571
71344W        W32765  16.085  11.734  14.347
71345W        W32766   5.867  26.637   2.868
71346W        W32767  36.952  27.051  13.962
71347W        W32768  34.911  44.333   1.225
71348W        W32769  21.256   1.772   3.273
71349W        W32770  36.426  23.224  10.409
71350W        W32771   9.687  28.147   0.422
71351W        W32772  10.859  42.975   1.268
71352W        W32773   3.329  44.356   4.118
71353W        W32774  33.017  12.149  12.897
71354W        W32775  15.090  14.740   0.352
71355W        W32776  34.998   6.248   0.872
71356W        W32777  44.363  27.569  11.052
71357W        W32778  27.047  41.463   4.787
71358W        W32779  38.442  12.743   1.295
71359W        W32780   0.484  36.864  11.428
71360W        W32781  43.371   4.870   2.684
71361W        W32782  16.140   7.310  10.621
71362W        W32783  43.479   7.881   3.214
71363W        W32784  26.688  21.113  10.924
71364W        W32785  25.021  37.419   2.347
71365W        W32786  44.827  32.105   1.931
71366W        W32787  43.417  30.473   4.243
71367W        W32788  44.417  42.898  14.829
71368W        W32789  16.288  28.555  14.449
71369W        W32790  29.565  17.142  14.818
71370W        W32791  44.926  44.346  10.593
71371W        W32792   2.420  21.634  11.514
71372W        W32793  22.144   5.284   2.873
71373W        W32794  11.801  37.383   3.711
71374W        W32795  33.514  42.903  12.059
71375W        W32796  18.118  17.674   1.437
71376W        W32797  15.731  26.138  14.496
71377W        W32798  16.811  40.003  12.834
71378W        W32799   9.823   0.833  10.981
71379W        W32800  16.600  15.637   4.186
71380W        W32801  10.254  12.617   4.657
71381W        W32802  34.966  17.261  10.473
71382W        W32803  23.059   1.440  12.577
71383W        W32804   8.813  37.980   1.313
71384W        W32805  37.868   0.296   2.773
71385W        W32806  33.586  20.257   3.629
71386W        W32807  24.654  25.095   0.944
71387W        W32808  24.213   8.398  14.493
71388W        W32809  19.545  13.841   1.363
71389W        W32810  30.443   8.744  13.447
71390W        W32811  34.429  39.946   0.754
71391W        W32812  20.079  21.590   4.247
71392W        W32813  39.343  14.158   2.672
71393W        W32814  27.501  31.577  14.342
71394W        W32815  32.887  24.608  11.440
71395W        W32816  40.530  37.400   4.619
71396W        W32817  39.473  11.784   1.771
71397W        W32818   8.813  41.413  10.935
71398W        W32819  31.909  15.824  14.924
71399W        W32820  27.071  15.173   0.822
71400W        W32821   6.321  29.150   3.374
71401W        W32822   4.369  20.216  10.478
71402W        W32823   4.377  23.677   0.282
71403W        W32824  20.667  27.962   2.306
71404W        W32825  27.498   0.950   2.369
71405W        W32826  38.497  31.078   1.702
71406W        W32827  19.656  12.692   3.213
71407W        W32828  10.368   3.711   1.903
71408W        W32829  17.259  23.089   0.760
71409W        W32830  15.692   7.325   3.179
71410W        W32831  34.608  38.498   2.820
71411W        W32832  19.149  25.137   3.769
71412W        W32833   0.760  28.664  11.393
71413W        W32834  37.847  38.968  14.497
71414W        W32835   7.731  39.557  14.401
71415W        W32836  23.018  23.576  14.336
71416W        W32837  23.635  30.543  10.605
71417W        W32838  14.151  14.713   1.442
71418W        W32839   2.870  28.668   1.283
71419W        W32840  23.721  22.034  11.528
71420W        W32841  32.526  14.617   4.744
71421W        W32842  16.110  17.726   3.852
71422W        W32843  35.933   4.225  12.017
71423W        W32844  39.865  19.744   4.323
71424W        W32845   1.371  11.328  11.873
71425W        W32846  32.504  19.733  10.496
71426W        W32847   9.645  27.985   0.809
71427W        W32848  32.426  40.331   3.304
71428W        W32849   7.895  20.650  13.509
71429W        W32850  26.641   8.327   2.336
71430W        W32851  26.208  40.889   4.789
71431W        W32852  27.032  35.070  12.071
71432W        W32853   0.452  19.077  11.965
71433W        W32854  31.451  15.217  12.538
71434W        W32855  16.626  25.061  13.958
71435W        W32856  10.237  43.001  12.485
71436W        W32857  41.461   1.407   3.788
71437W        W32858  25.602  42.980   2.291
71438W        W32859  11.850  39.401  13.316
71439W        W32860   1.355  22.038  14.491
71440W        W32861   0.355   0.861   1.902
71441W        W32862  34.887  40.888   4.775
71442W        W32863  40.829  31.558  14.900
71443W        W32864  41.455  19.557   3.814
71444W        W32865  13.134  40.544   0.912
71445W        W32866   1.454   0.879  12.512
71446W        W32867  18.727   2.334  14.800
71447W        W32868  26.535  26.472  11.871
71448W        W32869  34.034  10.324   1.741
71449W        W32870  23.498   3.953   0.842
71450W        W32871  32.922  43.478   4.644
71451W        W32872  19.091  36.578   1.807
71452W        W32873  43.469  25.038   1.778
71453W        W32874  20.268  33.956   2.674
71454W        W32875  26.563  19.751  13.027
71455W        W32876  35.027   4.222   5.110
71456W        W32877  10.183  19.099  11.414
71457W        W32878  24.579  40.804  14.868
71458W        W32879  24.088   0.289   4.338
71459W        W32880  30.413  18.655  12.087
71460W        W32881  17.213  43.968  14.430
71461W        W32882  13.654  11.852  14.506
71462W        W32883  40.862  17.703   3.646
71463W        W32884  42.488  40.903  11.452
71464W        W32885  11.698  39.365  13.834
71465W        W32886  36.097  20.077  14.427
71466W        W32887  32.600  27.187   0.438
71467W        W32888  21.589  38.363   1.322
71468W        W32889   6.340   1.250  13.926
71469W        W32890   2.811  37.456  12.945
71470W        W32891  37.957  19.161   1.888
71471W        W32892   4.260   3.419  13.421
71472W        W32893  14.251  26.083   0.889
71473W        W32894  42.794  19.066  14.333
71474W        W32895  14.805  33.439  14.936
71475W        W32896  31.603  23.706  10.484
71476W        W32897  42.856   8.161  14.336
71477W        W32898  16.285  29.601   1.882
71478W        W32899  13.828  26.992  11.903
71479W        W32900  32.516   4.280  13.929
71480W        W32901   5.913  17.770  14.022
71481W        W32902  28.084  43.365   2.232
71482W        W32903  36.578  26.636  10.904
71483W        W32904  14.162  40.532  13.320
71484W        W32905  30.526  22.182  14.322
71485W        W32906  42.825  12.850  11.410
71486W        W32907   7.908  36.997  14.008
71487W        W32908  12.260   6.802  12.936
71488W        W32909  33.128  10.382  11.985
71489W        W32910  22.111  42.795   4.201
71490W        W32911   6.717  37.966   4.637
71491W        W32912  14.707  25.579  14.905
71492W        W32913  30.634  10.647  14.002
71493W        W32914  19.595  38.027   3.261
71494W        W32915  23.007   1.873   0.342
71495W        W32916   9.874  25.052  13.003
71496W        W32917  14.225  19.555   2.350
71497W        W32918  24.702  39.455   2.183
71498W        W32919  34.480  18.055  12.376
71499W        W32920  11.741  12.331   2.850
71500W        W32921  27.492  31.092  10.969
71501W        W32922  36.373  20.646  14.430
71502W        W32923   1.802  18.722  10.955
71503W        W32924   4.786  30.452  11.917
71504W        W32925  38.889  38.880  14.416
71505W        W32926  41.988   6.428   0.811
71506W        W32927   7.398   3.856   1.807
71507W        W32928  24.549  18.201   1.775
71508W        W32929  11.735  17.127  12.978
71509W        W32930  35.595  21.586   0.887
71510W        W32931  13.793  40.476  14.348
71511W        W32932   6.793  29.005  13.997
71512W        W32933   6.794  31.918   2.304
71513W        W32934  39.464  35.393  13.982
71514W        W32935  27.501  21.129  11.400
71515W        W32936  15.746   2.787   1.698
71516W        W32937  11.817   7.804  12.468
71517W        W32938   5.900  18.731  12.075
71518W        W32939  27.094  42.382   2.673
71519W        W32940  22.605  20.190   4.286
71520W        W32941  33.430  31.072  13.970
71521W        W32942  27.659  40.377   3.295
71522W        W32943  43.320  29.110  13.012
71523W        W32944  32.094   9.678  13.328
71524W        W32945  20.116  24.617  14.515
71525W        W32946  42.384  28.035   4.815
71526W        W32947  16.767   4.798  14.951
71527W        W32948  17.656   8.858   0.875
71528W        W32949  29.431  21.112   1.304
71529W        W32950  23.091  40.349  10.556
71530W        W32951   7.677  11.853  13.987
71531W        W32952  13.751  11.663  13.313
71532W        W32953  40.449  40.463   3.264
71533W        W32954  27.009   2.933   3.745
71534W        W32955  44.826  21.593   2.297
71535W        W32956  21.190  15.679  10.908
71536W        W32957  13.243  21.064   5.113
71537W        W32958  13.108   8.315  14.826
71538W        W32959  19.082  11.768   3.782
71539W        W32960  13.815   8.190  13.387
71540W        W32961   0.267  13.605  14.830
71541W        W32962  28.677  44.263   2.265
71542W        W32963   6.285  38.395   4.166
71543W        W32964  12.323  15.320  11.112
71544W        W32965  42.956   0.258   1.275
71545W        W32966  24.110  30.098  10.479
71546W        W32967  33.876  37.909   3.720
71547W        W32968  42.029  32.918   0.884
71548W        W32969   2.755  20.588  13.968
71549W        W32970  34.508  24.217  11.102
71550W        W32971   9.693  34.932   2.825
71551W        W32972   5.753  44.450  12.889
71552W        W32973  37.873   6.699  10.932
71553W        W32974   5.345   6.220  10.595
71554W        W32975  44.386  10.371  10.477
71555W        W32976   2.951  18.113   3.683
71556W        W32977  23.064   6.229  11.923
71557W        W32978  30.152  26.617  12.430
71558W        W32979  39.062  19.183  12.016
71559W        W32980  26.113  34.906   2.847
71560W        W32981  41.981   7.181   3.809
71561W        W32982   8.306  10.307  11.403
71562W        W32983  36.445   6.726   4.652
71563W        W32984   3.816   4.308   3.782
71564W        W32985   3.796  27.674  12.384
71565W        W32986  35.583  30.504   2.207
71566W        W32987  40.441  16.746   4.610
71567W        W32988  32.991  10.350   1.250
71568W        W32989   8.841  41.830  10.642
71569W        W32990  41.845  14.326  11.961
71570W        W32991  34.430  34.908  10.632
71571W        W32992  28.648  16.729   3.205
71572W        W32993   3.883  16.806   0.955
71573W        W32994  34.604   5.708  12.086
71574W        W32995  42.015   2.420   2.873
71575W        W32996  24.193  33.038  11.896
71576W        W32997   8.217  25.549  11.992
71577W        W32998   6.693  10.161  10.938
71578W        W32999  43.834  14.318   2.741
71579W        W33000   3.362   0.947   5.768
71580W        W33001   3.798   1.923   4.325
71581W        W33002   1.743   3.760  11.104
71582W        W33003  14.246  42.008  13.064
71583W        W33004   0.462  40.540  13.885
71584W        W33005   2.828  10.250  11.433
71585W        W33006   4.712   8.182  10.509
71586W        W33007  23.610  40.488  15.000
71587W        W33008  10.836   5.723   3.281
71588W        W33009  41.332  20.188   5.264
71589W        W33010  27.027   1.823   2.711
71590W        W33011  17.256  42.838  12.359
71591W        W33012  30.060   3.897   4.175
71592W        W33013  27.504  23.520   2.675
71593W        W33014  26.689  35.530  12.048
71594W        W33015  37.984  17.563  10.423
71595W        W33016  35.041   8.371  13.807
71596W        W33017  29.942  32.581   0.855
71597W        W33018  34.945  18.658   3.835
71598W        W33019  30.646  37.576  11.025
71599W        W33020   6.726  42.841   0.250
71600W        W33021  42.002   3.322   2.743
71601W        W33022  18.093  19.698  10.530
71602W        W33023  30.085  42.823  12.561
71603W        W33024  17.753  26.180  13.421
71604W        W33025  39.863  36.485   4.804
71605W        W33026  12.848  39.385  10.510
71606W        W33027  37.974   1.750   9.956
71607W        W33028  30.132  40.459  13.361
71608W        W33029  15.190  42.999   0.949
71609W        W33030  20.101   2.428   2.752
71610W        W33031  38.448  11.245  10.512
71611W        W33032  43.470  35.927  14.912
71612W        W33033  20.171  21.578   1.403
71613W        W33034  24.704   6.266  14.391
71614W        W33035  43.886  34.535  14.330
71615W        W33036  24.215  20.692  14.349
71616W        W33037  26.544  28.114  12.921
71617W        W33038  33.508  38.862   1.230
71618W        W33039   5.435  41.897  14.843
71619W        W33040  41.293   1.817  10.509
71620W        W33041  18.258  20.056  10.443
71621W        W33042  37.451  25.673   5.290
71622W        W33043  24.692  36.096  10.418
71623W        W33044  39.966   8.774  10.641
71624W        W33045  34.434  25.009  11.540
71625W        W33046  43.819  20.763   1.883
71626W        W33047   8.265   1.778   2.831
71627W        W33048  14.228   1.255  13.394
71628W        W33049   5.282  38.509  10.033
71629W        W33050  22.634   8.674   3.704
71630W        W33051  24.225  40.034  13.382
71631W        W33052  30.142  38.876  12.441
71632W        W33053  26.587  22.237   2.803
71633W        W33054  11.364  33.970   4.702
71634W        W33055   7.839  34.864   1.865
71635W        W33056   4.782   9.648  12.476
71636W        W33057   7.779  32.541   3.260
71637W        W33058   6.920  37.478  13.978
71638W        W33059  20.190  29.638   3.735
71639W        W33060  14.770   0.947   0.360
71640W        W33061  41.812  21.617   2.682
71641W        W33062   4.822   1.770  13.876
71642W        W33063  43.828  19.551   0.932
71643W        W33064  20.167  35.951   1.394
71644W        W33065  28.673  19.163   3.178
71645W        W33066  14.118  37.917   3.263
71646W        W33067  25.503  26.550   1.921
71647W        W33068   5.918   6.890  11.889
71648W        W33069  19.721  14.592   3.234
71649W        W33070  23.986  12.125   3.688
71650W        W33071  31.109   1.851   2.385
71651W        W33072  26.181  32.558   1.328
71652W        W33073   9.814  21.038  13.004
71653W        W33074  11.149   2.852   4.648
71654W        W33075  15.647  22.008  12.431
71655W        W33076  17.673  38.421  13.908
71656W        W33077  20.684  25.498  12.938
71657W        W33078   2.255  41.361  12.885
71658W        W33079  25.667  41.531   2.888
71659W        W33080  24.631   8.271  12.477
71660W        W33081  33.602   3.456   2.818
71661W        W33082  28.653  42.874  14.988
71662W        W33083   3.942  40.821   1.285
71663W        W33084   0.752  20.721  13.047
71664W        W33085  24.650  24.614   0.781
71665W        W33086  21.151  41.436   2.416
71666W        W33087  28.635  14.670   4.174
71667W        W33088   4.332  19.220  10.540
71668W        W33089  43.995  30.025   4.636
71669W        W33090  22.246  19.779  12.966
71670W        W33091  24.201  10.214   1.353
71671W        W33092   8.856   1.847   2.244
71672W        W33093   5.311  22.690   4.759
71673W        W33094  42.390   7.773  14.019
71674W        W33095   1.825   4.940   4.132
71675W        W33096  31.930  24.629  13.001
71676W        W33097  10.836  24.003   4.636
71677W        W33098  41.334  36.473   1.756
71678W        W33099   8.237  25.109  13.468
71679W        W33100  22.547  33.998  14.869
71680W        W33101  15.695  17.647   2.273
71681W        W33102  33.994   3.358   3.845
71682W        W33103  35.407  15.189   2.850
71683W        W33104  14.782  38.444   0.940
71684W        W33105  21.260  25.024  13.984
71685W        W33106  36.015  26.623  12.385
71686W        W33107  19.249  44.955  14.346
71687W        W33108  16.215  40.819  12.341
71688W        W33109  16.761   3.292  10.567
71689W        W33110  24.505   4.887   4.327
71690W        W33111  40.046  38.876  12.577
71691W        W33112  35.601  32.970   2.255
71692W        W33113  37.012  37.384  12.862
71693W        W33114  12.347   3.253   0.831
71694W        W33115   3.435  22.020  12.000
71695W        W33116  22.682  43.821  13.318
71696W        W33117  10.220   7.396   3.642
71697W        W33118   3.775  38.952  12.911
71698W        W33119  36.509  26.699   2.766
71699W        W33120  12.283  38.897  11.483
71700W        W33121  10.706  20.272   1.389
71701W        W33122  23.034   4.706  11.064
71702W        W33123  18.151  15.645  14.370
71703W        W33124  31.525  27.020  13.062
71704W        W33125  39.494   2.850   1.381
71705W        W33126   2.350  35.561  10.966
71706W        W33127  10.292  24.022   1.410
71707W        W33128  19.699  33.945   3.676
71708W        W33129   7.889   4.272   3.822
71709W        W33130  27.507  26.585   3.671
71710W        W33131   0.344  39.829  13.357
71711W        W33132  21.217  37.465  11.587
71712W        W33133  15.742  38.909   4.306
71713W        W33134  30.416   4.446  12.867
71714W        W33135  32.989  13.756  11.051
71715W        W33136  22.181   2.325   4.809
71716W        W33137  24.710  30.468   4.336
71717W        W33138  24.074  31.623  10.989
71718W        W33139  44.393  14.152   0.750
71719W        W33140  37.040  17.237   3.783
71720W        W33141  22.204  27.091   1.236
71721W        W33142  27.131  35.940  13.017
71722W        W33143  34.083  27.958  12.830
71723W        W33144  11.332  13.239   0.436
71724W        W33145  21.075  35.017   4.731
71725W        W33146   8.260   3.281  13.008
71726W        W33147   1.387  11.132   0.750
71727W        W33148   2.413  25.192   1.311
71728W        W33149  28.029  18.586  14.797
71729W        W33150  12.828  34.011   5.090
71730W        W33151  40.328  21.686   1.235
71731W        W33152  13.768  10.672   4.247
71732W        W33153  31.629  20.219  10.979
71733W        W33154  16.093   4.353  12.847
71734W        W33155  29.034   6.887  10.589
71735W        W33156  34.584   3.318  14.833
71736W        W33157  26.607   3.882  11.906
71737W        W33158  13.173  32.960   3.285
71738W        W33159   1.242  44.868  14.815
71739W        W33160  26.999   5.898   1.774
71740W        W33161  12.192   6.915   4.354
71741W        W33162  21.633   1.845   0.312
71742W        W33163  29.650  29.479  13.818
71743W        W33164  42.897  29.597   1.839
71744W        W33165   2.949  12.815   2.876
71745W        W33166  28.467  38.972   1.408
71746W        W33167  20.706   0.898  14.439
71747W        W33168   6.306  27.096   1.696
71748W        W33169  39.947  20.667  11.063
71749W        W33170   1.477  28.535   2.680
71750W        W33171  13.261  29.084  12.829
71751W        W33172  42.408   1.307  12.420
71752W        W33173  25.062  13.283   5.214
71753W        W33174  39.553  16.277   2.812
71754W        W33175   5.207  21.100  14.362
71755W        W33176  15.242  40.355  12.376
71756W        W33177   4.289  12.294   0.456
71757W        W33178   9.231  32.067  13.832
71758W        W33179  13.755   4.705  10.523
71759W        W33180  18.267   0.490  11.525
71760W        W33181  28.122  36.495  11.902
71761W        W33182   4.429  14.104   3.797
71762W        W33183  10.305  43.799   2.685
71763W        W33184  18.702  34.917   3.733
71764W        W33185  37.878   8.677   1.842
71765W        W33186  25.541   7.373  12.850
71766W        W33187   1.826  33.063   3.332
71767W        W33188  10.317  44.993  10.968
71768W        W33189  34.999  40.048   4.748
71769W        W33190  11.277   4.895  11.023
71770W        W33191   6.921  23.989   4.343
71771W        W33192  18.598  32.057  12.393
71772W        W33193  39.946   9.857   2.720
71773W        W33194   6.848  41.534   3.354
71774W        W33195  18.630  24.085  13.376
71775W        W33196   5.227  25.597  11.962
71776W        W33197  35.486  42.861   4.242
71777W        W33198   4.441   2.855  14.969
71778W        W33199  33.120  41.979   4.722
71779W        W33200   8.759  19.241   2.889
71780W        W33201   8.390  18.095   3.685
71781W        W33202  17.301  17.608  11.422
71782W        W33203  11.364  10.318  14.825
71783W        W33204  41.481  41.803   2.226
71784W        W33205  19.221  21.670  12.002
71785W        W33206  19.540   9.290   1.834
71786W        W33207  42.892  25.544  13.460
71787W        W33208  16.292  19.715   4.199
71788W        W33209  16.603  21.181   0.255
71789W        W33210  42.831  40.009   3.303
71790W        W33211  28.945   2.469  12.999
71791W        W33212  21.740  37.006   0.461
71792W        W33213  22.048  21.554  13.313
71793W        W33214  35.100   9.376  13.025
71794W        W33215  29.117   2.379   2.682
71795W        W33216  14.831  43.777  13.349
71796W        W33217  17.635  14.144   2.264
71797W        W33218  32.437  33.968  14.010
71798W        W33219  38.400  16.177  14.944
71799W        W33220  27.065  42.949   0.436
71800W        W33221  14.646  16.184  12.045
71801W        W33222  40.967  32.558   1.925
71802W        W33223  42.780  42.413   3.158
71803W        W33224   1.930   0.854   0.772
71804W        W33225  17.298   3.405   3.657
71805W        W33226  30.480   1.414  14.503
71806W        W33227   3.244  21.055   4.761
71807W        W33228  24.990   3.311   4.692
71808W        W33229  32.463  10.295   3.830
71809W        W33230  33.948   4.310   1.747
71810W        W33231  27.535   7.275  10.536
71811W        W33232  38.069   4.256   4.264
71812W        W33233   4.371   2.360   3.824
71813W        W33234  23.490  35.422   4.133
71814W        W33235  25.010   2.789   0.451
71815W        W33236  14.100  38.454   1.924
71816W        W33237  10.695  16.582   2.318
71817W        W33238  33.953   0.957   0.400
71818W        W33239  24.183  35.426   2.411
71819W        W33240   3.241  11.839   1.872
71820W        W33241   0.467  14.272  12.878
71821W        W33242   2.399  14.207   5.239
71822W        W33243  39.848  40.054  13.834
71823W        W33244  43.513  33.486   3.698
71824W        W33245  36.500  36.570  13.505
71825W        W33246   1.845  21.084  10.621
71826W        W33247  25.514  13.138   1.441
71827W        W33248  39.883   0.813   1.832
71828W        W33249  35.059  15.609   0.736
71829W        W33250  42.028   4.906  12.888
71830W        W33251   4.707  21.085  13.874
71831W        W33252  27.580  19.541  11.432
71832W        W33253  23.057  23.642   0.809
71833W        W33254   3.445  27.523  13.342
71834W        W33255  36.894  36.493  13.408
71835W        W33256  39.338  43.827   3.843
71836W        W33257   8.680   1.762   1.777
71837W        W33258   3.276   8.297   1.449
71838W        W33259  24.026   0.402   1.708
71839W        W33260  24.496  30.132   0.781
71840W        W33261  10.818   6.913  13.457
71841W        W33262   3.726  17.580  11.419
71842W        W33263  27.632  35.524  12.020
71843W        W33264  11.809  12.699   2.873
71844W        W33265  27.566  44.320   2.364
71845W        W33266  16.274  21.203  10.453
71846W        W33267   9.712  28.628  10.458
71847W        W33268   7.226   8.294   4.200
71848W        W33269   8.316  17.081   4.351
71849W        W33270  18.225  37.891   0.753
71850W        W33271   6.796  11.765  14.300
71851W        W33272  29.926  35.087   3.311
71852W        W33273   0.349  18.285  10.480
71853W        W33274  34.992  33.601   2.764
71854W        W33275   3.832  21.193  14.998
71855W        W33276   3.247  29.442  12.016
71856W        W33277  18.610   5.913  13.524
71857W        W33278  29.591  15.626  14.320
71858W        W33279  31.154   7.816  13.532
71859W        W33280   9.717  28.126  12.492
71860W        W33281  14.666  13.176   0.780
71861W        W33282  37.975  32.961  13.386
71862W        W33283  43.341  43.850   4.324
71863W        W33284  34.594  19.740   0.748
71864W        W33285   9.332  29.067   0.944
71865W        W33286  12.227   2.273   0.846
71866W        W33287  30.952   2.872   4.311
71867W        W33288   6.852  35.864  12.904
71868W        W33289  40.347  44.754   4.146
71869W        W33290  26.058   3.379   5.101
71870W        W33291  31.102  15.690   3.840
71871W        W33292  29.426  19.743   9.997
71872W        W33293  15.186  12.201  13.479
71873W        W33294   9.691  27.140   3.719
71874W        W33295  43.804   3.352   3.717
71875W        W33296  36.009   1.375   2.326
71876W        W33297  21.208  10.650  12.020
71877W        W33298  38.432  15.312  14.875
71878W        W33299  12.825  40.475   2.234
71879W        W33300  44.855  34.537  14.438
71880W        W33301   5.309  18.286   4.612
71881W        W33302  32.439  17.158  14.348
71882W        W33303  38.999   9.242  12.439
71883W        W33304  22.536  39.944  11.473
71884W        W33305  36.023  27.033   2.792
71885W        W33306  17.718  18.746   4.657
71886W        W33307  20.157  32.100  11.012
71887W        W33308  17.619  29.481   1.794
71888W        W33309  10.209  40.820   1.321
71889W        W33310   9.827  19.597  14.280
71890W        W33311  40.480  18.662   4.262
71891W        W33312   9.858   8.817   2.276
71892W        W33313  15.638  13.121  13.514
71893W        W33314   0.841  19.627  12.507
71894W        W33315   8.705  27.189   0.262
71895W        W33316  11.367   8.725   0.840
71896W        W33317  25.478  44.005  12.975
71897W        W33318  15.192  29.638  11.000
71898W        W33319  15.627   3.323  14.494
71899W        W33320  18.629   4.944   1.833
71900W        W33321  14.114  26.099  12.437
71901W        W33322   2.414  39.357  13.440
71902W        W33323  31.577  13.197  11.906
71903W        W33324   2.766  34.603   3.305
71904W        W33325  43.898  13.129   2.781
71905W        W33326  29.128  18.291   1.445
71906W        W33327   6.716  22.007  12.472
71907W        W33328  26.170  31.131  10.601
71908W        W33329   6.819  36.375   1.265
71909W        W33330  32.584   1.318  11.948
71910W        W33331  22.207  30.429   2.375
71911W        W33332  43.411  16.768  13.395
71912W        W33333  39.414  44.836   3.179
71913W        W33334   3.399  37.012   4.806
71914W        W33335  39.849  16.203  10.592
71915W        W33336  41.790  41.376  11.568
71916W        W33337  21.647  20.650   4.213
71917W        W33338  29.096  34.907  13.793
71918W        W33339  14.602  33.959  14.936
71919W        W33340  32.101   8.759   3.226
71920W        W33341  29.636   4.766   3.862
71921W        W33342  31.444  30.956  14.952
71922W        W33343  24.637   0.985  14.803
71923W        W33344  31.410  20.234   2.853
71924W        W33345  17.182  23.601  13.349
71925W        W33346  26.486  23.691   3.830
71926W        W33347   0.815  22.159  14.919
71927W        W33348  37.352  34.918   5.240
71928W        W33349  26.171   7.864   0.732
71929W        W33350   9.167  16.275  13.310
71930W        W33351  31.133  37.406   0.325
71931W        W33352  17.169  12.326   1.429
71932W        W33353  37.996  34.446  11.378
71933W        W33354  33.009  26.036   2.206
71934W        W33355   5.426  27.533  14.954
71935W        W33356  39.411  29.630   3.315
71936W        W33357  30.134  14.633  14.016
71937W        W33358  18.268   2.739   0.303
71938W        W33359  32.895  26.015   2.807
71939W        W33360  37.071   1.395  12.053
71940W        W33361  43.780   5.348  12.420
71941W        W33362   5.203  20.718   1.923
71942W        W33363   2.417  38.397  13.338
71943W        W33364  10.702  22.049  14.830
71944W        W33365  11.178  29.030   3.219
71945W        W33366  17.742   0.304   3.768
71946W        W33367  34.484  30.132  11.011
71947W        W33368  41.013   6.327   2.212
71948W        W33369   7.229   1.838   1.412
71949W        W33370  40.807  15.182  12.911
71950W        W33371   4.921  15.247   2.363
71951W        W33372  41.511  28.172   0.450
71952W        W33373  12.621  31.966   3.156
71953W        W33374  31.525  14.774   1.709
71954W        W33375  43.376   2.425  11.572
71955W        W33376  40.308  24.016   1.258
71956W        W33377  29.013  23.052   2.230
71957W        W33378  23.723  13.812   0.776
71958W        W33379  17.766  39.965  14.302
71959W        W33380  33.876  40.424  11.905
71960W        W33381  41.031  12.657  11.968
71961W        W33382  40.018   9.818  11.125
71962W        W33383  38.483  12.286   1.403
71963W        W33384   5.414  17.116   0.323
71964W        W33385  13.128  24.216   0.788
71965W        W33386  40.397  18.618  14.500
71966W        W33387  24.552   8.892  13.004
71967W        W33388   6.683   7.345  11.089
71968W        W33389  16.650  10.770  12.358
71969W        W33390  27.601  38.052   4.182
71970W        W33391  28.088  10.838  11.424
71971W        W33392  22.167  10.665  14.375
71972W        W33393   5.239  11.780  10.631
71973W        W33394  26.680  29.025  10.639
71974W        W33395   6.770  18.080  11.101
71975W        W33396  22.559  14.647   2.390
71976W        W33397  25.557   4.782   4.800
71977W        W33398  21.620  34.098  10.406
71978W        W33399  30.090  25.602   0.322
71979W        W33400   7.671  34.065   0.296
71980W        W33401  28.119   6.868  11.113
71981W        W33402  44.364  14.768  13.432
71982W        W33403  41.533  15.578   0.351
71983W        W33404  33.547   5.194   1.218
71984W        W33405  30.912  10.870   2.805
71985W        W33406  30.148  24.113  14.956
71986W        W33407   4.750  44.480   2.236
71987W        W33408   5.275   1.329   2.831
71988W        W33409  44.392  29.513  10.574
71989W        W33410  16.603   9.310   0.894
71990W        W33411  10.256  21.169   1.712
71991W        W33412  17.765  32.107   2.718
71992W        W33413  43.903   1.240   2.872
71993W        W33414  32.029  18.163  12.432
71994W        W33415  44.952  40.002  12.363
71995W        W33416  22.692   2.304   4.605
71996W        W33417  28.980  35.479  10.977
71997W        W33418  30.468  27.142   0.411
71998W        W33419  32.547   3.258   3.782
71999W        W33420  39.983   6.721   2.216
72000W        W33421  16.300  13.746  14.010
72001W        W33422   5.863  12.734   4.173
72002W        W33423   3.804  18.239   0.931
72003W        W33424  28.111  44.326   0.954
72004W        W33425  17.730   0.757  14.436
72005W        W33426  27.512  22.008   3.751
72006W        W33427  18.594   9.727  12.026
72007W        W33428  31.993  42.438  12.984
72008W        W33429  23.498  37.039   2.691
72009W        W33430   8.172   9.267  14.827
72010W        W33431  11.300  16.236  14.986
72011W        W33432  15.706  35.595  12.365
72012W        W33433  28.931  26.951   0.462
72013W        W33434  29.513  33.081  11.904
72014W        W33435  37.883  35.017   3.830
72015W        W33436  24.194   0.445   0.436
72016W        W33437  30.561  20.211  11.958
72017W        W33438  23.170  38.995   3.680
72018W        W33439  20.141  41.533  11.378
72019W        W33440  23.527  20.228   1.433
72020W        W33441  12.304  35.902  12.901
72021W        W33442   5.719  42.472  14.895
72022W        W33443  20.659  23.528  14.025
72023W        W33444  30.635   7.353   1.771
72024W        W33445  15.269  37.565   9.920
72025W        W33446  41.995  15.635   1.740
72026W        W33447  36.531  23.602   1.732
72027W        W33448  11.251  17.731  12.390
72028W        W33449  16.233  22.615  12.953
72029W        W33450  32.951  25.063  10.597
72030W        W33451  42.798  14.139  14.891
72031W        W33452  22.110  22.565  14.366
72032W        W33453  26.017  22.610   1.922
72033W        W33454  42.014  38.409  14.029
72034W        W33455  30.633  12.844   2.396
72035W        W33456  43.905  28.609   2.404
72036W        W33457  15.681  20.227   3.727
72037W        W33458  22.670  28.100   2.329
72038W        W33459  36.482  32.565  13.995
72039W        W33460   5.754  18.752  14.464
72040W        W33461  20.133   5.827  13.344
72041W        W33462  26.968   0.777  13.802
72042W        W33463  38.555  35.482  14.828
72043W        W33464  37.548  40.951  12.866
72044W        W33465   9.249  23.595  14.031
72045W        W33466  20.158  26.142  12.845
72046W        W33467   8.828  39.385   1.354
72047W        W33468  31.470  44.781  12.368
72048W        W33469  25.520   1.385   1.828
72049W        W33470  25.135  36.379   2.274
72050W        W33471   7.746  41.975   4.752
72051W        W33472  26.595  21.512   2.359
72052W        W33473  39.875  14.693   1.706
72053W        W33474   2.739  15.286  13.870
72054W        W33475   2.897  40.937   4.762
72055W        W33476  36.894  26.569  14.875
72056W        W33477  35.506  35.906  10.606
72057W        W33478  24.007  39.377  11.015
72058W        W33479  14.273  17.703  10.458
72059W        W33480   6.233   2.227  12.900
72060W        W33481  41.820  40.535  10.099
72061W        W33482   5.901  35.506  12.849
72062W        W33483  21.182   4.756   9.546
72063W        W33484   5.252  35.400  14.305
72064W        W33485   0.494  39.837  11.584
72065W        W33486  28.055   9.765  14.948
72066W        W33487   3.307  28.632  12.842
72067W        W33488  43.383  39.050  12.969
72068W        W33489  36.951  19.592  13.975
72069W        W33490  27.145  17.308   1.763
72070W        W33491   1.934  44.481  13.884
72071W        W33492  20.635   1.976   2.193
72072W        W33493   0.912  12.754   4.725
72073W        W33494   8.746  22.634  14.804
72074W        W33495  33.462  35.557  14.422
72075W        W33496  31.073  31.433  10.620
72076W        W33497  31.079  39.375  12.844
72077W        W33498  16.231  42.501   0.767
72078W        W33499   1.941  21.255  12.091
72079W        W33500   5.417   9.746   3.817
72080W        W33501  12.815  24.166  11.099
72081W        W33502  37.020  40.544   3.383
72082W        W33503  15.284  10.806  11.107
72083W        W33504  32.916  16.277   3.641
72084W        W33505   0.808   4.240  13.053
72085W        W33506  42.820  23.208  10.525
72086W        W33507  19.547   2.905   3.745
72087W        W33508  33.063  15.178  11.406
72088W        W33509  12.754  44.503   2.370
72089W        W33510  17.676  30.554  14.763
72090W        W33511  37.915  31.549  10.436
72091W        W33512  32.952  23.049  13.062
72092W        W33513  26.139  23.724   3.662
72093W        W33514  43.442  24.151  10.571
72094W        W33515  21.099   5.424   1.216
72095W        W33516  30.539  19.234   0.435
72096W        W33517   3.275  25.992   1.223
72097W        W33518  10.380  38.073   4.616
72098W        W33519  12.676  17.713  11.999
72099W        W33520  15.086   0.435   1.325
72100W        W33521   2.894  13.812  11.582
72101W        W33522  28.489  12.219  13.477
72102W        W33523  13.846  42.802   0.734
72103W        W33524   6.314  39.433   3.351
72104W        W33525  31.562  44.437   0.469
72105W        W33526   0.484  25.196   1.797
72106W        W33527  35.524  29.461   0.317
72107W        W33528   9.658  33.619   1.758
72108W        W33529  16.744   2.279   4.608
72109W        W33530  31.587  31.548   1.712
72110W        W33531  39.982  24.053  12.934
72111W        W33532  10.847  14.704   3.651
72112W        W33533  19.265  12.158   3.155
72113W        W33534  29.022   2.922   2.346
72114W        W33535   7.908  40.981  12.514
72115W        W33536  35.037   8.193  10.894
72116W        W33537  25.066  18.059  12.500
72117W        W33538  29.447  37.533   5.124
72118W        W33539   1.832  10.314   2.757
72119W        W33540   3.901   9.750   0.847
72120W        W33541  36.006   2.421  11.536
72121W        W33542  25.626   4.217   3.719
72122W        W33543  12.674  17.193   4.705
72123W        W33544  40.535  39.935   0.967
72124W        W33545  32.623  35.920   1.852
72125W        W33546  35.435  12.764   3.289
72126W        W33547  23.176  12.807   0.374
72127W        W33548  32.523  29.502  13.914
72128W        W33549  17.576  21.691  11.501
72129W        W33550   8.200  43.867  11.887
72130W        W33551   6.756  39.846   9.942
72131W        W33552  24.990  14.196  11.487
72132W        W33553   4.432  38.010   0.732
72133W        W33554  25.633  11.337  14.457
72134W        W33555  15.256  14.729  12.941
72135W        W33556   3.255   8.778  10.444
72136W        W33557  39.832  43.953   4.156
72137W        W33558  17.645  41.378  13.875
72138W        W33559  35.997  17.151   3.159
72139W        W33560   6.696  36.562  13.949
72140W        W33561  21.713  27.012   1.248
72141W        W33562  37.521   8.755  10.158
72142W        W33563  27.091  16.688  11.955
72143W        W33564  43.837  22.212  14.921
72144W        W33565   8.257   7.247   2.750
72145W        W33566  27.037  41.943  14.804
72146W        W33567  34.022  26.045   3.230
72147W        W33568  34.083  31.068  10.472
72148W        W33569  32.076  37.055  11.886
72149W        W33570  15.582  19.167  12.344
72150W        W33571  13.599  13.162  13.013
72151W        W33572  19.595  19.198  14.502
72152W        W33573  27.119  21.709  14.877
72153W        W33574  27.588  38.906  11.884
72154W        W33575  17.673  14.114  14.841
72155W        W33576  11.335  27.506  14.278
72156W        W33577   1.262  13.697   1.840
72157W        W33578  44.290  38.007   1.221
72158W        W33579  25.143  32.082   1.347
72159W        W33580  42.888  42.423  14.760
72160W        W33581  42.004  31.988   3.864
72161W        W33582  36.932  43.326  13.349
72162W        W33583  42.286  27.969  11.529
72163W        W33584  41.855  30.026  13.357
72164W        W33585  30.958  19.543   2.378
72165W        W33586  19.555  14.172  13.334
72166W        W33587  41.950   8.724  14.293
72167W        W33588  36.041  17.762  12.982
72168W        W33589  22.719   8.163   3.288
72169W        W33590  15.125  19.628  11.890
72170W        W33591  23.708  23.125   2.356
72171W        W33592  36.409  33.606  14.827
72172W        W33593  31.528   0.294   0.336
72173W        W33594  25.577   4.781   0.921
72174W        W33595   9.320  38.470   0.409
72175W        W33596  15.087  20.695   3.255
72176W        W33597  36.394  36.517  14.503
72177W        W33598  33.101  26.610  12.544
72178W        W33599  29.016  26.545  11.484
72179W        W33600   5.341  16.777  11.868
72180W        W33601  17.303  27.576  10.984
72181W        W33602   9.275  28.057  12.356
72182W        W33603  34.486  14.789  11.513
72183W        W33604  31.145  43.932   3.702
72184W        W33605  12.212  21.555  12.899
72185W        W33606  16.790  25.099  10.921
72186W        W33607  28.183  11.233   0.269
72187W        W33608   5.238   9.786   0.958
72188W        W33609  25.582  23.987   0.924
72189W        W33610  16.173  24.499  13.416
72190W        W33611   2.283  10.346   4.643
72191W        W33612  19.268  21.721   3.186
72192W        W33613   5.255  36.932   1.318
72193W        W33614  39.913   6.712   0.864
72194W        W33615  21.242  12.744   1.867
72195W        W33616  23.496   9.299  12.871
72196W        W33617  22.234   1.762  13.057
72197W        W33618  23.605  26.475  12.081
72198W        W33619  16.113   6.744   3.634
72199W        W33620  16.617  35.499  11.399
72200W        W33621  12.185  42.328   2.770
72201W        W33622  23.049  21.245  13.919
72202W        W33623  26.047   0.395  11.506
72203W        W33624  21.149  36.061   2.780
72204W        W33625  43.516   9.655  12.041
72205W        W33626  13.697  24.719  13.533
72206W        W33627  18.732  14.197   2.699
72207W        W33628   6.184  33.013   0.259
72208W        W33629  12.830   8.870   1.776
72209W        W33630  33.567  35.478  13.321
72210W        W33631  19.609   4.708   2.199
72211W        W33632  23.100   3.784   1.826
72212W        W33633  40.952  39.823   3.153
72213W        W33634  38.924  25.512  12.013
72214W        W33635  40.511  35.521  11.857
72215W        W33636  40.905  42.501   4.180
72216W        W33637  34.040  15.249  12.517
72217W        W33638  21.734  33.128   3.341
72218W        W33639  23.144   6.328   3.851
72219W        W33640  38.068  12.829  12.562
72220W        W33641   8.750  42.024   0.316
72221W        W33642  33.086  11.675  11.576
72222W        W33643  32.486  26.497  11.945
72223W        W33644  18.621  41.358  14.945
72224W        W33645  35.450  18.654   3.199
72225W        W33646  32.980  14.258  13.851
72226W        W33647  34.936  41.333   1.755
72227W        W33648  39.974  37.036  10.964
72228W        W33649   0.819  29.139  12.366
72229W        W33650  25.523  13.821  12.439
72230W        W33651  37.352  39.015   0.851
72231W        W33652  31.521  20.668  14.773
72232W        W33653  38.924  17.609  14.475
72233W        W33654   9.655  22.633  10.621
72234W        W33655  33.619  28.997  13.885
72235W        W33656   6.898  18.098  10.571
72236W        W33657  10.728  33.876  11.569
72237W        W33658  18.114  30.430  13.321
72238W        W33659  12.829  11.658   2.824
72239W        W33660  16.632  19.586   1.725
72240W        W33661  42.421  18.583   4.218
72241W        W33662  40.980  23.012  10.465
72242W        W33663  13.224  23.137  10.921
72243W        W33664   4.819  22.224   1.883
72244W        W33665  17.586   5.232   0.792
72245W        W33666   1.948  21.546  11.458
72246W        W33667   0.318   6.415  11.095
72247W        W33668  43.896   6.743   4.264
72248W        W33669  39.826  33.502  10.519
72249W        W33670  11.851  21.154   1.800
72250W        W33671  20.561  18.654   2.322
72251W        W33672  18.175   1.477   3.188
72252W        W33673  31.022  42.913  14.426
72253W        W33674   2.394  30.157   3.334
72254W        W33675   2.771   5.204  11.952
72255W        W33676  10.858  18.172   3.335
72256W        W33677  22.016  20.571   4.338
72257W        W33678  36.929   1.783   1.748
72258W        W33679  22.121  15.138  12.501
72259W        W33680  44.394  23.067   2.336
72260W        W33681  11.778  41.502  13.794
72261W        W33682  31.078   8.780  13.364
72262W        W33683  14.596  11.348   0.307
72263W        W33684  32.496   2.265  13.041
72264W        W33685  24.148   5.797  11.955
72265W        W33686  23.132  30.958   0.323
72266W        W33687  33.617  25.532   2.388
72267W        W33688  22.512   2.386  11.052
72268W        W33689  33.497   8.677   2.315
72269W        W33690  23.184  10.197   1.907
72270W        W33691  25.523  26.645  12.423
72271W        W33692  25.125  25.988  12.872
72272W        W33693  11.804  18.135  10.905
72273W        W33694  14.261  42.925  11.957
72274W        W33695  25.693  38.536   4.191
72275W        W33696  20.744  39.976   4.692
72276W        W33697  21.718   6.319   1.922
72277W        W33698   1.945  22.041  11.455
72278W        W33699  34.993  29.025  11.927
72279W        W33700  41.993   5.365   2.866
72280W        W33701  20.737  37.033  12.544
72281W        W33702  35.057  17.675  10.563
72282W        W33703  37.495  44.009   1.417
72283W        W33704  10.187   5.793  13.062
72284W        W33705  34.563  23.080   4.641
72285W        W33706  27.024  39.901  10.985
72286W        W33707  37.936  24.979  10.926
72287W        W33708  44.776   6.285  12.476
72288W        W33709  19.060  16.693   3.842
72289W        W33710  30.554   5.777   0.316
72290W        W33711  14.630  32.482  12.964
72291W        W33712  14.772  33.970  13.532
72292W        W33713  13.183  10.196   1.743
72293W        W33714  36.884  14.590   1.749
72294W        W33715  23.589  24.548   3.675
72295W        W33716   5.275  34.506   2.372
72296W        W33717  27.947   7.885  14.336
72297W        W33718   6.776   8.355   0.789
72298W        W33719   0.257  35.461  12.950
72299W        W33720  16.620  43.466   3.229
72300W        W33721  13.213  42.857   3.775
72301W        W33722   7.907  35.487  12.511
72302W        W33723  43.931  23.988   4.343
72303W        W33724   8.729  13.642  14.789
72304W        W33725  37.904  14.703  13.531
72305W        W33726  38.545  13.270   0.390
72306W        W33727   4.400  36.404  13.986
72307W        W33728  30.971   2.949   4.731
72308W        W33729  12.707  15.730   2.359
72309W        W33730  19.281  32.543  12.893
72310W        W33731  40.986   5.769   0.786
72311W        W33732   7.367  15.620   2.267
72312W        W33733  25.112   6.861  13.818
72313W        W33734  20.618  35.462   0.882
72314W        W33735  32.101  35.973  14.008
72315W        W33736   4.886  17.210  10.467
72316W        W33737  19.726  32.904  12.457
72317W        W33738   6.799  39.524   2.314
72318W        W33739  31.021  41.361  13.964
72319W        W33740  16.313  26.577  11.867
72320W        W33741  36.966  39.471   3.175
72321W        W33742  15.651  34.098   4.267
72322W        W33743  22.234   2.777  13.843
72323W        W33744  19.071  25.700  12.415
72324W        W33745  15.276  14.230  11.562
72325W        W33746  12.316  39.353   3.833
72326W        W33747  15.308   8.745   3.378
72327W        W33748  35.574  19.276  14.990
72328W        W33749  32.902  10.227   4.718
72329W        W33750  14.603  12.823  14.928
72330W        W33751  16.704  31.941  14.910
72331W        W33752  29.614  35.870  11.899
72332W        W33753  19.269  14.140  12.519
72333W        W33754  13.615  41.324  13.924
72334W        W33755  34.454  17.784   2.778
72335W        W33756   1.465   4.710  10.606
72336W        W33757  33.069   8.827   4.244
72337W        W33758  38.864  12.751   1.816
72338W        W33759  23.233  23.590   1.778
72339W        W33760   2.923   1.732  14.495
72340W        W33761  11.329  44.372  13.388
72341W        W33762  22.038  11.304   4.817
72342W        W33763  13.681  16.199   1.748
72343W        W33764  20.048   3.901   0.365
72344W        W33765  27.464  40.926  14.881
72345W        W33766  17.644  31.085   0.861
72346W        W33767   5.933  10.660  12.019
72347W        W33768  16.114  39.034   4.626
72348W        W33769  30.475  17.212   4.187
72349W        W33770  36.527  21.737  14.831
72350W        W33771  31.039   5.892   1.364
72351W        W33772  14.271  11.842   0.298
72352W        W33773  39.491  20.524  14.793
72353W        W33774  33.956  38.956   3.363
72354W        W33775   1.865   9.765  11.469
72355W        W33776   8.799  25.518  13.909
72356W        W33777  19.627  35.571   2.249
72357W        W33778  35.453  15.134   2.286
72358W        W33779  13.729   4.417  13.979
72359W        W33780  39.808  13.816  11.491
72360W        W33781  29.587  27.079  12.565
72361W        W33782   2.726  21.253   4.838
72362W        W33783   1.928  37.978   2.672
72363W        W33784   3.790  36.858  14.763
72364W        W33785  44.985  22.120  10.491
72365W        W33786   3.938   6.239   1.398
72366W        W33787  16.270   7.853   4.171
72367W        W33788  27.949  38.460   0.383
72368W        W33789  30.612  41.315   0.878
72369W        W33790  31.081  13.623   3.269
72370W        W33791  27.498  38.517   2.374
72371W        W33792   9.698  36.893  10.960
72372W        W33793  38.508  20.108  12.887
72373W        W33794  30.910  36.458   1.314
72374W        W33795  16.265  24.686  14.463
72375W        W33796   7.232  29.475  11.076
72376W        W33797  27.196  42.293   0.896
72377W        W33798  13.614  13.807   1.418
72378W        W33799  20.187  18.581  12.537
72379W        W33800  18.661  27.985   4.800
72380W        W33801  38.898  15.245  12.851
72381W        W33802  24.623   3.384   0.298
72382W        W33803  21.071  15.821   4.812
72383W        W33804  22.211   3.371   4.704
72384W        W33805  35.963  21.571  10.458
72385W        W33806  19.068  15.599  14.758
72386W        W33807  35.864  13.737   2.398
72387W        W33808  41.517  27.960   1.396
72388W        W33809  29.485  12.710  13.808
72389W        W33810  38.462  30.425  13.848
72390W        W33811  14.119   4.892  12.863
72391W        W33812  39.836   8.889  12.359
72392W        W33813  26.575  35.506  12.362
72393W        W33814  43.458  34.401   2.382
72394W        W33815  11.301  18.191  13.321
72395W        W33816   0.988  24.686   1.748
72396W        W33817  43.407  17.783  13.524
72397W        W33818  24.107  36.943   1.322
72398W        W33819  20.733  11.832  14.404
72399W        W33820  14.593   9.300   1.762
72400W        W33821  12.151  12.794  12.028
72401W        W33822  19.716  25.014  12.488
72402W        W33823  38.565   9.728   4.174
72403W        W33824  18.176  27.518   4.339
72404W        W33825  24.017  28.108  10.005
72405W        W33826  39.841   3.793   0.925
72406W        W33827  29.472  34.986  14.900
72407W        W33828  34.421   6.873  11.973
72408W        W33829  14.243  44.298  13.471
72409W        W33830  17.223  21.547  14.293
72410W        W33831  33.129  37.534  14.895
72411W        W33832  15.721  19.579   4.252
72412W        W33833  37.517   6.397   1.754
72413W        W33834  40.907  43.889  11.054
72414W        W33835  41.803  42.840   1.386
72415W        W33836  11.786  30.521  14.833
72416W        W33837  10.173  14.170  10.911
72417W        W33838   9.378  33.388   0.784
72418W        W33839   3.807  10.833   2.823
72419W        W33840  14.756  44.901  10.890
72420W        W33841   0.986   4.347  13.490
72421W        W33842  24.987  35.907   1.303
72422W        W33843  11.131  12.690   3.823
72423W        W33844  40.808   5.737  14.349
72424W        W33845  15.614  29.428  11.992
72425W        W33846  31.472  24.528   1.282
72426W        W33847  19.752  13.630   4.160
72427W        W33848  39.833  33.389  13.940
72428W        W33849  12.662  13.689  11.086
72429W        W33850  24.722  31.117   0.939
72430W        W33851  36.450   2.887   3.630
72431W        W33852  12.672  41.791  11.891
72432W        W33853  39.347  36.951  13.395
72433W        W33854  41.421  31.982   4.184
72434W        W33855  41.858  22.550   2.680
72435W        W33856   7.381  40.331   3.706
72436W        W33857  22.092  22.672  12.037
72437W        W33858  34.607  25.477  10.575
72438W        W33859  10.322  12.774  10.917
72439W        W33860  26.133  43.837   0.959
72440W        W33861   7.351  28.609   2.675
72441W        W33862  34.012  19.539  11.855
72442W        W33863  29.986  29.460  14.996
72443W        W33864  38.423  16.168   4.723
72444W        W33865   4.933   0.950  12.464
72445W        W33866  24.721  10.285   1.305
72446W        W33867  17.223  17.251  11.599
72447W        W33868  38.908   7.266  12.366
72448W        W33869   3.420  10.349   0.733
72449W        W33870  21.218  33.100   2.335
72450W        W33871  44.931   8.757  13.447
72451W        W33872  40.843  38.422   1.241
72452W        W33873  37.361  18.151  10.097
72453W        W33874   9.765  25.058  10.961
72454W        W33875  21.212  40.887   2.720
72455W        W33876  32.504  35.928   3.738
72456W        W33877   5.762  24.104   3.176
72457W        W33878   1.835  33.533  11.903
72458W        W33879   1.319  20.205  12.416
72459W        W33880  35.923  11.843  10.945
72460W        W33881  14.136  24.114  10.935
72461W        W33882  11.214  23.675  12.069
72462W        W33883  36.356  30.909  11.012
72463W        W33884  41.465  29.428   3.767
72464W        W33885   2.301  17.696   2.277
72465W        W33886  28.972  25.591   2.261
72466W        W33887  19.539  24.010  14.910
72467W        W33888  11.709  26.197  12.539
72468W        W33889  15.697   2.897  13.052
72469W        W33890  20.086  22.674  12.035
72470W        W33891   3.811  14.591  10.416
72471W        W33892  15.614   8.819  12.343
72472W        W33893  11.255  20.709   0.405
72473W        W33894  29.655  43.780  14.915
72474W        W33895   1.771  28.128   1.916
72475W        W33896  42.026   7.371  10.019
72476W        W33897  41.962  36.435  12.422
72477W        W33898  29.604  12.332  13.037
72478W        W33899  13.140  36.075  11.478
72479W        W33900   7.676  10.858  12.081
72480W        W33901  36.454   8.328   1.739
72481W        W33902  29.432  12.119  14.430
72482W        W33903  24.099  35.449   0.764
72483W        W33904  35.456  12.175  14.347
72484W        W33905  21.231  34.928   3.676
72485W        W33906  27.559  38.448   2.757
72486W        W33907  31.594  25.654  10.598
72487W        W33908  14.327  41.388  13.340
72488W        W33909   2.348  44.470  12.480
72489W        W33910   6.828  27.949  12.344
72490W        W33911  22.117  43.360  14.850
72491W        W33912   0.277  44.302   0.791
72492W        W33913   7.834  21.636   0.946
72493W        W33914  34.971  21.146  13.454
72494W        W33915  42.967  36.902   4.193
72495W        W33916  34.055  39.413  13.982
72496W        W33917  32.413  21.202   1.438
72497W        W33918  36.411   7.849  11.464
72498W        W33919  18.240  25.625   3.768
72499W        W33920   8.169  16.754   4.649
72500W        W33921  29.015  13.304   9.461
72501W        W33922  26.640   4.204  14.001
72502W        W33923  30.054  12.255  11.478
72503W        W33924  21.159  26.664  13.948
72504W        W33925  10.180  14.094  10.552
72505W        W33926  36.946   5.721  14.844
72506W        W33927  18.552  39.048   4.810
72507W        W33928  37.003  21.151   3.253
72508W        W33929  24.661  23.658  10.475
72509W        W33930   5.243  14.158   0.249
72510W        W33931  17.099  16.572  12.027
72511W        W33932  22.177  20.661  10.922
72512W        W33933   7.790  32.955   4.136
72513W        W33934  42.984  33.501   4.824
72514W        W33935  31.449  33.983  13.546
72515W        W33936  15.621  11.708  14.998
72516W        W33937  39.864  32.593  12.419
72517W        W33938  33.123  33.102  14.892
72518W        W33939  40.456   5.835  13.518
72519W        W33940  36.472  27.119   2.378
72520W        W33941  40.389   0.831  13.543
72521W        W33942  20.695  17.591  11.869
72522W        W33943  36.003  19.274  14.853
72523W        W33944   2.911   1.826  14.838
72524W        W33945  15.668  36.506   1.695
72525W        W33946   7.832   1.830   2.246
72526W        W33947  33.930  20.069  10.465
72527W        W33948   4.863  40.027   3.829
72528W        W33949  22.733  23.594  14.971
72529W        W33950  16.128   2.227  11.041
72530W        W33951  32.501   7.903   3.757
72531W        W33952  41.326  28.015   4.690
72532W        W33953  43.348  32.528   2.183
72533W        W33954  16.188   9.152   3.824
72534W        W33955  19.775  25.550  10.453
72535W        W33956  40.011  18.219  14.944
72536W        W33957  16.714  20.604   4.159
72537W        W33958  31.017  25.167  11.907
72538W        W33959  17.268  10.659   3.842
72539W        W33960  32.082  40.951  12.842
72540W        W33961  30.643  35.468  11.942
72541W        W33962   8.838  26.042   2.313
72542W        W33963  28.178  29.959  13.045
72543W        W33964  20.163  11.173  13.015
72544W        W33965  38.971  18.059   3.756
72545W        W33966   0.265  28.573  13.372
72546W        W33967  11.784  26.646  12.556
72547W        W33968  37.859  10.721  11.444
72548W        W33969  19.227   9.337  12.886
72549W        W33970  36.842  23.996  10.572
72550W        W33971  24.666  41.000  14.414
72551W        W33972  16.228  37.410   1.309
72552W        W33973   4.897  43.964  14.505
72553W        W33974  39.557   6.695   0.773
72554W        W33975  26.196   2.383   3.725
72555W        W33976  21.708  39.392   1.710
72556W        W33977   5.319  43.361  14.301
72557W        W33978  16.178  23.527   4.831
72558W        W33979  21.629  44.404  14.379
72559W        W33980  21.693  13.727  12.997
72560W        W33981  20.583  44.364   4.723
72561W        W33982  33.477  27.034  13.027
72562W        W33983  44.769  12.743   0.735
72563W        W33984  34.591  22.111  12.936
72564W        W33985  14.306  25.640   2.737
72565W        W33986  22.505  36.002  10.571
72566W        W33987  40.488  25.051   0.281
72567W        W33988  37.942  30.005   4.597
72568W        W33989  12.650  32.500  11.876
72569W        W33990  15.623  29.027   9.468
72570W        W33991   6.768  10.228  14.950
72571W        W33992   2.807  18.099   2.699
72572W        W33993  13.804  31.079   0.836
72573W        W33994  20.194  19.085   2.180
72574W        W33995  30.058  10.787   1.911
72575W        W33996   6.405  19.730   4.157
72576W        W33997  33.391  43.870   0.952
72577W        W33998  31.524  15.800   0.434
72578W        W33999  35.062  12.276   0.309
72579W        W34000   2.385   0.872   3.790
72580W        W34001  23.157   3.227  12.847
72581W        W34002  20.754  26.142  10.991
72582W        W34003  28.493   4.385  11.047
72583W        W34004  32.114   9.776   2.739
72584W        W34005  20.051  11.852  14.941
72585W        W34006  31.952  29.937   0.429
72586W        W34007  41.510   6.391   3.360
72587W        W34008  17.596  17.633  12.367
72588W        W34009  21.051  15.228  10.130
72589W        W34010  28.613  30.930   3.264
72590W        W34011   4.910  16.128   3.198
72591W        W34012  27.483  35.867   1.412
72592W        W34013  33.014  41.873  13.347
72593W        W34014  35.018   4.428   0.950
72594W        W34015   3.873  20.722  14.350
72595W        W34016  16.196  44.838  12.093
72596W        W34017  41.489   6.889  11.511
72597W        W34018  12.722  37.473   2.332
72598W        W34019   1.455   8.238  14.863
72599W        W34020   3.761  23.550   0.317
72600W        W34021  39.535  44.927   2.728
72601W        W34022  15.617  27.135  14.913
72602W        W34023  44.375  38.397  12.985
72603W        W34024  41.370  29.588   0.800
72604W        W34025  17.720  25.658   4.289
72605W        W34026  10.688  40.303  14.365
72606W        W34027  29.121  16.213   3.684
72607W        W34028  31.990  33.043  14.815
72608W        W34029  30.011  36.554  12.843
72609W        W34030   1.288  29.518   5.257
72610W        W34031  31.081   7.342  14.334
72611W        W34032  10.843  44.270   2.336
72612W        W34033  33.887  22.070  13.844
72613W        W34034  42.386  44.341   4.648
72614W        W34035  32.062  21.615   1.894
72615W        W34036  19.609  27.623   2.338
72616W        W34037   1.949  28.542  11.463
72617W        W34038  23.640  16.110  12.490
72618W        W34039  15.784  32.975   5.179
72619W        W34040  36.371  42.959   3.837
72620W        W34041  44.963  30.491  10.421
72621W        W34042  23.240  13.119   4.182
72622W        W34043  31.570  21.038   0.340
72623W        W34044  44.472  19.585   2.257
72624W        W34045   8.721  33.069  11.905
72625W        W34046  20.120   1.841   4.192
72626W        W34047  25.140  39.461  13.891
72627W        W34048  19.117  31.507   1.262
72628W        W34049  11.730  18.741  11.920
72629W        W34050  23.028  32.021   4.657
72630W        W34051   2.809  34.413  14.340
72631W        W34052  37.042  32.568  12.373
72632W        W34053   8.393   6.900  11.455
72633W        W34054  35.480   3.807   3.808
72634W        W34055  28.535  41.009   0.883
72635W        W34056  19.620   6.678   3.180
72636W        W34057  37.407  37.546   3.636
72637W        W34058   3.245   6.282  11.584
72638W        W34059  24.577  28.007  13.512
72639W        W34060  35.942  17.136   3.810
72640W        W34061  43.871   7.814   0.941
72641W        W34062  24.584  32.424  12.934
72642W        W34063   4.403  36.998  11.102
72643W        W34064  21.205  17.650  10.518
72644W        W34065   7.768  42.327   3.278
72645W        W34066  24.604  21.544  13.020
72646W        W34067  17.619   5.404   1.811
72647W        W34068  42.362  32.024  13.395
72648W        W34069  21.045  35.448   3.337
72649W        W34070  16.118  43.408   1.921
72650W        W34071  26.498   9.320   1.826
72651W        W34072  44.785  36.380  11.566
72652W        W34073  37.363  16.568  13.506
72653W        W34074  29.476  38.435   4.145
72654W        W34075   1.355   0.861   4.297
72655W        W34076  37.459  22.724  10.566
72656W        W34077  22.615  24.491   0.359
72657W        W34078  41.448   6.816   0.907
72658W        W34079   9.216  10.292   5.136
72659W        W34080  28.524  12.239   1.855
72660W        W34081   3.308  11.283  11.553
72661W        W34082  40.911   1.973  10.634
72662W        W34083  33.878  36.510   4.227
72663W        W34084  32.088  18.248   0.337
72664W        W34085   3.384   5.769   0.414
72665W        W34086  20.136  19.551  13.475
72666W        W34087  44.350  35.960   3.376
72667W        W34088  13.745   3.788   4.708
72668W        W34089  38.947  28.010   5.213
72669W        W34090  35.884  37.047  10.620
72670W        W34091  43.305  31.620  12.345
72671W        W34092   7.253   9.833  11.544
72672W        W34093  35.384  40.521  13.487
72673W        W34094  19.238  40.925  14.508
72674W        W34095   5.244  26.505  14.830
72675W        W34096  15.713  10.197  14.332
72676W        W34097  36.449   8.805   5.228
72677W        W34098  27.997  15.279   3.710
72678W        W34099  27.078  15.654  14.447
72679W        W34100  39.317  29.524  10.956
72680W        W34101  28.556  19.042  11.584
72681W        W34102  30.137   3.711  11.451
72682W        W34103   8.262  24.717   4.148
72683W        W34104  23.059  15.299  11.434
72684W        W34105  18.132  37.068  10.938
72685W        W34106  30.448   4.354   4.801
72686W        W34107  10.246  34.042   4.811
72687W        W34108  14.826   6.891  10.613
72688W        W34109  19.550  15.585  11.952
72689W        W34110  13.625  17.297  12.553
72690W        W34111  23.157  16.628   3.852
72691W        W34112  18.567  19.186  12.879
72692W        W34113  34.069   3.710  10.932
72693W        W34114   2.872  26.062   4.156
72694W        W34115   8.376  24.140  11.978
72695W        W34116  26.597  18.577  14.978
72696W        W34117  27.679  28.545   0.437
72697W        W34118  36.069  25.690   4.743
72698W        W34119   7.259  16.154  12.543
72699W        W34120  29.017  21.069   1.384
72700W        W34121  37.975  22.690  14.297
72701W        W34122  16.644  38.337   2.842
72702W        W34123  10.791   9.751  14.472
72703W        W34124   1.879  17.274  14.383
72704W        W34125  41.030  32.958  13.856
72705W        W34126  42.013  23.710  14.775
72706W        W34127  10.770  30.970   4.713
72707W        W34128  19.559   2.283   1.842
72708W        W34129  11.649  36.991   4.597
72709W        W34130   1.421   3.422  14.901
72710W        W34131  41.334  26.090   4.316
72711W        W34132   3.813  23.150   0.356
72712W        W34133  31.539  38.900  14.934
72713W        W34134  10.874  38.443   3.308
72714W        W34135  31.431  44.375  13.960
72715W        W34136  31.151  13.679  13.052
72716W        W34137  18.164   2.443   3.300
72717W        W34138  33.495   1.454  13.503
72718W        W34139   4.422  36.472  11.398
72719W        W34140   6.831   6.405  14.922
72720W        W34141  11.295  44.443  11.072
72721W        W34142  42.777   7.785   4.741
72722W        W34143  32.069  18.641  11.569
72723W        W34144  11.221  15.206   3.216
72724W        W34145  27.542  44.480  13.914
72725W        W34146  29.487  16.227   1.909
72726W        W34147  25.527  37.558   1.390
72727W        W34148  22.054   7.789  11.971
72728W        W34149  38.526  27.480   2.346
72729W        W34150  37.395   7.206  13.438
72730W        W34151   7.409   3.808   5.703
72731W        W34152   8.803  10.663   4.645
72732W        W34153  18.636  21.591  14.359
72733W        W34154  35.928  20.119   2.263
72734W        W34155  35.509   0.307  12.915
72735W        W34156  26.009  14.330  10.922
72736W        W34157  20.562  13.641   3.196
72737W        W34158  41.299  27.492   4.671
72738W        W34159  30.134  41.039   0.923
72739W        W34160   8.811  14.775  10.922
72740W        W34161  27.472  41.343  12.416
72741W        W34162  15.275   0.964  10.441
72742W        W34163  13.326  27.652  12.993
72743W        W34164   4.774  34.549   2.694
72744W        W34165  32.542   0.356  11.032
72745W        W34166  15.125  40.998   1.933
72746W        W34167  23.192  30.069  10.518
72747W        W34168  17.622  35.001  14.395
72748W        W34169  20.730  26.552  13.471
72749W        W34170  10.254  42.363   4.335
72750W        W34171  19.571  36.075  11.965
72751W        W34172  38.383  33.416  10.409
72752W        W34173   8.748  25.159   4.700
72753W        W34174  35.924  38.445   4.181
72754W        W34175   6.715  25.580   2.397
72755W        W34176   0.764  42.032   2.294
72756W        W34177  14.676  15.642  12.534
72757W        W34178  21.166   6.688  11.565
72758W        W34179  23.669  31.501   4.154
72759W        W34180   0.301  25.146   4.296
72760W        W34181  15.322  40.412  12.878
72761W        W34182   4.822  26.488   1.341
72762W        W34183  33.483  22.017  10.558
72763W        W34184  18.073  29.444   0.865
72764W        W34185  37.452   8.667   2.209
72765W        W34186   3.753  42.302   4.605
72766W        W34187  13.827  33.010  13.828
72767W        W34188  10.341  38.863   9.564
72768W        W34189  13.762  39.551   2.189
72769W        W34190   1.421  25.677   1.440
72770W        W34191  25.126  17.717  11.080
72771W        W34192  17.066  12.340  10.594
72772W        W34193   4.296  18.656   4.196
72773W        W34194  41.293  25.984  13.004
72774W        W34195  11.658  22.518  13.961
72775W        W34196   0.366  23.138  13.314
72776W        W34197   0.877   8.184  14.959
72777W        W34198   4.311  10.784   1.362
72778W        W34199   2.340  17.710   0.433
72779W        W34200  11.820   8.877   1.915
72780W        W34201  27.191  23.204   1.232
72781W        W34202   4.232  27.180  12.383
72782W        W34203  30.078  37.921  13.446
72783W        W34204  38.401  22.228   4.290
72784W        W34205  38.352  30.570   3.713
72785W        W34206  44.467   1.290   0.789
72786W        W34207  44.278   4.702   4.204
72787W        W34208  12.827   4.857   0.245
72788W        W34209   0.838   1.462  14.419
72789W        W34210  28.161  32.069  13.522
72790W        W34211  10.654  42.821  12.340
72791W        W34212   2.381  15.148  11.968
72792W        W34213  10.676  38.426   9.941
72793W        W34214   8.216  16.097   2.316
72794W        W34215  13.179  18.166  10.421
72795W        W34216  15.275   3.217   0.966
72796W        W34217  35.419  43.292   1.271
72797W        W34218   6.220   3.882  14.443
72798W        W34219  25.192  12.618  10.570
72799W        W34220  42.012  33.408   2.739
72800W        W34221  39.466   4.927   3.312
72801W        W34222  13.655   7.743  12.439
72802W        W34223   5.820  21.679  10.548
72803W        W34224  31.112  16.583  13.485
72804W        W34225   8.755  28.172  13.052
72805W        W34226  22.010   7.847   1.284
72806W        W34227  21.080  41.991  14.968
72807W        W34228  19.237  17.592   2.822
72808W        W34229   4.422  43.954   0.420
72809W        W34230  19.254  36.027  14.508
72810W        W34231  27.665   3.348  12.080
72811W        W34232  11.127  25.658  14.863
72812W        W34233   0.986  27.017  11.054
72813W        W34234  42.372  42.017  11.881
72814W        W34235   8.798   2.927  11.498
72815W        W34236  27.196  26.535   5.138
72816W        W34237  17.079  43.777   0.373
72817W        W34238  39.832  18.191  11.399
72818W        W34239  36.492   9.754   3.338
72819W        W34240  14.190  21.075  14.981
72820W        W34241  25.194  15.160  13.546
72821W        W34242  20.534  24.061   2.393
72822W        W34243  31.081   2.401  13.392
72823W        W34244  36.095  30.522   1.872
72824W        W34245  35.555  39.888   4.706
72825W        W34246   3.815   1.733   3.235
72826W        W34247   5.907  15.282   0.359
72827W        W34248  15.256  24.572  14.020
72828W        W34249  28.067   5.726  12.341
72829W        W34250  36.362  32.583  13.320
72830W        W34251   0.932  12.181  14.032
72831W        W34252   7.217  25.705  11.440
72832W        W34253  40.354  21.757   1.908
72833W        W34254  23.508  35.450  10.537
72834W        W34255  41.469  15.219  11.867
72835W        W34256  34.868  13.281  13.014
72836W        W34257  29.439  29.085   3.384
72837W        W34258  25.131  24.501   2.783
72838W        W34259  29.507  39.879   0.735
72839W        W34260  16.614  21.654   1.306
72840W        W34261  21.545  16.109   0.734
72841W        W34262  31.482  34.054   4.287
72842W        W34263  17.255  22.161  14.474
72843W        W34264  30.498  40.454   4.118
72844W        W34265  43.808  17.204   1.913
72845W        W34266  32.925  25.596  14.801
72846W        W34267  20.698  37.954   3.293
72847W        W34268  25.616   0.774  13.418
72848W        W34269  27.498  27.124  14.500
72849W        W34270  41.990   6.332   1.827
72850W        W34271  35.406  13.772  11.008
72851W        W34272  23.523  10.303   4.202
72852W        W34273  30.085  18.223   0.277
72853W        W34274  25.608  16.595  11.376
72854W        W34275   9.264  12.275   4.648
72855W        W34276  17.141  23.004  12.826
72856W        W34277  26.178  19.154  12.371
72857W        W34278  27.480  27.045   2.899
72858W        W34279  12.135  20.270   0.482
72859W        W34280  33.504   5.753  10.961
72860W        W34281   2.812  20.170  11.880
72861W        W34282  19.208  39.405  13.446
72862W        W34283  29.643  10.180  11.907
72863W        W34284   4.297   2.241  10.639
72864W        W34285  24.098  37.365  13.534
72865W        W34286  18.786  31.972  11.595
72866W        W34287  29.605   5.691  13.455
72867W        W34288  14.635  33.992   4.715
72868W        W34289   6.309  21.222   0.338
72869W        W34290  14.635   7.217  12.045
72870W        W34291  39.551  41.999   0.871
72871W        W34292   9.819  26.553  10.461
72872W        W34293   7.729  33.501   1.852
72873W        W34294  34.611   5.356  10.086
72874W        W34295   0.265  44.353   2.813
72875W        W34296  11.135  17.286   3.716
72876W        W34297   0.746  38.433  13.825
72877W        W34298  44.997  24.591  14.421
72878W        W34299  30.438  24.022  13.339
72879W        W34300  10.229  26.972   1.427
72880W        W34301  24.184  30.561   1.882
72881W        W34302  34.413  36.029   4.232
72882W        W34303  25.711   9.304  13.354
72883W        W34304  15.318  36.926   0.961
72884W        W34305  39.954  19.642  13.005
72885W        W34306  22.702  41.015   0.867
72886W        W34307  37.859   6.891  10.417
72887W        W34308  38.550  44.283  11.506
72888W        W34309   2.234  23.164  10.418
72889W        W34310   4.245  12.219   2.354
72890W        W34311  17.278  18.726   1.233
72891W        W34312  15.790  32.956  14.287
72892W        W34313  42.842  24.599  12.463
72893W        W34314  41.329  22.248   4.321
72894W        W34315  36.065  27.527  13.377
72895W        W34316   4.436   8.193   2.193
72896W        W34317  10.374  39.966  13.996
72897W        W34318  12.758  23.033   4.239
72898W        W34319  42.030  17.566  13.826
72899W        W34320   9.284  23.704  14.988
72900W        W34321  11.843  19.066   1.420
72901W        W34322  22.250  29.961  14.884
72902W        W34323  37.001  28.093  12.519
72903W        W34324  38.567   5.707   1.302
72904W        W34325  23.612  35.594   3.322
72905W        W34326   5.902  42.452  12.035
72906W        W34327   0.767  15.622  10.959
72907W        W34328   7.676  18.165   2.877
72908W        W34329  25.992  13.235   1.752
72909W        W34330   9.183  19.746  12.551
72910W        W34331  21.524   0.391  10.460
72911W        W34332   3.734  23.189  13.350
72912W        W34333  30.526   9.877  14.394
72913W        W34334  32.049  25.494  10.630
72914W        W34335   1.758  21.747  12.987
72915W        W34336  18.686  37.383  11.373
72916W        W34337  23.680  31.548  13.477
72917W        W34338   8.656  27.474  10.566
72918W        W34339  28.009  18.185  13.367
72919W        W34340   0.939  29.602   3.851
72920W        W34341   3.252  18.124  13.909
72921W        W34342   1.868  35.926  11.403
72922W        W34343   6.876  31.415  12.354
72923W        W34344  30.630   7.383   0.781
72924W        W34345  27.470  11.833  11.594
72925W        W34346  26.045  19.138   4.643
72926W        W34347  33.424  29.506   0.412
72927W        W34348  36.394   3.797   5.160
72928W        W34349   8.825  33.568  12.889
72929W        W34350   8.230  32.446   2.417
72930W        W34351   2.453   8.193   3.737
72931W        W34352  43.774   1.481  13.541
72932W        W34353  44.485   7.680  14.401
72933W        W34354  22.221  14.326  14.782
72934W        W34355   1.422  27.188  12.076
72935W        W34356  11.625   7.786   4.262
72936W        W34357  28.975  13.150  13.535
72937W        W34358   6.332  10.702  13.469
72938W        W34359  36.499  33.058  10.965
72939W        W34360  22.238  21.144   1.730
72940W        W34361   4.385  23.686   2.358
72941W        W34362  42.314  35.071   1.883
72942W        W34363  34.053   4.764   9.966
72943W        W34364  22.052  17.205  10.403
72944W        W34365  34.045   9.276  13.830
72945W        W34366   3.802  20.241   4.133
72946W        W34367  28.126  37.028  12.869
72947W        W34368   7.255  42.921   1.269
72948W        W34369   7.209  26.201   0.846
72949W        W34370  24.488  41.965   2.889
72950W        W34371  41.008  42.949   3.315
72951W        W34372  15.112   7.850  11.388
72952W        W34373   9.304  29.469   4.599
72953W        W34374  12.854  11.750  12.367
72954W        W34375  24.691  37.945   0.379
72955W        W34376   4.744  21.055  12.886
72956W        W34377  22.741   6.881   3.794
72957W        W34378  42.353  32.522  10.971
72958W        W34379  43.943  16.677  13.390
72959W        W34380  39.000  22.538   2.818
72960W        W34381  13.319  15.162  13.510
72961W        W34382  22.721   5.833   4.238
72962W        W34383  34.891   5.859   4.637
72963W        W34384   4.265  12.247  13.845
72964W        W34385  27.576  30.592   1.333
72965W        W34386  30.476  15.253   2.186
72966W        W34387  32.493  35.477  12.401
72967W        W34388  16.236  27.510   3.272
72968W        W34389  11.326   7.839  10.514
72969W        W34390  36.048  22.597   1.371
72970W        W34391  33.945  33.495  14.431
72971W        W34392  31.927  44.757   1.828
72972W        W34393   4.722   5.202  11.119
72973W        W34394  30.052  23.008  13.800
72974W        W34395  44.281  44.805  12.028
72975W        W34396  42.986  17.073  11.048
72976W        W34397  41.339  34.481  13.980
72977W        W34398  30.984  27.099  12.482
72978W        W34399  11.250   6.862   2.723
72979W        W34400  37.009  21.686   3.720
72980W        W34401   7.897  22.572  12.479
72981W        W34402  42.314   6.779  14.858
72982W        W34403  15.609  14.295   3.187
72983W        W34404  22.644  26.679  13.958
72984W        W34405  34.016  42.368  10.411
72985W        W34406  24.189  31.064  14.481
72986W        W34407  10.848   4.431   0.884
72987W        W34408  22.219  28.593   1.888
72988W        W34409  31.123  24.653   0.349
72989W        W34410  16.280  41.306   1.294
72990W        W34411  28.056  41.532   2.336
72991W        W34412  37.918  30.911   0.321
72992W        W34413  39.977   9.781  10.468
72993W        W34414  20.220  18.581   1.698
72994W        W34415  34.021  11.802  14.365
72995W        W34416  39.515   2.250  12.369
72996W        W34417  31.011   9.863  14.441
72997W        W34418   2.399   4.756  13.859
72998W        W34419  22.559   5.858   2.874
72999W        W34420  28.972  14.794  10.899
73000W        W34421  20.062  42.319   0.761
73001W        W34422   9.798  19.581  11.055
73002W        W34423  42.506  26.116  14.321
73003W        W34424  25.520  38.564   1.261
73004W        W34425  24.057  10.759  13.792
73005W        W34426  40.534  10.646   1.270
73006W        W34427  37.369  30.583  10.425
73007W        W34428  15.111  31.573   1.314
73008W        W34429  34.886  29.042   9.922
73009W        W34430  18.233  13.301   2.702
73010W        W34431   0.260  44.426   2.239
73011W        W34432  25.604  35.874  11.467
73012W        W34433   7.899  22.746   0.900
73013W        W34434  36.384   4.335  11.048
73014W        W34435  28.485  35.001   3.632
73015W        W34436  20.108  20.161   2.283
73016W        W34437   2.469  21.512  12.837
73017W        W34438  41.485  20.708  13.046
73018W        W34439  21.086  41.856  12.953
73019W        W34440  18.773  43.418  12.873
73020W        W34441  44.807  21.553   1.422
73021W        W34442  20.239  24.167   3.347
73022W        W34443  40.465  31.630   2.338
73023W        W34444  28.140   6.354  13.843
73024W        W34445  12.300  19.748  10.892
73025W        W34446  30.421   2.793  11.407
73026W        W34447  13.718   3.224   3.322
73027W        W34448  11.279   7.204   2.374
73028W        W34449  40.524  35.022  11.388
73029W        W34450  42.836  21.026  13.472
73030W        W34451  21.192  13.666  12.059
73031W        W34452   8.180  37.348  10.079
73032W        W34453  17.247  40.813  11.548
73033W        W34454  16.248   0.336   4.299
73034W        W34455   2.228  14.814   4.610
73035W        W34456  27.184  10.741  11.949
73036W        W34457  24.646  23.117  10.489
73037W        W34458  17.227  24.126  10.521
73038W        W34459  41.519  43.274   3.339
73039W        W34460  33.624   1.254   1.810
73040W        W34461  38.914  31.947   5.320
73041W        W34462  22.133  10.168  11.505
73042W        W34463   3.857  10.842   3.762
73043W        W34464   5.796   4.868  14.910
73044W        W34465   0.349  38.540   1.748
73045W        W34466   9.339   1.884   1.360
73046W        W34467   4.731  29.172   4.599
73047W        W34468   4.938  32.081   0.373
73048W        W34469  39.870  11.750   3.765
73049W        W34470  33.570  32.474  12.070
73050W        W34471  35.898   2.255  14.335
73051W        W34472  43.911  33.467   4.661
73052W        W34473  26.095  32.917   2.820
73053W        W34474  22.657  27.065  11.575
73054W        W34475  20.162  18.693   1.254
73055W        W34476  12.138  27.547   1.390
73056W        W34477  34.606  14.287  12.431
73057W        W34478  43.930   8.301   1.327
73058W        W34479  17.077   0.960   2.362
73059W        W34480  33.982   1.374   3.328
73060W        W34481  33.950   1.842   3.344
73061W        W34482  23.712  10.714   3.769
73062W        W34483  18.273   1.478  12.456
73063W        W34484   3.338   0.253   5.736
73064W        W34485   1.821  25.195   4.800
73065W        W34486   4.913  31.083   3.865
73066W        W34487  14.297   8.202  12.526
73067W        W34488  12.215  11.304  12.069
73068W        W34489   8.857  37.064  13.538
73069W        W34490  31.130  13.716   0.901
73070W        W34491  43.446  21.699   1.241
73071W        W34492  34.109   2.413   1.709
73072W        W34493   1.306  30.428  13.514
73073W        W34494  20.724  15.261   2.682
73074W        W34495   9.217  14.596  14.881
73075W        W34496  43.022   1.764   4.741
73076W        W34497  22.576  10.270  14.783
73077W        W34498   1.876  19.580  14.490
73078W        W34499  42.868  14.702   3.758
73079W        W34500   9.221  18.145  14.513
73080W        W34501  41.426   8.177   4.249
73081W        W34502  30.540  10.242  10.527
73082W        W34503  27.023  13.818  11.535
73083W        W34504  12.313  15.224  13.307
73084W        W34505  27.568  40.496   4.689
73085W        W34506   9.751   6.300   2.405
73086W        W34507   1.793  29.460  11.569
73087W        W34508  28.103   0.309   4.703
73088W        W34509  15.587  22.537  13.962
73089W        W34510  41.971  44.469  13.488
73090W        W34511  44.822  15.184  12.525
73091W        W34512  23.552  28.005  12.926
73092W        W34513  39.393  16.614   1.344
73093W        W34514   2.333  11.840   4.773
73094W        W34515  34.099  12.852   2.842
73095W        W34516  21.218  40.544   1.391
73096W        W34517  11.740  36.860  14.907
73097W        W34518   7.775   5.229   1.429
73098W        W34519  28.678  11.721  14.975
73099W        W34520  19.733   8.373  11.856
73100W        W34521  11.842   8.349  14.420
73101W        W34522  26.649  16.205  14.806
73102W        W34523   2.385  11.372   1.375
73103W        W34524  20.059   1.851   0.335
73104W        W34525  19.582  41.971   0.910
73105W        W34526  19.684   0.965  11.520
73106W        W34527  23.718  11.635  13.327
73107W        W34528  34.026  41.538   2.662
73108W        W34529  36.893  30.509   0.451
73109W        W34530  21.541  37.492   4.831
73110W        W34531  38.547   8.891   4.294
73111W        W34532   7.827  17.668  13.426
73112W        W34533  40.533   2.953  13.921
73113W        W34534  11.829  23.080   1.749
73114W        W34535   5.343  23.733   1.814
73115W        W34536  15.655   3.900  13.943
73116W        W34537  39.523  18.666   2.264
73117W        W34538   9.362  37.855   2.208
73118W        W34539   0.414  28.649   1.218
73119W        W34540  35.025  23.681   2.728
73120W        W34541  11.777   5.437   1.870
73121W        W34542  27.110  43.927  14.837
73122W        W34543  39.944  12.163  10.042
73123W        W34544  18.191  21.552   1.382
73124W        W34545  44.867  41.526  12.878
73125W        W34546  44.377  15.619   1.838
73126W        W34547  26.592   6.234  12.868
73127W        W34548  44.936  44.772   4.639
73128W        W34549   5.435   3.329   0.794
73129W        W34550   4.897  10.784  13.490
73130W        W34551  10.210  19.561  10.033
73131W        W34552  16.623   8.245   0.477
73132W        W34553  31.944  22.091   1.839
73133W        W34554  26.039   7.373   2.835
73134W        W34555  43.482   8.870   4.636
73135W        W34556  19.235  12.817   1.858
73136W        W34557  40.950  35.096  12.829
73137W        W34558  11.753  34.431   2.293
73138W        W34559  28.490   7.208   2.744
73139W        W34560  33.052   9.802  10.590
73140W        W34561   4.727   9.723  10.946
73141W        W34562  39.481  35.047   1.762
73142W        W34563  34.980  10.362   0.737
73143W        W34564  14.165  29.453  10.607
73144W        W34565  36.497  28.619  11.568
73145W        W34566  34.476  31.506   4.654
73146W        W34567   4.780  14.336  13.452
73147W        W34568  12.839  19.164  11.379
73148W        W34569  22.556   7.297   3.176
73149W        W34570   9.184  24.656  14.850
73150W        W34571   7.321  14.241   0.395
73151W        W34572  32.556  10.319  14.347
73152W        W34573  27.974  20.745  11.444
73153W        W34574  44.005  40.496   2.265
73154W        W34575   8.884  29.922   1.796
73155W        W34576   2.955  41.364   3.828
73156W        W34577   8.304  39.809   4.730
73157W        W34578  19.234   0.348   0.277
73158W        W34579   9.653  43.780  13.903
73159W        W34580  43.782  34.884   1.873
73160W        W34581  39.485  20.583   0.905
73161W        W34582  25.143   0.254   1.897
73162W        W34583  17.193  42.949  14.428
73163W        W34584  23.200  25.707   2.879
73164W        W34585  33.004  20.547   1.892
73165W        W34586  30.430  41.493   1.439
73166W        W34587  42.471  25.692   4.238
73167W        W34588  30.528   8.160  14.798
73168W        W34589  32.436  32.070   2.808
73169W        W34590  30.054  44.397  14.287
73170W        W34591  44.283  21.092  10.912
73171W        W34592  12.845  24.683  12.402
73172W        W34593  34.574  12.310  13.832
73173W        W34594  20.745  26.138  14.450
73174W        W34595  11.351  33.499   0.853
73175W        W34596   2.235  11.257  12.906
73176W        W34597   3.956  11.642  12.864
73177W        W34598  21.717  24.017  12.491
73178W        W34599  23.547  24.721  13.924
73179W        W34600  39.001   0.967   0.817
73180W        W34601  32.907   9.258  13.991
73181W        W34602  25.039  19.105  11.934
73182W        W34603   3.424  29.089  10.449
73183W        W34604  20.689   9.809   3.816
73184W        W34605   4.407   3.247   4.701
73185W        W34606  26.526  33.530   2.875
73186W        W34607  10.786  36.496   2.324
73187W        W34608  37.440  43.939  11.474
73188W        W34609  36.025  37.548   4.797
73189W        W34610   4.926  33.072  12.839
73190W        W34611  40.451  26.600  14.498
73191W        W34612  29.993  25.713   3.808
73192W        W34613   3.883  17.228  14.017
73193W        W34614  41.383  17.748   2.877
73194W        W34615  23.491   8.375  11.576
73195W        W34616   8.203  24.622   4.647
73196W        W34617   4.324   5.321   1.788
73197W        W34618  35.591  36.545  14.381
73198W        W34619  29.657  18.680   0.281
73199W        W34620   5.369  28.127   3.227
73200W        W34621  37.452  42.793   0.774
73201W        W34622  32.914  18.079  14.867
73202W        W34623  25.089   6.352   0.479
73203W        W34624   6.227   4.773   0.445
73204W        W34625   7.302  18.064  10.450
73205W        W34626  13.117  12.837  12.051
73206W        W34627  32.392  17.247  12.497
73207W        W34628  26.497  18.209   0.746
73208W        W34629  33.392  22.171   0.287
73209W        W34630  21.730  29.044   0.807
73210W        W34631  23.071  36.929   0.446
73211W        W34632  17.100   3.756  10.583
73212W        W34633  10.742   2.295   0.872
73213W        W34634  31.949  33.425   1.280
73214W        W34635   9.358   4.874  10.070
73215W        W34636  42.992  31.152   0.808
73216W        W34637  33.397  15.702  14.315
73217W        W34638   1.456  36.369   3.801
73218W        W34639  37.004  12.137   3.173
73219W        W34640  11.166   7.670  12.898
73220W        W34641  44.946   8.741   0.909
73221W        W34642   8.387  37.480  11.562
73222W        W34643   5.412  30.504   5.237
73223W        W34644  33.469  42.900   0.368
73224W        W34645  10.633  20.569  14.010
73225W        W34646  39.353  11.651   2.320
73226W        W34647   5.197  28.979   4.236
73227W        W34648   8.302  15.636  13.382
73228W        W34649  29.150   1.295  10.622
73229W        W34650  38.974  42.975   0.245
73230W        W34651   7.216  38.826  12.537
73231W        W34652  23.216  22.662  14.484
73232W        W34653  15.287  42.479  13.926
73233W        W34654  20.199   2.301   0.411
73234W        W34655  41.416  20.142  13.795
73235W        W34656  32.039  24.984   1.272
73236W        W34657  40.032   3.905  13.964
73237W        W34658  15.683  39.458   4.802
73238W        W34659  31.107  18.675   2.386
73239W        W34660  30.521  24.111  13.814
73240W        W34661  22.500  28.643   3.827
73241W        W34662   2.365  12.834   1.874
73242W        W34663   3.318  14.225  13.363
73243W        W34664   9.863  14.291   2.406
73244W        W34665  26.511  38.852   4.351
73245W        W34666  35.105  30.083  11.933
73246W        W34667  20.032  35.037  11.596
73247W        W34668  34.898  28.525  12.980
73248W        W34669   1.950  27.586  12.480
73249W        W34670  23.089  29.148  10.511
73250W        W34671  41.516  12.673  10.585
73251W        W34672  22.672   6.802   4.693
73252W        W34673   2.297  42.850   4.672
73253W        W34674  43.777   8.344  13.053
73254W        W34675  12.780   2.359   3.216
73255W        W34676  20.662   1.264   3.673
73256W        W34677  30.992   7.855   3.198
73257W        W34678   8.802  40.875  10.093
73258W        W34679  42.403   6.398   4.266
73259W        W34680  42.377  27.177   0.870
73260W        W34681   0.931  34.397   4.729
73261W        W34682  17.646  32.548   3.165
73262W        W34683  18.685  11.237  11.051
73263W        W34684  34.865  13.638   3.644
73264W        W34685  25.117  26.662   3.640
73265W        W34686   4.705  17.145   5.242
73266W        W34687  11.172  19.570  11.108
73267W        W34688  31.419  29.124   3.725
73268W        W34689  28.008  29.968   3.681
73269W        W34690  36.523   9.213  11.094
73270W        W34691  21.572  42.520  12.984
73271W        W34692  41.808  23.122   1.247
73272W        W34693  12.211  42.981   5.282
73273W        W34694  19.238  37.556  10.467
73274W        W34695  19.733  43.466   4.184
73275W        W34696  25.588  32.038  10.428
73276W        W34697  15.595   7.773   0.395
73277W        W34698   8.305  35.454  12.855
73278W        W34699   7.851   9.163   2.274
73279W        W34700  35.065  40.805  12.986
73280W        W34701  37.968  36.570  13.887
73281W        W34702  32.059  36.513   4.219
73282W        W34703  11.343  32.558  10.411
73283W        W34704  27.655  20.656   1.900
73284W        W34705  37.834  26.460  13.034
73285W        W34706   3.905   1.449   4.625
73286W        W34707  35.497  17.564   4.756
73287W        W34708  21.679  39.938   3.817
73288W        W34709  13.226  20.608  12.423
73289W        W34710  29.531  31.406   1.384
73290W        W34711  17.651   2.892   2.382
73291W        W34712  41.017  29.130   1.869
73292W        W34713  25.042  37.335  13.040
73293W        W34714  30.115  18.725  14.952
73294W        W34715  29.973  37.898  12.043
73295W        W34716  11.621  26.983   4.159
73296W        W34717   2.779  20.118  12.498
73297W        W34718  22.506   9.851  14.025
73298W        W34719   1.435  29.572   5.713
73299W        W34720  34.372   5.282   3.695
73300W        W34721  40.962  26.199  11.904
73301W        W34722  40.465   8.372  14.847
73302W        W34723  12.276  28.600  14.792
73303W        W34724  26.035  28.073  13.499
73304W        W34725  18.277  34.533   1.212
73305W        W34726   6.842  33.942   0.918
73306W        W34727  15.622  24.109   2.331
73307W        W34728  39.469  23.517  14.399
73308W        W34729   4.296  38.401  10.961
73309W        W34730   8.664  32.538   0.426
73310W        W34731  44.325  43.834  11.042
73311W        W34732  33.497  36.368  13.516
73312W        W34733  24.003   1.958   0.964
73313W        W34734  43.983   7.247   3.301
73314W        W34735  30.005  29.596   3.671
73315W        W34736   5.200  15.175   2.268
73316W        W34737   5.341  24.082   2.245
73317W        W34738   0.372  33.394   0.435
73318W        W34739  18.747  40.877  10.429
73319W        W34740   8.870   6.274  14.297
73320W        W34741  35.029  44.464   2.758
73321W        W34742  28.434  42.800  10.511
73322W        W34743   1.832  37.905   0.957
73323W        W34744   3.436  14.340  10.449
73324W        W34745  33.082  23.147  11.528
73325W        W34746  31.994  25.697  11.412
73326W        W34747  15.640  22.132   0.397
73327W        W34748  34.414  38.942  12.487
73328W        W34749  16.587  22.511  12.884
73329W        W34750  10.803  34.051   4.834
73330W        W34751  31.636  12.832  12.844
73331W        W34752  15.174  15.596  13.335
73332W        W34753  29.578  36.512  12.018
73333W        W34754  35.584  29.084   2.893
73334W        W34755  25.705  44.900  14.435
73335W        W34756  29.504  20.213   0.365
73336W        W34757   7.686  18.760   1.400
73337W        W34758   9.294  22.227  13.977
73338W        W34759  30.477  42.835  13.900
73339W        W34760  30.115  33.035   3.296
73340W        W34761   3.818   8.758  10.408
73341W        W34762   0.957   9.264   2.253
73342W        W34763   2.796   5.709   4.250
73343W        W34764  12.245  30.039   4.202
73344W        W34765  36.430  22.080  10.410
73345W        W34766  31.964   1.393  12.084
73346W        W34767  21.670  21.558  13.359
73347W        W34768   7.207  23.628  14.387
73348W        W34769  37.938  37.039   2.299
73349W        W34770  43.802   8.346   3.850
73350W        W34771  19.273   6.374  14.292
73351W        W34772  14.754  15.676  14.480
73352W        W34773   2.452   8.769  14.367
73353W        W34774   3.360  13.165   5.261
73354W        W34775  17.799  32.919  13.520
73355W        W34776  33.069  17.242   3.816
73356W        W34777  11.354  16.613  10.889
73357W        W34778  34.074  41.805  14.469
73358W        W34779  27.039  12.246   0.851
73359W        W34780  34.485  10.756   0.887
73360W        W34781  41.512   7.410  13.934
73361W        W34782  15.722  35.873  12.451
73362W        W34783  38.974  16.180  11.416
73363W        W34784  19.177  33.589   0.300
73364W        W34785   3.791  16.663   3.298
73365W        W34786   0.783  35.955   3.794
73366W        W34787  40.476  26.102   2.857
73367W        W34788  34.603   3.889  14.317
73368W        W34789  33.421  21.224   1.355
73369W        W34790  18.101  20.033  13.012
73370W        W34791  12.239  40.009   3.231
73371W        W34792   7.872   0.890   1.913
73372W        W34793  31.965   5.816   2.761
73373W        W34794  44.940  43.962   2.852
73374W        W34795  19.258  19.661  13.982
73375W        W34796  15.777  43.817  12.069
73376W        W34797  33.973  16.582  12.895
73377W        W34798  28.124  15.704   4.177
73378W        W34799   8.792  14.219  12.517
73379W        W34800   9.674  16.608  10.955
73380W        W34801  19.695  37.905   5.109
73381W        W34802   2.918  37.965  14.833
73382W        W34803  33.950  24.071   1.359
73383W        W34804  10.643  28.499   0.776
73384W        W34805   6.283  17.120  12.025
73385W        W34806  35.970  25.209  12.443
73386W        W34807  23.494  20.615  11.111
73387W        W34808   5.868  27.553   1.902
73388W        W34809  26.041  37.551  14.807
73389W        W34810  18.660   1.946   1.396
73390W        W34811  27.963   3.870  12.054
73391W        W34812   5.816   4.398   2.866
73392W        W34813  39.000  18.052   0.364
73393W        W34814  19.641  36.422   2.387
73394W        W34815  15.306  11.839   2.398
73395W        W34816  36.465   6.868   3.192
73396W        W34817  20.749  27.527   3.235
73397W        W34818   2.774  19.229  12.376
73398W        W34819   3.811  40.918   0.754
73399W        W34820  36.352  16.201   2.828
73400W        W34821  22.690  18.605   2.668
73401W        W34822  24.575  21.745  10.543
73402W        W34823  37.482   3.842   4.278
73403W        W34824  36.031   8.887  13.432
73404W        W34825  34.456   1.775  13.414
73405W        W34826  28.660  40.347  12.864
73406W        W34827   3.844   2.455  10.416
73407W        W34828  34.094   0.821  14.309
73408W        W34829  41.850  37.017  12.533
73409W        W34830  17.777  29.644   0.777
73410W        W34831  14.173  12.704   2.780
73411W        W34832  23.149   5.898  11.067
73412W        W34833   6.685   1.802  10.985
73413W        W34834  39.514   7.343  10.425
73414W        W34835  15.194  31.999   0.271
73415W        W34836   6.257  30.983  11.410
73416W        W34837  37.021  43.465  13.823
73417W        W34838  20.188  43.894  14.008
73418W        W34839   2.338   6.815   2.402
73419W        W34840   7.261  32.074   0.313
73420W        W34841  23.518  20.274  10.617
73421W        W34842  13.126  35.375   4.129
73422W        W34843  17.758  32.031   4.308
73423W        W34844  13.189   4.231  11.430
73424W        W34845  27.950   0.814   3.255
73425W        W34846  16.658  30.633   2.667
73426W        W34847  36.988  11.843   1.903
73427W        W34848  10.735   5.884  13.905
73428W        W34849  20.638  32.995  13.971
73429W        W34850  22.016  20.742  13.325
73430W        W34851  16.622  20.609   2.224
73431W        W34852  44.946  26.612  13.054
73432W        W34853  26.104  41.485  13.022
73433W        W34854   1.917  42.831   1.405
73434W        W34855   3.891  31.482   2.748
73435W        W34856  24.674  30.414   2.901
73436W        W34857   9.303  12.326  12.509
73437W        W34858  39.946  16.796  12.469
73438W        W34859  13.607  42.917  10.534
73439W        W34860  24.479  40.857   2.381
73440W        W34861  31.900  19.635  11.605
73441W        W34862   6.741  25.104  13.972
73442W        W34863   1.457  14.787   3.168
73443W        W34864  18.760  32.533  13.359
73444W        W34865  33.959   1.928   4.351
73445W        W34866  32.418  14.722  12.347
73446W        W34867  21.568  11.197  14.505
73447W        W34868  20.045  13.735   0.275
73448W        W34869  38.345  34.569  14.504
73449W        W34870  32.610   2.742   0.323
73450W        W34871  19.601   1.412   4.606
73451W        W34872  38.066  19.057  11.926
73452W        W34873   5.196  20.532   1.348
73453W        W34874  42.778   2.366   4.712
73454W        W34875  10.171   7.249  11.576
73455W        W34876   9.795  19.108  11.054
73456W        W34877  28.648  27.552  12.560
73457W        W34878  42.818  23.512  14.495
73458W        W34879  31.121  28.169  10.612
73459W        W34880  26.669  34.468   1.320
73460W        W34881  19.135   8.350   0.783
73461W        W34882   9.842  18.775   1.903
73462W        W34883  37.923  31.463  11.438
73463W        W34884  23.704   8.900   3.346
73464W        W34885  15.812  11.355  10.065
73465W        W34886  16.731  42.432   0.937
73466W        W34887   4.927  43.844  10.432
73467W        W34888  32.984  20.695   3.159
73468W        W34889  25.009  42.950  11.027
73469W        W34890  27.461  21.746  11.000
73470W        W34891  25.486  36.920   0.385
73471W        W34892  25.681  28.083   0.390
73472W        W34893  12.316  24.716   2.863
73473W        W34894  10.633  27.047  10.958
73474W        W34895   0.299   8.838  12.858
73475W        W34896   7.768  24.178  11.500
73476W        W34897  23.215  20.105   2.186
73477W        W34898  25.057  29.623   0.827
73478W        W34899  39.868  31.631   3.283
73479W        W34900   5.815  16.282  12.441
73480W        W34901  26.984  22.228  14.457
73481W        W34902  20.100  35.515   1.247
73482W        W34903  11.218  32.470   1.230
73483W        W34904  34.087  17.577   1.735
73484W        W34905  32.984  10.336  14.938
73485W        W34906  14.102  11.678   4.209
73486W        W34907  25.068  18.121   1.330
73487W        W34908  10.301   5.928   0.436
73488W        W34909   2.802  27.061   0.341
73489W        W34910  32.485  31.484  11.387
73490W        W34911  39.489  27.039  10.916
73491W        W34912  33.395   8.213   3.340
73492W        W34913  17.660  12.674  11.999
73493W        W34914   2.952  15.254  11.889
73494W        W34915  27.682  27.057  12.886
73495W        W34916  31.409  29.642  10.419
73496W        W34917   3.459   8.699  13.514
73497W        W34918  37.921  44.441   1.441
73498W        W34919  34.958  42.842   2.812
73499W        W34920  32.992  12.751  12.888
73500W        W34921  29.492  25.702  11.905
73501W        W34922  22.213  10.254   4.323
73502W        W34923   5.238  41.443   0.791
73503W        W34924  25.212  39.884  12.531
73504W        W34925  12.665  25.696   3.191
73505W        W34926  18.698  31.113  10.147
73506W        W34927  26.185  44.388   3.671
73507W        W34928  22.731  38.834   4.267
73508W        W34929  20.565  39.398  12.962
73509W        W34930  14.242  23.523   3.706
73510W        W34931  14.328  36.459  10.639
73511W        W34932  23.627  18.551  14.027
73512W        W34933  26.029  34.960   0.811
73513W        W34934  41.830   1.450  11.424
73514W        W34935  18.607  32.420   2.331
73515W        W34936  31.983  29.637  10.945
73516W        W34937  20.062  24.054  13.005
73517W        W34938  18.787  39.916  13.536
73518W        W34939  11.292  16.631  11.439
73519W        W34940  35.449   8.283  12.065
73520W        W34941  39.846  10.228  14.952
73521W        W34942  11.348  32.624  14.488
73522W        W34943  23.701  15.263   4.113
73523W        W34944  16.292  15.197  10.560
73524W        W34945  38.502   3.718  14.803
73525W        W34946   7.324   7.288  14.776
73526W        W34947  35.561  25.639  12.487
73527W        W34948  10.649   7.272  12.088
73528W        W34949   1.286  42.362   2.861
73529W        W34950  34.874  10.857  13.038
73530W        W34951  17.074  44.308   0.799
73531W        W34952  12.135   1.830   1.748
73532W        W34953  32.115  32.402   3.720
73533W        W34954   0.488   7.849   2.695
73534W        W34955  17.154   2.804   0.318
73535W        W34956  27.055  14.648   1.250
73536W        W34957  32.018  28.148   3.700
73537W        W34958   0.979   6.199   9.997
73538W        W34959  41.419  26.501   4.689
73539W        W34960   7.773  15.709  13.944
73540W        W34961  20.267  14.736  10.439
73541W        W34962  19.115   3.333   2.345
73542W        W34963  29.974  27.060  10.896
73543W        W34964  13.803  33.389  11.091
73544W        W34965  17.630  23.032  13.534
73545W        W34966  32.588  11.353   3.349
73546W        W34967   0.945  15.689  14.345
73547W        W34968  37.833  25.014  11.923
73548W        W34969   5.807  28.445  11.905
73549W        W34970  22.020  34.093  14.344
73550W        W34971  41.897   9.262  11.953
73551W        W34972  39.928  20.642   3.159
73552W        W34973  27.652  15.642   2.743
73553W        W34974  27.566   2.294  12.844
73554W        W34975  16.222   8.260  13.993
73555W        W34976  34.964  20.567   4.654
73556W        W34977   7.200  10.232  10.559
73557W        W34978  28.108  36.570  14.787
73558W        W34979   3.954   4.337  10.016
73559W        W34980   1.949  12.680  12.470
73560W        W34981   9.189  12.190  10.521
73561W        W34982   6.349  43.817  11.488
73562W        W34983   4.235  13.845   2.332
73563W        W34984   3.753  16.772  11.034
73564W        W34985  12.749  38.501  12.997
73565W        W34986  10.856   8.706   4.818
73566W        W34987  24.705  37.368  13.517
73567W        W34988  32.454  41.888   3.835
73568W        W34989   3.444  38.001   2.235
73569W        W34990   6.869  29.981   1.317
73570W        W34991  22.720  35.920   1.445
73571W        W34992  27.464  23.707  11.433
73572W        W34993  44.851  28.636   0.916
73573W        W34994   1.774   7.227  12.404
73574W        W34995   5.798  40.814  12.873
73575W        W34996   7.905  17.248   1.920
73576W        W34997  37.968  23.220   2.297
73577W        W34998  39.834  31.578   0.931
73578W        W34999  37.027  13.742  10.117
73579W        W35000  23.546  15.292  13.402
73580W        W35001  23.150  41.451  13.359
73581W        W35002  36.852   4.207   1.315
73582W        W35003   6.336  16.259  11.042
73583W        W35004  35.031  34.458  11.858
73584W        W35005   8.168   7.195  10.556
73585W        W35006  11.373  15.706  10.912
73586W        W35007  19.065  32.604   1.868
73587W        W35008  22.168  39.488  12.897
73588W        W35009  26.506  37.350  12.015
73589W        W35010  27.620  40.027  13.923
73590W        W35011  30.618  35.495   2.800
73591W        W35012  15.612  23.201   0.736
73592W        W35013  35.564  31.516   0.479
73593W        W35014  28.171  25.593  11.556
73594W        W35015   0.351   4.901  14.829
73595W        W35016  33.417  23.540  12.980
73596W        W35017  20.243  16.698  11.066
73597W        W35018  25.210  31.960   4.337
73598W        W35019  14.137   0.455  10.028
73599W        W35020   8.860   5.248  13.539
73600W        W35021  16.132  11.725  11.568
73601W        W35022  17.248  29.135   5.153
73602W        W35023  13.752   0.743  11.480
73603W        W35024  38.003  36.582  14.983
73604W        W35025  20.529   2.861  12.007
73605W        W35026  21.583   3.898  12.417
73606W        W35027  20.237   1.770  14.342
73607W        W35028   7.697  12.315  14.907
73608W        W35029  28.109   9.193  12.844
73609W        W35030  17.776   2.801  13.490
73610W        W35031  20.187  20.553   1.699
73611W        W35032  33.117  37.407  14.298
73612W        W35033  35.109   5.915  13.459
73613W        W35034   8.279  12.231   1.226
73614W        W35035  40.867  26.612   3.295
73615W        W35036  15.748  18.253   0.790
73616W        W35037  13.780  43.406   2.680
73617W        W35038  36.510  12.726   0.801
73618W        W35039  16.139  23.657  10.993
73619W        W35040  13.602   6.690  14.435
73620W        W35041   1.249  21.041   2.780
73621W        W35042   9.299  24.197   2.202
73622W        W35043  17.200  42.419  11.553
73623W        W35044   7.812  31.905  11.014
73624W        W35045  10.859   6.923   2.306
73625W        W35046  11.730  36.935   1.869
73626W        W35047  31.898  33.011  11.908
73627W        W35048  24.544  37.910  13.911
73628W        W35049  12.686  32.888  10.441
73629W        W35050  43.390  43.334   3.638
73630W        W35051  24.665  10.738  11.068
73631W        W35052  42.892  15.126   0.368
73632W        W35053   2.767   4.230   3.242
73633W        W35054  26.551  29.049   3.270
73634W        W35055  11.662  44.446  14.452
73635W        W35056  40.391   5.410   2.858
73636W        W35057   7.332  18.292   0.430
73637W        W35058  30.585  22.138  11.863
73638W        W35059  33.025  38.980   2.759
73639W        W35060   5.815  25.083  14.937
73640W        W35061  16.749  14.261  10.147
73641W        W35062   8.394  38.872  10.584
73642W        W35063  28.554  31.102   1.864
73643W        W35064  29.627   6.273  11.452
73644W        W35065  20.124  29.599  11.052
73645W        W35066   1.383  37.560   1.734
73646W        W35067   0.384  34.530  10.612
73647W        W35068  29.919  16.719   3.805
73648W        W35069  10.381  19.228   3.202
73649W        W35070   1.886   6.776   4.203
73650W        W35071  24.616  38.966  12.960
73651W        W35072   3.845  39.811   3.668
73652W        W35073   2.749  26.692  11.434
73653W        W35074  23.557  28.616   3.842
73654W        W35075   7.673  26.013   4.794
73655W        W35076   2.312  22.721   0.322
73656W        W35077  40.962   6.773  14.925
73657W        W35078   7.391  19.636  12.509
73658W        W35079  22.695  39.426   0.802
73659W        W35080   1.769  41.858   1.310
73660W        W35081  12.720  17.678  12.434
73661W        W35082  34.867  42.305  12.884
73662W        W35083   1.362   8.860  10.533
73663W        W35084  25.038  40.909   4.706
73664W        W35085  30.602   1.342   2.375
73665W        W35086  38.914  20.223  12.365
73666W        W35087  42.394  16.219  13.462
73667W        W35088  21.033  29.553  11.602
73668W        W35089  16.242  15.658   2.235
73669W        W35090  37.857  13.154   3.215
73670W        W35091  19.614   1.342   0.943
73671W        W35092  42.348   0.393  14.341
73672W        W35093  20.137   0.325   2.264
73673W        W35094   5.709   5.267   4.278
73674W        W35095  13.142   3.736  14.417
73675W        W35096  14.588  13.271  11.418
73676W        W35097  27.054  30.546  11.500
73677W        W35098  25.550  33.488   3.345
73678W        W35099  23.010  15.703   2.665
73679W        W35100  37.418  22.995   2.688
73680W        W35101  39.390  28.639  12.500
73681W        W35102  37.054   1.835   3.781
73682W        W35103  38.871  21.638   0.936
73683W        W35104  33.427  34.399  12.827
73684W        W35105  13.179  18.547   2.378
73685W        W35106  25.003  30.587  13.416
73686W        W35107  11.249   7.788  14.810
73687W        W35108  23.611  32.009   4.229
73688W        W35109  20.205   1.474  13.489
73689W        W35110  42.963  20.094   4.324
73690W        W35111  25.141  14.159   4.748
73691W        W35112  28.635   5.807  12.429
73692W        W35113  28.993  15.669   3.731
73693W        W35114   6.898   6.842   2.735
73694W        W35115  13.132   1.351  12.036
73695W        W35116   9.698   4.931  10.092
73696W        W35117  11.745  27.058  13.888
73697W        W35118   9.353  36.072   2.672
73698W        W35119  17.744  23.519  12.452
73699W        W35120   7.868   3.891   1.218
73700W        W35121  29.493  37.075   1.326
73701W        W35122  37.515  17.727  12.935
73702W        W35123  33.446  44.292  11.395
73703W        W35124  16.645  18.284  12.980
73704W        W35125  42.000  37.499  11.553
73705W        W35126  31.105   2.278   2.247
73706W        W35127  40.472  13.601  13.954
73707W        W35128  33.487  42.524  13.502
73708W        W35129   4.311   3.412   4.314
73709W        W35130  35.898  14.637  10.535
73710W        W35131   4.396  34.958  13.038
73711W        W35132  12.340   0.967  13.933
73712W        W35133  43.337  42.316  13.998
73713W        W35134  22.075   3.848  10.632
73714W        W35135   3.413   5.781  14.889
73715W        W35136  40.034  23.238  14.328
73716W        W35137   7.852  17.627   1.331
73717W        W35138  18.654  44.005  12.418
73718W        W35139  20.766  10.169  14.841
73719W        W35140   1.910  12.748  10.517
73720W        W35141  23.162  13.137   2.372
73721W        W35142  33.388  15.303   0.891
73722W        W35143   8.871   4.311  14.944
73723W        W35144  39.442  24.633   4.710
73724W        W35145  37.399  14.723  14.842
73725W        W35146  12.684  14.322   1.265
73726W        W35147  19.192  16.194  13.887
73727W        W35148  13.736  22.559  12.516
73728W        W35149   5.855  19.668   0.285
73729W        W35150   8.858  28.488   2.743
73730W        W35151   8.746  22.721  13.993
73731W        W35152  15.817  12.302   9.936
73732W        W35153  39.838  29.042  11.126
73733W        W35154  32.970  13.602  10.418
73734W        W35155  16.190  19.127   0.445
73735W        W35156  27.617  25.699   3.661
73736W        W35157   7.338  27.958   4.783
73737W        W35158  24.996  28.649   2.664
73738W        W35159  10.764  16.706   1.216
73739W        W35160  24.639   7.376   4.131
73740W        W35161   0.928  23.613  14.804
73741W        W35162  33.055   7.677  13.906
73742W        W35163  41.485  37.003  14.933
73743W        W35164  32.460  19.137   4.660
73744W        W35165  37.573  12.191  13.860
73745W        W35166  24.146   4.864   2.876
73746W        W35167  25.644  18.655   0.927
73747W        W35168   8.695  25.061  13.418
73748W        W35169  44.845  22.221   4.714
73749W        W35170  39.334  25.966   1.858
73750W        W35171   5.298  24.545  12.940
73751W        W35172  32.115   6.860   1.800
73752W        W35173  34.047   9.768  10.925
73753W        W35174   7.236  32.533   4.176
73754W        W35175  39.496   6.368   0.731
73755W        W35176   2.417  27.102  12.570
73756W        W35177  17.769  20.601   2.345
73757W        W35178  22.551  31.916  14.510
73758W        W35179  26.125  35.958  11.927
73759W        W35180  41.962  12.187   4.795
73760W        W35181  23.121  43.902  14.797
73761W        W35182  19.549   4.914   0.875
73762W        W35183  36.390   8.230  11.917
73763W        W35184  11.766  32.474  13.026
73764W        W35185  25.175  34.377   3.869
73765W        W35186  25.665  22.618   3.791
73766W        W35187   9.710   1.248   3.278
73767W        W35188  33.399  11.137   4.120
73768W        W35189  17.628   9.148   3.790
73769W        W35190  43.501   8.205   1.768
73770W        W35191  23.002  32.986   1.379
73771W        W35192  15.689   7.387  10.493
73772W        W35193  35.451  32.937  10.973
73773W        W35194   8.275  35.074  13.873
73774W        W35195  27.062  13.603   2.731
73775W        W35196   6.739  19.650   4.193
73776W        W35197  33.982  43.820  14.511
73777W        W35198  43.404   0.960   3.273
73778W        W35199  36.586  41.523  11.513
73779W        W35200  44.312   9.864   4.232
73780W        W35201  35.981  35.475   3.262
73781W        W35202  25.044  13.154  12.032
73782W        W35203  34.515  43.851  14.498
73783W        W35204  37.399  20.567  13.530
73784W        W35205   2.962  22.120  14.485
73785W        W35206  10.218   0.878  11.395
73786W        W35207  22.099  18.735   3.268
73787W        W35208   8.298  37.468  13.996
73788W        W35209   6.785  37.363  10.560
73789W        W35210  11.133   2.760   0.356
73790W        W35211  10.654  18.573   2.367
73791W        W35212  36.478   1.410   1.842
73792W        W35213  28.140   3.327  14.512
73793W        W35214  18.191  29.932   0.892
73794W        W35215  12.347  35.511  10.987
73795W        W35216   1.967  18.274  14.907
73796W        W35217  38.485  30.526  14.370
73797W        W35218  39.539  13.655  11.384
73798W        W35219   6.328  32.411  12.435
73799W        W35220  37.458  13.329  14.764
73800W        W35221  12.671  27.638   4.150
73801W        W35222   7.867  22.075   1.786
73802W        W35223  29.437  21.252   2.872
73803W        W35224  16.089  10.776  13.512
73804W        W35225  40.976  26.569  13.801
73805W        W35226   1.871  24.127   1.443
73806W        W35227   3.258   5.215   4.257
73807W        W35228  42.513  44.878   4.277
73808W        W35229  26.072   6.693  12.470
73809W        W35230  42.029  11.329   3.643
73810W        W35231  34.075   4.380  14.778
73811W        W35232   5.282  42.510   1.809
73812W        W35233  33.618  21.532  11.894
73813W        W35234  11.705   2.944   0.939
73814W        W35235  31.436  10.671   4.827
73815W        W35236  38.986  42.900  14.499
73816W        W35237   5.934  22.056  11.608
73817W        W35238   1.246  13.152  13.870
73818W        W35239  33.069  43.833   2.885
73819W        W35240   2.320  17.676  12.058
73820W        W35241  30.487  42.422  13.525
73821W        W35242  31.612  39.967   2.820
73822W        W35243  14.122   9.699   3.810
73823W        W35244  11.336   8.256   4.221
73824W        W35245  25.489  33.918  13.959
73825W        W35246  21.035  12.707   4.188
73826W        W35247  19.130   4.940   1.434
73827W        W35248  31.483  41.307  12.063
73828W        W35249   2.357  33.527  10.158
73829W        W35250  36.543  34.001  13.823
73830W        W35251  26.038  16.735  14.774
73831W        W35252  42.342   8.900  14.840
73832W        W35253  37.961  12.778   1.730
73833W        W35254   2.747  28.044   4.675
73834W        W35255  28.667  38.851  13.507
73835W        W35256  20.537  30.497  14.334
73836W        W35257  17.106   5.842   1.254
73837W        W35258  32.561  27.007   3.751
73838W        W35259  31.485  31.479   2.388
73839W        W35260  33.019  40.053   4.217
73840W        W35261  24.691  19.624  11.010
73841W        W35262  44.938  35.083   4.755
73842W        W35263  27.547  25.088   4.297
73843W        W35264  26.572  31.594   3.199
73844W        W35265  40.492  16.584  12.352
73845W        W35266   2.936  43.902   1.333
73846W        W35267  17.766  29.077   2.282
73847W        W35268   2.804  16.567   1.922
73848W        W35269  38.345   6.244   1.305
73849W        W35270  15.175  20.164  14.417
73850W        W35271  39.378  12.814  14.358
73851W        W35272   0.921  31.454   2.288
73852W        W35273   9.674  13.188   3.277
73853W        W35274  36.851  39.509  14.825
73854W        W35275  34.011  21.046   1.434
73855W        W35276   7.847  42.301   3.839
73856W        W35277   1.463  29.994   3.196
73857W        W35278  28.552  10.805   9.969
73858W        W35279  38.044  31.988   1.894
73859W        W35280  28.982  34.396  13.939
73860W        W35281  16.089   6.312   1.430
73861W        W35282  35.965  44.825   2.226
73862W        W35283  24.603  30.083   1.303
73863W        W35284  13.338  14.625   4.348
73864W        W35285  40.422  42.298  11.013
73865W        W35286   1.931  33.566   1.709
73866W        W35287  37.567   1.937   3.205
73867W        W35288   4.934  42.942   0.265
73868W        W35289  38.506  34.571   1.348
73869W        W35290  42.995   3.248   1.261
73870W        W35291  17.073  30.569   9.497
73871W        W35292  21.105  33.395  14.335
73872W        W35293  26.597   6.314  10.547
73873W        W35294   7.778  12.775  11.445
73874W        W35295  17.290  41.439  14.884
73875W        W35296  30.610   2.259   1.795
73876W        W35297  43.332  43.947   2.806
73877W        W35298   1.402  14.819   2.861
73878W        W35299   8.684  39.440  12.425
73879W        W35300   4.373  30.933   4.723
73880W        W35301  36.987   3.391   3.268
73881W        W35302  23.984  17.787   3.205
73882W        W35303   4.902   8.791   1.702
73883W        W35304  43.873  12.185  10.901
73884W        W35305  37.375  35.491  10.645
73885W        W35306   8.180  39.038   0.737
73886W        W35307   1.404   3.337   4.155
73887W        W35308  39.382  21.740   4.637
73888W        W35309   0.257  16.204   3.186
73889W        W35310  42.364   0.334  14.810
73890W        W35311  16.101  39.485  13.456
73891W        W35312   7.828   1.336  12.552
73892W        W35313  11.683  21.668   1.701
73893W        W35314   6.187   0.262   1.329
73894W        W35315  13.731  15.134   2.680
73895W        W35316  44.330  35.583   3.700
73896W        W35317  33.570  24.228   9.944
73897W        W35318  39.971  44.895   1.377
73898W        W35319   2.799  29.605   0.894
73899W        W35320  16.659  44.941   4.232
73900W        W35321   2.261  18.761  13.342
73901W        W35322  22.088  36.553  14.355
73902W        W35323  22.097   1.459   0.855
73903W        W35324  17.585   5.310  12.055
73904W        W35325  38.068  39.934  11.075
73905W        W35326  23.707  42.031   1.884
73906W        W35327  29.045  15.195  14.363
73907W        W35328  38.960  28.041  13.906
73908W        W35329  33.436  34.935   1.285
73909W        W35330  37.925  25.207   0.801
73910W        W35331  32.547  25.616  10.637
73911W        W35332  44.485  20.542  11.855
73912W        W35333  35.526  43.283   0.244
73913W        W35334  11.199  24.671   1.825
73914W        W35335   7.227  33.053  11.509
73915W        W35336  17.687  21.042   0.929
73916W        W35337  43.854  25.158   0.429
73917W        W35338   6.809  15.318  12.892
73918W        W35339  14.208  23.086   3.787
73919W        W35340  35.009  28.092  14.358
73920W        W35341  28.958  27.063  10.917
73921W        W35342   3.401  36.013  11.387
73922W        W35343   9.714  23.047   3.371
73923W        W35344   5.291  44.437  14.348
73924W        W35345  26.175  41.996  12.845
73925W        W35346  10.198  11.173   1.790
73926W        W35347  10.284  17.140  11.124
73927W        W35348   8.164   0.481  14.449
73928W        W35349   3.934  43.504  12.510
73929W        W35350  11.360  40.831  14.927
73930W        W35351  40.954  37.341   2.817
73931W        W35352  31.430  25.094  12.944
73932W        W35353  30.149  28.511  11.505
73933W        W35354  25.971  21.032   3.150
73934W        W35355   9.847  30.044  14.801
73935W        W35356  37.067  29.996   3.646
73936W        W35357  34.538  42.780   1.716
73937W        W35358  41.921  44.887  14.863
73938W        W35359  27.667  39.325   3.812
73939W        W35360   6.720  21.152  12.077
73940W        W35361   3.758  12.202  13.950
73941W        W35362  21.705  21.591  14.314
73942W        W35363  15.703  23.102   3.710
73943W        W35364  40.504  17.691   3.755
73944W        W35365  31.952  14.227   1.694
73945W        W35366  16.252  34.034  10.071
73946W        W35367  31.973   3.411   2.843
73947W        W35368  37.061   9.747   2.883
73948W        W35369   6.685  22.097   0.479
73949W        W35370   5.843  41.354   4.643
73950W        W35371  18.712   5.932   3.183
73951W        W35372  32.927  31.117   2.383
73952W        W35373  44.332  25.677   1.741
73953W        W35374  44.871  40.054   3.663
73954W        W35375   5.244  44.326   4.663
73955W        W35376  19.751  24.208  11.902
73956W        W35377   0.785  21.756   0.941
73957W        W35378  22.109  27.588  13.339
73958W        W35379  35.996  17.114  12.908
73959W        W35380  23.173   0.346   3.789
73960W        W35381  40.500  33.605  12.027
73961W        W35382  40.870   2.409   4.746
73962W        W35383  44.883  14.115  13.338
73963W        W35384  31.565  35.887   0.250
73964W        W35385  13.257  32.930  12.007
73965W        W35386  14.809  40.832  11.612
73966W        W35387  30.617  16.258  11.377
73967W        W35388  21.657  40.408  13.974
73968W        W35389  21.645  31.440  11.007
73969W        W35390  22.552   9.858   0.819
73970W        W35391  29.442  43.998  14.004
73971W        W35392  29.151   2.901  10.939
73972W        W35393  30.936   0.254  10.539
73973W        W35394  44.918  35.459  11.432
73974W        W35395  24.666   3.728  10.936
73975W        W35396  17.597  35.864  11.525
73976W        W35397  12.628  21.603   2.755
73977W        W35398  33.060  31.911  14.885
73978W        W35399  13.760  11.223  10.946
73979W        W35400  16.681  40.472   1.217
73980W        W35401   3.871  38.060   4.701
73981W        W35402  43.901  17.137   3.210
73982W        W35403  20.533  38.404   3.809
73983W        W35404  38.396  20.096  10.987
73984W        W35405   0.261  24.129   1.783
73985W        W35406  38.058  13.348   4.693
73986W        W35407   0.321   0.939   4.265
73987W        W35408  40.524  21.088  14.419
73988W        W35409  35.043  29.077   3.267
73989W        W35410  16.619   5.305   1.372
73990W        W35411  38.850  18.609   2.386
73991W        W35412  20.054  33.564  10.936
73992W        W35413  34.940  39.821   0.943
73993W        W35414  11.673  23.501  12.426
73994W        W35415  24.128  14.309   1.767
73995W        W35416   9.369   0.275   1.226
73996W        W35417  29.943   3.876   3.273
73997W        W35418  37.368  20.650   0.455
73998W        W35419   1.870  30.446   0.407
73999W        W35420  17.728  34.497   4.183
74000W        W35421  14.830  26.493  13.456
74001W        W35422   5.726   9.311   1.322
74002W        W35423  26.572  15.264  14.015
74003W        W35424  18.058  27.458  12.011
74004W        W35425  27.521  21.181  13.809
74005W        W35426  30.622  42.835  10.009
74006W        W35427  38.948  31.620   2.744
74007W        W35428  27.141   4.295  11.424
74008W        W35429  38.428  10.308   0.287
74009W        W35430  11.264   1.313   2.206
74010W        W35431  16.682  17.196   2.405
74011W        W35432  26.481  28.034  13.458
74012W        W35433  27.977  25.096  10.102
74013W        W35434  42.424  15.753  12.360
74014W        W35435  24.229  31.474  12.462
74015W        W35436  25.626  25.523   3.291
74016W        W35437  16.764  28.568   1.212
74017W        W35438  36.055   7.305  12.448
74018W        W35439  11.764  13.730  13.840
74019W        W35440  28.051  10.720   1.229
74020W        W35441  15.775  34.459   2.898
74021W        W35442   7.356  42.488   1.798
74022W        W35443  10.170  37.080   3.366
74023W        W35444  20.113  35.040  12.428
74024W        W35445  17.568  17.157  13.996
74025W        W35446  12.653  14.176  14.327
74026W        W35447  39.857  14.287  13.908
74027W        W35448  35.027   4.901  10.079
74028W        W35449   4.841  12.611  14.901
74029W        W35450  21.173   5.768  14.798
74030W        W35451  35.384  35.970  13.812
74031W        W35452  29.424  41.035   1.446
74032W        W35453  29.028   8.245  13.326
74033W        W35454  34.892   3.280   1.698
74034W        W35455  26.519  28.573   4.182
74035W        W35456  29.942  43.485   3.289
74036W        W35457  44.404  24.147   1.380
74037W        W35458  33.555  15.236  13.816
74038W        W35459  28.078  31.970   4.217
74039W        W35460   0.789  21.550  12.002
74040W        W35461   0.440  30.108   2.806
74041W        W35462  39.863  14.321  12.522
74042W        W35463  14.330   4.848  13.310
74043W        W35464  27.683   1.275  11.569
74044W        W35465  36.067  24.702   4.290
74045W        W35466  43.932   5.853  14.278
74046W        W35467   7.908  18.167  10.407
74047W        W35468  16.218  36.847   2.681
74048W        W35469  35.060   6.904   1.338
74049W        W35470   9.705  20.677  10.557
74050W        W35471  42.853  17.210   3.149
74051W        W35472   7.725  13.345   2.807
74052W        W35473  10.251  17.711  14.484
74053W        W35474  16.216  21.642   0.863
74054W        W35475  37.016  30.937   0.804
74055W        W35476  33.553  13.630   2.416
74056W        W35477  42.975  17.191  12.388
74057W        W35478  22.012  20.212   1.900
74058W        W35479   4.881  20.530   0.479
74059W        W35480  33.131  37.941  14.407
74060W        W35481  41.993  10.321   3.853
74061W        W35482  23.001  15.737  14.972
74062W        W35483   2.962   5.737   2.226
74063W        W35484  14.710  23.146  11.610
74064W        W35485  29.017   4.379  12.458
74065W        W35486  14.608  24.211  14.371
74066W        W35487  14.664  18.161  12.924
74067W        W35488  33.022  38.988  13.526
74068W        W35489   6.251  11.144  12.069
74069W        W35490  17.187  34.572   0.336
74070W        W35491  13.810  11.858   0.455
74071W        W35492  13.221   0.752   3.816
74072W        W35493  38.505  23.584  12.410
74073W        W35494   3.267  12.628  12.961
74074W        W35495  27.982  18.640   3.324
74075W        W35496  34.568   5.893   0.259
74076W        W35497  40.954  41.315   0.475
74077W        W35498  31.470  41.906  12.982
74078W        W35499   9.323  27.018   3.818
74079W        W35500  40.986  13.208   0.354
74080W        W35501  37.991  21.034  12.029
74081W        W35502  40.393  37.434   2.778
74082W        W35503  37.039  27.947   0.296
74083W        W35504   4.388  24.123  12.846
74084W        W35505  23.011  15.245  12.053
74085W        W35506   8.163   8.314   0.345
74086W        W35507   2.383  16.109   3.200
74087W        W35508  43.516   7.821  11.974
74088W        W35509   7.715  33.403  14.913
74089W        W35510  11.298  17.676   4.290
74090W        W35511  14.292  37.501  14.778
74091W        W35512   3.313  30.472  12.905
74092W        W35513  34.946  26.664   1.225
74093W        W35514   9.309  18.636  12.860
74094W        W35515  11.298  15.756  13.911
74095W        W35516  20.701   2.326  14.816
74096W        W35517  10.173  38.415   9.521
74097W        W35518  31.483  16.578   9.626
74098W        W35519  11.839  30.430  14.387
74099W        W35520  18.668  14.732   0.756
74100W        W35521   4.884  27.072   3.242
74101W        W35522  31.484  30.930   0.434
74102W        W35523  32.058  19.538   3.241
74103W        W35524  37.833  13.339  10.467
74104W        W35525  34.550  26.206  13.815
74105W        W35526  23.045  15.123   2.384
74106W        W35527  12.816  29.097   9.984
74107W        W35528  33.028  27.498  12.958
74108W        W35529   1.335  25.665  13.544
74109W        W35530  31.638  33.577   3.688
74110W        W35531  35.885   1.277  10.636
74111W        W35532   9.351   3.838   3.787
74112W        W35533  17.608   7.910  14.809
74113W        W35534  18.106  36.437   0.727
74114W        W35535  25.566   1.268   3.324
74115W        W35536   9.381   2.322  11.075
74116W        W35537  16.167  12.211  13.048
74117W        W35538   1.886  28.577  10.928
74118W        W35539  29.640  24.224   0.476
74119W        W35540  33.451  36.960   0.463
74120W        W35541  26.125  16.790  12.978
74121W        W35542  37.877  32.430  12.386
74122W        W35543  33.976  18.186  12.868
74123W        W35544  19.219  28.185  11.869
74124W        W35545  37.508  43.296   0.362
74125W        W35546   4.294  20.165  12.056
74126W        W35547  31.456  19.236  12.405
74127W        W35548   6.683  15.216  12.033
74128W        W35549  21.223  18.713   1.376
74129W        W35550   3.281  19.593  14.878
74130W        W35551   8.240  11.778  12.384
74131W        W35552   3.260   7.410  10.547
74132W        W35553  39.854  28.053  14.362
74133W        W35554   5.385  44.832   1.364
74134W        W35555  31.591  28.609  13.860
74135W        W35556  13.332  30.644   2.210
74136W        W35557  41.871  32.981   1.818
74137W        W35558  25.650  21.148   9.988
74138W        W35559  16.183  16.602   4.300
74139W        W35560  34.600   3.953   0.242
74140W        W35561  13.773  11.321   1.222
74141W        W35562  19.080  40.005   1.440
74142W        W35563  35.464   9.182   1.790
74143W        W35564   7.818  36.490   4.305
74144W        W35565  17.093   4.390  10.899
74145W        W35566  33.071  30.520   0.431
74146W        W35567  15.596  35.954  13.419
74147W        W35568  10.719   5.360  14.937
74148W        W35569  24.712   9.315   0.328
74149W        W35570  19.276  44.319   0.451
74150W        W35571  39.411  23.635  12.471
74151W        W35572  41.319  26.121  12.022
74152W        W35573  34.037  27.940   9.924
74153W        W35574  44.332  13.139   0.852
74154W        W35575  10.872   1.914  14.862
74155W        W35576  19.676  33.084  12.052
74156W        W35577  18.055  10.281  12.887
74157W        W35578  18.274  32.521   2.329
74158W        W35579  32.407  31.063  12.551
74159W        W35580  22.517  20.164   4.670
74160W        W35581  38.010  39.977   4.295
74161W        W35582  31.117  44.398   1.864
74162W        W35583  21.166   8.742  10.063
74163W        W35584  35.414   5.391  14.944
74164W        W35585  33.079   6.901  13.020
74165W        W35586  32.022  18.748  11.067
74166W        W35587  34.435   6.208   5.314
74167W        W35588  27.594  43.460   1.417
74168W        W35589  34.959  28.661   0.247
74169W        W35590  22.543  33.535  14.936
74170W        W35591  22.015  20.207  13.515
74171W        W35592  33.045  43.914  11.546
74172W        W35593  19.692   0.438  12.496
74173W        W35594  27.023  23.020   4.638
74174W        W35595  44.826  21.104  12.388
74175W        W35596  15.258  23.016  13.331
74176W        W35597   9.836  12.340  14.785
74177W        W35598  35.904  25.537  10.637
74178W        W35599  43.366  20.144  14.410
74179W        W35600  34.096  19.110   0.326
74180W        W35601   4.717  35.003   1.316
74181W        W35602   6.908  23.165  13.443
74182W        W35603  10.834  35.449  10.966
74183W        W35604  17.781   7.677   0.770
74184W        W35605  23.048   7.804   1.783
74185W        W35606  44.332  27.180   0.265
74186W        W35607  33.952  40.036  12.448
74187W        W35608   5.721  38.515   0.441
74188W        W35609  13.702  22.184  11.548
74189W        W35610  11.672  21.254  13.968
74190W        W35611  20.532  43.387   2.334
74191W        W35612  25.192   8.840  12.560
74192W        W35613  16.118  12.166   1.764
74193W        W35614  20.745  44.901   2.696
74194W        W35615  10.327  44.826  13.340
74195W        W35616  44.812  34.030   1.316
74196W        W35617  10.841  27.640   4.344
74197W        W35618  21.590  18.788  14.836
74198W        W35619  43.811  29.959   4.327
74199W        W35620   3.443  12.792   4.126
74200W        W35621  30.560  27.175  10.467
74201W        W35622   2.874  33.920   9.985
74202W        W35623   6.914  25.197  13.054
74203W        W35624  32.590   5.255  14.927
74204W        W35625  40.480   4.759   3.639
74205W        W35626  25.681  35.415   1.827
74206W        W35627  35.582  32.123   0.830
74207W        W35628  23.108   6.782   1.785
74208W        W35629  38.036  38.996  12.542
74209W        W35630  32.516  17.660  11.875
74210W        W35631  21.048  23.728  10.515
74211W        W35632  14.733  40.475  10.039
74212W        W35633  23.524  24.662  13.063
74213W        W35634   4.838  21.746   0.374
74214W        W35635  25.469   4.911   4.117
74215W        W35636  13.663   3.311   4.835
74216W        W35637  35.913   4.852  13.466
74217W        W35638  29.152  15.781   2.723
74218W        W35639  41.844  38.820   0.888
74219W        W35640  39.538  33.417   4.155
74220W        W35641  36.515  13.156   4.197
74221W        W35642   8.198  27.068   0.288
74222W        W35643  22.039   9.186  12.448
74223W        W35644  17.798  14.724   1.433
74224W        W35645  17.090  10.702  10.454
74225W        W35646  27.146   8.347  12.351
74226W        W35647  18.782  30.982   2.183
74227W        W35648   7.668  31.908   1.314
74228W        W35649   2.808  42.955  12.068
74229W        W35650   1.812  20.628  13.945
74230W        W35651  20.527  38.035   2.797
74231W        W35652  32.933   5.393  10.568
74232W        W35653  16.720  36.031  10.944
74233W        W35654  35.943   8.311  14.372
74234W        W35655  44.888  38.517  12.071
74235W        W35656  13.657  29.959  13.410
74236W        W35657  22.084  24.988   1.220
74237W        W35658  42.874   9.242   2.801
74238W        W35659  44.887   5.334  10.590
74239W        W35660  11.676  43.797  11.009
74240W        W35661  15.751  24.049  13.471
74241W        W35662   6.242  23.509  10.893
74242W        W35663  30.586  38.821  14.909
74243W        W35664   6.683  14.772  11.027
74244W        W35665  28.467  38.958   4.209
74245W        W35666  36.505   9.304  11.995
74246W        W35667  39.369  19.665  12.975
74247W        W35668   9.223  17.132  13.805
74248W        W35669  42.286  18.053  12.379
74249W        W35670   2.771  26.577  12.375
74250W        W35671  18.628  37.513  13.058
74251W        W35672  14.799  35.852   0.902
74252W        W35673  19.187  12.357   1.845
74253W        W35674  10.787  42.794  14.018
74254W        W35675  18.659  29.478   1.862
74255W        W35676  27.625  18.781  13.004
74256W        W35677  41.315   6.921   3.233
74257W        W35678   2.872   0.412  12.035
74258W        W35679  36.387   7.850   2.880
74259W        W35680  35.474  34.082  13.368
74260W        W35681  23.165  27.003   3.677
74261W        W35682  12.156   9.342  14.920
74262W        W35683  19.131   7.825  10.638
74263W        W35684  29.506   2.843   3.268
74264W        W35685   2.274   1.915   1.694
74265W        W35686  36.902  13.656   2.408
74266W        W35687  35.983  43.359  11.068
74267W        W35688   1.839  30.979   2.789
74268W        W35689  22.160  25.137  11.895
74269W        W35690  40.826  26.639   2.782
74270W        W35691  34.526  41.441   4.296
74271W        W35692  39.982  28.091  10.566
74272W        W35693  17.186  23.007  11.872
74273W        W35694  31.092  40.878  11.997
74274W        W35695  10.311  28.137   1.819
74275W        W35696   0.852  17.130   4.204
74276W        W35697  14.710  25.649  14.507
74277W        W35698  10.200  42.358  14.421
74278W        W35699  33.923   9.733  14.965
74279W        W35700  14.715  20.604   2.854
74280W        W35701  35.553   3.715  14.906
74281W        W35702  34.933  21.705  14.287
74282W        W35703   2.424   7.258  14.988
74283W        W35704   5.264  11.649  14.451
74284W        W35705  40.528   3.938   1.856
74285W        W35706  11.138  30.120   1.409
74286W        W35707  31.404  10.206  11.006
74287W        W35708  23.670   2.768  13.458
74288W        W35709  29.658  34.435   2.706
74289W        W35710   6.335  44.864  10.001
74290W        W35711  28.963  41.331   4.296
74291W        W35712  18.178  17.125   2.218
74292W        W35713  38.035  34.980   0.401
74293W        W35714  31.916  33.543  13.389
74294W        W35715  36.367   8.859   3.826
74295W        W35716  39.979   8.700   1.368
74296W        W35717   7.852   8.704   4.838
74297W        W35718   5.324  25.693   2.215
74298W        W35719  13.682  28.606  10.427
74299W        W35720  44.866  20.103  13.509
74300W        W35721  33.411  38.456  11.483
74301W        W35722   8.896   5.369  14.817
74302W        W35723   9.366  41.978   0.392
74303W        W35724  22.110   4.330  13.926
74304W        W35725   9.672  36.979   0.822
74305W        W35726  23.062  23.076  13.495
74306W        W35727  20.058  21.021  13.544
74307W        W35728   8.797  23.151   4.283
74308W        W35729  20.571  44.992   2.295
74309W        W35730  34.504  30.470  13.060
74310W        W35731  16.633  10.684  13.448
74311W        W35732  40.312  27.493   2.762
74312W        W35733  30.423   5.348  10.463
74313W        W35734  30.456  33.625   1.408
74314W        W35735  36.590  14.326   3.794
74315W        W35736  11.170  33.022  12.012
74316W        W35737  21.601  16.297  13.506
74317W        W35738  41.529  40.365  10.494
74318W        W35739   2.343  13.217  10.545
74319W        W35740   7.765  23.653  12.488
74320W        W35741  43.963  29.943   1.821
74321W        W35742  32.069   9.836   0.303
74322W        W35743  36.961  24.041   1.931
74323W        W35744  36.084  29.520  14.381
74324W        W35745  34.388  44.969   1.802
74325W        W35746  41.879   7.263   4.689
74326W        W35747  44.820  28.523  14.351
74327W        W35748   5.853  39.891   4.220
74328W        W35749  30.929  18.099   2.410
74329W        W35750  33.113  20.115  14.472
74330W        W35751  33.571  32.607  13.892
74331W        W35752  26.072  38.047  14.353
74332W        W35753  21.614  30.571  10.567
74333W        W35754  14.249  21.545   2.677
74334W        W35755  28.181  30.652  13.522
74335W        W35756  17.101  41.848  14.289
74336W        W35757   4.759   2.937   1.862
74337W        W35758   2.778  41.462   1.240
74338W        W35759   3.736  19.252   3.812
74339W        W35760  21.255  41.853  10.486
74340W        W35761  19.729   5.265   5.260
74341W        W35762  14.675  26.672  13.033
74342W        W35763  20.200  38.485  13.320
74343W        W35764   6.914  20.227   0.906
74344W        W35765  34.473  29.449  13.376
74345W        W35766  37.868  35.003  12.870
74346W        W35767  18.279   5.220   2.391
74347W        W35768  32.431  30.150  11.501
74348W        W35769  14.692   1.924   3.362
74349W        W35770  19.198  28.455  11.921
74350W        W35771  17.234  13.656  12.372
74351W        W35772  26.535  10.644   0.824
74352W        W35773  42.504  42.434   2.739
74353W        W35774  37.870   3.229  14.800
74354W        W35775  14.717  33.958  10.423
74355W        W35776  24.488  25.976   3.324
74356W        W35777  22.558   7.848  12.558
74357W        W35778   8.732  28.084   4.605
74358W        W35779  25.533  21.209   0.403
74359W        W35780  30.648  25.479   1.797
74360W        W35781  16.085  18.060   4.152
74361W        W35782  33.927  39.417  11.416
74362W        W35783   7.682   2.852  14.929
74363W        W35784   9.368  19.201  13.333
74364W        W35785   7.683  16.248   3.353
74365W        W35786  31.966  44.761   4.609
74366W        W35787  20.660  41.952   3.651
74367W        W35788  20.223  43.965  13.047
74368W        W35789   0.356  44.941   0.957
74369W        W35790  44.887  40.372  14.021
74370W        W35791  34.870   8.371  14.325
74371W        W35792   1.410  36.914  10.554
74372W        W35793   4.782  14.202   0.941
74373W        W35794  25.569   0.351  12.045
74374W        W35795   8.359   5.415  11.087
74375W        W35796  34.396   6.334   4.170
74376W        W35797  14.829  22.143  12.095
74377W        W35798   9.787   5.215   0.366
74378W        W35799   2.880  10.306  14.809
74379W        W35800  35.952   3.238  11.421
74380W        W35801  28.066  20.196  13.057
74381W        W35802  44.913  32.535   1.897
74382W        W35803  43.955  15.313   0.390
74383W        W35804  36.426  39.982  12.363
74384W        W35805  31.942   5.317   3.222
74385W        W35806  38.971   2.819   4.153
74386W        W35807  21.244   3.866   2.734
74387W        W35808   0.489  24.141  10.513
74388W        W35809   6.825  39.937  12.961
74389W        W35810  24.705  26.494   0.284
74390W        W35811   4.894   3.295   2.200
74391W        W35812  18.652  20.619   2.286
74392W        W35813  24.070  12.776  14.990
74393W        W35814  40.905  34.980   0.279
74394W        W35815   7.262  41.010   1.844
74395W        W35816  19.044  39.034  11.049
74396W        W35817  39.553  28.003  14.784
74397W        W35818  44.943  10.807  12.536
74398W        W35819  39.395  40.460  14.896
74399W        W35820  23.567   5.413   2.322
74400W        W35821  30.097   0.975  13.915
74401W        W35822  31.543  39.910  11.570
74402W        W35823  36.489  42.512   4.835
74403W        W35824   9.313  37.517  14.836
74404W        W35825  27.668  43.904  13.440
74405W        W35826  39.932  44.977   4.162
74406W        W35827  18.559  42.958  11.126
74407W        W35828  37.550  15.277   3.635
74408W        W35829   7.707  37.395  13.482
74409W        W35830  25.563   2.320  12.444
74410W        W35831  28.934   3.837   2.764
74411W        W35832  39.446   0.755   3.687
74412W        W35833  10.780  44.503  12.931
74413W        W35834  37.902  38.955  10.136
74414W        W35835   7.286  41.397  13.877
74415W        W35836  38.888  24.610  13.403
74416W        W35837  15.693   9.664   1.377
74417W        W35838  19.234  40.440  13.454
74418W        W35839   6.920  37.531   4.726
74419W        W35840  32.056  34.537   9.948
74420W        W35841  43.951   0.761  11.544
74421W        W35842   5.312  22.149   4.279
74422W        W35843  20.073  32.424   4.687
74423W        W35844  36.580  29.515  14.886
74424W        W35845   0.415   8.200  11.533
74425W        W35846  24.491   2.320  14.935
74426W        W35847  16.634  40.378   2.386
74427W        W35848  16.310  37.524   2.825
74428W        W35849  43.412   7.693  13.978
74429W        W35850   2.424  43.478  11.403
74430W        W35851   4.277  32.909  11.953
74431W        W35852  44.946  43.278   3.259
74432W        W35853  31.897  20.621  10.472
74433W        W35854  37.454   0.924   2.184
74434W        W35855  42.842  15.582  11.526
74435W        W35856   5.828  13.732   3.247
74436W        W35857  34.410  12.128   1.847
74437W        W35858   1.333   6.739   2.207
74438W        W35859  16.179  31.531   2.852
74439W        W35860   4.734   7.809  13.395
74440W        W35861  34.600  36.435  14.314
74441W        W35862  37.352  26.616  12.875
74442W        W35863  14.785  39.506  11.085
74443W        W35864  11.748  42.020  14.951
74444W        W35865  29.001   8.770  13.022
74445W        W35866  31.016  16.792  13.809
74446W        W35867  29.961   7.208  11.422
74447W        W35868  22.059  35.888   0.906
74448W        W35869  28.151  44.374   1.246
74449W        W35870   7.356  43.491  14.441
74450W        W35871  38.470  36.562   2.769
74451W        W35872  39.370   0.318   4.684
74452W        W35873  21.076   5.928   3.687
74453W        W35874   8.248  27.189  11.574
74454W        W35875  17.200   8.816   4.829
74455W        W35876  26.537   4.236   0.345
74456W        W35877  11.654  10.139  13.497
74457W        W35878  40.541  13.319   0.466
74458W        W35879   6.839  37.969   2.821
74459W        W35880  36.402  23.986   4.770
74460W        W35881  28.047  16.089   0.837
74461W        W35882   8.725  36.007   1.272
74462W        W35883   8.374   1.899  12.976
74463W        W35884  10.869  16.798   0.304
74464W        W35885  13.197  21.134   4.294
74465W        W35886   0.917   1.974  12.058
74466W        W35887  16.766   5.301  14.910
74467W        W35888   6.710  24.158   1.842
74468W        W35889  31.958  10.382   0.445
74469W        W35890  25.045  20.254   4.246
74470W        W35891  28.069  34.584   4.188
74471W        W35892  37.480  27.670  10.463
74472W        W35893  21.077   5.795  11.982
74473W        W35894  30.566  29.034   4.211
74474W        W35895  34.892  18.261   0.872
74475W        W35896   9.682  25.599   0.342
74476W        W35897  36.492  25.001  10.046
74477W        W35898  30.987   6.232   9.974
74478W        W35899  18.713  42.872  11.480
74479W        W35900  36.081  16.606  11.946
74480W        W35901  27.944  44.955   4.205
74481W        W35902   0.965  27.491  11.597
74482W        W35903  11.759  27.040   1.907
74483W        W35904  18.555  21.700   2.196
74484W        W35905  25.962  37.840   1.713
74485W        W35906  15.241  36.918  13.378
74486W        W35907  18.163   3.432  11.958
74487W        W35908  28.015  28.154   4.714
74488W        W35909  33.482  35.951  12.978
74489W        W35910  33.121  41.017   3.691
74490W        W35911  30.932  40.537  11.078
74491W        W35912  31.091  15.310  14.851
74492W        W35913  29.638  20.269  12.978
74493W        W35914   0.755  10.274  13.498
74494W        W35915  44.799  28.629   2.331
74495W        W35916  18.661  15.643  12.433
74496W        W35917  33.505  36.029   4.651
74497W        W35918  24.105  39.028   1.866
74498W        W35919  12.123  41.473  12.075
74499W        W35920   3.351  41.343   3.355
74500W        W35921  20.161  13.269   2.804
74501W        W35922  26.659   4.257   1.425
74502W        W35923  25.058  34.070  12.383
74503W        W35924   1.967  30.472  12.090
74504W        W35925  31.612  43.788   1.266
74505W        W35926  31.617  26.558  14.904
74506W        W35927  18.587  34.074  12.079
74507W        W35928  44.768   0.887   3.773
74508W        W35929  17.139  32.123   2.856
74509W        W35930   2.920  40.803   2.333
74510W        W35931  15.815  19.645  14.761
74511W        W35932  34.002  26.646  10.581
74512W        W35933  33.007  33.443   0.739
74513W        W35934  16.091  26.050  14.766
74514W        W35935  28.055  11.758  11.496
74515W        W35936  27.606  22.135   0.737
74516W        W35937  10.174   2.797   1.337
74517W        W35938  19.282  20.542   4.317
74518W        W35939  39.017  26.030   9.950
74519W        W35940   6.357  44.453   5.220
74520W        W35941  28.121   6.888   1.878
74521W        W35942  14.680   1.800  13.910
74522W        W35943   5.439  15.263   4.641
74523W        W35944  43.393  43.903  12.071
74524W        W35945   5.869   5.291   2.321
74525W        W35946  16.216  11.309  14.015
74526W        W35947  15.751  20.562  12.434
74527W        W35948   8.654  42.948  11.053
74528W        W35949   0.827   1.455  12.489
74529W        W35950  42.976  41.945  14.323
74530W        W35951  28.574  15.141   2.784
74531W        W35952  23.568  11.725   3.179
74532W        W35953  20.147  18.752  11.516
74533W        W35954  31.550  34.590  13.368
74534W        W35955  11.280  27.671   2.903
74535W        W35956   7.900  18.094  11.373
74536W        W35957  29.083  12.810  12.857
74537W        W35958  13.602  17.195   2.767
74538W        W35959  14.731  13.308   5.157
74539W        W35960   3.875  39.030   3.687
74540W        W35961  38.870   7.899   3.226
74541W        W35962  24.690  11.306   4.790
74542W        W35963  13.609   2.312  10.414
74543W        W35964  40.306  18.732  12.495
74544W        W35965   7.838  18.790   0.438
74545W        W35966   5.205  36.082  12.949
74546W        W35967  40.449   4.239  12.086
74547W        W35968  42.393  37.837   1.820
74548W        W35969  36.488  19.153   2.347
74549W        W35970  43.460   3.911   0.817
74550W        W35971  27.511  32.913   1.383
74551W        W35972  44.420  33.919   2.324
74552W        W35973  38.000   0.378  13.420
74553W        W35974  21.041  32.129  10.091
74554W        W35975  22.536  31.953  12.009
74555W        W35976  12.183  25.216  11.995
74556W        W35977   7.868   6.348  11.430
74557W        W35978  32.113   7.259  11.946
74558W        W35979  36.561   9.256   3.370
74559W        W35980  18.693  35.068   1.332
74560W        W35981  17.802   2.801   1.356
74561W        W35982  38.385   2.912   1.298
74562W        W35983  33.951  39.425  13.402
74563W        W35984  11.310  10.730  12.878
74564W        W35985  27.161  33.131   1.767
74565W        W35986  13.804  40.825  12.389
74566W        W35987   0.409   8.658  11.085
74567W        W35988   2.891  26.090   3.785
74568W        W35989   5.691  42.861  13.392
74569W        W35990   1.418  29.644  12.846
74570W        W35991  43.803  22.739  13.953
74571W        W35992  20.692  17.193   3.346
74572W        W35993   8.250  14.185   4.274
74573W        W35994  31.517  21.631   4.773
74574W        W35995  34.013  25.128   3.330
74575W        W35996  31.937  13.176   2.264
74576W        W35997  10.139  41.818   3.803
74577W        W35998  11.236  27.640   3.264
74578W        W35999   6.254  28.519   3.707
74579W        W36000   8.214  38.922   3.263
74580W        W36001  30.422   5.736  11.423
74581W        W36002  32.104   8.877  10.578
74582W        W36003  38.864  39.890  14.973
74583W        W36004  42.814  19.180   3.840
74584W        W36005  12.173  12.299  13.521
74585W        W36006   2.895   0.460   1.776
74586W        W36007  17.089   1.755  10.949
74587W        W36008  14.200  31.057  14.499
74588W        W36009  42.959  13.647   2.403
74589W        W36010  33.009  27.634  14.959
74590W        W36011   8.406  16.613  10.436
74591W        W36012  40.367  32.986  13.027
74592W        W36013  27.044   9.244  13.901
74593W        W36014  39.004   3.933  10.006
74594W        W36015  43.836  23.133   2.829
74595W        W36016  40.909   5.852   3.147
74596W        W36017  24.492  16.741  12.096
74597W        W36018  43.870  35.477   0.854
74598W        W36019  44.817  28.465  11.939
74599W        W36020  24.499  25.063  14.314
74600W        W36021  42.864   2.307  11.512
74601W        W36022  28.005  17.143   3.373
74602W        W36023   3.713  28.941   5.741
74603W        W36024  36.408  10.866   2.281
74604W        W36025  21.101   9.258   0.346
74605W        W36026  14.095  30.163   4.288
74606W        W36027  30.961  36.981   3.254
74607W        W36028   8.767  39.422   2.699
74608W        W36029  44.378  10.238  14.418
74609W        W36030  37.013  28.630  12.875
74610W        W36031  40.998  35.368  14.940
74611W        W36032   0.952  13.165  14.767
74612W        W36033  19.665  26.465   5.125
74613W        W36034  39.975  40.311  10.460
74614W        W36035  43.791  19.218  10.460
74615W        W36036  23.589  21.046   2.783
74616W        W36037  29.091   3.880  14.023
74617W        W36038  35.474   0.796  12.915
74618W        W36039   4.719  41.372  11.068
74619W        W36040  36.497   5.837  11.990
74620W        W36041  37.831  25.638   2.714
74621W        W36042  29.471  21.059  10.957
74622W        W36043   3.319  31.902  13.052
74623W        W36044   6.341  22.138  12.836
74624W        W36045  38.483  40.831   0.822
74625W        W36046  38.004   5.822  14.834
74626W        W36047  36.083  31.107   2.199
74627W        W36048  39.368   2.331  10.893
74628W        W36049  14.170  36.967  12.412
74629W        W36050  31.903  39.811   2.214
74630W        W36051   0.452   2.901  10.433
74631W        W36052  22.582  12.708  11.901
74632W        W36053  26.691  44.501   4.771
74633W        W36054  23.063  28.670  12.995
74634W        W36055  38.455  26.042  12.939
74635W        W36056  14.712  13.240   2.241
74636W        W36057  36.369   5.228  13.544
74637W        W36058   8.666   8.346   1.778
74638W        W36059  17.167   1.295   1.415
74639W        W36060   9.311   1.842  10.153
74640W        W36061  22.647  16.242  11.016
74641W        W36062  27.493   1.842  11.865
74642W        W36063   2.889   8.301  13.810
74643W        W36064  14.812  10.654  10.540
74644W        W36065  19.749   2.802  14.904
74645W        W36066  41.508  29.589   2.284
74646W        W36067  25.606  23.175   3.236
74647W        W36068  39.970   9.172  11.127
74648W        W36069  34.532  26.641   0.482
74649W        W36070   6.328  31.078  11.950
74650W        W36071   5.833   1.907  14.784
74651W        W36072  12.778  34.549   0.875
74652W        W36073  38.448  25.598  10.571
74653W        W36074   7.303  13.216  14.398
74654W        W36075   9.274  32.994   2.344
74655W        W36076  15.788  28.661  12.020
74656W        W36077   8.295  40.878   0.277
74657W        W36078  36.576  32.561   2.859
74658W        W36079   4.762   8.734   2.346
74659W        W36080   3.367  18.681   4.129
74660W        W36081  27.488   2.439   4.702
74661W        W36082  29.489  43.798  12.015
74662W        W36083   6.908  12.711  14.296
74663W        W36084   0.311  40.435   4.773
74664W        W36085   5.409  33.613  11.522
74665W        W36086   6.715  20.764  13.033
74666W        W36087   9.645   4.867   3.790
74667W        W36088   8.263   8.205  10.490
74668W        W36089  37.523  33.989   4.657
74669W        W36090  21.517  31.009   3.674
74670W        W36091  37.867  25.218  14.840
74671W        W36092  32.461   1.779  14.979
74672W        W36093   0.409  35.529   0.755
74673W        W36094   5.793   9.707   1.757
74674W        W36095  33.017  42.310  13.479
74675W        W36096  37.498  20.095   4.709
74676W        W36097  21.091  20.233  10.481
74677W        W36098   8.169  42.836  11.117
74678W        W36099  30.977  39.897   3.864
74679W        W36100  22.025  44.010   4.828
74680W        W36101  32.019   6.872   4.268
74681W        W36102  44.008   8.701   2.679
74682W        W36103  33.942   7.373  12.400
74683W        W36104   6.677  16.191  12.531
74684W        W36105  11.683  11.196  14.381
74685W        W36106  13.121  35.600  13.867
74686W        W36107  40.882  17.165  14.874
74687W        W36108  21.667  15.287   3.784
74688W        W36109  27.166  36.396   3.676
74689W        W36110   6.871  18.169  11.475
74690W        W36111  26.700  39.995  14.329
74691W        W36112  20.764  25.147  11.518
74692W        W36113  14.192   6.223  10.614
74693W        W36114  14.193  37.889  10.544
74694W        W36115  14.741  13.724  13.889
74695W        W36116  19.761  35.037  11.597
74696W        W36117  20.142   0.469   4.151
74697W        W36118   1.882  19.728  12.430
74698W        W36119  30.096  38.919   3.380
74699W        W36120  39.429   7.308   1.862
74700W        W36121  38.843  43.964  14.311
74701W        W36122   0.251  32.527  13.974
74702W        W36123  37.952  35.387   3.154
74703W        W36124  13.710   2.936   3.770
74704W        W36125  17.623  39.858   1.294
74705W        W36126   4.323  23.132  13.881
74706W        W36127   1.272  13.749   0.870
74707W        W36128  31.565  22.634   2.782
74708W        W36129  36.369  40.523  14.028
74709W        W36130  40.453  29.664   0.274
74710W        W36131  34.895  29.956   2.243
74711W        W36132  31.954  34.929  11.859
74712W        W36133   6.835  28.529  14.898
74713W        W36134  29.077  25.214  12.451
74714W        W36135   3.769  34.864   4.678
74715W        W36136  15.674  21.105  14.868
74716W        W36137   6.304  26.155   0.924
74717W        W36138   4.238  23.489   3.764
74718W        W36139   6.780  40.982  13.401
74719W        W36140  31.019  38.446  11.553
74720W        W36141  32.477  21.724  12.928
74721W        W36142  11.299   6.333  11.505
74722W        W36143  11.729  42.462  14.977
74723W        W36144   8.787   4.791   1.695
74724W        W36145  35.938   9.387   4.170
74725W        W36146  32.036  33.456   4.322
74726W        W36147   0.259   9.242   3.707
74727W        W36148  30.067  24.686  12.383
74728W        W36149  29.961  41.794  10.643
74729W        W36150  15.714  18.666   2.851
74730W        W36151   7.823  11.702  13.493
74731W        W36152  12.262   9.368  13.349
74732W        W36153  42.000  18.776   4.780
74733W        W36154  37.426   1.409   3.813
74734W        W36155  14.206  44.947   4.235
74735W        W36156  41.488  17.781  10.900
74736W        W36157  26.185  16.225  13.408
74737W        W36158  37.072  25.647  14.395
74738W        W36159  25.168   2.283  14.468
74739W        W36160  35.457  12.141   0.479
74740W        W36161  16.702  29.657   1.774
74741W        W36162  43.387  35.603   3.300
74742W        W36163   3.851  35.427  13.821
74743W        W36164  25.677   4.731   5.295
74744W        W36165  19.639  43.982   2.189
74745W        W36166  35.918  10.687  12.397
74746W        W36167  25.588  42.790   4.626
74747W        W36168  27.563  36.507   3.854
74748W        W36169   7.340  33.606   5.175
74749W        W36170  33.394  15.192  14.953
74750W        W36171  31.041   7.368   1.450
74751W        W36172  37.490  38.367   1.231
74752W        W36173  10.663  22.167  13.329
74753W        W36174  27.489  13.810  13.500
74754W        W36175  33.402  12.185  12.569
74755W        W36176  26.142   4.712  12.988
74756W        W36177  24.200  22.141   3.723
74757W        W36178   0.384   2.930   1.443
74758W        W36179  44.947  11.799   1.702
74759W        W36180   1.747  42.022  12.055
74760W        W36181  38.002  42.443   4.792
74761W        W36182  34.919  30.139  10.411
74762W        W36183  10.209   0.481   1.211
74763W        W36184  23.171  43.455   3.757
74764W        W36185  29.447  37.345   0.902
74765W        W36186  20.132  39.932   0.375
74766W        W36187  11.712   6.381  12.577
74767W        W36188  43.382  20.656   3.851
74768W        W36189   4.223  36.849  13.865
74769W        W36190  29.632  13.837   0.377
74770W        W36191   2.735  10.767  10.425
74771W        W36192  40.382  23.697  11.046
74772W        W36193  26.498   5.283  14.362
74773W        W36194  19.074  43.010  14.496
74774W        W36195  13.787  26.969  10.555
74775W        W36196  23.207  10.160   2.862
74776W        W36197   5.323  17.632   4.154
74777W        W36198   9.767   1.413   2.758
74778W        W36199  36.979  18.272   2.395
74779W        W36200  23.502   1.358  13.323
74780W        W36201   2.894   6.704   0.338
74781W        W36202  24.141  25.132   2.249
74782W        W36203  23.618   1.361  13.845
74783W        W36204   4.856  37.493  10.619
74784W        W36205  41.468  14.144   2.845
74785W        W36206  16.130  10.152   0.788
74786W        W36207   9.679  15.222   4.797
74787W        W36208  26.054   3.791  14.959
74788W        W36209  18.151  23.064  11.123
74789W        W36210  17.159   1.289   1.754
74790W        W36211   0.864  43.916  12.033
74791W        W36212  21.247  44.877  11.933
74792W        W36213  32.418   8.681  10.455
74793W        W36214  43.409  14.780   5.311
74794W        W36215  25.497  16.768   1.223
74795W        W36216  12.750  32.910  14.980
74796W        W36217  29.636   0.249  11.009
74797W        W36218   8.252  21.540   1.237
74798W        W36219  36.401  42.851  11.065
74799W        W36220  20.572   6.814  13.349
74800W        W36221  27.172  14.166  14.510
74801W        W36222  24.546   6.187  11.473
74802W        W36223   3.710  42.907   1.839
74803W        W36224  11.153  19.650  14.364
74804W        W36225   3.916  34.460   1.767
74805W        W36226  19.611  36.590   0.299
74806W        W36227   0.259  20.032   3.380
74807W        W36228  17.675  39.991   1.927
74808W        W36229  43.393  28.166  10.449
74809W        W36230  30.493   3.322  14.915
74810W        W36231  43.981  42.996  13.335
74811W        W36232  21.728  37.029  14.802
74812W        W36233  16.630  20.044   0.762
74813W        W36234  18.631   2.808   3.870
74814W        W36235   9.389  11.278   1.225
74815W        W36236   0.260  20.585  13.419
74816W        W36237  35.602  38.496  10.587
74817W        W36238  30.952  18.726   1.839
74818W        W36239  11.137  22.035   0.284
74819W        W36240  16.695  30.494   1.820
74820W        W36241   9.685  39.536   3.836
74821W        W36242   2.827  15.319   0.886
74822W        W36243   3.391  44.498  13.060
74823W        W36244  14.190  12.293  11.487
74824W        W36245  41.812  16.717  14.893
74825W        W36246  42.846  32.933  11.916
74826W        W36247  41.897  42.924  10.151
74827W        W36248  31.092  22.743  14.988
74828W        W36249  27.148  35.535  13.405
74829W        W36250   9.660  42.353  11.458
74830W        W36251   2.777  21.117  12.967
74831W        W36252  27.103   1.472   4.260
74832W        W36253  15.329  12.259   1.931
74833W        W36254  10.377  37.047   1.756
74834W        W36255  42.491   4.704  13.450
74835W        W36256  29.136  41.987   1.326
74836W        W36257  24.695  24.151  14.936
74837W        W36258  17.662  26.627  13.425
74838W        W36259  35.871  28.179  13.473
74839W        W36260  22.682  38.326   4.301
74840W        W36261   9.877  35.378   0.345
74841W        W36262  17.081  17.134   3.240
74842W        W36263  10.298  41.957  12.936
74843W        W36264  14.257   6.318  12.052
74844W        W36265  30.956  14.146  13.434
74845W        W36266   2.443   0.959   1.257
74846W        W36267  32.580  14.317  11.415
74847W        W36268  31.539   1.811  13.815
74848W        W36269  22.174  30.025  14.282
74849W        W36270   7.183  39.029   1.379
74850W        W36271  33.541  25.695  13.331
74851W        W36272  15.780   2.850   4.773
74852W        W36273  43.954  42.967   0.266
74853W        W36274  31.067  17.156   3.159
74854W        W36275  11.127   4.331  11.451
74855W        W36276   4.378   5.362   0.285
74856W        W36277  38.891  28.450   1.325
74857W        W36278  37.553  33.102   3.797
74858W        W36279  14.112  18.747  14.323
74859W        W36280   6.903  31.981   1.742
74860W        W36281   8.869  28.108   1.782
74861W        W36282  26.150  27.460  12.969
74862W        W36283  16.769  31.611  14.331
74863W        W36284   3.896  15.283   0.251
74864W        W36285  25.199  15.727  13.421
74865W        W36286  34.940   3.762   5.104
74866W        W36287  42.405  20.169   3.189
74867W        W36288  17.748  42.393  11.527
74868W        W36289  39.341  13.295   3.689
74869W        W36290  25.144  38.558  14.762
74870W        W36291  39.044  22.602  11.442
74871W        W36292  26.002  36.410  10.430
74872W        W36293  19.633  22.138  14.403
74873W        W36294  32.536  11.277  11.067
74874W        W36295   6.739  23.075   3.145
74875W        W36296   5.419  44.866  14.368
74876W        W36297   9.871  36.408   1.839
74877W        W36298  28.608  34.063  11.072
74878W        W36299   8.211  36.422   2.686
74879W        W36300  28.109  11.794   4.189
74880W        W36301  32.432  31.128  14.352
74881W        W36302  41.024  11.811  12.874
74882W        W36303  11.754  10.734  11.563
74883W        W36304  21.561   3.372   3.770
74884W        W36305  14.634  22.998  14.946
74885W        W36306  17.173  15.773  13.478
74886W        W36307  10.767  37.977   2.306
74887W        W36308   9.738  17.144  10.989
74888W        W36309  28.016  16.182  12.428
74889W        W36310   0.984   8.837   0.385
74890W        W36311  39.042  27.171  14.875
74891W        W36312  21.521  23.223   3.675
74892W        W36313  31.543  18.765  12.501
74893W        W36314  36.505  24.649   1.371
74894W        W36315   5.335  40.526   3.687
74895W        W36316  38.351  23.724   4.314
74896W        W36317  42.402  15.649   3.863
74897W        W36318  31.632  27.080   0.913
74898W        W36319  24.492  22.112   3.256
74899W        W36320  24.167  24.555  12.374
74900W        W36321   6.425  29.612  10.960
74901W        W36322  16.665  17.248  13.387
74902W        W36323   8.263  10.641  11.961
74903W        W36324   5.722  15.601   0.786
74904W        W36325  36.521  40.354   1.245
74905W        W36326  14.106  36.541   3.717
74906W        W36327  26.137  34.032  12.010
74907W        W36328  24.485  44.385   2.182
74908W        W36329   8.332  40.876   5.685
74909W        W36330   1.824  27.630   4.692
74910W        W36331   7.411  42.458  10.613
74911W        W36332  22.064  28.524   2.336
74912W        W36333  27.453  36.406   0.456
74913W        W36334  44.503  28.623   3.386
74914W        W36335  19.645  37.052   3.868
74915W        W36336  25.070   6.835  14.942
74916W        W36337  11.244  15.157  14.923
74917W        W36338  19.133  25.098  13.058
74918W        W36339  25.072  32.402   2.314
74919W        W36340  14.151  17.280   4.266
74920W        W36341   7.296  37.835   0.827
74921W        W36342  12.153  26.547  12.870
74922W        W36343  22.716  11.785   0.280
74923W        W36344  36.952   6.398   4.308
74924W        W36345  43.440  27.469  12.909
74925W        W36346  29.471   0.925  14.401
74926W        W36347  31.942  17.770  13.471
74927W        W36348  32.027  38.514   2.875
74928W        W36349  14.296  18.206  11.050
74929W        W36350  12.852  10.205   2.269
74930W        W36351  11.260  41.924  14.898
74931W        W36352  34.565  20.081  11.864
74932W        W36353  39.909   4.328   3.203
74933W        W36354  11.267   0.830  14.976
74934W        W36355   0.366  35.362   2.374
74935W        W36356  25.617   7.407   4.679
74936W        W36357  26.468  13.339   3.274
74937W        W36358  18.678  40.398   3.364
74938W        W36359  13.208  42.488   4.307
74939W        W36360  32.579   1.381   1.847
74940W        W36361  18.294   2.349   2.195
74941W        W36362  34.105   2.872   3.318
74942W        W36363  43.992  40.344   1.324
74943W        W36364  12.151   1.426   0.822
74944W        W36365   5.805  16.164  11.519
74945W        W36366   2.842   6.302  11.594
74946W        W36367  24.557  18.572   3.222
74947W        W36368  18.788  43.979   0.828
74948W        W36369  14.685  33.125  12.974
74949W        W36370  30.561  22.660   3.825
74950W        W36371   5.355  14.646  11.088
74951W        W36372   0.394  18.258   1.449
74952W        W36373   4.324  36.556   3.850
74953W        W36374  14.230  34.994  14.949
74954W        W36375  44.341  32.125   0.874
74955W        W36376   8.830  43.505  10.643
74956W        W36377   0.939   3.369   2.903
74957W        W36378  44.422   2.798   4.778
74958W        W36379   0.462   9.812  13.538
74959W        W36380  28.103  11.730  12.453
74960W        W36381   8.782   3.801  12.503
74961W        W36382   3.852  38.828   2.219
74962W        W36383   6.280   7.828  14.764
74963W        W36384   9.802  36.404   1.385
74964W        W36385  39.890  28.599   1.780
74965W        W36386  44.007   0.304   0.415
74966W        W36387  37.501  18.765  10.600
74967W        W36388   9.223  24.191   3.234
74968W        W36389   9.730   2.351   3.756
74969W        W36390  28.093  40.990   1.317
74970W        W36391  17.556  11.257  13.863
74971W        W36392  15.176   1.910  14.934
74972W        W36393   3.357   1.731   1.754
74973W        W36394   4.737  41.995   0.735
74974W        W36395  36.435  36.967   2.850
74975W        W36396  33.113  16.162  13.059
74976W        W36397  34.472   7.344   4.637
74977W        W36398   3.781  10.353   1.868
74978W        W36399  35.383  25.566   4.352
74979W        W36400  32.631  32.452   1.279
74980W        W36401  15.773  29.484  14.886
74981W        W36402   5.383   8.262   3.677
74982W        W36403  14.234  26.640  10.904
74983W        W36404  30.432  11.721   0.310
74984W        W36405  25.548  19.045  11.068
74985W        W36406  10.651  14.170   2.880
74986W        W36407  13.222  23.634   0.799
74987W        W36408  30.480  40.887   0.798
74988W        W36409  20.594   3.369   9.947
74989W        W36410  20.163   2.813   3.769
74990W        W36411   6.222   2.895  11.399
74991W        W36412  14.213  25.577  11.985
74992W        W36413  13.184  16.660  13.539
74993W        W36414  44.930  33.899  14.802
74994W        W36415  23.517  20.595  10.471
74995W        W36416  40.348  23.526  12.864
74996W        W36417  28.677   0.364   1.428
74997W        W36418  30.638  20.657   2.706
74998W        W36419  27.669  35.034  10.945
74999W        W36420   6.404  40.542   4.731
75000W        W36421  29.457  14.639   4.327
75001W        W36422  33.004  32.915   4.352
75002W        W36423  42.507  19.165   3.630
75003W        W36424   2.354   5.249   0.931
75004W        W36425  32.928  42.907   0.854
75005W        W36426  29.152  37.902  13.409
75006W        W36427  10.278  17.225   3.231
75007W        W36428   7.750  34.509  12.472
75008W        W36429  31.563   5.774   3.188
75009W        W36430   6.880  19.220  14.360
75010W        W36431  23.055  23.536  12.529
75011W        W36432   5.398  41.004  12.551
75012W        W36433  36.916   5.843   4.780
75013W        W36434  30.952  40.333   0.322
75014W        W36435  25.023  18.150   3.204
75015W        W36436   7.190   8.289   0.266
75016W        W36437  14.656  11.359   2.347
75017W        W36438  41.896  36.017   4.306
75018W        W36439  43.420  11.727   4.224
75019W        W36440   5.704  41.826   2.857
75020W        W36441  18.585  12.225   4.705
75021W        W36442  42.019  18.586  14.473
75022W        W36443  39.929  43.366  12.520
75023W        W36444  34.076  39.935   2.189
75024W        W36445  11.861  38.348   0.842
75025W        W36446  26.126  37.396  10.944
75026W        W36447   7.784  11.630   2.191
75027W        W36448  16.142  30.019   4.336
75028W        W36449   6.705  16.676  10.927
75029W        W36450  42.355  26.114  14.951
75030W        W36451   7.299  43.455   3.147
75031W        W36452  36.541   4.260  10.539
75032W        W36453   9.311  20.652   3.254
75033W        W36454  23.162   6.901  11.906
75034W        W36455   6.890  35.905   1.736
75035W        W36456  38.503  33.979  13.880
75036W        W36457  26.175  15.731  11.610
75037W        W36458  20.600  22.235   1.440
75038W        W36459  25.570  30.537  11.407
75039W        W36460   8.326  12.770  13.413
75040W        W36461  28.456  27.123   0.298
75041W        W36462  12.751  16.746  11.123
75042W        W36463   9.160  20.265  14.516
75043W        W36464  28.976  38.962  14.833
75044W        W36465  18.235  43.456  10.405
75045W        W36466  35.063  27.553   4.176
75046W        W36467  13.718   1.456   4.612
75047W        W36468  15.248  28.131  12.566
75048W        W36469  43.020  11.361   0.915
75049W        W36470  24.585  21.190   0.465
75050W        W36471  15.819  25.164   3.209
75051W        W36472  31.905  11.141  14.022
75052W        W36473  34.594  25.553   2.859
75053W        W36474  30.502  20.620  14.949
75054W        W36475  33.398  44.315  14.995
75055W        W36476   8.353  13.681  11.051
75056W        W36477  14.307  42.978   0.358
75057W        W36478  36.003  15.600  11.992
75058W        W36479   0.396  30.002   2.188
75059W        W36480   9.221  21.138   4.223
75060W        W36481  19.123  31.026   0.837
75061W        W36482  19.655   3.720   0.345
75062W        W36483   6.248  43.782  12.366
75063W        W36484  25.687  16.275  12.962
75064W        W36485   9.643   3.771   2.886
75065W        W36486  42.786  31.633   3.168
75066W        W36487  24.995  28.491   1.700
75067W        W36488  19.554  26.667  10.514
75068W        W36489   9.251  21.579   0.458
75069W        W36490  37.080  38.375  12.423
75070W        W36491  36.002  30.422   3.854
75071W        W36492   2.433  42.498   3.304
75072W        W36493  37.578  21.187   5.316
75073W        W36494  31.420  16.287   2.780
75074W        W36495  18.692  29.047   1.336
75075W        W36496   7.216   5.253   0.376
75076W        W36497   0.982  28.112  10.088
75077W        W36498  33.575   8.195   3.743
75078W        W36499  22.118   4.735   1.871
75079W        W36500  38.835  25.572   1.703
75080W        W36501  13.209  34.415  14.445
75081W        W36502   5.798  32.583  12.355
75082W        W36503   6.313  21.518   3.784
75083W        W36504  33.490  28.183   3.224
75084W        W36505  25.156  10.686   4.693
75085W        W36506   0.869  35.569  13.938
75086W        W36507  22.730  32.546   1.439
75087W        W36508   9.187   4.427  13.867
75088W        W36509  31.059  21.570  12.890
75089W        W36510  34.940   5.866  14.906
75090W        W36511  26.525  34.071  10.543
75091W        W36512  28.531  12.775   4.177
75092W        W36513  42.823  24.050  12.382
75093W        W36514  27.052  37.517  10.612
75094W        W36515  13.288  32.027  11.535
75095W        W36516  14.215  24.035   4.602
75096W        W36517  41.979  23.056   0.913
75097W        W36518  30.965  44.368   0.337
75098W        W36519   0.815  30.023  14.972
75099W        W36520  44.945  42.420  11.417
75100W        W36521  18.714  33.526  10.603
75101W        W36522   1.973  19.094   2.812
75102W        W36523  35.883  32.102   1.878
75103W        W36524  43.923  44.414   3.840
75104W        W36525  42.806  23.574  12.894
75105W        W36526   2.744  30.496  13.414
75106W        W36527  38.545  38.930   0.248
75107W        W36528  34.449  35.473  10.502
75108W        W36529  37.375  35.023   4.196
75109W        W36530  37.449   9.337  11.008
75110W        W36531  41.004  32.034   3.719
75111W        W36532  25.014  22.517   5.196
75112W        W36533   4.939  31.092   0.936
75113W        W36534  10.184  33.396  11.488
75114W        W36535  14.715   9.319  13.467
75115W        W36536  10.321   1.347  12.372
75116W        W36537  25.979  30.159  13.805
75117W        W36538  12.268   2.333   2.413
75118W        W36539  43.785  12.205   0.911
75119W        W36540  40.023   7.724   3.865
75120W        W36541  27.126  16.294  11.043
75121W        W36542  26.702  37.579   1.750
75122W        W36543  32.969   6.831  10.595
75123W        W36544   6.375  36.494  10.973
75124W        W36545   2.852   3.269  13.430
75125W        W36546  40.023   6.390  13.885
75126W        W36547   8.839  14.233   4.715
75127W        W36548  14.115  21.513   0.871
75128W        W36549  26.597  12.775   1.291
75129W        W36550  17.794  31.593   3.145
75130W        W36551  32.137   9.332   1.740
75131W        W36552  15.686   2.228  14.855
75132W        W36553  40.346  16.180  14.878
75133W        W36554  16.281   7.243   2.273
75134W        W36555   7.858  34.436   2.702
75135W        W36556  19.769   6.915   2.791
75136W        W36557  10.330  31.403   0.770
75137W        W36558  26.620  13.164  13.459
75138W        W36559  27.071  28.534   4.249
75139W        W36560  21.619  13.351  14.360
75140W        W36561  21.722  13.677   0.321
75141W        W36562  43.851   8.687  13.969
75142W        W36563  44.379  30.980  11.414
75143W        W36564  26.526  31.946   5.279
75144W        W36565  36.027   2.329   2.824
75145W        W36566  32.948  16.215  14.366
75146W        W36567   0.793  43.386   1.726
75147W        W36568   2.803   2.299   3.819
75148W        W36569  24.976   2.274   0.880
75149W        W36570  32.464   9.756   0.841
75150W        W36571  43.890  17.575   3.348
75151W        W36572  28.637  28.606   4.336
75152W        W36573  40.826  32.415  12.977
75153W        W36574   1.322  15.726  10.624
75154W        W36575  43.869  38.057   4.799
75155W        W36576  14.791   4.853   3.262
75156W        W36577  15.289  10.243  11.500
75157W        W36578  35.469  12.721  14.357
75158W        W36579  40.964  11.224   5.172
75159W        W36580   4.360  20.123   1.833
75160W        W36581  22.225  22.717  13.386
75161W        W36582   0.969  35.899   1.417
75162W        W36583   9.155  29.099   2.733
75163W        W36584  34.874  17.734   1.360
75164W        W36585  12.123  39.417  11.582
75165W        W36586  22.121  44.802  10.963
75166W        W36587  18.565  12.150   4.348
75167W        W36588   0.490  30.919   5.757
75168W        W36589   5.382  42.886  11.952
75169W        W36590   8.697  30.619   0.856
75170W        W36591  32.937  43.996   0.342
75171W        W36592  24.581  25.121   1.348
75172W        W36593  30.508   8.688   1.267
75173W        W36594  26.561   9.312  14.778
75174W        W36595   7.878  20.678  13.882
75175W        W36596  23.528  26.189  14.507
75176W        W36597  26.677  14.165   2.806
75177W        W36598  25.217  42.502   3.710
75178W        W36599   4.903  20.732   0.866
75179W        W36600  13.715  31.511  11.472
75180W        W36601  12.713  16.159   4.829
75181W        W36602  43.988  18.740   1.334
75182W        W36603  43.287  19.721  12.418
75183W        W36604  19.186  14.807  14.448
75184W        W36605  16.611  21.028  12.920
75185W        W36606   8.792  29.562   0.806
75186W        W36607  39.405  35.099   3.232
75187W        W36608  24.142  36.084  14.470
75188W        W36609  44.776  29.977   2.822
75189W        W36610  31.940  29.123   4.620
75190W        W36611  15.125   4.231   0.479
75191W        W36612   3.944  14.211   1.322
75192W        W36613  20.103  22.573  14.453
75193W        W36614  29.978   3.280  12.883
75194W        W36615  13.657  35.455  11.855
75195W        W36616  13.619  41.816   2.311
75196W        W36617  11.297   9.808   0.813
75197W        W36618   8.378  41.448  11.012
75198W        W36619  32.996  17.743   0.856
75199W        W36620  36.031   6.836   3.328
75200W        W36621  28.596   9.355  11.947
75201W        W36622  27.092  16.274   3.667
75202W        W36623  30.467   6.795  14.363
75203W        W36624  15.692  11.266  12.401
75204W        W36625  26.979  37.850  14.806
75205W        W36626  23.070  21.564  13.481
75206W        W36627   2.818   3.418   3.630
75207W        W36628   7.830  37.034   1.754
75208W        W36629  44.344  33.128  13.900
75209W        W36630  37.390  27.120   2.875
75210W        W36631  27.684  14.131  14.312
75211W        W36632  36.886   4.243  14.343
75212W        W36633   9.864  30.437  11.929
75213W        W36634   8.287  26.524   2.212
75214W        W36635  12.332  19.156  13.041
75215W        W36636  29.951  12.222   1.437
75216W        W36637  27.638  41.301  14.418
75217W        W36638  19.055  34.576  14.507
75218W        W36639  26.677  20.202  10.540
75219W        W36640  10.770  20.054   2.185
75220W        W36641  26.490  24.978   0.799
75221W        W36642  32.992  38.500   4.322
75222W        W36643  20.134  37.474  11.112
75223W        W36644  28.175  20.125   0.847
75224W        W36645  32.499  25.988   2.239
75225W        W36646  26.153   9.825  13.397
75226W        W36647   2.933  14.158   2.276
75227W        W36648  33.588  11.179  14.808
75228W        W36649  19.586   6.228   0.797
75229W        W36650  10.222  38.544   5.710
75230W        W36651  39.837  42.848   4.742
75231W        W36652  17.673  39.350   0.755
75232W        W36653   8.721  19.631   1.402
75233W        W36654   7.861  10.350   4.332
75234W        W36655  13.310   6.421   2.296
75235W        W36656  10.697  13.266  12.503
75236W        W36657   8.175  31.551  11.003
75237W        W36658   1.413  37.380   3.672
75238W        W36659   5.338  42.933   4.133
75239W        W36660  22.652  26.008   1.415
75240W        W36661   1.423   3.882   4.674
75241W        W36662   2.415  19.585   4.142
75242W        W36663  13.697  32.584   5.282
75243W        W36664  43.434  16.734  12.867
75244W        W36665   6.822  23.231   0.355
75245W        W36666  44.309  30.974   4.210
75246W        W36667   1.959  15.818  12.573
75247W        W36668   5.285   4.866  11.590
75248W        W36669  16.295  21.152  12.958
75249W        W36670  17.747  19.068   0.361
75250W        W36671  38.478   5.309  14.982
75251W        W36672  28.089  35.577  11.868
75252W        W36673  15.580  19.723   2.796
75253W        W36674  31.592  44.329  12.082
75254W        W36675   5.251   9.159  14.339
75255W        W36676  17.301  33.415  11.532
75256W        W36677   9.837  26.170   0.291
75257W        W36678   9.798  32.445  13.022
75258W        W36679  10.705  26.187  11.862
75259W        W36680  29.063  13.667  14.393
75260W        W36681  43.366   1.457  11.063
75261W        W36682  22.636  21.148   3.386
75262W        W36683  14.800  17.749   4.710
75263W        W36684  34.887  11.685   3.778
75264W        W36685  12.172  39.847   0.830
75265W        W36686  10.744  11.278  13.980
75266W        W36687  18.557  20.691   3.674
75267W        W36688  42.942  42.876   2.318
75268W        W36689  40.385  34.907   4.118
75269W        W36690  33.034  23.655  12.382
75270W        W36691  28.566  26.694   1.352
75271W        W36692  19.193  37.537   2.226
75272W        W36693   4.348  34.920   0.254
75273W        W36694  14.812  28.106   3.848
75274W        W36695   5.317   5.818  10.514
75275W        W36696   6.298  27.966   2.365
75276W        W36697  44.759  13.781  14.396
75277W        W36698   9.277  24.608  10.585
75278W        W36699   6.263  20.678  13.470
75279W        W36700  30.598  39.814  14.992
75280W        W36701  21.707  18.222   0.884
75281W        W36702  34.896   5.377   9.986
75282W        W36703  43.350  42.336   4.296
75283W        W36704  33.573   7.240   2.243
75284W        W36705  30.579  26.585   0.272
75285W        W36706  32.472  32.510   0.814
75286W        W36707  25.037  15.752   1.399
75287W        W36708  25.694   0.475   1.372
75288W        W36709   0.982  29.523  11.390
75289W        W36710  43.843  44.927   1.771
75290W        W36711  39.879  17.107  10.108
75291W        W36712  40.895  33.446  13.821
75292W        W36713  39.452  27.668  10.527
75293W        W36714  34.959   8.845   1.266
75294W        W36715  15.298  15.599  11.418
75295W        W36716   7.299   0.866   1.258
75296W        W36717   0.980  30.932  13.386
75297W        W36718  36.069  22.562  12.508
75298W        W36719  17.165   0.372  11.565
75299W        W36720  10.778   4.840  13.445
75300W        W36721   1.304  25.611   3.277
75301W        W36722  20.646  44.269   1.394
75302W        W36723  34.078  28.060  13.480
75303W        W36724  30.643   1.763   4.335
75304W        W36725  18.577  25.076   1.225
75305W        W36726  10.645  28.173   2.230
75306W        W36727  31.052  35.584   4.349
75307W        W36728   1.451   2.387   3.202
75308W        W36729  11.318  34.391  10.643
75309W        W36730   8.662  21.159  13.969
75310W        W36731   6.915   3.715   1.856
75311W        W36732  37.861   0.839  10.543
75312W        W36733  28.656  41.885   0.476
75313W        W36734  40.486   2.967   3.746
75314W        W36735  42.412  12.774   1.708
75315W        W36736  10.369  11.822   1.335
75316W        W36737  30.440  11.317  10.463
75317W        W36738   7.724   1.890  14.292
75318W        W36739  15.289  11.173  13.424
75319W        W36740  34.540  42.316   0.427
75320W        W36741  29.002   4.811  13.410
75321W        W36742  13.158  33.424   2.325
75322W        W36743  10.252   0.482   5.092
75323W        W36744  22.175  34.040   0.772
75324W        W36745  28.033  20.268  10.522
75325W        W36746  19.758  35.403  10.405
75326W        W36747   5.355  25.002  14.978
75327W        W36748  19.660  13.826  13.476
75328W        W36749  32.443  30.450  12.080
75329W        W36750  27.487  13.784   3.855
75330W        W36751  20.698   7.856   1.806
75331W        W36752  40.807  34.103   4.208
75332W        W36753  27.046  38.993  11.864
75333W        W36754  31.502  29.560   1.213
75334W        W36755   0.918  30.918   1.744
75335W        W36756  19.556   2.732  11.986
75336W        W36757  37.019  44.794   1.224
75337W        W36758  12.836  28.967   2.873
75338W        W36759  22.995   5.827  14.953
75339W        W36760  40.327  39.999   4.669
75340W        W36761   3.288  17.598   2.683
75341W        W36762  38.869  22.549  12.956
75342W        W36763  17.261  29.162   4.320
75343W        W36764  18.741  19.629  13.430
75344W        W36765  21.618  15.089   5.263
75345W        W36766  10.293  10.682  10.445
75346W        W36767  15.740  23.079   2.366
75347W        W36768  40.843  21.641   3.330
75348W        W36769  22.187  36.354  12.931
75349W        W36770  38.382  10.849   0.792
75350W        W36771  42.973   3.402  13.497
75351W        W36772  37.564  15.772   4.346
75352W        W36773  25.176   6.353   4.338
75353W        W36774  24.518  42.380   3.823
75354W        W36775  39.021  44.956   2.809
75355W        W36776   0.916   9.264  11.875
75356W        W36777   2.964  17.674   4.638
75357W        W36778  42.026   2.282  14.790
75358W        W36779  10.376  27.602   3.186
75359W        W36780   0.829  42.017   3.688
75360W        W36781  24.618  33.534   4.637
75361W        W36782  26.676  39.988   2.300
75362W        W36783  42.932  16.700   2.405
75363W        W36784   7.706  44.333   1.806
75364W        W36785  23.197  24.049   0.296
75365W        W36786  22.025  13.135   1.904
75366W        W36787  40.460  25.559   1.220
75367W        W36788  43.840  23.157  14.291
75368W        W36789  19.752  23.067   3.853
75369W        W36790  15.162  13.646   3.238
75370W        W36791  44.304  41.819  12.069
75371W        W36792  24.690   8.817  12.431
75372W        W36793  15.623  23.689   2.387
75373W        W36794  14.295  16.683  14.007
75374W        W36795  41.499  42.454   2.816
75375W        W36796  24.496  38.999   2.822
75376W        W36797  15.786  43.407   3.360
75377W        W36798   8.846   7.323   0.337
75378W        W36799  22.645  25.678   4.638
75379W        W36800   4.926  28.081  14.032
75380W        W36801  10.878  31.559  12.886
75381W        W36802   8.870  32.038   5.314
75382W        W36803  31.951  31.136   2.335
75383W        W36804   0.328  24.043   2.240
75384W        W36805  25.112  23.525   4.142
75385W        W36806  43.318  35.569   1.406
75386W        W36807  34.031   6.286   4.757
75387W        W36808  42.502  30.524  14.818
75388W        W36809  29.563   3.310   0.275
75389W        W36810  42.937  28.180   3.707
75390W        W36811  31.119   2.381   5.240
75391W        W36812  40.334   3.443  13.919
75392W        W36813  39.983  39.047   4.238
75393W        W36814  26.972  26.991  12.844
75394W        W36815   0.358  39.449  10.537
75395W        W36816  23.628  15.649   3.148
75396W        W36817  41.335   8.222  14.297
75397W        W36818  16.635  26.579   3.834
75398W        W36819  12.616  21.055  14.807
75399W        W36820  12.292   5.822   2.403
75400W        W36821  17.608  38.470  10.473
75401W        W36822  37.010  11.243  14.899
75402W        W36823  19.101   9.238  12.571
75403W        W36824   0.312  32.528  11.555
75404W        W36825  36.854  41.979   0.259
75405W        W36826   4.439  34.596   2.404
75406W        W36827  39.452   8.788   2.801
75407W        W36828  32.139   3.941   0.918
75408W        W36829  42.809  27.002  14.776
75409W        W36830  19.760  15.820  13.898
75410W        W36831  43.447   7.330   3.653
75411W        W36832   1.345  40.387   1.399
75412W        W36833  22.249  21.514  14.936
75413W        W36834  24.615  13.739   2.866
75414W        W36835  43.854  35.473  14.433
75415W        W36836  30.542  15.159  10.110
75416W        W36837   4.738  11.828  14.281
75417W        W36838  11.170  33.116  14.953
75418W        W36839  11.716  18.771   4.129
75419W        W36840   2.390  41.536  10.091
75420W        W36841  39.058  14.311   1.318
75421W        W36842  20.235  37.906  10.632
75422W        W36843   2.471  32.989   0.823
75423W        W36844   4.822  39.530   1.328
75424W        W36845   1.800  43.764   0.436
75425W        W36846  41.304   8.340   2.296
75426W        W36847  31.138  35.039  12.359
75427W        W36848  29.511   7.348  13.978
75428W        W36849  42.519   8.715   3.841
75429W        W36850   8.820  18.635  13.475
75430W        W36851  27.610  16.718   0.437
75431W        W36852   7.822   9.832   3.805
75432W        W36853  41.930  38.380  13.522
75433W        W36854  13.172  15.698  11.900
75434W        W36855  13.822   4.215   2.218
75435W        W36856  32.011   6.370  13.453
75436W        W36857  13.782   9.220   2.302
75437W        W36858   8.739   7.786   2.374
75438W        W36859  10.352   1.934  11.547
75439W        W36860  15.606  33.467   3.337
75440W        W36861  21.209  13.214   0.469
75441W        W36862  14.624  44.886   3.304
75442W        W36863  12.358  39.314  14.834
75443W        W36864  22.703   2.788   0.327
75444W        W36865  43.950  43.389  11.490
75445W        W36866   4.834  35.053  14.307
75446W        W36867  21.741  41.321   0.759
75447W        W36868  42.851  10.345   0.846
75448W        W36869  39.414  19.690   1.278
75449W        W36870  34.599   4.403  13.863
75450W        W36871   3.785  40.465  13.327
75451W        W36872  22.029  39.962   2.322
75452W        W36873  11.704   5.252  10.966
75453W        W36874  14.804  21.531   3.146
75454W        W36875  26.493  27.998  14.825
75455W        W36876  24.067  34.964  14.318
75456W        W36877   9.653  10.824   2.283
75457W        W36878  41.916  24.628  13.004
75458W        W36879  42.930  43.300   4.204
75459W        W36880  32.953   7.298   3.826
75460W        W36881  30.511   3.750  13.904
75461W        W36882  12.285  37.086   2.750
75462W        W36883   2.790   8.188  14.500
75463W        W36884  10.711  35.431   1.784
75464W        W36885  30.105  13.621  13.337
75465W        W36886   8.197   1.290   0.477
75466W        W36887  18.784  28.522   4.271
75467W        W36888  24.638  13.264   1.720
75468W        W36889   2.437   9.846   2.789
75469W        W36890  35.375  30.989   4.682
75470W        W36891  10.153  14.653  12.047
75471W        W36892  31.899  42.526  11.996
75472W        W36893  40.383  37.363   5.239
75473W        W36894  30.926   0.423  12.034
75474W        W36895  36.001  42.285  13.805
75475W        W36896  23.573  18.634   4.666
75476W        W36897  25.671  28.553  14.916
75477W        W36898  31.452  36.883  13.492
75478W        W36899  23.728  29.933   4.279
75479W        W36900  31.598  43.842   0.458
75480W        W36901   5.389  25.104   2.391
75481W        W36902  38.529  44.415  11.891
75482W        W36903   5.733  40.962   2.183
75483W        W36904  27.011  20.652   4.641
75484W        W36905  38.903  27.027   3.835
75485W        W36906  42.280  14.651  13.493
75486W        W36907  11.330   1.292   4.131
75487W        W36908  27.459  22.508   1.394
75488W        W36909  42.511  25.209  12.574
75489W        W36910   2.728  37.901  11.572
75490W        W36911   7.249  34.082   0.734
75491W        W36912  17.211  30.053   1.214
75492W        W36913  20.687  39.814   2.858
75493W        W36914  37.482  16.697  11.422
75494W        W36915  37.048   4.858  12.958
75495W        W36916   7.911   3.720  12.841
75496W        W36917  43.394  35.568  14.937
75497W        W36918  22.511  27.544   3.246
75498W        W36919  35.530  25.022   1.726
75499W        W36920  26.139  20.030   0.923
75500W        W36921  13.319  38.471   0.322
75501W        W36922   5.265  28.015  14.483
75502W        W36923  37.458  14.594   1.772
75503W        W36924  23.204   2.765  14.811
75504W        W36925   5.770  29.087   4.336
75505W        W36926  24.668   7.266  13.539
75506W        W36927   7.314   7.773   1.432
75507W        W36928  21.557  29.987  14.448
75508W        W36929  20.530  27.063   0.928
75509W        W36930  19.558  38.026  14.857
75510W        W36931  26.980  42.496   4.284
75511W        W36932  19.112  27.035   4.838
75512W        W36933  20.607  19.273   4.128
75513W        W36934  25.199  43.349  13.844
75514W        W36935  27.041   7.181  10.436
75515W        W36936  13.125  41.807  13.807
75516W        W36937  20.119  25.014  12.088
75517W        W36938  30.427  13.263  14.397
75518W        W36939   7.749  15.209  13.400
75519W        W36940  35.932   6.422  13.832
75520W        W36941  21.025  17.171  13.954
75521W        W36942   8.319  34.536  13.327
75522W        W36943  29.466   0.323  14.379
75523W        W36944  37.545  36.382   3.348
75524W        W36945  14.591  16.740   2.888
75525W        W36946  21.175  19.277   0.323
75526W        W36947  44.810  33.075   2.833
75527W        W36948  11.344   3.327   0.933
75528W        W36949  34.580  28.577  12.869
75529W        W36950  31.092  17.280   4.732
75530W        W36951  39.932  23.716  12.886
75531W        W36952  24.518  40.045   0.731
75532W        W36953  25.001  42.778   4.788
75533W        W36954  43.781  16.747  11.124
75534W        W36955  27.493   2.945  12.436
75535W        W36956  14.328  44.802  13.062
75536W        W36957   5.251  18.712   0.869
75537W        W36958   8.860  22.189   3.813
75538W        W36959  21.526  33.113  14.343
75539W        W36960  10.654   1.941   3.202
75540W        W36961  30.048   0.289   0.311
75541W        W36962  37.858  28.530   0.775
75542W        W36963  22.236  20.203   4.818
75543W        W36964  37.445   6.319  11.500
75544W        W36965  24.509  18.575  12.900
75545W        W36966   4.840   8.882   1.227
75546W        W36967  13.792  11.847  12.086
75547W        W36968  36.948  12.843  13.390
75548W        W36969  38.477  30.032   0.853
75549W        W36970  13.282  44.492  12.381
75550W        W36971   9.172  10.166   9.951
75551W        W36972  14.753  32.401  13.942
75552W        W36973  31.944   9.241  13.492
75553W        W36974  29.667  15.599   5.226
75554W        W36975   1.250   1.481   2.747
75555W        W36976   0.913  20.263   4.186
75556W        W36977   1.297  15.199  13.508
75557W        W36978  34.082  32.966  11.893
75558W        W36979  26.681   9.807   1.434
75559W        W36980  43.333  17.168  11.500
75560W        W36981  35.540   9.363   3.311
75561W        W36982  32.898  14.247   3.830
75562W        W36983  10.648  14.797   3.369
75563W        W36984  18.148  16.711   2.734
75564W        W36985  25.530   4.264  10.914
75565W        W36986  24.016  35.918  11.605
75566W        W36987  21.220   9.734   4.740
75567W        W36988  42.345  40.867   0.918
75568W        W36989   3.748  17.576  11.860
75569W        W36990  32.406  29.020   2.250
75570W        W36991  39.994   2.426   2.346
75571W        W36992   5.788  39.932  13.478
75572W        W36993  30.460   0.754   0.286
75573W        W36994  28.613  11.322   4.263
75574W        W36995   7.802  25.199  12.969
75575W        W36996  15.085  24.210  11.593
75576W        W36997  21.684  36.021  13.891
75577W        W36998   9.242   0.317  10.421
75578W        W36999  38.950   7.203  11.526
75579W        W37000  43.985  10.193  11.125
75580W        W37001  22.179  34.908  10.601
75581W        W37002  25.051   7.416   3.186
75582W        W37003  11.165  19.129  12.963
75583W        W37004   1.875  10.774  14.404
75584W        W37005  31.457  41.508   2.295
75585W        W37006  27.503  33.011  10.512
75586W        W37007   4.941   1.315   1.801
75587W        W37008   0.466   9.706   3.381
75588W        W37009  15.315  12.803  12.845
75589W        W37010  29.954  20.217  10.530
75590W        W37011  20.134  36.566   4.282
75591W        W37012   8.701   3.818  13.404
75592W        W37013  13.623   6.758   1.856
75593W        W37014  27.053  11.154   0.414
75594W        W37015  41.481  25.170  11.927
75595W        W37016  19.684  44.995  13.418
75596W        W37017  12.743  16.227   2.746
75597W        W37018  30.067  14.125  13.398
75598W        W37019  44.958  12.821   3.307
75599W        W37020  23.685   4.882   0.855
75600W        W37021   2.756   2.256  12.363
75601W        W37022  28.095  34.971   2.870
75602W        W37023   2.275  28.150   3.248
75603W        W37024  44.455   5.787   2.272
75604W        W37025  21.728  17.145   1.254
75605W        W37026  17.154  22.536   5.160
75606W        W37027  14.700  11.308  13.501
75607W        W37028   8.375  20.102   2.860
75608W        W37029   5.697  37.568   4.223
75609W        W37030  29.126  11.735  13.019
75610W        W37031  39.848  30.446   0.265
75611W        W37032  44.439  40.831   4.779
75612W        W37033  15.722  17.113   0.437
75613W        W37034  18.723   9.863  13.844
75614W        W37035  14.262  12.625  13.488
75615W        W37036   3.826  28.111  14.358
75616W        W37037  19.755  19.670   0.481
75617W        W37038  10.243  15.810  12.457
75618W        W37039  36.997  15.093   4.732
75619W        W37040  42.023  40.994   3.359
75620W        W37041  12.278   3.890   0.463
75621W        W37042  35.005  32.407   0.836
75622W        W37043   7.806  19.231  10.644
75623W        W37044  10.328  18.235  10.420
75624W        W37045  34.040   5.855  13.830
75625W        W37046  38.467  32.079   3.788
75626W        W37047  12.172  37.556  11.020
75627W        W37048  17.165  25.590  14.307
75628W        W37049  30.518  14.806  10.481
75629W        W37050  26.100   8.751   3.788
75630W        W37051  42.014  17.733   4.123
75631W        W37052  21.581   5.696  13.404
75632W        W37053   1.807  14.186  13.346
75633W        W37054  43.456  30.520   5.214
75634W        W37055  18.684   0.817   0.276
75635W        W37056   8.718  44.477  11.498
75636W        W37057  31.055  26.641   3.813
75637W        W37058  20.216  39.884   3.776
75638W        W37059  36.537  10.315  10.908
75639W        W37060   7.730  23.669   1.930
75640W        W37061  39.061  19.158  10.454
75641W        W37062  41.452   5.244   0.797
75642W        W37063  12.182  26.544   4.136
75643W        W37064  22.544  10.310   2.354
75644W        W37065  13.171  17.287  11.494
75645W        W37066  15.196  16.652   1.310
75646W        W37067  16.727   9.768  12.383
75647W        W37068  13.605   0.467   2.742
75648W        W37069  23.032   5.691  14.471
75649W        W37070   2.743  14.139   3.696
75650W        W37071  30.076   6.796   2.867
75651W        W37072  12.327  35.038   0.728
75652W        W37073  17.123  29.928  14.028
75653W        W37074  30.531  19.577  11.904
75654W        W37075  29.105   7.884  12.883
75655W        W37076  42.918   0.403   1.772
75656W        W37077  15.582  37.413   0.949
75657W        W37078  25.616  22.517   2.860
75658W        W37079  35.487  42.825   3.735
75659W        W37080  31.448  28.172  11.573
75660W        W37081  28.681  21.190   3.178
75661W        W37082  30.509   7.878   1.903
75662W        W37083  10.369  37.913   2.834
75663W        W37084  23.507  36.466  10.478
75664W        W37085  11.750  38.430   4.627
75665W        W37086  15.175  36.859   4.745
75666W        W37087  24.034   2.872  13.058
75667W        W37088  32.626  36.545   4.670
75668W        W37089  26.162  43.409   0.772
75669W        W37090  28.155  42.933  10.914
75670W        W37091  15.285  34.599   2.676
75671W        W37092  15.584  22.724   4.317
75672W        W37093  23.549   1.252   0.762
75673W        W37094  12.256  23.588   0.745
75674W        W37095  20.609  28.450   0.450
75675W        W37096   7.282   0.905   4.723
75676W        W37097   9.786  38.519   2.712
75677W        W37098   1.386  38.394  13.806
75678W        W37099  40.987   8.359   3.675
75679W        W37100  27.156  19.183  12.439
75680W        W37101  15.271  33.090  14.442
75681W        W37102  40.380  13.170   5.116
75682W        W37103   4.448   7.345   3.860
75683W        W37104  23.723  44.891   0.246
75684W        W37105  44.336  43.427  14.356
75685W        W37106  27.981  43.400  10.131
75686W        W37107  24.625  35.560   3.726
75687W        W37108   2.430  16.724  11.956
75688W        W37109  16.678  16.186  10.465
75689W        W37110  31.451  31.033   2.343
75690W        W37111   3.377  20.205   3.163
75691W        W37112  19.056  25.505  13.878
75692W        W37113   2.934   5.891   0.852
75693W        W37114  11.369  21.264  11.102
75694W        W37115   8.685  16.146   4.202
75695W        W37116   9.386  23.063   0.284
75696W        W37117   9.283  31.538  12.924
75697W        W37118  31.509  34.900   2.303
75698W        W37119  19.545  14.683  12.405
75699W        W37120   6.892  28.456   1.256
75700W        W37121  26.092  25.050  10.430
75701W        W37122  12.638  28.042  14.855
75702W        W37123  13.107  43.313   2.359
75703W        W37124  10.173   7.773   9.935
75704W        W37125  20.247  43.958   4.682
75705W        W37126  22.075  20.652  14.852
75706W        W37127  27.017  15.105  10.438
75707W        W37128  22.029  26.206   0.275
75708W        W37129  25.501  35.857  12.996
75709W        W37130  22.154   6.208   1.375
75710W        W37131  44.495   8.204   3.302
75711W        W37132  35.447  34.466  12.367
75712W        W37133  19.678  21.156  11.877
75713W        W37134  11.255  23.098   4.264
75714W        W37135  43.487   8.848   2.694
75715W        W37136  12.120  39.325  13.913
75716W        W37137  26.962   0.850   1.361
75717W        W37138  40.819  40.969   2.799
75718W        W37139  39.861   5.286   3.181
75719W        W37140   8.813  10.639  11.970
75720W        W37141  28.627  17.648   2.371
75721W        W37142  23.534  35.854  14.359
75722W        W37143  40.017   7.316  10.538
75723W        W37144  39.551  34.907  14.842
75724W        W37145  42.423  31.041  13.998
75725W        W37146   8.163  42.891  12.089
75726W        W37147   9.255   9.740  12.545
75727W        W37148  28.600  42.899  13.870
75728W        W37149   7.331  11.740  14.786
75729W        W37150  14.099  21.030   0.894
75730W        W37151  27.628  22.223   1.377
75731W        W37152  25.966  21.652  12.931
75732W        W37153  34.438  15.687  11.027
75733W        W37154  34.880  35.496   2.826
75734W        W37155  42.851   9.830  11.076
75735W        W37156  29.147  28.464   1.705
75736W        W37157  22.692  33.004   3.823
75737W        W37158  31.928   7.171  12.462
75738W        W37159  11.334  36.911   3.739
75739W        W37160  15.677  41.842   1.787
75740W        W37161  37.560   7.325   2.242
75741W        W37162  34.026  10.360  11.403
75742W        W37163  25.098  17.622   0.732
75743W        W37164  37.348   6.405   2.311
75744W        W37165   3.922  26.605  13.513
75745W        W37166  32.623  29.457   4.255
75746W        W37167  11.792  20.131  13.484
75747W        W37168   2.311  41.525   1.853
75748W        W37169  16.227   4.822  13.447
75749W        W37170  36.352   3.258   3.859
75750W        W37171  11.779  34.928  12.963
75751W        W37172  22.681  38.523  13.803
75752W        W37173  39.875  32.447   2.266
75753W        W37174  38.009  44.888  11.965
75754W        W37175   1.450  19.591   3.362
75755W        W37176  36.951   1.334  14.398
75756W        W37177   5.320  30.112   1.264
75757W        W37178   1.275  30.060   5.737
75758W        W37179   5.193  14.743  14.364
75759W        W37180  21.611  37.927   0.455
75760W        W37181  14.188   7.753   1.801
75761W        W37182  18.645  28.634   3.232
75762W        W37183  29.471   5.208  13.387
75763W        W37184  41.927   0.364  11.459
75764W        W37185  31.494  25.505   2.876
75765W        W37186  39.500  40.536   1.889
75766W        W37187  24.121  21.569   4.687
75767W        W37188   2.470  41.877   1.377
75768W        W37189  17.292  22.522   1.812
75769W        W37190   1.421  27.101  13.378
75770W        W37191  30.474  31.023   1.756
75771W        W37192  33.016   1.817   3.637
75772W        W37193  18.050  23.993   1.789
75773W        W37194  33.525  19.142  14.488
75774W        W37195   5.875  38.390   9.617
75775W        W37196   7.804  20.604  12.508
75776W        W37197  27.038  37.040   2.307
75777W        W37198  40.369  11.231   1.268
75778W        W37199   1.303  11.228  13.906
75779W        W37200  33.926  43.894  13.869
75780W        W37201  33.125  42.452   0.727
75781W        W37202  27.194  39.417   3.746
75782W        W37203   5.208   4.708   1.779
75783W        W37204   8.396  30.029   4.153
75784W        W37205  39.493   0.939   0.866
75785W        W37206  35.082  33.578   0.461
75786W        W37207  38.981   2.796  10.565
75787W        W37208  24.479  30.160   3.157
75788W        W37209  38.332  38.839   1.310
75789W        W37210  44.886   8.712   3.733
75790W        W37211  42.950   6.216   0.931
75791W        W37212  18.273  30.470   2.676
75792W        W37213  44.319  42.838  11.572
75793W        W37214  36.551   3.316  11.937
75794W        W37215  17.304  20.145   9.976
75795W        W37216  16.695  39.964   3.788
75796W        W37217  27.196  36.927  14.819
75797W        W37218  10.804  21.111   0.816
75798W        W37219  14.269  16.666  12.883
75799W        W37220   3.709  29.175   0.941
75800W        W37221  39.543  22.247  11.420
75801W        W37222  31.087  25.491   4.646
75802W        W37223   8.205  17.237  12.979
75803W        W37224  27.578  14.163   3.176
75804W        W37225  14.094   1.944  10.503
75805W        W37226  37.989  43.314   0.448
75806W        W37227  22.620   2.901  10.554
75807W        W37228  15.666  25.056   4.186
75808W        W37229  10.319  33.477  12.940
75809W        W37230   5.894  36.455  11.454
75810W        W37231  38.504  30.091   3.157
75811W        W37232   6.336  21.156  12.996
75812W        W37233  26.960  42.823  12.485
75813W        W37234  26.996   4.259  12.371
75814W        W37235  30.442   9.215  13.791
75815W        W37236  16.129  43.792   0.361
75816W        W37237  26.968  10.215  11.921
75817W        W37238  28.635  36.929   1.350
75818W        W37239  20.538   5.829  12.860
75819W        W37240  10.658  16.285  12.474
75820W        W37241  44.916   2.270  12.050
75821W        W37242  26.059  27.058   4.123
75822W        W37243  40.493  22.686  12.965
75823W        W37244  31.938  36.592   0.878
75824W        W37245  24.157  20.712   3.287
75825W        W37246  12.654   4.755  14.293
75826W        W37247  21.165  39.037   3.667
75827W        W37248  13.228  33.998  13.446
75828W        W37249  35.019  32.905  12.074
75829W        W37250   1.462   1.748   2.693
75830W        W37251  19.129   1.272   0.465
75831W        W37252  16.193  16.625   3.761
75832W        W37253   8.345  41.818  12.396
75833W        W37254  20.693  23.091  13.888
75834W        W37255  28.586   1.931   1.927
75835W        W37256  33.132  37.465   2.194
75836W        W37257   9.242   5.777   2.380
75837W        W37258   0.845  36.081  14.870
75838W        W37259  42.892  33.612   3.262
75839W        W37260  41.887  19.104   3.150
75840W        W37261  40.025  18.204   1.705
75841W        W37262  14.249  43.355   4.219
75842W        W37263  15.134  21.539   4.122
75843W        W37264  21.160  28.454   4.199
75844W        W37265  14.610  21.757  13.034
75845W        W37266  29.001   8.279   2.670
75846W        W37267   4.393   3.805  12.042
75847W        W37268   9.370  42.997   3.824
75848W        W37269  21.190   1.263  13.898
75849W        W37270  23.543  38.464  14.444
75850W        W37271  32.006  22.557   3.368
75851W        W37272  39.501  29.025   2.723
75852W        W37273  12.348  27.500  13.794
75853W        W37274  31.426  11.712  14.324
75854W        W37275  41.795  26.655   2.697
75855W        W37276  21.123  37.076   3.837
75856W        W37277  18.754   0.838   2.691
75857W        W37278  32.429  25.100  12.059
75858W        W37279  38.457   6.196   0.425
75859W        W37280  37.029  16.801   3.225
75860W        W37281  30.138  23.130  11.913
75861W        W37282   3.288  26.519   2.216
75862W        W37283  40.933  43.808   4.690
75863W        W37284  37.850   9.305  13.326
75864W        W37285   7.674  38.437   1.443
75865W        W37286  15.617  38.831  14.911
75866W        W37287  28.073  36.422  14.337
75867W        W37288  43.292  29.481   0.295
75868W        W37289  35.486  36.085   3.150
75869W        W37290  21.705  20.764   1.846
75870W        W37291   1.400   3.375  13.037
75871W        W37292  27.453   4.294  13.966
75872W        W37293  14.095  36.060  11.936
75873W        W37294  23.567  12.622  14.845
75874W        W37295   3.804   6.815   3.797
75875W        W37296  40.963  22.039  10.634
75876W        W37297   7.235  16.579   2.344
75877W        W37298  42.376  10.307   4.345
75878W        W37299  33.460  31.014  13.046
75879W        W37300  13.690  14.113   1.298
75880W        W37301  40.396  11.660   3.310
75881W        W37302   0.748  16.113   3.750
75882W        W37303   7.682  36.983  12.370
75883W        W37304  34.478  12.733  13.901
75884W        W37305  15.251  35.375   2.839
75885W        W37306  37.934  40.008   0.325
75886W        W37307  29.961  17.569  10.493
75887W        W37308  13.173   1.459  11.112
75888W        W37309  26.522  29.170  10.907
75889W        W37310  29.059  20.666  11.460
75890W        W37311   9.257   6.182   2.747
75891W        W37312   1.781   6.836  12.360
75892W        W37313  14.618  36.388   2.282
75893W        W37314  34.983  29.991   0.328
75894W        W37315  24.682  39.554  14.922
75895W        W37316  13.341  15.094  14.982
75896W        W37317  15.746  11.186  11.458
75897W        W37318  26.015  31.042   3.329
75898W        W37319  18.722   4.803   9.985
75899W        W37320   1.969   8.760   2.293
75900W        W37321  37.560  18.058   0.964
75901W        W37322  36.088  18.247   3.829
75902W        W37323  22.214  23.114   3.823
75903W        W37324   7.834  22.734  13.060
75904W        W37325  44.271  38.383   1.755
75905W        W37326  36.005   3.761  14.409
75906W        W37327  25.687  25.675  14.931
75907W        W37328  24.512  35.095   2.763
75908W        W37329   8.697  24.068  14.354
75909W        W37330  29.169  36.053  10.999
75910W        W37331  42.795   3.752  14.333
75911W        W37332  12.767  25.686   4.755
75912W        W37333  41.020  31.495  14.493
75913W        W37334  33.443  32.081   5.203
75914W        W37335  12.762  16.311   3.681
75915W        W37336  39.515   6.383  13.916
75916W        W37337   3.306   4.747   1.697
75917W        W37338  42.925  23.677   2.390
75918W        W37339  39.868  38.952  11.468
75919W        W37340   0.848  42.885   3.820
75920W        W37341   0.358  22.231   3.214
75921W        W37342  39.330   6.743   3.834
75922W        W37343  27.954   5.424  14.960
75923W        W37344  23.557   6.209   3.864
75924W        W37345  32.600  33.467  11.568
75925W        W37346  12.793  11.368  10.919
75926W        W37347   4.382  35.091   5.107
75927W        W37348   3.426  17.196  11.611
75928W        W37349  10.685  42.499  13.386
75929W        W37350  44.395   2.324  12.957
75930W        W37351  17.225  41.465  10.474
75931W        W37352   5.225  22.078  11.539
75932W        W37353  37.986  35.036  11.533
75933W        W37354  23.518  16.169   3.746
75934W        W37355   4.888   5.759   0.817
75935W        W37356  12.276  25.559   3.363
75936W        W37357  13.723  30.432  13.799
75937W        W37358  12.646  19.686  10.433
75938W        W37359  17.713  12.781  12.887
75939W        W37360  44.306   6.284   3.630
75940W        W37361  16.212  41.921  14.486
75941W        W37362  44.497  42.881   3.723
75942W        W37363   8.387  26.108  10.898
75943W        W37364   5.821   1.476  10.637
75944W        W37365  27.627  30.415  14.429
75945W        W37366   8.658  44.357   1.288
75946W        W37367  26.499  38.391  11.925
75947W        W37368  34.612  23.210   0.455
75948W        W37369  12.137   0.979   0.304
75949W        W37370  39.524  22.545  10.532
75950W        W37371   6.856  28.095   2.279
75951W        W37372  30.618  42.903  14.435
75952W        W37373  17.109  38.042   3.751
75953W        W37374  10.769  19.583   3.149
75954W        W37375   8.835  10.230  14.773
75955W        W37376   0.813  41.889  12.074
75956W        W37377   7.886  26.533   4.227
75957W        W37378   7.409   0.745  11.439
75958W        W37379  39.450   5.876  12.891
75959W        W37380  27.966  27.644   4.305
75960W        W37381   9.805   8.361  12.834
75961W        W37382  34.102  25.612  12.359
75962W        W37383  27.160   1.316  14.830
75963W        W37384  16.760  15.154   1.785
75964W        W37385   0.752  12.662   2.761
75965W        W37386   3.765  37.014  13.426
75966W        W37387  36.518  19.607   0.345
75967W        W37388  41.466   5.887  13.372
75968W        W37389   0.281  12.616  13.414
75969W        W37390  24.980  27.122   0.794
75970W        W37391  10.356   0.452  13.893
75971W        W37392  36.016  44.840  12.096
75972W        W37393  29.126  36.542   0.295
75973W        W37394   5.215  22.067   9.659
75974W        W37395  39.453  44.977   4.668
75975W        W37396   6.836  11.353   4.774
75976W        W37397  18.236  30.575  10.022
75977W        W37398  18.191  37.466   0.312
75978W        W37399  25.009  30.156   4.209
75979W        W37400   8.851   9.710   3.721
75980W        W37401  34.532  28.157   4.329
75981W        W37402  34.901  34.546  14.479
75982W        W37403  29.162  21.128  12.467
75983W        W37404  25.124  11.255  10.505
75984W        W37405  41.443   6.768  10.597
75985W        W37406  26.114  15.084   2.195
75986W        W37407   4.311  10.755   4.258
75987W        W37408  28.481  12.186  13.935
75988W        W37409  31.501   4.320   3.175
75989W        W37410  30.061  33.894  11.868
75990W        W37411   1.977  38.858   2.255
75991W        W37412  31.088  42.993  13.030
75992W        W37413  14.750  21.615   4.675
75993W        W37414   8.805  22.085  14.986
75994W        W37415  43.449  15.663  11.547
75995W        W37416  36.393  40.980   0.823
75996W        W37417  40.465  20.714   2.242
75997W        W37418  25.134  13.615  11.863
75998W        W37419  30.469  13.838   3.283
75999W        W37420  32.523   2.885  11.606
76000W        W37421   9.722  12.129   1.299
76001W        W37422   6.405  38.554   1.428
76002W        W37423  34.586   7.780  11.971
76003W        W37424   8.359  15.794  11.584
76004W        W37425   6.425  32.576  10.986
76005W        W37426  34.090   0.838  11.877
76006W        W37427  43.022  43.850   0.942
76007W        W37428  30.102  41.923  11.557
76008W        W37429  20.165  21.729  13.963
76009W        W37430  12.175  13.641  12.833
76010W        W37431  33.926  35.927  12.862
76011W        W37432  32.471   4.737   3.240
76012W        W37433  37.052  32.533  13.336
76013W        W37434   4.843  18.624  14.286
76014W        W37435  38.044   6.388  10.643
76015W        W37436  21.030   4.354  14.789
76016W        W37437   2.833  31.517  14.912
76017W        W37438  32.944  20.157  13.507
76018W        W37439  30.932  11.634  14.455
76019W        W37440   7.241   2.244   1.731
76020W        W37441  33.409  19.779   3.646
76021W        W37442  25.020   1.270   0.780
76022W        W37443   6.859   3.351   3.375
76023W        W37444   7.730  40.321   4.795
76024W        W37445   8.900  40.369   0.864
76025W        W37446  12.331  11.776   2.802
76026W        W37447  20.750  40.404  11.570
76027W        W37448  32.614  33.412   2.330
76028W        W37449  38.489   8.858   3.168
76029W        W37450  25.995  19.564   2.738
76030W        W37451   7.249  36.592  10.423
76031W        W37452  40.424  26.059  14.978
76032W        W37453  10.230  41.489  13.360
76033W        W37454  42.301   5.216   2.671
76034W        W37455  12.750  21.172  11.464
76035W        W37456  39.510  33.472  14.948
76036W        W37457   7.884  25.190  14.325
76037W        W37458  35.000  38.458  14.394
76038W        W37459  11.849  24.560   0.879
76039W        W37460  40.338   1.458  13.375
76040W        W37461  14.604  42.955  10.936
76041W        W37462  30.949  25.536   1.758
76042W        W37463  10.646  15.091   1.695
76043W        W37464  30.512  38.959  11.006
76044W        W37465  23.735  35.880   1.901
76045W        W37466  21.609  15.309   2.728
76046W        W37467  37.056  34.433   1.241
76047W        W37468  44.940  35.876  14.879
76048W        W37469  30.643  34.891  11.955
76049W        W37470  12.189  40.817  14.338
76050W        W37471   5.733   0.787   4.122
76051W        W37472  44.383  33.625   0.841
76052W        W37473  37.407  17.200   4.233
76053W        W37474   6.298  21.080   2.756
76054W        W37475  25.220  40.508  11.890
76055W        W37476  19.611  17.140   0.875
76056W        W37477  43.351   7.720   3.644
76057W        W37478  22.050  25.692  11.484
76058W        W37479  20.655  23.552  10.618
76059W        W37480  42.925  34.909   4.180
76060W        W37481  32.985  33.100   4.805
76061W        W37482  28.625  33.046  13.048
76062W        W37483  26.505  32.088   2.322
76063W        W37484  42.482  36.882  14.924
76064W        W37485  29.485   2.229   3.860
76065W        W37486  37.426   1.406   0.806
76066W        W37487   8.353  26.689   1.729
76067W        W37488  10.664  17.106  12.350
76068W        W37489  40.038  33.036   3.635
76069W        W37490  44.835  10.342   4.669
76070W        W37491  36.031  39.888   1.880
76071W        W37492  34.407  33.950  14.462
76072W        W37493  25.030  21.024  10.523
76073W        W37494   9.190  25.655   4.702
76074W        W37495  15.105   0.938   4.696
76075W        W37496  28.136   1.866   3.337
76076W        W37497  18.061   9.793  12.066
76077W        W37498  37.407  29.059  11.057
76078W        W37499  28.498  30.931   3.667
76079W        W37500  23.726   6.863  13.862
76080W        W37501  21.137  26.681   4.734
76081W        W37502  20.160  34.404   4.659
76082W        W37503  25.524   5.288  10.640
76083W        W37504  12.284  13.696   0.336
76084W        W37505   6.919  38.873  13.048
76085W        W37506   2.796  41.877   1.868
76086W        W37507  38.456  33.608   0.342
76087W        W37508  21.143  26.106  14.295
76088W        W37509   5.880  12.217  12.937
76089W        W37510  12.844  32.958   0.897
76090W        W37511  28.998  32.089   3.167
76091W        W37512  36.392   9.351  13.909
76092W        W37513  33.435   6.384   2.217
76093W        W37514  17.182  21.582  11.103
76094W        W37515  29.989  32.999  13.472
76095W        W37516  24.677  16.654  10.956
76096W        W37517  42.328  32.621   1.783
76097W        W37518  22.646  19.059   4.194
76098W        W37519   8.840  41.425   0.867
76099W        W37520  12.643  26.968   1.759
76100W        W37521  13.826  38.458  13.928
76101W        W37522   0.886  24.596  13.820
76102W        W37523  42.954  12.292   0.343
76103W        W37524   3.870  22.225   1.928
76104W        W37525  26.618  42.954   4.250
76105W        W37526   0.974  37.979   4.242
76106W        W37527  43.292   2.749  11.927
76107W        W37528  27.573  29.960   0.469
76108W        W37529   6.796  43.407   4.810
76109W        W37530  26.609   6.264   3.843
76110W        W37531  28.986  44.943  11.497
76111W        W37532  20.222  30.104  14.428
76112W        W37533  18.662   6.727   2.757
76113W        W37534  29.575   4.710  10.621
76114W        W37535  25.213  29.063   3.189
76115W        W37536  35.455  44.480   2.382
76116W        W37537  32.954  38.006   3.172
76117W        W37538  14.792  44.273   4.198
76118W        W37539  29.101   8.780   1.393
76119W        W37540   2.823  21.612   2.380
76120W        W37541   6.688  38.037  11.582
76121W        W37542  37.833  19.656  14.281
76122W        W37543  25.144  28.441   1.373
76123W        W37544  24.996   2.226   3.629
76124W        W37545  33.575  24.225   0.735
76125W        W37546   6.834   6.220  10.587
76126W        W37547   1.790   1.347  10.000
76127W        W37548  19.098  37.855  12.479
76128W        W37549  36.921  41.461   3.770
76129W        W37550  28.988  32.022  12.496
76130W        W37551  13.214  24.647  11.570
76131W        W37552  13.247  14.623   2.388
76132W        W37553   0.445  44.905  10.496
76133W        W37554  21.574  11.369   2.736
76134W        W37555  42.858   5.769  12.079
76135W        W37556  21.541  27.002   2.236
76136W        W37557  29.026  13.241   3.244
76137W        W37558   8.790   4.276  13.445
76138W        W37559  18.082  41.929   1.231
76139W        W37560  12.835   2.820   3.633
76140W        W37561   4.387  23.163   5.710
76141W        W37562  44.351  20.072  11.426
76142W        W37563  24.526  21.609   3.339
76143W        W37564   0.368  21.626  11.390
76144W        W37565  29.937  15.171  13.053
76145W        W37566  34.389  36.977   2.748
76146W        W37567  13.714  38.371  13.415
76147W        W37568   1.810  30.071  12.410
76148W        W37569  12.821  12.632  11.859
76149W        W37570   1.470  29.521  11.062
76150W        W37571  25.627  38.937  12.559
76151W        W37572  34.999  41.466   0.796
76152W        W37573  32.449  19.755  13.902
76153W        W37574  24.586  14.101  12.861
76154W        W37575  27.657  44.328   1.893
76155W        W37576  33.017  25.610  10.459
76156W        W37577  33.922  28.472  14.490
76157W        W37578  38.496  42.450  11.562
76158W        W37579  22.572  32.115   4.774
76159W        W37580  42.431  28.962   2.297
76160W        W37581   3.416  16.734   1.241
76161W        W37582   4.250  39.875   4.153
76162W        W37583   3.343  39.934   0.398
76163W        W37584  30.098  26.674  13.336
76164W        W37585  37.546   4.424  12.473
76165W        W37586  27.501  30.948  10.589
76166W        W37587  13.617  20.576   3.789
76167W        W37588  34.962  41.408  12.965
76168W        W37589  16.202  41.801  13.983
76169W        W37590  18.772  17.775   3.770
76170W        W37591   3.719  29.497   3.231
76171W        W37592   5.320  25.669  12.389
76172W        W37593  32.450   7.250  13.044
76173W        W37594  34.905  10.836   4.804
76174W        W37595  41.891  13.628   2.201
76175W        W37596  15.149   5.225  12.898
76176W        W37597  30.910  31.121  10.549
76177W        W37598  22.557   9.347   0.328
76178W        W37599  16.582  29.492  14.393
76179W        W37600   7.373  16.740  11.922
76180W        W37601  18.743  26.124  13.809
76181W        W37602   1.781   7.195   3.164
76182W        W37603  15.795   1.742   3.201
76183W        W37604   1.801   9.727   4.237
76184W        W37605  10.858  41.961   3.315
76185W        W37606  21.517  24.221   2.220
76186W        W37607   3.298   0.908   0.769
76187W        W37608  41.895   9.729   1.848
76188W        W37609   5.850   2.961   0.396
76189W        W37610  41.033  44.463   0.825
76190W        W37611  30.585  27.486  13.950
76191W        W37612   5.843  18.577   4.117
76192W        W37613  40.834   3.378  11.876
76193W        W37614  18.767  18.615  13.484
76194W        W37615  40.458   6.716  11.567
76195W        W37616  33.107  27.161   2.199
76196W        W37617  19.740   4.755  14.957
76197W        W37618  27.478  36.588   1.221
76198W        W37619  29.023  37.338  10.966
76199W        W37620  38.500  37.373   1.447
76200W        W37621  30.004  34.427  10.501
76201W        W37622  31.601   5.874   1.904
76202W        W37623   8.837   8.678   3.676
76203W        W37624   8.724  14.784  14.925
76204W        W37625  15.083   9.812  14.977
76205W        W37626  33.908  24.657  14.013
76206W        W37627  42.017  32.989   3.667
76207W        W37628  42.936  19.640   2.235
76208W        W37629  10.364   2.819   1.844
76209W        W37630  39.371  32.431  14.938
76210W        W37631   7.880  39.416  12.396
76211W        W37632  26.134  14.339  10.612
76212W        W37633  24.129  23.711  13.353
76213W        W37634  16.681  14.591  12.059
76214W        W37635  23.157  28.662  12.023
76215W        W37636  16.295  18.577  10.944
76216W        W37637   1.275  10.695  12.359
76217W        W37638  11.626  42.455  14.001
76218W        W37639   9.822  42.433   3.276
76219W        W37640  14.167  14.297  13.938
76220W        W37641   3.346  28.933  10.054
76221W        W37642   5.765   6.425   4.711
76222W        W37643   0.805   4.319   3.707
76223W        W37644  37.844  12.344  11.939
76224W        W37645   4.334   7.667  11.601
76225W        W37646   8.872  15.253   3.242
76226W        W37647  33.050   1.428   3.384
76227W        W37648  22.202  30.915   1.322
76228W        W37649  10.873  39.005   3.209
76229W        W37650  22.077  28.149   3.833
76230W        W37651  23.022   8.823   0.268
76231W        W37652  16.145  43.964   3.320
76232W        W37653  41.366  41.318  12.848
76233W        W37654   4.310  28.546  12.390
76234W        W37655  24.178   5.249   3.333
76235W        W37656  42.433  25.104  15.000
76236W        W37657  28.154   6.897  13.998
76237W        W37658  19.188  38.888   0.903
76238W        W37659   1.856   1.967   3.206
76239W        W37660  21.594  11.304  12.831
76240W        W37661   1.439  26.544  10.062
76241W        W37662   6.690  27.056   0.862
76242W        W37663  40.912  35.603  10.949
76243W        W37664   2.960  34.949   5.589
76244W        W37665  44.864  36.474   3.157
76245W        W37666  38.355  32.497   2.763
76246W        W37667  38.883  28.988  11.128
76247W        W37668  10.140   6.864   0.438
76248W        W37669  28.569  18.635   1.352
76249W        W37670  37.930  17.619   4.740
76250W        W37671  38.985  16.150  12.504
76251W        W37672  15.212   0.266   2.745
76252W        W37673  28.451   1.785  13.034
76253W        W37674   6.363  44.879   4.292
76254W        W37675  24.091  15.146  13.040
76255W        W37676  10.158   8.218  11.583
76256W        W37677  44.422  23.024  14.782
76257W        W37678  10.246  40.049  14.492
76258W        W37679  22.141  16.766   3.743
76259W        W37680   6.814  24.528  13.014
76260W        W37681  24.639   3.871   2.182
76261W        W37682  38.466   5.409  14.421
76262W        W37683  23.662  43.292   1.394
76263W        W37684  44.826  14.127   3.298
76264W        W37685   0.909   8.255   4.190
76265W        W37686  27.983  14.126   4.293
76266W        W37687  26.642  10.324   4.810
76267W        W37688  43.862  25.509  10.506
76268W        W37689  43.436  13.185  12.894
76269W        W37690  34.580  40.860  12.457
76270W        W37691  31.125  32.975  10.645
76271W        W37692  26.077  36.877   4.301
76272W        W37693  32.949  37.501  13.480
76273W        W37694   4.863   3.896  13.438
76274W        W37695  20.041  10.220  12.941
76275W        W37696  38.400   2.248  12.460
76276W        W37697  40.380  30.430   1.889
76277W        W37698  12.720   2.264   0.422
76278W        W37699  15.704  27.072   1.839
76279W        W37700  15.094  17.094   0.768
76280W        W37701   9.831   1.898   1.832
76281W        W37702  25.553  12.353  11.526
76282W        W37703  37.873  26.523  11.055
76283W        W37704   3.239  38.034   2.679
76284W        W37705  13.343  42.304  10.615
76285W        W37706  32.485  38.558   1.701
76286W        W37707  29.032   8.824   0.758
76287W        W37708   0.303  43.842   1.803
76288W        W37709  27.626  37.927   1.700
76289W        W37710  43.402  39.051   0.893
76290W        W37711   2.310  27.449   2.743
76291W        W37712  41.499  26.702   1.922
76292W        W37713   8.771   4.776  11.018
76293W        W37714  16.125  34.412  10.961
76294W        W37715  12.293   9.350   1.919
76295W        W37716  38.327   7.862   4.245
76296W        W37717  11.234  42.887   1.248
76297W        W37718  28.175   1.965   1.741
76298W        W37719  35.909  39.061   0.427
76299W        W37720  25.980  32.412   2.670
76300W        W37721  15.241  16.748  10.505
76301W        W37722   5.700  11.663  11.521
76302W        W37723  24.543  12.162   1.833
76303W        W37724  24.175  43.317   4.680
76304W        W37725  22.033  29.101   1.899
76305W        W37726  26.120   1.301   2.813
76306W        W37727  43.879  21.193  14.418
76307W        W37728  24.129  40.447  12.444
76308W        W37729  17.736  31.015   2.377
76309W        W37730  26.541  12.167   3.762
76310W        W37731  20.549  37.930   0.483
76311W        W37732  39.922  11.148  11.496
76312W        W37733  18.157  32.503   4.680
76313W        W37734  28.138  38.900  10.993
76314W        W37735  35.096   5.296   3.862
76315W        W37736  20.070  13.800   2.359
76316W        W37737  29.498  11.849  11.037
76317W        W37738   5.725   6.351  13.813
76318W        W37739  15.790  38.489   2.895
76319W        W37740  12.163   4.272  11.057
76320W        W37741  16.597  32.919  12.981
76321W        W37742  23.581  15.691  12.908
76322W        W37743  41.418  13.250  12.885
76323W        W37744  34.031   1.334  12.876
76324W        W37745  33.394  29.568   3.661
76325W        W37746  15.149  37.405  13.534
76326W        W37747  31.963  12.666  12.978
76327W        W37748  39.937  18.699   2.830
76328W        W37749  14.166  11.270   2.180
76329W        W37750  28.563   8.266  14.442
76330W        W37751  42.409  44.458   4.129
76331W        W37752  33.986  28.479  14.802
76332W        W37753  27.675  18.552  13.447
76333W        W37754  29.114  25.069   3.704
76334W        W37755   8.817  17.227   3.383
76335W        W37756  20.044  25.590   0.260
76336W        W37757  23.496  37.891  14.886
76337W        W37758  24.151   1.419  12.439
76338W        W37759  26.062  32.449   0.958
76339W        W37760   3.354   8.384   3.159
76340W        W37761  18.704  40.419   3.844
76341W        W37762  33.425  20.035  10.947
76342W        W37763  12.809   8.880   4.175
76343W        W37764  16.166  32.549  12.376
76344W        W37765  39.360  29.443   2.867
76345W        W37766   7.337  21.570   4.181
76346W        W37767   4.840  24.087   1.815
76347W        W37768  13.166  26.172  12.452
76348W        W37769  14.308   2.288   0.765
76349W        W37770  15.680   2.763   0.299
76350W        W37771   4.751  12.699   1.338
76351W        W37772  31.570   6.401  11.494
76352W        W37773  21.086   8.389  11.518
76353W        W37774  29.050   7.704   1.822
76354W        W37775   3.283  34.552  10.408
76355W        W37776   3.293   9.331  14.809
76356W        W37777  25.988  27.081  11.128
76357W        W37778  40.981   4.756   1.858
76358W        W37779  28.643  20.542  14.307
76359W        W37780  34.423  32.558   2.895
76360W        W37781  34.086  38.494   0.840
76361W        W37782   2.468   8.864  12.839
76362W        W37783  16.189  41.881   4.196
76363W        W37784  17.575  31.564  12.544
76364W        W37785  27.671  22.062  14.449
76365W        W37786  40.323  19.655  12.528
76366W        W37787  31.104  24.651   1.848
76367W        W37788  11.851  25.670   2.802
76368W        W37789  24.643  13.626   1.370
76369W        W37790  35.458  20.154   2.874
76370W        W37791  35.881   0.969   3.669
76371W        W37792  43.785  30.117  12.389
76372W        W37793  16.150  16.174   9.988
76373W        W37794  39.840   6.802   3.817
76374W        W37795  19.767  13.844   2.700
76375W        W37796   6.266  42.382   1.740
76376W        W37797  25.590  43.778  11.084
76377W        W37798  44.265  16.654   2.419
76378W        W37799  24.548   6.688   4.777
76379W        W37800  28.082  43.509  11.400
76380W        W37801  34.979  26.959   1.695
76381W        W37802   6.401  35.584   3.820
76382W        W37803  36.052  23.708   0.283
76383W        W37804   9.162  34.380  10.625
76384W        W37805   4.925  16.618   0.925
76385W        W37806   9.755   6.715  14.793
76386W        W37807   0.773  19.765   0.450
76387W        W37808  37.447   1.407  11.056
76388W        W37809  22.700  30.941  10.627
76389W        W37810  23.029  21.587  12.380
76390W        W37811  31.423  43.824  13.942
76391W        W37812  14.319  29.997  13.417
76392W        W37813  43.985  39.041  13.919
76393W        W37814   9.710   0.893  11.563
76394W        W37815   4.767  32.395  14.978
76395W        W37816  24.192   8.314  14.947
76396W        W37817   3.779  39.970  12.064
76397W        W37818  41.824  38.544   3.838
76398W        W37819  40.542  32.984   3.716
76399W        W37820  27.619  12.829  12.502
76400W        W37821  14.129  21.721   3.674
76401W        W37822   5.333  17.567   1.818
76402W        W37823  37.949   1.297  14.910
76403W        W37824  30.065  34.573   2.336
76404W        W37825  33.556  31.465  10.508
76405W        W37826  16.577  19.689   2.743
76406W        W37827  29.941  27.056  10.532
76407W        W37828  15.614   4.925  11.858
76408W        W37829   7.260  42.815  14.468
76409W        W37830   0.834   3.724  12.974
76410W        W37831  41.416  16.175   0.948
76411W        W37832  44.472  33.916  12.034
76412W        W37833  39.917   8.194   1.423
76413W        W37834   3.712   8.358   4.778
76414W        W37835  25.607  37.438   2.709
76415W        W37836  42.350  19.163  12.876
76416W        W37837   4.786  16.098  14.834
76417W        W37838  22.042   3.325  11.553
76418W        W37839  13.769  12.748   4.197
76419W        W37840   5.353   9.214   4.351
76420W        W37841  15.323  31.563   0.258
76421W        W37842  24.593  15.779  11.856
76422W        W37843  39.841  17.301   2.346
76423W        W37844  32.112  29.971   1.898
76424W        W37845  17.166   5.216   0.317
76425W        W37846  35.519  24.088   4.830
76426W        W37847  43.984  26.978   0.296
76427W        W37848  40.910  43.915   1.935
76428W        W37849  12.780  26.503   1.733
76429W        W37850  35.990  23.527  10.965
76430W        W37851  24.139  20.123   4.683
76431W        W37852  35.458  13.789  13.397
76432W        W37853   1.748  11.314  14.804
76433W        W37854  35.420  30.447  10.469
76434W        W37855  19.763  37.860  13.812
76435W        W37856  16.694   8.318   4.696
76436W        W37857  44.800  38.043  14.008
76437W        W37858   0.279  17.561   3.215
76438W        W37859   9.245   0.467  14.999
76439W        W37860   8.750  22.129  11.927
76440W        W37861  18.150  43.359   2.882
76441W        W37862  20.545  36.522  10.983
76442W        W37863   7.856   3.893  11.014
76443W        W37864  28.023   9.158   4.773
76444W        W37865   8.719  44.428  10.498
76445W        W37866  23.117  30.078   2.750
76446W        W37867  10.805  44.905   0.747
76447W        W37868  41.298  14.098  10.530
76448W        W37869  42.336  20.617  11.973
76449W        W37870  21.660  27.075  14.017
76450W        W37871   4.730  13.324   2.704
76451W        W37872  26.611  12.294  12.996
76452W        W37873  34.984  16.809   2.794
76453W        W37874  36.002  36.573  11.427
76454W        W37875  15.143  27.582  11.109
76455W        W37876  29.628   4.414  12.429
76456W        W37877  23.580  26.012  12.842
76457W        W37878   8.317   8.688   3.804
76458W        W37879   9.231  19.063  13.953
76459W        W37880  35.066  18.259  12.943
76460W        W37881  34.067  16.191  11.474
76461W        W37882  15.247  22.211   1.881
76462W        W37883  25.027  36.404  14.317
76463W        W37884  22.741   4.261   9.980
76464W        W37885  33.593  21.545   0.310
76465W        W37886  43.920  41.907   4.151
76466W        W37887  39.862   1.249  14.516
76467W        W37888  17.725  29.513   4.675
76468W        W37889  38.835  33.523  11.922
76469W        W37890   1.275  24.162   0.313
76470W        W37891  44.283  29.533  14.886
76471W        W37892  39.395  30.444   5.129
76472W        W37893   1.274  25.500   4.121
76473W        W37894  37.850  44.005  13.844
76474W        W37895  10.227  24.984   1.716
76475W        W37896  24.058  11.657  12.569
76476W        W37897  44.828  10.681  11.460
76477W        W37898  39.820   5.729   1.797
76478W        W37899  28.517  38.569  11.115
76479W        W37900   1.901  15.236  13.539
76480W        W37901   1.768  38.398  11.541
76481W        W37902  19.197   1.822   4.276
76482W        W37903  13.303   4.253   3.183
76483W        W37904   3.440  31.042  12.852
76484W        W37905   4.372  42.306   2.307
76485W        W37906  41.323  42.947  14.465
76486W        W37907  22.148  29.611  14.883
76487W        W37908  44.877  32.592   0.813
76488W        W37909  21.115  18.630  10.444
76489W        W37910  38.920  30.620  12.380
76490W        W37911  28.022  25.049   3.320
76491W        W37912  43.295  14.187  11.543
76492W        W37913   5.282   1.477  10.160
76493W        W37914   6.889  40.517  12.462
76494W        W37915  41.366  24.101   1.331
76495W        W37916  27.172   5.718   0.743
76496W        W37917  28.108   0.451  10.086
76497W        W37918  28.632  29.955  12.010
76498W        W37919  36.550  17.564  14.304
76499W        W37920  11.634   6.849   2.828
76500W        W37921  41.306  20.635  11.080
76501W        W37922  34.000  13.189   0.951
76502W        W37923  30.463   5.687  13.958
76503W        W37924  33.082   3.715   1.210
76504W        W37925  12.762   6.872  10.604
76505W        W37926  24.487  41.438   1.840
76506W        W37927  35.595  23.012   1.330
76507W        W37928  23.673  26.108  10.932
76508W        W37929  10.312  30.922  14.010
76509W        W37930   8.696  27.117  13.991
76510W        W37931  36.079  27.161  12.460
76511W        W37932  25.050  43.988  14.931
76512W        W37933  26.675   9.276  12.857
76513W        W37934  22.539  44.839  10.496
76514W        W37935  33.099  40.398   4.747
76515W        W37936  19.187  41.885   3.266
76516W        W37937   9.691   3.731   3.857
76517W        W37938  34.911  25.998   2.341
76518W        W37939  18.761  36.434   2.755
76519W        W37940  13.199  32.532   0.796
76520W        W37941  41.398   3.264   1.305
76521W        W37942   8.758  19.060  12.536
76522W        W37943  28.140  18.551  12.912
76523W        W37944  12.726  28.998   4.750
76524W        W37945  44.478  11.793   4.352
76525W        W37946  29.012  12.195   3.867
76526W        W37947  40.023  16.106   5.281
76527W        W37948  37.945   7.274  12.982
76528W        W37949  15.134   5.926   0.906
76529W        W37950  34.552  43.440   2.887
76530W        W37951  16.670  42.313   1.769
76531W        W37952  13.619  18.788   1.833
76532W        W37953  24.069  30.049  12.533
76533W        W37954  36.419  28.029   3.673
76534W        W37955  17.732   0.467   0.422
76535W        W37956  35.860  22.114  11.534
76536W        W37957   6.767  11.310   1.822
76537W        W37958  30.653  44.940  14.857
76538W        W37959  36.437  23.605  10.602
76539W        W37960   9.742  30.995   3.808
76540W        W37961  41.375   8.171   1.397
76541W        W37962  43.297  24.547   2.716
76542W        W37963  17.569  35.064   3.228
76543W        W37964  11.671   8.403  11.558
76544W        W37965  16.286  22.096   4.645
76545W        W37966  13.133  28.941  10.601
76546W        W37967  31.505  20.206  10.404
76547W        W37968  38.876   9.245   2.268
76548W        W37969   7.895   3.287   4.336
76549W        W37970  12.125  26.048   0.410
76550W        W37971  36.021  34.017  14.310
76551W        W37972  16.129  20.608   4.144
76552W        W37973  32.923  36.381  14.981
76553W        W37974  16.253  34.401   1.421
76554W        W37975  27.955  10.303   0.270
76555W        W37976  16.259  12.222  14.968
76556W        W37977  14.263  12.677   4.743
76557W        W37978   5.872  39.992  11.046
76558W        W37979   7.182  22.512  13.353
76559W        W37980  18.594  27.687   1.728
76560W        W37981   1.926  10.326   4.618
76561W        W37982  15.612   2.445   2.842
76562W        W37983  41.876  21.171   0.911
76563W        W37984   5.210  11.279  11.950
76564W        W37985  38.894  25.574   4.235
76565W        W37986  18.149  12.635   9.497
76566W        W37987  16.759   0.284  14.926
76567W        W37988  37.490  31.581  11.404
76568W        W37989  44.426   8.367   1.737
76569W        W37990  13.298  38.465  13.818
76570W        W37991  19.597  34.981  14.915
76571W        W37992  29.652   6.407  13.461
76572W        W37993  38.493  21.744   4.328
76573W        W37994  32.602  24.531  12.488
76574W        W37995  41.436  38.061  12.062
76575W        W37996  27.068  24.558  10.457
76576W        W37997   2.330   7.232  10.038
76577W        W37998   0.426  16.581  11.406
76578W        W37999  17.567   0.280   0.831
76579W        W38000  18.652  10.702  10.635
76580W        W38001  22.603  41.366  14.488
76581W        W38002   8.829  42.965   1.850
76582W        W38003  22.239  29.562  10.904
76583W        W38004  19.549  32.440  12.850
76584W        W38005   4.352  10.852  13.968
76585W        W38006  15.713  39.971   2.337
76586W        W38007  13.127  27.553   2.286
76587W        W38008  14.687   9.169   2.673
76588W        W38009   0.919  43.814  12.939
76589W        W38010  16.637   0.325   1.732
76590W        W38011  35.014  36.977   1.855
76591W        W38012  24.708  33.057  14.382
76592W        W38013  23.150  36.564  10.512
76593W        W38014  36.398  29.040   2.846
76594W        W38015   6.410   8.684  11.466
76595W        W38016  12.340  26.047  14.341
76596W        W38017  23.562  35.995   3.664
76597W        W38018  31.558  26.015  12.872
76598W        W38019   4.921  14.794  10.619
76599W        W38020  16.715  40.417  14.758
76600W        W38021  26.663  14.685   4.312
76601W        W38022  35.074   6.286  11.009
76602W        W38023  25.473  39.471  14.829
76603W        W38024  21.562  10.820  11.461
76604W        W38025  31.949  26.178   3.228
76605W        W38026  19.590  36.074   2.890
76606W        W38027  22.617  39.404  10.156
76607W        W38028  25.590  44.831   0.844
76608W        W38029  35.953  13.307   4.611
76609W        W38030  12.166  32.555   2.890
76610W        W38031  19.760  44.903  14.968
76611W        W38032  38.020  29.019   2.796
76612W        W38033  23.546  12.304   3.661
76613W        W38034  38.570  13.768   3.210
76614W        W38035  21.259   8.701  12.035
76615W        W38036  13.278  41.856  12.393
76616W        W38037  13.146  14.288  12.050
76617W        W38038  17.703   6.258   3.680
76618W        W38039  18.571  18.600   4.816
76619W        W38040  31.034  12.139  14.514
76620W        W38041  17.217   7.777   3.637
76621W        W38042  27.165  40.479  11.126
76622W        W38043  17.678  13.322  11.930
76623W        W38044   4.934  11.191  12.078
76624W        W38045  28.970  11.628   2.673
76625W        W38046  43.921  12.348  12.968
76626W        W38047  27.080  40.989  13.943
76627W        W38048  28.063  19.539   3.780
76628W        W38049  30.998  21.201  14.874
76629W        W38050  30.150  21.067   2.270
76630W        W38051  29.919  10.376   4.686
76631W        W38052  11.165  12.215   4.160
76632W        W38053  36.584  28.050  14.389
76633W        W38054  20.031   1.434   3.318
76634W        W38055   1.311  14.277   0.372
76635W        W38056  19.551  19.042  11.469
76636W        W38057  10.750  44.425   0.248
76637W        W38058   1.426   9.204   3.156
76638W        W38059   2.837  42.467  14.454
76639W        W38060  19.164  31.447   1.918
76640W        W38061  30.152  17.205  11.898
76641W        W38062  34.022  22.192   0.726
76642W        W38063  29.933  40.306   1.804
76643W        W38064  35.042  42.370   1.827
76644W        W38065  20.084  19.716  11.902
76645W        W38066  18.251  18.257  11.574
76646W        W38067  40.422  30.539   3.160
76647W        W38068   3.758  43.884   5.660
76648W        W38069   7.288  29.494   4.175
76649W        W38070  39.422  17.173   4.121
76650W        W38071   4.758  37.024   2.408
76651W        W38072  41.978  14.703  12.942
76652W        W38073   7.830  15.728   1.773
76653W        W38074  23.555  39.882   0.438
76654W        W38075  21.520   6.270   0.400
76655W        W38076  40.888  21.172  12.851
76656W        W38077  13.645  29.435  12.490
76657W        W38078  12.181   7.299   2.206
76658W        W38079   4.348   7.719  10.947
76659W        W38080  30.909   3.917  10.911
76660W        W38081  24.095  41.931   4.779
76661W        W38082  18.622  42.283   4.806
76662W        W38083  39.868   2.817  14.324
76663W        W38084  38.068  38.358  12.476
76664W        W38085  20.751  22.595   4.297
76665W        W38086   7.738  30.619   0.885
76666W        W38087  41.431  32.552   3.187
76667W        W38088  20.256  27.981  10.930
76668W        W38089  26.039  16.589  10.928
76669W        W38090  40.513  13.263   3.720
76670W        W38091  30.109  15.815   0.266
76671W        W38092  12.116  10.668   0.348
76672W        W38093  24.055  34.475   4.342
76673W        W38094  24.223  15.752   4.354
76674W        W38095  16.652  16.154  11.092
76675W        W38096  33.068  34.110   3.715
76676W        W38097  36.070  29.597  11.088
76677W        W38098  28.124  17.590  14.457
76678W        W38099  12.818  14.242  11.936
76679W        W38100  18.717  19.270   1.388
76680W        W38101  25.182  34.408  10.569
76681W        W38102  14.268  13.349   3.307
76682W        W38103  24.146  31.080  10.599
76683W        W38104  29.136   7.212   2.684
76684W        W38105  37.345  19.756   4.603
76685W        W38106   4.373  37.881  12.492
76686W        W38107  39.417  31.119  14.017
76687W        W38108  13.706  38.865   4.155
76688W        W38109  25.681  24.528  10.594
76689W        W38110  30.463  38.398  13.506
76690W        W38111  11.296  24.589  13.877
76691W        W38112  30.591  10.855  11.005
76692W        W38113  14.303   7.797   2.351
76693W        W38114  13.761  21.140   4.353
76694W        W38115  15.704  43.348   0.359
76695W        W38116  25.962  31.572   2.720
76696W        W38117  19.622  28.110  11.025
76697W        W38118   9.196   9.807   4.308
76698W        W38119  39.055   9.707  13.932
76699W        W38120  10.769   3.914   4.283
76700W        W38121  40.539  29.511  11.566
76701W        W38122  24.999   8.811  10.020
76702W        W38123   4.220  32.584   4.333
76703W        W38124  24.705  12.118  13.831
76704W        W38125  38.471   4.320   4.132
76705W        W38126  17.599  27.977   3.200
76706W        W38127   9.184  23.616   1.339
76707W        W38128  34.531  19.258  12.074
76708W        W38129  28.660  44.317   2.678
76709W        W38130  22.608  29.074   3.656
76710W        W38131  38.996   9.854   0.741
76711W        W38132   8.214  36.860   5.232
76712W        W38133   3.844  13.349   1.869
76713W        W38134   9.164  28.545  11.613
76714W        W38135   7.335  41.492   3.671
76715W        W38136  37.008   2.375   4.130
76716W        W38137   0.800   6.741  14.805
76717W        W38138  30.067  44.308  11.088
76718W        W38139  23.701  23.497   0.255
76719W        W38140  37.364  20.049  10.600
76720W        W38141  14.682  10.788  11.942
76721W        W38142  35.017  35.009   0.405
76722W        W38143  21.675  27.489   3.270
76723W        W38144   3.367  37.451   5.108
76724W        W38145  21.622  15.677  11.869
76725W        W38146   3.833   7.390   4.152
76726W        W38147  36.534  32.420   2.315
76727W        W38148  44.967  15.231  13.044
76728W        W38149  32.900  37.411  12.462
76729W        W38150  34.542   0.825   1.872
76730W        W38151  14.699  44.766  12.935
76731W        W38152   4.203  10.640  12.897
76732W        W38153  27.617  14.750   1.387
76733W        W38154  11.725   0.355  11.584
76734W        W38155  13.784  35.572   4.287
76735W        W38156  14.098  16.656  13.309
76736W        W38157  31.009  12.316   2.376
76737W        W38158  39.921  31.066  11.425
76738W        W38159  21.700  33.937  13.854
76739W        W38160  11.203  38.896   4.774
76740W        W38161  32.038  39.010  14.889
76741W        W38162  20.155   9.282   2.214
76742W        W38163  31.557   7.357   2.388
76743W        W38164  20.660  44.816  14.317
76744W        W38165  11.277  40.344  13.418
76745W        W38166  16.718   0.455  10.546
76746W        W38167  39.362  15.649  13.954
76747W        W38168  10.302  38.822  13.456
76748W        W38169  24.068  36.880  14.929
76749W        W38170  27.570  21.576  11.446
76750W        W38171  28.630  43.317  12.010
76751W        W38172  42.326  13.151  13.056
76752W        W38173   6.894   3.310  14.885
76753W        W38174  23.618  15.782  12.449
76754W        W38175  21.200   4.419  12.507
76755W        W38176  26.134  43.779   4.717
76756W        W38177  24.551   6.827  14.875
76757W        W38178   1.910   1.452  10.568
76758W        W38179   1.800   2.229  14.766
76759W        W38180  15.130  36.064   4.681
76760W        W38181  44.393   2.916  11.094
76761W        W38182   3.372   5.790   4.669
76762W        W38183   8.836   4.241  10.513
76763W        W38184  37.373  14.137   0.765
76764W        W38185  27.588  43.413  13.437
76765W        W38186  16.581  18.213  11.603
76766W        W38187   9.822  18.116   3.209
76767W        W38188  37.499   8.220  10.532
76768W        W38189  32.935  35.959   0.736
76769W        W38190  34.109  21.619   3.854
76770W        W38191   5.364   2.305   3.376
76771W        W38192   9.790  14.166  13.507
76772W        W38193  27.998  28.152   1.271
76773W        W38194  38.329  43.470  10.911
76774W        W38195  44.405  38.517   2.806
76775W        W38196   6.710  34.608   0.288
76776W        W38197  18.628  34.951   0.788
76777W        W38198  31.990  20.065   3.851
76778W        W38199  32.078  41.853  12.472
76779W        W38200  20.208  14.652   1.865
76780W        W38201  25.067   7.293   2.285
76781W        W38202   3.851  21.636   4.612
76782W        W38203  28.182   8.870  14.280
76783W        W38204  11.703  21.122  10.089
76784W        W38205  12.344   1.910  11.039
76785W        W38206  16.316  11.674  14.900
76786W        W38207  38.383  14.156  11.877
76787W        W38208  30.492   4.737  11.510
76788W        W38209  16.710  25.621   2.734
76789W        W38210   7.392   2.856   1.869
76790W        W38211  18.123  37.056   1.391
76791W        W38212  20.187  16.748   0.288
76792W        W38213  11.641  19.751  14.931
76793W        W38214   5.894  20.202  12.494
76794W        W38215  16.712  19.261  11.091
76795W        W38216  34.120  20.640  11.457
76796W        W38217  38.961  33.081  10.904
76797W        W38218  32.587  22.645  11.595
76798W        W38219  38.070   2.795   0.919
76799W        W38220  33.994  44.864  13.801
76800W        W38221  31.075   8.345  13.386
76801W        W38222  33.906  39.041  10.140
76802W        W38223  19.757  30.419  12.941
76803W        W38224   4.229  27.544  12.034
76804W        W38225  12.182  23.004  10.568
76805W        W38226  10.195  20.161  12.352
76806W        W38227   9.212  34.010  12.365
76807W        W38228  30.136   8.175   1.420
76808W        W38229  43.404   8.696  11.444
76809W        W38230   2.228   1.797  13.855
76810W        W38231  35.525  10.144  12.019
76811W        W38232  29.149  32.931  13.491
76812W        W38233  42.801  39.532  12.074
76813W        W38234  42.294   7.709   2.310
76814W        W38235  29.039  27.493   1.297
76815W        W38236   9.858  38.428  13.928
76816W        W38237  38.943  39.501  14.381
76817W        W38238  11.283  35.870  11.006
76818W        W38239  12.210  38.326  13.314
76819W        W38240  24.591  26.027  11.532
76820W        W38241  17.673  41.459   0.849
76821W        W38242   1.362   5.303   0.749
76822W        W38243   6.253  14.325  11.098
76823W        W38244   9.647  41.983   0.794
76824W        W38245  21.042  26.159  12.017
76825W        W38246   7.912  35.392  10.930
76826W        W38247   3.351  40.437   5.254
76827W        W38248   6.788   2.774  14.504
76828W        W38249  17.104  27.685   0.258
76829W        W38250  42.793   8.727  12.339
76830W        W38251   2.380  35.895  10.083
76831W        W38252  31.410  35.536  13.421
76832W        W38253  42.953  37.866  11.568
76833W        W38254  27.125  13.681  10.491
76834W        W38255   9.877  30.945   0.408
76835W        W38256  21.726  34.446  11.580
76836W        W38257  13.841  42.968   4.654
76837W        W38258  18.768  44.994  12.868
76838W        W38259  10.786  37.019  12.404
76839W        W38260   8.192  44.876   4.218
76840W        W38261  21.192  43.393   1.805
76841W        W38262  41.420  42.943  11.612
76842W        W38263  18.110  11.631   2.365
76843W        W38264  26.190  19.660  11.856
76844W        W38265  36.519  35.405   4.736
76845W        W38266  26.121  19.236  14.419
76846W        W38267  42.507   3.819   4.741
76847W        W38268  26.540  17.160   1.791
76848W        W38269  30.652   7.669   5.091
76849W        W38270   1.405  23.573  13.791
76850W        W38271  14.169   8.825   1.716
76851W        W38272  31.576  15.122   2.685
76852W        W38273  29.662   0.824   4.123
76853W        W38274  23.095  38.040  14.386
76854W        W38275  34.064   3.423  13.451
76855W        W38276  27.035  22.563   2.795
76856W        W38277  25.980  17.767   4.795
76857W        W38278  36.914  16.157  13.462
76858W        W38279  16.753  23.101   4.728
76859W        W38280  32.035  19.630   2.353
76860W        W38281   4.387   6.724   4.270
76861W        W38282   9.755  29.025  12.023
76862W        W38283  13.649  21.050  11.425
76863W        W38284  12.332  13.658   3.374
76864W        W38285  28.083  22.236   1.405
76865W        W38286  24.043  31.091  14.005
76866W        W38287  30.602  24.516  10.427
76867W        W38288  24.662  23.019  11.064
76868W        W38289  39.407  43.849   1.320
76869W        W38290  27.954  10.276   1.891
76870W        W38291  10.375  39.833   3.219
76871W        W38292  31.613  38.909  12.839
76872W        W38293  25.506  31.587   3.154
76873W        W38294  15.752  16.082   3.793
76874W        W38295  41.934  28.485  12.526
76875W        W38296  10.262   3.726   2.378
76876W        W38297  35.030   7.828  12.538
76877W        W38298  34.973  22.183  11.994
76878W        W38299  16.571  24.038   1.411
76879W        W38300  10.677  10.377  14.902
76880W        W38301  12.199  32.053  10.507
76881W        W38302  40.966  23.659  13.050
76882W        W38303  18.588   8.746  13.026
76883W        W38304  41.015  15.130   3.826
76884W        W38305  44.336  29.948  14.275
76885W        W38306  39.989  44.873   3.372
76886W        W38307   2.352  28.125   4.237
76887W        W38308  42.787  32.421  13.332
76888W        W38309  10.677  34.917  12.397
76889W        W38310  14.721  19.749   5.178
76890W        W38311  33.031  37.896   0.898
76891W        W38312  36.975  44.915   0.731
76892W        W38313  31.030  17.669   2.839
76893W        W38314  18.257  28.678   2.242
76894W        W38315  34.998  21.121  14.467
76895W        W38316  14.693   2.884   1.920
76896W        W38317  15.664  19.279  10.450
76897W        W38318  28.527  30.982  12.534
76898W        W38319  40.957  33.580  14.405
76899W        W38320  35.909   9.234  13.548
76900W        W38321  41.890   4.279  13.020
76901W        W38322  26.149  32.604   0.474
76902W        W38323  22.531  21.523  13.502
76903W        W38324   0.927  41.406  11.587
76904W        W38325  23.991  23.570   3.166
76905W        W38326  11.198  11.235  14.416
76906W        W38327  21.641   0.974  13.536
76907W        W38328   8.195  30.143   1.851
76908W        W38329  26.031  33.019   4.716
76909W        W38330  44.384  19.274   0.855
76910W        W38331  36.869  42.793   2.796
76911W        W38332  11.212  24.053   0.345
76912W        W38333  18.056   5.814   3.330
76913W        W38334  39.506   0.945   3.323
76914W        W38335  15.244  43.973   0.780
76915W        W38336  31.430  16.672   3.367
76916W        W38337   5.873  29.670   0.942
76917W        W38338  40.318  26.205  14.419
76918W        W38339  22.099  18.715  11.523
76919W        W38340  44.881  17.596   3.312
76920W        W38341  39.447  25.040  12.011
76921W        W38342  44.908  30.097   2.370
76922W        W38343  37.884  29.028  11.083
76923W        W38344  37.077  13.628  10.593
76924W        W38345   9.234  29.110  12.969
76925W        W38346   0.804  15.311   1.286
76926W        W38347  22.695  41.803  11.428
76927W        W38348   8.848  29.488  13.961
76928W        W38349  31.442  17.734  12.441
76929W        W38350  14.601  43.932   3.266
76930W        W38351  28.116  30.465  11.047
76931W        W38352  42.468  35.954   0.316
76932W        W38353  22.106  32.889   0.351
76933W        W38354   1.908   7.694  14.937
76934W        W38355  44.417   1.788  13.542
76935W        W38356  31.046   2.807  14.935
76936W        W38357  35.533   4.902   3.711
76937W        W38358  19.752  10.710   3.182
76938W        W38359  11.716   1.756   2.893
76939W        W38360  33.977  34.028   2.179
76940W        W38361  10.812  22.616   2.417
76941W        W38362   9.653  33.564  13.846
76942W        W38363  17.242  13.689   0.454
76943W        W38364  36.943  18.290  12.388
76944W        W38365   1.247  18.078   3.799
76945W        W38366  32.906  12.815   1.898
76946W        W38367  18.714  41.951   1.388
76947W        W38368  29.568  12.295   3.218
76948W        W38369  24.023  13.706   3.180
76949W        W38370  29.000  40.987  11.996
76950W        W38371  43.937  15.700  13.945
76951W        W38372  38.865  33.074  10.047
76952W        W38373   9.174  25.653   0.424
76953W        W38374  11.288  30.127  13.924
76954W        W38375  13.172   2.761  14.032
76955W        W38376   7.806  24.647  13.458
76956W        W38377  10.235  30.066   2.336
76957W        W38378  11.744  19.256  12.508
76958W        W38379  33.019  27.502  12.060
76959W        W38380  10.657  17.641  11.567
76960W        W38381  30.952  37.566  11.121
76961W        W38382  24.123  34.946  10.457
76962W        W38383  35.387  19.275   4.258
76963W        W38384  26.052   5.339   3.360
76964W        W38385  11.320   6.817   4.314
76965W        W38386  23.664  25.642  13.458
76966W        W38387   7.715   4.432   0.255
76967W        W38388   7.821  24.725  12.384
76968W        W38389  30.953  12.282   3.301
76969W        W38390  23.071  29.612   1.875
76970W        W38391  18.211  20.187   0.953
76971W        W38392  14.725   3.282  14.925
76972W        W38393  17.190  21.742   1.705
76973W        W38394  29.096  39.912   4.208
76974W        W38395  11.709  16.674  14.932
76975W        W38396  42.381  34.369   2.268
76976W        W38397  12.691  13.640   3.369
76977W        W38398  41.328  24.683  12.363
76978W        W38399  36.048   7.413   1.379
76979W        W38400  26.981  38.370   2.340
76980W        W38401  20.125  35.102  14.895
76981W        W38402  33.883  13.747  13.052
76982W        W38403  25.518  35.085   4.697
76983W        W38404  24.668  44.399  12.073
76984W        W38405  28.618   3.734  11.066
76985W        W38406  20.699  16.306  11.922
76986W        W38407   2.382  42.319  12.418
76987W        W38408  41.457  22.739   0.886
76988W        W38409   8.734  13.670  11.916
76989W        W38410  13.617  27.161  12.845
76990W        W38411   6.857  35.523   4.251
76991W        W38412  17.676  12.184   3.835
76992W        W38413  44.767  21.222  12.037
76993W        W38414  10.238   6.413   4.679
76994W        W38415   3.253   0.377   2.312
76995W        W38416  41.511  40.872   1.731
76996W        W38417  34.121  10.316  14.983
76997W        W38418  40.447  32.013  12.025
76998W        W38419  33.481  35.058   4.283
76999W        W38420  29.470  18.065   1.364
77000W        W38421  11.263  31.982  12.373
77001W        W38422  27.966   0.968   5.158
77002W        W38423   9.223   2.248  14.396
77003W        W38424   6.259   1.906  10.417
77004W        W38425  34.089  42.875   4.710
77005W        W38426  18.230   8.852   2.365
77006W        W38427  34.427  14.255   3.633
77007W        W38428  40.020  41.380   0.331
77008W        W38429  15.821  21.674   4.274
77009W        W38430  31.604  33.500  11.483
77010W        W38431  27.474   4.287  10.506
77011W        W38432  18.726  32.534  10.132
77012W        W38433  38.919   9.321  14.790
77013W        W38434  27.947  16.645   3.757
77014W        W38435  43.870  38.984  11.492
77015W        W38436   0.955  35.071   0.805
77016W        W38437  10.680  15.193   2.673
77017W        W38438  38.058  34.066  11.868
77018W        W38439  11.154  15.587  10.613
77019W        W38440   9.390  14.135  12.478
77020W        W38441   7.327  33.994  13.943
77021W        W38442  15.301   0.842   1.270
77022W        W38443  16.254  23.206   0.925
77023W        W38444   2.299  28.665   2.806
77024W        W38445   6.330  16.691  13.525
77025W        W38446  27.681  21.095   3.156
77026W        W38447  33.080  35.910   1.435
77027W        W38448  12.791   4.204  10.934
77028W        W38449  18.243   7.906   3.638
77029W        W38450  23.560  38.926  11.882
77030W        W38451  44.482  14.675   4.776
77031W        W38452  35.109   8.741   5.130
77032W        W38453  18.178  44.787   4.757
77033W        W38454  23.726  23.623  14.329
77034W        W38455  34.541  20.167   0.271
77035W        W38456  13.114  44.490  12.040
77036W        W38457  31.441  13.175  11.403
77037W        W38458  10.365   6.826   1.925
77038W        W38459  21.595   7.324   4.600
77039W        W38460  16.295  41.448  14.383
77040W        W38461  20.107  11.215   0.288
77041W        W38462  35.928  32.392   2.207
77042W        W38463   6.688  31.070  12.351
77043W        W38464  24.665  13.205  13.806
77044W        W38465   8.381  19.774  14.825
77045W        W38466  38.952  36.573   2.729
77046W        W38467  28.506   5.244   3.266
77047W        W38468  33.410  40.363  11.063
77048W        W38469  19.723  38.399  10.510
77049W        W38470   1.363   0.985  14.760
77050W        W38471  25.162  33.395   5.301
77051W        W38472  15.304  10.767  14.309
77052W        W38473   2.881  16.672  11.999
77053W        W38474  29.441   5.305  12.035
77054W        W38475  39.494  13.194  13.823
77055W        W38476  38.555  12.168  12.537
77056W        W38477   3.746  15.130   2.788
77057W        W38478  18.238  38.413  14.923
77058W        W38479  14.646  15.130  12.563
77059W        W38480  27.054  39.318   3.332
77060W        W38481  17.087   5.916  12.828
77061W        W38482   3.945  32.061   9.663
77062W        W38483   2.275  25.973   0.354
77063W        W38484  43.852  15.641  14.940
77064W        W38485  27.108  32.431  14.948
77065W        W38486  29.116  40.909   2.206
77066W        W38487  29.128  39.908  12.832
77067W        W38488   9.292  29.511   3.226
77068W        W38489  18.254  38.031   1.779
77069W        W38490   2.846  30.413   3.817
77070W        W38491  12.146  26.194   3.737
77071W        W38492  13.119  31.964  10.499
77072W        W38493  11.758  16.589   0.737
77073W        W38494  38.843  37.534   5.273
77074W        W38495  22.197   4.792   2.838
77075W        W38496   1.857  34.409   5.289
77076W        W38497  29.971  19.164   0.844
77077W        W38498  26.042  36.903   3.632
77078W        W38499   7.782  15.727  11.501
77079W        W38500  25.675  23.547   3.231
77080W        W38501  42.939  36.010   2.719
77081W        W38502   8.795  15.806  14.758
77082W        W38503  13.772   2.336   1.409
77083W        W38504  14.731  16.590  12.995
77084W        W38505  36.350  44.010   1.761
77085W        W38506  13.291  10.664  12.042
77086W        W38507  12.645  14.826   1.752
77087W        W38508  14.672  18.725   1.385
77088W        W38509   5.390  25.155  14.331
77089W        W38510   8.184  17.220  11.866
77090W        W38511  37.903  23.724   1.826
77091W        W38512  14.180  10.827  10.494
77092W        W38513   1.733  19.589   0.432
77093W        W38514  14.186  26.540  10.604
77094W        W38515  38.056  15.582  11.582
77095W        W38516   9.875  29.999   2.404
77096W        W38517  32.962  36.890  13.466
77097W        W38518  22.713   4.441   4.809
77098W        W38519  12.640  24.669   4.618
77099W        W38520  35.461  15.146   1.318
77100W        W38521   1.764  38.560  12.842
77101W        W38522  18.164  28.045   4.678
77102W        W38523  11.764   7.902  10.935
77103W        W38524  39.060  12.695  12.580
77104W        W38525  44.856  39.035  12.036
77105W        W38526  24.688  33.970  12.469
77106W        W38527  34.078  14.285   0.412
77107W        W38528   6.243  44.957  11.517
77108W        W38529  35.404  17.061  14.951
77109W        W38530  34.487  30.159  11.977
77110W        W38531  43.272  20.150   1.407
77111W        W38532  41.385  25.709   2.206
77112W        W38533  36.502  38.844  13.890
77113W        W38534   6.301  21.689   2.768
77114W        W38535  44.794  29.653   3.191
77115W        W38536   1.249   6.267   4.697
77116W        W38537  39.560  11.253  14.414
77117W        W38538  14.106  22.217   2.731
77118W        W38539  10.843  36.017   3.214
77119W        W38540   4.353  17.635  11.558
77120W        W38541  19.763  26.131  14.784
77121W        W38542   8.772  43.006  12.949
77122W        W38543  10.694  27.149  13.826
77123W        W38544  42.785  30.547   1.933
77124W        W38545   4.352   0.480   0.838
77125W        W38546  17.760  43.286   4.152
77126W        W38547  31.648   7.892  12.059
77127W        W38548  38.960  43.783  10.893
77128W        W38549  36.484  25.542  12.849
77129W        W38550  41.959  18.162   0.882
77130W        W38551  36.085   9.815  10.418
77131W        W38552  18.080  24.121   2.194
77132W        W38553   2.232  16.074   0.262
77133W        W38554  40.019  43.307   1.935
77134W        W38555  18.140   0.284   3.668
77135W        W38556  26.549  11.195  11.988
77136W        W38557  43.908  23.655   4.127
77137W        W38558  40.951  32.093  11.067
77138W        W38559  26.566  30.029   0.916
77139W        W38560  36.511  23.205  11.526
77140W        W38561   6.815   7.709  12.998
77141W        W38562  40.987  22.665   1.708
77142W        W38563  39.409   6.678   4.202
77143W        W38564  21.257  21.754  12.946
77144W        W38565   4.354  16.782  10.639
77145W        W38566  11.628  11.264   4.274
77146W        W38567  16.221  44.810   4.242
77147W        W38568   3.822  17.143   3.793
77148W        W38569  13.784  14.132   0.963
77149W        W38570   6.867  28.063   1.233
77150W        W38571  43.854  38.407  11.012
77151W        W38572  12.237   8.376   1.742
77152W        W38573  41.503  35.086   1.419
77153W        W38574  33.425  38.332  14.789
77154W        W38575  17.170  26.677   4.272
77155W        W38576  26.574  41.465   3.295
77156W        W38577  30.028  12.668   0.763
77157W        W38578  18.767   3.216  10.987
77158W        W38579  36.375  32.555  11.905
77159W        W38580  29.055   2.300   1.338
77160W        W38581   5.417   6.328   4.616
77161W        W38582   9.677   8.361  14.908
77162W        W38583   2.815  12.123  10.892
77163W        W38584  13.108  42.881  12.991
77164W        W38585  32.466  37.945   4.625
77165W        W38586  15.749  24.682  13.517
77166W        W38587  33.023   7.281  14.868
77167W        W38588  42.391  37.941  13.003
77168W        W38589   9.730  31.110  11.867
77169W        W38590   9.237   0.786  11.470
77170W        W38591  19.631  30.951  13.485
77171W        W38592  34.468  18.724  14.281
77172W        W38593  18.290  18.080  14.924
77173W        W38594   4.291  24.710   4.162
77174W        W38595  41.796  44.499   3.651
77175W        W38596   1.344  16.138   3.686
77176W        W38597  26.518  11.146  14.275
77177W        W38598  19.256  13.341  14.329
77178W        W38599   1.887  38.864   1.716
77179W        W38600  16.085  31.553   3.812
77180W        W38601  40.917  36.082   0.967
77181W        W38602   1.754  13.271   0.903
77182W        W38603  32.559  35.920   4.700
77183W        W38604  24.544  15.306   0.917
77184W        W38605  32.994  17.695   0.442
77185W        W38606  17.738  43.409  13.515
77186W        W38607   2.447   6.815  12.357
77187W        W38608   6.358  33.386   3.726
77188W        W38609  21.129  44.783  10.901
77189W        W38610  27.565  22.680  10.923
77190W        W38611   7.672   1.797   3.635
77191W        W38612  39.914  32.502   3.376
77192W        W38613  10.147  28.505   1.330
77193W        W38614  21.186   1.428   2.681
77194W        W38615  24.215  31.946   2.857
77195W        W38616  26.661  24.690  12.936
77196W        W38617   8.263  35.469   4.641
77197W        W38618  16.228   5.920   1.781
77198W        W38619  40.046  32.980  11.058
77199W        W38620  20.257  15.718   0.928
77200W        W38621  15.738  18.603   4.803
77201W        W38622  14.615   9.311  11.464
77202W        W38623  29.081  32.117   2.372
77203W        W38624   7.789   9.274   1.284
77204W        W38625  29.076   9.789   4.652
77205W        W38626   3.427  42.963  13.341
77206W        W38627  41.342  41.006   0.300
77207W        W38628   6.287  27.963   3.842
77208W        W38629  17.230  44.992   3.321
77209W        W38630  21.126  30.594  14.328
77210W        W38631  44.364   8.738   4.124
77211W        W38632  37.490  41.797  11.994
77212W        W38633   7.775   7.411  11.083
77213W        W38634  38.925   3.922   3.695
77214W        W38635  15.139  20.135  12.839
77215W        W38636  11.843  24.009  13.530
77216W        W38637  36.426  41.971  11.053
77217W        W38638   3.916  35.938   3.862
77218W        W38639   5.311  15.225   1.273
77219W        W38640  30.012  14.796   2.336
77220W        W38641  24.116   9.669  11.498
77221W        W38642  16.582  25.481   4.220
77222W        W38643   2.436  40.918   4.181
77223W        W38644  29.152  33.478   3.336
77224W        W38645   2.342  31.466  14.833
77225W        W38646   1.362   5.412   4.823
77226W        W38647  20.705   9.799  12.422
77227W        W38648  38.504  29.514  14.831
77228W        W38649  18.735  36.537  10.996
77229W        W38650  26.604  30.970  11.040
77230W        W38651  30.056  28.589  11.065
77231W        W38652   4.799  44.955   4.725
77232W        W38653  21.738  44.803   0.903
77233W        W38654  32.619  27.573  11.046
77234W        W38655  40.954  15.250   2.257
77235W        W38656   9.660  20.181   3.729
77236W        W38657  42.339   6.779  12.377
77237W        W38658  12.639  27.967  11.094
77238W        W38659  15.321  14.698   0.917
77239W        W38660  23.202   5.362  11.521
77240W        W38661   2.376  29.451   4.618
77241W        W38662  11.189  42.974   3.368
77242W        W38663  20.055  35.359  10.556
77243W        W38664  11.867  18.268  12.413
77244W        W38665  31.467  42.453  11.953
77245W        W38666  23.490  43.420   2.748
77246W        W38667  42.957  38.064  14.895
77247W        W38668  33.522  30.535  12.539
77248W        W38669  44.423   4.337  10.913
77249W        W38670  30.656   2.786   1.918
77250W        W38671  28.475  43.446   1.432
77251W        W38672  23.552  37.077  10.639
77252W        W38673  18.250  41.824   3.363
77253W        W38674  22.589   4.210   1.769
77254W        W38675  24.694   8.805   4.241
77255W        W38676  16.267  23.660   0.309
77256W        W38677  32.023  40.047  14.986
77257W        W38678  27.602  34.429   0.418
77258W        W38679   5.695  39.059   3.638
77259W        W38680  26.581  19.547   1.407
77260W        W38681  23.637  30.103   3.211
77261W        W38682  41.431  30.936  11.447
77262W        W38683  14.216  29.022  10.067
77263W        W38684  33.619   9.254  12.890
77264W        W38685  42.923   4.820   3.201
77265W        W38686  38.404   1.869  14.367
77266W        W38687  17.218   9.330   0.399
77267W        W38688   6.245  11.128  13.395
77268W        W38689   7.675  31.575   4.758
77269W        W38690  21.622  31.108  11.417
77270W        W38691  12.210  35.893  11.526
77271W        W38692  36.475   0.399   1.433
77272W        W38693  35.447  22.529   0.318
77273W        W38694  23.675  14.299   3.785
77274W        W38695  35.930   8.207   0.343
77275W        W38696   2.277  44.267  13.307
77276W        W38697   0.260  12.799  12.441
77277W        W38698  37.517  41.522  11.406
77278W        W38699  16.236  29.105  12.901
77279W        W38700  43.904  20.708   0.843
77280W        W38701   2.872   3.433   2.389
77281W        W38702  43.827  32.490  13.995
77282W        W38703  22.591  11.667  14.334
77283W        W38704  10.831  28.531   3.277
77284W        W38705  19.161  26.963  10.549
77285W        W38706  20.748   8.800   2.736
77286W        W38707   5.396   5.311  10.453
77287W        W38708  11.312  23.189  13.456
77288W        W38709  13.747  21.121  12.382
77289W        W38710  11.170  11.266   2.403
77290W        W38711   7.805  26.188  10.519
77291W        W38712   0.770  25.074  12.873
77292W        W38713  41.382   6.238  12.472
77293W        W38714  36.882  15.780  11.440
77294W        W38715   6.314  13.800   3.764
77295W        W38716  22.220  44.489   1.817
77296W        W38717  15.091  23.077   4.330
77297W        W38718  28.474  12.247   3.647
77298W        W38719  22.096  34.430   0.766
77299W        W38720  29.657   7.326  11.512
77300W        W38721  24.107  21.136   4.704
77301W        W38722  40.816  28.152   3.828
77302W        W38723  32.931  14.327  10.552
77303W        W38724  11.794  11.631   3.154
77304W        W38725   0.435  16.294  11.943
77305W        W38726  37.437  32.053  14.959
77306W        W38727  25.517  20.702  13.917
77307W        W38728   4.761  37.862   3.844
77308W        W38729  41.307   4.877   0.957
77309W        W38730  31.644  28.015  12.902
77310W        W38731  31.483   2.460   5.305
77311W        W38732  23.158  20.190  13.919
77312W        W38733  24.032  13.732   2.347
77313W        W38734  28.515  44.362   0.802
77314W        W38735  16.795  11.731  14.958
77315W        W38736  19.762  25.622  13.827
77316W        W38737  37.336  10.195   0.755
77317W        W38738   4.356   5.423  10.079
77318W        W38739  31.411   2.243  13.852
77319W        W38740  43.347  20.685   0.932
77320W        W38741  44.910  33.901   4.249
77321W        W38742  44.411   5.772  10.483
77322W        W38743  27.124   8.200   0.868
77323W        W38744  36.441  18.561  12.380
77324W        W38745   4.722   2.806   2.354
77325W        W38746  28.096  13.803   1.323
77326W        W38747  30.079   9.686  13.342
77327W        W38748  34.023  11.265   4.271
77328W        W38749  22.119  20.130   0.957
77329W        W38750  19.623  14.701   1.733
77330W        W38751  24.072  38.505  13.833
77331W        W38752  16.744  10.234  14.783
77332W        W38753  25.062  32.912  11.911
77333W        W38754  26.016  24.124   0.844
77334W        W38755  21.110  36.915  11.978
77335W        W38756  22.532  18.630   0.728
77336W        W38757   2.240  18.069  13.033
77337W        W38758  34.593   0.973  14.819
77338W        W38759  35.907  35.476   0.474
77339W        W38760  34.497  42.849  14.969
77340W        W38761  11.666  30.431  10.952
77341W        W38762   2.828  38.952  13.950
77342W        W38763  27.153  23.531   4.701
77343W        W38764  42.855   0.277   4.806
77344W        W38765  12.234   2.344  13.982
77345W        W38766  35.479  12.117   0.787
77346W        W38767  36.924  33.933  14.325
77347W        W38768  30.982  27.504  14.973
77348W        W38769   5.922  24.178   4.139
77349W        W38770  43.401  42.400  14.456
77350W        W38771   7.212   0.822  12.543
77351W        W38772  10.205   2.812  10.893
77352W        W38773   3.215  36.930  14.506
77353W        W38774  11.264  16.273   0.745
77354W        W38775   6.399  37.975   3.774
77355W        W38776   0.781  16.702   1.722
77356W        W38777  43.011  41.429  12.081
77357W        W38778  16.162  28.054  14.789
77358W        W38779   4.908  35.928  11.117
77359W        W38780  35.397   8.195  10.616
77360W        W38781   2.957  29.116   3.747
77361W        W38782  38.420  27.192   2.824
77362W        W38783   3.712  35.384   2.723
77363W        W38784  27.544  43.434  14.497
77364W        W38785  42.391  24.112   1.288
77365W        W38786   3.898   1.449   0.896
77366W        W38787  17.724  37.356  13.927
77367W        W38788  31.076  30.022   2.265
77368W        W38789  25.675  42.372   2.888
77369W        W38790   1.797  19.158  14.942
77370W        W38791  10.263   5.885   2.365
77371W        W38792   6.267  41.431  13.830
77372W        W38793  23.724  42.369  11.394
77373W        W38794  42.793  34.978   1.822
77374W        W38795  44.381  17.119  11.427
77375W        W38796  11.638   0.892  10.455
77376W        W38797  16.752   0.797   2.849
77377W        W38798  33.454  26.469   5.258
77378W        W38799  11.162   2.275  14.845
77379W        W38800  24.184   3.831   4.643
77380W        W38801  40.340   3.285  12.452
77381W        W38802  33.070  34.014  14.413
77382W        W38803   0.329  31.080  11.430
77383W        W38804  31.457  43.503   0.372
77384W        W38805  22.146   2.928  10.632
77385W        W38806  44.348  38.530  10.427
77386W        W38807  25.046  27.675  10.912
77387W        W38808   5.700  44.467  14.281
77388W        W38809  30.992   2.262  10.437
77389W        W38810   8.865  34.940   4.667
77390W        W38811  32.920   7.413   4.135
77391W        W38812   7.859  17.084  11.611
77392W        W38813  40.496   9.246   4.682
77393W        W38814  17.106   9.748   1.429
77394W        W38815  36.449  15.159   4.184
77395W        W38816  14.808  15.210  11.975
77396W        W38817  17.600  38.920  14.767
77397W        W38818   4.420  38.375   1.806
77398W        W38819  12.247   2.864   0.869
77399W        W38820   4.236  38.013   1.372
77400W        W38821   9.869  30.633   4.319
77401W        W38822  12.161   7.413   4.222
77402W        W38823  21.189  15.146  13.807
77403W        W38824  29.650  23.497  10.488
77404W        W38825   1.237   6.873   1.277
77405W        W38826   1.410  13.219  11.914
77406W        W38827   7.738  23.545   0.780
77407W        W38828  30.973  10.336  12.503
77408W        W38829  33.996  24.980  11.907
77409W        W38830  33.933  33.951   0.727
77410W        W38831  23.723  33.046   0.443
77411W        W38832   6.427  22.126   4.641
77412W        W38833   6.781  19.721  14.801
77413W        W38834  15.685   4.353  10.145
77414W        W38835  39.450  43.482   0.941
77415W        W38836  38.870  23.580  10.058
77416W        W38837   0.759  30.622  10.029
77417W        W38838  36.875  20.607  13.984
77418W        W38839  27.168  32.078   1.289
77419W        W38840  33.978   1.461   4.781
77420W        W38841  14.703   0.459  13.333
77421W        W38842   8.820  32.629  13.414
77422W        W38843  18.265  15.135   2.808
77423W        W38844  12.721  30.462   4.675
77424W        W38845   1.382  27.453   0.903
77425W        W38846  11.304  24.618  12.986
77426W        W38847   4.251   2.254   0.935
77427W        W38848  25.112   8.840  10.461
77428W        W38849  36.379  22.592   0.483
77429W        W38850   7.284   5.923  11.963
77430W        W38851  20.598  39.447   1.719
77431W        W38852  21.261  21.601   3.337
77432W        W38853  15.684  30.138   0.280
77433W        W38854  35.421  10.837   3.148
77434W        W38855  23.185   0.334   4.175
77435W        W38856  31.609  34.973  13.430
77436W        W38857  28.978   5.849   0.456
77437W        W38858  18.777  21.089   5.178
77438W        W38859  36.914  18.668  10.628
77439W        W38860   8.320  29.670  12.052
77440W        W38861  35.950  22.246  14.395
77441W        W38862  30.651  27.676  11.432
77442W        W38863  29.158  32.047  13.449
77443W        W38864  24.221   9.308   4.333
77444W        W38865  28.036   9.720   0.326
77445W        W38866   4.446   6.376   0.402
77446W        W38867  17.790  15.716   5.169
77447W        W38868  25.691  34.903   4.153
77448W        W38869  26.973  15.700   0.855
77449W        W38870  34.039  37.402  13.319
77450W        W38871  21.060  38.988  12.933
77451W        W38872  31.439  40.434  13.926
77452W        W38873   4.445  22.599  14.437
77453W        W38874  21.243  28.052  10.953
77454W        W38875  41.862  21.549  14.421
77455W        W38876  38.944   3.933  14.327
77456W        W38877  35.413   8.681  14.282
77457W        W38878   5.918  16.646   4.187
77458W        W38879  40.036  33.555   0.282
77459W        W38880  27.174  31.518  14.407
77460W        W38881  42.413  30.095  10.634
77461W        W38882   7.674  16.249  14.805
77462W        W38883  37.549  37.998   2.414
77463W        W38884  15.818  30.162  13.532
77464W        W38885  37.540  44.264   3.187
77465W        W38886  26.951  36.495   0.729
77466W        W38887  26.541   8.791  12.558
77467W        W38888  41.505   6.715  14.016
77468W        W38889   7.394  24.487   5.682
77469W        W38890  31.919  24.484  12.512
77470W        W38891  23.721   2.936  10.932
77471W        W38892   0.962  19.712   2.363
77472W        W38893  29.560  25.595  14.874
77473W        W38894   8.266  36.005   2.375
77474W        W38895  18.212   9.671  10.483
77475W        W38896  44.275  36.503   2.412
77476W        W38897  42.297  13.301   3.712
77477W        W38898  40.880   2.286   2.710
77478W        W38899  18.664  38.823   9.998
77479W        W38900  36.499   6.235  13.922
77480W        W38901   4.228   5.223  13.867
77481W        W38902  25.573   1.258  11.860
77482W        W38903  31.623  37.377  13.972
77483W        W38904  18.608  15.113  13.462
77484W        W38905   7.202  14.628   4.741
77485W        W38906  10.360   4.798   1.756
77486W        W38907  34.888  24.514   0.827
77487W        W38908  33.523  30.105   0.787
77488W        W38909  12.762  25.492  13.465
77489W        W38910  34.429  18.155   3.801
77490W        W38911  26.581  15.263   2.765
77491W        W38912  30.918   2.414   4.611
77492W        W38913  15.215  23.137  12.423
77493W        W38914   1.423  27.454  14.926
77494W        W38915  44.414   1.431  11.386
77495W        W38916   9.212  36.505   2.363
77496W        W38917  20.091  13.692   9.651
77497W        W38918   6.236  34.563   3.725
77498W        W38919  38.829  27.674   1.727
77499W        W38920   5.840  43.463  14.277
77500W        W38921   6.375   8.768   3.210
77501W        W38922  32.601  23.043   2.699
77502W        W38923   2.865  43.413   0.348
77503W        W38924  18.129  22.171   1.790
77504W        W38925   5.914  20.659  13.034
77505W        W38926  18.203  26.469  10.020
77506W        W38927  17.603   1.310  11.921
77507W        W38928  26.615  26.667   4.675
77508W        W38929  43.385   5.895  14.473
77509W        W38930  37.866   6.864  13.399
77510W        W38931   0.295  26.678   2.179
77511W        W38932   9.190   6.294   2.353
77512W        W38933  31.124  44.907  14.877
77513W        W38934   0.400  28.944   4.736
77514W        W38935  29.644  41.852  13.461
77515W        W38936  31.936  11.730   3.739
77516W        W38937  38.414  40.405   3.199
77517W        W38938  33.955  29.110   1.240
77518W        W38939  30.107  42.404   2.801
77519W        W38940  27.555  39.494  11.022
77520W        W38941  26.004  14.692  13.924
77521W        W38942  27.948   3.365   2.706
77522W        W38943  34.869  24.059  11.953
77523W        W38944  26.672  37.961   1.408
77524W        W38945   5.328  10.709   1.404
77525W        W38946  17.775  40.904  12.979
77526W        W38947  36.406  41.322   4.722
77527W        W38948  32.391  21.190  14.304
77528W        W38949  38.941  11.712  10.589
77529W        W38950  23.107  23.582   1.307
77530W        W38951  18.775  21.649   4.638
77531W        W38952  20.072  29.613   2.772
77532W        W38953   2.372  10.799  11.443
77533W        W38954  25.575  24.536  13.340
77534W        W38955  23.017   1.341   4.774
77535W        W38956  26.153  23.571  14.501
77536W        W38957  10.193  34.954  10.912
77537W        W38958  16.651  35.382  14.387
77538W        W38959  17.738   5.783   4.215
77539W        W38960   6.416  38.995   0.781
77540W        W38961  33.949   3.827   1.269
77541W        W38962   0.945  26.085   1.787
77542W        W38963  26.025  34.482  12.046
77543W        W38964   5.798  23.097  13.384
77544W        W38965  16.218  43.903  11.426
77545W        W38966  42.857  26.632   4.670
77546W        W38967  44.958  17.155  14.950
77547W        W38968  28.060  14.294   1.226
77548W        W38969  30.489  27.553   2.262
77549W        W38970  44.454  29.927   1.387
77550W        W38971   1.835  42.362  13.481
77551W        W38972   8.398   7.885  13.925
77552W        W38973  21.584  39.030  12.925
77553W        W38974  16.747   5.918   0.961
77554W        W38975   3.297   3.293   2.748
77555W        W38976  36.413   4.354   1.724
77556W        W38977  37.842  43.303   2.211
77557W        W38978  12.853  12.353  14.386
77558W        W38979  23.229  44.499   1.256
77559W        W38980  41.926  37.337   0.929
77560W        W38981   2.953   5.718   1.418
77561W        W38982  44.454  26.664   4.301
77562W        W38983  10.761  40.465  11.601
77563W        W38984  27.092  10.309   0.333
77564W        W38985  37.940  20.141   1.315
77565W        W38986  12.733  40.799   4.251
77566W        W38987  24.715  40.996   3.770
77567W        W38988  18.065   4.722   3.360
77568W        W38989   3.798  26.578   1.763
77569W        W38990  14.125  44.899  13.868
77570W        W38991  43.369  38.448  11.003
77571W        W38992   2.335  10.335   2.664
77572W        W38993   7.347  30.422   1.269
77573W        W38994  43.357  44.413   2.383
77574W        W38995  14.239  34.885  13.047
77575W        W38996   2.343  44.775   0.461
77576W        W38997  13.832  37.513  10.556
77577W        W38998  28.164  44.863  13.349
77578W        W38999  44.487   3.375   2.269
77579W        W39000  26.088  10.152   9.972
77580W        W39001  29.587  38.941  11.083
77581W        W39002   5.206  40.855  10.634
77582W        W39003   5.800  13.277  13.926
77583W        W39004  42.806  26.038  13.913
77584W        W39005  42.308   2.847  13.307
77585W        W39006  17.694  41.483   2.210
77586W        W39007  39.812  25.606  11.081
77587W        W39008  42.326   0.789   1.290
77588W        W39009  14.176   5.718  13.517
77589W        W39010  29.011  13.826  13.833
77590W        W39011  29.470  12.142   1.449
77591W        W39012   0.264  40.055   3.273
77592W        W39013  31.429   9.696   1.861
77593W        W39014  19.574   1.896  11.495
77594W        W39015  24.190  33.495   5.189
77595W        W39016  23.669  17.680   2.688
77596W        W39017   1.310   4.838   5.252
77597W        W39018  42.892  13.112  13.339
77598W        W39019  28.932   2.328   0.365
77599W        W39020  22.515   6.268   1.330
77600W        W39021  19.058  28.641   2.250
77601W        W39022  22.038  40.376   3.380
77602W        W39023  27.573  22.152  13.335
77603W        W39024  15.767  11.743   5.120
77604W        W39025  11.281  33.946   1.356
77605W        W39026  16.694  37.512   3.362
77606W        W39027  30.438  15.219  13.517
77607W        W39028   4.820   8.356  13.467
77608W        W39029   8.254  24.705  11.874
77609W        W39030  29.952  16.738  11.006
77610W        W39031  31.439  14.143  14.842
77611W        W39032  44.308  12.619  12.080
77612W        W39033   1.735  42.453   0.948
77613W        W39034  15.660   4.209  11.465
77614W        W39035  27.614  40.005  10.585
77615W        W39036   9.705  32.605  12.485
77616W        W39037  42.842  26.062   0.251
77617W        W39038  28.535  12.639   9.960
77618W        W39039  32.910  14.104   2.856
77619W        W39040   2.748  33.946  11.074
77620W        W39041   5.192   4.757   2.870
77621W        W39042  12.159  13.652   2.753
77622W        W39043  41.434  11.732  14.954
77623W        W39044  26.007  10.257   1.743
77624W        W39045  42.905  42.458   2.865
77625W        W39046  39.388   9.366   3.272
77626W        W39047  35.997  38.508   2.301
77627W        W39048  10.183  32.009  11.393
77628W        W39049  35.580  44.850  14.878
77629W        W39050  30.160  15.649  10.951
77630W        W39051  28.116  31.905  11.063
77631W        W39052  14.664  43.772  10.943
77632W        W39053   1.390  12.781   3.772
77633W        W39054  13.220   7.863  11.998
77634W        W39055  26.020   7.210  14.377
77635W        W39056  16.801  10.668  11.970
77636W        W39057  10.753  24.582   2.253
77637W        W39058  18.283  16.303   2.835
77638W        W39059  23.218  36.094   1.826
77639W        W39060  23.602  19.579   1.257
77640W        W39061   1.431  10.320   3.313
77641W        W39062  40.955  35.975  11.952
77642W        W39063  27.534  23.033  10.469
77643W        W39064  29.159   0.963   4.633
77644W        W39065   3.809  38.929  13.458
77645W        W39066  16.728   8.338  11.041
77646W        W39067  34.465  22.099  14.911
77647W        W39068  13.241  22.615  10.013
77648W        W39069   1.877  12.792  14.986
77649W        W39070   3.376  27.181  13.403
77650W        W39071  21.136  43.327   0.939
77651W        W39072  30.635  15.730   3.774
77652W        W39073  16.788   6.922  11.485
77653W        W39074  18.595  16.628  14.914
77654W        W39075  38.405  21.194   2.364
77655W        W39076  37.355  37.445   2.243
77656W        W39077  43.371  27.940   1.214
77657W        W39078  21.020  35.096   0.850
77658W        W39079  42.470   9.164   0.362
77659W        W39080  27.611   1.346  13.815
77660W        W39081  28.087  39.951   1.786
77661W        W39082  10.660  24.563   0.440
77662W        W39083  27.551  19.070  13.356
77663W        W39084   9.194  33.045  12.835
77664W        W39085  34.610  34.102   3.174
77665W        W39086  29.439   8.864  10.990
77666W        W39087  11.346  19.664  12.367
77667W        W39088   8.269  11.332  14.498
77668W        W39089  44.440  44.842  11.379
77669W        W39090  19.584   4.414   3.179
77670W        W39091  44.755  29.620   3.692
77671W        W39092   2.781  21.524  14.815
77672W        W39093  29.995  25.041  14.029
77673W        W39094   0.846  36.987  10.605
77674W        W39095   4.224  25.622   0.905
77675W        W39096  34.954   1.759  14.908
77676W        W39097  26.160  33.891   3.298
77677W        W39098  25.468  26.164   4.250
77678W        W39099  35.562   6.326  11.563
77679W        W39100  15.819  39.013  14.392
77680W        W39101  40.539  23.193   1.863
77681W        W39102   0.888   0.283  14.286
77682W        W39103  41.874   7.828   2.861
77683W        W39104  44.350  35.580  11.907
77684W        W39105  25.471  12.795  13.860
77685W        W39106  12.165   1.379  11.048
77686W        W39107  35.378  31.988  13.924
77687W        W39108  20.595  42.366   4.224
77688W        W39109  34.578  35.005   4.337
77689W        W39110  25.608  34.478  14.346
77690W        W39111  11.688  18.562  11.090
77691W        W39112  41.034  28.594  13.846
77692W        W39113  35.893  16.718   3.717
77693W        W39114  14.588  15.746   1.249
77694W        W39115  20.031  35.449   2.327
77695W        W39116  26.987  28.632  10.637
77696W        W39117  36.034  11.137  11.560
77697W        W39118  25.682  43.379  14.850
77698W        W39119  23.643  24.684   0.454
77699W        W39120   5.274  42.856   2.897
77700W        W39121   2.280   0.800   4.315
77701W        W39122  32.079  30.996   1.805
77702W        W39123   7.284  31.623   0.462
77703W        W39124  35.444   6.846   1.872
77704W        W39125  15.692  23.725   0.729
77705W        W39126  41.803  15.224  13.528
77706W        W39127  29.653  37.465  12.429
77707W        W39128  26.140   2.253  12.053
77708W        W39129  13.147  24.042  14.834
77709W        W39130  34.383  33.996   4.709
77710W        W39131   5.428  31.606   4.742
77711W        W39132  41.533  23.640  14.326
77712W        W39133  34.961  20.556  10.544
77713W        W39134  15.293  34.572  10.547
77714W        W39135  28.558  26.040   2.216
77715W        W39136  44.835   1.877  12.056
77716W        W39137  23.052  33.562   4.142
77717W        W39138   9.311   0.976   2.400
77718W        W39139   1.445  28.148  11.425
77719W        W39140  15.163  34.923  12.069
77720W        W39141  36.973  33.105  13.880
77721W        W39142  28.032  10.790   4.296
77722W        W39143  25.645  42.411  11.509
77723W        W39144   7.762   6.700  11.399
77724W        W39145  16.796  31.946  11.075
77725W        W39146  11.127  16.167  13.381
77726W        W39147   7.907   0.404  10.963
77727W        W39148  19.685  31.643   0.734
77728W        W39149  14.307   1.842   0.270
77729W        W39150  24.647  16.174   1.755
77730W        W39151  35.556  37.843   0.765
77731W        W39152   2.725  19.717   1.356
77732W        W39153  33.458   4.863   2.296
77733W        W39154  43.297   5.433  14.405
77734W        W39155  41.981  35.866  14.313
77735W        W39156  25.073  31.402  10.486
77736W        W39157  33.015  34.997   0.479
77737W        W39158  24.994  17.767   4.124
77738W        W39159  37.371  40.345   3.211
77739W        W39160   6.424  43.786  14.769
77740W        W39161  10.336  11.684  13.404
77741W        W39162  40.002   9.321   4.821
77742W        W39163  25.158  18.197  13.387
77743W        W39164   6.730  24.147  10.989
77744W        W39165   0.446  37.527  14.777
77745W        W39166   8.406   8.882   2.353
77746W        W39167  37.355  26.143  12.540
77747W        W39168  21.153   6.207   4.333
77748W        W39169  39.459  18.273   2.728
77749W        W39170   8.709   4.927   4.316
77750W        W39171  33.126  25.608  12.843
77751W        W39172  41.003   8.201  12.850
77752W        W39173  32.533  34.407  13.926
77753W        W39174  15.118  34.500   3.670
77754W        W39175  13.222  31.610   2.197
77755W        W39176  43.464  13.185  13.512
77756W        W39177  34.558  13.763  10.645
77757W        W39178   0.423  39.387   0.415
77758W        W39179   1.897   4.293   4.214
77759W        W39180  11.265  25.477   2.778
77760W        W39181  16.304  15.199  14.831
77761W        W39182  30.623  27.657  14.387
77762W        W39183   0.429  36.889  10.930
77763W        W39184  37.339  34.069   0.811
77764W        W39185  17.064  13.733  14.933
77765W        W39186  12.216  21.202   3.812
77766W        W39187  17.700  28.650  13.434
77767W        W39188  36.377  12.736   3.869
77768W        W39189  16.740  16.085   2.326
77769W        W39190  25.990  32.503  11.495
77770W        W39191  38.995   7.705   1.282
77771W        W39192  43.855  22.544   2.230
77772W        W39193  16.167   7.398   5.300
77773W        W39194  44.929  18.696  12.907
77774W        W39195   2.809  37.357   1.389
77775W        W39196  15.783   8.845   3.698
77776W        W39197  34.543  15.672   2.767
77777W        W39198  30.596  17.706  11.443
77778W        W39199   3.877  18.075  10.481
77779W        W39200  22.697  13.754  13.813
77780W        W39201  36.403   3.449   0.296
77781W        W39202   6.390  20.726   4.274
77782W        W39203  16.285  38.480  10.456
77783W        W39204   9.281  41.410   3.636
77784W        W39205  37.921  18.067   1.451
77785W        W39206  44.801  20.557  12.942
77786W        W39207  24.626   8.296   2.785
77787W        W39208  26.048  44.310   0.750
77788W        W39209  23.709  18.250   2.264
77789W        W39210  12.845  28.658  13.415
77790W        W39211  24.082  24.158   1.716
77791W        W39212  38.341  38.971  14.285
77792W        W39213   5.748  13.122   3.285
77793W        W39214   6.837  43.971  14.380
77794W        W39215  24.644   9.802  12.059
77795W        W39216  39.014   2.246  12.526
77796W        W39217  21.213  11.337  14.758
77797W        W39218   3.917  11.759   3.713
77798W        W39219  24.532   3.418  10.558
77799W        W39220   9.337  23.688  12.441
77800W        W39221  12.121  40.807  13.308
77801W        W39222  26.519   4.761   4.141
77802W        W39223  18.769  13.237   0.420
77803W        W39224  30.553   5.345  14.408
77804W        W39225   4.747  11.820  12.941
77805W        W39226  35.067   4.233   5.715
77806W        W39227  15.767  11.697   1.821
77807W        W39228  32.517  39.858  13.925
77808W        W39229   8.700   4.406  13.822
77809W        W39230  26.650  40.965  13.326
77810W        W39231  17.188  41.979   9.938
77811W        W39232  36.469   5.332  11.914
77812W        W39233  44.488  20.634   3.319
77813W        W39234  40.329   3.374  10.640
77814W        W39235  42.806   6.191   1.321
77815W        W39236  11.678  25.495  12.926
77816W        W39237   0.882  14.766  10.544
77817W        W39238  41.503  37.916  13.392
77818W        W39239  34.884  14.628   4.203
77819W        W39240  11.645  27.973   5.137
77820W        W39241  12.194  21.093  12.508
77821W        W39242  16.614  24.171   1.835
77822W        W39243  26.664  15.642   4.630
77823W        W39244  36.933   8.175   2.772
77824W        W39245  34.378  33.120  14.022
77825W        W39246  19.718  42.795  14.449
77826W        W39247  18.060  18.600  12.845
77827W        W39248  34.581   2.238  10.927
77828W        W39249  25.614  41.017   3.239
77829W        W39250  16.316  40.468  13.957
77830W        W39251  29.533  18.740  10.496
77831W        W39252   5.263  36.352  14.994
77832W        W39253  12.200  33.040   2.385
77833W        W39254  25.484  18.152  10.002
77834W        W39255  44.802  37.016   2.367
77835W        W39256  22.556  42.838   5.281
77836W        W39257  32.047   2.366   3.150
77837W        W39258  15.312  14.121  13.470
77838W        W39259   3.946  19.639   3.792
77839W        W39260  27.105   7.886  11.094
77840W        W39261  19.079  29.582  12.037
77841W        W39262  29.084  34.886  14.841
77842W        W39263  11.653  38.456   4.225
77843W        W39264  40.028  31.498   4.198
77844W        W39265  24.987  37.999  14.961
77845W        W39266   4.855  17.230   0.299
77846W        W39267  42.987  37.472  14.769
77847W        W39268  28.661  36.850   2.887
77848W        W39269  31.557   1.851   5.217
77849W        W39270  30.423  13.257  13.941
77850W        W39271  38.023   3.288  10.499
77851W        W39272  38.563   3.232  11.926
77852W        W39273  20.765  25.076   2.376
77853W        W39274  44.317   6.678  12.870
77854W        W39275  32.444  29.040  12.367
77855W        W39276  40.052  14.337   0.891
77856W        W39277   7.247   4.387   1.257
77857W        W39278  18.077  26.070  12.900
77858W        W39279  30.008  38.480  11.537
77859W        W39280   7.277  33.130  12.550
77860W        W39281  31.148  17.223  10.451
77861W        W39282  15.606   0.283  11.511
77862W        W39283  44.296  14.339  12.445
77863W        W39284  42.832   3.290  10.138
77864W        W39285  34.983  13.214   0.916
77865W        W39286  29.583  41.402   3.163
77866W        W39287   7.256  12.776   1.287
77867W        W39288  17.263  28.964   0.339
77868W        W39289   5.334   9.671  14.394
77869W        W39290  26.457  32.059  13.317
77870W        W39291  44.359  40.020  12.921
77871W        W39292   2.906  14.287   3.155
77872W        W39293  18.664  42.901  11.942
77873W        W39294  24.660  43.811  12.389
77874W        W39295  44.361  15.141   1.745
77875W        W39296  23.239  16.220   0.753
77876W        W39297  27.016   4.843  14.929
77877W        W39298   5.717  36.539  14.501
77878W        W39299   5.810  13.745   4.123
77879W        W39300  26.983  11.156   3.687
77880W        W39301  26.639  22.630  11.914
77881W        W39302  27.080  20.751  10.961
77882W        W39303  37.077   0.791  13.383
77883W        W39304  30.545  44.283  11.543
77884W        W39305   8.238  22.588  10.938
77885W        W39306  18.599  24.569  12.518
77886W        W39307  22.720  44.405  12.549
77887W        W39308   1.769  20.076   3.313
77888W        W39309  29.059  14.669  13.876
77889W        W39310  21.055  38.844  13.833
77890W        W39311   9.847  19.670   0.860
77891W        W39312   4.871  40.807  13.486
77892W        W39313  41.026   1.329   4.750
77893W        W39314  28.542  38.329   0.406
77894W        W39315  40.020  38.058   4.760
77895W        W39316  14.685  18.667   1.695
77896W        W39317  26.669  42.824   4.803
77897W        W39318  31.114  16.753  11.426
77898W        W39319  41.434  21.194  13.518
77899W        W39320  11.177  10.747   3.714
77900W        W39321  33.984  39.056  11.543
77901W        W39322   7.318  42.389   2.789
77902W        W39323  15.721  44.970   1.435
77903W        W39324  31.151  29.625   0.877
77904W        W39325  28.036  24.712   1.916
77905W        W39326  19.674  11.737  11.511
77906W        W39327  43.479  43.931  12.477
77907W        W39328   0.285  40.419   0.259
77908W        W39329  38.991  43.851   3.207
77909W        W39330   4.262  33.103  11.010
77910W        W39331   8.208  25.034  14.977
77911W        W39332   2.782   7.722   3.839
77912W        W39333  33.600  17.193   4.688
77913W        W39334  40.492  12.268   2.817
77914W        W39335   6.355  22.540  12.972
77915W        W39336  40.974  28.029   0.732
77916W        W39337  22.585  13.658   4.312
77917W        W39338   1.844  39.443   1.434
77918W        W39339  15.098  44.502  10.610
77919W        W39340   1.466   6.712  10.629
77920W        W39341  18.658  41.470   0.406
77921W        W39342  29.068  37.576  12.418
77922W        W39343   7.353  36.400   0.357
77923W        W39344  16.666  16.582  10.968
77924W        W39345  28.637  13.171  13.057
77925W        W39346  29.096   1.314   1.232
77926W        W39347  10.811  11.833  13.320
77927W        W39348   8.799  22.109   1.277
77928W        W39349  32.128  10.701   4.231
77929W        W39350  32.502  16.575   3.322
77930W        W39351  44.389  18.736   0.243
77931W        W39352  21.117   1.734  10.566
77932W        W39353  18.550  26.026   3.228
77933W        W39354  10.141  11.812   3.726
77934W        W39355  13.691   2.346   0.291
77935W        W39356  37.475  18.110  13.872
77936W        W39357  10.636  27.578  12.570
77937W        W39358  23.596   4.275  14.860
77938W        W39359  16.179   8.251   3.752
77939W        W39360  25.595  40.836   3.649
77940W        W39361  38.452  27.673  12.980
77941W        W39362  21.755  14.707   0.446
77942W        W39363  33.613  10.674  13.453
77943W        W39364   7.250  24.703   1.762
77944W        W39365   4.710  36.041  14.320
77945W        W39366  23.640  36.424   1.449
77946W        W39367  13.812  40.464  12.043
77947W        W39368  17.087   7.737  10.429
77948W        W39369  23.236  36.007  14.019
77949W        W39370   9.177  30.916   4.765
77950W        W39371   2.774  42.480  13.839
77951W        W39372  35.017  41.789   3.724
77952W        W39373  16.261  20.093   1.843
77953W        W39374   0.838  27.524  12.958
77954W        W39375  19.767  18.275   4.807
77955W        W39376  21.677  24.040  11.901
77956W        W39377   0.985  18.688  10.486
77957W        W39378  10.194   8.285  14.899
77958W        W39379  20.691  23.103   1.406
77959W        W39380  36.076  33.077   0.440
77960W        W39381  15.322  18.117  11.963
77961W        W39382   9.205  29.992   0.781
77962W        W39383  10.847   2.850   0.759
77963W        W39384  40.052  27.008   4.742
77964W        W39385  21.191  44.994  12.412
77965W        W39386  42.324  27.584   0.929
77966W        W39387  38.974   7.835  13.482
77967W        W39388  27.100  43.327  12.894
77968W        W39389  44.267  38.059   4.606
77969W        W39390   8.764   3.360  13.367
77970W        W39391  34.447  16.171   1.856
77971W        W39392  28.182  44.411  12.861
77972W        W39393  42.840   4.867   0.893
77973W        W39394  38.877  35.854   4.122
77974W        W39395  32.517  36.583   0.296
77975W        W39396  21.111  13.248   0.945
77976W        W39397   2.753  34.099   4.830
77977W        W39398   9.797   8.765   0.947
77978W        W39399  27.598  13.635   2.381
77979W        W39400  16.256  33.380  10.615
77980W        W39401  10.728  24.197   2.854
77981W        W39402   5.723  32.921  10.999
77982W        W39403  21.641  27.949   0.905
77983W        W39404  24.606  33.908  14.468
77984W        W39405  15.612   1.347  12.017
77985W        W39406  39.400  34.558  12.863
77986W        W39407  40.839  11.228  12.836
77987W        W39408   8.383   9.314   3.781
77988W        W39409   6.831  32.095   5.221
77989W        W39410  38.051  32.461   1.843
77990W        W39411   1.270  41.982  10.445
77991W        W39412   4.446  42.897  13.515
77992W        W39413  27.675   3.378  11.608
77993W        W39414   9.876  12.805  11.506
77994W        W39415  33.559  31.016   1.222
77995W        W39416  13.613  12.198  11.925
77996W        W39417  15.681  10.655  10.999
77997W        W39418  25.600  31.422  11.908
77998W        W39419  38.499  21.519   4.698
77999W        W39420  21.194  36.349  10.613
78000W        W39421   3.286   3.844   4.670
78001W        W39422   4.366  37.036  12.093
78002W        W39423  34.442  37.548   2.260
78003W        W39424  25.963   4.883   3.313
78004W        W39425  10.777  18.143  12.991
78005W        W39426  20.656  29.129   2.821
78006W        W39427   2.303  22.677   2.352
78007W        W39428  34.998  14.274   4.783
78008W        W39429  40.851  42.872  11.563
78009W        W39430  22.042  12.313   4.309
78010W        W39431  26.492   8.375   0.908
78011W        W39432   9.727  35.573  12.033
78012W        W39433  33.583  13.757   1.217
78013W        W39434  32.435  17.265   4.176
78014W        W39435  41.293   3.886  12.846
78015W        W39436  44.314  11.852  10.122
78016W        W39437  31.509  14.590   2.787
78017W        W39438   8.813  23.027  14.928
78018W        W39439  35.456  44.467  12.462
78019W        W39440  30.082  28.551   3.380
78020W        W39441  41.967  26.180  13.046
78021W        W39442  27.162   4.405  14.911
78022W        W39443  37.068  21.538   4.265
78023W        W39444   3.838  14.257  12.465
78024W        W39445  24.034  39.973  10.494
78025W        W39446  11.233  43.377   1.363
78026W        W39447   5.797   5.728  14.337
78027W        W39448  34.389   5.884   2.700
78028W        W39449   7.215  31.932   3.236
78029W        W39450  18.748  31.477   4.216
78030W        W39451  36.934  11.862  12.086
78031W        W39452  17.106  32.975  11.918
78032W        W39453  41.392  26.070  14.400
78033W        W39454  17.273  30.159   5.280
78034W        W39455  14.809  28.060  12.402
78035W        W39456  25.544  42.013  11.505
78036W        W39457  26.496  23.059  14.288
78037W        W39458   1.826  42.974   3.252
78038W        W39459   5.229   8.241  13.008
78039W        W39460  23.097   0.319  13.448
78040W        W39461  44.482   5.300   9.982
78041W        W39462  18.277   1.416   1.387
78042W        W39463   7.173  43.304   0.905
78043W        W39464  28.464   2.454   0.799
78044W        W39465  44.955   0.783  13.878
78045W        W39466  25.602  26.203  13.919
78046W        W39467  31.565   4.797   2.697
78047W        W39468  16.085  22.746   0.384
78048W        W39469  30.497  42.364   2.224
78049W        W39470  22.576  25.061  13.488
78050W        W39471  13.123  22.534  11.959
78051W        W39472  14.694   3.929  11.407
78052W        W39473   3.247  29.545   4.635
78053W        W39474  37.437   3.257   0.314
78054W        W39475  27.510  31.465   0.243
78055W        W39476  40.534  12.831  13.054
78056W        W39477   0.843  34.952  13.359
78057W        W39478  28.117  14.667  13.019
78058W        W39479   1.796   7.398  14.021
78059W        W39480  20.200  25.177  14.279
78060W        W39481  12.214   2.805  14.481
78061W        W39482  37.450   8.871  14.390
78062W        W39483  36.349  30.624  10.488
78063W        W39484  16.570  42.406  12.343
78064W        W39485  24.103   4.794  14.936
78065W        W39486   2.841   7.239  14.467
78066W        W39487   8.374  39.065   3.692
78067W        W39488  19.570  43.366  14.949
78068W        W39489  11.820  15.689   9.972
78069W        W39490  44.342  36.854   0.953
78070W        W39491   6.731  36.566  11.926
78071W        W39492  17.794   1.939  12.512
78072W        W39493  11.209  24.618  11.401
78073W        W39494  42.009  21.017  10.128
78074W        W39495  40.307  24.065  11.462
78075W        W39496  22.511  19.252  11.990
78076W        W39497  10.727   6.807   1.360
78077W        W39498   9.187   0.263   3.346
78078W        W39499   0.456  32.100  11.544
78079W        W39500  31.900  42.504   3.769
78080W        W39501   2.283   0.776   2.685
78081W        W39502  10.675  10.803   3.652
78082W        W39503  30.939   6.196  14.812
78083W        W39504  27.654   5.835  12.932
78084W        W39505  25.098  42.899  11.994
78085W        W39506   2.247  42.350  12.070
78086W        W39507   4.796  26.099  12.089
78087W        W39508  25.490   5.406   5.317
78088W        W39509  21.061   0.910  10.892
78089W        W39510  14.801  36.962  12.465
78090W        W39511  42.796  21.725  13.474
78091W        W39512  39.358  19.095   0.861
78092W        W39513  15.191   8.377  13.854
78093W        W39514  23.625   3.836  12.414
78094W        W39515   4.832  18.622  13.332
78095W        W39516  20.718  32.433  12.405
78096W        W39517  13.841   8.787  14.501
78097W        W39518  43.482   7.276  13.878
78098W        W39519   5.710  20.765  12.352
78099W        W39520  42.344  12.210   1.853
78100W        W39521  30.082  21.166  13.996
78101W        W39522  36.846   5.874   4.216
78102W        W39523  30.523  17.227   2.805
78103W        W39524  34.918   2.389  13.456
78104W        W39525  30.933   5.736  11.395
78105W        W39526  26.485  30.584   1.369
78106W        W39527  24.022  20.068   1.227
78107W        W39528   5.780  18.187   3.768
78108W        W39529  19.155  43.895   3.768
78109W        W39530  21.242  12.132   5.134
78110W        W39531  33.523  21.683   2.223
78111W        W39532  34.988  10.793  10.917
78112W        W39533  35.505  25.002   3.709
78113W        W39534  35.028   4.840  12.580
78114W        W39535  15.104  43.422   0.329
78115W        W39536   0.819  16.110  14.025
78116W        W39537  10.180  34.532  13.307
78117W        W39538   6.865  26.010   1.346
78118W        W39539  37.007  44.449  10.897
78119W        W39540  32.561  16.788   3.849
78120W        W39541  40.884  13.258   3.771
78121W        W39542  25.548  34.560   3.266
78122W        W39543   5.847   3.914  12.532
78123W        W39544  22.564  29.589   4.151
78124W        W39545   0.305  10.234   4.223
78125W        W39546  39.968  11.745  12.438
78126W        W39547  25.115  37.885   3.287
78127W        W39548  44.002  12.741   0.269
78128W        W39549  15.177  24.694  14.411
78129W        W39550  16.215  31.951   0.483
78130W        W39551  21.549  23.657  11.516
78131W        W39552   0.309   0.397   3.291
78132W        W39553   1.892  23.728  14.945
78133W        W39554   8.330   3.255   3.796
78134W        W39555  44.341  15.254  13.903
78135W        W39556  22.676  30.636   2.689
78136W        W39557  40.872  35.479  10.471
78137W        W39558  41.994   6.732  12.999
78138W        W39559  29.437  13.763  13.838
78139W        W39560  44.788   5.902  11.563
78140W        W39561  44.946  17.720   4.209
78141W        W39562  22.658  24.081  12.413
78142W        W39563  42.363  10.878  14.363
78143W        W39564  23.572  12.132   3.308
78144W        W39565   0.935  21.653   2.758
78145W        W39566  25.606  16.107   4.671
78146W        W39567  17.770  14.147  11.937
78147W        W39568  37.337  19.158   4.780
78148W        W39569  35.546  29.172   1.720
78149W        W39570  37.986  24.559  12.513
78150W        W39571  30.418  24.192  14.295
78151W        W39572  21.523  42.009  14.821
78152W        W39573   2.867  23.053  12.483
78153W        W39574   7.803  34.400   9.967
78154W        W39575  14.635  31.428   3.783
78155W        W39576  39.400  44.365  12.496
78156W        W39577  34.872  31.632  12.459
78157W        W39578  35.544  31.477   4.163
78158W        W39579  19.775   4.840   4.233
78159W        W39580  26.142  13.688   1.732
78160W        W39581  21.128  20.256   3.359
78161W        W39582  11.232  41.468   3.214
78162W        W39583  17.232  40.343   4.182
78163W        W39584   0.475  24.025   4.813
78164W        W39585  12.268  31.938  10.963
78165W        W39586  35.486   1.275   3.761
78166W        W39587  41.972  16.184  11.509
78167W        W39588   7.203  25.493  12.886
78168W        W39589  22.699  41.316   5.139
78169W        W39590  37.458  16.214   2.822
78170W        W39591  42.879   9.346   5.281
78171W        W39592  17.203  19.226  12.069
78172W        W39593  26.139  26.624  12.420
78173W        W39594   5.745   9.338  12.077
78174W        W39595   9.244  23.224  12.366
78175W        W39596  31.015  44.975   2.798
78176W        W39597  21.116  42.975   0.379
78177W        W39598  14.784  31.579  12.968
78178W        W39599  21.612  21.613   4.770
78179W        W39600  11.327   4.801  11.387
78180W        W39601   2.241  21.056   0.388
78181W        W39602  38.052   9.656   3.668
78182W        W39603  39.973   0.818   3.756
78183W        W39604   9.800  38.874   2.331
78184W        W39605   2.275   5.228   9.992
78185W        W39606  41.851   1.274  11.000
78186W        W39607  17.751  40.482   0.729
78187W        W39608   3.434  27.133   1.839
78188W        W39609  40.931  44.838  13.308
78189W        W39610  18.218  12.682  14.332
78190W        W39611  19.120  38.940   1.245
78191W        W39612  31.043  42.940   3.311
78192W        W39613  15.292  33.912   1.869
78193W        W39614   3.912   7.384  11.103
78194W        W39615  39.379   8.844  12.435
78195W        W39616  28.965  13.606   4.771
78196W        W39617  21.519   4.837  14.462
78197W        W39618   1.442  21.036  10.061
78198W        W39619  11.294  29.158   4.738
78199W        W39620  40.995  26.023  14.801
78200W        W39621  21.243  19.075  14.972
78201W        W39622  42.430   6.196  13.495
78202W        W39623  41.036  17.133  11.558
78203W        W39624   2.449  36.940   3.841
78204W        W39625  26.066   3.421  14.805
78205W        W39626  42.015   5.255  13.371
78206W        W39627  42.418  16.604  11.049
78207W        W39628  15.314   4.436  12.956
78208W        W39629  29.670   5.350   1.366
78209W        W39630  36.071   5.698   2.299
78210W        W39631  30.621  20.674   3.305
78211W        W39632  26.115   4.348   1.723
78212W        W39633  34.096   9.674   1.279
78213W        W39634  10.813   7.900  14.860
78214W        W39635  27.482  33.915  11.127
78215W        W39636   9.884   1.478  12.578
78216W        W39637   8.655   4.228   9.935
78217W        W39638  22.693  29.542   0.838
78218W        W39639  24.156  15.632  12.835
78219W        W39640  40.517   8.282   3.715
78220W        W39641   4.258   8.236  12.034
78221W        W39642  16.277  11.670   1.725
78222W        W39643   8.238  21.222  11.977
78223W        W39644   7.224  40.387  14.376
78224W        W39645  29.055  28.080  11.037
78225W        W39646  35.557  40.933  11.011
78226W        W39647  44.788  14.109  14.492
78227W        W39648  31.994  16.132   1.877
78228W        W39649   7.714  17.239   2.329
78229W        W39650   8.879  27.488   2.364
78230W        W39651  23.102   9.208  13.436
78231W        W39652  29.986   5.430  12.952
78232W        W39653  44.289  26.626  13.810
78233W        W39654   0.470  34.445   0.962
78234W        W39655  13.658  11.244   1.925
78235W        W39656  38.397  17.662  10.910
78236W        W39657  43.779  42.890   4.639
78237W        W39658  13.212   0.313  12.956
78238W        W39659  43.902   2.408  12.027
78239W        W39660   7.316  27.072   1.817
78240W        W39661   3.400  34.566   3.867
78241W        W39662  39.384  44.397  11.882
78242W        W39663  39.556   0.807  12.387
78243W        W39664   6.401  14.651  13.345
78244W        W39665  37.855  37.908  12.470
78245W        W39666  36.887   9.834  11.558
78246W        W39667  36.043  10.347   9.964
78247W        W39668  34.998   9.659  13.819
78248W        W39669   1.840  23.159   2.265
78249W        W39670  12.784  43.877   1.814
78250W        W39671  18.104  25.166  12.473
78251W        W39672   5.809   3.926   0.835
78252W        W39673  13.253   1.967  12.501
78253W        W39674   9.254  16.160   0.784
78254W        W39675  23.073  20.085  11.441
78255W        W39676  41.822  16.310  13.879
78256W        W39677  40.549  36.582   3.172
78257W        W39678  27.948  20.244   2.803
78258W        W39679  27.510  29.666   4.640
78259W        W39680  24.069   4.762  14.344
78260W        W39681  19.281  37.851   1.841
78261W        W39682   0.887   5.382  12.468
78262W        W39683  32.050  44.969  12.948
78263W        W39684  33.420  16.077   2.666
78264W        W39685  10.189  25.575  14.375
78265W        W39686   8.705  43.270  13.026
78266W        W39687  34.057  41.892   4.351
78267W        W39688  33.961   4.345   0.339
78268W        W39689  15.203  32.987   1.809
78269W        W39690  40.414   0.475  13.909
78270W        W39691  12.686   1.945   4.266
78271W        W39692   8.739   5.326  10.637
78272W        W39693  23.599   2.803  12.907
78273W        W39694  41.958  27.517   2.342
78274W        W39695  24.648   4.332  12.004
78275W        W39696   0.410  22.132   4.162
78276W        W39697  21.135  13.628  13.044
78277W        W39698  24.598  15.087  13.058
78278W        W39699   7.707   2.841  12.458
78279W        W39700  32.933  19.240  12.985
78280W        W39701  32.933   1.942  13.985
78281W        W39702  35.481  24.535  11.538
78282W        W39703   9.793  22.535  12.826
78283W        W39704  15.156  30.028  11.959
78284W        W39705  14.096   3.848  14.301
78285W        W39706   3.441  22.552   3.823
78286W        W39707  27.010   9.707   3.671
78287W        W39708  16.767  26.592  14.026
78288W        W39709  13.341  16.774  13.908
78289W        W39710  17.137  24.138  11.456
78290W        W39711  23.721  41.335  13.973
78291W        W39712  29.573   3.415  12.462
78292W        W39713  14.243  36.374  13.969
78293W        W39714  11.131   9.245  10.617
78294W        W39715  34.958  29.474   3.327
78295W        W39716  12.792  11.136  14.372
78296W        W39717  11.323  31.433  10.551
78297W        W39718  34.966  31.430   4.240
78298W        W39719  14.115   5.234   3.244
78299W        W39720  22.198  38.401   2.710
78300W        W39721  28.457  21.658  13.828
78301W        W39722  19.078  24.162  12.887
78302W        W39723  22.570  41.022  11.579
78303W        W39724  36.899  37.916   2.368
78304W        W39725  22.111  34.071  11.415
78305W        W39726  25.190   0.374   3.217
78306W        W39727  29.520  35.875  10.072
78307W        W39728  10.725  37.917   0.730
78308W        W39729   5.279  39.971  13.819
78309W        W39730   5.368  19.602  11.970
78310W        W39731  34.039  22.190  14.380
78311W        W39732  38.387   4.406  12.977
78312W        W39733  34.557  23.086   3.748
78313W        W39734  26.528   6.274  12.075
78314W        W39735  14.205  22.999  11.416
78315W        W39736  22.504  14.325  12.560
78316W        W39737   0.821   8.184   0.892
78317W        W39738  38.375  15.232  12.402
78318W        W39739  22.149  37.849  11.908
78319W        W39740   3.793  37.032  10.525
78320W        W39741   2.856   9.833   0.895
78321W        W39742  42.475  30.942  12.097
78322W        W39743   8.785   8.764   3.148
78323W        W39744   2.318  22.997  12.073
78324W        W39745  37.035  28.481  11.062
78325W        W39746  21.219  40.407  10.906
78326W        W39747  22.681   4.373   3.699
78327W        W39748  26.702   9.849  14.476
78328W        W39749  37.950  17.238  14.880
78329W        W39750  38.036  35.438  13.874
78330W        W39751  23.107   3.828  12.920
78331W        W39752  35.963  13.116   1.742
78332W        W39753  36.359   4.324   2.781
78333W        W39754  43.831  18.660  12.421
78334W        W39755  12.243  29.134  13.872
78335W        W39756  30.436   6.263   3.172
78336W        W39757   5.312  40.435  13.437
78337W        W39758  32.038  43.952   3.822
78338W        W39759   2.323  38.949  13.426
78339W        W39760   4.810  24.639  13.335
78340W        W39761  21.035  20.637  11.855
78341W        W39762  23.164  25.605   1.812
78342W        W39763  16.206  24.512   4.737
78343W        W39764  24.014  31.963   1.365
78344W        W39765  17.287   3.948   4.786
78345W        W39766  13.638  29.555   0.967
78346W        W39767   8.273   7.371  14.330
78347W        W39768  11.630  40.497   0.776
78348W        W39769   2.349  24.677  14.010
78349W        W39770  26.479  38.547  12.522
78350W        W39771  19.270  34.937   0.845
78351W        W39772   3.850  19.594   3.191
78352W        W39773  16.616  42.006  13.425
78353W        W39774  14.313   0.789  10.611
78354W        W39775   0.786  11.329  11.553
78355W        W39776   4.259  44.486   5.226
78356W        W39777  38.451  27.972  13.409
78357W        W39778  18.117  44.390  14.973
78358W        W39779  23.072  24.208  11.503
78359W        W39780  42.399  35.513  13.546
78360W        W39781  32.059  30.447   0.832
78361W        W39782  37.385   0.256   4.639
78362W        W39783  36.531   0.373   3.323
78363W        W39784   2.362  33.058   5.686
78364W        W39785  44.900  14.616   2.402
78365W        W39786  17.649  37.558  11.064
78366W        W39787   5.396  14.173  13.971
78367W        W39788  12.774  22.731   3.161
78368W        W39789  20.257   7.413  11.039
78369W        W39790   3.415   0.944   0.311
78370W        W39791  44.913  28.434   1.872
78371W        W39792  21.715  35.974  11.901
78372W        W39793  39.340  28.517  10.501
78373W        W39794  24.034   9.292   3.347
78374W        W39795   3.764  23.984  11.077
78375W        W39796  43.957  22.224  14.415
78376W        W39797  32.620  43.458   2.183
78377W        W39798  30.043  39.016  11.432
78378W        W39799  19.168  43.323  10.995
78379W        W39800   9.184  41.799   4.329
78380W        W39801  26.200  15.192   2.726
78381W        W39802  11.687   7.875  12.879
78382W        W39803  16.189   4.286   2.314
78383W        W39804  37.536  28.060   3.683
78384W        W39805  12.735  26.162  14.949
78385W        W39806   5.433  22.029  10.028
78386W        W39807   7.313   7.364  11.605
78387W        W39808   0.396  42.923   1.825
78388W        W39809   0.394  15.619   5.224
78389W        W39810  21.730  10.240   1.711
78390W        W39811  20.089  17.730   3.258
78391W        W39812  30.031   2.251  12.526
78392W        W39813  32.982  14.125  11.109
78393W        W39814   0.751  36.433  10.633
78394W        W39815  38.418  18.243   4.631
78395W        W39816  30.921  23.031   1.738
78396W        W39817  43.460  35.551  10.592
78397W        W39818  38.942  18.293  11.903
78398W        W39819   3.307   7.882   4.116
78399W        W39820  15.142  41.911   3.749
78400W        W39821  26.124  33.015  13.419
78401W        W39822   4.909  26.020   2.780
78402W        W39823  44.796   5.798   1.804
78403W        W39824  31.102   8.310  12.954
78404W        W39825  18.670   5.761   3.634
78405W        W39826  20.669  21.641  14.968
78406W        W39827   8.710   8.755   4.788
78407W        W39828  42.487  40.905   4.141
78408W        W39829   1.742  14.668   4.609
78409W        W39830  10.160   6.210  13.364
78410W        W39831   9.214   3.452   4.263
78411W        W39832  10.815  15.621  12.525
78412W        W39833   5.789  30.017  14.835
78413W        W39834  28.020   6.229  10.973
78414W        W39835  34.445  40.375   0.248
78415W        W39836  29.950  38.356   0.469
78416W        W39837  21.705  11.276   4.119
78417W        W39838  31.089  15.579   2.310
78418W        W39839  44.378  20.113   1.929
78419W        W39840  34.899  34.960  11.608
78420W        W39841   9.769   8.302   0.805
78421W        W39842  42.017  21.224  11.377
78422W        W39843  29.618  30.658   4.175
78423W        W39844  36.031  20.093  12.518
78424W        W39845   5.409   6.270   1.211
78425W        W39846  38.067  37.343  12.537
78426W        W39847   9.814  27.165  10.492
78427W        W39848  15.182  28.019   0.774
78428W        W39849  36.883  38.394   4.311
78429W        W39850   4.439   7.402   1.285
78430W        W39851  15.795  26.199   0.766
78431W        W39852  26.480  35.587  14.818
78432W        W39853  27.555  18.557   4.209
78433W        W39854  11.178  43.433  11.492
78434W        W39855  43.945  21.190   4.618
78435W        W39856  39.512  12.701  10.538
78436W        W39857  31.472  25.977   1.273
78437W        W39858   4.380  16.808   4.319
78438W        W39859  31.045  38.499   2.866
78439W        W39860  25.468  39.926  13.984
78440W        W39861  43.924  33.534   1.837
78441W        W39862   5.879  38.046  11.887
78442W        W39863  36.018   5.311   0.785
78443W        W39864  13.220  11.362   3.350
78444W        W39865  18.239  39.532  12.873
78445W        W39866  43.378   5.317   4.643
78446W        W39867  34.004   8.676  12.008
78447W        W39868   5.363  19.538  13.923
78448W        W39869   4.787  38.009  13.966
78449W        W39870   3.445   0.440  14.331
78450W        W39871   9.370  35.064  10.435
78451W        W39872  24.118   5.362   2.894
78452W        W39873  12.208  38.546   2.416
78453W        W39874  32.991   6.920   3.170
78454W        W39875  36.559  28.457  12.961
78455W        W39876  16.183  14.603   0.756
78456W        W39877  41.835  23.084  14.423
78457W        W39878  24.498  27.513  10.922
78458W        W39879  36.023   3.348  14.378
78459W        W39880  37.073  40.544  10.641
78460W        W39881  29.473  43.288  14.993
78461W        W39882  39.548   7.878  10.616
78462W        W39883   8.832  17.126  14.902
78463W        W39884  40.358  35.891  10.554
78464W        W39885   3.823   4.760   0.849
78465W        W39886  18.130   0.744   0.392
78466W        W39887   1.810  36.072   2.414
78467W        W39888  35.864  38.943   2.687
78468W        W39889  39.526  18.156  13.543
78469W        W39890  25.514   1.882  13.030
78470W        W39891  19.191  25.118  12.009
78471W        W39892   6.715  42.989  12.052
78472W        W39893  12.167  25.024  11.026
78473W        W39894  11.866  37.920   3.634
78474W        W39895  44.779  38.937   2.732
78475W        W39896  14.762  23.220  13.022
78476W        W39897  23.197  32.073   2.311
78477W        W39898  32.408  42.314  11.114
78478W        W39899  44.820   1.841  12.531
78479W        W39900  11.740  14.830  13.885
78480W        W39901   3.803  22.021  10.497
78481W        W39902  16.103  39.903   2.391
78482W        W39903  25.968  19.259   2.824
78483W        W39904  17.183   0.958   2.690
78484W        W39905  40.528  43.996   4.607
78485W        W39906  43.992   8.865  12.063
78486W        W39907  29.118   7.329  11.902
78487W        W39908  17.235  40.531  12.888
78488W        W39909   9.343  20.144  10.533
78489W        W39910  34.872   7.392   4.207
78490W        W39911  27.021  10.354   2.312
78491W        W39912  17.111  16.767  12.831
78492W        W39913   5.322  42.284  12.079
78493W        W39914  38.475  35.520  11.389
78494W        W39915  20.638  20.192   2.823
78495W        W39916  16.250  44.996   0.768
78496W        W39917  35.571  26.096  13.797
78497W        W39918  18.170  13.180  10.522
78498W        W39919  18.577   1.758  14.477
78499W        W39920   9.204  33.392   0.423
78500W        W39921  21.031  39.964   2.259
78501W        W39922   5.208  36.843  11.092
78502W        W39923  30.559  15.790   1.415
78503W        W39924  33.926   3.928  14.897
78504W        W39925   5.810  16.088   1.397
78505W        W39926   4.409   6.271  11.606
78506W        W39927  43.798   3.888  13.015
78507W        W39928   8.805   2.390   0.269
78508W        W39929   1.746  28.066  14.890
78509W        W39930  23.105  26.024   4.130
78510W        W39931  34.576   4.273   3.357
78511W        W39932  41.342  37.007   4.131
78512W        W39933  22.122   7.198   3.202
78513W        W39934   3.251  22.644   4.808
78514W        W39935   1.782  19.254  11.971
78515W        W39936  39.902  34.081  11.513
78516W        W39937  22.166  21.666  11.095
78517W        W39938  27.980  11.630  10.545
78518W        W39939   9.334  30.462   2.706
78519W        W39940  37.531   0.261  12.401
78520W        W39941  25.526  25.128   5.234
78521W        W39942   7.893   2.404  12.446
78522W        W39943   5.303  32.561   2.314
78523W        W39944  28.508  41.392   4.659
78524W        W39945  41.378   9.393   4.793
78525W        W39946  35.897  37.965   4.272
78526W        W39947   0.354   8.748   0.288
78527W        W39948   3.883  24.056   4.252
78528W        W39949  41.880   4.743  14.510
78529W        W39950  40.472  29.094   2.824
78530W        W39951   8.748  13.115  12.577
78531W        W39952  20.112  27.550  12.442
78532W        W39953  29.121  42.521   3.282
78533W        W39954   0.800  35.420  13.347
78534W        W39955  26.573  18.134   4.719
78535W        W39956  26.147   7.808   1.316
78536W        W39957  14.247  23.605  14.469
78537W        W39958  17.566  18.791  11.377
78538W        W39959  16.798   9.704   0.333
78539W        W39960  21.723   6.743  13.904
78540W        W39961  31.597   0.457   2.299
78541W        W39962   4.376   2.780  12.382
78542W        W39963  11.699  43.019  10.998
78543W        W39964  18.148  41.360  11.083
78544W        W39965  16.670  42.842   3.339
78545W        W39966  39.384  37.456   3.704
78546W        W39967  15.634  10.326   0.323
78547W        W39968  32.035   7.207  11.502
78548W        W39969  20.758   5.301   5.678
78549W        W39970  26.703  33.929  12.345
78550W        W39971   2.302  42.467  14.942
78551W        W39972  23.615  22.244  12.566
78552W        W39973  14.290  33.506  13.315
78553W        W39974  30.025  27.591   1.902
78554W        W39975  15.754  39.829  11.959
78555W        W39976  36.402  29.151   4.126
78556W        W39977  18.784  16.145   4.201
78557W        W39978   1.764  10.832  12.846
78558W        W39979  29.003  16.589  13.396
78559W        W39980  11.224  29.448   1.882
78560W        W39981  26.154  44.795  14.388
78561W        W39982  11.729  29.047   2.258
78562W        W39983  26.582  12.669  14.890
78563W        W39984  34.098  14.817  12.026
78564W        W39985   7.779  41.402   1.719
78565W        W39986   9.747  18.224   1.449
78566W        W39987  23.102  33.416  12.057
78567W        W39988   6.215  18.759   4.831
78568W        W39989  30.545  16.724   0.958
78569W        W39990  40.831   5.743  13.021
78570W        W39991  28.015   5.204   4.645
78571W        W39992   1.377   1.954   4.742
78572W        W39993  42.986  24.683   1.332
78573W        W39994   3.717  30.091   4.759
78574W        W39995  41.976   9.794   2.816
78575W        W39996  22.079  15.143   4.652
78576W        W39997  23.615   8.346   2.325
78577W        W39998  15.764  41.538  13.002
78578W        W39999  18.776  35.920   0.476
78579W        W40000   8.305  21.033  14.363
78580W        W40001  34.927  18.735  14.486
78581W        W40002  18.282  15.604  10.071
78582W        W40003  16.617  11.626  13.456
78583W        W40004  39.984   3.361  11.053
78584W        W40005  17.164  43.499  14.854
78585W        W40006  22.209  41.421  11.372
78586W        W40007  29.614   4.829  14.486
78587W        W40008   6.307  12.327   2.758
78588W        W40009  33.040  38.531   3.211
78589W        W40010  42.837  38.018  14.374
78590W        W40011  21.055  28.477  14.460
78591W        W40012  15.810  34.481   2.239
78592W        W40013  22.542  34.590  14.318
78593W        W40014  36.886  22.145  11.473
78594W        W40015   7.844  37.563  12.353
78595W        W40016  14.300  31.059  13.409
78596W        W40017  21.586  25.059   0.379
78597W        W40018   1.956  15.086   0.383
78598W        W40019  39.986  21.071   1.899
78599W        W40020   0.966   1.830   3.726
78600W        W40021  14.122  12.710  14.860
78601W        W40022  17.096  19.242  14.276
78602W        W40023  38.974  30.570  10.915
78603W        W40024  19.039  26.171   0.938
78604W        W40025  38.846   2.415   3.157
78605W        W40026  42.389  16.797   3.235
78606W        W40027  11.688  43.862   4.764
78607W        W40028  35.855  21.236  11.113
78608W        W40029  37.470  36.070  12.919
78609W        W40030  21.184  27.012  11.013
78610W        W40031  11.198  15.636   0.808
78611W        W40032  28.140  17.599   3.633
78612W        W40033  28.000  36.888   0.426
78613W        W40034  31.069  44.303  10.916
78614W        W40035  35.424   0.965   2.295
78615W        W40036  35.867   1.930   2.319
78616W        W40037  44.938  27.487   4.612
78617W        W40038  37.490   7.758   1.709
78618W        W40039  38.915  38.472   4.298
78619W        W40040  20.679  15.734   0.360
78620W        W40041  14.749   9.346  12.462
78621W        W40042  25.059  25.544  14.759
78622W        W40043   2.400  38.517  12.868
78623W        W40044  22.713  39.827   0.288
78624W        W40045  22.676  34.000  10.612
78625W        W40046  28.961  44.780   1.338
78626W        W40047  13.280  24.638  13.936
78627W        W40048   7.870  31.059  11.586
78628W        W40049  24.025  34.402  11.931
78629W        W40050  33.468  36.868   1.214
78630W        W40051   9.650   2.864   1.407
78631W        W40052  31.050  32.940   1.932
78632W        W40053  11.262  34.566   1.258
78633W        W40054  17.763  20.555  12.544
78634W        W40055  16.723   2.903   2.738
78635W        W40056  34.926   1.402  11.441
78636W        W40057  32.451  27.663   3.365
78637W        W40058  40.046   3.305   2.217
78638W        W40059  39.906  20.762   0.247
78639W        W40060  19.101   0.891   3.263
78640W        W40061  18.173  31.506  12.515
78641W        W40062   0.921  28.628  10.436
78642W        W40063  19.176  39.377  12.870
78643W        W40064  36.070  30.143  11.372
78644W        W40065  29.048  16.148  13.436
78645W        W40066   2.892  36.456   4.126
78646W        W40067   9.721  26.489   2.314
78647W        W40068  37.486  29.506  12.364
78648W        W40069   8.358  30.615   2.721
78649W        W40070   0.892  42.417   2.309
78650W        W40071  22.617  33.058  14.949
78651W        W40072  16.235  19.746  14.311
78652W        W40073  25.123  30.465   3.795
78653W        W40074  23.201  28.473   2.847
78654W        W40075  16.217  33.877   2.400
78655W        W40076  19.215  15.157  11.049
78656W        W40077   0.809  38.886   1.695
78657W        W40078   4.775   9.313   4.229
78658W        W40079  22.675  34.464  12.384
78659W        W40080  36.477   3.367   4.263
78660W        W40081   3.328  16.691   2.302
78661W        W40082  29.006  38.443   4.186
78662W        W40083  27.632   9.886   3.175
78663W        W40084   4.251  22.163   1.249
78664W        W40085  16.798  19.156   4.302
78665W        W40086  27.559  24.199  14.826
78666W        W40087  12.675  42.429  14.798
78667W        W40088  33.607  19.668  12.356
78668W        W40089  41.365  44.910   2.776
78669W        W40090  43.903  16.113  14.873
78670W        W40091  32.492  26.084   2.775
78671W        W40092  15.315  19.243   3.147
78672W        W40093  25.976  11.640  13.866
78673W        W40094   7.401  22.732  10.543
78674W        W40095  22.160  23.037   3.309
78675W        W40096  33.507   9.702   0.466
78676W        W40097  44.966  37.084  11.008
78677W        W40098   3.772  22.134  10.132
78678W        W40099  17.229  33.019   3.654
78679W        W40100  37.010   8.748  11.546
78680W        W40101  13.142  38.939  14.485
78681W        W40102   3.930  23.668  12.405
78682W        W40103  34.566  12.638   0.476
78683W        W40104   4.766  26.541  12.847
78684W        W40105   5.871  38.549  14.390
78685W        W40106  23.158   0.351  14.332
78686W        W40107  35.560  22.536  10.482
78687W        W40108  43.437  28.127   4.285
78688W        W40109  43.938   9.718   3.639
78689W        W40110  11.656   9.326   1.324
78690W        W40111  15.199  20.265   4.739
78691W        W40112  41.974  32.940   0.347
78692W        W40113  41.985  11.727  13.893
78693W        W40114  40.895  19.577   3.302
78694W        W40115  10.144  13.158   2.696
78695W        W40116  39.529  19.155  11.111
78696W        W40117  37.529  21.064   3.717
78697W        W40118  37.346  33.597  10.604
78698W        W40119  35.425  11.624  12.901
78699W        W40120  24.673  17.093   4.115
78700W        W40121  28.947  16.623   0.282
78701W        W40122   3.228   6.425   0.891
78702W        W40123  20.189  19.552  14.493
78703W        W40124  28.632  19.219   1.715
78704W        W40125   4.229  27.998   4.222
78705W        W40126  16.678   6.897  13.969
78706W        W40127  44.999   8.875  14.472
78707W        W40128  15.767  44.990  13.371
78708W        W40129  33.978  34.484   3.267
78709W        W40130  30.654  37.875   4.835
78710W        W40131  37.442  43.448   1.717
78711W        W40132  13.699  38.551   0.797
78712W        W40133   0.963   5.404  11.415
78713W        W40134  17.189  43.903  11.556
78714W        W40135  21.224  41.032   3.290
78715W        W40136  33.549  22.245   0.780
78716W        W40137  44.272   1.930   3.154
78717W        W40138  40.005  24.614  13.923
78718W        W40139  29.582  35.579   2.376
78719W        W40140  29.526  19.204   3.227
78720W        W40141   3.724   9.647  11.010
78721W        W40142  31.025  22.227   3.254
78722W        W40143  42.815  40.988  13.468
78723W        W40144   6.319   8.250   2.397
78724W        W40145  23.179  32.127   3.732
78725W        W40146  19.063  35.477  11.883
78726W        W40147  32.582  14.643   2.275
78727W        W40148  26.568  17.271  10.443
78728W        W40149  14.749  30.630  12.347
78729W        W40150  14.742  12.256   4.598
78730W        W40151  21.538  14.197   0.727
78731W        W40152   1.248  32.586   2.776
78732W        W40153  25.109  34.037  13.966
78733W        W40154  24.690  17.594  12.510
78734W        W40155  41.817  38.419   3.365
78735W        W40156   7.799   1.479  12.949
78736W        W40157  35.492  26.956   4.183
78737W        W40158   9.303  29.489   4.185
78738W        W40159  25.496   3.395   5.249
78739W        W40160  28.993  20.738  14.397
78740W        W40161  38.463  30.964  10.550
78741W        W40162  36.566   5.237  11.467
78742W        W40163  29.065  15.614  11.113
78743W        W40164  31.484  41.357  11.430
78744W        W40165  21.074  12.260  13.985
78745W        W40166  30.987  11.818   3.860
78746W        W40167  22.227   8.248  12.423
78747W        W40168  39.364  35.928  14.385
78748W        W40169  35.901  27.120   3.637
78749W        W40170  27.060  43.773   1.362
78750W        W40171  40.514  30.652  10.594
78751W        W40172  24.105  42.004   2.195
78752W        W40173   0.360  20.224   4.146
78753W        W40174  16.766  36.438   2.367
78754W        W40175  40.427  19.706  10.631
78755W        W40176  34.118  19.077  13.915
78756W        W40177   7.689  30.144  12.832
78757W        W40178  37.462   9.285   2.332
78758W        W40179  42.375  25.031  10.406
78759W        W40180  20.649   4.704  11.122
78760W        W40181  20.051   7.818  10.617
78761W        W40182  13.843  16.678   0.370
78762W        W40183   9.850  24.083  14.883
78763W        W40184  33.594   0.857   3.868
78764W        W40185  40.345  29.119  13.411
78765W        W40186  12.213   0.319   3.251
78766W        W40187  30.982  10.318   0.840
78767W        W40188  19.260  29.608  10.555
78768W        W40189  41.381  27.115  12.955
78769W        W40190  36.395  21.152  11.861
78770W        W40191  11.842  17.677  12.472
78771W        W40192  18.281  40.435  14.940
78772W        W40193  40.535  26.094  13.464
78773W        W40194  36.499   9.712   4.148
78774W        W40195  42.964   1.384   0.291
78775W        W40196  34.891  26.488  13.457
78776W        W40197  43.324   3.765   4.739
78777W        W40198  30.058   0.320  10.593
78778W        W40199  21.136   4.342   0.459
78779W        W40200  34.019   8.344  10.555
78780W        W40201  29.014  39.999  11.863
78781W        W40202   8.666  14.218  13.436
78782W        W40203  18.671  15.763   1.378
78783W        W40204   3.307  44.867  10.160
78784W        W40205  24.036   0.325  11.861
78785W        W40206  41.804  27.606   4.656
78786W        W40207   6.262  30.583   4.764
78787W        W40208  18.555  32.120  14.871
78788W        W40209  26.507   1.450   3.720
78789W        W40210  40.405  35.444  13.920
78790W        W40211  37.522   2.392   1.891
78791W        W40212  22.165   2.733  12.443
78792W        W40213  31.087  41.420   0.777
78793W        W40214  36.854  15.614  14.304
78794W        W40215  28.468  36.010  10.489
78795W        W40216  26.701  21.116   1.368
78796W        W40217   3.901  40.417   2.807
78797W        W40218  31.584  16.725  10.890
78798W        W40219  11.347  30.954   2.284
78799W        W40220   3.418  14.128   1.446
78800W        W40221  30.474  36.366  12.401
78801W        W40222  41.536  18.130  13.331
78802W        W40223  23.189  19.617   2.338
78803W        W40224  27.505  39.514  11.876
78804W        W40225  13.718  40.804   1.787
78805W        W40226  27.035  32.938   3.256
78806W        W40227  21.531   8.299  13.511
78807W        W40228  26.678  41.863  12.427
78808W        W40229  18.155   3.446  14.450
78809W        W40230  33.989  44.345   2.345
78810W        W40231  32.513  41.331   0.473
78811W        W40232  37.954  32.904  10.949
78812W        W40233  20.167  44.953  14.923
78813W        W40234  29.636  21.756  10.537
78814W        W40235  14.679  25.146   4.820
78815W        W40236  33.092  14.157   4.256
78816W        W40237  21.028  38.929   2.193
78817W        W40238   1.415  38.325   4.826
78818W        W40239  44.293  29.934  14.909
78819W        W40240  40.476   5.840   1.787
78820W        W40241   1.902   8.406   1.304
78821W        W40242   9.393  42.464   2.838
78822W        W40243  20.129  25.203  10.092
78823W        W40244  41.348  19.698  10.580
78824W        W40245  10.303  13.270   4.745
78825W        W40246  38.826  41.990   1.797
78826W        W40247  34.603  40.032   2.858
78827W        W40248   4.837  20.766   2.770
78828W        W40249  29.963  20.046  12.572
78829W        W40250   7.754   5.924   1.325
78830W        W40251  35.944  16.224  14.401
78831W        W40252  44.424   5.863  10.026
78832W        W40253  17.651  28.095   0.372
78833W        W40254  26.079  26.103   4.608
78834W        W40255  17.068  12.182   4.128
78835W        W40256   2.832  12.722  10.534
78836W        W40257   0.802  20.266  14.903
78837W        W40258  33.057  32.054  13.353
78838W        W40259   4.227  35.485   0.354
78839W        W40260  14.289   6.848  13.899
78840W        W40261  31.064  32.479  12.009
78841W        W40262  24.139   2.330  11.391
78842W        W40263   6.894   0.333  13.923
78843W        W40264  19.581  38.048   0.343
78844W        W40265  26.145  22.560   2.390
78845W        W40266   1.889  12.266   1.702
78846W        W40267  28.974  25.190   4.626
78847W        W40268  21.600   8.812  10.424
78848W        W40269  42.354  38.000   4.332
78849W        W40270  33.552  15.179   4.156
78850W        W40271  30.085  29.144   3.670
78851W        W40272  35.529   7.302   0.414
78852W        W40273   9.782  15.225  14.840
78853W        W40274   5.907  36.423  14.809
78854W        W40275  43.901  21.746   4.270
78855W        W40276  32.497  19.567   2.398
78856W        W40277  31.068  30.419  12.977
78857W        W40278  17.792  20.188   4.735
78858W        W40279  41.453  31.091  11.101
78859W        W40280  38.849  34.873   0.286
78860W        W40281  18.262  11.826   9.567
78861W        W40282  29.643  18.075  11.420
78862W        W40283  26.063  34.926  14.463
78863W        W40284  23.085  29.929   3.815
78864W        W40285  40.973  31.510   1.876
78865W        W40286  11.261  32.456  11.525
78866W        W40287  15.783  25.034  12.522
78867W        W40288  20.215  27.139  13.876
78868W        W40289  18.284  13.218   4.243
78869W        W40290  38.869  10.787  11.890
78870W        W40291   5.328   6.313   1.822
78871W        W40292   7.322   4.322   4.188
78872W        W40293   3.261  22.611  14.363
78873W        W40294  24.214  18.124   9.956
78874W        W40295  42.441  30.085   3.646
78875W        W40296  43.966  28.681   1.706
78876W        W40297  13.319  14.300   1.927
78877W        W40298  28.465  20.540   2.189
78878W        W40299  23.011  24.503   1.439
78879W        W40300  34.609  25.563  12.054
78880W        W40301   5.207   2.229   2.755
78881W        W40302  19.572  29.469  10.996
78882W        W40303   3.228  34.966  14.015
78883W        W40304  32.129   3.827  13.542
78884W        W40305   0.263   9.394   2.675
78885W        W40306  30.437  11.140   0.354
78886W        W40307  40.864  34.414  13.495
78887W        W40308  23.540  17.074   2.807
78888W        W40309  22.584   3.246   2.871
78889W        W40310  33.024  11.796  13.806
78890W        W40311  13.130   7.217   1.248
78891W        W40312  12.813  38.074  12.491
78892W        W40313   9.230  32.634   3.749
78893W        W40314   5.327  39.524  14.438
78894W        W40315   4.249  39.429   2.400
78895W        W40316  11.769  44.967   1.713
78896W        W40317  17.079  14.218   5.759
78897W        W40318  31.486   9.313   4.602
78898W        W40319  37.367  43.328  10.457
78899W        W40320  42.464  36.926   2.307
78900W        W40321  10.698   4.373   3.176
78901W        W40322  23.584   1.790  14.445
78902W        W40323  19.220  44.497  13.481
78903W        W40324  25.170  40.959  11.456
78904W        W40325  12.331  31.034  12.902
78905W        W40326  12.282  40.377   3.298
78906W        W40327   7.736  40.846  13.391
78907W        W40328  41.018  42.872   4.230
78908W        W40329  19.709  13.120  10.053
78909W        W40330  20.721  38.570   4.707
78910W        W40331  35.928  14.611   3.743
78911W        W40332  36.364  36.006  13.049
78912W        W40333   5.900  13.666   4.823
78913W        W40334   2.467  28.935   5.318
78914W        W40335  36.585  17.581   2.899
78915W        W40336  30.127  25.480  13.893
78916W        W40337  30.118  28.595  14.797
78917W        W40338  25.609  38.556  12.448
78918W        W40339  29.044   7.293  14.422
78919W        W40340  33.625  29.064  11.924
78920W        W40341   9.235   3.378   1.288
78921W        W40342  43.996  41.854  11.445
78922W        W40343  23.222  35.035   1.239
78923W        W40344  23.991   9.647   0.265
78924W        W40345  28.447   3.857  14.441
78925W        W40346  32.550   1.360  14.781
78926W        W40347  19.223   8.762  14.282
78927W        W40348  31.110  31.091  14.303
78928W        W40349  36.418  43.357  11.387
78929W        W40350  42.921  32.048   4.171
78930W        W40351  15.657   9.177  14.359
78931W        W40352  23.496  39.353  10.480
78932W        W40353  39.560   2.855  14.306
78933W        W40354  18.199  28.170   0.444
78934W        W40355  22.103  36.448   3.751
78935W        W40356  39.380  36.472  13.961
78936W        W40357  42.367  14.808  14.437
78937W        W40358  39.398  25.055  13.509
78938W        W40359  39.870  37.449   2.716
78939W        W40360   5.823  11.761  13.410
78940W        W40361  22.567   5.782  14.960
78941W        W40362  32.601  37.885   0.268
78942W        W40363   9.883  26.171  11.518
78943W        W40364  38.417  11.730   3.294
78944W        W40365  13.818  36.020  11.123
78945W        W40366  16.289  18.245   4.603
78946W        W40367  11.819  38.051   4.306
78947W        W40368   0.340   9.331   2.233
78948W        W40369  26.047  43.515  11.907
78949W        W40370  40.905  20.765  10.473
78950W        W40371  38.500   1.472   2.683
78951W        W40372  27.662  29.994   3.159
78952W        W40373   7.239  31.012  12.572
78953W        W40374   9.381  32.916   3.180
78954W        W40375  13.782  43.951  11.581
78955W        W40376   1.785  41.345  14.902
78956W        W40377  35.895  15.322  14.441
78957W        W40378  28.560   6.767   2.336
78958W        W40379  44.004  42.467   3.699
78959W        W40380   8.893   4.700  14.781
78960W        W40381  36.904   6.395   2.240
78961W        W40382  33.445  20.725   5.235
78962W        W40383  40.970  28.171  10.913
78963W        W40384  18.196  28.630  13.894
78964W        W40385   9.825  28.053  13.976
78965W        W40386  32.462  15.747   2.873
78966W        W40387   3.819   8.199   2.697
78967W        W40388   1.798   9.266   3.644
78968W        W40389  14.785  28.142  12.924
78969W        W40390  41.942  33.487  11.503
78970W        W40391   6.790  38.373   2.383
78971W        W40392  11.655  29.157   1.398
78972W        W40393  15.136  22.032   3.332
78973W        W40394  14.303  15.669   2.676
78974W        W40395  39.824  19.628   0.745
78975W        W40396  38.915   5.849   1.775
78976W        W40397  29.071  25.691   0.957
78977W        W40398  20.252  21.153  13.940
78978W        W40399  15.674  23.570  12.445
78979W        W40400  22.165  17.101   3.266
78980W        W40401  16.245  41.383  10.637
78981W        W40402  27.188   4.286  11.076
78982W        W40403   2.838   3.799   3.851
78983W        W40404  13.696  36.520   3.167
78984W        W40405  19.685  17.576  11.936
78985W        W40406  11.226  37.438   4.293
78986W        W40407  21.601  26.060  11.577
78987W        W40408  28.630  43.889  12.382
78988W        W40409   0.834  18.109  12.929
78989W        W40410  41.438   2.241  10.638
78990W        W40411  23.132  37.533   2.281
78991W        W40412  15.649  26.511  14.398
78992W        W40413  27.957   9.840   4.758
78993W        W40414  35.364   6.275  14.361
78994W        W40415   6.679  11.648   0.952
78995W        W40416   4.864   8.838  11.083
78996W        W40417  17.105  37.445   0.272
78997W        W40418  10.214  36.899  10.478
78998W        W40419  43.969  43.012  11.990
78999W        W40420   1.836   3.750  14.311
79000W        W40421  30.474  14.259   1.256
79001W        W40422   0.843  22.660  11.040
79002W        W40423  11.176  22.047   1.837
79003W        W40424  19.660  28.586  12.026
79004W        W40425  20.052  36.040   0.838
79005W        W40426  30.527  31.125   4.688
79006W        W40427  23.710  29.951  14.833
79007W        W40428  36.389  33.901  13.380
79008W        W40429   8.271  24.646  10.405
79009W        W40430  12.849  44.404  12.362
79010W        W40431   5.341  38.365  10.894
79011W        W40432  24.119   1.766   3.248
79012W        W40433  43.431  17.276   4.212
79013W        W40434  21.062   5.334  14.797
79014W        W40435  35.005   4.427  10.055
79015W        W40436  38.969   2.844  14.766
79016W        W40437  33.584  18.152   4.242
79017W        W40438  35.501  13.640   0.788
79018W        W40439   6.699  22.031  11.579
79019W        W40440   5.371  31.944   2.832
79020W        W40441  39.354  26.193   0.857
79021W        W40442  30.562   9.320  14.936
79022W        W40443  12.827  29.527  10.439
79023W        W40444  12.287  25.962  11.374
79024W        W40445  11.188  13.175   2.419
79025W        W40446  39.953   6.702   0.315
79026W        W40447  42.958  13.113  14.970
79027W        W40448   5.896  14.766   0.878
79028W        W40449  44.778  27.193   0.947
79029W        W40450   0.908  29.639  13.890
79030W        W40451  25.044  30.558  14.885
79031W        W40452  24.100  16.148  11.126
79032W        W40453  41.786   5.813  10.554
79033W        W40454  13.311  35.597  13.019
79034W        W40455   7.211  12.855   0.428
79035W        W40456  19.194  33.876   1.791
79036W        W40457  25.499  16.632   0.756
79037W        W40458  17.683  41.833  10.549
79038W        W40459  14.169  16.084  11.095
79039W        W40460  44.465  43.278   0.326
79040W        W40461  34.919  43.421   0.432
79041W        W40462   2.440  41.997  13.349
79042W        W40463  29.489  17.241   0.382
79043W        W40464  40.054  33.576   3.268
79044W        W40465   2.883  22.116   3.192
79045W        W40466   9.699  26.563  12.573
79046W        W40467  21.678  14.176   3.646
79047W        W40468   2.830  34.053   4.263
79048W        W40469   1.787  17.192   3.182
79049W        W40470   2.286  36.348  13.414
79050W        W40471  35.370  28.086   0.471
79051W        W40472   8.215  43.309  11.380
79052W        W40473  44.938   0.313   3.765
79053W        W40474  28.054  26.591   5.082
79054W        W40475   6.243  23.088   1.222
79055W        W40476  33.966  39.336  12.024
79056W        W40477  15.613  30.056  12.534
79057W        W40478  27.194  27.500   3.243
79058W        W40479  30.583  32.031   3.681
79059W        W40480  43.996  44.791  14.365
79060W        W40481   5.200   8.317   2.832
79061W        W40482  11.196  39.819   3.832
79062W        W40483  42.455  42.865   3.668
79063W        W40484  42.822   6.906  13.421
79064W        W40485   7.843   6.905  13.413
79065W        W40486  26.062  20.179   4.787
79066W        W40487   4.357  44.778  12.926
79067W        W40488  17.607   1.383  12.354
79068W        W40489  16.699  36.362   0.436
79069W        W40490   7.897  36.397  11.554
79070W        W40491   1.749  37.918   0.305
79071W        W40492  29.519  23.122   0.468
79072W        W40493  21.234  36.453  11.975
79073W        W40494  26.498  39.495   2.274
79074W        W40495   1.402  33.059   2.406
79075W        W40496  19.696  12.117  12.446
79076W        W40497   1.410  29.128  12.502
79077W        W40498  32.910   2.355  11.932
79078W        W40499  25.536  43.972   3.724
79079W        W40500  15.593  36.542  12.826
79080W        W40501  10.280  40.016   4.600
79081W        W40502  25.185  15.252  11.522
79082W        W40503  32.393  19.077   4.244
79083W        W40504  44.760   2.279   1.292
79084W        W40505  28.577  23.091   0.272
79085W        W40506  23.217  42.932  14.014
79086W        W40507  26.615  21.191  12.896
79087W        W40508  31.996  43.379   1.299
79088W        W40509  28.093   0.781  13.862
79089W        W40510   0.911  23.641  11.388
79090W        W40511   2.749  16.677  12.445
79091W        W40512  18.168  42.408   0.362
79092W        W40513  28.045  10.183   4.609
79093W        W40514   8.381  20.096  14.824
79094W        W40515  30.032  36.070   2.865
79095W        W40516  22.655  42.801   2.236
79096W        W40517  28.473  17.683  14.762
79097W        W40518   2.358   9.673  14.965
79098W        W40519  31.149   2.737   3.692
79099W        W40520  43.946  26.186   0.895
79100W        W40521  25.663  25.086   2.342
79101W        W40522  20.028  14.176  11.875
79102W        W40523  10.750  12.796  10.981
79103W        W40524   6.819   7.727   3.833
79104W        W40525  27.623   1.749   1.853
79105W        W40526  44.874  15.152  14.333
79106W        W40527   5.855   9.701   4.806
79107W        W40528  27.555  20.135   3.176
79108W        W40529   9.869  10.643  10.616
79109W        W40530  33.114  18.575   4.120
79110W        W40531   0.249   4.702  11.116
79111W        W40532  31.571  11.819   4.664
79112W        W40533  18.668  34.438   4.304
79113W        W40534  27.183   9.763   0.445
79114W        W40535  38.965  19.646   1.309
79115W        W40536   1.355  10.354   0.314
79116W        W40537  14.304   6.277  12.420
79117W        W40538  12.323  33.048  11.873
79118W        W40539   5.805  18.288  12.076
79119W        W40540  32.131  37.987   4.205
79120W        W40541  30.525  13.256   1.821
79121W        W40542  31.947  12.158   0.788
79122W        W40543   2.756  21.216   1.361
79123W        W40544  43.274  44.916  12.913
79124W        W40545  16.735  11.836   4.225
79125W        W40546  15.163  43.312  13.407
79126W        W40547  15.585  37.370   4.203
79127W        W40548  27.597  40.886  11.938
79128W        W40549  44.369   5.301   1.773
79129W        W40550  20.697  34.888  14.295
79130W        W40551  10.729  23.029  10.505
79131W        W40552  44.293   2.375  14.863
79132W        W40553  34.061  14.687   0.345
79133W        W40554  30.465  30.513  14.826
79134W        W40555   3.921  10.222  12.919
79135W        W40556   4.242   1.467   0.437
79136W        W40557  15.641  33.518   5.217
79137W        W40558  39.945  24.196   4.690
79138W        W40559  24.085  26.132   3.665
79139W        W40560  34.476  38.833   3.321
79140W        W40561  22.566  18.235  12.482
79141W        W40562  41.476  21.575  10.536
79142W        W40563  19.616   6.200  14.767
79143W        W40564   2.763  16.243  12.382
79144W        W40565   1.819   8.394  11.468
79145W        W40566  35.501  34.080   0.904
79146W        W40567  43.927  43.773  14.274
79147W        W40568  16.696   8.327   1.322
79148W        W40569  42.872  37.513   0.875
79149W        W40570  31.971  38.870   0.901
79150W        W40571  16.204  16.766  14.811
79151W        W40572   7.356  39.053   2.734
79152W        W40573  35.397  22.021  11.583
79153W        W40574  24.218  13.843   2.787
79154W        W40575  41.422  11.307   3.780
79155W        W40576   7.372   8.216   3.215
79156W        W40577  15.671  21.591   1.263
79157W        W40578  14.291   4.726  12.501
79158W        W40579  20.055  42.032  10.951
79159W        W40580  16.209  27.003  14.338
79160W        W40581  12.636  21.165   4.836
79161W        W40582   8.342  32.622   0.431
79162W        W40583  40.911   6.845  11.125
79163W        W40584  42.470  33.561   4.128
79164W        W40585  17.128  33.951   0.827
79165W        W40586  22.143   2.936   1.238
79166W        W40587   9.694  28.486   3.183
79167W        W40588  34.076  32.437  14.392
79168W        W40589  12.268  34.973  12.438
79169W        W40590  27.987   5.889   4.175
79170W        W40591  19.065  29.016   3.760
79171W        W40592  12.795   5.379  11.930
79172W        W40593  18.250  11.719   3.737
79173W        W40594   4.411  40.813  12.521
79174W        W40595   8.362  11.185   2.821
79175W        W40596   6.919  14.296   2.870
79176W        W40597   0.791  43.365  14.022
79177W        W40598  40.525   7.310   2.336
79178W        W40599  34.008   9.209  11.473
79179W        W40600  37.362  33.454   0.345
79180W        W40601  13.843   0.461   2.392
79181W        W40602  34.061  27.474   2.838
79182W        W40603   9.796  37.876   0.910
79183W        W40604  16.578  19.219   2.348
79184W        W40605  31.411  21.638  10.911
79185W        W40606  28.068  41.397  14.974
79186W        W40607  32.017   6.409   4.208
79187W        W40608  40.388  32.107   4.837
79188W        W40609  44.458   7.837  13.961
79189W        W40610  40.044  24.982   3.743
79190W        W40611   7.371  30.532   2.340
79191W        W40612  26.028   4.751  10.627
79192W        W40613  24.112  10.811   2.189
79193W        W40614  42.865  36.958   2.329
79194W        W40615  21.059  20.763  12.995
79195W        W40616  11.820  23.217   3.805
79196W        W40617   9.669  35.023   2.397
79197W        W40618   7.269  43.812   3.682
79198W        W40619  31.098  28.550  13.051
79199W        W40620   2.367  34.006   5.301
79200W        W40621  44.883  39.526  11.988
79201W        W40622  10.660   7.700  11.914
79202W        W40623  11.322   0.469   0.922
79203W        W40624   1.752  39.966  13.997
79204W        W40625   9.653  22.626  13.952
79205W        W40626  20.756   6.872   1.316
79206W        W40627  14.805  12.127   3.300
79207W        W40628  16.237   9.356   4.705
79208W        W40629  17.649  36.095   2.705
79209W        W40630  32.521  44.998   0.301
79210W        W40631  18.670  36.383   4.836
79211W        W40632   6.210  15.142  12.829
79212W        W40633  24.650   3.867  12.854
79213W        W40634  42.383  37.832   2.777
79214W        W40635   6.886   6.694  14.947
79215W        W40636   9.876  13.648  14.284
79216W        W40637  24.164   0.786  13.050
79217W        W40638  36.556  34.528  13.547
79218W        W40639  11.135  40.333  12.928
79219W        W40640  19.194  11.813   2.293
79220W        W40641  22.665  35.071  11.404
79221W        W40642  23.076  10.849  12.433
79222W        W40643  43.487  26.095  12.975
79223W        W40644  19.771  11.316  13.459
79224W        W40645  31.520  20.269  12.067
79225W        W40646   6.855  42.394   4.213
79226W        W40647  20.128  22.085   3.352
79227W        W40648   9.369  27.060  11.981
79228W        W40649  25.029  16.717  13.906
79229W        W40650   2.282  21.144  12.535
79230W        W40651  12.247  38.331   2.793
79231W        W40652  41.990  29.564  14.987
79232W        W40653   4.209  22.018  10.061
79233W        W40654  40.534  18.064  12.084
79234W        W40655  36.371  14.149   4.612
79235W        W40656  23.653  34.890  12.060
79236W        W40657  18.101  15.101   1.736
79237W        W40658  14.757  32.454  11.971
79238W        W40659  39.883  42.962   5.271
79239W        W40660  42.383  17.657   3.267
79240W        W40661  43.425  34.548   3.864
79241W        W40662  40.980  30.047   4.759
79242W        W40663   8.715   9.710  10.955
79243W        W40664   2.470  28.088  14.275
79244W        W40665  41.967   2.762  12.909
79245W        W40666  17.247  31.608  11.877
79246W        W40667  10.342  26.617  14.815
79247W        W40668  19.113  17.617  14.391
79248W        W40669  34.075  23.058  13.893
79249W        W40670  31.631  35.972  13.536
79250W        W40671  29.949  27.557   1.300
79251W        W40672  19.632  12.198   1.364
79252W        W40673  42.800   2.403  11.007
79253W        W40674  36.926  38.993   2.396
79254W        W40675   3.803  41.875   4.325
79255W        W40676  38.468   4.927   3.687
79256W        W40677  27.669   9.285  13.963
79257W        W40678   5.271  19.739   1.250
79258W        W40679  14.601  28.579   0.360
79259W        W40680  40.008  12.242   3.170
79260W        W40681  30.033   3.282   1.850
79261W        W40682  29.557  16.140  14.449
79262W        W40683  13.793  15.777  12.889
79263W        W40684   5.407  44.321  12.492
79264W        W40685  28.159  28.185   4.354
79265W        W40686  14.817  20.591  10.998
79266W        W40687   8.327   6.921  12.860
79267W        W40688  10.162  27.622  12.474
79268W        W40689   0.315   9.756   1.280
79269W        W40690  23.193  18.702   3.182
79270W        W40691  17.663   6.402   2.387
79271W        W40692  36.032  39.330   4.781
79272W        W40693  41.830  38.571   1.340
79273W        W40694  28.602  34.432  12.887
79274W        W40695   6.682  33.438   4.774
79275W        W40696  16.163  17.687   0.399
79276W        W40697  17.602  41.786  14.805
79277W        W40698  43.967  23.088   4.767
79278W        W40699  44.818  10.139  14.512
79279W        W40700  24.627   7.193  14.298
79280W        W40701  24.537  24.622  10.500
79281W        W40702  44.774  20.160   1.352
79282W        W40703   9.818  14.826  12.490
79283W        W40704  18.790  20.127   2.273
79284W        W40705  18.294  12.726   2.379
79285W        W40706   6.733   4.250   9.598
79286W        W40707   5.265   6.680  11.376
79287W        W40708   6.396  41.343  14.469
79288W        W40709  20.738  29.473  13.480
79289W        W40710  42.470  18.708   3.221
79290W        W40711  12.251   8.693  14.436
79291W        W40712  15.594  35.519   2.901
79292W        W40713  12.633  26.052   4.816
79293W        W40714  29.665  38.517   4.761
79294W        W40715  26.958   3.285  13.866
79295W        W40716  44.010  22.532   0.343
79296W        W40717   4.909   9.664   1.805
79297W        W40718   9.741  29.074   4.670
79298W        W40719  11.780  30.979  11.461
79299W        W40720  44.009  11.836  12.506
79300W        W40721   7.186  42.855   3.762
79301W        W40722  25.184  16.578  11.038
79302W        W40723  39.463  44.398   3.211
79303W        W40724  20.039  12.646  10.438
79304W        W40725  29.158  12.736   2.704
79305W        W40726  36.097  14.748   2.885
79306W        W40727  23.111  15.156  14.023
79307W        W40728  28.492  22.191   3.191
79308W        W40729  40.310  41.821   2.381
79309W        W40730  32.412  11.823  10.500
79310W        W40731  29.565   4.250   4.671
79311W        W40732  17.696   9.356   0.929
79312W        W40733  43.838   2.423  14.798
79313W        W40734  10.756  14.593  11.437
79314W        W40735  27.187   6.875  10.894
79315W        W40736  36.499  22.690  13.404
79316W        W40737  42.470  35.485  10.599
79317W        W40738  13.216  18.736   0.398
79318W        W40739  37.964   6.895   3.827
79319W        W40740   1.735  13.160   3.192
79320W        W40741   1.845  33.950  12.927
79321W        W40742  22.712  16.263   2.853
79322W        W40743  19.197   8.339   1.277
79323W        W40744   8.845  37.492   1.247
79324W        W40745  40.831   0.356  14.415
79325W        W40746  18.121  30.091   1.405
79326W        W40747  37.028  34.526   4.803
79327W        W40748  40.513  12.702   2.714
79328W        W40749   7.240   9.209   4.648
79329W        W40750   5.196   5.217  11.528
79330W        W40751  15.270  30.133  13.871
79331W        W40752  44.421  41.329  11.467
79332W        W40753   0.400   0.490   1.403
79333W        W40754  27.972  17.695  12.433
79334W        W40755  33.953  27.612  13.821
79335W        W40756  20.153  12.633   0.828
79336W        W40757  43.356  32.442  11.023
79337W        W40758  23.203  38.075  10.939
79338W        W40759  22.081   6.421  14.943
79339W        W40760  10.855   1.857   1.327
79340W        W40761  35.569  16.669  14.406
79341W        W40762  26.054   1.897  11.888
79342W        W40763  39.376  27.978  12.896
79343W        W40764  35.379  29.473  12.572
79344W        W40765  26.602  17.759   2.353
79345W        W40766   3.279  32.981  12.878
79346W        W40767  44.866  15.181   3.300
79347W        W40768  13.142  41.448   9.977
79348W        W40769  29.176  36.844  13.337
79349W        W40770  35.441  23.184   3.783
79350W        W40771  17.593  11.266   0.812
79351W        W40772   8.739  28.482   0.262
79352W        W40773   2.899  11.199   1.329
79353W        W40774  12.265  13.688   4.687
79354W        W40775  11.209  35.033  10.545
79355W        W40776  34.595  32.909  12.438
79356W        W40777  16.635  19.748   2.215
79357W        W40778  18.735  34.383  14.010
79358W        W40779  36.517  40.329   4.315
79359W        W40780  41.508  16.151   5.714
79360W        W40781  38.438   7.868   0.399
79361W        W40782  26.549   7.858  13.970
79362W        W40783  27.189  24.174  10.586
79363W        W40784   4.837  18.654  12.989
79364W        W40785  17.202  20.168  12.464
79365W        W40786  39.381   1.898   1.436
79366W        W40787  13.742   3.385   1.709
79367W        W40788  11.260  41.918   1.353
79368W        W40789  33.937  40.326   1.737
79369W        W40790  33.066  22.610   0.254
79370W        W40791  18.582  41.003   1.849
79371W        W40792   0.405  31.985   3.368
79372W        W40793  30.988  43.310  12.560
79373W        W40794  18.089   4.434  11.596
79374W        W40795  37.964   9.778   1.416
79375W        W40796   2.926  14.163  11.463
79376W        W40797  44.862  40.384   3.651
79377W        W40798  22.611   0.744   1.895
79378W        W40799   8.678  28.129   0.350
79379W        W40800  11.344  41.358   1.253
79380W        W40801  10.272   8.277   1.361
79381W        W40802   8.366  16.730  13.025
79382W        W40803  35.564  39.314  11.082
79383W        W40804  18.575   3.447  12.053
79384W        W40805  23.594  36.386   4.778
79385W        W40806  10.786  21.240  13.380
79386W        W40807   5.837  32.488   2.806
79387W        W40808  34.478  43.952  10.548
79388W        W40809  29.132  22.574   4.675
79389W        W40810  27.168   8.766  12.944
79390W        W40811   2.276  24.503   9.499
79391W        W40812  29.667   3.907  14.465
79392W        W40813   8.228  36.536  12.412
79393W        W40814  44.316  30.973   3.269
79394W        W40815   6.783  23.217   9.587
79395W        W40816  26.525  34.867   3.339
79396W        W40817  12.699  42.854   4.785
79397W        W40818  29.568  36.061   2.786
79398W        W40819  20.642   5.738   3.309
79399W        W40820  20.053   7.307  12.035
79400W        W40821  35.414   4.280   2.823
79401W        W40822  29.096  42.359  14.951
79402W        W40823  27.963  16.250  14.824
79403W        W40824  22.162  33.027  10.963
79404W        W40825  40.021  12.787  10.532
79405W        W40826  17.745  42.338   3.179
79406W        W40827  40.017  30.546  14.406
79407W        W40828  20.660  15.323   5.217
79408W        W40829  38.906  14.790  13.908
79409W        W40830  30.444  18.707   4.687
79410W        W40831   1.773  31.450   1.875
79411W        W40832  41.378   2.952   4.147
79412W        W40833  24.121  29.160   2.235
79413W        W40834  26.561  22.249  12.009
79414W        W40835  29.081  13.820   1.258
79415W        W40836   8.732  27.552  10.920
79416W        W40837   1.378   3.280   5.226
79417W        W40838  43.309   4.761  11.462
79418W        W40839   6.323  13.750  13.433
79419W        W40840  30.087  15.753  14.004
79420W        W40841  22.607  16.576   4.795
79421W        W40842  35.091  31.099  11.402
79422W        W40843   5.885  36.412   3.871
79423W        W40844  27.175  24.634  11.045
79424W        W40845  11.818  16.236   1.833
79425W        W40846  36.502  39.423   1.747
79426W        W40847  22.694   8.886   4.297
79427W        W40848   5.411   0.325  13.862
79428W        W40849  12.805  16.592  12.347
79429W        W40850   1.277  21.092  12.841
79430W        W40851  41.455  23.049  11.927
79431W        W40852  15.125  42.517   1.358
79432W        W40853  43.943  21.607  13.358
79433W        W40854  37.883   2.265   1.292
79434W        W40855   8.736   8.163   0.388
79435W        W40856   9.171  43.270   2.820
79436W        W40857  36.453  28.051   4.782
79437W        W40858   7.791  21.022  13.827
79438W        W40859  17.083  35.095  14.009
79439W        W40860  34.904  17.127   3.363
79440W        W40861  38.407  10.659  11.084
79441W        W40862  21.620   7.324   2.872
79442W        W40863  11.721  28.014   3.236
79443W        W40864   9.802  27.631  12.091
79444W        W40865  22.519  35.958  14.471
79445W        W40866  34.413  14.127   3.198
79446W        W40867  17.607  23.158   4.200
79447W        W40868  21.075  24.097  11.480
79448W        W40869   9.172  42.930  12.078
79449W        W40870  18.558  38.471   4.239
79450W        W40871  18.646  24.034  12.872
79451W        W40872   3.458  44.836  12.381
79452W        W40873  21.040   3.827   0.803
79453W        W40874  21.173   1.904   2.822
79454W        W40875  37.908  38.484  11.441
79455W        W40876   7.881  26.988   3.347
79456W        W40877  39.466  21.608  14.879
79457W        W40878  41.874  16.713  12.079
79458W        W40879  43.425   0.309  14.982
79459W        W40880  31.580  10.831  14.867
79460W        W40881  29.580  39.335  10.909
79461W        W40882  29.073  20.219  13.323
79462W        W40883  21.689  12.619  13.963
79463W        W40884   5.907  31.935  10.131
79464W        W40885  26.689  15.724   1.218
79465W        W40886   8.825  29.949  13.373
79466W        W40887  36.059  26.192  14.333
79467W        W40888   4.868   9.885  13.933
79468W        W40889  29.951  43.783   3.856
79469W        W40890  39.035  44.841   0.343
79470W        W40891  30.119   6.876  13.440
79471W        W40892  41.970   7.752   2.295
79472W        W40893  18.156   1.289   4.329
79473W        W40894  19.050  26.188  12.507
79474W        W40895  41.927  34.962  10.921
79475W        W40896  44.318  43.497   1.273
79476W        W40897  21.062  27.641  11.036
79477W        W40898  36.927   9.216   4.773
79478W        W40899  32.590  39.820   4.156
79479W        W40900   5.853   4.365   1.777
79480W        W40901   5.384  35.985   0.383
79481W        W40902  43.846  26.690  11.040
79482W        W40903  40.906  34.051   0.882
79483W        W40904  33.412  40.868  11.020
79484W        W40905  23.688   7.780   3.239
79485W        W40906  36.984  17.682   3.190
79486W        W40907  18.754  18.087   0.281
79487W        W40908  29.104  19.169  11.481
79488W        W40909   3.766  22.148  11.950
79489W        W40910  14.697  18.133   9.959
79490W        W40911  43.016  16.611   3.791
79491W        W40912  29.953  30.544  13.991
79492W        W40913   5.923   1.366  11.503
79493W        W40914  19.625  10.220   2.863
79494W        W40915  21.163  23.727  12.828
79495W        W40916  13.813  13.145   0.891
79496W        W40917  44.828  27.500  12.095
79497W        W40918  42.810  11.781  13.492
79498W        W40919  33.909  33.966  12.839
79499W        W40920  10.289  35.901   3.782
79500W        W40921  29.987  21.639   2.708
79501W        W40922  19.546  34.440  10.904
79502W        W40923  41.356  36.347   0.313
79503W        W40924  31.066  38.870  14.784
79504W        W40925  32.528   2.350   0.858
79505W        W40926  25.117  30.641  11.078
79506W        W40927  30.092  22.252  12.997
79507W        W40928  10.639   1.974   0.404
79508W        W40929  23.155  38.557   0.338
79509W        W40930  10.732  20.669  13.504
79510W        W40931  21.147  11.831   4.249
79511W        W40932  44.281   1.741   0.777
79512W        W40933  41.493  22.075   2.261
79513W        W40934  32.961   1.309   1.390
79514W        W40935  28.013  24.582  10.907
79515W        W40936  43.957  15.204  10.633
79516W        W40937  27.981  37.940  12.088
79517W        W40938  15.769  14.258   3.737
79518W        W40939  39.980  34.541  11.949
79519W        W40940  14.762   5.911   0.774
79520W        W40941  10.348  21.237  10.510
79521W        W40942   9.224  12.670  11.987
79522W        W40943  37.861  27.111   2.217
79523W        W40944   0.277   7.837  13.964
79524W        W40945  29.174  38.470  12.866
79525W        W40946  36.964  44.919   0.429
79526W        W40947  32.578  36.867  11.963
79527W        W40948   0.867  17.733  14.936
79528W        W40949  38.922  25.026   1.398
79529W        W40950  21.178   9.833   1.425
79530W        W40951   0.349  28.619  12.967
79531W        W40952   9.217  42.974   2.194
79532W        W40953  22.164  11.663  10.522
79533W        W40954  21.530  18.652  10.521
79534W        W40955  44.397   6.270   4.606
79535W        W40956  33.940  36.951  13.803
79536W        W40957   0.402  28.084  13.499
79537W        W40958  22.589  22.251   0.481
79538W        W40959  16.165  35.961   2.410
79539W        W40960  15.255  18.175   2.209
79540W        W40961  35.074   4.716  13.488
79541W        W40962  29.162  39.880  12.427
79542W        W40963  16.185   8.656  14.763
79543W        W40964  20.733   7.340  10.936
79544W        W40965  14.145  24.037   3.317
79545W        W40966  20.164   8.717  14.304
79546W        W40967  28.054  25.630   1.869
79547W        W40968  42.862  12.254   0.849
79548W        W40969  27.519  44.476  14.878
79549W        W40970  34.565   2.935  10.082
79550W        W40971  26.144  21.545   3.813
79551W        W40972   5.916   9.158   1.830
79552W        W40973  15.749  25.508  13.537
79553W        W40974   1.246  19.677   0.264
79554W        W40975  44.363  24.219  13.826
79555W        W40976  20.150  41.311  13.866
79556W        W40977  20.099  12.130  14.498
79557W        W40978  43.869  27.648   4.791
79558W        W40979  26.497  36.580  12.373
79559W        W40980  23.692  10.380  12.092
79560W        W40981  14.771  13.337   2.854
79561W        W40982  36.962   6.232  12.449
79562W        W40983  24.008  34.446   3.158
79563W        W40984  31.425  21.616  14.901
79564W        W40985   9.242  44.469  13.358
79565W        W40986  44.288  42.356   0.269
79566W        W40987  14.745  35.569  13.801
79567W        W40988  39.387   9.864  13.517
79568W        W40989  35.603  36.056  14.949
79569W        W40990   1.401  28.053   4.296
79570W        W40991  33.950  13.678  14.368
79571W        W40992  11.724   6.745  13.522
79572W        W40993  39.962  36.417   3.173
79573W        W40994  41.927   3.736   2.734
79574W        W40995  33.428  23.721  14.418
79575W        W40996  44.484  22.097  11.604
79576W        W40997  28.617  20.207  11.395
79577W        W40998  22.501   9.651   2.695
79578W        W40999  44.009   2.231   4.620
79579W        W41000   1.951  33.999   0.259
79580W        W41001  25.979  34.103  12.392
79581W        W41002   3.243  22.681   1.316
79582W        W41003  41.487  26.459  11.493
79583W        W41004  30.561   0.477   3.803
79584W        W41005  28.436  11.148  10.432
79585W        W41006  18.699   7.296  14.988
79586W        W41007  19.087  39.439  10.572
79587W        W41008  36.357  41.849  12.478
79588W        W41009  40.523  44.395   3.773
79589W        W41010   5.421  25.974  14.849
79590W        W41011  11.861  33.077  13.514
79591W        W41012  15.257  15.093   3.310
79592W        W41013  17.625   5.784   3.337
79593W        W41014  32.005  33.887   2.826
79594W        W41015  27.611  17.563  12.921
79595W        W41016  37.850  15.225   1.932
79596W        W41017  10.797  23.518   4.781
79597W        W41018   2.792  14.644   4.233
79598W        W41019  18.685  39.367  12.944
79599W        W41020  26.067   3.711  10.508
79600W        W41021   7.194  17.273   3.356
79601W        W41022  24.031  15.182   0.742
79602W        W41023  36.893  28.968   3.730
79603W        W41024  41.430  15.647   1.222
79604W        W41025  37.985  18.287  10.987
79605W        W41026   2.803  15.112  13.311
79606W        W41027   7.375  19.094  12.340
79607W        W41028  10.282  21.598   0.363
79608W        W41029  38.010  41.418  11.484
79609W        W41030   6.780  12.631   2.210
79610W        W41031  10.831  24.713  13.309
79611W        W41032  23.079  28.001  14.386
79612W        W41033  23.614  33.586  13.839
79613W        W41034  11.743  28.573   0.395
79614W        W41035  28.452  24.082  12.982
79615W        W41036  26.963   1.433  10.555
79616W        W41037  17.083  20.207   2.814
79617W        W41038  43.372   9.776  14.793
79618W        W41039  22.577  31.978  10.479
79619W        W41040  23.635  23.115   4.247
79620W        W41041  34.081  25.539   3.178
79621W        W41042  40.407   8.339  11.007
79622W        W41043  14.656   3.290   2.190
79623W        W41044  21.631  22.076   0.397
79624W        W41045  28.970  42.896   2.220
79625W        W41046  39.475   7.311   3.277
79626W        W41047  41.904  25.670  11.940
79627W        W41048  25.969  41.918   2.718
79628W        W41049  18.556  42.433   3.700
79629W        W41050  39.835  17.176   1.742
79630W        W41051  31.465  12.706  12.037
79631W        W41052   0.838  18.169  10.043
79632W        W41053   6.870  15.797  10.510
79633W        W41054  10.685  26.194  10.927
79634W        W41055   6.351  11.210  10.945
79635W        W41056  44.832  38.406   1.854
79636W        W41057  41.935  22.564   0.257
79637W        W41058  23.675   5.292  11.609
79638W        W41059  20.679  40.046  10.946
79639W        W41060  13.222  37.947  13.933
79640W        W41061  12.352  13.213   3.630
79641W        W41062  43.479  39.811   0.731
79642W        W41063  44.930  29.621  12.479
79643W        W41064   9.257  43.358   4.806
79644W        W41065   8.734  36.458   0.911
79645W        W41066  38.438   7.911  10.949
79646W        W41067   5.891   5.748  12.348
79647W        W41068  43.870  13.260   4.631
79648W        W41069  35.519   6.817   1.351
79649W        W41070  35.953  27.988   3.384
79650W        W41071  40.835  37.018   4.750
79651W        W41072  16.210  29.543   3.780
79652W        W41073  23.119   8.873   4.714
79653W        W41074  12.234  31.514   2.810
79654W        W41075  22.652  11.310   2.745
79655W        W41076  28.160  20.263  11.118
79656W        W41077  36.932  21.619  11.949
79657W        W41078   6.294  28.494   3.365
79658W        W41079   4.752  27.025   3.847
79659W        W41080  28.069  38.866   2.815
79660W        W41081  17.271  20.535   0.247
79661W        W41082  26.156  23.693   4.160
79662W        W41083  26.552  19.606  10.994
79663W        W41084  34.563  36.564   1.888
79664W        W41085  25.545  10.748  14.288
79665W        W41086  39.043  40.001   2.785
79666W        W41087   8.701  13.126  14.422
79667W        W41088   5.394  23.050  13.971
79668W        W41089  19.183  33.014  11.969
79669W        W41090  34.465  22.694   4.255
79670W        W41091  22.700  35.916   3.686
79671W        W41092  18.784  29.016   3.323
79672W        W41093  25.192  11.367   1.348
79673W        W41094   8.830  35.943   2.802
79674W        W41095  20.621  16.194  14.871
79675W        W41096  13.728   6.840  13.865
79676W        W41097   3.387  21.613   0.839
79677W        W41098   1.863  30.484   5.728
79678W        W41099  15.287  26.020  12.904
79679W        W41100  10.802  24.584   1.333
79680W        W41101  31.945  39.500  11.054
79681W        W41102  35.550   5.760   4.834
79682W        W41103  31.963   8.163  10.435
79683W        W41104   3.375  35.961   1.284
79684W        W41105  43.381   6.246  12.093
79685W        W41106  44.899  43.397   1.230
79686W        W41107  31.470  15.120   3.734
79687W        W41108  37.464  30.013   0.304
79688W        W41109   2.378  43.792  11.483
79689W        W41110  23.602  43.339  10.534
79690W        W41111  20.066   6.878  14.964
79691W        W41112  40.799   4.789   2.790
79692W        W41113  38.899   8.265   0.414
79693W        W41114  34.865  16.668  12.855
79694W        W41115  10.284  40.874   0.310
79695W        W41116  16.605  21.123  13.812
79696W        W41117  23.728  38.528   0.468
79697W        W41118  21.027  18.696  11.996
79698W        W41119  19.609  41.796   0.257
79699W        W41120   7.231   9.152  13.314
79700W        W41121  15.190   2.766  11.513
79701W        W41122   2.391   8.278  14.025
79702W        W41123  10.719  36.493   1.740
79703W        W41124   1.432  10.315   3.739
79704W        W41125  19.563  34.027   4.168
79705W        W41126  26.107  30.978  11.563
79706W        W41127  29.642  37.984   4.719
79707W        W41128  17.174  12.321  12.074
79708W        W41129  42.818  38.057   2.193
79709W        W41130  37.046  42.347  10.902
79710W        W41131  32.559  44.407  13.991
79711W        W41132   2.725  37.530  12.504
79712W        W41133  29.603  35.977  14.498
79713W        W41134   3.319  10.779   1.783
79714W        W41135  22.105  40.017   0.895
79715W        W41136  10.228  27.626   4.251
79716W        W41137   6.842  17.083  12.471
79717W        W41138   5.753  42.294  12.563
79718W        W41139   9.332  16.671   1.842
79719W        W41140  22.632  17.742  10.979
79720W        W41141  37.484  26.071  12.906
79721W        W41142   2.398  38.997   1.855
79722W        W41143  31.420  40.881  12.037
79723W        W41144   9.856   3.331  11.484
79724W        W41145  11.239  18.761   1.379
79725W        W41146  42.014  37.077  11.509
79726W        W41147   0.941  44.777  11.872
79727W        W41148   4.375  15.756   3.716
79728W        W41149  15.122   7.860  14.863
79729W        W41150  29.966  34.948  14.501
79730W        W41151  30.506  42.450   3.844
79731W        W41152  42.337   6.722   0.261
79732W        W41153   9.324  28.038   3.779
79733W        W41154  44.492  38.019   9.998
79734W        W41155  27.038  19.176   3.377
79735W        W41156  32.954   2.356  12.482
79736W        W41157  22.642  34.447   3.339
79737W        W41158  16.596   1.429  14.800
79738W        W41159   7.676  24.210   9.950
79739W        W41160   1.922   3.871   1.915
79740W        W41161  18.196  34.048   3.184
79741W        W41162  11.372  15.703  13.053
79742W        W41163  43.341  31.620  13.869
79743W        W41164  31.012  22.630  14.479
79744W        W41165  41.421  30.447  12.033
79745W        W41166  27.999  39.874  12.064
79746W        W41167   6.223  13.633   2.227
79747W        W41168  42.420   8.177  12.984
79748W        W41169   7.189  34.975   1.243
79749W        W41170  44.332  20.256   3.157
79750W        W41171   4.792  22.114   5.242
79751W        W41172  42.436   5.893  12.964
79752W        W41173  35.940  10.833   4.342
79753W        W41174  38.998  14.755   1.829
79754W        W41175   2.426  37.499   4.272
79755W        W41176  25.590  28.617   0.901
79756W        W41177   9.199  35.958   3.830
79757W        W41178  35.426  25.641   4.691
79758W        W41179  37.363  39.810  11.012
79759W        W41180  34.052  44.832   1.732
79760W        W41181  28.552  21.703  13.407
79761W        W41182  15.111   1.850   3.309
79762W        W41183   4.849  17.136  12.510
79763W        W41184  43.810  41.526  13.437
79764W        W41185  31.648  33.514   4.178
79765W        W41186  41.311  28.488   2.405
79766W        W41187  39.005   7.782   3.690
79767W        W41188  15.739  39.502  10.917
79768W        W41189   2.945  41.354  13.916
79769W        W41190   1.256  26.505  14.882
79770W        W41191   1.430  13.245  14.450
79771W        W41192  20.734  31.942  10.417
79772W        W41193   3.450  39.335   2.361
79773W        W41194  23.730  25.156   1.245
79774W        W41195  33.495  43.942   3.301
79775W        W41196  40.873  22.701  13.447
79776W        W41197  14.241   6.385  12.879
79777W        W41198  30.007  24.973   4.769
79778W        W41199  24.704  10.240   2.856
79779W        W41200  38.442  30.016  13.411
79780W        W41201  36.374  12.178  10.554
79781W        W41202  12.140  34.894  14.899
79782W        W41203  26.690  12.323  10.926
79783W        W41204  17.231  30.434   2.704
79784W        W41205  37.355  23.007  10.448
79785W        W41206   2.814  24.507  12.841
79786W        W41207  36.366  16.592   4.655
79787W        W41208  18.155  16.301   1.735
79788W        W41209  22.200  29.655   0.388
79789W        W41210  22.151  32.992  12.895
79790W        W41211  39.828   7.906   0.320
79791W        W41212   5.383  40.993   3.188
79792W        W41213  38.383  19.560  11.396
79793W        W41214  44.807  24.676  14.862
79794W        W41215  42.924  23.051   2.275
79795W        W41216  43.922   5.393  10.953
79796W        W41217  27.451  11.200   9.539
79797W        W41218  14.173  26.962   4.838
79798W        W41219  26.055  32.042   2.330
79799W        W41220  33.471  11.787   1.905
79800W        W41221  24.484  44.397  10.636
79801W        W41222   0.458  42.911   1.269
79802W        W41223  41.940   2.891  12.454
79803W        W41224  39.924  41.515   2.257
79804W        W41225  35.501  36.041   0.247
79805W        W41226   8.882  39.447   9.969
79806W        W41227   1.971  21.704  10.973
79807W        W41228  27.586  10.199   0.365
79808W        W41229  30.085  10.855  13.863
79809W        W41230  24.000  23.135  12.956
79810W        W41231  26.141   8.224  14.466
79811W        W41232   9.657  27.967   3.182
79812W        W41233   3.245  32.121   1.818
79813W        W41234  24.068  41.411  14.806
79814W        W41235   9.310   4.365   3.167
79815W        W41236  28.680  19.045   4.824
79816W        W41237  11.292  19.694   3.725
79817W        W41238  10.751  38.372  14.354
79818W        W41239  43.400  20.159   0.887
79819W        W41240   0.370  17.688   0.796
79820W        W41241  19.612  32.519   2.856
79821W        W41242   1.959   2.929   0.828
79822W        W41243  34.960  35.861   1.843
79823W        W41244  22.172   8.179   3.809
79824W        W41245   4.270  13.709   3.347
79825W        W41246  38.848  20.619   2.327
79826W        W41247  27.506  18.204   4.298
79827W        W41248  19.083  15.743   4.183
79828W        W41249  28.570  33.587  11.009
79829W        W41250   5.882  39.011  13.831
79830W        W41251  22.684  34.497  11.859
79831W        W41252  24.084   8.674  13.313
79832W        W41253   2.267   1.317   4.223
79833W        W41254  30.488  23.689  14.447
79834W        W41255   5.831  17.627   1.365
79835W        W41256  43.435  40.998  14.928
79836W        W41257  29.158  11.726   1.223
79837W        W41258   5.872  10.791   4.728
79838W        W41259  42.516  28.162   0.893
79839W        W41260  13.173  40.047   3.148
79840W        W41261  37.466  35.040   1.897
79841W        W41262  11.845  22.601   3.828
79842W        W41263  28.079   1.969   4.785
79843W        W41264  11.707   9.391  11.442
79844W        W41265  16.671  27.554   3.816
79845W        W41266  23.101  34.881  11.863
79846W        W41267  44.348  22.691  10.560
79847W        W41268  29.656  16.652   4.175
79848W        W41269  18.134  30.619   1.862
79849W        W41270  35.510  43.798  14.781
79850W        W41271  11.686  36.531  12.512
79851W        W41272  16.305  26.117   2.262
79852W        W41273  17.691  31.993  13.884
79853W        W41274   9.863  30.142  10.623
79854W        W41275  13.318  38.924   3.353
79855W        W41276  13.638  12.172   4.226
79856W        W41277   9.716  20.197  14.987
79857W        W41278  44.991  13.799  11.472
79858W        W41279  32.546  37.527  13.987
79859W        W41280  24.606   7.194   2.376
79860W        W41281  36.436  16.318   0.477
79861W        W41282  30.082  39.447   3.152
79862W        W41283  24.715  42.794  12.011
79863W        W41284  33.585  31.999  12.948
79864W        W41285  13.739  26.660  13.345
79865W        W41286  21.737  27.647  12.829
79866W        W41287  39.503  18.282   3.672
79867W        W41288  37.908  39.425   4.708
79868W        W41289  21.579  17.659   4.603
79869W        W41290  31.943  32.592   2.379
79870W        W41291  19.200   3.857  11.566
79871W        W41292  31.534  37.570  14.343
79872W        W41293  23.163   2.787   5.246
79873W        W41294  34.886  29.670  11.921
79874W        W41295   7.895  18.280   0.482
79875W        W41296  19.046  38.902  12.371
79876W        W41297   5.698  17.064  11.983
79877W        W41298  35.027  22.745  14.447
79878W        W41299  24.052   2.444  12.524
79879W        W41300  14.628  35.421   1.239
79880W        W41301  10.818  23.603  13.956
79881W        W41302  44.387   4.231   4.272
79882W        W41303  42.521   7.782   1.385
79883W        W41304  15.780  22.737   1.224
79884W        W41305  10.852  33.911   0.746
79885W        W41306  38.967  17.600  10.523
79886W        W41307  17.602  19.708   2.869
79887W        W41308  26.593  16.146   2.704
79888W        W41309  37.039   5.737  14.409
79889W        W41310  15.810  39.942   4.186
79890W        W41311  32.013  44.835  11.860
79891W        W41312  39.946   4.748  10.592
79892W        W41313  26.185   5.367   1.758
79893W        W41314  35.083  12.827   1.846
79894W        W41315  24.009  44.863  14.844
79895W        W41316  41.954  22.198   3.165
79896W        W41317  20.559  17.636  13.325
79897W        W41318  17.696   0.766  11.600
79898W        W41319   8.875   2.899   3.753
79899W        W41320  38.410  16.125   0.967
79900W        W41321  24.653  23.536  13.825
79901W        W41322  38.004  34.879  11.011
79902W        W41323  42.477  29.548  12.573
79903W        W41324  28.125  34.991  12.371
79904W        W41325   9.226  28.130   0.311
79905W        W41326  41.538  26.099   0.739
79906W        W41327  32.923  23.042  10.609
79907W        W41328   3.887  30.912  10.112
79908W        W41329   7.801  19.161   0.256
79909W        W41330   5.395   3.760   1.302
79910W        W41331  34.493   6.279  11.874
79911W        W41332   3.246  38.977   4.752
79912W        W41333  34.412  12.141   2.714
79913W        W41334  25.704  29.650   0.865
79914W        W41335  17.783  14.675  14.501
79915W        W41336  34.422  11.247  13.442
79916W        W41337  37.987  43.406  13.813
79917W        W41338  10.755   9.814   0.738
79918W        W41339  18.197  20.544  12.509
79919W        W41340  13.704  15.697  14.872
79920W        W41341  13.318  20.274  14.012
79921W        W41342   6.748   9.670   0.912
79922W        W41343  30.460   5.756  12.028
79923W        W41344  19.161  18.689   4.619
79924W        W41345  21.256  33.588  11.886
79925W        W41346  17.781  33.940   4.736
79926W        W41347  36.456   3.232   2.361
79927W        W41348  43.975  38.546  13.009
79928W        W41349  34.080  33.386  13.027
79929W        W41350  16.703  31.499  13.022
79930W        W41351   9.313   0.850   2.883
79931W        W41352  22.582  28.157  14.966
79932W        W41353   9.864  36.855   0.314
79933W        W41354  37.510  14.156  14.020
79934W        W41355  16.186  18.685   2.841
79935W        W41356  37.415   6.697   1.334
79936W        W41357  43.001   3.293  14.431
79937W        W41358   2.755  33.878  11.927
79938W        W41359  34.043  10.637   2.752
79939W        W41360  41.857  22.738  11.939
79940W        W41361  27.083  33.427   1.773
79941W        W41362  28.582   7.310  11.875
79942W        W41363  10.146  34.571  11.961
79943W        W41364  44.832  30.572  11.890
79944W        W41365  35.980   7.332   0.345
79945W        W41366  26.101  28.144  14.953
79946W        W41367  41.035  17.094   3.851
79947W        W41368   1.421  32.580   1.292
79948W        W41369  26.074  18.087  12.939
79949W        W41370  10.325  43.302   2.835
79950W        W41371  39.977  28.046  14.970
79951W        W41372  38.043  30.046  14.323
79952W        W41373  44.959  37.872  10.414
79953W        W41374  33.911  30.431   1.220
79954W        W41375   6.343   2.336  14.761
79955W        W41376  34.369  23.512   1.229
79956W        W41377  25.693  43.765   3.221
79957W        W41378  35.995  34.018  12.005
79958W        W41379  10.843   4.868   4.666
79959W        W41380  13.677   5.708   1.899
79960W        W41381  11.855  26.020   1.306
79961W        W41382   3.815   5.717   2.194
79962W        W41383  32.927   2.865  12.538
79963W        W41384   0.380  25.048   3.777
79964W        W41385  26.457   3.752   2.818
79965W        W41386  44.867  19.126  13.866
79966W        W41387  36.526   0.938  14.298
79967W        W41388  41.924  10.152  14.452
79968W        W41389  11.154   8.846  10.453
79969W        W41390  14.603  44.850  14.945
79970W        W41391  14.693  17.662  12.947
79971W        W41392  29.608  42.002   3.337
79972W        W41393  40.363  32.064   2.298
79973W        W41394   6.404  16.746  14.932
79974W        W41395  10.668  36.980  13.047
79975W        W41396  18.611  12.659   5.729
79976W        W41397   4.700  43.016  13.430
79977W        W41398  11.143  13.196  12.944
79978W        W41399   5.880  23.716  13.386
79979W        W41400  40.864  28.658  10.980
79980W        W41401   6.865  18.192   3.252
79981W        W41402  20.560  26.657  11.558
79982W        W41403  17.630  44.854   0.913
79983W        W41404  13.671   8.291   3.255
79984W        W41405  34.399  12.833  11.016
79985W        W41406  23.124  38.999   1.412
79986W        W41407   4.743  39.938   4.296
79987W        W41408   5.855  25.101   3.249
79988W        W41409  38.971   7.715   0.379
79989W        W41410  18.672  43.277   0.321
79990W        W41411  11.184  40.943   3.375
79991W        W41412   1.435  34.409  13.493
79992W        W41413  25.485  26.050  14.842
79993W        W41414  39.920   8.230  11.011
79994W        W41415  30.522  18.646   1.855
79995W        W41416   9.252  19.113   4.748
79996W        W41417  12.826   5.891  10.564
79997W        W41418  24.614  39.547  13.813
79998W        W41419  10.727  30.030   3.174
79999W        W41420  30.556  15.100  14.818
80000W        W41421  26.621  38.025  14.350
80001W        W41422   0.344  40.464   1.380
80002W        W41423  30.482  19.584   4.722
80003W        W41424  34.482   0.847   1.420
80004W        W41425  40.034  41.011   1.898
80005W        W41426  42.828  14.326   5.300
80006W        W41427  28.067  13.142  13.921
80007W        W41428  37.998  10.760  14.399
80008W        W41429  10.324  32.635   3.631
80009W        W41430  14.339   0.336  14.320
80010W        W41431  18.635  33.932   3.681
80011W        W41432  36.928  33.913  11.434
80012W        W41433  23.209  16.256   3.343
80013W        W41434   6.859  12.317   1.750
80014W        W41435  22.676  10.855   3.734
80015W        W41436  35.088   4.899   3.757
80016W        W41437  28.079   2.856  14.972
80017W        W41438  15.098  32.083   3.285
80018W        W41439   4.315  33.092   0.279
80019W        W41440   6.830  35.541   2.275
80020W        W41441  25.203  22.142   3.258
80021W        W41442  12.675  15.620  13.458
80022W        W41443  25.526   5.886   2.369
80023W        W41444  24.067  12.116  13.401
80024W        W41445  34.027  35.955   2.331
80025W        W41446  21.020  36.007   1.441
80026W        W41447  36.355  17.648   1.293
80027W        W41448  16.621  28.133   2.291
80028W        W41449  43.313  26.142  12.534
80029W        W41450  10.286  27.560   1.319
80030W        W41451  15.226  39.350   3.222
80031W        W41452  26.181  37.502   4.700
80032W        W41453  30.072  29.981  11.091
80033W        W41454  14.789   6.320   4.816
80034W        W41455  17.755   4.331   3.690
80035W        W41456  28.439  34.396  13.801
80036W        W41457  35.504  16.155   3.731
80037W        W41458   9.814  13.645   1.911
80038W        W41459  16.155  25.533  11.518
80039W        W41460  36.020   3.303  11.009
80040W        W41461  21.228   2.377   5.097
80041W        W41462  15.672  32.628   4.214
80042W        W41463  14.267  11.760   2.886
80043W        W41464   9.706  26.984  14.965
80044W        W41465  43.957  27.685   0.311
80045W        W41466  13.653   4.210  12.486
80046W        W41467  10.668  44.434   4.788
80047W        W41468  11.708  12.801   3.178
80048W        W41469  11.862  40.524  12.438
80049W        W41470  38.949  28.503  11.482
80050W        W41471  21.724  23.591  13.034
80051W        W41472  44.856  17.089   1.425
80052W        W41473  28.023  26.594  13.411
80053W        W41474  30.563   7.909  12.014
80054W        W41475  10.316  34.926   3.264
80055W        W41476  24.165  25.651   2.827
80056W        W41477  38.984  31.545   3.229
80057W        W41478   8.656  38.893  11.883
80058W        W41479  25.642  29.130   2.869
80059W        W41480  24.703   6.363  11.070
80060W        W41481  28.521  40.868   4.730
80061W        W41482  33.583  14.105   0.378
80062W        W41483  38.045   2.758   1.328
80063W        W41484   0.340   7.741  12.406
80064W        W41485  23.194  10.145  10.465
80065W        W41486  42.298   4.450  14.839
80066W        W41487  26.513   0.423  13.904
80067W        W41488  16.765  36.973  13.458
80068W        W41489   4.789  35.865  13.370
80069W        W41490  13.622   2.795  12.343
80070W        W41491  21.564  19.124  14.010
80071W        W41492  15.194  17.633   2.396
80072W        W41493   3.759   4.447   1.293
80073W        W41494  35.570  35.937   1.833
80074W        W41495  13.642  13.309   0.439
80075W        W41496  44.457  42.473  11.920
80076W        W41497  19.705  11.223  11.041
80077W        W41498  26.684   8.159   3.851
80078W        W41499   9.643  34.878  13.372
80079W        W41500  36.906  44.361   3.697
80080W        W41501  10.846  13.657  10.988
80081W        W41502  24.638  32.119  11.428
80082W        W41503  29.566  19.213  14.407
80083W        W41504  14.239  31.142   0.892
80084W        W41505  41.034   4.852  13.930
80085W        W41506  19.283  33.442  11.541
80086W        W41507  27.583  18.119   0.848
80087W        W41508  35.523  12.785  10.900
80088W        W41509  37.919  39.816  14.390
80089W        W41510  28.632  17.129  11.119
80090W        W41511  40.932  14.819  13.948
80091W        W41512  30.160  27.546   3.221
80092W        W41513   6.728  28.445   3.271
80093W        W41514  32.559  16.762   0.467
80094W        W41515  41.998  27.605   1.794
80095W        W41516  26.545  42.004   5.203
80096W        W41517  32.912   8.751   2.851
80097W        W41518  42.911  15.789   2.312
80098W        W41519  14.315  36.927   3.769
80099W        W41520  38.370  25.166  13.049
80100W        W41521  13.318   8.709   3.314
80101W        W41522  44.340  18.093  12.096
80102W        W41523  10.144  36.888   1.279
80103W        W41524  21.219   7.262   4.739
80104W        W41525  28.099  37.365  14.949
80105W        W41526  22.078  26.474  11.127
80106W        W41527  30.967  30.539   9.971
80107W        W41528  34.120   1.758  10.447
80108W        W41529  33.410   6.791  10.459
80109W        W41530  41.994  36.895   2.322
80110W        W41531  15.289   1.371   2.392
80111W        W41532  36.505   6.793   2.344
80112W        W41533  32.956  40.800  11.115
80113W        W41534   1.871  40.956   4.205
80114W        W41535  10.787   9.261  11.504
80115W        W41536  26.564  30.062  13.048
80116W        W41537  39.887   5.195   2.317
80117W        W41538  31.579  40.332  14.370
80118W        W41539  27.570  11.734  13.913
80119W        W41540   7.814   7.701  10.501
80120W        W41541  18.587  37.523  11.062
80121W        W41542   8.683   7.223   0.826
80122W        W41543  37.835   0.786   3.341
80123W        W41544  17.590  39.324  14.923
80124W        W41545  15.274  40.351   4.325
80125W        W41546  10.211  17.630  13.021
80126W        W41547  25.998  15.201   3.282
80127W        W41548  13.718  27.500   2.220
80128W        W41549  24.124  22.555   5.250
80129W        W41550  31.423  37.062  10.550
80130W        W41551  28.657  40.961  14.809
80131W        W41552  33.602  30.924  12.556
80132W        W41553  40.524  31.522   1.352
80133W        W41554   6.843  17.705   0.859
80134W        W41555  39.861   9.264  14.465
80135W        W41556  35.077  27.998  13.797
80136W        W41557  31.066  15.784  14.770
80137W        W41558  42.893  31.464   4.203
80138W        W41559  25.141  37.573  13.878
80139W        W41560  38.507  39.433   2.856
80140W        W41561  23.690  26.616   2.190
80141W        W41562  44.857  43.516  12.054
80142W        W41563   5.211   9.889   2.399
80143W        W41564  12.691  34.601  11.988
80144W        W41565  19.546  31.506  13.370
80145W        W41566  38.531  21.585   2.683
80146W        W41567  13.249  14.671   3.659
80147W        W41568  34.032  33.912  10.983
80148W        W41569  40.328  25.682  11.597
80149W        W41570  10.275  17.203  11.462
80150W        W41571  18.140   5.870   0.347
80151W        W41572   7.177  29.125  14.023
80152W        W41573  22.603  24.093   2.263
80153W        W41574  17.676  41.434  10.530
80154W        W41575   5.372  33.517  14.320
80155W        W41576  25.631  10.653  13.912
80156W        W41577   8.735  28.152  10.644
80157W        W41578  32.908  38.485  11.914
80158W        W41579  34.422  15.110   3.795
80159W        W41580  22.708  29.130  14.479
80160W        W41581  41.459   0.799   0.357
80161W        W41582  17.257   6.397  11.479
80162W        W41583  43.811   0.455   3.305
80163W        W41584  32.127  22.228  14.784
80164W        W41585  42.386  32.529   2.860
80165W        W41586  16.174  26.689  14.905
80166W        W41587   6.851   7.736   0.477
80167W        W41588  24.043  37.439  13.839
80168W        W41589  27.061  18.079   1.418
80169W        W41590  43.946  24.637  13.525
80170W        W41591  10.228  25.194  11.443
80171W        W41592  20.754  15.706   5.266
80172W        W41593   3.955  33.949   2.237
80173W        W41594   4.236  17.684  13.480
80174W        W41595  37.509  42.336  10.615
80175W        W41596  16.614   7.274  11.379
80176W        W41597  21.063  11.151   2.822
80177W        W41598   9.836  36.478  11.002
80178W        W41599  11.628  43.975   1.220
80179W        W41600  27.059  15.321   3.658
80180W        W41601  25.204   0.763  11.887
80181W        W41602   8.198  36.529   1.886
80182W        W41603  15.596  16.212   1.414
80183W        W41604  20.246   1.243  11.917
80184W        W41605   2.727  18.162  12.010
80185W        W41606  12.682   2.922  10.580
80186W        W41607  28.469   6.826  10.541
80187W        W41608  37.985  29.622   1.696
80188W        W41609  38.859  36.952   2.834
80189W        W41610   0.329  38.491   2.886
80190W        W41611  16.178  39.967  12.536
80191W        W41612  38.898  16.748   2.681
80192W        W41613  18.254  12.675  14.887
80193W        W41614   7.732  11.848  12.393
80194W        W41615  43.298  15.630  14.349
80195W        W41616  35.584   9.289  13.018
80196W        W41617  13.803  15.249   0.799
80197W        W41618   7.822  30.118   1.416
80198W        W41619  39.421  14.603  13.889
80199W        W41620  26.474   7.228  10.496
80200W        W41621  17.070   3.919   2.666
80201W        W41622  24.057  19.082  14.863
80202W        W41623  29.426  30.416   3.173
80203W        W41624  13.149  10.358  13.411
80204W        W41625   7.720  29.064   1.760
80205W        W41626   4.336  32.620   3.807
80206W        W41627  27.084  26.957   2.698
80207W        W41628  25.213  12.352  11.106
80208W        W41629  28.120  15.651  12.350
80209W        W41630  36.528  16.221   3.666
80210W        W41631  19.776  13.613  14.776
80211W        W41632  22.189   0.967  12.391
80212W        W41633   2.296   3.412   3.696
80213W        W41634  22.204  37.013   1.333
80214W        W41635  15.306  40.901  11.888
80215W        W41636   3.325  15.720  11.114
80216W        W41637   1.373   5.329  13.902
80217W        W41638  33.563  30.566   2.376
80218W        W41639  28.006  13.162  11.552
80219W        W41640  34.473   5.711  14.402
80220W        W41641   6.232  32.899   3.190
80221W        W41642  31.056   1.240  10.521
80222W        W41643  28.977  11.184  14.859
80223W        W41644   1.244   7.271  14.950
80224W        W41645   4.361  35.095  14.480
80225W        W41646  13.212  44.349  11.034
80226W        W41647   9.258  25.097   4.123
80227W        W41648  31.993  16.236  13.949
80228W        W41649   4.443   4.220   3.306
80229W        W41650  24.666  28.962  10.970
80230W        W41651  10.694  41.525  11.430
80231W        W41652   4.798  29.579   4.246
80232W        W41653  35.853  30.479  13.485
80233W        W41654  30.448   9.848  13.814
80234W        W41655  13.192  41.821   3.162
80235W        W41656  14.223  35.367   4.825
80236W        W41657  44.504  23.111   1.405
80237W        W41658  31.067  33.929  11.994
80238W        W41659  14.192  10.827  11.025
80239W        W41660  21.571  12.360   2.738
80240W        W41661  11.248  44.906  14.309
80241W        W41662  29.106  22.738  12.492
80242W        W41663  19.232  33.093   1.800
80243W        W41664  39.018  13.725   2.248
80244W        W41665  40.829  16.131   1.367
80245W        W41666  17.796   9.296  14.973
80246W        W41667  24.562  38.930  11.521
80247W        W41668  35.480  28.639   1.329
80248W        W41669  35.891  25.554   3.722
80249W        W41670  34.868  27.466  10.628
80250W        W41671  37.340  19.083  14.401
80251W        W41672  22.021  44.367   2.773
80252W        W41673   1.355  31.484  11.502
80253W        W41674  15.149  38.002  14.375
80254W        W41675  26.505  29.049   4.179
80255W        W41676  44.933   8.256  13.464
80256W        W41677  34.466  17.772   3.380
80257W        W41678  31.538  25.166  13.350
80258W        W41679   4.350  21.181   0.775
80259W        W41680  12.843  18.720   1.869
80260W        W41681  27.005  43.310  14.986
80261W        W41682  29.078  13.348   3.733
80262W        W41683  36.511  19.661   4.214
80263W        W41684  18.260  31.586   4.626
80264W        W41685  30.931  34.475   2.664
80265W        W41686  26.988   0.751  12.949
80266W        W41687   2.252   8.218   2.382
80267W        W41688  14.683  35.482  14.861
80268W        W41689  39.991  29.523  14.501
80269W        W41690  28.524   7.899  10.499
80270W        W41691  15.740  18.582   3.155
80271W        W41692  37.396   6.730   4.174
80272W        W41693  22.515   4.926   1.889
80273W        W41694   9.330  19.050   0.349
80274W        W41695  18.175  17.290  14.468
80275W        W41696  21.546   9.347   1.350
80276W        W41697   2.802   7.333  10.962
80277W        W41698  26.636  10.144  14.978
80278W        W41699   8.661  16.699  12.042
80279W        W41700  23.050  10.762  14.317
80280W        W41701   8.308  24.578   3.312
80281W        W41702  20.761  16.808  11.877
80282W        W41703  41.379  38.343   3.785
80283W        W41704  15.684  31.970  14.977
80284W        W41705   4.728  28.018  10.912
80285W        W41706   9.164  26.124  11.897
80286W        W41707  23.165   4.898   1.243
80287W        W41708   9.684  19.073   3.823
80288W        W41709  34.918  18.694   3.252
80289W        W41710  38.938   0.418   0.941
80290W        W41711  20.745  35.471   3.659
80291W        W41712   2.278  12.247  10.897
80292W        W41713  15.771  37.343   2.884
80293W        W41714  32.994  31.947   5.159
80294W        W41715   1.303  42.809   0.728
80295W        W41716  43.285  20.227  14.991
80296W        W41717   4.380  17.577  10.529
80297W        W41718  30.631   5.198  13.882
80298W        W41719  13.684  13.845   0.366
80299W        W41720  11.314  42.304  12.869
80300W        W41721  43.885  37.048   2.714
80301W        W41722  35.434  24.523  11.037
80302W        W41723  23.212   0.311  11.566
80303W        W41724   6.243  43.874  10.630
80304W        W41725  33.487  12.693   4.621
80305W        W41726  41.925  31.572  11.419
80306W        W41727  22.634  37.866   0.838
80307W        W41728   6.692   8.682  10.576
80308W        W41729  43.958  10.299  13.326
80309W        W41730  17.731  17.647  14.842
80310W        W41731  13.727  23.139   2.683
80311W        W41732   5.831  37.019   9.938
80312W        W41733  40.977  38.064   0.947
80313W        W41734  28.465  39.413  13.912
80314W        W41735  21.162  20.117   3.808
80315W        W41736  13.157   2.790   0.392
80316W        W41737   3.871  18.204  13.017
80317W        W41738  28.149  36.057   3.242
80318W        W41739  20.674  30.461  14.847
80319W        W41740  22.574   6.232  14.852
80320W        W41741  39.437  11.634  10.575
80321W        W41742  20.241   3.925  13.859
80322W        W41743  44.983  21.017   1.750
80323W        W41744   1.466   1.967   1.731
80324W        W41745  18.717   2.275  12.055
80325W        W41746  15.328   9.242   2.795
80326W        W41747   4.855  17.291   2.898
80327W        W41748  18.154   1.917   3.188
80328W        W41749   8.676   9.357  14.920
80329W        W41750  33.022   6.762   3.729
80330W        W41751  10.751  16.290  11.914
80331W        W41752  37.978  28.040   3.333
80332W        W41753  38.929   5.889  14.005
80333W        W41754  28.507  43.500  14.312
80334W        W41755  30.563  14.760   4.281
80335W        W41756  30.949  24.721   4.228
80336W        W41757  12.701   4.437   0.294
80337W        W41758  37.385  40.993  14.935
80338W        W41759   1.896  10.841   4.750
80339W        W41760  36.925  27.576   1.252
80340W        W41761   8.183  39.970   4.222
80341W        W41762  24.484   6.762  13.791
80342W        W41763  32.417  29.157  10.069
80343W        W41764  29.124  17.591   2.303
80344W        W41765   6.306  16.264   3.162
80345W        W41766  13.706   9.808   3.194
80346W        W41767  21.628  20.173   1.706
80347W        W41768  37.393  18.294  14.423
80348W        W41769  21.031  35.365   1.839
80349W        W41770  37.025  25.181  12.083
80350W        W41771  18.092  30.153  12.461
80351W        W41772   1.244   9.253   1.430
80352W        W41773   1.927  38.838  11.406
80353W        W41774  29.164  23.680  14.990
80354W        W41775  12.208  17.281   0.243
80355W        W41776  31.494   0.816   2.770
80356W        W41777  19.673  15.299   1.742
80357W        W41778  44.821  31.549   9.541
80358W        W41779  11.713  10.765   1.379
80359W        W41780   9.837   5.790   4.740
80360W        W41781  25.695   3.288   3.210
80361W        W41782  23.730  30.442  12.989
80362W        W41783  11.276  19.695   1.744
80363W        W41784  37.339  41.847  12.356
80364W        W41785   0.957  32.629  14.023
80365W        W41786  38.881  41.476  13.366
80366W        W41787  20.732  33.959  13.022
80367W        W41788  35.028  32.058   4.338
80368W        W41789  13.275   2.245  13.815
80369W        W41790  17.567  42.475   3.809
80370W        W41791  34.446  32.899  12.996
80371W        W41792  22.551  40.425  13.980
80372W        W41793   6.688  31.969  13.922
80373W        W41794   3.450  27.103   2.737
80374W        W41795  35.053  25.599  14.481
80375W        W41796   6.193  28.623   2.314
80376W        W41797  41.373  12.684   1.316
80377W        W41798  21.079  37.916   4.350
80378W        W41799  11.208  12.350   1.360
80379W        W41800  14.653   8.233  11.567
80380W        W41801  11.686  37.965  13.535
80381W        W41802  30.531   6.410  11.961
80382W        W41803  18.683  36.060   1.260
80383W        W41804  17.760   7.250   2.842
80384W        W41805  19.677  32.899   1.924
80385W        W41806  37.447  32.572  11.440
80386W        W41807  37.975  15.752   1.415
80387W        W41808  16.133  40.842   2.838
80388W        W41809  28.488  44.276  14.505
80389W        W41810  28.131  11.165   2.233
80390W        W41811  28.148  41.399   5.196
80391W        W41812  41.312  42.844  11.098
80392W        W41813  39.521  12.245   1.270
80393W        W41814  31.491  42.469   3.154
80394W        W41815   0.893  39.976   0.743
80395W        W41816  33.425  19.742  13.792
80396W        W41817  12.752  31.583  11.520
80397W        W41818  40.001  32.630  10.597
80398W        W41819  21.027  21.222   5.158
80399W        W41820  19.631   6.285   1.829
80400W        W41821   6.885  22.243  13.940
80401W        W41822  41.917   6.790   1.340
80402W        W41823  40.416  41.361  10.629
80403W        W41824   7.892  29.617   0.459
80404W        W41825  19.164  17.296   1.290
80405W        W41826  34.068  20.557  12.842
80406W        W41827  16.675  10.829   3.862
80407W        W41828  39.526  32.124   3.195
80408W        W41829   6.426  37.335   4.674
80409W        W41830   5.780  38.938  10.011
80410W        W41831  27.662  28.585  13.891
80411W        W41832   4.704  15.638   3.720
80412W        W41833  42.954  25.219   0.804
80413W        W41834   0.326  40.451  10.426
80414W        W41835  33.424  19.757  11.510
80415W        W41836  32.490  43.834  10.930
80416W        W41837  22.246  25.100  14.026
80417W        W41838  41.811  28.176  11.109
80418W        W41839  35.572   2.452  14.820
80419W        W41840  23.188  12.668   4.631
80420W        W41841   0.320  36.057  12.051
80421W        W41842   9.335  34.595  13.417
80422W        W41843  34.062  32.602  10.962
80423W        W41844   7.676  21.524   3.318
80424W        W41845   9.252   7.382   4.218
80425W        W41846  25.007  10.307  11.089
80426W        W41847  38.410  34.049  12.888
80427W        W41848  25.064  15.763  12.849
80428W        W41849  43.820  18.227   3.712
80429W        W41850  34.967   0.894   1.439
80430W        W41851  33.526   8.403   0.288
80431W        W41852   6.427   4.899  10.535
80432W        W41853  32.138  25.139  11.939
80433W        W41854  15.210  39.559   4.353
80434W        W41855  37.019  16.129   4.286
80435W        W41856  18.557  25.004   3.176
80436W        W41857   0.348  37.509   3.362
80437W        W41858  38.934  19.199   0.934
80438W        W41859   4.702  22.669  12.962
80439W        W41860  31.106  20.062   2.718
80440W        W41861   1.943  35.571  10.928
80441W        W41862   9.787  40.046  14.361
80442W        W41863  43.776  16.178  11.471
80443W        W41864  44.465   3.389  11.877
80444W        W41865  14.211  39.376   1.866
80445W        W41866   8.377  23.102  13.862
80446W        W41867  20.259  11.155  10.960
80447W        W41868  16.737   4.364  11.900
80448W        W41869  10.670  42.495  14.331
80449W        W41870  31.075   2.781  11.026
80450W        W41871  32.521  27.102  14.825
80451W        W41872  35.994  10.349  11.595
80452W        W41873  35.522  25.623   1.294
80453W        W41874  42.336  38.850   1.418
80454W        W41875  11.841  13.679  10.438
80455W        W41876  41.862  15.735   3.683
80456W        W41877   1.748  14.738   4.200
80457W        W41878  42.527  29.999  13.313
80458W        W41879  10.352  44.955   0.871
80459W        W41880  27.450  16.314  14.999
80460W        W41881  25.113   7.180   0.822
80461W        W41882  38.839   7.794   5.322
80462W        W41883   3.418  24.516  14.996
80463W        W41884   1.743   9.247   0.889
80464W        W41885   8.273   9.224   1.335
80465W        W41886  17.274  15.670  13.871
80466W        W41887  30.487  39.447  11.926
80467W        W41888  42.341  26.041  13.901
80468W        W41889  40.913  34.392  14.300
80469W        W41890   0.955  42.962  13.045
80470W        W41891   0.373  41.361  14.931
80471W        W41892   3.808  20.668  13.319
80472W        W41893  18.269  37.929  12.897
80473W        W41894   1.762  40.398  13.407
80474W        W41895  17.207  13.208   4.835
80475W        W41896   2.468  25.132   1.748
80476W        W41897   0.252  31.105  10.088
80477W        W41898  38.949  15.299  11.889
80478W        W41899  36.357  41.453  13.491
80479W        W41900  40.414  24.575  11.975
80480W        W41901   6.748  10.323  13.536
80481W        W41902  37.549  29.620   1.791
80482W        W41903   1.897  17.800  12.463
80483W        W41904  21.541   1.258   3.206
80484W        W41905  17.784  15.231  14.918
80485W        W41906  18.146   1.802  11.413
80486W        W41907  41.420   3.301  14.426
80487W        W41908   3.727  25.962  13.833
80488W        W41909  42.386  21.118  11.894
80489W        W41910  30.483  23.227   2.772
80490W        W41911  19.169  39.339   3.206
80491W        W41912  15.137   8.892  11.063
80492W        W41913  30.587  31.136  14.481
80493W        W41914  26.114  28.018  13.059
80494W        W41915  12.189  32.966  11.515
80495W        W41916  22.693  14.301  11.122
80496W        W41917  10.231  12.121   4.117
80497W        W41918  28.619  22.133  13.818
80498W        W41919   9.287  41.991   1.715
80499W        W41920  23.078  11.633  14.300
80500W        W41921   9.199  36.891  14.285
80501W        W41922  13.154   1.301  12.467
80502W        W41923  43.882  37.908   3.791
80503W        W41924   1.827  33.557   3.149
80504W        W41925  38.416  34.505  14.876
80505W        W41926  26.533  44.891  11.056
80506W        W41927   6.272   7.297  14.866
80507W        W41928  15.646  28.029   4.699
80508W        W41929  43.794   3.897  12.374
80509W        W41930  41.972  19.751   4.319
80510W        W41931  21.110  14.287   3.843
80511W        W41932  38.986  40.040  14.349
80512W        W41933   1.945  27.449  12.066
80513W        W41934  37.444   5.319  13.052
80514W        W41935   7.800  15.802   3.190
80515W        W41936   2.250   6.273   1.780
80516W        W41937  41.834  20.597   3.773
80517W        W41938  35.518   1.279  14.966
80518W        W41939  25.976  11.798   2.241
80519W        W41940   2.260  21.203  13.931
80520W        W41941  31.912  11.755   2.385
80521W        W41942   0.830   8.874  10.412
80522W        W41943  30.928  38.953   4.307
80523W        W41944  10.862  30.560   5.088
80524W        W41945  29.010  29.028   3.738
80525W        W41946  26.687  18.584  13.338
80526W        W41947   7.202  44.894   1.225
80527W        W41948  26.586  10.163  13.872
80528W        W41949  17.212  30.519  14.781
80529W        W41950   8.778  15.686   3.374
80530W        W41951  41.450  16.687  13.547
80531W        W41952   7.178   3.344   3.267
80532W        W41953   3.864  23.054  11.912
80533W        W41954  15.790  44.778  12.858
80534W        W41955  44.916  29.588  10.419
80535W        W41956  18.777  13.194  13.875
80536W        W41957  14.608  10.764   1.252
80537W        W41958  36.959  10.681   2.701
80538W        W41959  18.166  44.004  13.856
80539W        W41960  33.621  30.997  10.423
80540W        W41961  26.108  39.053   4.601
80541W        W41962  31.615  23.989  10.606
80542W        W41963  15.641   2.247  14.405
80543W        W41964  41.356  41.910  12.406
80544W        W41965  41.839   6.402  10.961
80545W        W41966  28.633   3.384  11.606
80546W        W41967  17.202  24.510  11.507
80547W        W41968  23.604  41.032  14.424
80548W        W41969   7.340  20.252  10.935
80549W        W41970   8.189   5.880   1.378
80550W        W41971   4.729  15.215  11.048
80551W        W41972  43.923  27.446  13.469
80552W        W41973  19.136  31.563  12.438
80553W        W41974  26.601  21.085  14.031
80554W        W41975   3.256  16.636  11.516
80555W        W41976  35.472   4.867   2.875
80556W        W41977   7.673  40.431  13.535
80557W        W41978  10.689   8.680  14.469
80558W        W41979  15.259   4.718   4.661
80559W        W41980  21.542  17.069  14.496
80560W        W41981   0.382  32.946   0.862
80561W        W41982  32.478  18.075  10.601
80562W        W41983   3.856  23.057  12.874
80563W        W41984  41.355  18.707  11.506
80564W        W41985   4.315  38.424   2.669
80565W        W41986  36.408  44.936  13.501
80566W        W41987  34.462  12.320   1.300
80567W        W41988  36.930   5.720  11.988
80568W        W41989  31.971  42.804  13.816
80569W        W41990   4.839  36.469  12.372
80570W        W41991   2.951   5.229   2.762
80571W        W41992   6.887  28.024  12.055
80572W        W41993  14.328  33.097   0.780
80573W        W41994  24.600   7.809   3.336
80574W        W41995  40.509  27.660  11.596
80575W        W41996  29.613  24.608  10.978
80576W        W41997  28.545  33.024   0.378
80577W        W41998  19.045   9.827   0.788
80578W        W41999  17.730  18.717  13.905
80579W        W42000  23.214  35.987  12.885
80580W        W42001   7.869   0.819  12.339
80581W        W42002  20.539   3.272   1.366
80582W        W42003  23.234  39.930   0.442
80583W        W42004   8.680  13.835   3.857
80584W        W42005   4.299  43.786   1.833
80585W        W42006  34.480  44.333  14.805
80586W        W42007   2.359  28.675  10.554
80587W        W42008  34.062  31.110   3.277
80588W        W42009  17.557  42.427   0.777
80589W        W42010   2.772  38.000   4.330
80590W        W42011   3.875  42.342   0.334
80591W        W42012  11.682   7.211   0.949
80592W        W42013  12.701  40.322   1.750
80593W        W42014  31.615  33.940  11.414
80594W        W42015   5.859   5.740  11.598
80595W        W42016  12.802  17.751   2.897
80596W        W42017  32.635   5.825   0.916
80597W        W42018  36.470  42.907   3.385
80598W        W42019  33.984  23.735  12.470
80599W        W42020  36.050  40.854  11.869
80600W        W42021  29.992  19.575   4.176
80601W        W42022   7.908   6.278   4.708
80602W        W42023  14.831  21.019   2.830
80603W        W42024   1.448  43.400  14.333
80604W        W42025  20.185  19.072  12.560
80605W        W42026   6.729  37.971   0.744
80606W        W42027  40.924   3.433  11.402
80607W        W42028  11.832  22.690  10.922
80608W        W42029  33.424  16.222  12.954
80609W        W42030  28.136  31.504  12.373
80610W        W42031   9.218   0.889  13.516
80611W        W42032   5.923  36.450  11.910
80612W        W42033  12.360   3.389   2.190
80613W        W42034  24.691   6.917  12.444
80614W        W42035  44.393   9.363  12.980
80615W        W42036  40.851  12.151  10.047
80616W        W42037   5.237   0.988  11.605
80617W        W42038  30.164   0.383  13.414
80618W        W42039   1.282  25.708   0.463
80619W        W42040  27.484   5.812   4.787
80620W        W42041   8.242  39.543   9.479
80621W        W42042  21.169  30.086  13.389
80622W        W42043  44.931  20.222   0.312
80623W        W42044  33.934  18.647   4.731
80624W        W42045  26.534   8.797  13.023
80625W        W42046  31.994  43.892  10.961
80626W        W42047  27.056  30.950   0.268
80627W        W42048   0.872  14.148  14.832
80628W        W42049   1.937  12.150   0.381
80629W        W42050  33.437  38.341  11.045
80630W        W42051  29.081  23.016  13.417
80631W        W42052   3.791  35.858   3.227
80632W        W42053  21.521  30.957   0.751
80633W        W42054   2.425  14.628   2.349
80634W        W42055  42.894   0.843  12.391
80635W        W42056  39.939  23.696   0.375
80636W        W42057  31.126   5.854  12.962
80637W        W42058  11.323  24.499   3.849
80638W        W42059  30.475  18.051  11.603
80639W        W42060   4.316  26.702   5.277
80640W        W42061  39.812  27.149   2.310
80641W        W42062   1.868  18.253   0.325
80642W        W42063  33.495  19.096   3.646
80643W        W42064  20.077  12.686  13.399
80644W        W42065   0.281   3.336   2.666
80645W        W42066  17.186  27.583   4.789
80646W        W42067  32.553  14.753   1.699
80647W        W42068  29.925  44.009  11.540
80648W        W42069  37.431  10.302  14.428
80649W        W42070   8.164   5.344   4.651
80650W        W42071  34.545  36.472  13.405
80651W        W42072  42.970   7.895   1.843
80652W        W42073  38.016  34.111  11.571
80653W        W42074  15.585  37.949  11.072
80654W        W42075  40.451  40.980   4.126
80655W        W42076   6.254  25.035  11.547
80656W        W42077  39.424  21.708  11.912
80657W        W42078  19.268   7.248   3.644
80658W        W42079   3.240  31.921  13.328
80659W        W42080  16.279  30.571  12.920
80660W        W42081  41.345  40.405   4.601
80661W        W42082  41.040   1.929   1.812
80662W        W42083  18.624  44.934  12.391
80663W        W42084  31.052  35.403   2.876
80664W        W42085  39.326  37.995  11.435
80665W        W42086  16.767  11.850  11.061
80666W        W42087  28.643  31.996  14.820
80667W        W42088  13.290  27.453   3.687
80668W        W42089  40.019  40.028   0.445
80669W        W42090  11.849  23.644   0.817
80670W        W42091   4.387  13.235  13.330
80671W        W42092  17.684  12.316  12.524
80672W        W42093   1.243  12.264  12.923
80673W        W42094   5.342  12.836  13.941
80674W        W42095  34.522   6.790   1.289
80675W        W42096  25.121  34.485  12.849
80676W        W42097  27.020  28.170  10.517
80677W        W42098  34.574  21.164  11.589
80678W        W42099  14.254   0.827  13.914
80679W        W42100  24.064  40.373  10.558
80680W        W42101  14.716  27.683   2.243
80681W        W42102   3.237  43.016  11.909
80682W        W42103  27.539  33.874   1.913
80683W        W42104   5.866  44.276   4.623
80684W        W42105  24.662  18.603  10.972
80685W        W42106   8.762  33.397  13.948
80686W        W42107  29.060  24.721  10.602
80687W        W42108  14.703  12.260  10.489
80688W        W42109  31.619  43.305   3.160
80689W        W42110  32.938   0.278   3.348
80690W        W42111   3.738  12.215   3.653
80691W        W42112  13.190  21.100  13.475
80692W        W42113   4.358  43.310  13.939
80693W        W42114  25.658  10.220  10.074
80694W        W42115  31.960   2.813   0.896
80695W        W42116  34.963  14.194   3.236
80696W        W42117  34.509  43.985  11.100
80697W        W42118   8.280  12.315   1.903
80698W        W42119  41.351   3.742   0.285
80699W        W42120  26.973  34.434   1.274
80700W        W42121  15.182  36.428  13.819
80701W        W42122  35.473   5.208   1.743
80702W        W42123  36.964  34.062  10.584
80703W        W42124  32.027  29.582  14.355
80704W        W42125   1.789  25.196   2.342
80705W        W42126  22.229  14.167   1.722
80706W        W42127  32.621  11.795   4.815
80707W        W42128  16.626   5.709   2.285
80708W        W42129  14.610  15.310   3.812
80709W        W42130  27.526  13.223  13.445
80710W        W42131  35.512   9.737  11.493
80711W        W42132  15.321   3.228  13.999
80712W        W42133  29.515  34.461  13.396
80713W        W42134  22.513  13.155   1.221
80714W        W42135  31.492  44.833   2.714
80715W        W42136  29.665  23.064  14.450
80716W        W42137   0.892  13.232   4.834
80717W        W42138  29.136  34.002  14.279
80718W        W42139   6.782  10.352   3.650
80719W        W42140  25.674   8.169   2.400
80720W        W42141  18.201  24.990  12.961
80721W        W42142  12.752   3.424  10.603
80722W        W42143  27.052  19.596  11.039
80723W        W42144   9.251   0.395  12.891
80724W        W42145  27.618  40.338   2.193
80725W        W42146  41.439   9.318   0.799
80726W        W42147  27.477  14.155  12.052
80727W        W42148  13.795  22.616  13.314
80728W        W42149  10.362   2.867   4.789
80729W        W42150  43.834  21.560   4.758
80730W        W42151   1.447   0.358   1.867
80731W        W42152   4.264   7.303  11.393
80732W        W42153  25.537   3.220  13.399
80733W        W42154  35.928  15.580  13.866
80734W        W42155   1.277  33.091   2.885
80735W        W42156  14.302   9.272  13.454
80736W        W42157  28.063  23.223  14.422
80737W        W42158  17.738  24.595  13.365
80738W        W42159  42.474  11.845  12.457
80739W        W42160   7.352  34.585   4.664
80740W        W42161  12.218   8.284   0.754
80741W        W42162  11.795  38.483   2.763
80742W        W42163  19.212   0.879   4.133
80743W        W42164  40.899  21.121  13.324
80744W        W42165  44.922  11.730  12.340
80745W        W42166  33.469  43.855   2.330
80746W        W42167   6.206  40.823   4.193
80747W        W42168   9.683  19.279   3.256
80748W        W42169  18.583   9.713   0.961
80749W        W42170  39.994  38.945  13.410
80750W        W42171  29.548  40.333  12.351
80751W        W42172  21.186   5.362  13.839
80752W        W42173  35.917  30.490  14.914
80753W        W42174  36.395   1.942   1.404
80754W        W42175   8.836  28.538   3.827
80755W        W42176   5.430  34.580   3.333
80756W        W42177  28.500  27.572   4.678
80757W        W42178  18.609   8.240  11.404
80758W        W42179  43.997  18.718   3.808
80759W        W42180  11.781  29.115  12.041
80760W        W42181  32.570  21.175   2.786
80761W        W42182  23.562  39.052   2.349
80762W        W42183  34.417  12.639  12.951
80763W        W42184   3.825  38.944  14.838
80764W        W42185  38.458  13.166   5.302
80765W        W42186   7.184  36.501   4.811
80766W        W42187  39.820  28.512  14.345
80767W        W42188  42.338  16.265   4.677
80768W        W42189  21.245  31.485  14.810
80769W        W42190  27.010  40.051   0.329
80770W        W42191  36.467   7.836   1.926
80771W        W42192   9.305  25.625  11.494
80772W        W42193   8.362   3.754   2.215
80773W        W42194  36.452  39.018  11.528
80774W        W42195  40.315  12.764   9.463
80775W        W42196  35.439  10.175   0.836
80776W        W42197  21.224  25.018   3.761
80777W        W42198  15.821  22.035   4.315
80778W        W42199   6.305   9.170   3.287
80779W        W42200  30.037   4.884   4.670
80780W        W42201  11.663  26.036   3.830
80781W        W42202   1.757  21.161   2.354
80782W        W42203  22.538  28.060   9.938
80783W        W42204   9.366  23.711  11.428
80784W        W42205   7.772  26.548   3.826
80785W        W42206  42.353  36.570   3.782
80786W        W42207  31.455  38.565   1.400
80787W        W42208  12.153  40.513  12.968
80788W        W42209   1.389  44.440   3.748
80789W        W42210  42.002   4.217   3.240
80790W        W42211   7.396  35.469   3.187
80791W        W42212  32.520  30.576  10.517
80792W        W42213  30.504  35.870  11.887
80793W        W42214  23.536  19.646   1.756
80794W        W42215  18.779  26.182  10.600
80795W        W42216  23.099   7.293   5.678
80796W        W42217  43.433  24.981  13.840
80797W        W42218  35.430   3.298  12.438
80798W        W42219  15.807  33.957  13.015
80799W        W42220  19.712  19.636  11.979
80800W        W42221  11.187  25.643  13.457
80801W        W42222  11.187  29.118   2.771
80802W        W42223   7.365  20.676  11.579
80803W        W42224   7.237  40.543  10.538
80804W        W42225  30.605  33.383   4.200
80805W        W42226  35.041  43.487  14.451
80806W        W42227  35.963  18.057  14.415
80807W        W42228  29.670  11.198   1.915
80808W        W42229  28.513  14.177  11.415
80809W        W42230  25.146  43.367  13.460
80810W        W42231   8.749  40.913  10.524
80811W        W42232  32.132  25.219  10.957
80812W        W42233  19.599  13.760  13.974
80813W        W42234  44.907  20.247   2.179
80814W        W42235  36.392  22.084   4.647
80815W        W42236  26.050  22.084   1.364
80816W        W42237  24.688  42.330  12.876
80817W        W42238  10.653  37.918  14.788
80818W        W42239   7.331  32.568   0.944
80819W        W42240  17.583  13.657  13.502
80820W        W42241  34.006  29.550   2.346
80821W        W42242  23.502  14.153  14.409
80822W        W42243   4.406   9.794   1.278
80823W        W42244  14.666  18.188   3.171
80824W        W42245   8.364  41.976  11.860
80825W        W42246  35.972  37.439  10.126
80826W        W42247  14.253  39.942  12.527
80827W        W42248  44.818  35.500   3.223
80828W        W42249   5.327   5.403  12.869
80829W        W42250  36.091   9.739  11.417
80830W        W42251  27.027  26.492  13.954
80831W        W42252  19.075  30.935   4.251
80832W        W42253   6.770  28.959   0.301
80833W        W42254  32.452  32.115  11.409
80834W        W42255   5.908  29.508  14.872
80835W        W42256  20.238   4.251   3.656
80836W        W42257  13.772  43.279   0.445
80837W        W42258  34.481  31.958  12.549
80838W        W42259  19.170  20.132   4.138
80839W        W42260   3.429  30.649  10.104
80840W        W42261  43.828  34.583  11.891
80841W        W42262  21.129  32.473  11.100
80842W        W42263   9.856   7.718  14.373
80843W        W42264   6.368  26.616   3.674
80844W        W42265  27.038  28.066  14.876
80845W        W42266  44.279   9.215  11.000
80846W        W42267  24.667  33.507   0.249
80847W        W42268   0.475  15.674  10.906
80848W        W42269  12.329  23.736   4.707
80849W        W42270  25.567  29.452  11.583
80850W        W42271  39.402  43.939  11.066
80851W        W42272  40.311  37.510  12.078
80852W        W42273  34.553  44.923   1.246
80853W        W42274  26.661  32.585  14.314
80854W        W42275  42.373   7.877   3.740
80855W        W42276  12.733  39.986   2.806
80856W        W42277  38.564  33.070  14.809
80857W        W42278   7.681   5.411  14.861
80858W        W42279  20.559  13.331   0.761
80859W        W42280  37.453  33.024  14.842
80860W        W42281  20.034  15.817   3.227
80861W        W42282  31.438  32.566   3.289
80862W        W42283  21.237  44.453   9.939
80863W        W42284  22.182  14.698  12.969
80864W        W42285   3.719  38.958  12.056
80865W        W42286  13.301  34.507  11.904
80866W        W42287   0.778  35.870  11.436
80867W        W42288  25.031  39.937  11.493
80868W        W42289  13.718   4.869   1.256
80869W        W42290  26.475  11.844  11.450
80870W        W42291  23.003  11.868  13.409
80871W        W42292  27.482  14.316  11.045
80872W        W42293   8.231  31.897  10.060
80873W        W42294  14.808  40.390   3.849
80874W        W42295  28.047  39.318  10.126
80875W        W42296   2.759  41.294  11.608
80876W        W42297  20.583   1.299   2.801
80877W        W42298  32.417  18.574  12.028
80878W        W42299  29.475  28.443  11.995
80879W        W42300  25.625  25.542  12.506
80880W        W42301  25.106  33.981  10.507
80881W        W42302  38.543   1.301  10.636
80882W        W42303  39.986   7.290   2.887
80883W        W42304  19.095  40.896   1.388
80884W        W42305  38.489   7.772   1.707
80885W        W42306  21.670  24.152   3.677
80886W        W42307  27.040  34.921   4.301
80887W        W42308  20.616   5.291   2.889
80888W        W42309  26.470  23.521   4.344
80889W        W42310  34.930  41.801  14.380
80890W        W42311  40.807  43.356   4.729
80891W        W42312  28.075  26.479   0.296
80892W        W42313  27.656   1.403  11.920
80893W        W42314  20.596  12.268  13.018
80894W        W42315  41.033   3.316  14.440
80895W        W42316  36.987   7.204  13.486
80896W        W42317   0.331  44.793   2.787
80897W        W42318  22.719  25.984   4.685
80898W        W42319  34.927  37.900  13.951
80899W        W42320  15.106  19.597   2.663
80900W        W42321  21.220  25.675   3.159
80901W        W42322   2.470  36.381   1.876
80902W        W42323  28.125  12.667  11.902
80903W        W42324  28.163  27.489   3.721
80904W        W42325  23.149  37.477   4.352
80905W        W42326  36.445   7.378  10.952
80906W        W42327   4.340  31.930  10.150
80907W        W42328  44.423  11.209   3.386
80908W        W42329   3.792   8.399   2.332
80909W        W42330  19.713   6.758   9.560
80910W        W42331  13.226  39.925   0.313
80911W        W42332  25.499  18.086   3.195
80912W        W42333   7.404  14.817   2.793
80913W        W42334   2.897  26.165   1.384
80914W        W42335  24.615  22.738  12.384
80915W        W42336  35.371  14.671  11.104
80916W        W42337  12.343  32.983   1.753
80917W        W42338  22.599  20.574  12.007
80918W        W42339  13.793  25.976   0.280
80919W        W42340   2.288  36.422  11.528
80920W        W42341   8.901  43.784   3.716
80921W        W42342  33.384   0.878   2.247
80922W        W42343  34.013  13.648  10.950
80923W        W42344  20.246  38.018   1.761
80924W        W42345   5.382  27.659  12.849
80925W        W42346  22.221  19.684  10.565
80926W        W42347  21.172  15.813   2.827
80927W        W42348  38.996  42.821  10.619
80928W        W42349  36.004  11.841  13.815
80929W        W42350  41.874  38.872   3.666
80930W        W42351  29.622  24.709  14.874
80931W        W42352   8.180  18.111   0.356
80932W        W42353  21.090  15.649   1.718
80933W        W42354   9.700  28.176   2.201
80934W        W42355  14.133  35.883   4.701
80935W        W42356  25.170  41.005   3.867
80936W        W42357  13.821  33.974  12.385
80937W        W42358  41.430  25.515   1.716
80938W        W42359  35.957  41.988   1.727
80939W        W42360  27.183   8.340  10.624
80940W        W42361  36.587   0.389  10.011
80941W        W42362  22.018   5.323  12.542
80942W        W42363   5.702  17.647  13.433
80943W        W42364  27.183  12.121   1.366
80944W        W42365  43.873  35.029  14.970
80945W        W42366   9.723  24.562  13.438
80946W        W42367   1.243  19.713   2.867
80947W        W42368  24.511  19.055   0.445
80948W        W42369  15.131  42.488   1.854
80949W        W42370  24.545  44.864   1.414
80950W        W42371  14.662  43.812  11.475
80951W        W42372  27.040  28.143  11.932
80952W        W42373   8.782  29.601  11.991
80953W        W42374  24.206   0.907   9.996
80954W        W42375   9.212  26.576   1.795
80955W        W42376  35.400  32.900   4.766
80956W        W42377  17.735  24.700   4.646
80957W        W42378  13.737  13.336   3.680
80958W        W42379   2.925  19.134   0.248
80959W        W42380   4.711  10.374  13.849
80960W        W42381   9.280  23.026  10.626
80961W        W42382   1.929   0.420   2.734
80962W        W42383  12.778  18.075   2.239
80963W        W42384   3.727  13.808   4.645
80964W        W42385  14.150  35.603  12.437
80965W        W42386  43.477   3.309   1.315
80966W        W42387  22.037  11.369  11.897
80967W        W42388  31.943  29.955   0.967
80968W        W42389  43.383  34.372   4.838
80969W        W42390   5.709  44.897  11.043
80970W        W42391  28.133  39.314  10.442
80971W        W42392   5.930  31.568  10.456
80972W        W42393   6.330  10.340  11.596
80973W        W42394  35.519  26.664  14.499
80974W        W42395  23.086  27.662  14.417
80975W        W42396  10.317  44.940   2.243
80976W        W42397  22.538  33.131   2.851
80977W        W42398   2.311  42.446  13.409
80978W        W42399  21.595   0.410   1.320
80979W        W42400  27.481  32.925   2.712
80980W        W42401   1.827  35.570  14.873
80981W        W42402  28.033  28.498   4.615
80982W        W42403  30.557  38.565   2.672
80983W        W42404  21.706  31.534   4.156
80984W        W42405  11.750  10.348  14.462
80985W        W42406  15.143  38.965   0.838
80986W        W42407  10.227  34.432  13.064
80987W        W42408  26.584  25.132  10.009
80988W        W42409  17.610  24.724   3.637
80989W        W42410   5.360  10.831   0.877
80990W        W42411  21.751   7.700   1.843
80991W        W42412  11.683  19.180  11.108
80992W        W42413  39.376   1.902  11.007
80993W        W42414  38.543  10.158   1.761
80994W        W42415  26.483  22.089   3.365
80995W        W42416  23.705   4.274   0.463
80996W        W42417  44.798  42.296   1.340
80997W        W42418  18.194   6.738  13.495
80998W        W42419  12.128  22.586  11.569
80999W        W42420  33.971  34.484   2.337
81000W        W42421  20.581  26.579   3.357
81001W        W42422  39.879  40.048   4.126
81002W        W42423  24.024  42.864   2.358
81003W        W42424  29.955  37.963   3.287
81004W        W42425   6.822   7.681   0.733
81005W        W42426  26.024  44.897   4.613
81006W        W42427  17.113  34.487   0.765
81007W        W42428  35.550  22.507  13.507
81008W        W42429   5.256  32.490   1.383
81009W        W42430  44.320  42.778  10.984
81010W        W42431  34.964   3.419   0.321
81011W        W42432  20.678  31.119  13.483
81012W        W42433  31.526  15.596  12.347
81013W        W42434   1.737  13.706  11.437
81014W        W42435   3.806  33.928  13.448
81015W        W42436   5.321  31.464  11.398
81016W        W42437  31.984   5.248   2.326
81017W        W42438   0.944  30.110   2.403
81018W        W42439  44.837  11.230   3.644
81019W        W42440   5.892  40.538  14.921
81020W        W42441  36.384  33.982  12.499
81021W        W42442  21.235   8.817  14.928
81022W        W42443  42.301  13.670  11.941
81023W        W42444  14.219  18.202   1.734
81024W        W42445  37.344  31.501  14.398
81025W        W42446  14.720  12.205  14.778
81026W        W42447   5.367  43.460  10.497
81027W        W42448   8.372   7.713  10.569
81028W        W42449   8.778  37.910  10.495
81029W        W42450  42.976   1.362   2.729
81030W        W42451  28.543  26.988   2.363
81031W        W42452  14.630  41.459   3.674
81032W        W42453  31.009  44.436  13.001
81033W        W42454  34.979   3.231  13.543
81034W        W42455  32.432  37.020  10.579
81035W        W42456  25.133  36.929   2.216
81036W        W42457  32.602  43.995   4.215
81037W        W42458  11.808  17.612   2.395
81038W        W42459  21.167  34.899   3.273
81039W        W42460  19.222  10.762  13.389
81040W        W42461  40.013  29.079  13.469
81041W        W42462  39.373   3.233  11.904
81042W        W42463  21.259  44.265   0.817
81043W        W42464  11.635  15.803   2.215
81044W        W42465  35.082  12.739   0.755
81045W        W42466  43.401  17.756  14.401
81046W        W42467   2.953   3.834  12.527
81047W        W42468  36.358  44.396  12.340
81048W        W42469  44.864  34.062  12.861
81049W        W42470  19.038  27.140   1.212
81050W        W42471   9.231  20.751  12.030
81051W        W42472  11.690  37.551   2.868
81052W        W42473   9.353  43.912  14.850
81053W        W42474  41.296  29.120   2.708
81054W        W42475  44.475   6.408  11.952
81055W        W42476  34.396   4.741   2.875
81056W        W42477  31.415  17.584   3.701
81057W        W42478  41.981  31.484  13.934
81058W        W42479   2.856  23.496  11.405
81059W        W42480  32.958   2.964   0.303
81060W        W42481  36.367   9.219   2.270
81061W        W42482  19.562  19.078  12.027
81062W        W42483  37.560  39.468   4.788
81063W        W42484  21.054  36.534   4.616
81064W        W42485  26.460  34.983   2.678
81065W        W42486  11.295  37.437  14.368
81066W        W42487  39.837  38.486  14.905
81067W        W42488  39.820  33.047   0.440
81068W        W42489  10.216  27.032  12.554
81069W        W42490  38.900  13.237  13.368
81070W        W42491  33.527  36.558  10.924
81071W        W42492  19.721  42.399   0.913
81072W        W42493  28.978  42.994   0.389
81073W        W42494  43.431  31.970   3.860
81074W        W42495   2.733  24.615   4.761
81075W        W42496  28.067  19.653   4.791
81076W        W42497  15.133   4.878   0.467
81077W        W42498  37.924  10.741   3.302
81078W        W42499  35.019  36.473  13.818
81079W        W42500  28.469  32.545   0.872
81080W        W42501  20.523  34.571   3.224
81081W        W42502  43.448   7.378   5.179
81082W        W42503   3.718   7.786   1.773
81083W        W42504   1.769  10.163   1.712
81084W        W42505  18.183  28.526   2.723
81085W        W42506   7.741  35.862   3.359
81086W        W42507  16.107  18.706   4.629
81087W        W42508  16.570   0.805   4.163
81088W        W42509  23.200  14.328   2.686
81089W        W42510  14.735  37.941   2.337
81090W        W42511  42.509  39.373  14.766
81091W        W42512   3.748  21.032   2.865
81092W        W42513  25.666   9.736  13.527
81093W        W42514  25.153   7.358  11.976
81094W        W42515   4.268  21.137   1.895
81095W        W42516  40.524  17.103   0.412
81096W        W42517  24.522  37.052   1.425
81097W        W42518  41.363  18.258   4.165
81098W        W42519   5.904  42.026   3.675
81099W        W42520  37.020   4.324   1.808
81100W        W42521   3.945  11.302  10.551
81101W        W42522  17.618  42.425   4.692
81102W        W42523  27.104  40.388  10.645
81103W        W42524   4.798  41.902  12.374
81104W        W42525   5.745  33.392  13.909
81105W        W42526   2.835  11.373  13.028
81106W        W42527  42.934  27.980  11.572
81107W        W42528  25.571  31.028   0.420
81108W        W42529  43.331  19.216  14.861
81109W        W42530  42.314  31.475   3.240
81110W        W42531  33.416  39.353   0.917
81111W        W42532  30.512  38.057  12.084
81112W        W42533   0.376  21.573   1.832
81113W        W42534  36.056  20.092  10.957
81114W        W42535  26.970  29.654  14.891
81115W        W42536  31.563  12.266  12.957
81116W        W42537  11.204  25.114   1.887
81117W        W42538  31.578   9.334   2.356
81118W        W42539  33.106   8.346   4.348
81119W        W42540  37.355  11.674   3.269
81120W        W42541  28.993  19.227   2.767
81121W        W42542   1.385  32.035  13.309
81122W        W42543  17.600  42.353  12.078
81123W        W42544   3.338   4.898  12.501
81124W        W42545  19.714  22.090   3.354
81125W        W42546  22.584   3.433  12.425
81126W        W42547  23.108   3.722   1.256
81127W        W42548  40.390   4.408   4.715
81128W        W42549   8.830  31.973  11.873
81129W        W42550  44.493   4.894   2.832
81130W        W42551  30.559  36.981  13.470
81131W        W42552  40.045   0.900   0.938
81132W        W42553  21.653  32.635   1.295
81133W        W42554  11.130  42.425  14.410
81134W        W42555  41.494   4.231  11.413
81135W        W42556   4.772  22.175   3.163
81136W        W42557  26.666   2.428   3.336
81137W        W42558  42.913  32.090  10.022
81138W        W42559   6.377  15.196  14.766
81139W        W42560  43.885  40.349   3.823
81140W        W42561  18.658  10.800   3.680
81141W        W42562  27.968   5.295  12.422
81142W        W42563  21.200  11.698  14.477
81143W        W42564   1.828  36.072  14.405
81144W        W42565  13.275  42.892  11.866
81145W        W42566   8.285  19.041   0.365
81146W        W42567  25.702  11.817  11.450
81147W        W42568  27.624   1.768   3.189
81148W        W42569  35.039   7.375   3.232
81149W        W42570   7.290  20.591  10.623
81150W        W42571  32.604  30.659  14.762
81151W        W42572  44.986  34.916   4.352
81152W        W42573   4.287  43.365  14.412
81153W        W42574  43.002  31.029   1.912
81154W        W42575  32.433  27.560   4.182
81155W        W42576  10.248  38.979   5.629
81156W        W42577  39.036  37.344  10.443
81157W        W42578  35.907  17.190   1.901
81158W        W42579  10.357  18.549   0.891
81159W        W42580  24.212  40.798   4.216
81160W        W42581   8.252  22.546   4.605
81161W        W42582  13.619  19.656   4.306
81162W        W42583  31.050  41.968  12.863
81163W        W42584  24.508   6.375   0.346
81164W        W42585  25.079  24.991  13.431
81165W        W42586  13.655   3.314  14.432
81166W        W42587   6.304  30.636   0.338
81167W        W42588  28.598  27.026  12.530
81168W        W42589  29.442  32.045   9.942
81169W        W42590  39.437  15.240   0.391
81170W        W42591  23.703   8.363   3.758
81171W        W42592  24.039   2.471   1.935
81172W        W42593  16.775  23.156  14.019
81173W        W42594  30.417  21.529   3.822
81174W        W42595  14.782   2.828   2.313
81175W        W42596  18.186   8.768   2.842
81176W        W42597  13.661  34.587   2.778
81177W        W42598   1.463  16.760   1.746
81178W        W42599   0.959  20.755   2.378
81179W        W42600  12.258  36.887  10.994
81180W        W42601  41.818  43.916  14.006
81181W        W42602  22.229  30.456  12.018
81182W        W42603  35.089  11.788  10.452
81183W        W42604   5.689  27.010  12.936
81184W        W42605   3.821  38.858   2.897
81185W        W42606   7.752  43.869  13.960
81186W        W42607  21.646  28.493  11.509
81187W        W42608  29.515   9.369   4.739
81188W        W42609  18.171  23.717  10.592
81189W        W42610  37.434  17.589   4.237
81190W        W42611   9.162  19.770  12.824
81191W        W42612   4.362  31.070  13.317
81192W        W42613  13.706   2.393  11.010
81193W        W42614  39.505  27.004   3.778
81194W        W42615  30.622  40.480   1.323
81195W        W42616  14.176  35.108  13.901
81196W        W42617   1.794  26.519   0.763
81197W        W42618   9.696  35.001  11.444
81198W        W42619   1.838  31.479  10.612
81199W        W42620   4.260  44.268   1.861
81200W        W42621   6.279   7.732  10.543
81201W        W42622  38.424   9.863  11.523
81202W        W42623   3.304  23.020   0.381
81203W        W42624  19.676  41.988  10.966
81204W        W42625  19.550  40.011   0.732
81205W        W42626  43.901  24.537  12.913
81206W        W42627  38.337   5.816   0.300
81207W        W42628  13.610   6.398   4.666
81208W        W42629  44.488  20.706  11.519
81209W        W42630  42.860  22.236   4.617
81210W        W42631  36.500  20.228  12.568
81211W        W42632  27.160   2.266   0.843
81212W        W42633  17.757  24.591  14.285
81213W        W42634  17.176   8.264  12.908
81214W        W42635  34.887   8.682  13.500
81215W        W42636  28.937  44.468  14.408
81216W        W42637  16.190  31.102   2.351
81217W        W42638  26.977  38.024   3.217
81218W        W42639  14.261  21.716  12.506
81219W        W42640  13.236   0.344  14.761
81220W        W42641   3.808  23.187   5.146
81221W        W42642  39.364  21.192  14.382
81222W        W42643   2.387  29.088  13.479
81223W        W42644  10.300  27.193   2.863
81224W        W42645  38.341   5.439   2.811
81225W        W42646  18.628  11.754  13.028
81226W        W42647  17.587  18.092   0.772
81227W        W42648  25.616  16.175  10.615
81228W        W42649   3.256   4.429   0.339
81229W        W42650  17.582  15.736   2.685
81230W        W42651  12.281  23.518   1.899
81231W        W42652   4.259  34.404   2.818
81232W        W42653   2.916  35.601  12.007
81233W        W42654   6.856  23.493  14.022
81234W        W42655  28.015  15.635  14.880
81235W        W42656  32.428  25.100   4.751
81236W        W42657  41.479  18.575  11.981
81237W        W42658   0.848  39.462  14.848
81238W        W42659  40.494  35.087  13.888
81239W        W42660  38.840  27.079  14.490
81240W        W42661  22.020  23.617   4.275
81241W        W42662   4.299  36.994  10.626
81242W        W42663   2.246  43.380   1.298
81243W        W42664  13.177  13.695  14.926
81244W        W42665  25.209   2.720  14.403
81245W        W42666  12.201  16.227  12.077
81246W        W42667   9.806  27.546  11.084
81247W        W42668   8.870  11.343  13.476
81248W        W42669   4.934  26.686   2.191
81249W        W42670   8.861  20.073   1.434
81250W        W42671  16.149   2.849   1.694
81251W        W42672  27.674  40.855   3.848
81252W        W42673   3.941  21.084   1.391
81253W        W42674  40.914   9.826  11.375
81254W        W42675  39.927  25.678   4.116
81255W        W42676   1.351  33.917   0.244
81256W        W42677  16.312  36.948  11.610
81257W        W42678  22.668  43.912   4.244
81258W        W42679  22.218   4.855  12.409
81259W        W42680  10.360   1.788  11.983
81260W        W42681  21.068  10.821   4.204
81261W        W42682   0.396  19.550   4.633
81262W        W42683   6.347  36.027  12.347
81263W        W42684  32.611  26.137   0.339
81264W        W42685   5.423  19.779  13.401
81265W        W42686  23.644   3.383   0.899
81266W        W42687  37.869  35.050   3.283
81267W        W42688  23.564  10.750   1.353
81268W        W42689  35.526  24.698   1.301
81269W        W42690  34.548  13.622  12.444
81270W        W42691  41.480  22.055  13.438
81271W        W42692  10.874  14.693  12.931
81272W        W42693  16.728  13.628  10.483
81273W        W42694   7.899   7.318   3.805
81274W        W42695  23.129   9.734   4.715
81275W        W42696  43.851  23.227  11.565
81276W        W42697  27.464  26.058   0.394
81277W        W42698  31.965  32.911  10.888
81278W        W42699  15.780  18.704  11.078
81279W        W42700  38.970  10.769   2.355
81280W        W42701  15.309   1.287  13.795
81281W        W42702  19.678  43.009   2.210
81282W        W42703   2.951   2.363  11.453
81283W        W42704   4.433   5.215   4.168
81284W        W42705  37.521  38.072   1.772
81285W        W42706   2.911  30.156  12.541
81286W        W42707   6.809  33.128  11.475
81287W        W42708   6.367  31.984  13.981
81288W        W42709   8.727  17.649  14.286
81289W        W42710  24.170  11.656   2.334
81290W        W42711  24.015  38.835   3.320
81291W        W42712  17.282  30.932   1.796
81292W        W42713   3.280  31.091   0.784
81293W        W42714  24.053   6.871  14.967
81294W        W42715   9.746  11.229   2.805
81295W        W42716  18.770  17.142  12.022
81296W        W42717  32.561  24.716   3.218
81297W        W42718   0.267  42.853  12.946
81298W        W42719  34.898  41.440  10.449
81299W        W42720  17.793  12.767  11.046
81300W        W42721  38.571   4.872   0.438
81301W        W42722  33.957  17.118   4.700
81302W        W42723  41.397  27.007   0.779
81303W        W42724   4.914  21.154  14.425
81304W        W42725  11.821  31.528  13.841
81305W        W42726  32.919  31.465   4.730
81306W        W42727  28.165  17.194   0.811
81307W        W42728  39.970  39.350   2.663
81308W        W42729  28.500  29.027   0.914
81309W        W42730   8.713  40.835   3.330
81310W        W42731  13.829  36.516   2.261
81311W        W42732  11.733  13.809   0.310
81312W        W42733  20.763  11.181   2.730
81313W        W42734   8.808  37.899  10.135
81314W        W42735  32.536  26.585  13.354
81315W        W42736  29.633  43.458  11.894
81316W        W42737  24.188  11.651  13.509
81317W        W42738  36.071  37.482  11.470
81318W        W42739  29.031  42.486  12.948
81319W        W42740  37.906  37.022  12.866
81320W        W42741   6.330  40.031  13.501
81321W        W42742   0.810  36.519   0.804
81322W        W42743  16.169   6.412  14.942
81323W        W42744  38.071  23.185  10.420
81324W        W42745  43.447  17.692   3.707
81325W        W42746  18.681  17.080   2.811
81326W        W42747  10.792  13.302   3.674
81327W        W42748   7.823   7.900  12.012
81328W        W42749   5.365  26.655   0.904
81329W        W42750  29.107  37.464   4.653
81330W        W42751  26.953  12.288   3.375
81331W        W42752  13.772   6.888   4.714
81332W        W42753  17.193  35.990  11.914
81333W        W42754  43.505  31.460  11.585
81334W        W42755   4.863  42.365   2.343
81335W        W42756  29.084   3.861   4.630
81336W        W42757  32.031  19.279  11.583
81337W        W42758  27.040  23.547   3.208
81338W        W42759  40.463  32.067   0.834
81339W        W42760  44.475  17.562  12.977
81340W        W42761  30.028  25.713  13.356
81341W        W42762  36.966  17.689  12.846
81342W        W42763  15.255   3.884   2.259
81343W        W42764  17.202  12.696   4.276
81344W        W42765   2.365  33.508   0.857
81345W        W42766  12.799  36.478   0.943
81346W        W42767   9.736   0.927   0.870
81347W        W42768  18.731  41.882  10.520
81348W        W42769   5.887  23.197  11.918
81349W        W42770   6.292  40.961  10.598
81350W        W42771  12.225  24.078  11.868
81351W        W42772  21.517  10.318  11.047
81352W        W42773  34.449  10.382   3.273
81353W        W42774   9.290  19.628   3.658
81354W        W42775  35.099  43.767   3.364
81355W        W42776  40.033  37.080   1.215
81356W        W42777  15.301  23.158   2.348
81357W        W42778  17.241  26.528   2.828
81358W        W42779   9.773  38.436  10.440
81359W        W42780   8.305  13.144  12.357
81360W        W42781   9.367  19.713   1.433
81361W        W42782   9.281  43.371   2.419
81362W        W42783  20.224  14.293   1.350
81363W        W42784  44.361  26.104   3.217
81364W        W42785  11.754  20.032   3.299
81365W        W42786  42.350  30.997   4.192
81366W        W42787   3.764   3.448   3.167
81367W        W42788  16.202  19.686  12.542
81368W        W42789   1.445  31.097   2.209
81369W        W42790  41.402  34.948  12.008
81370W        W42791  23.001   5.313  14.963
81371W        W42792  42.504   7.736  14.894
81372W        W42793  34.956  30.430  13.318
81373W        W42794  37.965  32.055   3.262
81374W        W42795  27.592  23.678  11.957
81375W        W42796  31.024  11.640   2.694
81376W        W42797   7.893  31.943   0.319
81377W        W42798  17.557  13.334   0.776
81378W        W42799   3.356  12.227  11.083
81379W        W42800  26.982  28.983  12.356
81380W        W42801  18.276  18.184   0.429
81381W        W42802  32.895  40.473  12.541
81382W        W42803  39.475  18.715   1.832
81383W        W42804  27.587  11.372  10.539
81384W        W42805  26.972  44.463  10.947
81385W        W42806  35.361  40.304   3.252
81386W        W42807  14.628  20.116   4.629
81387W        W42808  30.955  22.745   3.231
81388W        W42809  36.932   4.871   0.372
81389W        W42810  21.584  25.007   3.866
81390W        W42811  13.125  36.350  14.867
81391W        W42812   5.897  40.033  14.783
81392W        W42813  39.850  37.349  12.902
81393W        W42814  12.343   5.851  14.000
81394W        W42815  36.363  19.691  12.031
81395W        W42816  13.335  44.344  10.510
81396W        W42817  26.559  17.084   5.232
81397W        W42818   9.793  26.158   2.253
81398W        W42819  24.975   4.418   2.278
81399W        W42820  34.466  34.863  11.458
81400W        W42821   7.257  28.090  13.823
81401W        W42822  27.035  22.650   1.361
81402W        W42823  39.387   2.858  13.364
81403W        W42824  42.808  18.087   1.257
81404W        W42825  34.480   5.439  13.914
81405W        W42826   7.831  44.379   2.881
81406W        W42827  40.047   9.196   1.716
81407W        W42828   2.872  15.733   9.972
81408W        W42829  17.105   9.723  10.444
81409W        W42830  23.724  38.541  12.039
81410W        W42831   6.689   5.798  12.945
81411W        W42832  36.916   1.422  10.638
81412W        W42833  31.516  24.023  12.011
81413W        W42834  31.136  16.612   0.841
81414W        W42835  39.888  26.701   3.721
81415W        W42836  17.634  11.334  11.969
81416W        W42837   3.277  26.183  12.938
81417W        W42838  17.131  32.606  12.037
81418W        W42839  44.278   7.754  12.469
81419W        W42840  21.022  30.611  12.471
81420W        W42841  38.898  20.239   2.367
81421W        W42842  15.119  31.948   4.636
81422W        W42843   3.256  12.347   2.831
81423W        W42844  34.531  41.976  14.833
81424W        W42845  26.592   3.350  13.930
81425W        W42846  38.967  38.528   0.834
81426W        W42847  31.530  38.995   0.479
81427W        W42848  15.294  36.510   4.800
81428W        W42849  23.237  38.496  12.041
81429W        W42850  24.013  35.968   1.702
81430W        W42851   0.476  27.461   1.242
81431W        W42852  35.029  27.082  11.413
81432W        W42853  34.013  33.554   3.670
81433W        W42854  24.981   7.372  12.834
81434W        W42855  34.395  43.900  13.820
81435W        W42856   2.779  43.910  11.903
81436W        W42857   7.785   0.258  13.855
81437W        W42858  42.405  39.992   1.828
81438W        W42859   2.938  31.476  12.884
81439W        W42860  44.277   7.251  10.410
81440W        W42861   9.838  32.406   2.226
81441W        W42862  16.208  19.185  13.971
81442W        W42863   2.721  23.646   2.419
81443W        W42864  43.499  13.347  11.556
81444W        W42865  16.089  38.348  14.343
81445W        W42866  11.845  12.187   0.313
81446W        W42867  32.405  28.938  14.759
81447W        W42868  16.199  36.014  11.396
81448W        W42869  26.199   0.952   4.777
81449W        W42870  14.186  41.512   3.344
81450W        W42871   1.920  42.830   4.612
81451W        W42872  27.059  21.732  11.115
81452W        W42873  20.623  36.985  13.857
81453W        W42874  24.614  34.079  10.897
81454W        W42875  33.557  42.453   3.847
81455W        W42876  42.976  19.265  14.835
81456W        W42877  41.809  30.548   3.777
81457W        W42878  21.140  31.038   5.153
81458W        W42879  18.632  23.615   2.180
81459W        W42880  13.123  38.469  10.955
81460W        W42881  16.569  17.723  12.577
81461W        W42882  15.615  13.607   4.678
81462W        W42883  11.186   9.788   2.726
81463W        W42884  35.414  24.540  14.338
81464W        W42885   1.869   6.204   0.845
81465W        W42886  18.577  31.141   3.690
81466W        W42887  15.624   2.913   3.856
81467W        W42888   1.948  36.579   2.869
81468W        W42889   3.719  20.719  12.907
81469W        W42890  41.938  40.522  14.862
81470W        W42891  20.180   7.704   1.440
81471W        W42892  26.205  37.914   1.406
81472W        W42893  33.107  24.503   0.371
81473W        W42894  13.738  33.076  12.946
81474W        W42895   0.901  25.703   2.766
81475W        W42896  20.153  11.217  12.522
81476W        W42897  15.617  35.577   4.205
81477W        W42898   4.731  32.434   9.475
81478W        W42899  26.104  20.166  11.460
81479W        W42900  23.690  34.971  10.430
81480W        W42901   7.254  17.740  11.446
81481W        W42902  34.962  20.066   2.813
81482W        W42903   0.896  25.510   1.740
81483W        W42904  30.945  30.022  10.462
81484W        W42905  36.357  39.853  14.391
81485W        W42906  25.475   0.773  10.059
81486W        W42907  43.445  31.456  14.313
81487W        W42908   0.387  41.508   0.418
81488W        W42909  38.451   5.769   3.274
81489W        W42910  13.231  18.746  11.944
81490W        W42911   3.948  39.422  14.849
81491W        W42912  43.879  26.005   1.773
81492W        W42913   1.935  33.897   1.441
81493W        W42914   3.877  41.805   4.798
81494W        W42915  33.625  20.180  12.896
81495W        W42916  32.521  36.871  14.486
81496W        W42917  26.525   7.739  12.046
81497W        W42918   2.436  13.138   0.911
81498W        W42919  23.219   5.689   2.676
81499W        W42920  32.109  43.273   1.762
81500W        W42921  13.697  13.218  14.509
81501W        W42922  38.878  40.446  10.569
81502W        W42923  30.003  34.492  14.284
81503W        W42924  30.420  42.923  13.441
81504W        W42925  12.804  36.543   4.735
81505W        W42926  42.473  39.015   2.275
81506W        W42927   5.844   4.406  11.594
81507W        W42928  42.513   2.871  11.587
81508W        W42929  34.959  22.587  13.817
81509W        W42930   3.409   6.296  12.487
81510W        W42931  34.486  20.177  10.949
81511W        W42932   0.794  18.234   4.747
81512W        W42933  12.333  16.143  13.438
81513W        W42934  14.642  20.079  13.845
81514W        W42935  41.303  31.068  13.316
81515W        W42936  18.075  20.183  12.555
81516W        W42937  35.919  36.435   1.902
81517W        W42938  38.423  10.225   4.255
81518W        W42939  35.505  28.088  11.488
81519W        W42940   4.223  42.331  13.321
81520W        W42941  33.444  20.154   1.433
81521W        W42942   1.475  44.463   2.776
81522W        W42943  25.052  28.966  13.948
81523W        W42944  16.629  38.401  14.448
81524W        W42945  28.034   2.438   3.632
81525W        W42946   5.254  38.018  11.882
81526W        W42947  34.593  22.726   0.424
81527W        W42948  13.653  24.606   2.401
81528W        W42949   4.918  14.160  10.937
81529W        W42950  17.607   3.830  11.069
81530W        W42951  43.345  18.277  11.066
81531W        W42952  42.970  22.168  10.435
81532W        W42953  31.529  23.198  14.880
81533W        W42954  38.920  24.118  14.306
81534W        W42955  26.033  13.634   2.745
81535W        W42956  11.690  21.648   3.226
81536W        W42957  27.169  11.345  11.556
81537W        W42958  21.650  31.073  12.980
81538W        W42959  21.181  42.314  10.619
81539W        W42960   4.384  31.129   1.911
81540W        W42961   6.270   0.274   1.920
81541W        W42962  37.909   5.728  10.633
81542W        W42963  24.691  20.155   3.299
81543W        W42964   5.855  39.385   0.304
81544W        W42965  41.369  37.536   1.238
81545W        W42966  23.043  36.989  14.490
81546W        W42967   4.846  32.091  12.972
81547W        W42968  37.450  18.715  11.544
81548W        W42969   5.217  42.289  12.341
81549W        W42970   1.356  43.454  10.521
81550W        W42971   5.217  42.789  12.960
81551W        W42972  35.361  24.671  13.534
81552W        W42973  34.395  31.623  14.909
81553W        W42974  11.298  40.525   2.860
81554W        W42975  13.281  15.694   0.825
81555W        W42976  34.426  21.235   1.820
81556W        W42977  36.021  38.342  13.055
81557W        W42978  11.630  34.509  13.415
81558W        W42979  29.078   8.672  11.083
81559W        W42980  23.658   4.765   1.280
81560W        W42981  13.178  39.335  12.038
81561W        W42982  20.082  16.722  12.937
81562W        W42983   3.870  11.785   4.779
81563W        W42984   4.930  17.258  14.500
81564W        W42985  36.859   3.877   0.767
81565W        W42986  25.004  22.738   0.254
81566W        W42987   8.685   8.287  13.849
81567W        W42988  14.154  42.002  14.863
81568W        W42989   8.387   3.723   3.338
81569W        W42990  38.017  37.077   3.334
81570W        W42991  39.023  40.486  13.308
81571W        W42992  18.226  22.590  11.999
81572W        W42993   7.759  39.384  13.439
81573W        W42994  40.898  24.225   3.656
81574W        W42995  36.535  22.673  14.771
81575W        W42996  20.105   9.256  12.465
81576W        W42997  36.941  42.802  11.024
81577W        W42998   9.825  12.156   2.207
81578W        W42999   7.293  38.533  12.872
81579W        W43000  11.251  41.786   2.326
81580W        W43001  41.976  19.534   4.747
81581W        W43002  37.981   0.944   1.363
81582W        W43003   7.262  25.045  14.514
81583W        W43004  15.249  28.040  13.515
81584W        W43005  26.463  17.094   4.832
81585W        W43006  15.651  33.467  11.451
81586W        W43007  30.599  21.739   2.856
81587W        W43008   0.900   9.385   4.801
81588W        W43009  22.021  21.076   3.332
81589W        W43010  23.535   5.830   0.956
81590W        W43011   5.196  42.031   4.768
81591W        W43012  35.858  13.821   0.258
81592W        W43013  40.477   0.816  14.422
81593W        W43014  26.583  27.572   0.777
81594W        W43015   7.180   0.447   1.694
81595W        W43016  39.360  21.236  10.917
81596W        W43017  18.623  30.549   4.666
81597W        W43018  25.082   8.663   3.285
81598W        W43019  35.954   1.411   0.362
81599W        W43020   6.713   2.353   1.214
81600W        W43021   8.186  32.026  10.541
81601W        W43022  18.122  32.602  14.021
81602W        W43023   4.745  31.947   4.790
81603W        W43024  20.619  19.133   2.687
81604W        W43025  32.109  27.676  10.934
81605W        W43026   8.848  14.224   0.270
81606W        W43027  13.809   2.731  10.498
81607W        W43028  33.511   8.357   0.848
81608W        W43029   7.356  13.606   4.231
81609W        W43030  10.733  32.406   0.793
81610W        W43031  44.954  21.631   2.829
81611W        W43032   0.776  27.563   3.867
81612W        W43033  16.153  33.611   3.630
81613W        W43034  38.007  37.457   5.101
81614W        W43035  25.657  27.052   3.852
81615W        W43036  33.430  11.697  12.069
81616W        W43037  42.978  33.430  12.028
81617W        W43038  11.664  29.095   4.725
81618W        W43039  44.428  28.643   2.317
81619W        W43040  38.465   1.801   3.723
81620W        W43041  38.565  20.046  13.817
81621W        W43042  23.009  28.607   3.339
81622W        W43043  14.815  41.302  10.463
81623W        W43044   4.862  24.507  11.019
81624W        W43045  34.604  42.887   4.118
81625W        W43046  17.111   7.191   3.306
81626W        W43047  25.033   0.395  14.834
81627W        W43048   4.237  39.560   3.725
81628W        W43049  16.251  17.091  14.305
81629W        W43050   5.698  35.561   2.801
81630W        W43051  41.410  31.499  14.357
81631W        W43052  27.669  43.850  13.842
81632W        W43053   5.199  38.360   5.591
81633W        W43054  34.975  44.458  11.980
81634W        W43055  25.702  37.039  13.314
81635W        W43056  34.507  40.971  13.465
81636W        W43057  11.825  17.261   0.453
81637W        W43058   7.794  10.734  12.519
81638W        W43059  22.742  23.653   1.333
81639W        W43060  41.884   9.782  11.877
81640W        W43061  26.588  34.894  14.505
81641W        W43062  26.637  30.061   4.710
81642W        W43063   3.815   0.953   0.359
81643W        W43064  25.714  31.433   0.396
81644W        W43065   9.802  27.179  11.413
81645W        W43066  31.941  11.743   1.793
81646W        W43067  44.954  28.942  12.489
81647W        W43068  13.138  16.250  13.337
81648W        W43069  32.535  16.079   2.302
81649W        W43070   3.715  15.593   0.921
81650W        W43071  43.806  25.508   2.416
81651W        W43072  23.015  26.666  13.022
81652W        W43073  42.802   5.701   3.286
81653W        W43074  41.475  29.428  13.503
81654W        W43075  43.448  39.024   0.339
81655W        W43076   9.656  24.653   0.361
81656W        W43077  22.570  42.378   2.339
81657W        W43078  25.508  38.861   1.830
81658W        W43079   6.373  36.422  13.508
81659W        W43080  12.209  18.611  10.430
81660W        W43081   1.871  10.309  10.145
81661W        W43082  27.459  17.657  11.574
81662W        W43083  26.101  13.244   4.628
81663W        W43084  16.159  16.243  13.543
81664W        W43085  36.475  44.913   3.352
81665W        W43086  25.111   3.900   0.464
81666W        W43087  36.541   1.766  14.019
81667W        W43088  10.874   0.952  14.327
81668W        W43089  33.615   7.412  12.555
81669W        W43090   8.284   9.353   1.793
81670W        W43091  41.029   1.765  14.816
81671W        W43092  34.614   8.227  12.519
81672W        W43093  14.278  13.324   3.815
81673W        W43094  12.298  35.564  10.511
81674W        W43095  44.800  24.201   0.347
81675W        W43096   2.274   6.259   1.237
81676W        W43097  43.459  28.467   0.957
81677W        W43098  22.013  37.956  14.834
81678W        W43099  31.124  10.878   0.935
81679W        W43100  15.621   3.883  11.414
81680W        W43101  39.411  13.227   1.854
81681W        W43102  10.653   6.311  10.569
81682W        W43103  19.585  17.647  14.420
81683W        W43104  27.617   8.281  12.878
81684W        W43105  33.400  10.636   1.369
81685W        W43106  22.520  40.345  13.003
81686W        W43107  20.049   8.185   9.967
81687W        W43108  15.159  11.370  10.502
81688W        W43109  29.042  27.496   2.195
81689W        W43110  43.865  25.135  13.510
81690W        W43111  39.455  11.240   9.965
81691W        W43112  19.158   0.784  12.904
81692W        W43113  39.354  22.609   1.876
81693W        W43114  24.603  35.056   1.228
81694W        W43115  29.472  14.304  10.532
81695W        W43116  17.203   6.315  12.552
81696W        W43117  21.074  41.443  10.584
81697W        W43118  38.960  44.381  10.628
81698W        W43119  21.738   6.835   3.163
81699W        W43120  16.735  22.604  14.293
81700W        W43121  15.119  26.579  12.477
81701W        W43122  44.799  22.628  14.509
81702W        W43123   9.179  33.594  12.462
81703W        W43124   2.402  18.767  13.020
81704W        W43125  22.168  13.192  13.328
81705W        W43126  18.711  26.206  10.905
81706W        W43127   6.271   8.681   0.835
81707W        W43128   7.405  11.157   3.770
81708W        W43129  26.044  21.734  12.510
81709W        W43130  39.002  44.810  14.346
81710W        W43131  39.356  29.014  12.510
81711W        W43132  19.041  27.502  11.442
81712W        W43133  12.179  19.241   4.179
81713W        W43134  33.933  40.443   2.235
81714W        W43135   9.348  36.011  10.077
81715W        W43136  35.010  32.066  13.505
81716W        W43137   0.365  21.752   4.691
81717W        W43138  15.600  44.503   4.221
81718W        W43139  37.861  25.160  11.466
81719W        W43140  23.538  42.780  11.976
81720W        W43141  11.714  19.084   0.301
81721W        W43142  42.915  38.030   1.866
81722W        W43143  13.250  32.047   4.240
81723W        W43144   7.766  26.095   1.396
81724W        W43145  20.198  32.910  11.407
81725W        W43146  14.767  29.142   1.893
81726W        W43147  10.799  26.619  11.021
81727W        W43148  30.062  25.612  10.523
81728W        W43149  19.250  16.788   0.831
81729W        W43150  41.916   9.346  13.396
81730W        W43151  39.469   3.454  13.038
81731W        W43152  29.628  11.859  10.628
81732W        W43153  25.592  30.934   2.322
81733W        W43154  12.849  30.152  12.096
81734W        W43155  14.305  42.492   4.624
81735W        W43156  11.832   5.387   3.345
81736W        W43157  25.492   1.733   4.240
81737W        W43158  27.118  16.156   4.264
81738W        W43159  12.337  44.308  10.557
81739W        W43160  23.668  39.018   2.749
81740W        W43161  41.357  34.102   2.250
81741W        W43162  12.763  37.366  10.583
81742W        W43163  38.945  34.941   0.747
81743W        W43164  26.040  41.966   4.693
81744W        W43165  32.094  14.795  14.436
81745W        W43166  44.000  36.482  12.511
81746W        W43167  43.789  39.380   0.421
81747W        W43168   2.421   3.375  13.011
81748W        W43169   5.302  21.615   3.287
81749W        W43170   9.160  35.866  14.811
81750W        W43171  41.970   8.318  12.936
81751W        W43172  39.024  17.609  12.850
81752W        W43173  25.536  16.768  12.374
81753W        W43174   1.866  28.586  12.907
81754W        W43175  24.219  43.986  13.033
81755W        W43176  28.139  44.267  14.434
81756W        W43177  23.061  30.925   3.229
81757W        W43178   2.466  16.132   0.832
81758W        W43179  27.673   6.296  11.994
81759W        W43180  29.655  22.724   3.297
81760W        W43181  44.970  12.817  11.473
81761W        W43182  40.417   9.324  14.363
81762W        W43183   2.841  22.694   1.348
81763W        W43184  10.666  39.413  14.368
81764W        W43185  28.490   5.918   3.663
81765W        W43186  14.302  21.106   1.226
81766W        W43187  18.142   3.808  11.078
81767W        W43188  41.493  18.675  13.533
81768W        W43189  38.369   0.937  13.376
81769W        W43190  30.029  29.484  11.601
81770W        W43191  37.029  10.796   1.802
81771W        W43192  17.642  16.135  13.037
81772W        W43193  24.549  31.640   0.354
81773W        W43194  10.785  12.253  11.484
81774W        W43195  13.286  14.747  11.555
81775W        W43196  29.630  22.625  12.871
81776W        W43197  13.699  14.631  13.912
81777W        W43198   9.826  27.653  13.320
81778W        W43199  18.215  23.626   2.392
81779W        W43200  20.611  19.713   1.379
81780W        W43201  41.869   0.769   3.677
81781W        W43202   8.371  29.144  12.095
81782W        W43203   5.790  13.822  11.103
81783W        W43204  31.135  11.747   4.307
81784W        W43205  38.563   6.757  12.405
81785W        W43206  37.513  10.686  11.103
81786W        W43207  20.157   9.243  11.982
81787W        W43208  41.798   1.802  11.405
81788W        W43209  33.002  44.426  12.068
81789W        W43210  10.740   9.277   2.293
81790W        W43211   7.354  31.907   1.759
81791W        W43212  26.169  22.679  11.480
81792W        W43213  32.620  20.207   1.744
81793W        W43214  33.613  24.142   2.375
81794W        W43215  34.474  23.543   3.319
81795W        W43216  18.664  18.222  14.359
81796W        W43217  19.172  36.431  13.422
81797W        W43218  34.005  21.554   4.123
81798W        W43219   4.358  42.905   4.761
81799W        W43220   8.723  21.217   0.847
81800W        W43221  35.559  16.811  12.401
81801W        W43222  30.048   4.924   3.846
81802W        W43223  37.913  16.087  12.857
81803W        W43224  14.722  27.648  11.860
81804W        W43225  37.057  38.895   1.301
81805W        W43226   4.231  12.248  14.317
81806W        W43227   2.381  15.143   4.725
81807W        W43228  11.625  26.508   5.237
81808W        W43229  20.686  33.426  11.563
81809W        W43230   3.943  29.608  10.942
81810W        W43231  31.480  27.492  14.950
81811W        W43232  20.234  23.572  12.926
81812W        W43233   1.836  18.596   2.230
81813W        W43234   6.721  33.056   2.757
81814W        W43235   0.381  37.364  14.296
81815W        W43236  37.347  13.685   5.269
81816W        W43237  28.563   9.661  14.904
81817W        W43238  18.647  26.684   9.929
81818W        W43239  18.272  13.630   3.733
81819W        W43240  19.670  40.472   3.343
81820W        W43241  42.906  32.426   2.730
81821W        W43242  12.727  24.987  12.407
81822W        W43243  34.967  31.591   1.916
81823W        W43244  12.171  29.635  14.826
81824W        W43245  36.864  11.636   3.760
81825W        W43246  39.978   8.346  11.412
81826W        W43247  14.259  41.503  11.391
81827W        W43248  13.330  42.406  14.317
81828W        W43249  27.623  20.612  14.891
81829W        W43250  40.319  40.922   0.413
81830W        W43251  28.444  12.783   3.377
81831W        W43252  30.471  42.857  11.492
81832W        W43253  37.843  12.612  10.541
81833W        W43254   4.831  44.941  11.057
81834W        W43255  10.640  12.695  13.319
81835W        W43256  15.645  16.236  12.574
81836W        W43257  35.447   4.271   0.929
81837W        W43258  42.854  15.140   0.811
81838W        W43259  38.925   9.888   1.819
81839W        W43260  27.616   8.811   3.173
81840W        W43261  34.931   6.411  10.448
81841W        W43262  29.431  17.764  11.495
81842W        W43263  20.643  44.419  10.449
81843W        W43264   6.417  26.488  14.425
81844W        W43265  38.962  31.579   0.919
81845W        W43266   1.870  17.675  11.057
81846W        W43267  19.626  36.862   3.278
81847W        W43268   3.286  11.203  14.347
81848W        W43269  13.138  11.811   9.989
81849W        W43270  21.230   4.842  12.579
81850W        W43271  33.490   6.777  11.391
81851W        W43272  16.152  31.548  14.879
81852W        W43273  40.964  33.625  13.051
81853W        W43274   2.860  40.330   2.722
81854W        W43275  25.546  39.368   4.193
81855W        W43276  43.952  16.295  12.994
81856W        W43277  36.349  19.257   3.781
81857W        W43278  33.085   1.380   4.284
81858W        W43279   8.766  14.217   1.350
81859W        W43280  22.617   7.771  14.816
81860W        W43281  39.889  37.581   4.753
81861W        W43282  27.476  40.978   1.761
81862W        W43283  20.192   3.309  13.940
81863W        W43284  29.154  38.515  12.450
81864W        W43285   3.446  18.763   2.397
81865W        W43286  23.100  15.593  12.870
81866W        W43287  23.524   4.441  10.631
81867W        W43288  26.987   9.331  12.902
81868W        W43289  26.035   4.331   0.313
81869W        W43290  30.605  32.132  14.982
81870W        W43291  12.681  10.189  14.419
81871W        W43292   4.233   8.182   4.653
81872W        W43293  14.198   7.845  10.439
81873W        W43294  40.857  42.804  14.337
81874W        W43295   0.262  25.621  11.400
81875W        W43296  29.442  35.551  11.463
81876W        W43297  17.301  16.669  11.060
81877W        W43298   7.342   7.190  10.416
81878W        W43299  43.992  16.759   1.211
81879W        W43300  10.378  39.049  12.983
81880W        W43301   0.387   6.805  10.614
81881W        W43302   0.971  40.495   1.862
81882W        W43303  14.706   8.829   4.693
81883W        W43304  38.876  14.319   3.258
81884W        W43305  26.033  24.131   2.202
81885W        W43306   7.344  29.087   2.670
81886W        W43307  15.800   6.766   0.921
81887W        W43308  23.566  35.583   0.255
81888W        W43309  15.754   9.368  12.897
81889W        W43310  27.623  17.604  12.460
81890W        W43311  30.126  18.760  11.007
81891W        W43312   7.818   9.311  13.495
81892W        W43313  15.727  26.119   5.214
81893W        W43314   4.893  44.990  14.004
81894W        W43315   0.972   4.705  10.432
81895W        W43316  24.219   2.960  12.393
81896W        W43317  10.213   2.846  11.415
81897W        W43318  10.277  16.141   1.909
81898W        W43319  21.231  25.029   0.805
81899W        W43320  31.134   2.259   4.194
81900W        W43321   0.747  10.642  13.333
81901W        W43322  18.700  31.045  11.497
81902W        W43323  44.374  39.342   0.968
81903W        W43324  21.518  31.977  14.025
81904W        W43325  23.053  14.681  13.038
81905W        W43326  19.098   1.808   3.231
81906W        W43327   0.749  23.654  10.008
81907W        W43328  37.378   0.822  12.870
81908W        W43329   3.879  42.973   0.741
81909W        W43330  34.412   6.418  12.518
81910W        W43331  17.195   8.825  10.026
81911W        W43332  39.430  30.056  13.377
81912W        W43333  14.223  35.477   3.298
81913W        W43334  14.676  24.523   4.230
81914W        W43335  41.880   6.370  14.027
81915W        W43336  39.982  33.456  11.442
81916W        W43337  13.232  35.924   0.387
81917W        W43338  38.837  44.898   3.699
81918W        W43339  26.085  40.907  13.802
81919W        W43340   7.351  20.525  14.912
81920W        W43341  41.532  38.016   0.734
81921W        W43342  38.922  44.928  14.792
81922W        W43343   7.827  23.674   9.930
81923W        W43344  26.154   2.251  10.893
81924W        W43345  38.442  28.066   1.915
81925W        W43346  42.917  11.303   1.429
81926W        W43347  21.103  44.914  14.375
81927W        W43348  30.139  10.282  12.528
81928W        W43349  10.172   8.888   2.379
81929W        W43350   5.731   6.354  12.077
81930W        W43351  43.348   1.749  11.459
81931W        W43352  16.211  25.130   2.238
81932W        W43353   7.775  44.988  11.385
81933W        W43354  12.658  43.278   1.805
81934W        W43355   7.712   1.877   1.278
81935W        W43356  24.513   9.855   2.851
81936W        W43357  16.281  36.540   1.764
81937W        W43358  38.930  44.836  12.372
81938W        W43359  20.523  34.949  14.779
81939W        W43360  26.035  43.904  11.075
81940W        W43361   3.889  32.906  12.068
81941W        W43362   7.328  20.251  14.490
81942W        W43363  18.679  27.183  11.044
81943W        W43364  32.625  30.474   1.763
81944W        W43365  13.227  21.647  14.855
81945W        W43366  42.025  12.259   4.317
81946W        W43367   4.830  23.237   4.140
81947W        W43368   0.292  12.754   1.363
81948W        W43369  20.144  35.856  14.403
81949W        W43370  39.874   9.264  10.422
81950W        W43371   0.772  25.989  11.078
81951W        W43372  37.007  17.747  13.441
81952W        W43373   5.765  25.588   1.268
81953W        W43374  14.183   4.728   4.704
81954W        W43375  28.161  25.044   2.667
81955W        W43376  26.108   0.890  13.849
81956W        W43377  44.337  17.240   1.703
81957W        W43378  35.927  37.915  11.441
81958W        W43379  38.887  38.927   1.766
81959W        W43380   2.297  13.186  11.573
81960W        W43381  44.976   0.364  10.963
81961W        W43382   4.222  44.832   0.874
81962W        W43383  25.172  40.853  12.071
81963W        W43384   9.815  11.364  10.909
81964W        W43385  20.198   8.322   0.770
81965W        W43386  17.096   7.860  14.008
81966W        W43387  39.346  24.104   4.771
81967W        W43388   7.389  10.211   1.282
81968W        W43389  27.668  16.150  10.503
81969W        W43390  26.473  31.120  13.920
81970W        W43391   1.837  14.665  12.918
81971W        W43392   5.856  40.382  10.959
81972W        W43393  11.720   1.956   4.756
81973W        W43394  22.135  38.861   1.292
81974W        W43395  44.007   2.340  11.490
81975W        W43396  27.047  12.809   1.697
81976W        W43397  32.029  20.683   4.282
81977W        W43398  18.572  35.542   4.328
81978W        W43399  38.989   3.825  14.872
81979W        W43400  28.060   9.189  13.458
81980W        W43401  15.692   1.882  11.078
81981W        W43402  37.493   7.753  14.898
81982W        W43403  13.118  41.522   5.301
81983W        W43404  38.070  33.560  12.379
81984W        W43405   9.788   9.168  13.056
81985W        W43406  44.428  32.454   4.799
81986W        W43407  16.743  38.840   0.327
81987W        W43408   8.827   8.369  12.530
81988W        W43409  34.012   5.378   3.641
81989W        W43410  19.738  23.721   1.841
81990W        W43411  10.157  29.978   2.778
81991W        W43412   9.784   9.842   3.699
81992W        W43413  27.516  27.590   0.921
81993W        W43414  33.915  31.421   1.798
81994W        W43415  41.333  35.080  10.470
81995W        W43416   3.320  28.524   1.811
81996W        W43417  23.238   8.340  14.871
81997W        W43418  38.334  27.504  14.903
81998W        W43419  21.579  10.742  10.959
81999W        W43420  29.128  11.322   2.742
82000W        W43421  23.523  23.583  10.519
82001W        W43422  14.115  16.226  10.590
82002W        W43423  19.209  21.139   3.798
82003W        W43424  31.455  40.362   0.297
82004W        W43425  18.709   7.675  12.024
82005W        W43426  31.041   9.354   3.718
82006W        W43427  29.986  21.574  13.827
82007W        W43428   7.868  12.837  13.330
82008W        W43429  43.871  42.006  12.516
82009W        W43430  25.014   7.680   2.194
82010W        W43431   6.331  39.320   3.842
82011W        W43432   3.242  21.203   2.884
82012W        W43433  43.425  35.577  11.051
82013W        W43434   3.384  33.457   2.247
82014W        W43435  21.715   4.914   5.804
82015W        W43436  29.000  29.153  11.486
82016W        W43437  35.551  14.328   1.732
82017W        W43438  34.997  34.469   3.863
82018W        W43439  20.217  18.091  11.918
82019W        W43440  23.685  39.993  14.451
82020W        W43441  20.248  11.356   0.766
82021W        W43442  40.940  32.927  11.603
82022W        W43443  35.558  44.819   2.220
82023W        W43444  36.857  18.719  14.979
82024W        W43445  33.944  43.316  14.403
82025W        W43446  17.303  10.761   2.191
82026W        W43447  19.285   3.766   4.347
82027W        W43448  44.463  11.344   1.290
82028W        W43449  19.627  36.092   3.832
82029W        W43450  36.365  17.584   0.848
82030W        W43451  44.502  30.539   4.619
82031W        W43452  44.009  15.083   1.450
82032W        W43453  23.515  19.591  13.964
82033W        W43454  25.219  42.354   0.421
82034W        W43455  19.117  34.079   0.293
82035W        W43456  26.625   8.388   4.200
82036W        W43457  26.501  15.693  11.902
82037W        W43458  36.051  12.123  10.502
82038W        W43459  19.742  32.485  11.389
82039W        W43460  25.066  25.646  12.911
82040W        W43461  19.248  11.236  13.312
82041W        W43462   3.740  43.461  12.029
82042W        W43463   9.160  20.736  14.326
82043W        W43464  10.321  20.668  14.900
82044W        W43465   5.278  32.008  13.431
82045W        W43466  22.079   7.671  12.548
82046W        W43467  44.893   8.877  11.046
82047W        W43468  32.415  29.652   0.926
82048W        W43469  16.212   6.398   4.274
82049W        W43470   3.360  44.353  13.958
82050W        W43471   0.267  22.120  13.908
82051W        W43472  19.723  12.274   3.177
82052W        W43473   5.903  11.864  10.602
82053W        W43474  43.280  43.931  13.366
82054W        W43475  21.106   4.778  11.903
82055W        W43476  31.110  39.433  13.431
82056W        W43477  35.391  12.279  11.972
82057W        W43478   2.810  34.901  11.985
82058W        W43479  13.228  12.825  10.139
82059W        W43480  15.617  28.658   2.774
82060W        W43481  21.584  33.972   1.286
82061W        W43482  41.435  19.632   4.602
82062W        W43483  44.502  10.365   4.249
82063W        W43484  37.567  23.181   2.196
82064W        W43485  44.505  27.051  12.527
82065W        W43486  36.566   8.862  11.413
82066W        W43487  11.220   1.866   2.765
82067W        W43488  29.043  42.907  12.352
82068W        W43489  18.131   0.921  11.880
82069W        W43490  44.307  41.325  12.935
82070W        W43491  23.704   8.361   5.149
82071W        W43492  21.074   1.962  10.070
82072W        W43493   4.222  26.686   2.747
82073W        W43494   8.290  10.170   2.316
82074W        W43495  39.888  42.327  11.025
82075W        W43496  38.978  20.620  14.416
82076W        W43497  41.311  11.737   3.361
82077W        W43498   2.838  20.691  12.378
82078W        W43499   0.251  25.002  14.010
82079W        W43500  10.771   0.310  11.413
82080W        W43501  41.460  21.742   1.428
82081W        W43502  42.429  26.597   1.803
82082W        W43503   6.326  12.351  11.953
82083W        W43504  36.420  14.685  10.411
82084W        W43505  38.881  33.500  14.351
82085W        W43506  11.304  29.046  12.944
82086W        W43507  40.909  21.731   3.714
82087W        W43508  30.082  41.405   0.802
82088W        W43509   4.281  31.565  13.946
82089W        W43510  14.184  40.415   4.782
82090W        W43511  17.153  17.737   0.966
82091W        W43512  34.614  43.852   4.118
82092W        W43513  35.376  32.043   2.388
82093W        W43514  13.308  26.681  10.007
82094W        W43515   6.276  11.833   4.635
82095W        W43516  28.946  22.712   2.868
82096W        W43517  21.045  32.418  11.374
82097W        W43518  23.193  26.607   1.407
82098W        W43519  27.611  15.314  12.387
82099W        W43520   2.450  28.570  14.995
82100W        W43521  41.414  17.604  12.942
82101W        W43522  31.556   5.814   3.631
82102W        W43523  17.300   9.656  14.820
82103W        W43524   1.885  12.842   0.306
82104W        W43525  25.667  35.088   1.423
82105W        W43526  37.556  12.700   3.833
82106W        W43527  12.317   5.212  10.423
82107W        W43528   2.788  33.886  11.555
82108W        W43529  25.167   8.730  14.476
82109W        W43530  38.500  18.641  10.638
82110W        W43531  38.961  15.316  11.007
82111W        W43532  41.381  40.474   3.732
82112W        W43533  37.347  32.459   2.386
82113W        W43534  34.886  12.836  12.443
82114W        W43535   0.795  38.406  13.391
82115W        W43536  24.559  11.160   2.310
82116W        W43537  11.689  44.884   2.364
82117W        W43538   4.220  22.094   1.747
82118W        W43539  29.660   7.862  13.532
82119W        W43540   5.820  19.174   2.672
82120W        W43541  30.070  10.699  14.492
82121W        W43542   0.443  37.047  12.093
82122W        W43543  13.203  28.033  14.315
82123W        W43544  40.466  38.545  12.094
82124W        W43545  20.717   3.724   1.931
82125W        W43546   7.901  10.875  14.435
82126W        W43547  36.925  34.520  10.907
82127W        W43548  26.612  34.090   0.449
82128W        W43549  41.987  13.686  13.338
82129W        W43550   9.667  36.026   0.483
82130W        W43551   6.286  31.055   1.731
82131W        W43552  10.853   0.825   1.262
82132W        W43553  44.761   1.464   4.724
82133W        W43554   4.871   7.197   4.711
82134W        W43555  36.872  23.066  13.470
82135W        W43556  32.618   3.438   3.378
82136W        W43557  42.961  40.052  11.096
82137W        W43558  19.718   8.382   2.183
82138W        W43559  22.098  26.612  13.830
82139W        W43560   3.904  22.691  11.426
82140W        W43561  27.582  14.630  11.071
82141W        W43562   6.709  40.926  12.444
82142W        W43563  30.559  17.168  14.915
82143W        W43564  25.982  43.797   1.376
82144W        W43565   5.833  31.404  11.582
82145W        W43566  22.010  10.783  12.008
82146W        W43567  38.013  23.004   3.654
82147W        W43568  14.642  32.904  10.996
82148W        W43569  23.661  32.019  13.876
82149W        W43570  30.555  26.155  13.515
82150W        W43571  40.845  39.518  13.435
82151W        W43572   2.287  41.997  14.328
82152W        W43573  31.601  22.698   3.224
82153W        W43574  22.137  15.305   9.558
82154W        W43575  34.946  15.606  12.442
82155W        W43576  44.955   9.277  11.512
82156W        W43577  30.012  16.794  13.003
82157W        W43578  30.501  41.309   2.203
82158W        W43579  25.971  25.484   2.394
82159W        W43580  23.203  18.288  12.554
82160W        W43581  39.332  44.436   2.397
82161W        W43582  26.655  19.074   4.222
82162W        W43583  16.099  31.446  13.460
82163W        W43584  36.897  19.580   0.926
82164W        W43585   6.682  29.161   1.343
82165W        W43586  33.415  16.754   0.919
82166W        W43587  23.678  43.345   3.794
82167W        W43588  29.535  13.698  11.420
82168W        W43589  22.709  36.419  12.857
82169W        W43590  41.944   2.232   4.824
82170W        W43591  37.997  29.455  14.944
82171W        W43592  28.483  23.541   4.796
82172W        W43593   2.950  27.682   2.877
82173W        W43594  33.028  24.172   3.275
82174W        W43595  30.637  10.657  12.909
82175W        W43596  35.974  17.271   0.770
82176W        W43597   2.251   8.897  10.481
82177W        W43598  15.164  43.490   3.811
82178W        W43599   6.874  24.572   3.783
82179W        W43600  32.424  40.049   0.464
82180W        W43601  28.484  31.466   0.293
82181W        W43602  24.538   9.883  12.897
82182W        W43603  43.919  33.124  13.431
82183W        W43604  39.893   9.155  12.446
82184W        W43605  14.812   9.865   1.823
82185W        W43606  12.208  39.003   4.327
82186W        W43607   3.371   4.707   0.841
82187W        W43608  22.093  24.976   4.788
82188W        W43609  20.205  25.015  12.560
82189W        W43610  10.140  42.464   2.415
82190W        W43611  40.942  21.603  13.841
82191W        W43612  11.359   1.816   0.345
82192W        W43613   0.355  11.735  13.404
82193W        W43614  31.998  30.151  12.830
82194W        W43615  40.873  23.090  13.927
82195W        W43616  26.648  26.505  12.540
82196W        W43617  39.364   5.743   0.383
82197W        W43618  32.593  16.614   0.910
82198W        W43619   0.906  30.531  12.922
82199W        W43620   1.880  32.900  10.037
82200W        W43621  31.543  12.169  12.437
82201W        W43622   8.799  28.098  13.504
82202W        W43623  36.922   3.911  12.075
82203W        W43624   8.224  34.496  10.450
82204W        W43625  23.735  42.343  11.883
82205W        W43626  24.146  36.048   4.341
82206W        W43627  44.439  17.696   0.924
82207W        W43628  38.326  17.106   5.296
82208W        W43629  43.968  44.971   0.898
82209W        W43630  28.045   8.357   0.260
82210W        W43631  37.906  40.019  12.960
82211W        W43632  29.133  10.346  14.395
82212W        W43633   9.777   0.363   4.215
82213W        W43634  15.737   7.885  14.008
82214W        W43635  42.386  21.163  10.043
82215W        W43636  25.708  16.688  12.021
82216W        W43637  31.008  41.485   1.735
82217W        W43638  29.555  26.130  14.901
82218W        W43639  39.024  38.829   3.704
82219W        W43640  36.593  33.424  10.916
82220W        W43641   5.724  21.239  11.603
82221W        W43642  10.765  21.257   3.689
82222W        W43643   1.940  38.540  10.557
82223W        W43644  33.104   2.938   1.265
82224W        W43645   3.811  29.498  13.997
82225W        W43646   1.243  34.421  10.624
82226W        W43647  26.479  12.708   4.671
82227W        W43648  37.546  22.520  12.398
82228W        W43649   3.711  37.074   1.391
82229W        W43650  18.778  28.455   3.647
82230W        W43651  18.557  32.901  13.013
82231W        W43652  36.047  15.665   2.365
82232W        W43653   4.705  34.436  13.827
82233W        W43654  20.274   6.738  13.405
82234W        W43655  42.009  13.339   4.339
82235W        W43656  18.159   5.213  13.916
82236W        W43657  16.172  20.645  14.891
82237W        W43658  27.012  16.625   3.201
82238W        W43659  22.158  41.473   4.226
82239W        W43660  29.609  30.504   5.262
82240W        W43661   9.853  30.429   3.848
82241W        W43662  11.260   6.754  14.361
82242W        W43663  21.114  25.112   3.285
82243W        W43664  39.048  14.715   5.255
82244W        W43665   9.223  38.391  12.994
82245W        W43666  43.303  33.561   2.682
82246W        W43667  26.610  28.653  12.379
82247W        W43668   7.810   8.206  12.548
82248W        W43669  36.465   0.401   4.712
82249W        W43670  34.924  42.414  14.456
82250W        W43671   3.217  33.885  13.921
82251W        W43672  36.017   4.210  13.812
82252W        W43673  37.517   2.953   1.766
82253W        W43674  16.192  37.506   0.400
82254W        W43675  39.992  18.245   1.448
82255W        W43676  12.151  22.035   1.375
82256W        W43677  33.968  27.051  10.582
82257W        W43678  40.542  37.901   1.710
82258W        W43679  34.899  18.213  14.320
82259W        W43680   9.699   9.218  11.067
82260W        W43681  34.002  28.680  13.016
82261W        W43682  10.646  13.238   3.370
82262W        W43683  34.938  28.540  10.432
82263W        W43684  32.517  35.062  13.011
82264W        W43685   7.328  14.663  14.348
82265W        W43686  12.185  11.266   0.779
82266W        W43687  28.644   2.259   1.317
82267W        W43688  15.672  33.523   0.339
82268W        W43689  11.724  33.503   0.263
82269W        W43690  38.343  20.201  12.039
82270W        W43691  29.010  36.052  11.462
82271W        W43692  37.852   2.327   5.606
82272W        W43693   0.430  11.699  14.028
82273W        W43694   4.808  43.302  12.492
82274W        W43695  38.876   3.710  13.528
82275W        W43696   4.311  37.445   1.851
82276W        W43697  35.088  25.542   1.835
82277W        W43698  43.430  41.865  14.383
82278W        W43699   3.271  39.481  13.494
82279W        W43700  12.634  18.607   3.804
82280W        W43701   6.336   3.936  13.544
82281W        W43702  12.843  21.028   1.423
82282W        W43703  41.914  34.016  12.942
82283W        W43704  35.990  38.066  10.452
82284W        W43705   2.388  23.717  12.028
82285W        W43706  12.152  24.521  13.948
82286W        W43707  25.210  40.427   2.207
82287W        W43708  40.973   4.410   4.268
82288W        W43709  40.371  43.851  12.413
82289W        W43710  42.429  36.568  12.486
82290W        W43711  19.588  17.123   2.787
82291W        W43712  36.518   0.767   0.334
82292W        W43713  10.213   1.261   4.331
82293W        W43714  19.195   4.856  10.572
82294W        W43715  17.629   8.353  12.861
82295W        W43716   0.334  29.122   4.132
82296W        W43717  27.567  29.504   0.407
82297W        W43718  13.270  10.356  10.971
82298W        W43719  31.016   0.266  12.536
82299W        W43720   1.283  36.436  14.837
82300W        W43721  10.673  27.641  14.938
82301W        W43722   8.791  30.585  13.045
82302W        W43723  10.163  35.069  14.386
82303W        W43724  11.250  41.299   4.714
82304W        W43725  18.584  11.838  12.006
82305W        W43726  41.989  41.988   2.373
82306W        W43727  16.636  19.585   4.616
82307W        W43728  11.694  39.355   4.648
82308W        W43729  26.022  31.478  10.608
82309W        W43730  10.721  17.798   3.382
82310W        W43731  25.570  38.342   4.795
82311W        W43732   0.815  42.871   4.802
82312W        W43733  23.692   7.339   0.936
82313W        W43734  44.938   4.323   2.416
82314W        W43735   2.838  27.688  12.898
82315W        W43736  35.511  31.973  11.460
82316W        W43737  33.052  16.272  11.467
82317W        W43738  19.574  41.921   2.231
82318W        W43739   3.386  36.886  13.826
82319W        W43740   0.417  34.610  11.549
82320W        W43741  14.628  20.242  14.946
82321W        W43742  44.959  44.934  10.618
82322W        W43743  32.108   4.936   5.218
82323W        W43744  23.158   2.864  12.479
82324W        W43745  27.125  43.947   1.924
82325W        W43746  39.925   8.750   3.703
82326W        W43747  41.338  12.837   2.693
82327W        W43748  33.616  27.499   3.196
82328W        W43749   5.806   4.832  11.893
82329W        W43750   7.824  34.451  13.512
82330W        W43751  20.220  34.038  11.401
82331W        W43752  11.753  10.256  12.087
82332W        W43753  33.047  38.350  11.491
82333W        W43754  29.073  21.678  12.384
82334W        W43755   7.353  18.664  14.838
82335W        W43756  26.163   9.833   0.927
82336W        W43757  24.224   1.817   1.232
82337W        W43758  24.575  28.505   4.806
82338W        W43759  14.598  44.362   1.838
82339W        W43760  25.962   4.293  11.026
82340W        W43761  23.043  21.163  12.575
82341W        W43762   9.330   4.741   3.724
82342W        W43763  39.332   4.902  13.398
82343W        W43764   4.898  36.998  10.954
82344W        W43765  27.011   6.338  12.937
82345W        W43766  39.894  17.144  13.822
82346W        W43767  44.271  19.644  10.934
82347W        W43768  22.503   3.218  13.818
82348W        W43769  20.259  40.916   1.246
82349W        W43770   9.238  35.603  13.901
82350W        W43771   3.866   3.229   0.742
82351W        W43772  12.698  18.722   0.890
82352W        W43773  25.635  19.765  12.846
82353W        W43774  20.084  19.560   3.232
82354W        W43775  16.187  39.849  14.884
82355W        W43776  14.290   2.297   1.828
82356W        W43777  10.794  14.147  10.510
82357W        W43778   7.830   5.267  11.094
82358W        W43779   6.736   5.430   0.782
82359W        W43780  19.663  24.151  14.397
82360W        W43781  39.446  34.388   3.204
82361W        W43782   9.373   5.355  14.514
82362W        W43783  15.734  43.491  11.457
82363W        W43784  13.738  29.018  14.339
82364W        W43785  35.952  31.995  10.151
82365W        W43786   2.228  24.603  14.293
82366W        W43787   5.794  25.595   2.887
82367W        W43788  14.095  34.473  14.999
82368W        W43789  19.192  40.315   4.130
82369W        W43790  44.814  21.259   3.382
82370W        W43791   6.383  22.007   3.323
82371W        W43792  25.025   7.266   0.243
82372W        W43793   3.316  15.233  14.880
82373W        W43794   6.414  36.953  11.394
82374W        W43795   9.365  21.074  10.942
82375W        W43796  13.317   9.219   1.310
82376W        W43797  25.511  26.149   0.948
82377W        W43798  38.067   1.960   1.306
82378W        W43799  26.185  11.268  12.544
82379W        W43800  18.640  28.972  10.549
82380W        W43801  19.591  25.487  14.924
82381W        W43802  21.155  15.198   1.719
82382W        W43803   7.676  17.298  14.484
82383W        W43804   5.748  41.947  12.898
82384W        W43805  12.846  20.642  10.943
82385W        W43806  19.200   4.338  13.540
82386W        W43807  12.708   1.732  10.639
82387W        W43808  39.996  30.585  11.460
82388W        W43809  36.087  28.466   3.207
82389W        W43810  27.575  15.237   0.769
82390W        W43811  33.390   1.256   2.822
82391W        W43812  21.666  28.590  11.932
82392W        W43813  17.743  25.029  12.418
82393W        W43814   4.325  19.544  14.823
82394W        W43815  21.589   3.429  13.918
82395W        W43816  26.578  28.066   3.349
82396W        W43817   7.691   4.207   2.267
82397W        W43818   6.206  18.075   2.203
82398W        W43819  43.840  43.796  14.871
82399W        W43820  29.467  33.519   2.404
82400W        W43821  35.601  40.020   2.772
82401W        W43822  41.970  10.866   2.236
82402W        W43823  23.638  11.820   1.369
82403W        W43824  44.961  18.176  11.983
82404W        W43825  40.977   0.409  11.509
82405W        W43826  22.179   0.377   0.838
82406W        W43827  39.041   1.891   5.298
82407W        W43828  37.440  12.665   0.381
82408W        W43829  24.121  23.131  12.457
82409W        W43830  41.031  20.153  14.858
82410W        W43831  35.552  16.766   0.789
82411W        W43832  42.784  36.074  14.445
82412W        W43833  24.108  11.764   0.375
82413W        W43834  25.548  39.896   3.850
82414W        W43835  32.061  17.139   1.392
82415W        W43836  13.172  39.003  12.825
82416W        W43837  17.102   0.832   4.614
82417W        W43838  44.489  24.622  14.806
82418W        W43839   5.289  29.056  14.283
82419W        W43840  20.098   9.693   3.327
82420W        W43841  27.681  23.096   0.447
82421W        W43842  30.164  17.719   2.415
82422W        W43843   2.961  21.719  11.035
82423W        W43844  15.129  31.551   0.965
82424W        W43845  27.526  11.727   3.372
82425W        W43846  41.923  39.419   1.848
82426W        W43847  37.917   9.845   2.199
82427W        W43848  20.077  23.647   3.336
82428W        W43849  24.002  40.904   0.947
82429W        W43850  37.352  21.044   1.298
82430W        W43851  43.960  43.769   1.896
82431W        W43852  42.392  17.134   2.791
82432W        W43853  27.993   9.678   1.303
82433W        W43854  24.697   7.301  11.576
82434W        W43855  10.878  42.412   3.656
82435W        W43856  41.987  26.554  10.537
82436W        W43857  40.400  30.966   1.291
82437W        W43858  21.576  17.062   3.785
82438W        W43859  34.472   9.677   1.835
82439W        W43860  29.520  19.746   2.208
82440W        W43861  40.984  43.976  14.853
82441W        W43862  29.143  26.970  11.880
82442W        W43863  44.863  33.449   1.933
82443W        W43864  36.058  16.625   2.210
82444W        W43865   1.777  26.470  11.490
82445W        W43866  33.423   4.404   4.302
82446W        W43867   3.733   3.772  10.925
82447W        W43868  12.268  32.070  13.986
82448W        W43869  31.424  23.495  14.374
82449W        W43870  20.731  12.737   0.885
82450W        W43871   7.260  43.001   0.359
82451W        W43872  27.048  23.498  13.013
82452W        W43873   4.408  33.500   4.293
82453W        W43874  12.319  16.101  12.881
82454W        W43875  15.680  31.982   1.806
82455W        W43876  21.721   9.377  10.904
82456W        W43877   5.372   1.868  12.992
82457W        W43878   9.159  35.497   1.270
82458W        W43879  27.001  37.015  14.302
82459W        W43880  30.991  14.278   3.184
82460W        W43881  23.519  42.833   3.188
82461W        W43882  11.361   3.789  10.445
82462W        W43883  43.396   7.793  14.981
82463W        W43884   6.762  26.004  12.889
82464W        W43885  34.020  20.060   3.223
82465W        W43886   2.370  35.915  13.834
82466W        W43887   5.876   0.854  13.981
82467W        W43888   7.339  43.808  13.540
82468W        W43889  16.758  22.573  11.974
82469W        W43890  27.104  43.356   4.346
82470W        W43891  13.140  41.923   1.403
82471W        W43892   8.259   8.264   2.411
82472W        W43893  31.075  10.336  11.987
82473W        W43894  17.643  11.703  14.375
82474W        W43895  33.987  38.060  12.835
82475W        W43896  19.245  21.699   2.730
82476W        W43897  20.072   5.906  11.860
82477W        W43898  43.369   8.204   3.280
82478W        W43899  38.437  11.337   4.164
82479W        W43900  16.756   5.850   4.240
82480W        W43901  15.646   4.738  10.950
82481W        W43902  34.406   5.842  13.056
82482W        W43903  13.305  22.079   1.362
82483W        W43904  42.884  42.329   1.294
82484W        W43905  36.048  28.593   2.252
82485W        W43906   3.459   9.737  14.335
82486W        W43907  43.360  14.739   3.750
82487W        W43908   5.825  23.529   0.882
82488W        W43909  26.164   2.287  14.961
82489W        W43910  20.648  11.184  13.308
82490W        W43911   0.866  25.643  13.931
82491W        W43912  30.946  17.560   1.357
82492W        W43913  34.473  36.472   4.351
82493W        W43914  30.136   3.454  12.028
82494W        W43915  44.001   8.186   2.306
82495W        W43916  33.559  37.419   1.736
82496W        W43917  26.664  23.090  13.468
82497W        W43918  42.522  23.555   2.204
82498W        W43919   3.454  27.603  12.468
82499W        W43920   6.201   8.275   4.327
82500W        W43921  43.955   4.324  14.334
82501W        W43922   2.864   9.336  10.951
82502W        W43923   5.196   2.896   3.213
82503W        W43924  12.610   0.813  11.962
82504W        W43925  43.297  29.041   5.086
82505W        W43926  35.483   2.413   1.366
82506W        W43927  27.980  27.574  11.601
82507W        W43928  30.994  23.735  11.094
82508W        W43929  13.257   5.382  12.362
82509W        W43930  38.533   5.364  11.901
82510W        W43931  29.493  36.419   0.857
82511W        W43932  37.928  26.563   0.484
82512W        W43933  38.865   0.913   1.219
82513W        W43934  10.696   9.324  14.967
82514W        W43935   9.220  25.005   0.288
82515W        W43936   9.663  29.516  13.464
82516W        W43937  42.326  20.763   4.689
82517W        W43938  42.382  44.454   0.397
82518W        W43939   3.334   6.692  12.843
82519W        W43940  35.011  35.423  11.500
82520W        W43941  36.556  38.023  11.565
82521W        W43942  24.004   7.907   1.814
82522W        W43943  37.891  39.002   1.805
82523W        W43944  36.389   4.772   3.175
82524W        W43945  22.672  34.068  13.866
82525W        W43946   0.828  15.607  10.503
82526W        W43947  42.298  37.937   0.270
82527W        W43948  42.002  44.800  11.466
82528W        W43949  38.913  16.108   3.700
82529W        W43950  19.612  40.920  10.409
82530W        W43951  11.284  27.064  12.854
82531W        W43952   4.770   4.906   4.222
82532W        W43953  21.090  30.482   3.654
82533W        W43954  41.906  16.811  13.882
82534W        W43955  32.543   7.416  14.878
82535W        W43956  31.915  42.410  13.537
82536W        W43957   6.688  32.065   4.295
82537W        W43958   0.837  39.556   0.415
82538W        W43959  24.076  43.850  11.959
82539W        W43960  15.296   5.905   3.357
82540W        W43961  10.200  10.253  10.485
82541W        W43962  18.602  35.479  11.444
82542W        W43963  33.099   4.323   2.790
82543W        W43964  35.594  42.410  10.639
82544W        W43965  13.142  36.990   4.659
82545W        W43966   3.845  27.550  12.895
82546W        W43967  43.498  15.682  10.567
82547W        W43968  17.773  25.073   3.191
82548W        W43969  36.551  41.369  10.903
82549W        W43970  15.717  37.005  12.022
82550W        W43971  18.725  11.193  13.887
82551W        W43972  44.954  27.016   2.345
82552W        W43973  10.734  28.066  12.941
82553W        W43974  23.162  30.641  14.010
82554W        W43975  14.665   0.801   3.258
82555W        W43976  25.502  27.001  12.087
82556W        W43977  39.872  41.465   4.290
82557W        W43978  19.648  14.310   2.219
82558W        W43979   3.437   5.409   5.138
82559W        W43980  23.625  27.654   2.397
82560W        W43981   5.372  24.687   1.719
82561W        W43982  22.637  23.987  11.506
82562W        W43983   2.728  11.265  14.426
82563W        W43984  26.203  40.470   1.819
82564W        W43985  18.687  26.016  12.458
82565W        W43986  11.692  36.355   4.680
82566W        W43987  26.166  37.943   4.300
82567W        W43988   4.311  36.987   3.714
82568W        W43989  31.625   8.340   2.360
82569W        W43990  12.618  31.594   4.646
82570W        W43991  28.570  13.187   4.203
82571W        W43992  37.895  29.661   1.220
82572W        W43993  33.087   0.931  11.485
82573W        W43994  34.393  29.078   4.800
82574W        W43995   7.846  37.995   3.286
82575W        W43996  23.655   1.797  10.541
82576W        W43997   8.367  17.215   2.843
82577W        W43998  42.504  15.697   3.306
82578W        W43999   0.955  35.384  12.006
82579W        W44000  32.581  30.518   0.880
82580W        W44001  14.628  15.584   0.772
82581W        W44002  18.073  19.684  13.983
82582W        W44003  18.641  44.929   2.702
82583W        W44004  11.820  36.061  13.446
82584W        W44005  26.958  22.684  13.542
82585W        W44006  43.773  11.234  12.852
82586W        W44007   4.707   2.958   3.293
82587W        W44008  26.520   4.908  12.512
82588W        W44009  36.448  37.452   3.806
82589W        W44010  10.309  31.610  14.326
82590W        W44011  26.490  30.545  12.983
82591W        W44012   3.794  10.769   3.324
82592W        W44013   4.889  26.161  10.982
82593W        W44014  19.124  19.640  14.329
82594W        W44015   0.819  37.352  14.454
82595W        W44016  26.109  42.958  10.622
82596W        W44017  10.821  26.113  11.391
82597W        W44018  31.058  16.206   3.694
82598W        W44019  22.091  15.240   5.635
82599W        W44020  35.379  25.994   4.354
82600W        W44021   8.169  23.505  13.826
82601W        W44022  12.239  13.703   1.711
82602W        W44023  39.316  17.164  12.038
82603W        W44024  18.729   7.822  13.330
82604W        W44025  10.794  24.679  11.913
82605W        W44026   9.763  41.530  13.368
82606W        W44027   5.268   8.716  11.099
82607W        W44028   0.859   8.303  12.862
82608W        W44029  12.811  34.488  10.922
82609W        W44030  22.621   8.257   1.828
82610W        W44031  38.956  23.685   0.900
82611W        W44032  39.547  36.042   2.671
82612W        W44033  42.450  12.629  14.282
82613W        W44034   9.874   1.753   3.178
82614W        W44035  35.990  39.047   2.344
82615W        W44036   7.753  43.429   3.641
82616W        W44037  19.245  31.579  10.644
82617W        W44038  15.127  13.189   3.770
82618W        W44039  25.985  20.589  14.466
82619W        W44040   0.783  20.255   0.404
82620W        W44041   2.775  28.451   4.628
82621W        W44042  29.961  22.207  13.532
82622W        W44043  21.574  40.976   0.366
82623W        W44044  17.697  12.169  11.964
82624W        W44045  24.590  34.911   0.473
82625W        W44046  32.083  32.138   0.478
82626W        W44047  17.576  40.313  14.400
82627W        W44048   8.740  31.407   4.288
82628W        W44049   1.968  31.949   2.241
82629W        W44050   9.377  41.890   4.705
82630W        W44051   8.253  15.306  11.561
82631W        W44052   3.449  12.265   3.377
82632W        W44053  19.216   4.393  14.381
82633W        W44054  31.634  14.683   2.226
82634W        W44055  32.032   3.391  13.032
82635W        W44056  39.870  25.193   0.792
82636W        W44057  28.681  14.328  14.791
82637W        W44058  19.593  37.498   4.314
82638W        W44059  35.882  18.277   2.254
82639W        W44060  39.406  27.556   1.326
82640W        W44061  43.412   3.326  13.053
82641W        W44062   4.770  12.246   2.215
82642W        W44063  25.198  42.523  13.494
82643W        W44064  32.496  38.861   4.793
82644W        W44065   4.387  21.256   3.166
82645W        W44066  15.319  11.289   3.736
82646W        W44067  39.824  39.953  11.017
82647W        W44068  43.826   3.885   3.741
82648W        W44069  35.879  41.461   3.238
82649W        W44070  10.667  11.203  12.413
82650W        W44071  31.994  24.705   4.133
82651W        W44072   9.208  44.333   4.679
82652W        W44073  43.993  24.127  13.417
82653W        W44074  12.202  19.192  13.842
82654W        W44075   4.852  43.424   5.316
82655W        W44076   6.795  17.239   3.206
82656W        W44077   1.286  40.955   3.294
82657W        W44078  14.311  21.635  14.346
82658W        W44079  40.846   6.833   4.124
82659W        W44080  22.184  34.499  13.818
82660W        W44081  36.980   9.347  12.936
82661W        W44082  40.809  27.639  13.991
82662W        W44083  39.854  32.915   0.785
82663W        W44084   1.370  38.885  13.508
82664W        W44085   4.412  26.556  14.473
82665W        W44086   2.408  27.514   1.230
82666W        W44087  11.197  42.820  10.618
82667W        W44088   3.862  32.918   2.354
82668W        W44089   2.430  17.778  12.885
82669W        W44090  38.000   9.349  10.494
82670W        W44091  17.199  26.103   2.296
82671W        W44092  25.593   1.312   2.333
82672W        W44093  28.146  29.482   0.884
82673W        W44094  34.115  35.083  11.890
82674W        W44095  22.573  11.293   1.934
82675W        W44096  15.320  44.785   3.258
82676W        W44097  42.018   6.913   2.282
82677W        W44098  15.136   8.782   1.908
82678W        W44099  37.988  21.158   0.745
82679W        W44100  17.258  11.784  11.538
82680W        W44101  18.259  44.301  14.458
82681W        W44102  31.559  41.442  13.004
82682W        W44103  35.985   5.794  10.890
82683W        W44104   8.190  22.672  13.480
82684W        W44105  15.117   9.157  13.465
82685W        W44106  44.796  34.499   4.741
82686W        W44107  28.536  23.614  13.884
82687W        W44108  22.513  33.938   0.391
82688W        W44109  27.665  12.828  11.881
82689W        W44110  13.633  31.140   4.260
82690W        W44111  42.435   3.923   3.647
82691W        W44112  21.026  31.014   1.829
82692W        W44113  21.145  15.683  13.978
82693W        W44114  25.564   1.341   2.794
82694W        W44115  37.036  14.270   1.314
82695W        W44116  41.525   3.235   2.224
82696W        W44117   6.859  35.864  12.086
82697W        W44118  41.848  21.686  12.533
82698W        W44119   9.247  12.756   4.775
82699W        W44120  33.019   8.654  12.513
82700W        W44121  39.544  44.778   0.874
82701W        W44122  26.512  32.892   3.818
82702W        W44123  11.132  21.736  11.043
82703W        W44124  41.430  32.085  12.984
82704W        W44125  43.513  22.746  13.461
82705W        W44126  42.407  23.145   1.216
82706W        W44127   9.803  37.548   3.254
82707W        W44128  23.504  39.046   3.780
82708W        W44129  11.140  39.810  14.376
82709W        W44130  42.968   5.283   3.156
82710W        W44131   0.431  23.078   0.314
82711W        W44132  22.162   9.795   1.367
82712W        W44133  36.896   5.367   1.381
82713W        W44134  13.803  33.962  10.588
82714W        W44135  40.495  17.169  14.490
82715W        W44136  28.023  43.973   2.664
82716W        W44137  32.035  13.627  12.359
82717W        W44138  28.443  23.024   4.254
82718W        W44139  42.907  26.471  12.469
82719W        W44140   7.834  38.854  11.529
82720W        W44141  25.615  35.436   1.296
82721W        W44142  33.919   9.788   1.852
82722W        W44143  31.047  18.291  14.330
82723W        W44144   8.797  38.983   3.830
82724W        W44145  40.496  23.711  13.393
82725W        W44146   5.236  22.650   3.351
82726W        W44147   3.730   0.830  13.986
82727W        W44148  18.616  36.461   1.764
82728W        W44149  34.518  30.049  12.528
82729W        W44150   3.428  24.722  13.345
82730W        W44151  34.926  13.325   5.264
82731W        W44152   1.796  28.637   4.656
82732W        W44153  35.476  21.167   4.661
82733W        W44154   6.211   9.851   0.885
82734W        W44155  28.048   9.329  14.399
82735W        W44156   4.377  36.417   2.823
82736W        W44157   2.761  44.369  12.864
82737W        W44158  26.979  44.829   4.781
82738W        W44159  25.481  31.096   2.778
82739W        W44160  21.169  12.693   0.795
82740W        W44161  34.079   3.413   1.857
82741W        W44162  12.189   1.913  14.457
82742W        W44163  42.823  26.680   2.797
82743W        W44164  22.102   7.189   1.843
82744W        W44165  30.505  36.508   5.104
82745W        W44166  22.699  21.171  11.085
82746W        W44167  21.557   6.894   1.733
82747W        W44168  34.096   9.741  14.483
82748W        W44169  16.097  43.770  11.115
82749W        W44170  25.490  41.450   3.274
82750W        W44171  34.547   7.688  14.012
82751W        W44172  21.581   7.345  10.627
82752W        W44173  12.270  37.966  12.532
82753W        W44174  29.618  12.251   3.671
82754W        W44175  32.927  37.936   1.239
82755W        W44176  31.578   8.738  14.403
82756W        W44177   3.293  42.853   0.324
82757W        W44178  37.887  25.487   3.258
82758W        W44179  27.007  44.424   0.445
82759W        W44180  13.249  11.336  13.030
82760W        W44181   7.806  18.625  10.924
82761W        W44182  29.457  22.245   4.783
82762W        W44183   8.850  25.707   4.200
82763W        W44184  11.333  18.773  14.832
82764W        W44185  16.578  42.989   4.781
82765W        W44186   5.264  23.723  12.393
82766W        W44187  40.493  11.673  10.529
82767W        W44188  19.732  43.846  12.339
82768W        W44189   1.451  14.826  12.353
82769W        W44190  32.890  41.369  11.605
82770W        W44191   3.297   0.280   2.866
82771W        W44192  40.041  17.628   4.134
82772W        W44193  24.664  25.565  13.938
82773W        W44194  28.028  20.148  12.440
82774W        W44195  28.938  20.272  14.400
82775W        W44196  16.314   1.761   0.952
82776W        W44197  30.531  18.182  13.879
82777W        W44198  20.155  12.341   4.820
82778W        W44199  30.459  11.718  14.425
82779W        W44200  11.180  38.472  10.988
82780W        W44201   5.834  22.044   4.693
82781W        W44202  19.772   4.885  12.032
82782W        W44203  21.072  35.898  13.418
82783W        W44204  34.417  10.866   3.159
82784W        W44205  34.426  37.498   3.166
82785W        W44206  12.647  33.937  11.478
82786W        W44207   6.722  40.415  14.773
82787W        W44208  33.060   9.714  14.500
82788W        W44209  21.684  15.315  13.014
82789W        W44210   9.373  24.693   3.294
82790W        W44211  16.090  31.011  12.055
82791W        W44212  32.065  14.746  12.843
82792W        W44213  41.384  40.543  13.447
82793W        W44214  26.107  15.815  12.474
82794W        W44215  28.483  40.019  13.478
82795W        W44216  30.514  21.116  11.128
82796W        W44217  36.095  14.259  10.508
82797W        W44218  13.348  32.392   2.766
82798W        W44219  44.450  44.763   4.603
82799W        W44220   4.243  38.543  14.821
82800W        W44221   9.251  11.337  11.601
82801W        W44222  37.340  12.254   3.683
82802W        W44223  11.188  14.825   4.725
82803W        W44224  13.812  16.646  10.475
82804W        W44225  27.496   8.891   4.154
82805W        W44226   9.745  39.844  13.397
82806W        W44227   5.896  23.168  12.844
82807W        W44228  20.088  40.340  10.510
82808W        W44229   8.265  36.935  11.896
82809W        W44230   9.383  17.680   4.153
82810W        W44231  28.074  39.539   1.291
82811W        W44232  16.792  37.865   4.654
82812W        W44233  27.529  29.019  10.445
82813W        W44234  14.809   4.256  14.361
82814W        W44235  41.971  40.830  10.418
82815W        W44236  29.604   2.346   2.294
82816W        W44237  12.258  43.855   1.725
82817W        W44238  39.006  30.003  11.376
82818W        W44239  25.104  23.574   4.719
82819W        W44240  37.988  32.107   1.357
82820W        W44241  20.199  44.847  14.326
82821W        W44242  30.107  21.714   3.384
82822W        W44243  26.124  43.956  11.542
82823W        W44244  28.631  36.015   3.199
82824W        W44245  29.590  39.820   1.783
82825W        W44246  36.982  21.086  13.904
82826W        W44247  25.488  15.285  11.015
82827W        W44248  10.752  11.821  12.031
82828W        W44249   8.388   4.420  13.791
82829W        W44250  10.286  31.617  12.466
82830W        W44251  34.052  36.020  14.908
82831W        W44252  37.524  30.161  11.943
82832W        W44253  23.203  38.874  10.946
82833W        W44254  20.064   4.280   2.873
82834W        W44255  28.483  31.981   1.864
82835W        W44256  23.499  32.577  10.470
82836W        W44257  41.392  39.353   0.809
82837W        W44258  21.207  14.602   3.352
82838W        W44259  14.245  43.325  13.901
82839W        W44260  32.633  25.204   3.251
82840W        W44261  21.535  20.563  14.474
82841W        W44262  11.314  25.092  12.389
82842W        W44263  37.502   9.732  10.585
82843W        W44264  16.238   6.272  14.501
82844W        W44265  11.670  43.422  11.889
82845W        W44266  14.260  31.428   3.279
82846W        W44267  40.851  31.061  13.797
82847W        W44268  18.553   5.213   0.961
82848W        W44269  37.354  37.501   1.817
82849W        W44270  18.574  34.590  13.437
82850W        W44271   5.897   7.804   3.244
82851W        W44272  19.233   4.363   0.417
82852W        W44273   0.927   4.210   1.790
82853W        W44274  19.078  37.351  11.053
82854W        W44275  32.429  18.239   1.917
82855W        W44276   4.423  22.188   5.116
82856W        W44277  28.595   4.268   2.713
82857W        W44278  17.211  14.139   3.663
82858W        W44279   9.669   6.916  12.457
82859W        W44280  27.635  11.283   3.271
82860W        W44281  26.593  13.276  14.817
82861W        W44282   4.286  13.788  11.909
82862W        W44283  32.995  16.679   0.875
82863W        W44284   7.395  26.115  14.454
82864W        W44285  29.570  37.528  13.407
82865W        W44286  35.395  20.146  12.479
82866W        W44287  21.118  13.665  10.155
82867W        W44288   4.848   1.448  14.824
82868W        W44289   3.243  35.004  10.611
82869W        W44290  44.426  15.180  13.526
82870W        W44291  11.335   4.752   1.445
82871W        W44292  43.012  27.095  11.515
82872W        W44293  36.975  25.025  14.345
82873W        W44294  10.368  26.196  11.597
82874W        W44295  40.940  22.669  14.781
82875W        W44296  28.050  12.688   0.775
82876W        W44297  17.782  17.683  10.626
82877W        W44298  35.503  10.262  12.892
82878W        W44299  16.693  18.562   4.170
82879W        W44300  32.521  20.265   4.784
82880W        W44301  20.197  12.308  13.957
82881W        W44302   3.831  18.215  11.934
82882W        W44303  17.185  17.796   2.234
82883W        W44304  18.080  42.918   0.813
82884W        W44305   7.411  17.100  10.991
82885W        W44306  20.573  27.500  10.923
82886W        W44307  39.868  30.536   1.239
82887W        W44308  18.295  23.186   4.635
82888W        W44309  36.582   4.698   2.417
82889W        W44310  43.777   3.329   4.163
82890W        W44311  29.658   0.988  13.319
82891W        W44312  31.546   6.360   3.752
82892W        W44313  26.579  41.414   2.229
82893W        W44314  25.174  10.297  14.819
82894W        W44315  27.055  39.927  14.830
82895W        W44316  24.599  26.497   2.300
82896W        W44317  22.692  24.034   0.926
82897W        W44318  31.930  13.673  12.967
82898W        W44319  38.372  19.285   1.854
82899W        W44320  32.982  18.251   2.793
82900W        W44321  28.970  14.240   0.772
82901W        W44322  31.567  18.161   1.416
82902W        W44323  10.150   4.765   0.936
82903W        W44324  18.080  43.272   3.212
82904W        W44325   9.665  20.136  12.489
82905W        W44326   5.839   0.856  14.800
82906W        W44327   3.831   1.450   3.272
82907W        W44328  36.884  12.680   3.378
82908W        W44329   9.745  24.684  14.821
82909W        W44330   3.372  41.003  13.006
82910W        W44331  12.218   3.427   3.653
82911W        W44332  13.811  34.377  13.916
82912W        W44333  19.617   5.904  14.471
82913W        W44334  31.540  10.300   2.767
82914W        W44335  31.045  34.892   1.928
82915W        W44336  22.101   9.362  11.895
82916W        W44337  24.224  38.007  14.437
82917W        W44338  22.508  42.011   0.932
82918W        W44339  43.374  13.710  13.380
82919W        W44340  39.845  20.706  13.811
82920W        W44341  23.985  14.819   0.854
82921W        W44342  21.200   5.429  11.525
82922W        W44343  10.780  18.708  14.971
82923W        W44344  15.582  33.073   0.797
82924W        W44345  28.117  41.409   1.335
82925W        W44346  35.416  15.735   4.251
82926W        W44347  32.014  19.732   2.811
82927W        W44348  23.650   6.336  12.510
82928W        W44349  20.090  17.248   3.149
82929W        W44350   8.259  26.002  14.468
82930W        W44351  19.602  22.244  14.975
82931W        W44352  30.633  43.389   3.802
82932W        W44353  20.116   4.703  14.371
82933W        W44354  35.418  25.001  10.586
82934W        W44355  19.642  12.127   0.923
82935W        W44356  36.062  35.377   2.376
82936W        W44357  33.956  36.033  10.617
82937W        W44358  15.294  23.153   0.367
82938W        W44359  35.018  28.592  13.416
82939W        W44360  25.567  21.519  11.533
82940W        W44361   5.931   4.410  14.812
82941W        W44362  18.710  38.428   2.776
82942W        W44363  19.079   8.201   0.403
82943W        W44364  38.980   3.938   0.458
82944W        W44365  29.551   6.695  11.937
82945W        W44366  22.525  23.575   0.944
82946W        W44367  40.426  35.897  11.452
82947W        W44368  27.450  35.568  10.474
82948W        W44369  35.439  43.822  11.593
82949W        W44370   4.870  24.222  13.050
82950W        W44371   9.677  30.624   1.397
82951W        W44372   1.421  28.116  12.864
82952W        W44373  21.154   3.925  14.314
82953W        W44374  34.599  36.011  11.966
82954W        W44375   1.846  15.585   3.231
82955W        W44376   9.235  13.240  14.834
82956W        W44377  18.140  18.229  13.366
82957W        W44378  26.458  10.800  13.839
82958W        W44379  17.787  34.100   1.747
82959W        W44380  22.712  19.622  10.928
82960W        W44381   3.756  28.993   3.305
82961W        W44382  32.624  41.416  10.897
82962W        W44383  33.945  36.924  14.901
82963W        W44384  43.999  31.082   0.936
82964W        W44385  33.972   9.718  12.478
82965W        W44386  42.455   1.440   2.187
82966W        W44387  36.450  22.521   4.622
82967W        W44388   9.715  40.824  12.496
82968W        W44389  29.554  44.445   0.320
82969W        W44390  43.879  22.743  10.564
82970W        W44391  26.072  17.726  12.367
82971W        W44392  32.925  16.592   1.782
82972W        W44393  12.727  38.952   2.803
82973W        W44394   0.823  35.109  12.468
82974W        W44395   4.723  44.832   1.298
82975W        W44396  38.979  13.764  11.078
82976W        W44397  21.109  32.541   0.732
82977W        W44398   4.231  37.088   3.355
82978W        W44399   7.271  43.848   1.232
82979W        W44400  32.971  32.554   0.483
82980W        W44401   6.182  10.322   2.668
82981W        W44402  42.872  35.060   0.482
82982W        W44403  30.994  42.869  10.437
82983W        W44404  10.665  39.512   4.814
82984W        W44405  17.659   6.752  12.868
82985W        W44406   5.206  32.059  10.961
82986W        W44407  27.000   2.868  12.882
82987W        W44408   6.324   7.269  11.571
82988W        W44409  44.437   7.304   0.328
82989W        W44410  41.984   2.345   3.749
82990W        W44411  23.006  32.401  14.003
82991W        W44412  37.833   0.761  12.347
82992W        W44413  41.376  36.590   1.356
82993W        W44414  16.291  14.616   5.091
82994W        W44415   1.313  43.273  12.571
82995W        W44416  38.377   3.250  14.449
82996W        W44417  29.485  29.439  11.905
82997W        W44418  24.621  15.184  10.611
82998W        W44419  32.582  24.122  12.451
82999W        W44420  41.419  10.350  11.937
83000W        W44421   3.389  43.312   4.653
83001W        W44422  24.209  33.037  13.307
83002W        W44423   3.935  38.833   4.706
83003W        W44424  19.137   7.876   0.957
83004W        W44425  44.920  26.000   4.196
83005W        W44426  29.660  21.577   4.827
83006W        W44427  20.192  10.642  13.923
83007W        W44428  28.044  10.695   3.341
83008W        W44429  33.564  40.939   0.386
83009W        W44430  15.290  19.192  14.016
83010W        W44431   9.770  19.537  13.312
83011W        W44432  39.341  36.423   1.434
83012W        W44433  33.451   5.399   0.810
83013W        W44434  43.372  42.414  12.081
83014W        W44435  13.144  39.969  13.996
83015W        W44436   7.789  37.392  12.928
83016W        W44437  23.491  15.739   4.147
83017W        W44438  15.083  18.163   3.727
83018W        W44439  32.994   4.871  11.908
83019W        W44440  29.928  35.976   3.297
83020W        W44441  16.311  30.119  13.309
83021W        W44442   4.781  42.502   0.769
83022W        W44443   6.858   0.439  14.920
83023W        W44444  39.463  43.302   2.734
83024W        W44445  14.627  34.880  12.479
83025W        W44446  31.417  30.648  12.448
83026W        W44447  33.434  30.152  12.454
83027W        W44448   3.931   4.811  11.939
83028W        W44449  16.734  21.120  10.486
83029W        W44450   3.722  29.521   3.870
83030W        W44451   8.315  15.278   0.266
83031W        W44452  24.200  29.539   1.395
83032W        W44453  15.236  19.537   4.748
83033W        W44454  39.511   6.723   3.282
83034W        W44455  34.062  27.957   3.698
83035W        W44456  34.963   8.695   2.738
83036W        W44457  28.640  18.058  12.941
83037W        W44458  42.346  43.945   1.848
83038W        W44459  13.351  31.112  11.466
83039W        W44460  20.251  32.926   0.968
83040W        W44461  32.590  28.571   1.236
83041W        W44462  12.739   9.258   0.402
83042W        W44463   0.458  40.396   3.724
83043W        W44464  22.075  32.997  11.933
83044W        W44465  27.468   9.750   2.327
83045W        W44466  18.183  14.195  13.369
83046W        W44467  18.254  32.929   0.386
83047W        W44468  34.077  36.455   0.798
83048W        W44469   7.890  23.042   3.248
83049W        W44470  39.374  28.094   4.340
83050W        W44471  41.318  42.393   4.726
83051W        W44472  40.513  10.202  11.909
83052W        W44473  11.698  43.815  14.483
83053W        W44474  27.084  37.860  11.949
83054W        W44475   7.374   2.879   3.158
83055W        W44476  23.237  29.170   2.379
83056W        W44477  32.570  43.960  11.422
83057W        W44478  29.161  30.071  10.444
83058W        W44479  14.245  37.048  11.544
83059W        W44480  42.992  40.498  14.949
83060W        W44481  12.315  15.790  13.426
83061W        W44482  19.118  36.462   2.734
83062W        W44483  32.137  39.821  11.083
83063W        W44484  40.462  25.659   4.631
83064W        W44485  26.167  31.015   0.313
83065W        W44486  40.917  36.524   1.249
83066W        W44487   0.743  30.452   4.729
83067W        W44488  37.499  38.915  10.531
83068W        W44489   8.198  37.892  14.876
83069W        W44490  26.484  20.238  12.948
83070W        W44491  24.713  14.259  11.383
83071W        W44492  23.728  28.577  11.584
83072W        W44493  21.627  42.460   1.852
83073W        W44494  44.825   5.860  13.969
83074W        W44495  18.740  32.964   1.697
83075W        W44496   3.849  21.648  10.626
83076W        W44497  34.025  33.541   0.433
83077W        W44498  37.517   0.761  11.402
83078W        W44499   4.309  11.273  12.831
83079W        W44500  10.656  39.359   2.819
83080W        W44501  16.204  30.477   2.229
83081W        W44502  32.557  35.359  14.937
83082W        W44503  25.485   3.757  11.547
83083W        W44504   6.189  30.134  12.578
83084W        W44505  29.167  23.154  14.024
83085W        W44506  32.090  34.457  14.298
83086W        W44507  28.048  22.059  14.351
83087W        W44508   6.737  12.191   4.661
83088W        W44509  24.058  15.299  13.365
83089W        W44510  40.464  22.090  10.998
83090W        W44511  43.466  22.596  14.017
83091W        W44512   5.738  30.050   2.281
83092W        W44513   2.942  12.769  11.963
83093W        W44514  34.494   0.405  11.914
83094W        W44515  28.480  34.390  11.985
83095W        W44516  35.982  18.133  13.502
83096W        W44517  41.000  21.145  10.473
83097W        W44518   9.379   5.786   1.419
83098W        W44519   0.435  31.608   2.803
83099W        W44520   2.795   5.421   4.622
83100W        W44521  11.679  10.843   0.270
83101W        W44522  39.920  26.490  11.578
83102W        W44523  40.821  34.434  13.893
83103W        W44524   4.430  39.462   0.397
83104W        W44525  25.134  26.157   4.121
83105W        W44526  16.633  17.601   3.674
83106W        W44527  17.616   8.212   2.691
83107W        W44528  38.365  29.076   3.790
83108W        W44529  14.330  19.242  13.016
83109W        W44530   6.338  12.710  12.351
83110W        W44531   0.433  23.117   0.727
83111W        W44532  34.390  27.187   4.710
83112W        W44533  39.056   0.758  11.508
83113W        W44534  30.623  33.410   2.382
83114W        W44535  25.185  42.960   1.303
83115W        W44536  34.121   8.309   0.391
83116W        W44537  10.272  29.436   3.724
83117W        W44538  37.867  19.571  11.402
83118W        W44539  22.662  21.078  12.528
83119W        W44540  44.433  33.092  14.864
83120W        W44541  26.482  27.604   4.238
83121W        W44542  35.455  23.562  13.401
83122W        W44543   1.324  35.054   1.893
83123W        W44544  32.950   9.241   2.672
83124W        W44545  12.196   7.299   2.895
83125W        W44546  39.999   4.848  14.276
83126W        W44547  32.952  21.107   0.839
83127W        W44548  29.534  18.147  12.054
83128W        W44549  27.964   4.271  12.405
83129W        W44550  14.769  44.801   1.225
83130W        W44551  16.107   2.344  12.866
83131W        W44552  40.994  43.380  12.846
83132W        W44553   2.870  16.699  11.414
83133W        W44554   6.783   5.387   1.376
83134W        W44555  14.273  24.141   2.740
83135W        W44556  21.672  21.701   1.273
83136W        W44557  42.831  32.973  13.929
83137W        W44558  22.181   6.240   3.276
83138W        W44559  13.708  41.825  12.954
83139W        W44560  12.841  12.741  11.430
83140W        W44561  26.693  36.093   2.386
83141W        W44562  26.057  31.609  13.532
83142W        W44563  16.076  14.244  14.428
83143W        W44564  13.150  36.492  10.520
83144W        W44565  42.982  24.678  14.440
83145W        W44566   8.891  30.035  11.521
83146W        W44567  35.990  22.622   3.840
83147W        W44568  37.522   1.744   2.775
83148W        W44569  28.447  28.434   3.783
83149W        W44570  38.365  23.602   3.160
83150W        W44571  23.617  13.295   4.348
83151W        W44572   0.986  10.202  12.888
83152W        W44573   2.450  37.535   0.253
83153W        W44574  11.844  20.609   3.806
83154W        W44575   9.877  18.731  12.891
83155W        W44576  21.731  26.118   3.824
83156W        W44577  10.838  23.626   1.817
83157W        W44578  33.079  23.163   1.369
83158W        W44579  44.290  38.972   4.609
83159W        W44580  37.356  34.922  14.336
83160W        W44581  40.934   0.450   1.246
83161W        W44582   4.344  37.979  13.402
83162W        W44583  28.547  40.373  10.475
83163W        W44584   7.871   8.834   4.322
83164W        W44585  42.779  30.646   3.702
83165W        W44586  10.787  13.298   1.277
83166W        W44587  10.665  17.244  14.935
83167W        W44588  43.846  16.787  14.501
83168W        W44589  17.162  11.833   3.240
83169W        W44590   5.260   2.907   9.548
83170W        W44591  44.806  21.593   0.442
83171W        W44592  31.083   7.396  14.841
83172W        W44593   3.916  40.888  13.320
83173W        W44594  21.105  23.994   3.665
83174W        W44595  12.659  33.933   2.185
83175W        W44596   4.299  25.577  13.526
83176W        W44597  42.879  25.994  11.898
83177W        W44598  43.300  41.917   2.292
83178W        W44599   5.236   2.885  11.003
83179W        W44600  12.290  40.460  13.363
83180W        W44601  12.331  36.447  14.309
83181W        W44602  30.416  37.006   1.823
83182W        W44603  26.990  37.523   3.358
83183W        W44604  41.317  18.753   2.327
83184W        W44605  19.147  14.796   0.963
83185W        W44606  28.044  34.582   1.751
83186W        W44607  36.387   1.362   3.841
83187W        W44608  14.632  40.034   0.362
83188W        W44609  26.960   1.764  12.342
83189W        W44610   1.859  13.660   3.374
83190W        W44611  11.358  23.170  10.619
83191W        W44612  36.567   7.843   1.277
83192W        W44613  12.619  36.990   4.807
83193W        W44614  15.232  37.963   1.248
83194W        W44615  37.929  13.838   2.181
83195W        W44616  13.682  40.318  11.489
83196W        W44617  39.329  37.052   3.341
83197W        W44618  21.180   0.876   0.429
83198W        W44619   1.258  21.132  14.289
83199W        W44620  10.860   5.820  11.437
83200W        W44621  32.620   7.803  13.356
83201W        W44622   7.249   2.942   1.440
83202W        W44623  20.244  25.522  10.564
83203W        W44624  17.650   5.415  12.902
83204W        W44625  35.452  43.393  12.405
83205W        W44626  13.744  23.234  13.541
83206W        W44627   6.916  39.538  13.871
83207W        W44628   0.475  22.699   0.353
83208W        W44629  10.176  10.802   3.209
83209W        W44630   9.374   8.232   4.651
83210W        W44631  17.747  40.971  14.335
83211W        W44632  26.126  29.932   4.705
83212W        W44633  10.304   9.848  14.929
83213W        W44634   7.815   5.725   4.169
83214W        W44635  13.828  33.581  13.017
83215W        W44636  43.768  33.449   0.262
83216W        W44637  21.724   7.676   2.179
83217W        W44638  19.069  44.376   3.721
83218W        W44639  41.795   8.347   1.742
83219W        W44640  37.449   1.259   2.735
83220W        W44641  33.108  10.313  11.512
83221W        W44642  30.603  23.167  13.342
83222W        W44643   1.935  35.006  14.958
83223W        W44644  38.536  38.426   1.703
83224W        W44645   1.760  43.862   3.224
83225W        W44646   1.894  23.657  14.335
83226W        W44647   9.313   7.362   9.940
83227W        W44648  21.699  29.541  10.122
83228W        W44649  42.963  43.999   4.247
83229W        W44650  19.200  34.604  12.936
83230W        W44651  17.801  44.792  14.010
83231W        W44652   3.292   4.824   4.739
83232W        W44653  34.486  23.002  12.992
83233W        W44654  14.688  23.676   1.783
83234W        W44655  29.162   4.905  11.608
83235W        W44656  36.852  16.277   2.886
83236W        W44657  25.617   9.863  10.510
83237W        W44658  24.207  33.432  10.582
83238W        W44659  22.143  22.105   3.669
83239W        W44660  37.994   7.846   2.666
83240W        W44661   7.214  16.696  14.763
83241W        W44662  20.695  36.974  14.969
83242W        W44663  41.356   7.213   3.264
83243W        W44664  29.490   9.720   0.757
83244W        W44665  20.041  35.430  14.306
83245W        W44666  35.583  40.392  14.406
83246W        W44667  27.687   2.431   3.283
83247W        W44668  26.540  30.413   2.375
83248W        W44669  31.550   4.804  14.460
83249W        W44670  13.127   7.328  13.855
83250W        W44671  11.806   7.219  12.344
83251W        W44672  42.794  15.236  13.428
83252W        W44673  17.556  40.515  14.907
83253W        W44674  31.412   1.825   0.805
83254W        W44675  40.454  42.790   3.669
83255W        W44676  15.741  18.569   4.238
83256W        W44677  23.024  13.274  14.404
83257W        W44678  17.204  20.681   1.262
83258W        W44679   7.708  16.106   0.362
83259W        W44680  28.162   1.880   0.913
83260W        W44681  16.249   0.382  11.577
83261W        W44682  24.675  22.071   3.647
83262W        W44683  16.110   8.194  11.879
83263W        W44684  30.026  24.230  12.368
83264W        W44685   8.760  10.283   2.183
83265W        W44686  10.330  41.948   2.884
83266W        W44687  20.168  44.820  11.080
83267W        W44688  28.451  11.144   1.889
83268W        W44689  33.618  10.341   4.113
83269W        W44690   4.443  22.697  13.026
83270W        W44691  17.078  10.649  13.464
83271W        W44692  29.580  11.720   4.613
83272W        W44693  24.201  21.138  12.557
83273W        W44694  10.279  35.464   1.713
83274W        W44695  27.055  36.437   3.241
83275W        W44696  11.635  39.833  14.283
83276W        W44697  42.829  29.500  13.420
83277W        W44698  23.733   9.157   4.765
83278W        W44699   4.710  40.874   2.383
83279W        W44700  23.712   3.936   1.247
83280W        W44701  24.568  41.445   0.876
83281W        W44702  28.622  20.527  12.466
83282W        W44703  25.196  44.899   0.889
83283W        W44704  19.216  34.994  12.366
83284W        W44705  36.561  20.689  14.773
83285W        W44706  44.420  11.713  14.463
83286W        W44707  23.139  30.087   0.912
83287W        W44708  30.432  15.137   5.280
83288W        W44709  24.192  23.212  13.973
83289W        W44710  18.123  21.521  11.922
83290W        W44711  16.792  15.590  10.524
83291W        W44712  11.364  20.213   4.683
83292W        W44713  15.688   0.849  12.490
83293W        W44714  26.467   2.943  10.634
83294W        W44715   3.852  14.754  14.954
83295W        W44716   3.375  34.113  12.036
83296W        W44717  33.092  44.320   0.760
83297W        W44718  14.712  39.843  13.971
83298W        W44719  38.532  15.793   1.405
83299W        W44720  38.357  42.286  12.465
83300W        W44721  39.030   7.323  13.513
83301W        W44722  22.584  31.641  11.439
83302W        W44723  34.942  27.512  13.879
83303W        W44724  39.055  42.289   3.243
83304W        W44725   1.819  16.196   3.177
83305W        W44726  32.443   6.687   3.181
83306W        W44727  39.029   9.682  13.398
83307W        W44728   0.810   2.740   4.757
83308W        W44729  44.481   4.788  14.998
83309W        W44730  31.915  24.041  12.420
83310W        W44731   9.844  14.145   1.714
83311W        W44732  15.602  15.718   4.820
83312W        W44733   6.352  14.236   2.208
83313W        W44734  29.053  41.790  11.091
83314W        W44735  12.754   4.305   3.635
83315W        W44736   0.788  12.119   0.417
83316W        W44737  24.618   4.711  12.065
83317W        W44738  22.733   2.396   1.822
83318W        W44739  44.818  41.503   0.456
83319W        W44740  34.404   8.836   4.653
83320W        W44741  19.546   1.422  13.514
83321W        W44742   5.337   8.329   4.197
83322W        W44743  18.295  38.004   4.317
83323W        W44744  27.015  35.882   2.771
83324W        W44745   8.803  33.624   1.787
83325W        W44746  38.561  24.611   4.739
83326W        W44747   1.335  32.576   0.451
83327W        W44748  18.592  12.657  12.857
83328W        W44749  21.111  30.090  13.806
83329W        W44750  17.791   5.928  10.996
83330W        W44751  43.018  20.189  14.506
83331W        W44752  10.277  10.312   4.172
83332W        W44753  43.286  32.902   2.870
83333W        W44754   4.434  40.371   3.290
83334W        W44755  15.094  18.190   0.939
83335W        W44756   9.178  20.535   2.812
83336W        W44757   0.400   2.408   3.849
83337W        W44758   4.260   6.213   0.904
83338W        W44759   5.714  22.999   0.911
83339W        W44760  33.088   8.185  10.472
83340W        W44761  14.273   8.257  13.986
83341W        W44762  35.053  43.917  12.043
83342W        W44763  38.539  42.288  10.907
83343W        W44764  14.769  37.851   0.788
83344W        W44765  33.404  21.756  14.996
83345W        W44766  38.062  35.520   0.408
83346W        W44767   4.212  41.018  12.070
83347W        W44768  33.930  19.567  11.581
83348W        W44769  29.640  34.881   0.919
83349W        W44770  42.806  16.813  12.886
83350W        W44771  34.387  39.419  13.310
83351W        W44772  20.601   6.379   1.733
83352W        W44773  40.887   5.717   3.799
83353W        W44774  25.057  37.936   3.741
83354W        W44775  43.337  41.453   0.448
83355W        W44776  30.458  17.188  12.372
83356W        W44777  26.208  22.187   3.860
83357W        W44778  37.349  44.269  14.759
83358W        W44779  24.687  18.723   4.178
83359W        W44780   7.231  11.293   0.373
83360W        W44781  40.355  14.309  14.960
83361W        W44782   6.280   7.837  13.348
83362W        W44783  27.585   7.697  14.021
83363W        W44784  22.579   4.850   9.975
83364W        W44785  43.867  11.650   4.678
83365W        W44786  21.514   8.365  12.079
83366W        W44787  22.215  35.453  11.994
83367W        W44788   5.797   2.435   3.264
83368W        W44789  36.945   1.758  11.054
83369W        W44790   7.837  26.557  14.510
83370W        W44791  44.353  34.099  10.563
83371W        W44792  10.776   4.856  11.021
83372W        W44793  30.642  41.432   4.168
83373W        W44794  10.302  19.093  12.915
83374W        W44795  42.936   5.817   2.718
83375W        W44796  12.723  14.788  10.446
83376W        W44797  26.033   4.218  13.816
83377W        W44798  43.283  39.352  10.526
83378W        W44799  24.072  28.040   2.329
83379W        W44800  42.800  11.774  14.867
83380W        W44801  43.443   3.457   3.722
83381W        W44802  23.643  19.068  12.381
83382W        W44803  36.873  21.234  14.772
83383W        W44804  31.037  28.987   3.232
83384W        W44805  19.540   5.220  11.594
83385W        W44806   6.272   3.401  13.381
83386W        W44807  38.894   1.428  13.937
83387W        W44808  26.197   7.176  10.509
83388W        W44809  31.138  41.974   1.882
83389W        W44810  16.076  44.366  12.896
83390W        W44811  29.626  31.628  11.475
83391W        W44812  20.255   4.752   1.764
83392W        W44813   2.826  42.381  11.041
83393W        W44814  15.111  20.645  12.448
83394W        W44815  25.695  37.401   9.932
83395W        W44816  40.379  11.831   1.223
83396W        W44817  11.780  38.526  14.342
83397W        W44818  10.170  35.557   3.386
83398W        W44819  27.140  43.477  11.408
83399W        W44820  26.659   4.219  11.569
83400W        W44821  23.626  17.688   4.328
83401W        W44822   8.751  22.610   1.849
83402W        W44823  15.329  37.987  10.608
83403W        W44824   3.801  21.195  14.356
83404W        W44825   5.399  32.401  14.010
83405W        W44826  31.979   3.269  14.435
83406W        W44827  24.199  27.137   4.640
83407W        W44828  20.522  36.997  10.598
83408W        W44829   1.862  15.651  10.888
83409W        W44830   5.332   1.250   0.745
83410W        W44831  15.672   1.854  13.049
83411W        W44832  24.542  43.311   3.343
83412W        W44833  37.987  16.741   1.785
83413W        W44834  18.202  41.846   0.317
83414W        W44835   9.288  41.913   0.798
83415W        W44836   8.251  44.996  11.558
83416W        W44837  22.687  31.552  12.535
83417W        W44838  10.714  10.799   4.351
83418W        W44839  40.471  11.229   0.363
83419W        W44840   6.189  32.618   2.196
83420W        W44841  42.817  37.446   4.739
83421W        W44842  12.687   5.302  10.909
83422W        W44843   8.777  27.028   2.764
83423W        W44844   1.273  39.044  14.015
83424W        W44845  19.669   9.751  13.892
83425W        W44846  14.736  29.645   1.413
83426W        W44847  35.403  40.941   1.856
83427W        W44848  42.866  28.510   3.658
83428W        W44849   6.729  13.701  12.543
83429W        W44850  24.562  17.214  11.059
83430W        W44851  39.938   6.791   2.744
83431W        W44852  26.645   3.798  14.442
83432W        W44853  14.790   2.331  13.386
83433W        W44854  31.051  36.536  13.954
83434W        W44855  15.751   8.829   1.778
83435W        W44856   8.656  40.806   9.474
83436W        W44857  42.290  44.941   4.793
83437W        W44858  33.987  30.413   0.891
83438W        W44859  38.844  24.488  10.478
83439W        W44860  11.200  17.783  12.857
83440W        W44861  12.756  36.019   4.340
83441W        W44862  33.455  10.786   3.344
83442W        W44863  30.548  30.005   3.332
83443W        W44864  17.290   0.322   2.330
83444W        W44865  25.477  18.773   1.280
83445W        W44866  42.466   1.871  11.479
83446W        W44867   7.689  16.278   3.786
83447W        W44868  29.088  17.240  13.935
83448W        W44869  26.165  30.633   1.819
83449W        W44870  15.792  44.988   0.277
83450W        W44871  17.114  40.832  12.090
83451W        W44872  22.229  24.204  10.619
83452W        W44873   0.817  13.267   3.640
83453W        W44874  39.843  40.872  14.489
83454W        W44875   5.922  13.227  14.308
83455W        W44876   3.284   7.810   5.317
83456W        W44877  39.373  29.517   3.799
83457W        W44878  11.699  32.066   1.393
83458W        W44879  29.024  12.303   9.611
83459W        W44880   4.350  22.066   2.180
83460W        W44881  33.984  24.584   0.402
83461W        W44882  33.522   2.293   0.443
83462W        W44883  14.650  41.333  13.964
83463W        W44884  31.984  35.017   4.280
83464W        W44885  27.018  30.434   0.403
83465W        W44886   0.478  18.572  11.399
83466W        W44887  23.556   6.298  11.870
83467W        W44888  37.026  29.149   4.735
83468W        W44889  10.742  15.103  10.896
83469W        W44890  34.380  44.389  13.521
83470W        W44891  23.489   5.278   2.742
83471W        W44892   5.212  44.267   1.357
83472W        W44893  42.966  33.407   0.787
83473W        W44894   3.244  36.364   0.317
83474W        W44895  26.030  27.123  11.888
83475W        W44896  44.901  36.399   0.731
83476W        W44897   3.267   4.792   5.311
83477W        W44898  19.125  33.879  12.067
83478W        W44899  44.419   1.322   1.371
83479W        W44900  32.517   8.231   0.308
83480W        W44901  33.611  16.573   3.720
83481W        W44902  18.740  37.402  13.870
83482W        W44903  13.165   8.250   3.309
83483W        W44904  29.015   7.696  12.496
83484W        W44905  35.503  11.789   0.300
83485W        W44906  32.955   1.257  13.363
83486W        W44907  24.645  32.025  14.881
83487W        W44908  35.381  32.022   4.721
83488W        W44909   2.794  25.153  14.386
83489W        W44910  19.277  13.114   3.758
83490W        W44911  24.218  14.173  14.895
83491W        W44912   2.763   3.722  10.542
83492W        W44913  39.327  18.716   4.254
83493W        W44914  44.271  12.770   1.779
83494W        W44915  31.527  40.548   3.387
83495W        W44916  42.842  19.141   2.687
83496W        W44917  26.592  24.626  11.568
83497W        W44918  39.524   1.329  13.968
83498W        W44919  19.544   2.315  13.799
83499W        W44920  29.455   0.348  13.011
83500W        W44921  24.618  33.398  12.889
83501W        W44922  24.122  34.432   2.350
83502W        W44923  37.407   3.302  11.098
83503W        W44924  11.133  27.629   0.909
83504W        W44925  31.948  28.655   4.248
83505W        W44926  31.461  34.886  10.458
83506W        W44927   7.778  17.119   1.316
83507W        W44928  24.724   6.295   3.720
83508W        W44929  11.148  26.574   1.821
83509W        W44930  34.429  24.107  12.877
83510W        W44931   0.452  38.996  13.935
83511W        W44932  18.708  31.059   0.835
83512W        W44933  44.903  31.140  11.073
83513W        W44934  42.973  16.099  14.779
83514W        W44935  33.896  20.108   1.927
83515W        W44936  35.938  27.557  11.510
83516W        W44937  22.185  43.333  10.553
83517W        W44938  26.994  35.914  13.949
83518W        W44939   9.323  40.312   3.722
83519W        W44940   7.885  12.348   2.700
83520W        W44941  12.287  11.310   1.443
83521W        W44942  22.547  14.181  14.956
83522W        W44943  27.639  43.415  14.844
83523W        W44944  43.878  28.050  12.875
83524W        W44945   1.461  21.570   1.793
83525W        W44946  12.254  20.628   4.353
83526W        W44947  25.695   8.879   2.337
83527W        W44948  29.000   6.834  13.441
83528W        W44949  30.033  15.188  11.864
83529W        W44950  15.736  32.626   2.274
83530W        W44951  18.147  38.568  13.882
83531W        W44952  12.674  28.505  12.420
83532W        W44953  21.741   1.332   3.704
83533W        W44954  35.089  23.544   5.187
83534W        W44955  25.675  24.690  12.532
83535W        W44956   0.271   3.381  13.850
83536W        W44957   0.420  34.084   3.815
83537W        W44958  10.361  12.293  14.489
83538W        W44959  22.209  24.179   3.751
83539W        W44960  16.132  10.297  13.006
83540W        W44961   0.775  26.200  13.320
83541W        W44962  13.830  41.925   4.286
83542W        W44963   1.465  11.669   1.714
83543W        W44964  16.080   9.675  14.392
83544W        W44965  36.094   6.750  14.381
83545W        W44966  24.505  43.783  12.068
83546W        W44967  23.108  34.383  11.495
83547W        W44968  17.632   1.747  10.536
83548W        W44969  26.633   7.846  12.967
83549W        W44970  39.483  20.594  13.998
83550W        W44971   0.987  34.075   1.827
83551W        W44972  35.399  41.966  11.419
83552W        W44973  34.910  43.420   2.310
83553W        W44974  30.973  20.272   1.728
83554W        W44975  33.468  34.998   2.702
83555W        W44976  18.233  10.259   2.344
83556W        W44977   7.757  16.132  10.931
83557W        W44978  41.366  13.638  13.031
83558W        W44979  13.333  35.525  11.964
83559W        W44980  40.938  43.988  12.831
83560W        W44981  41.843   9.852  12.974
83561W        W44982  19.249   5.386   9.491
83562W        W44983  17.598  37.867   3.709
83563W        W44984  36.576  26.083   1.852
83564W        W44985  39.028  12.248   0.950
83565W        W44986  11.314  13.178   1.800
83566W        W44987  30.937   7.748  14.337
83567W        W44988   7.194   2.937  11.943
83568W        W44989  19.103  10.369  14.969
83569W        W44990   4.259  18.747   3.212
83570W        W44991  10.721  40.965   2.849
83571W        W44992  28.578   2.240   0.244
83572W        W44993   5.703   2.957   3.166
83573W        W44994   6.779  18.593   4.263
83574W        W44995   7.341  25.189  12.870
83575W        W44996  18.287  10.190   3.753
83576W        W44997  32.434  25.171   4.321
83577W        W44998  30.657  37.885  14.418
83578W        W44999  36.432  12.850  14.468
83579W        W45000  44.432  40.922  12.022
83580W        W45001  15.319  32.084   2.226
83581W        W45002  42.339  38.439  14.428
83582W        W45003  15.239  13.834  12.472
83583W        W45004  41.901  19.733  14.939
83584W        W45005   9.706  37.856   4.629
83585W        W45006  30.143  32.009  13.440
83586W        W45007  16.159   1.449   0.312
83587W        W45008  11.135  33.597   4.118
83588W        W45009   7.780  14.610   1.303
83589W        W45010  24.980   3.855   4.114
83590W        W45011  39.326  34.488   2.245
83591W        W45012  24.057  38.907   3.821
83592W        W45013  14.238  39.959   3.153
83593W        W45014   7.818   7.234  12.577
83594W        W45015  35.594   5.836   2.713
83595W        W45016  42.991  25.527   5.255
83596W        W45017  41.521  10.753  13.990
83597W        W45018  40.912  23.687   3.705
83598W        W45019  31.473  32.142   3.801
83599W        W45020  31.113  27.028  11.500
83600W        W45021  43.950  30.473  11.866
83601W        W45022  40.362  10.370   2.823
83602W        W45023  18.733  11.226   1.807
83603W        W45024   3.919   8.391  13.015
83604W        W45025  38.937  11.725  12.388
83605W        W45026  11.857  41.883  13.468
83606W        W45027  20.080  10.289  11.472
83607W        W45028  41.915  23.004  10.568
83608W        W45029  18.559  41.501  13.533
83609W        W45030  36.492  29.559   2.230
83610W        W45031  32.467  44.853  14.871
83611W        W45032   9.651  20.737  11.431
83612W        W45033  10.706  24.582   3.647
83613W        W45034   7.845  15.154   0.938
83614W        W45035  44.384   3.780   0.784
83615W        W45036  29.465  17.608  13.337
83616W        W45037  24.688   1.840   2.882
83617W        W45038  15.677  43.931  12.994
83618W        W45039  33.565  33.938   4.745
83619W        W45040  40.829   8.203   0.437
83620W        W45041  17.765  37.043   2.218
83621W        W45042  30.565   4.344  11.944
83622W        W45043   4.889   6.278  10.062
83623W        W45044   9.803  12.190   4.129
83624W        W45045   5.771  36.378  13.942
83625W        W45046  22.697  30.464   5.096
83626W        W45047  23.100   5.193  12.016
83627W        W45048  17.297  39.316  11.861
83628W        W45049   6.701  11.238  12.973
83629W        W45050  19.052  18.566  11.862
83630W        W45051  30.934  32.074   1.734
83631W        W45052  31.636   8.657  13.046
83632W        W45053  43.932  44.990  11.413
83633W        W45054  10.279  36.529  11.973
83634W        W45055  24.195  41.500  13.944
83635W        W45056  43.768   9.192  13.947
83636W        W45057  34.456   3.719   1.289
83637W        W45058   8.773  27.042   2.373
83638W        W45059  36.978  32.575  13.876
83639W        W45060  24.650   0.381   2.725
83640W        W45061  35.870  20.090  11.550
83641W        W45062  36.519  13.680  10.529
83642W        W45063  10.848  28.465   3.710
83643W        W45064  38.370  35.882   4.182
83644W        W45065  41.366  20.172  12.465
83645W        W45066  26.482  14.241  11.527
83646W        W45067  27.048  20.251   1.249
83647W        W45068  40.443   7.277   0.734
83648W        W45069  36.462  26.180   4.830
83649W        W45070   1.936   5.924   3.740
83650W        W45071  31.085  15.763   4.706
83651W        W45072  25.519  42.906   4.157
83652W        W45073  32.571  25.489  13.976
83653W        W45074   2.877  29.946   1.775
83654W        W45075  27.975  29.433  14.448
83655W        W45076  20.099  25.112   0.812
83656W        W45077  35.038  32.442   0.287
83657W        W45078  31.512   6.861   1.364
83658W        W45079  10.716  15.230  13.388
83659W        W45080  30.421  12.269   1.449
83660W        W45081  37.898  19.614  10.600
83661W        W45082  29.088  40.506   0.751
83662W        W45083   9.777  32.997  10.464
83663W        W45084   2.925  37.075  12.353
83664W        W45085  29.618   9.706   4.157
83665W        W45086  34.438  20.673   1.856
83666W        W45087  37.909  32.064   2.253
83667W        W45088  42.954   0.333   0.792
83668W        W45089  40.472   2.280  13.869
83669W        W45090  14.168  17.578  11.404
83670W        W45091  41.440   9.680  10.628
83671W        W45092  28.056  32.498   4.338
83672W        W45093  37.395   4.895   4.317
83673W        W45094  29.164  19.604   4.747
83674W        W45095  30.148  37.922   0.328
83675W        W45096  39.493   7.692   2.216
83676W        W45097  24.071  31.970  11.038
83677W        W45098  27.943  27.668  11.895
83678W        W45099  42.849   5.378  12.455
83679W        W45100  32.120  42.861   2.317
83680W        W45101   9.651  16.602   2.318
83681W        W45102  21.169  17.671  12.569
83682W        W45103  18.204  37.486  11.593
83683W        W45104  34.864  34.986  10.056
83684W        W45105  24.038  30.910   4.813
83685W        W45106   1.326  28.019   3.823
83686W        W45107  28.119   0.915  11.045
83687W        W45108  40.498  28.984   2.403
83688W        W45109   9.371  16.567   1.275
83689W        W45110   0.384   2.894   3.258
83690W        W45111  12.167  12.773   3.157
83691W        W45112  17.170  12.220  11.086
83692W        W45113  24.651  40.021   3.832
83693W        W45114   3.428  42.395   4.768
83694W        W45115  32.391   9.818   3.670
83695W        W45116  29.999  26.090  10.521
83696W        W45117   0.919  15.305   3.629
83697W        W45118  17.703  42.451  10.933
83698W        W45119   9.203   0.303   4.614
83699W        W45120  12.679  16.780   1.870
83700W        W45121  17.614  25.477   1.867
83701W        W45122  13.782   1.900  14.509
83702W        W45123  40.516   0.412   4.219
83703W        W45124  31.012  12.717   0.433
83704W        W45125  31.093  41.420  10.607
83705W        W45126  22.536  43.397   0.433
83706W        W45127  40.457  15.667   0.314
83707W        W45128  17.708  25.615  10.520
83708W        W45129  12.211  14.210  11.451
83709W        W45130  10.866  14.651   1.766
83710W        W45131  30.471  15.817   3.271
83711W        W45132  34.414   4.720   1.421
83712W        W45133  27.655  33.953   2.812
83713W        W45134  19.216   3.255  11.860
83714W        W45135  29.954  16.230   0.276
83715W        W45136   5.908  14.201  11.467
83716W        W45137  22.743  25.995   4.300
83717W        W45138  13.215  27.131   4.286
83718W        W45139  11.212  36.931  12.047
83719W        W45140  34.469  19.281  13.328
83720W        W45141  26.681   1.423  12.887
83721W        W45142   7.241  26.702   2.830
83722W        W45143  13.719  44.923  12.002
83723W        W45144  23.638  11.644   1.894
83724W        W45145  10.236  15.268  13.970
83725W        W45146  24.633  40.822   4.266
83726W        W45147  38.499  16.701  10.006
83727W        W45148  12.315  11.837  12.393
83728W        W45149  11.307   0.946   4.743
83729W        W45150  32.463  32.536   4.748
83730W        W45151  27.164  41.499   3.334
83731W        W45152  35.398  31.990   3.763
83732W        W45153  15.638  21.685  11.094
83733W        W45154  21.659  39.495  11.552
83734W        W45155   5.398  22.721  14.310
83735W        W45156  35.009  15.324  12.878
83736W        W45157  41.798  14.709   1.725
83737W        W45158  38.040   7.854  10.441
83738W        W45159  33.478  33.395   1.901
83739W        W45160  11.359  32.444  11.899
83740W        W45161  29.436  18.768   0.752
83741W        W45162  33.563  16.185  13.990
83742W        W45163  33.395  14.314   4.320
83743W        W45164  32.914  40.493   1.824
83744W        W45165  33.049   4.385  12.937
83745W        W45166   3.431  34.613   2.380
83746W        W45167   8.662  44.450   0.763
83747W        W45168  11.277  40.317  11.887
83748W        W45169  28.100  33.055  11.867
83749W        W45170   9.381  44.399  10.489
83750W        W45171  39.418  28.504   4.282
83751W        W45172  12.259  35.888   3.794
83752W        W45173  20.540  32.028   2.316
83753W        W45174   7.681  30.526   3.797
83754W        W45175  19.681  42.508  14.872
83755W        W45176  23.199  40.917  14.347
83756W        W45177  14.179  36.895   0.943
83757W        W45178  16.084  32.911   2.388
83758W        W45179  24.627   9.674   0.768
83759W        W45180  30.084  39.855  11.090
83760W        W45181   0.814  21.629  11.600
83761W        W45182   3.402  11.238   1.899
83762W        W45183  25.592  29.020  13.864
83763W        W45184  16.597  19.563  12.500
83764W        W45185  36.936  34.006   2.787
83765W        W45186  30.544  12.187   2.347
83766W        W45187  29.532   1.843   3.824
83767W        W45188  14.665  44.429   2.786
83768W        W45189  38.437  33.024   1.720
83769W        W45190   4.925   8.895  12.980
83770W        W45191   5.918  22.659  11.027
83771W        W45192  21.222  30.109  10.624
83772W        W45193  12.349  44.497   0.470
83773W        W45194  19.686  44.319  11.519
83774W        W45195  21.723   0.749   0.885
83775W        W45196  37.360  36.844  11.464
83776W        W45197  36.419  26.467  12.533
83777W        W45198  13.121   7.255  12.343
83778W        W45199   8.739  38.070  12.888
83779W        W45200  17.745  21.044  10.903
83780W        W45201  26.078  20.593   3.660
83781W        W45202  34.518  25.194  13.794
83782W        W45203  33.617  40.342  10.072
83783W        W45204  43.380  41.385   5.230
83784W        W45205  26.014  17.690   4.295
83785W        W45206  29.041  42.968  14.317
83786W        W45207  27.150   1.358  11.390
83787W        W45208  29.077  12.362  13.513
83788W        W45209  35.880  44.445  14.277
83789W        W45210   1.814  22.746   3.772
83790W        W45211   9.649  27.963   2.812
83791W        W45212  44.936   5.767  14.443
83792W        W45213  40.929   8.819  13.451
83793W        W45214  37.539  31.604  12.361
83794W        W45215  33.106  33.596   1.721
83795W        W45216  44.395   9.234   3.686
83796W        W45217  11.330  28.465   3.180
83797W        W45218  43.475  28.118   0.903
83798W        W45219  38.019  21.519  10.512
83799W        W45220   0.799  13.715   0.774
83800W        W45221  34.087  16.684  13.499
83801W        W45222  31.923   6.783  11.610
83802W        W45223  18.198  39.866  11.117
83803W        W45224  40.952  16.315  12.031
83804W        W45225   9.793   7.326  11.868
83805W        W45226  37.409  26.574   3.827
83806W        W45227  16.229  21.185   4.627
83807W        W45228  15.159  12.277  13.829
83808W        W45229   8.201   7.867   2.385
83809W        W45230  34.510  41.483  10.504
83810W        W45231   8.821  35.088   0.347
83811W        W45232  40.446  21.060   5.152
83812W        W45233  11.135  22.033   0.834
83813W        W45234   6.692  13.232   2.731
83814W        W45235  34.888  22.217   2.240
83815W        W45236  20.148  18.740   3.189
83816W        W45237  15.580  31.004  11.952
83817W        W45238   0.787  27.130  11.970
83818W        W45239   4.725   6.790   2.407
83819W        W45240  19.243  19.248  10.449
83820W        W45241   7.859  32.123  14.983
83821W        W45242   0.945   1.975   5.184
83822W        W45243  34.382  15.156  14.938
83823W        W45244  25.575  18.175  11.894
83824W        W45245  36.454  41.910   1.340
83825W        W45246  41.319  34.015   0.940
83826W        W45247  33.566  15.298   4.808
83827W        W45248  13.213  33.427   5.139
83828W        W45249   0.904  27.574  14.463
83829W        W45250   9.236   9.811  14.934
83830W        W45251  25.535  13.199  14.462
83831W        W45252  37.437  26.070   2.300
83832W        W45253  11.360  40.932   4.758
83833W        W45254  12.739  39.413   1.830
83834W        W45255   5.325   8.190  14.831
83835W        W45256   5.340  25.150  12.418
83836W        W45257  28.477  12.627   3.713
83837W        W45258  37.579  10.666   4.714
83838W        W45259   2.732   5.220   0.291
83839W        W45260   0.271  17.259  13.838
83840W        W45261  42.348   9.248   3.721
83841W        W45262  38.856  16.190   0.823
83842W        W45263  21.541  16.678   3.856
83843W        W45264   9.819  11.149   1.232
83844W        W45265  36.972   7.854  13.375
83845W        W45266   5.378   0.835   2.188
83846W        W45267  42.412   0.787   4.621
83847W        W45268  16.598  29.921   3.694
83848W        W45269  14.321  27.093   3.261
83849W        W45270   3.413   4.294   4.179
83850W        W45271  40.836  44.927   3.785
83851W        W45272   2.345   6.908   0.928
83852W        W45273  38.927  43.398  12.538
83853W        W45274  20.074  22.535  11.431
83854W        W45275  28.948   3.731  12.378
83855W        W45276   9.785  33.937   3.299
83856W        W45277  14.621  13.232  14.934
83857W        W45278   3.396  17.161   3.725
83858W        W45279  32.484   5.286   3.255
83859W        W45280  13.610  29.050  13.942
83860W        W45281  37.951  11.774  14.437
83861W        W45282   0.431   5.351   4.277
83862W        W45283  27.497  27.155  11.381
83863W        W45284   2.338  44.951  11.117
83864W        W45285  37.843  14.720   0.781
83865W        W45286  35.873  16.108  11.874
83866W        W45287   4.442  29.128  10.506
83867W        W45288  42.884  37.895  12.074
83868W        W45289  12.122  39.393   0.428
83869W        W45290  39.376  11.136   1.706
83870W        W45291  33.416  26.562  10.097
83871W        W45292   3.337   5.895   3.786
83872W        W45293  21.118   2.448  14.767
83873W        W45294   6.705  41.377  13.961
83874W        W45295   5.696  37.962  11.127
83875W        W45296   7.671  42.525  14.839
83876W        W45297   0.989  11.646  14.013
83877W        W45298   9.744   5.807   2.788
83878W        W45299   0.429  24.974  11.014
83879W        W45300  15.324  24.179   4.655
83880W        W45301   1.412  38.479   2.765
83881W        W45302  24.655  16.189  14.419
83882W        W45303  25.682   2.721   2.695
83883W        W45304   1.737  36.888   0.453
83884W        W45305  35.441   8.220  11.539
83885W        W45306  25.114  23.635   3.802
83886W        W45307  40.850  32.616   2.758
83887W        W45308   5.921  29.976  14.404
83888W        W45309  37.919  15.603  13.892
83889W        W45310  37.018   7.882  14.961
83890W        W45311  17.750  35.017   4.624
83891W        W45312  11.357  38.962  14.812
83892W        W45313  22.624  22.708  10.101
83893W        W45314  34.473  24.710   3.802
83894W        W45315   8.785  10.748   3.199
83895W        W45316  17.667  13.282  10.613
83896W        W45317   5.862  31.466  13.045
83897W        W45318  10.318  36.450   1.450
83898W        W45319  19.277  12.728   4.718
83899W        W45320  12.217  21.031   3.320
83900W        W45321  15.616  33.498  11.085
83901W        W45322   3.242  15.675  13.516
83902W        W45323  29.096  16.155  10.529
83903W        W45324   1.938  40.386   0.352
83904W        W45325  35.374  27.581   4.280
83905W        W45326  44.484  31.907   3.170
83906W        W45327   0.305   7.908   4.816
83907W        W45328   6.228  31.996   9.970
83908W        W45329   2.924  16.718  13.351
83909W        W45330  10.356   6.187  14.842
83910W        W45331  11.239  25.189  13.977
83911W        W45332   6.189  28.937   0.913
83912W        W45333  25.610  12.172   3.724
83913W        W45334  10.383  21.586   3.354
83914W        W45335  29.024  37.881   3.702
83915W        W45336  14.735  12.738  10.593
83916W        W45337  24.609  12.225  10.628
83917W        W45338   7.800   0.269   2.322
83918W        W45339  30.634  18.071   2.673
83919W        W45340  16.760  22.219  11.420
83920W        W45341  40.464  23.124  13.856
83921W        W45342   7.786  44.359   4.220
83922W        W45343  15.757  44.484  10.608
83923W        W45344  11.862  37.563  12.919
83924W        W45345  36.991  27.497   2.680
83925W        W45346  36.938  21.067  12.032
83926W        W45347  24.510  43.896  13.867
83927W        W45348  30.980  26.101   4.732
83928W        W45349   0.304  11.326  14.803
83929W        W45350  39.415   8.892   1.310
83930W        W45351  24.559  14.184   3.307
83931W        W45352  38.825  21.519  11.964
83932W        W45353   3.872  39.021   3.266
83933W        W45354   2.761  27.966   0.375
83934W        W45355  39.360   1.372   1.371
83935W        W45356  13.124  28.507   0.754
83936W        W45357  27.032  14.336   0.336
83937W        W45358   7.732   7.819  14.028
83938W        W45359  38.018  28.437  11.514
83939W        W45360   5.221  44.261   0.763
83940W        W45361  34.062  14.658   3.316
83941W        W45362  13.270  43.409  11.885
83942W        W45363  14.768  33.490   2.303
83943W        W45364   8.868   5.326   0.906
83944W        W45365   6.812   8.681  11.498
83945W        W45366   5.903  20.557   0.341
83946W        W45367  31.483   4.324  11.435
83947W        W45368  33.480   4.897  13.490
83948W        W45369   4.253  20.658  10.620
83949W        W45370  22.066  39.364  12.007
83950W        W45371   9.246   4.357  11.418
83951W        W45372   8.325  12.826  11.579
83952W        W45373   8.839  28.650  10.482
83953W        W45374   1.367  16.780   2.341
83954W        W45375   6.397  23.108   3.844
83955W        W45376  21.592  25.085   3.212
83956W        W45377  32.460  40.868   2.178
83957W        W45378  40.974   2.935  10.932
83958W        W45379  24.593  27.985   4.284
83959W        W45380  29.129  15.302  13.900
83960W        W45381  28.520  16.253  14.481
83961W        W45382  20.093  34.015   3.193
83962W        W45383  22.532   7.833   2.376
83963W        W45384  15.584  34.916  10.890
83964W        W45385  22.220  23.032  11.459
83965W        W45386  27.609  11.858   1.360
83966W        W45387  42.431   2.318   1.838
83967W        W45388  16.640  14.230   5.643
83968W        W45389   5.722  26.146  14.846
83969W        W45390   0.766  35.089   4.276
83970W        W45391  27.644  26.492   2.305
83971W        W45392  24.660  25.517   0.740
83972W        W45393  27.143  28.018  13.453
83973W        W45394  37.441   4.834   1.859
83974W        W45395  15.269  10.877   4.167
83975W        W45396   8.381  40.999  13.035
83976W        W45397  33.431   5.260  10.892
83977W        W45398  28.111  35.486   0.844
83978W        W45399  21.555  13.690   3.313
83979W        W45400  36.078  22.660  11.504
83980W        W45401  24.064  27.170   4.194
83981W        W45402  27.621  42.362   1.257
83982W        W45403  39.025  18.636   2.685
83983W        W45404  30.606  41.348   0.420
83984W        W45405  21.229  30.616   1.372
83985W        W45406  21.040   8.668  12.451
83986W        W45407   2.281  44.429   4.790
83987W        W45408   7.846  32.459  11.951
83988W        W45409  17.572  20.547   1.337
83989W        W45410   5.787  42.944  11.032
83990W        W45411   9.216  40.322   4.345
83991W        W45412  27.639  26.136   1.266
83992W        W45413  20.684  14.333   1.920
83993W        W45414   6.199   3.725  10.941
83994W        W45415  27.181  15.703   3.833
83995W        W45416   3.756  18.725  12.837
83996W        W45417  26.539  37.460  14.436
83997W        W45418  36.351   1.244  10.487
83998W        W45419  39.060  22.996   0.851
83999W        W45420  32.088  26.665   2.387
84000W        W45421  23.649   7.707  12.524
84001W        W45422  40.016   0.269  13.322
84002W        W45423   4.385  37.338  11.568
84003W        W45424  24.662  43.417  13.012
84004W        W45425   2.813  22.215  14.015
84005W        W45426  26.686   4.898   0.796
84006W        W45427  24.708   5.433  13.534
84007W        W45428   3.905  43.863   4.139
84008W        W45429  36.941   9.747   0.461
84009W        W45430   2.355   1.323  13.832
84010W        W45431   3.715  39.386   4.619
84011W        W45432  28.177  10.351  11.986
84012W        W45433   8.303   3.417   2.374
84013W        W45434  31.958  28.110  10.505
84014W        W45435  13.177  17.700  12.898
84015W        W45436  21.614   6.863  14.905
84016W        W45437   4.247  24.633  11.421
84017W        W45438  23.140   6.264  12.490
84018W        W45439  40.480  14.760  12.875
84019W        W45440  44.415  23.221  11.013
84020W        W45441  23.525  42.002  11.386
84021W        W45442  21.640  42.844   0.836
84022W        W45443  12.745   0.861   2.672
84023W        W45444  16.810  30.935  13.865
84024W        W45445  40.837  44.968  13.865
84025W        W45446  17.721  37.441  10.133
84026W        W45447  10.633  13.731   0.290
84027W        W45448   6.903  26.644  13.043
84028W        W45449   1.334  21.741  11.030
84029W        W45450   2.459  12.730   0.908
84030W        W45451  35.514  34.506   0.398
84031W        W45452  15.730  21.258  11.116
84032W        W45453  25.504  34.975   0.955
84033W        W45454   7.704  12.809   2.843
84034W        W45455  41.931  29.633  10.573
84035W        W45456  43.858  18.206  13.872
84036W        W45457  44.394  14.125  10.961
84037W        W45458  35.572   1.821  12.012
84038W        W45459  38.012  40.411  12.009
84039W        W45460   0.947   3.804   4.193
84040W        W45461  25.534  11.745   2.716
84041W        W45462  44.771   9.687  12.542
84042W        W45463  10.178  15.583   3.289
84043W        W45464  33.947  37.525  12.503
84044W        W45465  10.757  18.658  12.092
84045W        W45466   7.211   6.385  11.930
84046W        W45467  23.143   0.978  12.439
84047W        W45468  18.161  23.082   0.310
84048W        W45469  20.230   0.285  10.914
84049W        W45470  10.669  20.141  12.412
84050W        W45471  18.705   2.272   0.812
84051W        W45472  42.841  16.593   3.146
84052W        W45473  31.925   9.766   0.860
84053W        W45474  29.552  33.598  14.836
84054W        W45475  11.166  20.619  13.546
84055W        W45476  44.976  10.709   1.710
84056W        W45477  25.671  42.985  14.381
84057W        W45478  26.197  38.563  12.398
84058W        W45479  11.800  33.416  11.949
84059W        W45480  33.419  12.196   3.759
84060W        W45481  20.147   1.962   2.242
84061W        W45482  14.116  17.215   2.863
84062W        W45483   7.363  33.486  12.081
84063W        W45484  27.472  21.206   2.821
84064W        W45485  42.928  22.091  10.091
84065W        W45486   2.337  15.606   3.779
84066W        W45487  21.676  23.205   4.139
84067W        W45488  18.244   7.780   2.383
84068W        W45489   9.750   8.673  13.333
84069W        W45490  20.238   2.412  12.072
84070W        W45491  31.013  37.515  13.970
84071W        W45492  11.791  31.968  14.372
84072W        W45493  42.849  34.478  14.462
84073W        W45494  17.273  31.972  13.987
84074W        W45495   6.358   9.758   0.388
84075W        W45496   7.901  39.490  11.108
84076W        W45497  13.152   8.244   3.767
84077W        W45498  32.054  16.165  14.965
84078W        W45499  24.532  32.127  10.499
84079W        W45500  23.674  30.015   1.818
84080W        W45501  28.106   3.939   0.474
84081W        W45502   6.334  19.168   0.387
84082W        W45503  12.156   9.648   1.265
84083W        W45504  32.448  26.495  12.407
84084W        W45505  38.867  25.566   1.423
84085W        W45506  38.859  27.958   1.223
84086W        W45507  39.456  22.109   3.217
84087W        W45508  17.073  43.282   1.276
84088W        W45509  35.388  22.045  11.040
84089W        W45510  34.078  27.095  13.361
84090W        W45511   9.175   6.414  13.039
84091W        W45512   3.279  38.941  14.999
84092W        W45513  10.281  29.502   3.183
84093W        W45514  36.002  44.389  10.904
84094W        W45515  16.107  39.823   0.302
84095W        W45516  11.129  18.234  13.881
84096W        W45517  26.494   6.339   4.273
84097W        W45518  27.495  34.487  10.954
84098W        W45519  34.413  14.164   2.865
84099W        W45520  34.462  15.632  14.368
84100W        W45521   0.904  15.191  10.547
84101W        W45522   5.340  38.839   2.761
84102W        W45523  28.631  11.716  13.528
84103W        W45524  44.909  18.583   2.384
84104W        W45525  36.960  27.677  13.480
84105W        W45526  39.055  35.060  13.517
84106W        W45527  35.970  40.543  12.440
84107W        W45528   5.712  37.070   0.484
84108W        W45529  25.689  13.252  11.422
84109W        W45530   4.835  14.615  14.965
84110W        W45531   0.798  33.465   1.917
84111W        W45532   9.851  32.411   2.754
84112W        W45533  27.039   5.286   2.358
84113W        W45534   1.252  37.558  13.443
84114W        W45535  11.234  42.463   3.217
84115W        W45536  18.706   9.158   3.739
84116W        W45537  35.922  28.582   4.333
84117W        W45538  42.312  17.307  11.875
84118W        W45539  44.942   4.435  11.129
84119W        W45540   5.700  16.803   1.899
84120W        W45541  13.683   6.774   3.699
84121W        W45542  25.591   0.924  11.410
84122W        W45543  20.202  42.988  13.811
84123W        W45544  21.032  14.160  11.448
84124W        W45545   3.902  37.567  14.977
84125W        W45546  39.456  26.179  10.520
84126W        W45547  36.471  18.706   3.378
84127W        W45548   6.314   1.743  10.895
84128W        W45549  44.867   7.666  13.009
84129W        W45550  10.739  20.542   3.830
84130W        W45551   3.337  15.740  13.832
84131W        W45552   7.779  24.038  12.845
84132W        W45553  44.307  13.823  13.023
84133W        W45554   9.781   2.254   3.374
84134W        W45555  28.186  38.020  12.514
84135W        W45556  36.911  22.098   2.355
84136W        W45557  11.134  35.600  13.367
84137W        W45558  40.540  16.199   1.413
84138W        W45559   8.727  10.770   2.367
84139W        W45560  13.272  23.231   1.271
84140W        W45561  10.875  37.342   2.781
84141W        W45562  14.801  14.659   4.640
84142W        W45563  35.427   7.222  10.414
84143W        W45564  20.659  23.568   3.842
84144W        W45565  27.975   3.236  12.995
84145W        W45566  38.486  28.092  11.536
84146W        W45567  13.192   0.307  10.622
84147W        W45568   4.448   1.376   3.283
84148W        W45569  29.503  31.590  10.904
84149W        W45570  43.314  40.329  14.939
84150W        W45571  21.214   8.710  12.879
84151W        W45572   3.908  32.121   1.713
84152W        W45573  34.066   4.257   1.247
84153W        W45574  43.832   3.439  12.089
84154W        W45575  29.099  27.512  12.980
84155W        W45576   2.803  36.550  14.795
84156W        W45577  21.252  37.441   3.810
84157W        W45578  41.966   4.409  14.974
84158W        W45579  28.473  29.502  13.952
84159W        W45580  27.663  36.442  12.873
84160W        W45581  38.862   7.694  11.875
84161W        W45582   1.327  10.187  13.399
84162W        W45583  11.304  36.404  11.889
84163W        W45584  28.018  16.732   3.287
84164W        W45585  28.956  28.572   1.450
84165W        W45586   3.456  37.343   1.809
84166W        W45587  25.655   1.795  13.512
84167W        W45588  17.583  24.565   0.302
84168W        W45589  39.029  14.301   4.211
84169W        W45590  35.597  19.211  12.381
84170W        W45591  44.483   5.718   2.768
84171W        W45592  22.202  24.018   0.402
84172W        W45593  26.200  34.551  13.940
84173W        W45594   1.731  20.079   1.712
84174W        W45595  19.743  41.434   3.656
84175W        W45596  22.626  31.648   3.199
84176W        W45597   3.939  22.543   1.742
84177W        W45598  31.900  14.117   3.178
84178W        W45599   9.694  12.230  13.336
84179W        W45600  24.561  36.485  13.319
84180W        W45601  13.326  32.476   4.130
84181W        W45602  22.141  14.294  11.122
84182W        W45603  22.078  37.956  14.299
84183W        W45604  38.054  31.020  13.008
84184W        W45605  42.936  22.565   2.223
84185W        W45606  40.514  39.863   3.319
84186W        W45607  25.133   5.724   3.774
84187W        W45608  34.383  43.768  14.833
84188W        W45609   8.208  21.246   0.886
84189W        W45610   1.768  18.172   0.887
84190W        W45611   8.223  15.310   2.216
84191W        W45612  38.552  15.668   0.746
84192W        W45613  18.761  43.391   1.708
84193W        W45614  11.238  24.044  11.040
84194W        W45615  19.679  33.971  10.617
84195W        W45616   0.344  44.904   4.838
84196W        W45617  24.563  10.789  12.046
84197W        W45618  29.606  37.905  11.093
84198W        W45619  21.624  20.124   2.195
84199W        W45620  42.358  20.679  12.436
84200W        W45621   2.264   8.395   3.344
84201W        W45622  15.627   7.865   0.953
84202W        W45623  11.707  21.645  10.900
84203W        W45624  22.044  11.651   3.789
84204W        W45625  11.676  27.501   4.346
84205W        W45626  14.272  27.103  13.521
84206W        W45627  31.907   1.813  11.064
84207W        W45628  43.445   5.738   1.702
84208W        W45629  10.342  34.497  13.910
84209W        W45630  22.043  34.613   2.277
84210W        W45631  19.188  43.964  12.371
84211W        W45632   8.183  22.129  14.431
84212W        W45633   9.680  36.944  11.985
84213W        W45634  37.997  30.573   3.290
84214W        W45635  39.999  23.499   2.399
84215W        W45636  44.865  21.535  14.961
84216W        W45637  31.117  19.617   4.720
84217W        W45638  34.873  27.560   2.234
84218W        W45639  12.623  11.830   5.174
84219W        W45640   1.362  19.217  11.582
84220W        W45641  10.803  32.964  11.450
84221W        W45642  39.919   0.463  11.450
84222W        W45643  17.238  37.945   0.818
84223W        W45644  17.280  10.346  12.397
84224W        W45645   4.328   0.808  12.845
84225W        W45646  37.471  32.509   2.804
84226W        W45647   1.464  38.066  14.851
84227W        W45648  26.516  22.551  12.364
84228W        W45649  30.589  30.082  12.433
84229W        W45650  21.048  36.356   2.673
84230W        W45651   1.969  22.189   4.114
84231W        W45652  24.650  35.558   3.260
84232W        W45653  10.373  22.647   4.160
84233W        W45654  29.043  35.525  13.822
84234W        W45655  12.673  30.573   9.978
84235W        W45656  32.916  23.555   2.746
84236W        W45657  14.131  36.524  14.995
84237W        W45658  43.314   9.686   4.807
84238W        W45659  18.084  18.692   3.844
84239W        W45660  11.664   4.257  10.537
84240W        W45661  16.632  20.080  13.310
84241W        W45662  17.260  21.259   1.218
84242W        W45663   3.923  23.566   3.785
84243W        W45664  33.895   0.854   9.597
84244W        W45665  42.929  20.628  10.436
84245W        W45666  39.442  10.717   0.768
84246W        W45667  22.604   7.394   9.563
84247W        W45668  31.141  28.605  14.976
84248W        W45669   4.889  37.542   3.384
84249W        W45670  14.327  43.978   3.181
84250W        W45671  11.664   4.260  13.427
84251W        W45672   3.344  39.965   1.767
84252W        W45673  20.647  36.503   0.354
84253W        W45674  27.018  15.312  11.095
84254W        W45675  41.454   4.246  14.466
84255W        W45676  41.012  41.036   0.726
84256W        W45677   9.816  39.994  11.464
84257W        W45678  39.396  11.821   9.525
84258W        W45679  14.305  39.987   1.239
84259W        W45680  14.803  23.612   3.170
84260W        W45681  28.162  11.649   2.883
84261W        W45682  27.057  14.267   5.116
84262W        W45683  20.673  33.454   0.935
84263W        W45684  44.985  13.781   0.882
84264W        W45685   5.768  37.339  13.823
84265W        W45686  14.260  35.074   0.411
84266W        W45687  21.594  26.081  14.347
84267W        W45688  17.173  36.905  14.808
84268W        W45689  30.547  25.153  14.293
84269W        W45690  32.583  38.068   2.703
84270W        W45691  41.455   6.684  12.033
84271W        W45692   9.275  43.945  12.540
84272W        W45693  33.949   6.876  13.833
84273W        W45694  29.558   5.331   2.223
84274W        W45695  26.997  40.504  14.859
84275W        W45696  24.041  12.768   3.765
84276W        W45697  21.757   7.736  12.885
84277W        W45698  10.695  27.672  13.006
84278W        W45699  37.978  19.668   0.364
84279W        W45700  18.765  37.902  14.927
84280W        W45701  29.080  38.970  10.449
84281W        W45702  12.855  29.139  12.894
84282W        W45703  30.418  41.471  13.857
84283W        W45704  12.165   9.853   1.905
84284W        W45705  12.164  32.614  13.039
84285W        W45706  34.930  28.032   0.727
84286W        W45707  17.201  19.104   1.345
84287W        W45708  35.914  18.079   1.341
84288W        W45709   3.385  37.957  14.360
84289W        W45710  25.654  38.006  12.513
84290W        W45711  43.872   3.955   2.369
84291W        W45712  13.158   2.234   2.860
84292W        W45713  27.523  26.067   3.370
84293W        W45714   9.327  18.237  11.471
84294W        W45715   1.742  37.868  10.947
84295W        W45716  15.302  15.790   2.228
84296W        W45717  41.949  39.361  12.894
84297W        W45718  29.986  44.270  13.518
84298W        W45719  41.479  24.617   2.899
84299W        W45720  10.763  27.079  10.531
84300W        W45721  23.705  43.319   4.114
84301W        W45722  35.389  16.170   1.809
84302W        W45723  21.058  35.557  13.353
84303W        W45724  20.272  33.497   3.837
84304W        W45725  24.571  38.997   1.288
84305W        W45726  26.647  34.033   2.800
84306W        W45727  23.195  14.739   3.793
84307W        W45728  20.697  27.686  12.097
84308W        W45729   3.937   1.362   3.712
84309W        W45730  41.798   7.793   0.351
84310W        W45731  39.550  44.380  10.085
84311W        W45732  39.542   0.472   2.357
84312W        W45733  32.997  26.499   4.837
84313W        W45734  40.022   3.749  10.454
84314W        W45735  27.624  20.243   0.426
84315W        W45736   8.897   9.754  14.454
84316W        W45737  33.895  12.840   1.786
84317W        W45738  12.762   2.934  12.908
84318W        W45739   9.205  19.123  11.425
84319W        W45740  26.605  28.974  13.414
84320W        W45741   2.762   4.262   1.842
84321W        W45742  33.547  35.570   1.770
84322W        W45743  44.360  37.944  10.899
84323W        W45744  10.683  21.591   2.733
84324W        W45745  41.892   7.669  11.574
84325W        W45746  42.814  26.205  10.893
84326W        W45747  36.453  17.195   5.090
84327W        W45748  19.678  34.461   0.401
84328W        W45749   1.304  32.119   1.269
84329W        W45750  12.820  18.186  12.355
84330W        W45751  20.735  18.752   0.425
84331W        W45752  23.490  23.632  11.422
84332W        W45753  11.785   9.230   3.856
84333W        W45754  15.613  39.923  14.969
84334W        W45755  16.749  43.308  11.390
84335W        W45756  23.037  18.226  12.986
84336W        W45757  15.100  19.558   4.251
84337W        W45758  18.546  34.536  11.509
84338W        W45759  37.931  26.645  14.943
84339W        W45760  29.591  12.852   0.907
84340W        W45761   4.300  44.910   3.186
84341W        W45762  38.063  34.971   0.862
84342W        W45763  23.228   3.344  14.923
84343W        W45764  15.182   5.771   1.821
84344W        W45765  21.082  27.629   4.727
84345W        W45766  16.803  42.932  12.869
84346W        W45767  21.605  44.986   4.603
84347W        W45768  23.564  24.529   0.952
84348W        W45769   5.198   7.821   1.305
84349W        W45770  34.431  18.774  13.057
84350W        W45771  23.612  12.344   2.190
84351W        W45772   0.248  35.365  13.901
84352W        W45773  19.253   9.861  14.489
84353W        W45774   3.243  44.407  10.495
84354W        W45775   7.171  30.553   4.197
84355W        W45776  27.954  33.397  13.307
84356W        W45777  39.878   6.264   3.766
84357W        W45778  34.925  17.214   2.690
84358W        W45779  23.024  27.969  13.858
84359W        W45780  39.894  36.381  13.414
84360W        W45781  21.181  22.156  12.417
84361W        W45782  23.023  16.276   2.231
84362W        W45783  13.168   3.367   1.902
84363W        W45784  19.046  34.897  14.809
84364W        W45785  40.342   8.297  14.327
84365W        W45786  11.638   6.384   0.863
84366W        W45787  26.598  41.970   0.901
84367W        W45788  27.675  24.988  12.843
84368W        W45789  39.405  35.893   3.845
84369W        W45790   7.226  22.588   2.832
84370W        W45791   2.430  42.006   2.238
84371W        W45792  24.109  13.718   1.230
84372W        W45793  27.008  17.186   2.788
84373W        W45794  44.929  31.545   0.729
84374W        W45795  21.609  39.553   3.716
84375W        W45796  24.722  31.496   1.753
84376W        W45797   7.180  17.250   2.709
84377W        W45798  26.461  18.061   1.330
84378W        W45799  10.761  43.366  14.948
84379W        W45800   2.468  13.784   0.256
84380W        W45801   8.280  30.973   3.836
84381W        W45802  17.150  31.131  14.908
84382W        W45803  29.592   3.379  11.546
84383W        W45804  32.108  35.584  10.632
84384W        W45805  22.160  34.418  12.444
84385W        W45806  42.300  24.144  11.400
84386W        W45807  32.625  43.298   3.656
84387W        W45808  28.571  13.823  10.521
84388W        W45809  13.253  38.860  12.044
84389W        W45810  43.900   9.803   0.801
84390W        W45811   8.188  13.696  13.059
84391W        W45812  28.467  10.159  12.546
84392W        W45813   4.877   7.288  14.427
84393W        W45814  42.486  42.928  12.440
84394W        W45815  37.986  25.044  12.920
84395W        W45816  25.687  10.739   0.411
84396W        W45817  10.205  24.494   1.712
84397W        W45818  30.041  27.612  14.352
84398W        W45819  21.200   9.238   2.710
84399W        W45820  31.559  29.425   3.762
84400W        W45821  33.519  27.987  10.492
84401W        W45822  29.929  28.057   3.650
84402W        W45823  42.407  13.637   3.630
84403W        W45824   4.275  44.503  14.412
84404W        W45825  34.460   2.463  12.850
84405W        W45826  21.673  21.057  10.988
84406W        W45827  14.775  21.565   0.270
84407W        W45828  28.002   3.851   4.164
84408W        W45829  40.004  27.602   0.754
84409W        W45830  24.072  33.447  11.993
84410W        W45831  14.235   7.822  13.522
84411W        W45832  13.814  42.980   3.213
84412W        W45833  25.548  15.620  10.966
84413W        W45834  10.285  14.781   2.873
84414W        W45835  21.568   1.935   1.408
84415W        W45836  33.575   7.766  13.334
84416W        W45837  28.180  37.929  11.542
84417W        W45838  15.752  25.474  12.854
84418W        W45839  12.227  25.187   1.408
84419W        W45840   2.960  13.677  11.014
84420W        W45841   2.299  17.762  14.932
84421W        W45842  39.003  11.285  11.393
84422W        W45843  19.548  13.349  11.473
84423W        W45844  10.163  42.437   0.368
84424W        W45845  36.973   3.274  14.362
84425W        W45846   5.816  43.923   2.348
84426W        W45847   7.261   7.379   4.336
84427W        W45848  29.960  11.832   5.669
84428W        W45849  38.990  30.100   4.610
84429W        W45850   0.484  16.629   0.380
84430W        W45851  23.019  37.365   0.794
84431W        W45852  10.298  30.028   4.787
84432W        W45853   0.270   2.312   3.181
84433W        W45854  10.842  11.867  10.613
84434W        W45855  12.634  43.465  14.393
84435W        W45856  18.634  39.836   1.829
84436W        W45857  21.669  30.019   1.268
84437W        W45858   8.175  26.578  11.875
84438W        W45859  33.067  12.695   1.406
84439W        W45860  11.688  15.639  14.294
84440W        W45861   8.234   6.363  12.928
84441W        W45862  38.820   5.876   2.332
84442W        W45863  29.519  21.753  13.498
84443W        W45864  22.619  28.158  13.531
84444W        W45865   7.840  15.271  14.459
84445W        W45866  22.228  44.957   1.280
84446W        W45867  43.865  32.547   1.861
84447W        W45868  44.439  35.085  11.452
84448W        W45869  40.467  35.582   4.797
84449W        W45870   8.658  35.853  14.904
84450W        W45871   9.272  29.024   2.274
84451W        W45872  14.111  24.096  12.842
84452W        W45873  40.868  44.447   3.278
84453W        W45874   6.346  25.551  14.405
84454W        W45875   8.756  43.853  12.043
84455W        W45876  33.394  24.609   0.798
84456W        W45877  31.574  28.544   1.868
84457W        W45878  33.506   2.290   0.895
84458W        W45879  33.391  24.212   4.232
84459W        W45880  27.611  43.360  10.469
84460W        W45881  22.996  35.092   0.349
84461W        W45882   7.851  31.132   1.867
84462W        W45883  19.238  28.438   3.288
84463W        W45884  19.539  18.069  14.950
84464W        W45885  35.573  24.986  14.475
84465W        W45886  26.205   7.266  12.843
84466W        W45887   5.439  32.088  11.608
84467W        W45888  24.572  33.119   0.450
84468W        W45889  30.648  43.766   1.858
84469W        W45890   4.743  24.653   3.801
84470W        W45891   4.368  34.514   4.280
84471W        W45892  32.893  42.886  12.445
84472W        W45893  13.612   2.780   1.325
84473W        W45894  12.352  20.078   2.227
84474W        W45895  19.109  40.428  12.019
84475W        W45896  31.113  30.477   2.791
84476W        W45897  42.369  30.068   1.920
84477W        W45898   1.375  11.191  11.560
84478W        W45899  43.374   7.880  13.318
84479W        W45900  18.150  29.921  10.957
84480W        W45901  37.000  37.972   4.281
84481W        W45902  22.229  38.972   0.751
84482W        W45903  33.091   4.724  12.988
84483W        W45904  42.413  15.626  11.100
84484W        W45905  26.483  35.515   4.694
84485W        W45906  19.650   6.804   5.566
84486W        W45907  34.967  28.957   3.830
84487W        W45908  38.949  16.783  11.382
84488W        W45909  12.825  22.154   0.934
84489W        W45910  18.186  43.486   1.876
84490W        W45911  25.063  36.969  14.867
84491W        W45912  14.591  42.496   3.289
84492W        W45913  41.421  32.083  11.551
84493W        W45914  22.235  13.780   3.702
84494W        W45915  30.992   3.425  14.784
84495W        W45916   3.289  36.572  14.507
84496W        W45917   2.777  24.724   1.854
84497W        W45918   0.477  19.101  12.528
84498W        W45919  31.909  18.787   2.188
84499W        W45920  27.194   4.240   0.471
84500W        W45921   6.914  17.632   4.752
84501W        W45922  10.641  18.160   1.384
84502W        W45923  29.988  11.134  10.956
84503W        W45924   1.973  42.333  11.084
84504W        W45925  22.051  15.112  13.500
84505W        W45926  35.875  42.291   2.878
84506W        W45927   5.395  21.103   4.795
84507W        W45928   0.483  31.989   1.257
84508W        W45929   8.394  42.940   4.116
84509W        W45930   8.669  43.448  14.822
84510W        W45931  12.314   4.343   1.846
84511W        W45932  12.216  22.131  14.880
84512W        W45933  39.489  11.207  12.433
84513W        W45934  25.105  17.212  10.903
84514W        W45935  15.683  25.573   4.829
84515W        W45936  37.843  28.493   1.309
84516W        W45937  10.266  42.781   2.873
84517W        W45938  24.087  15.179  12.438
84518W        W45939  14.671   8.237  12.446
84519W        W45940   0.358   2.429   1.242
84520W        W45941  33.595  20.696   2.689
84521W        W45942  40.351  35.906   2.690
84522W        W45943  44.332  20.606   4.755
84523W        W45944  38.487  40.963   3.867
84524W        W45945   3.737   3.386  10.929
84525W        W45946  12.352  28.036   1.856
84526W        W45947  36.437  14.809   4.156
84527W        W45948  17.590  21.681  14.002
84528W        W45949  18.587  12.821  14.433
84529W        W45950  19.583  27.611  13.972
84530W        W45951  30.994  38.418  12.957
84531W        W45952  17.728  44.367  12.037
84532W        W45953  39.830  15.588  12.557
84533W        W45954  35.879  23.518   1.752
84534W        W45955  23.660   0.763  12.351
84535W        W45956  13.641  29.943   2.226
84536W        W45957   7.700  31.449  14.372
84537W        W45958   7.863  15.183  11.965
84538W        W45959  41.498  42.322   4.174
84539W        W45960  38.540  40.320  11.870
84540W        W45961  35.854  14.709  13.314
84541W        W45962  34.576  33.120   0.923
84542W        W45963  43.407   4.397   3.834
84543W        W45964  14.817  13.718  12.358
84544W        W45965  16.791  18.745  14.816
84545W        W45966   2.925   2.390  14.337
84546W        W45967  44.008  37.346  10.443
84547W        W45968  44.312  36.044  14.433
84548W        W45969  29.515  10.781  13.385
84549W        W45970   2.308   5.392   4.657
84550W        W45971  22.062  25.968  12.869
84551W        W45972  18.257  21.018  11.472
84552W        W45973  25.511  10.211  13.007
84553W        W45974  20.188  29.957   3.857
84554W        W45975  18.648  43.341   3.804
84555W        W45976  42.980  38.563  14.455
84556W        W45977  20.724  19.169   2.320
84557W        W45978  10.171  30.558  11.593
84558W        W45979   6.285  15.140  14.302
84559W        W45980  35.084  32.605   2.791
84560W        W45981   4.901  29.651   0.845
84561W        W45982   0.393  19.622   3.753
84562W        W45983  33.127  30.092   4.731
84563W        W45984  18.555  35.985   1.737
84564W        W45985  16.287   5.236  11.889
84565W        W45986  30.614  38.338  10.530
84566W        W45987  28.963  33.934   4.698
84567W        W45988  10.817   2.940  10.451
84568W        W45989   4.324  16.597  14.953
84569W        W45990   3.885  34.583   4.323
84570W        W45991  16.306   0.318   3.170
84571W        W45992  40.538  35.941   0.800
84572W        W45993  33.479  15.613  12.565
84573W        W45994  31.500  38.389  14.505
84574W        W45995  26.188  18.736  11.608
84575W        W45996  15.651  23.525  13.487
84576W        W45997  18.619  31.940  10.494
84577W        W45998   3.225  19.726   1.879
84578W        W45999  44.828  42.023  13.028
84579W        W46000  20.183   8.323   1.298
84580W        W46001  17.151  34.413  14.426
84581W        W46002  13.724  14.796  14.933
84582W        W46003  11.130  31.930  11.413
84583W        W46004  31.976   2.270   9.651
84584W        W46005  44.841  23.036  12.024
84585W        W46006  31.036  40.950  13.529
84586W        W46007  32.972  27.195  14.377
84587W        W46008  28.502   6.793   3.329
84588W        W46009  14.220  15.642   1.781
84589W        W46010  27.475  24.636   0.258
84590W        W46011  17.678   6.401  13.961
84591W        W46012  38.917  20.731  11.387
84592W        W46013  35.934   7.369   4.222
84593W        W46014  32.437   0.249  14.806
84594W        W46015   8.259  36.904  14.402
84595W        W46016  41.791   8.383   3.273
84596W        W46017  26.637  35.055   0.259
84597W        W46018  32.605  21.525  13.873
84598W        W46019  17.674  20.542  11.012
84599W        W46020  29.134  11.197   4.762
84600W        W46021  44.358  29.516   4.307
84601W        W46022  21.199  44.270   2.415
84602W        W46023   8.275   2.323  11.915
84603W        W46024  17.069  41.325  12.064
84604W        W46025  15.649  10.333  11.605
84605W        W46026  40.044  23.072  14.832
84606W        W46027  22.621  37.558  11.601
84607W        W46028   4.251  31.079   0.918
84608W        W46029  11.309   1.966   3.697
84609W        W46030  22.221   7.253  13.505
84610W        W46031  36.942   5.193  12.872
84611W        W46032  25.975  39.442   3.347
84612W        W46033  22.185   3.951  13.327
84613W        W46034   2.370  34.993   0.900
84614W        W46035  13.835   3.450  14.972
84615W        W46036  44.791  16.714   0.303
84616W        W46037  41.991  29.946  13.843
84617W        W46038  32.636   6.199   0.742
84618W        W46039  37.360  33.089   2.283
84619W        W46040   5.920  22.602  13.485
84620W        W46041   5.432  28.530   2.730
84621W        W46042  24.654   3.395   5.257
84622W        W46043  29.647   9.325  13.929
84623W        W46044  41.906  23.106   2.403
84624W        W46045   6.845  20.539   0.455
84625W        W46046  36.416  10.735   4.687
84626W        W46047  19.121  11.314  12.986
84627W        W46048  33.389  24.020  11.535
84628W        W46049  23.558  17.210   3.183
84629W        W46050  11.809  23.204   0.328
84630W        W46051   5.309   5.700   0.896
84631W        W46052  33.539  28.598   2.798
84632W        W46053  10.854   3.323   0.853
84633W        W46054  15.136  44.393   2.228
84634W        W46055  16.269  10.824  14.461
84635W        W46056  28.108   2.341  14.378
84636W        W46057  25.205  42.872  14.837
84637W        W46058  30.995   1.850  13.367
84638W        W46059  28.946  30.954   0.943
84639W        W46060  25.694   9.249  12.501
84640W        W46061  20.568  15.119   0.418
84641W        W46062  11.751  43.489  10.449
84642W        W46063  40.958  29.492   3.167
84643W        W46064   2.852  19.065   2.326
84644W        W46065  17.726   6.220   2.794
84645W        W46066  22.662  22.639   5.195
84646W        W46067  10.260  11.322  14.438
84647W        W46068  28.071  38.417  13.915
84648W        W46069  38.439  24.052  13.410
84649W        W46070   9.660  31.120  14.275
84650W        W46071  19.153   0.369  13.057
84651W        W46072  28.007   7.241   0.255
84652W        W46073  21.646  42.951  13.369
84653W        W46074  14.776  43.515  13.373
84654W        W46075  20.642   1.296   4.771
84655W        W46076   7.187   1.839  13.942
84656W        W46077  20.697   0.448  11.557
84657W        W46078  19.677  43.435  11.982
84658W        W46079   8.673  27.680   0.340
84659W        W46080  26.955  19.734   1.397
84660W        W46081  20.270  20.567  12.511
84661W        W46082  40.889  36.038   1.443
84662W        W46083  25.620  44.968  13.063
84663W        W46084  37.067   2.377   4.627
84664W        W46085  33.915  23.029   0.354
84665W        W46086  26.139   7.729  14.773
84666W        W46087  35.374  18.697   2.215
84667W        W46088  25.693  21.096  11.387
84668W        W46089  17.175  18.720   0.831
84669W        W46090   2.420  31.486  11.900
84670W        W46091  24.600  18.267  10.419
84671W        W46092  10.177  19.211   1.799
84672W        W46093  12.665  21.552   2.261
84673W        W46094  36.972  41.405   3.321
84674W        W46095  32.110  17.762  11.856
84675W        W46096  35.540   5.861   5.620
84676W        W46097  28.014  24.147   1.270
84677W        W46098  13.689  19.623   1.855
84678W        W46099  15.176  21.083   3.858
84679W        W46100  10.771   6.372   1.918
84680W        W46101  28.545   9.802  11.584
84681W        W46102  28.932  31.020   4.215
84682W        W46103  32.540  40.365   3.787
84683W        W46104   3.956   8.377   1.434
84684W        W46105  33.916  24.008  13.872
84685W        W46106  41.424  36.473  10.514
84686W        W46107  24.592  36.943  11.596
84687W        W46108   1.300   0.398  12.058
84688W        W46109   0.463   2.793   0.810
84689W        W46110  13.608  14.777   3.739
84690W        W46111   1.265  43.381  13.016
84691W        W46112  11.360  31.062   3.217
84692W        W46113  11.856  34.398   2.692
84693W        W46114   1.912   9.161  14.799
84694W        W46115  40.515  31.646  10.540
84695W        W46116   4.250  30.598   0.393
84696W        W46117   9.750  28.148   1.703
84697W        W46118  19.632  30.009  12.533
84698W        W46119  34.004  30.603  13.464
84699W        W46120  38.928   4.760  14.439
84700W        W46121   7.872   5.828   4.773
84701W        W46122  32.027  35.957   4.208
84702W        W46123   2.730  38.492  12.844
84703W        W46124  40.492  30.482   0.936
84704W        W46125  17.723  31.927  11.514
84705W        W46126  28.436   7.790   0.965
84706W        W46127   9.697  32.053   1.450
84707W        W46128  29.572  32.400   4.658
84708W        W46129  23.610  10.249  13.482
84709W        W46130   6.296  43.013   5.266
84710W        W46131  28.631  39.008   0.799
84711W        W46132  15.712  33.538   1.733
84712W        W46133  26.958  12.347  10.516
84713W        W46134  41.888  11.151   0.316
84714W        W46135  10.281  33.109   1.362
84715W        W46136   9.209  18.759   4.289
84716W        W46137   9.723  17.566  11.007
84717W        W46138  41.786  13.296  11.106
84718W        W46139   4.807  17.751  12.469
84719W        W46140  43.977  19.284   2.828
84720W        W46141   3.896  23.703  13.539
84721W        W46142  21.212  40.994   1.306
84722W        W46143  27.089  44.949   3.861
84723W        W46144   6.857  20.166  13.498
84724W        W46145  26.038  22.598  12.466
84725W        W46146  27.464  35.101  12.401
84726W        W46147  15.219  40.322   1.916
84727W        W46148  11.127   0.484  11.901
84728W        W46149  40.484  36.058   3.638
84729W        W46150  18.671  20.257   0.404
84730W        W46151  25.976  36.465  13.993
84731W        W46152  21.066  24.190  12.405
84732W        W46153  30.511  26.540   1.697
84733W        W46154  41.304  22.556   0.259
84734W        W46155  28.120  35.983   4.677
84735W        W46156  42.008  24.533   4.270
84736W        W46157  43.291  24.047  13.018
84737W        W46158  38.001   8.792   2.686
84738W        W46159   9.256   5.219  14.845
84739W        W46160   6.405  24.656  12.933
84740W        W46161  42.361  23.994  12.905
84741W        W46162  18.183  13.171  11.556
84742W        W46163   3.840  24.123   2.276
84743W        W46164  17.165  24.688  10.973
84744W        W46165  35.506  35.433  10.964
84745W        W46166  10.219  29.031  13.931
84746W        W46167  23.653  44.488   0.783
84747W        W46168  17.245  21.702  11.974
84748W        W46169  29.008  34.412   0.925
84749W        W46170   8.324  43.330  10.581
84750W        W46171  15.307  24.158   4.269
84751W        W46172  22.657  10.258   0.849
84752W        W46173  29.585   1.394  12.553
84753W        W46174  17.694  35.886   3.680
84754W        W46175  13.676  31.098   0.310
84755W        W46176  26.593  31.439   0.955
84756W        W46177   0.918  44.325  12.364
84757W        W46178  42.387  24.667  12.825
84758W        W46179  25.663   3.772  10.640
84759W        W46180  21.648  40.009   0.957
84760W        W46181   6.329   1.833  13.511
84761W        W46182  24.140  17.728  13.437
84762W        W46183   4.358  34.086   1.445
84763W        W46184   5.381   7.242  14.972
84764W        W46185  21.238   0.293  12.010
84765W        W46186  16.759   0.939  14.986
84766W        W46187  25.675   3.741   4.605
84767W        W46188  12.253  14.180  12.387
84768W        W46189  38.496  22.504   0.480
84769W        W46190  12.808   9.173  11.127
84770W        W46191  10.265  13.774   1.244
84771W        W46192   6.900   2.363  12.029
84772W        W46193   2.752  19.273  13.043
84773W        W46194  41.424  17.176   1.843
84774W        W46195  37.024  31.904  10.637
84775W        W46196   2.799   4.276   4.263
84776W        W46197  22.224   8.290  11.875
84777W        W46198  23.729  22.640   4.206
84778W        W46199  16.291  28.045   4.250
84779W        W46200  27.579  25.598   4.606
84780W        W46201  32.101  34.961   2.787
84781W        W46202  15.705  41.308   3.674
84782W        W46203  17.234  16.228   4.639
84783W        W46204  12.664  23.621  13.351
84784W        W46205  41.857  22.156  11.970
84785W        W46206  14.612  15.287   1.717
84786W        W46207  43.964  41.416  12.869
84787W        W46208  12.723  20.262   2.746
84788W        W46209  12.747  34.069  11.046
84789W        W46210  27.195  44.777  11.959
84790W        W46211  33.579   0.843  14.861
84791W        W46212   6.264   9.159   4.118
84792W        W46213  36.577   4.943   2.757
84793W        W46214  39.853  26.593   1.353
84794W        W46215  37.507  24.987  12.526
84795W        W46216  22.572  40.046  14.399
84796W        W46217  42.013  31.408  14.854
84797W        W46218  39.387  16.156  13.873
84798W        W46219   1.439  23.637   2.859
84799W        W46220  10.180   9.245  13.406
84800W        W46221  22.612  39.354  11.979
84801W        W46222   0.446  41.854   2.249
84802W        W46223  41.904  36.489   4.222
84803W        W46224  42.495   1.867   1.367
84804W        W46225  21.235  21.146   2.276
84805W        W46226   0.381  35.932  14.892
84806W        W46227  27.469  16.602  12.015
84807W        W46228   7.409  28.520   1.773
84808W        W46229  39.061  36.433  12.900
84809W        W46230  23.731  22.672  11.905
84810W        W46231  42.381  32.487   3.266
84811W        W46232  32.129  24.550  14.453
84812W        W46233  34.612   3.817   4.604
84813W        W46234  40.401  41.353  14.487
84814W        W46235   0.885  33.032  10.474
84815W        W46236  20.090  40.033   1.248
84816W        W46237  42.932  38.916  11.454
84817W        W46238  39.957  29.133   1.788
84818W        W46239  12.165  36.868  12.006
84819W        W46240  43.787  31.518   1.839
84820W        W46241  13.709  22.737  12.949
84821W        W46242  13.115  17.668  13.396
84822W        W46243  22.700  25.180   0.896
84823W        W46244  14.681   9.736  13.987
84824W        W46245  29.040   4.309   3.775
84825W        W46246   9.755  17.103   4.769
84826W        W46247  14.737  16.590   3.706
84827W        W46248  38.504   2.318  10.473
84828W        W46249  23.019  37.055  13.925
84829W        W46250   1.831   8.668   4.772
84830W        W46251  44.314   3.940  14.881
84831W        W46252  15.200  20.682  14.285
84832W        W46253  19.199  27.669   0.257
84833W        W46254   6.833   1.925  14.343
84834W        W46255  19.042  20.764   2.794
84835W        W46256  11.279  41.021  14.479
84836W        W46257   6.210  31.572  13.859
84837W        W46258   5.806   8.851   0.358
84838W        W46259  29.581  14.136  13.477
84839W        W46260  29.143   9.155  14.392
84840W        W46261  11.747  41.336  10.572
84841W        W46262   6.206  12.178   4.761
84842W        W46263  41.830  22.229   3.715
84843W        W46264   3.925  15.665   2.735
84844W        W46265  22.029  38.914  14.490
84845W        W46266   3.713  17.105  12.361
84846W        W46267  17.277   5.800   9.988
84847W        W46268  26.125  28.109  12.031
84848W        W46269  21.121  13.647   5.152
84849W        W46270   6.745   1.293   0.345
84850W        W46271  15.243   7.870   0.881
84851W        W46272  21.119   0.330  10.990
84852W        W46273  29.529  41.828   4.657
84853W        W46274  23.115  11.708  11.933
84854W        W46275  39.927   2.442  14.894
84855W        W46276  24.164   1.903   2.806
84856W        W46277   5.867  10.200   3.725
84857W        W46278  22.532  19.098  14.375
84858W        W46279  32.935  20.079   2.377
84859W        W46280  33.045  25.147  12.023
84860W        W46281  22.137  10.149   0.277
84861W        W46282  35.058  33.921   1.399
84862W        W46283  41.477   2.296   2.317
84863W        W46284  30.623  37.067   3.273
84864W        W46285  17.592   3.722   4.805
84865W        W46286  35.079  37.384  11.019
84866W        W46287   2.277  35.961  13.494
84867W        W46288   3.402   3.757  14.496
84868W        W46289  15.126   5.902  10.617
84869W        W46290  35.510  34.946   0.849
84870W        W46291  31.991  37.951  10.955
84871W        W46292  39.378  41.876  13.798
84872W        W46293  38.351  21.755   2.350
84873W        W46294  43.922  13.753   3.760
84874W        W46295  43.408  33.103  12.565
84875W        W46296  33.129  26.618  13.837
84876W        W46297  39.431  42.383  10.621
84877W        W46298  24.509   6.909   2.766
84878W        W46299  10.212  29.127  10.415
84879W        W46300  16.651   4.708   3.358
84880W        W46301   1.337  38.860   2.778
84881W        W46302  16.078  34.530   4.343
84882W        W46303  35.471  22.215   1.262
84883W        W46304  40.825   5.793  11.400
84884W        W46305  35.913  28.984   4.771
84885W        W46306  28.510   9.646   3.640
84886W        W46307  39.529  24.222   4.217
84887W        W46308  11.339  30.447  14.941
84888W        W46309  36.037   0.983   2.197
84889W        W46310  41.962   3.407  14.807
84890W        W46311   6.183   8.734  13.410
84891W        W46312  36.455  17.796  13.942
84892W        W46313   3.834  34.094   1.317
84893W        W46314  18.616  29.016   1.873
84894W        W46315  40.372  27.569   0.835
84895W        W46316   3.908  12.750   0.806
84896W        W46317  30.113  23.728   0.947
84897W        W46318  21.174  17.261  12.920
84898W        W46319   1.860  40.475   0.880
84899W        W46320  31.565  32.460   0.874
84900W        W46321   2.827  25.488  13.921
84901W        W46322  36.878  32.527   4.823
84902W        W46323  42.963   9.747   4.646
84903W        W46324   5.731  37.927   4.820
84904W        W46325  13.221  33.020  14.821
84905W        W46326  27.664  30.633   3.706
84906W        W46327  19.550  12.736  13.359
84907W        W46328  35.475   1.394   0.760
84908W        W46329  11.685   3.941   0.452
84909W        W46330  24.481  19.588  11.418
84910W        W46331  31.522  11.247   1.422
84911W        W46332  10.874  32.985  12.401
84912W        W46333  31.947  30.907   0.363
84913W        W46334   9.326  35.957   4.686
84914W        W46335  36.432  21.197   9.994
84915W        W46336  37.380  31.124   2.208
84916W        W46337  21.513  32.011   3.833
84917W        W46338  31.064  27.528   0.424
84918W        W46339  20.198  34.029  14.857
84919W        W46340   4.775  18.552  12.052
84920W        W46341  19.689   9.737   1.297
84921W        W46342   8.303  30.106   3.833
84922W        W46343   5.895  19.187   4.275
84923W        W46344  27.986  36.403   4.809
84924W        W46345  13.195  21.137  13.944
84925W        W46346  19.670   6.243  11.455
84926W        W46347  26.633  35.375  10.893
84927W        W46348  31.151  35.025   2.324
84928W        W46349  41.890  21.604  11.864
84929W        W46350  33.905  12.740  11.924
84930W        W46351  42.020  25.982  14.007
84931W        W46352  28.981  26.538  14.455
84932W        W46353  14.257   2.383  12.047
84933W        W46354  24.183  11.813   4.115
84934W        W46355  17.673  17.191  12.920
84935W        W46356  14.789   2.753   0.248
84936W        W46357  12.252  15.704  14.287
84937W        W46358  27.132  27.081  11.109
84938W        W46359  38.005  30.955  12.091
84939W        W46360  35.870   7.874  10.432
84940W        W46361   3.758  23.576   5.304
84941W        W46362  39.055  36.997   0.378
84942W        W46363  31.965  27.112   4.765
84943W        W46364  28.025  31.104  11.541
84944W        W46365   4.352  10.171   4.751
84945W        W46366  25.013  41.944  14.769
84946W        W46367  32.064  30.423   2.376
84947W        W46368  20.757  36.052  11.444
84948W        W46369  36.479  22.154   0.396
84949W        W46370  20.175  40.907  12.071
84950W        W46371   0.978  40.049  12.924
84951W        W46372   4.415  32.611  12.561
84952W        W46373   1.366  22.537  14.951
84953W        W46374  35.973   9.349  11.560
84954W        W46375  17.721   2.833   2.770
84955W        W46376  35.554   3.373   0.304
84956W        W46377  28.468  41.481   3.751
84957W        W46378  19.086  16.171  11.879
84958W        W46379   9.659  16.316  12.541
84959W        W46380  23.550  32.634   4.673
84960W        W46381  34.888  34.089  14.799
84961W        W46382  23.731  23.000   3.657
84962W        W46383  37.959  26.026   0.793
84963W        W46384  31.549  39.392  13.378
84964W        W46385  31.988  13.206   3.732
84965W        W46386  37.004  42.944   1.372
84966W        W46387  43.764  23.734  10.631
84967W        W46388   8.339  17.273  11.481
84968W        W46389  31.579  14.274  11.918
84969W        W46390   3.874  44.907  13.447
84970W        W46391  44.927   0.282   4.828
84971W        W46392   4.740  41.469  10.419
84972W        W46393   5.802  39.332   3.716
84973W        W46394  44.366  35.574   1.323
84974W        W46395  15.212   0.269  11.910
84975W        W46396  15.126  24.065  14.425
84976W        W46397  36.494   3.821  13.422
84977W        W46398  36.386  17.193  12.578
84978W        W46399   4.366  15.588  14.770
84979W        W46400   4.797  42.823  11.941
84980W        W46401  43.983  31.530   0.818
84981W        W46402  10.335   7.786   3.669
84982W        W46403   0.786   5.879   1.449
84983W        W46404   5.785  38.029   0.435
84984W        W46405  28.607  25.044   2.330
84985W        W46406  42.892   5.303  10.469
84986W        W46407   0.746  43.438  10.445
84987W        W46408  30.939  19.277   4.713
84988W        W46409  26.033   3.296  13.875
84989W        W46410  38.332  37.895  11.916
84990W        W46411  34.406  44.937   2.869
84991W        W46412  29.565  28.943   4.792
84992W        W46413  43.961   8.675  13.548
84993W        W46414  31.579  15.280   0.327
84994W        W46415  30.021  30.578   0.768
84995W        W46416  15.154  41.864   2.398
84996W        W46417  12.701  31.585  12.955
84997W        W46418  44.835  22.014   1.935
84998W        W46419   9.708   4.786  11.973
84999W        W46420  23.089  35.517   3.198
85000W        W46421  44.291  19.695   0.439
85001W        W46422  13.338   6.800   2.188
85002W        W46423  28.619  39.963   0.471
85003W        W46424  15.776  30.644  14.297
85004W        W46425  38.000   9.683  13.847
85005W        W46426  10.672  29.569   3.784
85006W        W46427   0.938  35.364   2.745
85007W        W46428  34.072  25.102  13.451
85008W        W46429  36.527  41.892   3.729
85009W        W46430  16.583  38.898  11.591
85010W        W46431   7.386  38.910   0.411
85011W        W46432   4.769  18.578  14.804
85012W        W46433   7.860  29.523   4.634
85013W        W46434   8.690  27.560  14.413
85014W        W46435  31.014   1.458   4.628
85015W        W46436  32.433  11.170   0.349
85016W        W46437  21.176   3.835   1.903
85017W        W46438  44.351   5.747  12.390
85018W        W46439  12.147  37.558   1.781
85019W        W46440  40.323  29.093  11.125
85020W        W46441  43.824  17.167  13.456
85021W        W46442  15.612  19.728  12.501
85022W        W46443  15.654  24.007  11.411
85023W        W46444  35.996  32.528  10.481
85024W        W46445  43.803  36.375   3.793
85025W        W46446  38.981  38.434   3.729
85026W        W46447  26.506  17.258   3.261
85027W        W46448  42.399  15.671   4.138
85028W        W46449  22.182  24.057  12.977
85029W        W46450  25.212  10.799  12.054
85030W        W46451  24.604  42.852  13.924
85031W        W46452  37.908  18.700   4.762
85032W        W46453  32.074  38.340  12.091
85033W        W46454  35.374   6.428   3.196
85034W        W46455  41.324  25.655  10.947
85035W        W46456  13.791  29.955   3.276
85036W        W46457  38.391  42.871   4.647
85037W        W46458  40.304  18.702   2.369
85038W        W46459   4.700   7.281  12.071
85039W        W46460   4.319  32.483  10.556
85040W        W46461  15.116   3.419  14.772
85041W        W46462   5.744  26.099  13.015
85042W        W46463  30.636  14.668  14.385
85043W        W46464  26.989  19.074  14.459
85044W        W46465  28.091  37.057  11.094
85045W        W46466   0.263  16.707  14.421
85046W        W46467   4.738  43.915   4.826
85047W        W46468  28.675   7.188   4.621
85048W        W46469  13.610  38.941   3.382
85049W        W46470  11.696   7.885   2.863
85050W        W46471  16.645   1.346   3.769
85051W        W46472   8.702   9.677  10.490
85052W        W46473  44.463  13.210   4.723
85053W        W46474  33.888   5.773   0.753
85054W        W46475  25.589  28.515  12.526
85055W        W46476  16.133  34.956   5.107
85056W        W46477  20.703  44.440   0.829
85057W        W46478  20.174  27.177   3.204
85058W        W46479  21.038  38.837  11.441
85059W        W46480   7.297  40.800   4.126
85060W        W46481   0.800  21.117  13.044
85061W        W46482  30.591  44.831   4.182
85062W        W46483  22.666   3.757  10.490
85063W        W46484  44.477  37.423   2.673
85064W        W46485  18.735  24.170   3.695
85065W        W46486  14.338   7.730   0.764
85066W        W46487  37.940  18.760  10.405
85067W        W46488  29.937  31.534   4.164
85068W        W46489  25.687  24.576  14.315
85069W        W46490   1.323  41.948  13.940
85070W        W46491  41.885   5.226   3.323
85071W        W46492  21.024   1.384   4.615
85072W        W46493   6.848  33.085  12.559
85073W        W46494  40.948  14.657  12.824
85074W        W46495  22.658  14.325  13.041
85075W        W46496  32.007  36.433  14.810
85076W        W46497   2.227   2.438  14.927
85077W        W46498  30.582  21.149   2.766
85078W        W46499  22.732   6.845   2.267
85079W        W46500  29.014  38.472   0.456
85080W        W46501  16.731   7.405   2.878
85081W        W46502  42.866   4.329  14.766
85082W        W46503   5.776  12.305   2.372
85083W        W46504   7.766   8.226  11.374
85084W        W46505  18.615  20.673   3.188
85085W        W46506  16.099  30.434  13.434
85086W        W46507   4.408  41.032  11.483
85087W        W46508  10.289  11.130   0.770
85088W        W46509  36.056  41.018  11.399
85089W        W46510  24.660   7.407   1.849
85090W        W46511  19.772   5.234  10.502
85091W        W46512  11.292  16.746  12.909
85092W        W46513  26.638  15.772  14.932
85093W        W46514   2.869  27.135  13.370
85094W        W46515  30.622  25.130  12.004
85095W        W46516  15.314  19.579   1.884
85096W        W46517  13.610  32.029  10.090
85097W        W46518  21.255   0.781   2.415
85098W        W46519  23.226  21.726   1.824
85099W        W46520  10.745  10.816  10.590
85100W        W46521  33.010   2.277  13.325
85101W        W46522   0.408  16.742  10.423
85102W        W46523  41.899  35.372   2.879
85103W        W46524  31.503   2.269  11.885
85104W        W46525  33.907  30.470  11.087
85105W        W46526  33.591  24.641   3.327
85106W        W46527  38.049  22.194   4.352
85107W        W46528  24.993   6.902  11.919
85108W        W46529  19.557  43.424  11.457
85109W        W46530  44.838  17.257  12.345
85110W        W46531  11.804  26.086  10.483
85111W        W46532  34.446  38.543   0.308
85112W        W46533  13.107   3.407  13.919
85113W        W46534   0.956  12.772  14.404
85114W        W46535  19.775  23.038   1.754
85115W        W46536   7.814  27.165  11.895
85116W        W46537  18.249  31.463  13.940
85117W        W46538   0.470  36.917  10.625
85118W        W46539   2.355  39.940  14.380
85119W        W46540  16.274  44.283  11.394
85120W        W46541  24.639  11.688  10.582
85121W        W46542  13.771  28.086   2.750
85122W        W46543  33.006  27.515   3.854
85123W        W46544  18.605  12.819  12.482
85124W        W46545  23.070  36.887  13.044
85125W        W46546  13.243   3.808  11.001
85126W        W46547   1.293  28.985   0.730
85127W        W46548  22.105   7.249   0.340
85128W        W46549  41.804  13.707  12.492
85129W        W46550  30.501  28.123   2.736
85130W        W46551  33.929  40.871   4.140
85131W        W46552  34.576  25.691   4.653
85132W        W46553  23.707  15.674  11.396
85133W        W46554   2.964  38.980   2.217
85134W        W46555  13.223  36.044   3.293
85135W        W46556  27.487  25.532  14.970
85136W        W46557  12.271  38.503  11.891
85137W        W46558  12.613   8.799   5.192
85138W        W46559  44.814   9.759   0.268
85139W        W46560  26.154  10.144  14.386
85140W        W46561  10.164  28.042  12.980
85141W        W46562  34.451  11.257  14.850
85142W        W46563  13.628  38.005  13.895
85143W        W46564  34.439  39.480  14.316
85144W        W46565   8.820   8.220   2.361
85145W        W46566  16.668  17.643  11.943
85146W        W46567  20.651  27.588  13.483
85147W        W46568  39.848   9.271   0.355
85148W        W46569  40.432  22.108   2.793
85149W        W46570  23.177  24.120  13.539
85150W        W46571  20.524  38.367   0.350
85151W        W46572  12.135   0.396  14.021
85152W        W46573  27.131  27.172  11.875
85153W        W46574  16.220  43.822  14.010
85154W        W46575  24.581  27.590  13.984
85155W        W46576  38.997  38.052   2.208
85156W        W46577   6.884   4.278   2.416
85157W        W46578   9.331  12.836   4.259
85158W        W46579   8.774   9.265  14.461
85159W        W46580  23.113  16.103  14.849
85160W        W46581   1.855  26.156   3.293
85161W        W46582  17.276  21.514   2.363
85162W        W46583   0.458  16.605   1.881
85163W        W46584  18.577  11.238   4.187
85164W        W46585  12.293  22.558   1.732
85165W        W46586  27.154  19.058  14.850
85166W        W46587  29.555   6.192  13.002
85167W        W46588  29.080  31.147   4.779
85168W        W46589  41.877  41.998  13.440
85169W        W46590  12.620  12.787  13.039
85170W        W46591  32.471  20.683  13.833
85171W        W46592  22.079  21.023   9.996
85172W        W46593  43.310   3.314  10.137
85173W        W46594   6.692   5.731  10.917
85174W        W46595  10.301  28.478   2.864
85175W        W46596  37.913  27.159   2.728
85176W        W46597  35.513   7.407   1.376
85177W        W46598  36.875  13.240   0.413
85178W        W46599  42.793   2.797  11.512
85179W        W46600   1.817   4.367  10.416
85180W        W46601  43.469  25.713  14.929
85181W        W46602  29.951  35.088   4.764
85182W        W46603  11.352   8.183  11.043
85183W        W46604   1.390   1.738  14.347
85184W        W46605  10.839  12.677   0.440
85185W        W46606  22.503  41.859   4.244
85186W        W46607  12.239  35.952   2.748
85187W        W46608  10.293  10.669   3.653
85188W        W46609  10.772   3.790  13.963
85189W        W46610  16.626  12.349  12.570
85190W        W46611  28.649  35.961  11.924
85191W        W46612   8.859  14.190   4.322
85192W        W46613   1.371   7.298   3.181
85193W        W46614  18.630  17.290   4.688
85194W        W46615  39.990  28.024   2.707
85195W        W46616  24.106   3.381   0.466
85196W        W46617   4.812  42.479   4.800
85197W        W46618  32.099   5.841  10.017
85198W        W46619   0.786  39.419   3.168
85199W        W46620  35.097  36.445  12.039
85200W        W46621  14.237  41.952  11.599
85201W        W46622  33.389  36.481   3.720
85202W        W46623  16.306  38.012   1.292
85203W        W46624   7.398  38.022  10.075
85204W        W46625  43.919  17.097   4.124
85205W        W46626  21.742  21.540  12.505
85206W        W46627  24.590  17.754  13.056
85207W        W46628  18.666  24.110  13.927
85208W        W46629  33.986  22.103   0.295
85209W        W46630  29.665  22.680   5.218
85210W        W46631  17.075  10.191   0.457
85211W        W46632  22.170   1.279   2.747
85212W        W46633  26.567  10.768   2.723
85213W        W46634  25.492   1.927   1.751
85214W        W46635   9.374   9.716  11.524
85215W        W46636   8.828   3.446   3.226
85216W        W46637  40.930   0.367  13.463
85217W        W46638  39.418   3.718   4.603
85218W        W46639  22.569   3.923   3.368
85219W        W46640  41.914   6.857  12.034
85220W        W46641  30.114  22.517   4.219
85221W        W46642  13.277   9.783   0.308
85222W        W46643  35.421   4.335  13.430
85223W        W46644  36.427  18.066   4.187
85224W        W46645  40.828  43.979  11.993
85225W        W46646  24.637  43.276  10.529
85226W        W46647  28.624  30.487  12.404
85227W        W46648   9.882  36.434  12.012
85228W        W46649  10.189  41.432  12.458
85229W        W46650  14.646   6.761   1.230
85230W        W46651  37.051  23.226   2.257
85231W        W46652   4.384   6.412   1.371
85232W        W46653  18.089   1.955   0.837
85233W        W46654  32.564  31.562   2.274
85234W        W46655   8.385  18.081  11.410
85235W        W46656  36.077  43.326  13.335
85236W        W46657  42.402  16.605   1.834
85237W        W46658  26.025   7.397  12.404
85238W        W46659   6.275  24.083  12.342
85239W        W46660  22.531  25.476   2.675
85240W        W46661  19.595  22.167  11.943
85241W        W46662   1.933  41.503  11.403
85242W        W46663   2.748  11.826  13.548
85243W        W46664   8.359   0.937  12.438
85244W        W46665  25.566  39.486   0.731
85245W        W46666  33.478  18.709   4.137
85246W        W46667  16.285  44.788   1.802
85247W        W46668  23.077  25.967  14.817
85248W        W46669  19.122   8.282  12.043
85249W        W46670   9.763  14.682   4.718
85250W        W46671  18.632   6.822   0.768
85251W        W46672  19.153   9.366   4.241
85252W        W46673  26.081   3.295   2.800
85253W        W46674  17.079   0.906  12.381
85254W        W46675  41.881  42.369   2.312
85255W        W46676  16.798  36.392   1.353
85256W        W46677  35.899   6.357   0.366
85257W        W46678   8.897   4.763  13.347
85258W        W46679  11.360  22.746  11.096
85259W        W46680  27.975   7.730   4.632
85260W        W46681  33.019  43.016   4.306
85261W        W46682  30.031  37.441   0.415
85262W        W46683  37.840  19.220   0.733
85263W        W46684  13.601  23.510   4.133
85264W        W46685  40.990   5.413  12.035
85265W        W46686  30.049   2.913   3.179
85266W        W46687   3.325  30.986   1.856
85267W        W46688  36.530  18.257  12.549
85268W        W46689  28.648  36.463   2.831
85269W        W46690  19.175  27.147   1.911
85270W        W46691  25.569  32.582   2.685
85271W        W46692   1.412  24.646   5.699
85272W        W46693  10.293   7.710   3.295
85273W        W46694  41.976  12.856  12.922
85274W        W46695  11.353  18.631   3.798
85275W        W46696  36.054  40.394  13.814
85276W        W46697  27.500  12.237   9.979
85277W        W46698  37.898   1.461   4.784
85278W        W46699  23.195  39.908  14.765
85279W        W46700   9.341  23.015   3.243
85280W        W46701   4.404  29.971  13.981
85281W        W46702  27.195  30.163   0.479
85282W        W46703  30.118   9.317   3.849
85283W        W46704  39.356  42.803   2.789
85284W        W46705  28.153   4.701  14.434
85285W        W46706  34.451  27.152   2.394
85286W        W46707  24.000   2.757   1.876
85287W        W46708   6.781  37.420  12.084
85288W        W46709  26.175  17.688   3.784
85289W        W46710  26.538  21.195   0.426
85290W        W46711  12.191  14.671   3.638
85291W        W46712  18.585   9.241  11.983
85292W        W46713  22.228   4.775  13.482
85293W        W46714  11.210  21.697  14.967
85294W        W46715  21.693   5.348  13.889
85295W        W46716  33.470  17.234  12.067
85296W        W46717  41.466   0.446  10.989
85297W        W46718   4.243  15.706   2.772
85298W        W46719  33.564   8.176  14.470
85299W        W46720  32.429  30.157  14.410
85300W        W46721   9.193  34.992   3.809
85301W        W46722  29.975  35.097  12.375
85302W        W46723  34.963  19.122  14.892
85303W        W46724  10.853  30.558   4.760
85304W        W46725  22.018  29.587   1.250
85305W        W46726  40.373  34.459  10.920
85306W        W46727  10.683  23.642  10.451
85307W        W46728  39.846   2.856  13.980
85308W        W46729  17.607  42.841   0.867
85309W        W46730  15.583  40.547   2.695
85310W        W46731  38.967  20.557  14.780
85311W        W46732  19.591  38.994  14.014
85312W        W46733  34.071  10.783   0.468
85313W        W46734  42.944  12.247   4.821
85314W        W46735  25.655  33.480   2.292
85315W        W46736  14.774  29.447  14.791
85316W        W46737  12.262  13.244  12.456
85317W        W46738  30.519  29.496   2.398
85318W        W46739  22.623   1.787  10.441
85319W        W46740   2.347   9.379   1.316
85320W        W46741  16.073  19.163   1.413
85321W        W46742   1.772  31.539   5.167
85322W        W46743  30.640  29.425   0.894
85323W        W46744  30.931  24.054  13.451
85324W        W46745  10.828   3.215   1.370
85325W        W46746  23.687   5.362  12.376
85326W        W46747  42.467  34.433  10.983
85327W        W46748   6.344  44.793   1.705
85328W        W46749  42.879   3.795  10.611
85329W        W46750   6.826  21.055  12.979
85330W        W46751  12.758   7.305  13.943
85331W        W46752  29.618  34.481   3.661
85332W        W46753  20.727  35.068  12.398
85333W        W46754  21.552  15.205   2.331
85334W        W46755  27.108  15.775  10.052
85335W        W46756  36.066  20.625   4.790
85336W        W46757  18.124  26.993  12.484
85337W        W46758   9.859  15.611   2.360
85338W        W46759  17.690   0.411  13.418
85339W        W46760  36.535  20.070   2.846
85340W        W46761  41.003   5.346  13.935
85341W        W46762  36.080  40.925  12.881
85342W        W46763  42.375  11.244   9.545
85343W        W46764  41.474  24.484  11.542
85344W        W46765   9.774   2.424   4.137
85345W        W46766  43.021   5.923  13.343
85346W        W46767  11.707  40.945   3.194
85347W        W46768   4.212  24.565  10.910
85348W        W46769  12.734  30.993  10.002
85349W        W46770   8.257  24.502   0.373
85350W        W46771  20.598   3.246   0.375
85351W        W46772   3.826  14.114  13.951
85352W        W46773   2.792  15.754   2.386
85353W        W46774   9.856  19.601   4.229
85354W        W46775  33.109  27.074   0.801
85355W        W46776   0.792  38.035  12.899
85356W        W46777  16.219  19.063   4.232
85357W        W46778  10.745   5.929   1.746
85358W        W46779  22.685   2.303  13.878
85359W        W46780   6.245  10.665   4.272
85360W        W46781  28.955   7.335   2.340
85361W        W46782  36.580  35.502  13.038
85362W        W46783  15.270  21.123  14.827
85363W        W46784  35.359  12.681   0.337
85364W        W46785  40.932  18.777  14.946
85365W        W46786  14.695  16.188   2.344
85366W        W46787  33.077   9.818  13.843
85367W        W46788  42.894  16.728  13.949
85368W        W46789   4.702  36.876   0.823
85369W        W46790  22.151  18.630  13.825
85370W        W46791  26.077   5.349   4.713
85371W        W46792  17.180   4.440  11.606
85372W        W46793   3.883   8.845  12.446
85373W        W46794  27.986  39.403  13.376
85374W        W46795  17.074  25.696  13.404
85375W        W46796  26.478  44.857  13.916
85376W        W46797  43.459   0.379  10.518
85377W        W46798  39.419   3.281   3.724
85378W        W46799  18.634  23.056  11.522
85379W        W46800   2.366   4.292  11.413
85380W        W46801  19.241  13.330  12.823
85381W        W46802   4.346  18.099   0.965
85382W        W46803   5.310  26.101  11.547
85383W        W46804  21.517  43.834   1.834
85384W        W46805  27.169  41.410  14.845
85385W        W46806   5.906  39.829  11.439
85386W        W46807  34.070   1.853   4.635
85387W        W46808  22.126  15.641   5.629
85388W        W46809  39.954  19.234   2.798
85389W        W46810  22.167  14.588   3.784
85390W        W46811  21.220  22.554  13.959
85391W        W46812   2.759  11.213   4.811
85392W        W46813  44.974   5.329  10.921
85393W        W46814   7.227  14.191   3.321
85394W        W46815   4.862  41.470  12.527
85395W        W46816  18.251  37.387   4.602
85396W        W46817   8.358  17.178   0.357
85397W        W46818  24.161   7.231   0.420
85398W        W46819  19.581  42.500  14.513
85399W        W46820  24.709   2.312   2.363
85400W        W46821  12.348  44.439   2.255
85401W        W46822  28.016  12.785   3.846
85402W        W46823  15.759  37.354  14.458
85403W        W46824  43.952  26.181   4.703
85404W        W46825  34.479  35.504  13.049
85405W        W46826   9.889   4.774  12.992
85406W        W46827  35.993  20.768   3.365
85407W        W46828  43.332  36.956   3.772
85408W        W46829   5.392   5.835   1.773
85409W        W46830  32.593  20.038   2.409
85410W        W46831  37.015  16.073  12.868
85411W        W46832  44.857   7.862   3.243
85412W        W46833  15.776   3.867   0.815
85413W        W46834  23.173   8.863   1.766
85414W        W46835   4.824  22.050  11.126
85415W        W46836  37.567  23.185  14.315
85416W        W46837  41.951  14.689   3.630
85417W        W46838  18.597  15.641  11.908
85418W        W46839  27.535   7.179  14.291
85419W        W46840  38.429   6.865  11.102
85420W        W46841  38.441   2.250  12.018
85421W        W46842  10.331  27.625  10.948
85422W        W46843  26.165  43.786  13.898
85423W        W46844  43.434  11.811   3.670
85424W        W46845  25.220  11.713  13.487
85425W        W46846  41.433  26.178   3.243
85426W        W46847  29.921  17.756   0.864
85427W        W46848   9.306  23.717   1.890
85428W        W46849  16.218  34.926   1.272
85429W        W46850  13.613   9.258  13.466
85430W        W46851  13.167  34.917   0.752
85431W        W46852  26.686   8.671  14.378
85432W        W46853  11.206  28.131  13.025
85433W        W46854  24.137  17.283  10.499
85434W        W46855  20.101  23.236   4.747
85435W        W46856  32.946   7.263  12.532
85436W        W46857   6.277  16.292  11.597
85437W        W46858  16.808   9.752   3.291
85438W        W46859  23.150  36.969  11.580
85439W        W46860  16.171  17.690  10.495
85440W        W46861  33.067  25.606  11.419
85441W        W46862  25.136  13.623  13.882
85442W        W46863  42.794  31.928  11.980
85443W        W46864  35.389  43.413  12.870
85444W        W46865  42.839  14.597   5.230
85445W        W46866  37.041   0.275   3.762
85446W        W46867  38.037  23.629  13.513
85447W        W46868  33.602  17.667   1.288
85448W        W46869   9.221   2.907  13.987
85449W        W46870  19.564   0.293  11.502
85450W        W46871  42.027  37.072  14.474
85451W        W46872  27.563  24.600  11.072
85452W        W46873  25.545  44.920  13.953
85453W        W46874  22.576  31.019   2.680
85454W        W46875   3.350   0.961  10.892
85455W        W46876  16.568   2.239   2.701
85456W        W46877  31.507  42.017   4.598
85457W        W46878   7.248  37.983   3.210
85458W        W46879  33.533  36.532   2.305
85459W        W46880  13.287  14.668   0.914
85460W        W46881  16.735  28.144  14.438
85461W        W46882  19.630  12.271  13.033
85462W        W46883  30.067  19.538  14.765
85463W        W46884  14.112  14.150  12.565
85464W        W46885  16.147   2.769  14.780
85465W        W46886  15.620  28.524  13.496
85466W        W46887  42.335  20.134   1.763
85467W        W46888   4.260  12.213  14.940
85468W        W46889  16.776   1.444   0.918
85469W        W46890  16.125  27.532  12.069
85470W        W46891  27.996   9.717   0.841
85471W        W46892  26.061   1.928   4.287
85472W        W46893  24.005  32.390  13.372
85473W        W46894  22.637  39.453   1.706
85474W        W46895  25.503  14.310   3.837
85475W        W46896  26.622  11.717   4.828
85476W        W46897  42.519  10.695  11.856
85477W        W46898  29.663  17.753   3.147
85478W        W46899  42.962  44.390   2.224
85479W        W46900  40.341   9.803   3.172
85480W        W46901   8.761  32.960   1.827
85481W        W46902  26.654  42.314  13.904
85482W        W46903  36.398  20.181  10.441
85483W        W46904  20.234  41.986  12.566
85484W        W46905   0.312  39.532  11.098
85485W        W46906  33.910  10.149   2.803
85486W        W46907  43.836  22.663  10.933
85487W        W46908  30.993  34.048   1.450
85488W        W46909  42.913   9.242   2.303
85489W        W46910  22.073  12.793  13.420
85490W        W46911  18.729  28.086  13.425
85491W        W46912  41.001  13.698  12.423
85492W        W46913  33.897  29.173   0.424
85493W        W46914  22.680  34.089   4.328
85494W        W46915  32.587   5.755   3.373
85495W        W46916  21.758   0.949  11.453
85496W        W46917  42.343   4.255   3.352
85497W        W46918  22.025  27.154   2.341
85498W        W46919  37.900  23.992  13.546
85499W        W46920  23.735   5.336  12.942
85500W        W46921   8.710  21.233   4.315
85501W        W46922   6.238  19.232   2.886
85502W        W46923  23.573   5.761  11.447
85503W        W46924  42.775  22.681  11.532
85504W        W46925  16.264  21.547   4.237
85505W        W46926   6.254   7.416   5.162
85506W        W46927  31.985   4.301  13.038
85507W        W46928  10.841  21.562   3.831
85508W        W46929  10.853  26.157   1.254
85509W        W46930  36.956  12.236   9.951
85510W        W46931  36.082   5.212   5.770
85511W        W46932  20.605  22.561   2.382
85512W        W46933  13.274  17.718  14.983
85513W        W46934   2.789   0.964   5.182
85514W        W46935  29.963  19.262  14.471
85515W        W46936  33.017  25.540   0.785
85516W        W46937  16.233   5.418   2.878
85517W        W46938  31.445   3.785   9.937
85518W        W46939  23.712   8.803  13.534
85519W        W46940  10.773   7.852   0.260
85520W        W46941   5.308  29.045  11.086
85521W        W46942  13.773  18.745  11.949
85522W        W46943  10.181   2.810  13.059
85523W        W46944  38.829  39.942  11.433
85524W        W46945  34.568  37.072   3.772
85525W        W46946  38.837  43.422   4.754
85526W        W46947  30.068  20.212  14.889
85527W        W46948  25.668  39.923  12.910
85528W        W46949  26.184   3.752   4.223
85529W        W46950   7.413  27.528  12.941
85530W        W46951  14.728  36.995   1.355
85531W        W46952   0.754  33.506   3.178
85532W        W46953  14.805   0.429  12.531
85533W        W46954  40.336  39.320  13.534
85534W        W46955  34.490   8.385   2.313
85535W        W46956  15.738  12.129  10.986
85536W        W46957  29.496  31.630   4.188
85537W        W46958  13.786  40.346  12.437
85538W        W46959  13.186  32.891   0.354
85539W        W46960  24.139  43.278   1.397
85540W        W46961  31.902  20.035   2.798
85541W        W46962  38.437  43.954   1.841
85542W        W46963  10.269  17.580   0.908
85543W        W46964  41.411  35.552   4.324
85544W        W46965  42.003  10.684   0.426
85545W        W46966  19.559  39.430  12.535
85546W        W46967  35.911   8.196  12.095
85547W        W46968  29.958  14.607   1.839
85548W        W46969  28.443   1.418   4.191
85549W        W46970  10.157  40.036   4.203
85550W        W46971  20.552  21.676   3.368
85551W        W46972  43.967  13.262  14.925
85552W        W46973  41.005  33.078  14.966
85553W        W46974  16.313   9.317   0.791
85554W        W46975  37.036  43.311   1.927
85555W        W46976  34.032  10.382   1.403
85556W        W46977  43.425   2.910  10.439
85557W        W46978   0.800  26.698  11.399
85558W        W46979  28.594  34.406  12.476
85559W        W46980  41.998  38.381   0.411
85560W        W46981   9.287  34.473  12.849
85561W        W46982  18.277   0.376  13.053
85562W        W46983  11.847  14.118   5.306
85563W        W46984   0.742  27.962   2.332
85564W        W46985  11.624  38.376   1.702
85565W        W46986  27.943  16.157   0.274
85566W        W46987  15.619  20.118  12.501
85567W        W46988  37.071  22.656  13.525
85568W        W46989  10.822  20.167   3.715
85569W        W46990  21.180  31.972   4.801
85570W        W46991  10.663  23.160   3.285
85571W        W46992  22.658  29.003  12.369
85572W        W46993   5.691  16.164   4.145
85573W        W46994  20.626  11.129  12.982
85574W        W46995  35.074   8.844  11.980
85575W        W46996  11.751  20.176  11.998
85576W        W46997   9.321  44.783  13.537
85577W        W46998  23.133  18.587   3.801
85578W        W46999  20.575  36.075  14.281
85579W        W47000  10.675   1.455  10.579
85580W        W47001   1.336  43.465   0.879
85581W        W47002  40.938   6.311  14.834
85582W        W47003  28.036  14.120  12.480
85583W        W47004  37.954  12.299   0.373
85584W        W47005  21.682  24.694   4.189
85585W        W47006  17.797  41.345  14.799
85586W        W47007  39.329   1.441   3.798
85587W        W47008  41.869  17.202   0.244
85588W        W47009  31.468  39.022  11.466
85589W        W47010  39.853  17.710  10.069
85590W        W47011   9.232   9.344   2.825
85591W        W47012  33.426  30.556   3.634
85592W        W47013  29.505  38.416  13.886
85593W        W47014   9.845  13.632   4.309
85594W        W47015  40.451  24.592   4.647
85595W        W47016   1.239   6.265   4.199
85596W        W47017  11.650  27.980   1.717
85597W        W47018  17.114  25.585  14.937
85598W        W47019  33.046  27.520   1.703
85599W        W47020  43.509  17.238   1.246
85600W        W47021  28.107  12.308   3.384
85601W        W47022   1.374  19.130  12.838
85602W        W47023  24.564  34.987   3.375
85603W        W47024   8.760  21.544   3.846
85604W        W47025  18.141  11.344  11.409
85605W        W47026  12.136   7.765   2.351
85606W        W47027  20.618  13.765   4.690
85607W        W47028   0.388  17.623  14.407
85608W        W47029  35.421  23.646  11.548
85609W        W47030  10.308  22.158   2.761
85610W        W47031  14.321  14.189   2.223
85611W        W47032  41.917  17.232   5.269
85612W        W47033  33.470  19.546  12.910
85613W        W47034  11.801  37.837   4.773
85614W        W47035  24.508  20.694   3.319
85615W        W47036  44.881  14.194   0.248
85616W        W47037   7.695   6.254  13.481
85617W        W47038   0.291   9.704   0.733
85618W        W47039  30.939  16.658   1.717
85619W        W47040  18.115  38.930   4.811
85620W        W47041  17.227  20.593   4.159
85621W        W47042   4.233  14.806   3.843
85622W        W47043  14.177  44.408  12.541
85623W        W47044  31.567  18.768  13.466
85624W        W47045  21.138  37.002  11.545
85625W        W47046  11.371  29.064  13.456
85626W        W47047  38.349  25.205   0.245
85627W        W47048  28.506  10.146   2.211
85628W        W47049  24.479  27.962   2.259
85629W        W47050   2.798  37.480   2.344
85630W        W47051  17.603  36.568   3.714
85631W        W47052   2.825  39.042   2.862
85632W        W47053  13.795  37.479  13.867
85633W        W47054  41.464  13.687   1.440
85634W        W47055   5.342  13.834  10.622
85635W        W47056  13.235  18.697  12.957
85636W        W47057   4.409  40.419  11.869
85637W        W47058  40.858  14.300   1.445
85638W        W47059  19.704  41.320  10.592
85639W        W47060  12.261   8.325  12.058
85640W        W47061  39.837   9.867  14.805
85641W        W47062  22.624  23.495  14.448
85642W        W47063  35.516   0.962   0.906
85643W        W47064   6.308  43.276   2.248
85644W        W47065  17.693   4.886   1.829
85645W        W47066  10.854  26.679   5.227
85646W        W47067  23.029  13.328  11.403
85647W        W47068  44.351  36.444  12.460
85648W        W47069  20.607  34.025   1.834
85649W        W47070  35.508  22.038  11.910
85650W        W47071  12.790  37.357  12.947
85651W        W47072   3.750  39.865  10.442
85652W        W47073  32.557  18.136   0.260
85653W        W47074  27.094   9.731   4.208
85654W        W47075  44.291   5.296  13.006
85655W        W47076   3.720   8.227   3.264
85656W        W47077  40.416   1.288  12.498
85657W        W47078   9.657  20.232   2.293
85658W        W47079  17.203  29.089  10.526
85659W        W47080  37.467  35.055   1.372
85660W        W47081  40.519  25.098   4.233
85661W        W47082  14.281   1.881  12.473
85662W        W47083  29.565  37.435   3.207
85663W        W47084  44.883  33.986   1.744
85664W        W47085  29.606  12.720  12.095
85665W        W47086  17.602  30.055   2.888
85666W        W47087  30.087  17.651  12.972
85667W        W47088  36.470  30.907  13.955
85668W        W47089   8.901  19.071   1.288
85669W        W47090   0.787  23.165  12.033
85670W        W47091   0.849   4.417  10.890
85671W        W47092   0.438  41.531   2.342
85672W        W47093  14.815   0.293  14.998
85673W        W47094  38.987  18.653   0.852
85674W        W47095   8.401  19.254   4.262
85675W        W47096  27.953  36.019   1.211
85676W        W47097   4.211  40.023  11.997
85677W        W47098   0.907  26.119  12.834
85678W        W47099  33.033   8.848   1.767
85679W        W47100  10.745  39.487   3.801
85680W        W47101  34.429   7.862  10.598
85681W        W47102  27.096   9.716   4.767
85682W        W47103  41.995  42.291   0.764
85683W        W47104  20.267  23.520  10.405
85684W        W47105  35.993  39.891  11.916
85685W        W47106  34.953  39.817  12.521
85686W        W47107  35.433  35.072   3.216
85687W        W47108  17.269  16.734  14.818
85688W        W47109   2.283  11.661   1.773
85689W        W47110   8.667  29.506  11.049
85690W        W47111  37.458   0.799   1.751
85691W        W47112  15.627   4.788  11.415
85692W        W47113   7.311  20.031  12.006
85693W        W47114  17.096   2.894   2.183
85694W        W47115  19.628  29.605  10.531
85695W        W47116  27.054  21.679  12.893
85696W        W47117  29.086  27.643  10.599
85697W        W47118   6.192   5.857  11.899
85698W        W47119  38.872   6.705   3.242
85699W        W47120  43.820   2.343   1.376
85700W        W47121   2.361   4.858  11.516
85701W        W47122  19.049  25.963  14.500
85702W        W47123   8.678  22.185  14.480
85703W        W47124   2.259  25.005  11.604
85704W        W47125  36.902  25.590   3.289
85705W        W47126  24.590  23.108  12.054
85706W        W47127  44.479  34.564   2.271
85707W        W47128  17.194  11.182  12.050
85708W        W47129  14.765  35.392  12.357
85709W        W47130  37.434  17.267   2.244
85710W        W47131   6.263   1.812   2.388
85711W        W47132  20.725   5.222  11.974
85712W        W47133  26.572  12.307  13.865
85713W        W47134  16.212  12.208   4.164
85714W        W47135   5.231  11.307  12.441
85715W        W47136  20.646  14.176   3.783
85716W        W47137  27.141  41.489   4.190
85717W        W47138  26.508  14.642  14.998
85718W        W47139  32.603  38.997   4.245
85719W        W47140   0.376   2.966  11.082
85720W        W47141  35.367  39.389   2.182
85721W        W47142  28.473   1.927  10.930
85722W        W47143  21.035  36.548  11.465
85723W        W47144   3.244  19.267   3.335
85724W        W47145  17.566  13.801   0.447
85725W        W47146  34.397  18.073   3.229
85726W        W47147  28.023  29.073  10.130
85727W        W47148  13.109  26.057   0.411
85728W        W47149   0.311  33.531   3.721
85729W        W47150  37.373  36.889  14.758
85730W        W47151  14.802  34.508   4.335
85731W        W47152   0.493  33.562   4.145
85732W        W47153   6.722   4.823  10.901
85733W        W47154   9.335  18.208   3.864
85734W        W47155  37.903  15.655   4.815
85735W        W47156  40.902   0.761   4.638
85736W        W47157   8.189   0.874   3.292
85737W        W47158   4.341  11.704   0.814
85738W        W47159  16.182  20.681  13.426
85739W        W47160   7.743  30.498  12.442
85740W        W47161  26.563  15.191  10.989
85741W        W47162  32.444   3.885  14.875
85742W        W47163  29.098  21.260  14.297
85743W        W47164  44.782  25.712  14.908
85744W        W47165   0.742  29.100   0.777
85745W        W47166  40.408  43.817  11.466
85746W        W47167  15.299  19.240  11.883
85747W        W47168  41.339   8.866  12.564
85748W        W47169  20.607  40.041  10.638
85749W        W47170  21.063  38.025  10.455
85750W        W47171  44.800  25.016  12.502
85751W        W47172   6.184  23.989   2.686
85752W        W47173  14.300  27.572  11.450
85753W        W47174  37.486  38.905  13.508
85754W        W47175   5.332  11.718  12.908
85755W        W47176   2.740  31.610   2.314
85756W        W47177  18.690  36.499   4.229
85757W        W47178  20.206   3.895  13.044
85758W        W47179  42.378  37.043  13.886
85759W        W47180  40.487  30.975  11.496
85760W        W47181   1.795   1.397   3.759
85761W        W47182  18.697  16.296  11.446
85762W        W47183  34.574  40.347   2.735
85763W        W47184  40.401  27.974   5.250
85764W        W47185  37.343  21.215  14.954
85765W        W47186  28.616  39.363   3.212
85766W        W47187   5.237  30.021  11.604
85767W        W47188   5.299   1.445   3.840
85768W        W47189  14.736   0.987   2.181
85769W        W47190  40.864  14.672   0.448
85770W        W47191  18.673  39.542   1.916
85771W        W47192  26.149   9.683  12.349
85772W        W47193  42.872  26.176  10.457
85773W        W47194  25.125  41.403   4.154
85774W        W47195  14.107  41.044  10.524
85775W        W47196  14.224  15.725  10.461
85776W        W47197   5.869  12.696  12.928
85777W        W47198  33.915  29.440   1.326
85778W        W47199   4.253  44.297  11.086
85779W        W47200  35.593  12.164   1.927
85780W        W47201  37.081   0.425  10.944
85781W        W47202  43.439  10.696  14.790
85782W        W47203  25.509  18.147  11.087
85783W        W47204  14.752   4.368   4.260
85784W        W47205  15.678   2.740  13.900
85785W        W47206  20.176  14.329   3.335
85786W        W47207   9.252  13.233  13.310
85787W        W47208  34.392  31.059  13.387
85788W        W47209  28.934  28.965   3.305
85789W        W47210   9.241  25.535   3.679
85790W        W47211  38.527  29.007  14.945
85791W        W47212  26.597   6.258  14.969
85792W        W47213  36.998  12.266   4.169
85793W        W47214  18.730  10.727  12.377
85794W        W47215   2.418  13.325  13.326
85795W        W47216  37.849  44.933  14.325
85796W        W47217   0.987  38.507  14.822
85797W        W47218  36.543  43.437   4.783
85798W        W47219  40.047   9.747   0.315
85799W        W47220  18.061  38.862  13.028
85800W        W47221  24.631   2.837   4.142
85801W        W47222  17.180  34.090  12.881
85802W        W47223  42.447  10.278  12.914
85803W        W47224  14.141  26.006   4.828
85804W        W47225   4.445  34.402   0.280
85805W        W47226  33.052   0.771  12.342
85806W        W47227  12.311  18.134  11.391
85807W        W47228   2.829  43.481   3.847
85808W        W47229  10.285  26.699  10.426
85809W        W47230  20.724  33.971   4.735
85810W        W47231  23.591   5.423   3.335
85811W        W47232  33.502   9.711   4.287
85812W        W47233  33.107  35.589  12.530
85813W        W47234  30.931  28.931  14.937
85814W        W47235  41.821  13.129   3.378
85815W        W47236  44.427  43.808  12.402
85816W        W47237  37.910  14.285  11.918
85817W        W47238  33.978  30.157  11.936
85818W        W47239   7.698  42.474  11.938
85819W        W47240  18.772  19.540  10.597
85820W        W47241   6.277  17.791  11.897
85821W        W47242   7.684   9.311   0.759
85822W        W47243  11.754   2.315   0.466
85823W        W47244  39.473   6.692   2.832
85824W        W47245  13.623  17.068  14.029
85825W        W47246   3.304  25.121   1.400
85826W        W47247  27.687  21.662   2.832
85827W        W47248   1.343  35.989   4.285
85828W        W47249  41.888  42.982   4.297
85829W        W47250  34.555  39.535  12.404
85830W        W47251  25.600  15.809   2.890
85831W        W47252   7.839  24.221   2.213
85832W        W47253   7.388  20.144   1.290
85833W        W47254   9.801  18.245  12.039
85834W        W47255  13.134  17.177  14.918
85835W        W47256   1.479   2.450  10.639
85836W        W47257  31.591  32.588   3.844
85837W        W47258  44.970  19.604   3.720
85838W        W47259   4.310   9.172  14.430
85839W        W47260  27.194  28.962   0.817
85840W        W47261  27.956  31.003  14.335
85841W        W47262   3.412  20.068   5.156
85842W        W47263  26.544  34.466   4.640
85843W        W47264   1.971  19.643   2.849
85844W        W47265   1.467  29.495   3.726
85845W        W47266  42.920   1.322   0.956
85846W        W47267  35.448  29.480  10.917
85847W        W47268   4.230  39.916   0.899
85848W        W47269  29.984  41.897   4.158
85849W        W47270  22.641   1.342  11.390
85850W        W47271  29.989  16.095  10.971
85851W        W47272  29.054  16.163  13.860
85852W        W47273   4.274  23.126   0.961
85853W        W47274   9.186  30.528  14.852
85854W        W47275  35.984  23.036   3.751
85855W        W47276  35.050  26.964   0.428
85856W        W47277   0.763  33.057  14.759
85857W        W47278  16.279  35.867   4.825
85858W        W47279  11.828  28.969   0.939
85859W        W47280  42.290  40.528  14.391
85860W        W47281  35.465   8.405  12.988
85861W        W47282  29.581  19.714  14.458
85862W        W47283  29.578   0.895  10.445
85863W        W47284  10.190  36.852   0.908
85864W        W47285  41.888  20.135   1.402
85865W        W47286  42.910  22.637   4.152
85866W        W47287   3.932   9.647  14.396
85867W        W47288  25.516   7.171   3.662
85868W        W47289  24.139  21.026   0.960
85869W        W47290  23.716  18.137  12.479
85870W        W47291  21.068   0.831  11.403
85871W        W47292  41.467  33.098  14.388
85872W        W47293  41.929   6.781  10.966
85873W        W47294  20.053  20.224   0.826
85874W        W47295  40.339  23.022  13.362
85875W        W47296  21.576  23.648   1.337
85876W        W47297   1.333  18.544  11.961
85877W        W47298  28.531   5.804  11.112
85878W        W47299  23.558  32.538  13.315
85879W        W47300  41.401  18.713  10.972
85880W        W47301  37.379   7.677   2.350
85881W        W47302   4.705  34.064  10.988
85882W        W47303  29.524  24.113   1.906
85883W        W47304  39.434   9.293   1.869
85884W        W47305  31.992   1.404  12.493
85885W        W47306  43.985  24.523  10.925
85886W        W47307  19.658  43.838   4.835
85887W        W47308   7.347  42.799  11.569
85888W        W47309  21.678  10.788  11.896
85889W        W47310  40.351  14.661  12.539
85890W        W47311  25.481   1.372   1.231
85891W        W47312  19.186   1.406  13.542
85892W        W47313  33.114  33.899   4.147
85893W        W47314  37.555   6.824  14.002
85894W        W47315  15.313  20.112   1.856
85895W        W47316  25.097  41.010  13.507
85896W        W47317   8.292  27.148   4.703
85897W        W47318   0.897   9.318  11.574
85898W        W47319  28.656  39.338   3.662
85899W        W47320  25.653  41.489  13.545
85900W        W47321  44.380  20.260  11.046
85901W        W47322  34.987   9.768   3.273
85902W        W47323  24.596  43.837  10.536
85903W        W47324  31.908  23.078   0.959
85904W        W47325   6.424  23.199  12.361
85905W        W47326  17.208  44.784   1.802
85906W        W47327  32.964  15.302  10.639
85907W        W47328  13.686  26.130  12.476
85908W        W47329  20.594  42.857  11.085
85909W        W47330  35.079  21.056  13.836
85910W        W47331  34.050   0.959  10.954
85911W        W47332  38.432  34.476   0.869
85912W        W47333  32.066   7.374   4.649
85913W        W47334   4.423   4.767   3.369
85914W        W47335  13.834   9.777  13.362
85915W        W47336  15.660  41.309   1.925
85916W        W47337  38.390  19.703   3.800
85917W        W47338  29.614  16.688  11.594
85918W        W47339  20.147  34.615  12.018
85919W        W47340  13.797  32.446   0.356
85920W        W47341  11.695  11.217  13.310
85921W        W47342  25.624  28.947  14.353
85922W        W47343   6.264  19.554   2.761
85923W        W47344  35.596   1.478   2.800
85924W        W47345  28.975  28.624  10.991
85925W        W47346  33.574   5.312   3.826
85926W        W47347   0.932  14.155   2.680
85927W        W47348  21.671  26.590  14.835
85928W        W47349  30.027  12.749   2.295
85929W        W47350  24.660   5.911  12.356
85930W        W47351  19.538   7.189   0.876
85931W        W47352  30.086   9.875   2.248
85932W        W47353  38.995  34.404   0.349
85933W        W47354  34.958  31.481  13.447
85934W        W47355  42.334  39.979   4.114
85935W        W47356  11.735  33.032  11.406
85936W        W47357  11.234  38.404   9.491
85937W        W47358  25.049   2.369   1.854
85938W        W47359  15.253  43.454  12.446
85939W        W47360  15.106  44.946  13.413
85940W        W47361  25.695  38.489   3.250
85941W        W47362  15.328  37.018   3.825
85942W        W47363  36.958  41.889   1.905
85943W        W47364  34.581  37.946   2.254
85944W        W47365   0.865  41.009   4.739
85945W        W47366  34.936  40.380  11.021
85946W        W47367  26.696  15.751  14.019
85947W        W47368  24.706  10.269  12.350
85948W        W47369  26.481  32.114  11.861
85949W        W47370  20.062  41.903  11.446
85950W        W47371  20.583  43.303  13.317
85951W        W47372  33.025   0.748   4.832
85952W        W47373  18.693   4.757   0.248
85953W        W47374   6.694  12.117  10.520
85954W        W47375  10.737   3.799   1.319
85955W        W47376  19.767   9.208  13.367
85956W        W47377  10.755  12.193   1.720
85957W        W47378  41.303  30.602   1.246
85958W        W47379  22.029  16.765   4.776
85959W        W47380  30.049  33.501  14.432
85960W        W47381  28.471   3.426   3.166
85961W        W47382  12.833  16.301  14.770
85962W        W47383  12.731  14.685  10.945
85963W        W47384   0.333  35.397   0.462
85964W        W47385   3.736  21.173   4.127
85965W        W47386  33.986  42.881   2.798
85966W        W47387  35.874  41.008   4.211
85967W        W47388  32.039  44.827   3.364
85968W        W47389  43.454   8.176  10.410
85969W        W47390  37.379  29.618  11.066
85970W        W47391  19.039  44.792   1.750
85971W        W47392  15.647   2.356  11.931
85972W        W47393   3.387  18.560  13.986
85973W        W47394  30.449  44.468   4.747
85974W        W47395  38.036  40.319   2.787
85975W        W47396  18.237  25.089   3.231
85976W        W47397  43.432  14.638   0.883
85977W        W47398  12.271  43.368   1.435
85978W        W47399   5.855  36.520  12.833
85979W        W47400  24.724  23.159  12.939
85980W        W47401  43.367  11.336   4.667
85981W        W47402  25.146   1.869  10.644
85982W        W47403  34.538  15.105   4.327
85983W        W47404  23.130   0.329  12.340
85984W        W47405  11.864  42.812  10.123
85985W        W47406  39.956  25.632   2.687
85986W        W47407   9.232  17.627   3.153
85987W        W47408  35.360  11.670   4.772
85988W        W47409  34.983   8.357  14.885
85989W        W47410   0.259  44.365  12.384
85990W        W47411  42.973   4.336   0.825
85991W        W47412   6.821  23.064   1.816
85992W        W47413  34.044  32.947  14.985
85993W        W47414  43.771  43.407   1.710
85994W        W47415  40.447  15.718  14.994
85995W        W47416   1.906  22.052  10.995
85996W        W47417  17.137   1.798   0.845
85997W        W47418  10.634  41.518   5.287
85998W        W47419  19.220  21.060  10.134
85999W        W47420   0.476  23.076  12.563
86000W        W47421  28.624   0.870  12.046
86001W        W47422  38.371  10.789  12.421
86002W        W47423  21.645  36.564   4.615
86003W        W47424  35.522   1.971  11.495
86004W        W47425  37.491  40.383   0.918
86005W        W47426  42.910  41.999  13.913
86006W        W47427   6.795  15.648   0.302
86007W        W47428   1.886   4.365   3.290
86008W        W47429  15.290  16.802  11.089
86009W        W47430   9.298  39.935  13.852
86010W        W47431  38.841  15.210   1.717
86011W        W47432  28.948  22.111   2.296
86012W        W47433  18.228  36.024  11.890
86013W        W47434  12.642   0.830  13.937
86014W        W47435  40.038  23.065   4.669
86015W        W47436  35.568  36.513   2.759
86016W        W47437  22.718  23.556  11.984
86017W        W47438   5.924  39.450   2.791
86018W        W47439  35.449  35.937  14.439
86019W        W47440   5.432  33.570  13.368
86020W        W47441  27.108  18.277  13.926
86021W        W47442  42.473   2.351  14.334
86022W        W47443  29.619   5.713  11.537
86023W        W47444  40.477  15.095  10.914
86024W        W47445   0.808   1.893   5.749
86025W        W47446  35.032   9.716   2.724
86026W        W47447  17.574  14.685  14.018
86027W        W47448  23.694  18.722   2.213
86028W        W47449  24.669   4.716   0.422
86029W        W47450  24.570  42.029   3.211
86030W        W47451  13.709  20.035   1.401
86031W        W47452  13.135  37.941   4.716
86032W        W47453  37.865   7.200  14.961
86033W        W47454  29.592   8.832   0.248
86034W        W47455  41.830  33.465   0.401
86035W        W47456  27.609  35.425   3.241
86036W        W47457  26.674  23.731   2.284
86037W        W47458  17.076  13.807  11.507
86038W        W47459  11.713  31.998   3.184
86039W        W47460  19.205  27.024  14.882
86040W        W47461   5.283  16.760  11.072
86041W        W47462   1.809   4.348  14.784
86042W        W47463  10.729   0.867   2.342
86043W        W47464  40.860  42.461  10.926
86044W        W47465  23.530  33.079  13.898
86045W        W47466  29.025  44.315   3.732
86046W        W47467  30.539  25.069  14.940
86047W        W47468  32.957  28.154  10.479
86048W        W47469   2.867  16.796   4.169
86049W        W47470   5.390   8.688  11.513
86050W        W47471  17.134  25.689   0.299
86051W        W47472  11.726   7.193   0.402
86052W        W47473  41.391  36.018   2.400
86053W        W47474  38.070  28.987  13.857
86054W        W47475  25.035  36.529  11.583
86055W        W47476  38.911  13.162  12.924
86056W        W47477  36.069   1.955   4.278
86057W        W47478  34.069  16.761   0.731
86058W        W47479   2.375  20.058  14.866
86059W        W47480  29.649   8.818   2.752
86060W        W47481  25.144  17.132  13.959
86061W        W47482  15.804  19.239  13.543
86062W        W47483  36.582  43.300  13.477
86063W        W47484  40.493  15.253   0.369
86064W        W47485  18.695  18.280  13.418
86065W        W47486  16.135  12.247   0.760
86066W        W47487  10.672   1.248   2.782
86067W        W47488  34.560  20.759  12.991
86068W        W47489   4.385  40.900   4.115
86069W        W47490  12.758  31.098   3.240
86070W        W47491  29.112  35.010   3.682
86071W        W47492  24.060  30.603  11.091
86072W        W47493  10.278  43.407  12.363
86073W        W47494  40.498   4.770  12.529
86074W        W47495  15.667  37.471   0.457
86075W        W47496  25.522  18.162  10.413
86076W        W47497  20.143  20.052   2.854
86077W        W47498  22.602  11.799  11.585
86078W        W47499   8.789  25.599   2.264
86079W        W47500  25.182  15.150  14.893
86080W        W47501  41.463  36.878   0.814
86081W        W47502  41.958  10.203   0.815
86082W        W47503   6.897   1.824  12.499
86083W        W47504  39.471  14.338  13.994
86084W        W47505  12.666  34.596  13.391
86085W        W47506  41.374  42.884   0.919
86086W        W47507   4.224  18.774  13.382
86087W        W47508  36.084  19.124   2.353
86088W        W47509  37.920  42.391  13.888
86089W        W47510  31.104  26.515  10.937
86090W        W47511  20.078  20.249   4.297
86091W        W47512  26.541  10.330   0.438
86092W        W47513  41.372   6.371  10.446
86093W        W47514  15.162  37.539   4.222
86094W        W47515  35.413  20.650  10.456
86095W        W47516  44.813  18.749  13.537
86096W        W47517   3.325   9.692  12.071
86097W        W47518  24.105   8.195  11.997
86098W        W47519  22.081  38.416   4.622
86099W        W47520  37.065  43.960  12.823
86100W        W47521   3.374  10.304   4.715
86101W        W47522  37.366  38.972  11.012
86102W        W47523  28.974  38.822   1.327
86103W        W47524  27.149  44.479   2.820
86104W        W47525  41.494  41.366   2.884
86105W        W47526  38.030  22.237  14.857
86106W        W47527  21.722   4.214  13.360
86107W        W47528  14.213  37.423   0.806
86108W        W47529  29.661  13.710  10.506
86109W        W47530  29.000   7.217   4.241
86110W        W47531  21.721   1.414  11.532
86111W        W47532  28.015  28.495   3.645
86112W        W47533  16.601   3.789   3.826
86113W        W47534   7.307  18.563  12.407
86114W        W47535  44.470  37.493  12.014
86115W        W47536   3.795   6.871  12.396
86116W        W47537  29.459   7.358   1.313
86117W        W47538  31.022  39.887   4.665
86118W        W47539  34.971  25.069  14.293
86119W        W47540  38.466  29.515  13.494
86120W        W47541   9.334  10.161  14.931
86121W        W47542  21.191  36.513  13.445
86122W        W47543  14.204  36.091   1.327
86123W        W47544  19.579   7.724   1.224
86124W        W47545  33.396  37.542  13.344
86125W        W47546  44.387  19.055  10.603
86126W        W47547  35.511   4.265  11.433
86127W        W47548   4.245  22.631   3.804
86128W        W47549   4.862  32.551  11.955
86129W        W47550  28.019  36.948   1.919
86130W        W47551  34.604  23.048  14.024
86131W        W47552   8.679  40.360   0.398
86132W        W47553  30.640  42.014  14.415
86133W        W47554  10.371  40.411   0.384
86134W        W47555  39.502  26.632  13.920
86135W        W47556  37.907   9.173   1.923
86136W        W47557  21.647  10.706   4.825
86137W        W47558   2.292  44.812   2.781
86138W        W47559  15.237  43.804   2.311
86139W        W47560  24.479   7.205  14.985
86140W        W47561  26.669  33.586   5.108
86141W        W47562  17.183  18.113  11.071
86142W        W47563  32.119  40.957   2.406
86143W        W47564  11.747  10.838   1.876
86144W        W47565  37.413  29.071   2.408
86145W        W47566  39.436  15.791  12.465
86146W        W47567   3.283  40.338  14.427
86147W        W47568  19.238   3.832  13.932
86148W        W47569  21.242  30.134   1.276
86149W        W47570   0.949  29.481   3.231
86150W        W47571  20.111  32.436  12.375
86151W        W47572  29.601  34.434  14.016
86152W        W47573  36.052  22.131   3.375
86153W        W47574   0.828  41.456  12.994
86154W        W47575  13.263  28.073  10.970
86155W        W47576  41.332  28.974   4.290
86156W        W47577   4.790  19.667  13.827
86157W        W47578   1.863  32.548  14.312
86158W        W47579   6.185  42.468  11.482
86159W        W47580  20.203  29.638   1.846
86160W        W47581  25.532  34.489   1.243
86161W        W47582  18.251  33.127  14.450
86162W        W47583  30.607  14.298  14.931
86163W        W47584  37.527   2.240  10.544
86164W        W47585   0.831  20.216   3.682
86165W        W47586  24.544   1.895  14.890
86166W        W47587  21.111  11.781   3.331
86167W        W47588   2.932  30.046   0.480
86168W        W47589  16.575  34.992  13.410
86169W        W47590  17.178  42.348   0.430
86170W        W47591   4.814  12.353   0.767
86171W        W47592   4.890  38.877   0.950
86172W        W47593  23.635  24.048  14.962
86173W        W47594   8.286  36.424   0.758
86174W        W47595  36.844  24.686   2.348
86175W        W47596  32.030  11.823   2.857
86176W        W47597  17.562  37.528   5.251
86177W        W47598  36.034  34.985  10.599
86178W        W47599  41.810  20.739  14.855
86179W        W47600  25.059  20.602   0.915
86180W        W47601  30.624  40.856  14.439
86181W        W47602  27.084  19.095  12.831
86182W        W47603  42.485   0.969   4.284
86183W        W47604   3.445   7.779  11.109
86184W        W47605  42.011  12.663  10.098
86185W        W47606  11.247  39.325   4.624
86186W        W47607  22.520   3.408  10.000
86187W        W47608  32.964   1.378   2.896
86188W        W47609   9.870   2.781  13.424
86189W        W47610  26.165  22.094   0.947
86190W        W47611  11.634  23.624  10.927
86191W        W47612  39.448  34.546  11.463
86192W        W47613  28.592   9.231   2.851
86193W        W47614  33.477  31.609  11.978
86194W        W47615  11.138  28.138   3.727
86195W        W47616   1.966   7.231   2.834
86196W        W47617  35.588  23.052   4.327
86197W        W47618  44.828  16.804  13.914
86198W        W47619  15.292  40.453   3.831
86199W        W47620  20.108  14.230   2.807
86200W        W47621  37.416  19.619  11.016
86201W        W47622  39.374  41.307  13.025
86202W        W47623   3.782  33.932  12.903
86203W        W47624  11.829  36.484   2.258
86204W        W47625   3.276   6.692   4.769
86205W        W47626   4.274  15.642   1.932
86206W        W47627  43.378  33.480   1.779
86207W        W47628  27.651  20.571  13.426
86208W        W47629  10.352  38.569  12.937
86209W        W47630  10.825  25.163  13.337
86210W        W47631   4.413  32.547   1.819
86211W        W47632   9.712  34.404  13.006
86212W        W47633  38.488  35.095   0.426
86213W        W47634  20.254  36.974   4.729
86214W        W47635  32.503  16.194   1.825
86215W        W47636  35.497  15.767   3.715
86216W        W47637   8.711  40.321   5.176
86217W        W47638   7.406  11.137  11.410
86218W        W47639  26.511  24.011  14.942
86219W        W47640  17.666  36.869   3.267
86220W        W47641   4.357  32.940   1.841
86221W        W47642  36.575   5.198   4.777
86222W        W47643  40.862  20.719  14.950
86223W        W47644   9.686  37.922  14.853
86224W        W47645  44.827  43.380  14.791
86225W        W47646   6.302  37.491  11.490
86226W        W47647   9.766  15.745  13.896
86227W        W47648  25.696   6.388   5.108
86228W        W47649  31.994   3.318  12.004
86229W        W47650  11.359  20.108   0.288
86230W        W47651  19.771  27.557  10.503
86231W        W47652  28.166  38.365  13.377
86232W        W47653   5.870  14.226   4.720
86233W        W47654   0.390   4.279   4.627
86234W        W47655   0.857   4.703  14.973
86235W        W47656  12.671  34.393  11.429
86236W        W47657   7.331   7.864   2.402
86237W        W47658   2.796   8.709  12.513
86238W        W47659  21.237  42.778   4.748
86239W        W47660  24.983  31.965   2.829
86240W        W47661  34.472  38.048  11.987
86241W        W47662  12.242   7.375   3.812
86242W        W47663  42.971  35.539  14.337
86243W        W47664  20.765  12.260   2.273
86244W        W47665   0.743  36.425  12.075
86245W        W47666  37.424   0.435  14.863
86246W        W47667  38.883   9.832   2.303
86247W        W47668  20.614  24.582   3.296
86248W        W47669  17.685  34.593  14.297
86249W        W47670  20.626  28.996   2.270
86250W        W47671  33.462  24.041  12.367
86251W        W47672  31.986  10.256   1.750
86252W        W47673  25.665  15.624  12.468
86253W        W47674  10.700  33.881   1.425
86254W        W47675  38.397  37.960   4.783
86255W        W47676  15.178   0.385  14.400
86256W        W47677   8.751  27.970  14.832
86257W        W47678  38.370  27.534   1.276
86258W        W47679  32.992  26.091  13.893
86259W        W47680  36.930  24.123   2.343
86260W        W47681  14.117  30.587   1.343
86261W        W47682  16.604  22.055  12.989
86262W        W47683   2.252  28.165   1.730
86263W        W47684  15.733  20.557   2.798
86264W        W47685  26.480  34.420   0.926
86265W        W47686  25.629  15.801   3.772
86266W        W47687  32.586  29.526  11.102
86267W        W47688   6.349  17.129   3.631
86268W        W47689  28.498  13.621   2.411
86269W        W47690  17.262   8.786   1.267
86270W        W47691  15.819  16.248  13.509
86271W        W47692  22.707  35.497  14.977
86272W        W47693   7.834  15.816  11.941
86273W        W47694  14.772  24.019   4.621
86274W        W47695  41.333  24.051   3.176
86275W        W47696  39.812  11.296  13.880
86276W        W47697  41.951  15.724   2.828
86277W        W47698   1.269  32.141  11.441
86278W        W47699  17.667  24.487   1.717
86279W        W47700  37.540  31.982  14.353
86280W        W47701  44.418  18.253  12.538
86281W        W47702   3.350  31.925  12.053
86282W        W47703  27.145  38.324  10.588
86283W        W47704  23.161  31.588   2.705
86284W        W47705  26.196   0.275  14.815
86285W        W47706  33.394  26.090   3.193
86286W        W47707  25.061   3.773   3.343
86287W        W47708  25.995  40.948   3.645
86288W        W47709  17.761  19.054   3.238
86289W        W47710  11.859  36.587  10.945
86290W        W47711  33.001   2.817  12.894
86291W        W47712  43.464  29.614  10.439
86292W        W47713  24.622  20.168  11.945
86293W        W47714  35.866  27.092   0.393
86294W        W47715  10.697   3.222   0.247
86295W        W47716  29.541  23.709   1.706
86296W        W47717  13.683  36.490  14.003
86297W        W47718  27.582  40.478   0.878
86298W        W47719  30.526  28.996   2.246
86299W        W47720  33.926   6.401   0.286
86300W        W47721   2.429  20.226  11.028
86301W        W47722  40.485  42.876   0.405
86302W        W47723  20.252  14.141  13.808
86303W        W47724  29.948  19.232   1.700
86304W        W47725  16.191  41.493  11.564
86305W        W47726  19.633   3.885  11.973
86306W        W47727  39.394  10.698  11.856
86307W        W47728  18.709  23.194   3.317
86308W        W47729  24.575   1.272  13.880
86309W        W47730  10.725  35.505  13.049
86310W        W47731  22.072  34.390  10.915
86311W        W47732   6.798  21.219  12.486
86312W        W47733   4.809  14.673   4.118
86313W        W47734  30.055  42.396   4.714
86314W        W47735  19.701  39.062   0.342
86315W        W47736   7.711  40.916  13.974
86316W        W47737  42.495   2.232   1.310
86317W        W47738  24.071  34.863   2.842
86318W        W47739  11.838   0.755   5.099
86319W        W47740  10.381  25.505   4.278
86320W        W47741  35.855  39.915  12.558
86321W        W47742  19.192  20.243   3.667
86322W        W47743  41.353  24.502   0.363
86323W        W47744  26.154  30.085  10.470
86324W        W47745  41.416  11.140  14.344
86325W        W47746  23.197  33.096  10.991
86326W        W47747  19.229   7.396   3.267
86327W        W47748  16.161   4.428  14.346
86328W        W47749  21.134  42.499   2.239
86329W        W47750   9.178  37.507   4.265
86330W        W47751  15.260  38.446   2.411
86331W        W47752  40.308  12.800   5.195
86332W        W47753  28.564  19.754  10.959
86333W        W47754  22.507  22.632   3.809
86334W        W47755  35.467  41.840   0.899
86335W        W47756  17.677  26.181   2.364
86336W        W47757  20.233  16.302   3.355
86337W        W47758  17.268  41.360   2.751
86338W        W47759  19.174   4.370   4.695
86339W        W47760  38.541  27.126  14.829
86340W        W47761  41.981  20.605   4.324
86341W        W47762  11.189  12.223  14.958
86342W        W47763  33.947  30.049  12.388
86343W        W47764  24.585  22.586  11.993
86344W        W47765   4.927  27.054   9.941
86345W        W47766  34.480  41.374  10.936
86346W        W47767  23.153  14.162  13.025
86347W        W47768  20.689  27.157  13.368
86348W        W47769   1.789  26.981  10.448
86349W        W47770  17.297  10.723   2.764
86350W        W47771  39.886  14.298   1.819
86351W        W47772  29.998  17.643   3.778
86352W        W47773  14.338   9.779  14.329
86353W        W47774  43.304  16.662  12.452
86354W        W47775  37.957   7.412   3.151
86355W        W47776  36.446   3.310   0.730
86356W        W47777  15.121   4.439  11.062
86357W        W47778  39.365  21.088   0.861
86358W        W47779  12.357  19.191   1.440
86359W        W47780  25.126  33.068  10.984
86360W        W47781  25.686  20.733   3.804
86361W        W47782  26.159  13.108   3.740
86362W        W47783  22.740  16.699  12.901
86363W        W47784  18.193   2.803   4.118
86364W        W47785  18.643   0.946   1.419
86365W        W47786  33.984  19.733   4.786
86366W        W47787   2.830  36.487  10.465
86367W        W47788  35.969   5.328   2.206
86368W        W47789  25.218  40.973  11.019
86369W        W47790  23.078  32.532   0.250
86370W        W47791   5.198  39.969  14.416
86371W        W47792  16.261  43.825   2.855
86372W        W47793  19.275  36.977  11.380
86373W        W47794  36.524  25.185   1.839
86374W        W47795  29.160  32.628   3.239
86375W        W47796  25.998  31.991   3.242
86376W        W47797  13.668  25.494   1.864
86377W        W47798  44.856  19.561   4.612
86378W        W47799  14.834  28.938  10.892
86379W        W47800  26.964   6.269   2.391
86380W        W47801  15.185  40.427   2.711
86381W        W47802   2.755  20.566   1.776
86382W        W47803  27.940  25.611   0.323
86383W        W47804  21.032  22.112   1.803
86384W        W47805  14.162  21.570  12.890
86385W        W47806   8.815  38.469   2.317
86386W        W47807  14.781  27.977   1.912
86387W        W47808  16.168  32.536  13.964
86388W        W47809   4.891  31.026  12.064
86389W        W47810  31.035  26.137   2.898
86390W        W47811  43.997  44.325   9.946
86391W        W47812  21.094   0.746   1.917
86392W        W47813  10.281  42.028   4.735
86393W        W47814  14.813   1.262  13.541
86394W        W47815  37.551  37.923  12.054
86395W        W47816   5.232  15.746   3.175
86396W        W47817  42.337  32.618  11.401
86397W        W47818  36.095  24.513  11.095
86398W        W47819   3.764  44.990   0.737
86399W        W47820  40.912  32.946   4.264
86400W        W47821  29.989  14.156   1.401
86401W        W47822  37.518  37.534  12.008
86402W        W47823  23.143  44.923   3.163
86403W        W47824  24.168  19.061  10.417
86404W        W47825  17.633   8.772   4.124
86405W        W47826   5.800   7.869  10.442
86406W        W47827  38.887  29.020  14.942
86407W        W47828  17.604   6.890  12.446
86408W        W47829  43.919   0.863  10.595
86409W        W47830  34.900  26.621  10.939
86410W        W47831   0.771  41.945  13.823
86411W        W47832  15.144  38.503   3.209
86412W        W47833  25.592   2.328   1.911
86413W        W47834  22.727  21.133   9.960
86414W        W47835   9.238  30.958   0.927
86415W        W47836  28.145  11.798  14.984
86416W        W47837  14.757  37.041   0.843
86417W        W47838  38.459   5.811   3.765
86418W        W47839  39.316  37.353  14.384
86419W        W47840  24.696  39.859   4.695
86420W        W47841   4.243   8.371  11.125
86421W        W47842  42.885  41.319  11.600
86422W        W47843  18.707   5.768  12.939
86423W        W47844   1.757   1.943  13.873
86424W        W47845   2.433  25.065   2.389
86425W        W47846  41.963   8.855   1.839
86426W        W47847  13.237  23.603   4.304
86427W        W47848  31.562  31.132   3.271
86428W        W47849  33.902  37.860   2.223
86429W        W47850  10.874  28.131  14.988
86430W        W47851  44.287  33.454   1.807
86431W        W47852  32.964  24.648  13.010
86432W        W47853  19.534  32.517  14.469
86433W        W47854  33.058  12.666  12.395
86434W        W47855  23.995  19.696  11.874
86435W        W47856  24.708  34.068   3.279
86436W        W47857   9.376  39.519  10.908
86437W        W47858   6.801   4.207  14.913
86438W        W47859  16.299  42.482  14.772
86439W        W47860  41.874  36.988   4.315
86440W        W47861  30.475   7.183   1.261
86441W        W47862  23.678   6.184   0.325
86442W        W47863  15.686  42.839  14.846
86443W        W47864  35.953   2.392   0.285
86444W        W47865  24.722  11.237   1.284
86445W        W47866  10.280   4.929  11.535
86446W        W47867  28.152  16.139   3.775
86447W        W47868  42.838  25.133  14.991
86448W        W47869  14.601  20.617   3.860
86449W        W47870  38.866  24.144  13.407
86450W        W47871  40.000  19.695  14.387
86451W        W47872  41.832  42.024   0.755
86452W        W47873  12.761  11.269   0.310
86453W        W47874  42.880   7.667  13.794
86454W        W47875  44.273  37.909   0.412
86455W        W47876  19.105   1.747  13.856
86456W        W47877  16.193  21.546  13.875
86457W        W47878  26.586  30.659  13.526
86458W        W47879  13.293  13.150   0.243
86459W        W47880  44.978  31.502  14.506
86460W        W47881  34.510  35.028  11.070
86461W        W47882  18.084  37.455  13.509
86462W        W47883  39.320   6.244   4.829
86463W        W47884  12.331  41.348   3.731
86464W        W47885   2.916  20.682   3.170
86465W        W47886  35.898  23.040   0.408
86466W        W47887  15.130  34.872   0.881
86467W        W47888   7.302  10.230  11.549
86468W        W47889  35.563  25.081  12.003
86469W        W47890  29.638  25.690   0.776
86470W        W47891   2.408  12.662  14.389
86471W        W47892   7.876  33.008   1.736
86472W        W47893   0.297  18.121   0.260
86473W        W47894  27.452   3.437   1.429
86474W        W47895   2.269  31.466  12.375
86475W        W47896   6.834   9.889  12.054
86476W        W47897  29.586  14.729  11.554
86477W        W47898  17.601   8.344  14.425
86478W        W47899  16.241  22.659  14.467
86479W        W47900  21.243  20.654  11.592
86480W        W47901  25.472  36.586  10.989
86481W        W47902  41.993  19.042  11.074
86482W        W47903  20.202  12.231   2.220
86483W        W47904  41.429  38.035   2.332
86484W        W47905  12.846  36.986  11.415
86485W        W47906  33.566   8.882   1.311
86486W        W47907  32.048  27.668   0.932
86487W        W47908  13.846   4.217  14.930
86488W        W47909   5.796  21.610  13.345
86489W        W47910  24.648  14.755   4.822
86490W        W47911  36.890  27.048   2.901
86491W        W47912  29.604  28.169  11.094
86492W        W47913  29.979  33.959   2.286
86493W        W47914  28.611  37.920   3.848
86494W        W47915   4.768  33.468  13.427
86495W        W47916  34.998  17.289  14.398
86496W        W47917   6.678   4.405   3.642
86497W        W47918   3.419  13.170   3.777
86498W        W47919  28.462  34.462   1.862
86499W        W47920  13.641  24.204  10.917
86500W        W47921  37.866   4.384  10.993
86501W        W47922   6.833  33.066  14.334
86502W        W47923  37.997  37.034  11.518
86503W        W47924  27.596  15.102   1.267
86504W        W47925  18.202   6.339  14.774
86505W        W47926  18.141  37.423   0.780
86506W        W47927  40.824  19.689  12.936
86507W        W47928   4.336   9.244  11.500
86508W        W47929   4.354  24.023  13.389
86509W        W47930  24.507   9.175  14.466
86510W        W47931   1.860   8.170   0.807
86511W        W47932   9.666   4.212   0.752
86512W        W47933   8.406   5.351   3.650
86513W        W47934   9.304  41.292   5.800
86514W        W47935  27.958  18.600   3.753
86515W        W47936  33.121  19.666  13.530
86516W        W47937  28.167   0.347   3.849
86517W        W47938  15.821  14.169  10.956
86518W        W47939  34.567  42.358  12.479
86519W        W47940  26.671  40.035  10.999
86520W        W47941  23.621  30.651  11.966
86521W        W47942   7.852  24.075   4.226
86522W        W47943  21.655   4.866  14.840
86523W        W47944   9.845  29.102   1.248
86524W        W47945  37.545  18.583   2.810
86525W        W47946  26.155  41.335   2.681
86526W        W47947  37.979   4.784   3.806
86527W        W47948  31.121  40.318   4.613
86528W        W47949   4.446  31.621   1.343
86529W        W47950  42.410   1.373  11.912
86530W        W47951  21.030  15.823   3.362
86531W        W47952  28.163  25.060  11.097
86532W        W47953  35.513  11.336   1.416
86533W        W47954  25.215   9.791   4.283
86534W        W47955  35.516  22.036   2.897
86535W        W47956  22.707  32.921  14.009
86536W        W47957   2.935  26.529   3.752
86537W        W47958  22.068  37.493   2.330
86538W        W47959  42.383  10.191   0.927
86539W        W47960  16.220  13.326   4.649
86540W        W47961  32.548   5.696  12.046
86541W        W47962  29.426  22.032   0.249
86542W        W47963  23.515  17.228  13.047
86543W        W47964  14.273  26.002  14.412
86544W        W47965   3.877  26.580   0.909
86545W        W47966  22.686   3.789  12.850
86546W        W47967  32.448  36.485   1.217
86547W        W47968  41.000   8.811  12.021
86548W        W47969   0.921   3.940   9.501
86549W        W47970  22.252  25.047   5.158
86550W        W47971  41.403  24.025  12.366
86551W        W47972  25.671  18.622  10.925
86552W        W47973  11.808  36.019   3.736
86553W        W47974  25.175   1.258  12.961
86554W        W47975   2.311  30.049   4.248
86555W        W47976   3.729  11.313   2.797
86556W        W47977  37.448  23.684   1.438
86557W        W47978  40.845  39.993  10.591
86558W        W47979   2.250   1.248   5.196
86559W        W47980  19.125   0.272  13.399
86560W        W47981  12.123  20.552  12.929
86561W        W47982  25.677   2.240   1.297
86562W        W47983  28.623  24.628   4.810
86563W        W47984  10.743  44.858  13.046
86564W        W47985  44.367  12.218   3.247
86565W        W47986  15.778  41.450  11.997
86566W        W47987   7.417   3.259  10.536
86567W        W47988   8.814  35.082   2.371
86568W        W47989  19.185  33.564  13.919
86569W        W47990  41.805  29.153  14.773
86570W        W47991  29.532  25.176  11.899
86571W        W47992   3.445  23.697   1.833
86572W        W47993  18.199  43.422  14.465
86573W        W47994  10.172  26.674  10.979
86574W        W47995  10.201  34.061   1.822
86575W        W47996  33.986  28.158  12.061
86576W        W47997  17.082  13.239   3.173
86577W        W47998  30.511  41.538  12.541
86578W        W47999  13.808   2.756  13.439
86579W        W48000  30.456  25.707  13.900
86580W        W48001  34.449   6.232  13.967
86581W        W48002  30.951  35.970  14.804
86582W        W48003  23.572  44.830  14.910
86583W        W48004  17.189   3.866  14.391
86584W        W48005   1.789  18.159   2.308
86585W        W48006  43.499  19.753   5.152
86586W        W48007  27.079  23.232   3.233
86587W        W48008  35.929  25.537  13.968
86588W        W48009  11.372   0.832  10.567
86589W        W48010  39.828  29.958   3.696
86590W        W48011  43.448  19.666  11.415
86591W        W48012  38.061  44.868  10.950
86592W        W48013  26.998  36.850   0.391
86593W        W48014  27.589  21.211  11.035
86594W        W48015  32.909  27.065   1.697
86595W        W48016  17.110  11.167  12.943
86596W        W48017  42.999  34.389  13.415
86597W        W48018  18.741  13.725  11.589
86598W        W48019  14.273  10.374  13.805
86599W        W48020   4.852  37.421   3.762
86600W        W48021  30.132  39.429  13.424
86601W        W48022   7.811  43.326   4.297
86602W        W48023  37.565  21.117  13.335
86603W        W48024  18.614  10.692  12.916
86604W        W48025  26.174  35.448  12.384
86605W        W48026  37.060  15.248  14.292
86606W        W48027   0.984  23.552   3.173
86607W        W48028  11.329   5.866  14.833
86608W        W48029  35.966  24.595   2.871
86609W        W48030  15.722  14.774  14.314
86610W        W48031  30.061  21.113  12.930
86611W        W48032  23.017  23.025   2.245
86612W        W48033  18.559  32.894  11.406
86613W        W48034  13.105  36.524  11.391
86614W        W48035  23.626  29.137   0.365
86615W        W48036  18.062   5.204   3.306
86616W        W48037  33.114  41.032   0.812
86617W        W48038  13.334  21.640   3.213
86618W        W48039  34.907  21.063  11.994
86619W        W48040   6.216  25.471  14.879
86620W        W48041  20.613   5.899   1.367
86621W        W48042  25.520  18.678  11.927
86622W        W48043  35.504  41.849  14.398
86623W        W48044  38.481  24.981   0.833
86624W        W48045  11.704  13.232   0.767
86625W        W48046  35.951  29.518  14.022
86626W        W48047  11.322   5.924   1.804
86627W        W48048  37.983  27.448  10.427
86628W        W48049  35.497  14.338  11.552
86629W        W48050  23.550  35.568   1.767
86630W        W48051  37.567  31.112   0.815
86631W        W48052  28.627  43.426   0.430
86632W        W48053  10.333  29.653   4.768
86633W        W48054   3.898  21.238   2.233
86634W        W48055  31.519   5.265  14.870
86635W        W48056  40.309  30.591   2.759
86636W        W48057  42.304  12.718  13.523
86637W        W48058  26.048  39.533  10.562
86638W        W48059   9.707  10.342  14.891
86639W        W48060   8.169  18.295  14.440
86640W        W48061   0.974   7.761   3.806
86641W        W48062   3.845  13.334   2.339
86642W        W48063  31.146  34.015  14.436
86643W        W48064  34.414  38.421  14.487
86644W        W48065   8.401  29.633   1.910
86645W        W48066  43.784   3.228  13.471
86646W        W48067   9.775   0.316  11.049
86647W        W48068  29.173  14.287  12.036
86648W        W48069  42.853  39.050   1.863
86649W        W48070  28.929  33.448  12.947
86650W        W48071  30.520   9.302  13.058
86651W        W48072  22.612  19.631  12.451
86652W        W48073  13.792  34.522  10.457
86653W        W48074   2.323  24.157  11.380
86654W        W48075   0.468   3.726  14.391
86655W        W48076  22.697  17.587   4.325
86656W        W48077  10.345   4.271  11.920
86657W        W48078  41.383  42.982   3.678
86658W        W48079  25.054  32.914   3.849
86659W        W48080  34.870  24.619   0.258
86660W        W48081  37.543   2.915  12.996
86661W        W48082   7.332  20.644   1.717
86662W        W48083   4.404  37.440   5.132
86663W        W48084   8.897  35.019   0.785
86664W        W48085  29.440  11.325  11.918
86665W        W48086   5.258  26.095   0.810
86666W        W48087  15.790  31.999  13.918
86667W        W48088  10.316  41.986   2.216
86668W        W48089  35.530  12.285  10.451
86669W        W48090  27.131  16.708   4.770
86670W        W48091  12.823  20.593  11.565
86671W        W48092  40.385  23.675   3.747
86672W        W48093   1.829  36.549   3.852
86673W        W48094   2.361  18.192  10.053
86674W        W48095  22.719  13.202   1.867
86675W        W48096  19.274  26.590  11.431
86676W        W48097  17.734  42.879   2.692
86677W        W48098  12.616  13.780  12.554
86678W        W48099  15.085  31.093   5.140
86679W        W48100  23.075  10.753  12.966
86680W        W48101  12.839  18.732  13.995
86681W        W48102  34.422  43.922   1.377
86682W        W48103  41.500  37.476  10.978
86683W        W48104   0.976  30.622   1.824
86684W        W48105  41.973  28.125  10.485
86685W        W48106  33.108  41.864   2.243
86686W        W48107  42.934  38.404  14.958
86687W        W48108  31.613  40.031   4.175
86688W        W48109  20.732  40.026  13.915
86689W        W48110   2.461   4.752   3.865
86690W        W48111  41.349  19.544  11.423
86691W        W48112  25.683  28.675   2.341
86692W        W48113   1.280  13.649  14.324
86693W        W48114  16.076  31.090  12.547
86694W        W48115  42.975  25.626  12.415
86695W        W48116   6.729  39.450   3.382
86696W        W48117   5.212  21.698  14.343
86697W        W48118  12.309  33.588   1.247
86698W        W48119  40.446  25.171  14.980
86699W        W48120  35.511   9.238  10.939
86700W        W48121   3.399  14.819  13.358
86701W        W48122  21.671   4.346   0.376
86702W        W48123  34.960  14.806   1.791
86703W        W48124  17.294  38.993   3.263
86704W        W48125  16.747  12.169   0.311
86705W        W48126   1.968  34.950   4.317
86706W        W48127   6.184  19.208  14.864
86707W        W48128  20.037   0.799   0.322
86708W        W48129   7.901  38.853  14.813
86709W        W48130  34.609  30.636   1.394
86710W        W48131  31.040  32.012  11.077
86711W        W48132  37.932  32.581   1.216
86712W        W48133  24.068  38.921   0.248
86713W        W48134  21.220  10.647  12.983
86714W        W48135  25.583  38.431  10.954
86715W        W48136  22.086  22.607  13.974
86716W        W48137  32.478   0.887  14.477
86717W        W48138  31.548   0.263  11.441
86718W        W48139  37.061  15.158  13.337
86719W        W48140  29.041  34.056   2.246
86720W        W48141   1.359   6.791  11.512
86721W        W48142  17.796  23.200   2.250
86722W        W48143  34.493  32.587   3.850
86723W        W48144  34.949  28.943   1.871
86724W        W48145   2.452  11.185   2.230
86725W        W48146  36.855   8.866   0.886
86726W        W48147  25.494  10.778   3.386
86727W        W48148  10.290  36.873  13.362
86728W        W48149   2.792   8.678  13.792
86729W        W48150  32.445  37.475   2.731
86730W        W48151  36.035  43.781   2.691
86731W        W48152   5.260  42.508  14.324
86732W        W48153  33.442  19.672  10.952
86733W        W48154  44.897   4.867  14.825
86734W        W48155  31.603  30.959  12.359
86735W        W48156  22.195  26.173   1.448
86736W        W48157  17.241  13.187   1.802
86737W        W48158  38.056  13.128   9.504
86738W        W48159  40.891  25.102   4.811
86739W        W48160  24.554  12.125   3.735
86740W        W48161  39.552   4.211  12.409
86741W        W48162  40.454  30.941  12.565
86742W        W48163  42.485  20.235   1.424
86743W        W48164  11.848  20.578  10.528
86744W        W48165   8.313  38.399  14.008
86745W        W48166  20.259  28.521   0.311
86746W        W48167   2.921   9.681  14.349
86747W        W48168  30.913  25.177   4.320
86748W        W48169  17.302   6.382   0.287
86749W        W48170  20.224   2.312  13.472
86750W        W48171  23.000   5.338  12.983
86751W        W48172  32.635   0.877  12.971
86752W        W48173  12.688   9.229   2.716
86753W        W48174   2.358  15.287  13.482
86754W        W48175   2.778  35.534   3.630
86755W        W48176  26.987  41.940  14.509
86756W        W48177  43.487  10.153  10.641
86757W        W48178  43.838   4.450  11.397
86758W        W48179  26.029  30.952   4.229
86759W        W48180  18.703   4.208  14.897
86760W        W48181  41.030  33.532   3.376
86761W        W48182   3.428  30.457  14.879
86762W        W48183  44.914  34.463  11.936
86763W        W48184  31.909   0.452   2.856
86764W        W48185  43.515  35.906  13.504
86765W        W48186  15.120   5.202   3.730
86766W        W48187  11.348  39.941   9.590
86767W        W48188  38.436  27.692   0.929
86768W        W48189   0.411  16.634   4.802
86769W        W48190  44.944  22.128   4.114
86770W        W48191  43.875  37.064   3.666
86771W        W48192  33.895  42.295  12.453
86772W        W48193  20.628  37.938  12.070
86773W        W48194   2.837   1.402   3.183
86774W        W48195  44.920  26.548   0.956
86775W        W48196  24.479   5.439   2.771
86776W        W48197  40.825   7.758  12.008
86777W        W48198  44.441   7.685  14.818
86778W        W48199  30.591   9.393   3.232
86779W        W48200  41.951  28.527  13.401
86780W        W48201   6.304  30.080  13.523
86781W        W48202  28.931  24.624   2.381
86782W        W48203  35.103  39.530  12.957
86783W        W48204  12.332  25.670  13.851
86784W        W48205  41.881  28.470  10.434
86785W        W48206  22.705  12.236  11.479
86786W        W48207  33.380  35.931   1.385
86787W        W48208  37.467  24.084  12.557
86788W        W48209  19.560  36.516   1.432
86789W        W48210   5.268  38.401   9.570
86790W        W48211  35.096  27.605   2.732
86791W        W48212  42.988  33.052   0.282
86792W        W48213   0.790  24.158  11.536
86793W        W48214  12.349  12.613  11.594
86794W        W48215  41.314  39.004  10.961
86795W        W48216   5.732   5.690  13.018
86796W        W48217  25.695   8.405  13.340
86797W        W48218  31.150  40.522   1.743
86798W        W48219   9.656  28.491   1.905
86799W        W48220  20.539  17.209  13.061
86800W        W48221  31.002  25.198   2.391
86801W        W48222  40.425  21.161   2.707
86802W        W48223  28.115  21.023  14.951
86803W        W48224  37.080  28.077  13.400
86804W        W48225   7.371  37.579  12.348
86805W        W48226  13.740  26.023   3.146
86806W        W48227  14.333  30.422   0.912
86807W        W48228  27.562   8.886   3.645
86808W        W48229  27.177  17.747   0.907
86809W        W48230  38.029   2.274  12.383
86810W        W48231  35.923  17.297  10.645
86811W        W48232   2.255  10.301  12.557
86812W        W48233   3.263  18.212  12.879
86813W        W48234  10.370   9.814  11.522
86814W        W48235  44.278  41.031   0.946
86815W        W48236  32.919  33.952   3.364
86816W        W48237  30.059  35.045   1.857
86817W        W48238  25.039  23.213   2.240
86818W        W48239   8.787   2.923  10.988
86819W        W48240  10.828  15.629  12.859
86820W        W48241   0.924  43.985   2.230
86821W        W48242  41.882  18.684  11.063
86822W        W48243  16.224  43.956   2.348
86823W        W48244  11.835   4.853   3.314
86824W        W48245  42.854   0.337   9.925
86825W        W48246  22.517  43.014  14.959
86826W        W48247  41.824  31.135   1.795
86827W        W48248  35.873  36.002  10.645
86828W        W48249   0.785  34.424   2.868
86829W        W48250  44.465  44.406   4.784
86830W        W48251  19.087  16.805  13.546
86831W        W48252  34.975   0.826   3.262
86832W        W48253  31.029  27.607  10.518
86833W        W48254   9.705  24.114   2.812
86834W        W48255  15.668  17.618  14.489
86835W        W48256  21.518  14.822  12.408
86836W        W48257  23.104  26.102   1.429
86837W        W48258  37.890  33.057   3.795
86838W        W48259  41.327  42.441  12.441
86839W        W48260  28.113   1.300   2.702
86840W        W48261  41.441  34.083   4.828
86841W        W48262  39.389   2.365   0.392
86842W        W48263  22.730  14.166  14.482
86843W        W48264  21.108   3.855  11.122
86844W        W48265  19.272  34.886  10.484
86845W        W48266  26.527  42.992  12.402
86846W        W48267  12.163  13.330  13.348
86847W        W48268  25.033  41.918  14.335
86848W        W48269  39.961  23.595   0.887
86849W        W48270   4.274  15.244   3.329
86850W        W48271  22.072  44.009   0.375
86851W        W48272  44.871   9.760  12.856
86852W        W48273  24.204  37.367   1.731
86853W        W48274  16.654  10.229   3.810
86854W        W48275  12.200  41.511  14.442
86855W        W48276  35.043  38.844   2.869
86856W        W48277  36.376  16.218  13.851
86857W        W48278  43.796   3.929   1.883
86858W        W48279   4.757  37.043   3.696
86859W        W48280  13.238  42.811   0.924
86860W        W48281  24.006  41.962   1.450
86861W        W48282   8.176  12.146  13.011
86862W        W48283  38.330  18.125   2.338
86863W        W48284  37.832  15.112   0.432
86864W        W48285   6.711  21.254  13.864
86865W        W48286  17.667  26.682   0.742
86866W        W48287  37.406  19.188  14.799
86867W        W48288  13.627  37.864  13.438
86868W        W48289  24.126  24.489   4.599
86869W        W48290  40.412  10.691  11.423
86870W        W48291  25.007  11.143   4.659
86871W        W48292  19.612  32.122  14.848
86872W        W48293  26.641   6.313  14.280
86873W        W48294  33.881  16.707  10.420
86874W        W48295   4.408  25.037  14.929
86875W        W48296  16.582  19.747   5.113
86876W        W48297   4.896  19.259  14.454
86877W        W48298  15.185   8.655   2.415
86878W        W48299  13.818   1.288  13.319
86879W        W48300  14.637  38.938   0.854
86880W        W48301  34.500  28.550  14.381
86881W        W48302  11.335  12.795  12.053
86882W        W48303  41.901  41.457   4.247
86883W        W48304  28.023  14.112  11.075
86884W        W48305  30.907   3.802   2.848
86885W        W48306   1.897   1.932   9.920
86886W        W48307  15.130   9.750   1.717
86887W        W48308  32.016  40.344   4.835
86888W        W48309  27.542  14.728   4.724
86889W        W48310   3.339   9.171   2.682
86890W        W48311  36.443  23.704  12.057
86891W        W48312  40.008  35.067   3.660
86892W        W48313  17.261   3.769   0.374
86893W        W48314  43.992  17.068  14.340
86894W        W48315  25.603   6.221  10.915
86895W        W48316  41.856  15.577  11.452
86896W        W48317   9.226   1.266  14.795
86897W        W48318  16.567  18.132   0.958
86898W        W48319  40.802  35.049   4.119
86899W        W48320  43.452  37.488  11.970
86900W        W48321  38.001  12.125   1.236
86901W        W48322  33.038  30.030  11.557
86902W        W48323  16.802  10.640  12.843
86903W        W48324  26.208  34.992  14.846
86904W        W48325  19.552  39.323   3.161
86905W        W48326  43.359  11.711  14.763
86906W        W48327  11.683  14.270   0.943
86907W        W48328  28.138   8.838  12.861
86908W        W48329  36.465  38.555   3.859
86909W        W48330  23.030  35.921   0.321
86910W        W48331  34.463  11.786  12.558
86911W        W48332   0.924   9.804  12.865
86912W        W48333  12.290  16.592  11.527
86913W        W48334  43.450  12.206   1.428
86914W        W48335  41.388  33.425   3.246
86915W        W48336  30.076  38.940  14.969
86916W        W48337   4.713   9.254  13.440
86917W        W48338   6.401  39.988   0.351
86918W        W48339  24.048  39.064  13.061
86919W        W48340  43.278  44.278   1.407
86920W        W48341  38.389   6.348  11.442
86921W        W48342  40.880  10.722  12.418
86922W        W48343  43.370  39.887  14.969
86923W        W48344   9.324  39.921   3.197
86924W        W48345  27.586   7.173  11.435
86925W        W48346  35.066  15.278  12.464
86926W        W48347   1.853  33.489   2.677
86927W        W48348   8.173  33.886  10.489
86928W        W48349  27.045  11.770  10.959
86929W        W48350  19.098  13.812  14.283
86930W        W48351  12.338  37.878   4.251
86931W        W48352  40.885  37.947   2.843
86932W        W48353   0.867   7.773  13.058
86933W        W48354   7.374  41.345  14.509
86934W        W48355  15.622  30.097  12.084
86935W        W48356  25.620  12.631   2.365
86936W        W48357  10.805  41.984   9.936
86937W        W48358  11.271  19.126   4.744
86938W        W48359  31.038  11.643  14.962
86939W        W48360  29.128  30.480  14.492
86940W        W48361  17.752  30.074  10.627
86941W        W48362  20.605  25.089   0.829
86942W        W48363  28.495   1.333  11.067
86943W        W48364  28.543  42.376   3.188
86944W        W48365  37.534  14.271  13.040
86945W        W48366   4.894  31.574  10.521
86946W        W48367  38.020  41.458   0.917
86947W        W48368  16.168  25.627  10.429
86948W        W48369  18.561  26.701   5.157
86949W        W48370  29.506   0.430  11.985
86950W        W48371  37.993  39.926   0.768
86951W        W48372  13.832  23.165   3.703
86952W        W48373   5.194  11.165   0.853
86953W        W48374  20.107  10.821   2.386
86954W        W48375  14.791  31.557   1.364
86955W        W48376  23.241   5.701  10.118
86956W        W48377  10.222  41.364  11.906
86957W        W48378   1.271  27.661  13.918
86958W        W48379  17.698  26.952   3.639
86959W        W48380  25.544  13.607   3.847
86960W        W48381  36.370  39.340   0.421
86961W        W48382  38.959   0.751   4.257
86962W        W48383  37.508  42.502  13.539
86963W        W48384  18.116  28.165   2.399
86964W        W48385   9.356  10.291   2.209
86965W        W48386   5.366  20.037  11.882
86966W        W48387  37.383   8.723   3.208
86967W        W48388  33.973   7.277   3.701
86968W        W48389   5.429  34.416  12.368
86969W        W48390  27.063  32.429  12.016
86970W        W48391  35.917  16.273   1.748
86971W        W48392  10.193   4.701   3.305
86972W        W48393  30.949  31.507  14.880
86973W        W48394  41.842  32.611  14.480
86974W        W48395  11.304  19.047  13.312
86975W        W48396  43.324   0.963   4.765
86976W        W48397   2.468  29.071  14.378
86977W        W48398   7.175  33.462   2.721
86978W        W48399  13.609   0.775  10.522
86979W        W48400  32.409  39.969   0.786
86980W        W48401  12.156  28.590  10.528
86981W        W48402  27.172  38.947  14.397
86982W        W48403  30.018  38.492   3.292
86983W        W48404  21.182  15.165   0.901
86984W        W48405  13.236  19.728  11.913
86985W        W48406  35.565  22.575  11.056
86986W        W48407  35.407  32.581   4.829
86987W        W48408  12.221  33.585  12.394
86988W        W48409  12.725  35.431  13.841
86989W        W48410   1.302  20.070   0.307
86990W        W48411  24.986  43.934  11.877
86991W        W48412  18.181  40.398   4.839
86992W        W48413   8.826  42.945  13.883
86993W        W48414   0.367  30.441  11.092
86994W        W48415  23.075   7.212  10.526
86995W        W48416  29.141  32.489  14.815
86996W        W48417   6.187   7.837  11.855
86997W        W48418  15.735   1.308   3.844
86998W        W48419  40.381  39.855   4.231
86999W        W48420  41.537  12.835   4.708
87000W        W48421  33.037  39.017  10.887
87001W        W48422  21.549  10.677   1.901
87002W        W48423   3.352  19.590   3.274
87003W        W48424  18.108  23.092   1.373
87004W        W48425   3.447  37.378  14.811
87005W        W48426  13.117  16.728   2.262
87006W        W48427  20.759   9.153  12.968
87007W        W48428  30.073  23.237  11.023
87008W        W48429  17.122  24.118  11.041
87009W        W48430  35.364   6.238  12.827
87010W        W48431  34.915  34.371   2.743
87011W        W48432  32.937  25.582  14.512
87012W        W48433   2.318  18.773  14.852
87013W        W48434  33.060  37.435  10.020
87014W        W48435   6.862  22.585  13.823
87015W        W48436  27.955  26.118   3.320
87016W        W48437  11.258  18.638  13.380
87017W        W48438   1.327  23.207  12.359
87018W        W48439  35.889  25.573   0.469
87019W        W48440  40.831  24.128  11.006
87020W        W48441  15.223  44.997   0.824
87021W        W48442   5.826   7.226   2.191
87022W        W48443   8.843  43.360  14.370
87023W        W48444  32.114   2.323  13.964
87024W        W48445  43.857  42.355   2.810
87025W        W48446   9.836  36.969  13.832
87026W        W48447  21.627   1.352   1.899
87027W        W48448  13.337  16.170   0.285
87028W        W48449  28.111  34.611   2.744
87029W        W48450  19.758  12.260   2.858
87030W        W48451  16.308  29.083   1.870
87031W        W48452  40.462   1.771  13.050
87032W        W48453  44.801   8.686  11.908
87033W        W48454  36.944  25.083   1.257
87034W        W48455   2.237  17.108   3.380
87035W        W48456  18.593  42.824  14.419
87036W        W48457  18.787  37.042   4.225
87037W        W48458  37.864   0.296   0.416
87038W        W48459  28.087  32.092   2.263
87039W        W48460  44.468  21.137   4.273
87040W        W48461  28.506  41.907  13.457
87041W        W48462  26.481   2.865   0.326
87042W        W48463  31.415  11.731  12.035
87043W        W48464  32.999  26.696  10.961
87044W        W48465  21.738  13.612  14.377
87045W        W48466   4.247  40.462  13.925
87046W        W48467  12.167  40.813   2.312
87047W        W48468  20.543   5.264   2.378
87048W        W48469  19.243  32.958   1.294
87049W        W48470   9.791  14.635  11.584
87050W        W48471  19.182   7.909   0.379
87051W        W48472  23.634  20.665  13.906
87052W        W48473  39.317  26.560   5.190
87053W        W48474  39.536   5.214  14.811
87054W        W48475   7.799   0.926   3.668
87055W        W48476   1.920  26.188  12.520
87056W        W48477   1.424  43.822  11.474
87057W        W48478  24.138  25.478   0.745
87058W        W48479  16.596  10.174  10.423
87059W        W48480  42.906   8.284   3.832
87060W        W48481  16.116  16.177   1.408
87061W        W48482   4.874   7.740  14.374
87062W        W48483  24.527   2.305  10.588
87063W        W48484  12.799   2.827  11.961
87064W        W48485  14.818  19.124   2.701
87065W        W48486   0.972  22.502  14.936
87066W        W48487   3.837  41.391  11.514
87067W        W48488   3.734   7.842   2.414
87068W        W48489  20.243  22.640   0.775
87069W        W48490  42.409  13.813  13.362
87070W        W48491   3.858  42.900   2.344
87071W        W48492  36.568   7.829  13.547
87072W        W48493  23.728   7.318   3.841
87073W        W48494  28.673  44.452  12.365
87074W        W48495   1.394  40.408   0.864
87075W        W48496  31.970  28.114   0.754
87076W        W48497   7.781  17.784  13.037
87077W        W48498  16.106   2.373   2.891
87078W        W48499   4.841  29.048   2.673
87079W        W48500   9.171  36.949  13.857
87080W        W48501  35.098  16.675  14.480
87081W        W48502  38.057   9.253   2.327
87082W        W48503  34.041  34.991   2.405
87083W        W48504  40.547   8.724  14.840
87084W        W48505  15.319  17.681  10.442
87085W        W48506   1.896   0.932   4.687
87086W        W48507   9.215   2.438  10.532
87087W        W48508  16.638  15.776  12.406
87088W        W48509  18.670  14.748   1.306
87089W        W48510   2.398  16.277  11.074
87090W        W48511   1.970  29.531   2.380
87091W        W48512   1.765  21.255   4.172
87092W        W48513  39.058  23.529  12.579
87093W        W48514  28.940  22.676  13.838
87094W        W48515  42.894  27.452  10.580
87095W        W48516   9.173  26.605  14.919
87096W        W48517  17.765  44.490  12.542
87097W        W48518  44.980  13.788  12.345
87098W        W48519  21.094  24.528   4.808
87099W        W48520  36.454  44.004   2.316
87100W        W48521  38.330  18.687  11.887
87101W        W48522  36.946   1.867  13.978
87102W        W48523   9.653   3.273   3.331
87103W        W48524  11.268  43.361  12.030
87104W        W48525   5.394  44.993   0.842
87105W        W48526  43.312  33.406  13.364
87106W        W48527  19.164  24.096  11.957
87107W        W48528  43.315   5.244  13.063
87108W        W48529  12.155  35.394  14.882
87109W        W48530  30.060  29.501  10.436
87110W        W48531  15.289  24.680   3.831
87111W        W48532  26.612  36.955   4.327
87112W        W48533   4.371  35.870   0.426
87113W        W48534  33.397   2.744  11.415
87114W        W48535   7.405  30.911  14.324
87115W        W48536  14.244  39.374   0.800
87116W        W48537  11.369  31.569   1.848
87117W        W48538  17.212  42.468   2.824
87118W        W48539   9.350  44.454   4.308
87119W        W48540   0.316  11.329  10.431
87120W        W48541   9.846  22.236  13.798
87121W        W48542  21.663  44.402   1.802
87122W        W48543  22.562  23.217  14.801
87123W        W48544  34.109  30.643   3.271
87124W        W48545  43.342  39.870   3.682
87125W        W48546  35.058  11.772   2.179
87126W        W48547  14.606  18.111  14.399
87127W        W48548  30.506  27.104  14.025
87128W        W48549  11.347  10.801   1.895
87129W        W48550  34.896  11.771   2.820
87130W        W48551  20.616  12.255  10.468
87131W        W48552  24.030  30.542   3.312
87132W        W48553   5.239   7.189  12.552
87133W        W48554  36.357  29.618  12.947
87134W        W48555  13.129  19.653   0.768
87135W        W48556   9.790  14.169   2.832
87136W        W48557  38.852  11.155  11.979
87137W        W48558  19.151  32.491  12.570
87138W        W48559  17.675   5.370  11.071
87139W        W48560  10.274  28.996  11.482
87140W        W48561  29.973   9.855  11.079
87141W        W48562  38.056  37.010   0.967
87142W        W48563  28.037  30.451  14.367
87143W        W48564  19.587  29.016  12.401
87144W        W48565  31.154  44.970  12.900
87145W        W48566   1.812  28.015   1.352
87146W        W48567  11.756   0.449   1.723
87147W        W48568  37.072  37.917  14.871
87148W        W48569  23.143  10.147  11.092
87149W        W48570  10.641  21.144   2.186
87150W        W48571  21.683   1.396  14.011
87151W        W48572  14.100   8.885   2.810
87152W        W48573  28.626   3.429  12.514
87153W        W48574  43.334  43.820  12.897
87154W        W48575  34.084  21.176  11.595
87155W        W48576  44.865  11.853  14.348
87156W        W48577  36.096  11.693  14.424
87157W        W48578  28.024  39.855   4.784
87158W        W48579  22.195  29.513   2.271
87159W        W48580  13.258  37.087   3.851
87160W        W48581  39.427  23.657  14.027
87161W        W48582  27.087   2.736   1.415
87162W        W48583  40.874  18.131   3.281
87163W        W48584  28.452  35.390  14.836
87164W        W48585  43.303   7.205  11.045
87165W        W48586   5.833  19.593  12.356
87166W        W48587  10.259  32.913  14.918
87167W        W48588  14.236  42.310   1.371
87168W        W48589   6.736  44.992   0.780
87169W        W48590  14.163   8.377  10.940
87170W        W48591  12.844  20.152  13.933
87171W        W48592  14.141  43.848   4.288
87172W        W48593  23.610  14.170   3.272
87173W        W48594  23.177  26.021   2.822
87174W        W48595   4.802  33.979  10.606
87175W        W48596  21.075  33.457   2.223
87176W        W48597  44.912   0.938   1.308
87177W        W48598  18.568  12.156   5.088
87178W        W48599  10.173  44.980  12.440
87179W        W48600  13.727  10.319   0.787
87180W        W48601  22.649  27.029  13.459
87181W        W48602   9.834  20.175  14.289
87182W        W48603  39.342  27.012  13.518
87183W        W48604   0.332  10.793  10.921
87184W        W48605  35.026  41.338  12.430
87185W        W48606  29.166  34.483  13.507
87186W        W48607  10.638   6.380  13.963
87187W        W48608  24.991   2.462   4.149
87188W        W48609  10.257  34.529   2.286
87189W        W48610  30.910  36.446  10.574
87190W        W48611   3.231  41.035   0.771
87191W        W48612  25.477  44.293   1.885
87192W        W48613  17.258  21.252   4.187
87193W        W48614   4.374   4.858  14.827
87194W        W48615  30.439  28.019   0.870
87195W        W48616   6.905  38.446  13.974
87196W        W48617  28.559  41.997   3.679
87197W        W48618   2.830  40.470  11.098
87198W        W48619   1.458  24.533   1.829
87199W        W48620  26.007  15.699   4.768
87200W        W48621  37.403   3.367   4.813
87201W        W48622  40.425  23.712  10.635
87202W        W48623   9.648  20.231   2.841
87203W        W48624   4.398   3.866  11.009
87204W        W48625  11.248  32.497   2.830
87205W        W48626  11.632  18.685  13.841
87206W        W48627  19.745  26.997  12.900
87207W        W48628  36.003  32.095  14.878
87208W        W48629  35.595  16.720  11.375
87209W        W48630  19.592   9.333   0.746
87210W        W48631  27.019  22.546  10.007
87211W        W48632  16.292  17.238   0.473
87212W        W48633   5.759  25.213   0.349
87213W        W48634  44.878   7.302   2.885
87214W        W48635  21.024  36.881  13.916
87215W        W48636  30.993  43.410  12.991
87216W        W48637   4.409  22.032  13.064
87217W        W48638  37.435   9.358  13.833
87218W        W48639  17.138  38.454  12.545
87219W        W48640  25.496  36.430   1.332
87220W        W48641  19.671  36.920  12.473
87221W        W48642  37.401  28.478  10.540
87222W        W48643  17.561  35.558   3.658
87223W        W48644  18.618  14.303  14.509
87224W        W48645   5.298  41.937   2.708
87225W        W48646  33.392  20.566   3.225
87226W        W48647  19.718  22.190   2.899
87227W        W48648  17.652  18.640  13.460
87228W        W48649  27.691  11.306  10.919
87229W        W48650  39.462  32.599  11.377
87230W        W48651  12.793   9.876   2.679
87231W        W48652  10.740  22.620   3.717
87232W        W48653  36.992  13.659  12.025
87233W        W48654   8.276  25.597   1.884
87234W        W48655  43.464  41.360  12.909
87235W        W48656  22.637  22.640  12.044
87236W        W48657  38.524  43.803   0.863
87237W        W48658   5.353  22.140   3.704
87238W        W48659   2.231   9.654  10.491
87239W        W48660  14.685  10.692  14.439
87240W        W48661  19.201  14.154  14.785
87241W        W48662  21.032  33.899   0.438
87242W        W48663  22.670  26.562  12.450
87243W        W48664  26.066  14.263  11.408
87244W        W48665  36.390  39.877   1.395
87245W        W48666  34.043   0.801   2.310
87246W        W48667  40.867  28.670   4.663
87247W        W48668  43.396  33.980   4.189
87248W        W48669  21.626  39.869   2.682
87249W        W48670  23.227  28.634  14.458
87250W        W48671   4.802   2.880  10.138
87251W        W48672  30.479   4.726  10.569
87252W        W48673  40.043  36.568  13.950
87253W        W48674  19.122   0.745  14.781
87254W        W48675  25.101   7.820   0.831
87255W        W48676  32.958   9.826  12.945
87256W        W48677  21.178  34.540   0.874
87257W        W48678   3.245  44.354  14.408
87258W        W48679  41.949   7.390   0.258
87259W        W48680  24.198  28.463  14.934
87260W        W48681  24.035  27.515   2.666
87261W        W48682  44.282  35.484  10.612
87262W        W48683   4.895  25.709   2.796
87263W        W48684  34.057   3.849  12.982
87264W        W48685   1.748  20.194   0.256
87265W        W48686  32.514   0.373  11.946
87266W        W48687  23.686  16.673  11.421
87267W        W48688  10.195  20.588   2.259
87268W        W48689   5.223  29.047   1.922
87269W        W48690  24.066   4.282   4.778
87270W        W48691  12.227  16.248  12.528
87271W        W48692  34.431   2.789  10.596
87272W        W48693   9.731  22.741   1.419
87273W        W48694  30.502  29.537   0.310
87274W        W48695   6.890  13.804  13.514
87275W        W48696  39.439  36.377  14.843
87276W        W48697  18.117  14.702   1.385
87277W        W48698  38.540  17.766  10.529
87278W        W48699  24.607  16.138   4.656
87279W        W48700  36.353   2.377  11.969
87280W        W48701  37.033  17.173   4.285
87281W        W48702  28.645  35.855  14.808
87282W        W48703  23.175  39.964   3.172
87283W        W48704  26.487  42.455  10.430
87284W        W48705   0.748   5.256   1.763
87285W        W48706  25.208  33.978  10.984
87286W        W48707  27.950  16.154   2.319
87287W        W48708   3.726  15.780   3.729
87288W        W48709  39.551  36.870  14.966
87289W        W48710   2.956  13.693   3.692
87290W        W48711  27.013  24.561   2.733
87291W        W48712  43.493  14.647  12.957
87292W        W48713  15.191  11.150   2.751
87293W        W48714  34.590  17.123   4.165
87294W        W48715  37.376   9.357   5.299
87295W        W48716   9.757  22.206   1.824
87296W        W48717  32.495  39.870  11.926
87297W        W48718   1.943  32.592  14.884
87298W        W48719  29.581  22.594   3.830
87299W        W48720  13.685   4.214   3.272
87300W        W48721  33.452  32.077  11.982
87301W        W48722  32.400  33.450  11.045
87302W        W48723  42.974  33.963  12.344
87303W        W48724  32.523  20.738  12.873
87304W        W48725  34.596  13.707   3.787
87305W        W48726   7.873  19.144  14.027
87306W        W48727   8.682  32.914   4.658
87307W        W48728  27.556  21.536   2.307
87308W        W48729   8.294  30.625  11.465
87309W        W48730   5.797  13.349  11.407
87310W        W48731  22.704  39.449   2.686
87311W        W48732  17.622  44.925   1.314
87312W        W48733  15.151  10.272  10.407
87313W        W48734  15.318  44.887  11.586
87314W        W48735   8.711   3.933   1.255
87315W        W48736  35.391   4.713   2.300
87316W        W48737   6.416   2.859  14.361
87317W        W48738   0.984  27.066  14.397
87318W        W48739   9.663  11.292   4.604
87319W        W48740  25.217  27.104   2.668
87320W        W48741  28.591  31.590  12.441
87321W        W48742  21.572  25.094   4.804
87322W        W48743   7.836  25.661  13.836
87323W        W48744  37.408  22.590   1.745
87324W        W48745  24.145  37.841  13.478
87325W        W48746  20.528   8.299   4.803
87326W        W48747  36.911   2.275   5.740
87327W        W48748  40.003  38.980   3.208
87328W        W48749  16.096   3.444   5.210
87329W        W48750   4.743  10.835   4.649
87330W        W48751  33.950  16.602   0.312
87331W        W48752   7.828  17.109  10.049
87332W        W48753  16.583  20.713  11.424
87333W        W48754  22.696  18.788   1.873
87334W        W48755  16.099  11.224  14.445
87335W        W48756  41.003  37.447  14.977
87336W        W48757  11.754  35.028  10.413
87337W        W48758  23.664  19.562  12.930
87338W        W48759  12.745  16.098  12.511
87339W        W48760   1.396  16.645  11.405
87340W        W48761  13.218  31.004  12.964
87341W        W48762  16.706  18.654  10.551
87342W        W48763   4.256  15.199  13.023
87343W        W48764  17.197  28.997   2.728
87344W        W48765  33.585  24.671   2.802
87345W        W48766  15.777   0.281  10.573
87346W        W48767   9.792  44.367  13.484
87347W        W48768   1.829  21.665  12.078
87348W        W48769   5.913  12.721  13.378
87349W        W48770  22.705  18.621   0.365
87350W        W48771  42.297   4.442   1.306
87351W        W48772   3.328  21.181   3.348
87352W        W48773   1.299   6.256  10.595
87353W        W48774   4.360  12.791  12.997
87354W        W48775  20.637  32.485   4.306
87355W        W48776  25.504  28.145   4.187
87356W        W48777  28.582  34.977  14.886
87357W        W48778  42.283  43.917  11.393
87358W        W48779  41.873  37.942  11.955
87359W        W48780  42.315   4.842   2.791
87360W        W48781  18.696  28.963  12.491
87361W        W48782   9.385  17.658  11.920
87362W        W48783  10.297   9.766   0.746
87363W        W48784  27.680   9.850  14.867
87364W        W48785  12.126  23.990  12.977
87365W        W48786   5.901  41.451  14.282
87366W        W48787  25.618  26.667   4.175
87367W        W48788  37.023  35.878   4.194
87368W        W48789  17.246  32.461  13.336
87369W        W48790  16.812  33.037   1.346
87370W        W48791   6.871  30.593   2.834
87371W        W48792   4.441  26.472   1.353
87372W        W48793  33.039  13.166   0.380
87373W        W48794   9.216  13.608   3.247
87374W        W48795   1.457  30.481  10.128
87375W        W48796  17.565  21.720  10.921
87376W        W48797  36.931   5.759  13.041
87377W        W48798   3.833  43.332  10.558
87378W        W48799  44.961  38.448   4.796
87379W        W48800  23.599  24.715  13.484
87380W        W48801   2.788  25.187   2.213
87381W        W48802  32.539   8.756   1.731
87382W        W48803  24.214  12.655   1.702
87383W        W48804  33.903  36.395   2.893
87384W        W48805   4.850  22.529   9.934
87385W        W48806  18.208  15.626  11.875
87386W        W48807  20.563   3.252  10.974
87387W        W48808  15.254  30.147  11.390
87388W        W48809   3.927  14.789   1.849
87389W        W48810   7.362  42.913  13.463
87390W        W48811  31.610   3.844   5.695
87391W        W48812  26.138  30.497  10.528
87392W        W48813  43.379   0.877   0.902
87393W        W48814  28.627  42.012   0.880
87394W        W48815  44.447  21.154  12.931
87395W        W48816  18.083  29.542   4.303
87396W        W48817  20.592  23.589   1.917
87397W        W48818  29.529  40.520   3.826
87398W        W48819  44.886  20.747  11.894
87399W        W48820   6.336  38.862   0.430
87400W        W48821  10.808  44.423   3.802
87401W        W48822  43.862   1.452  11.443
87402W        W48823  21.537  14.130  12.986
87403W        W48824  14.141  18.163   2.386
87404W        W48825  21.649   9.688  11.503
87405W        W48826  38.924  28.642   2.674
87406W        W48827  15.089  23.722   0.753
87407W        W48828  26.113  39.470   1.223
87408W        W48829  32.919  16.129  13.436
87409W        W48830   2.739  29.996   2.229
87410W        W48831   8.759  15.320   4.609
87411W        W48832   2.769   7.803  12.517
87412W        W48833  13.668  39.332  13.483
87413W        W48834   7.788   9.358  10.561
87414W        W48835  36.388  23.029  10.903
87415W        W48836   6.758  41.452  14.804
87416W        W48837   4.210  43.968   2.340
87417W        W48838   5.721  14.159   1.824
87418W        W48839  40.357  18.069   3.809
87419W        W48840  23.175  36.511  14.012
87420W        W48841   3.229  29.444  13.051
87421W        W48842  13.777  38.357   0.372
87422W        W48843  20.218   4.283  13.803
87423W        W48844  35.030   1.391  13.015
87424W        W48845  23.985   6.388  12.484
87425W        W48846   6.385  40.470   2.867
87426W        W48847  16.619  13.294  13.310
87427W        W48848  15.633  24.994   1.746
87428W        W48849   0.838  22.502   4.795
87429W        W48850  27.658  37.544   4.209
87430W        W48851  40.324   3.221   4.133
87431W        W48852   7.190  28.583  10.990
87432W        W48853  35.414  19.283   2.179
87433W        W48854  13.340  17.578   4.795
87434W        W48855   3.840   9.380   4.770
87435W        W48856  35.505  11.241  11.485
87436W        W48857  33.925  27.143  12.392
87437W        W48858   2.829  15.280   4.202
87438W        W48859  11.646  25.118  14.911
87439W        W48860  43.271   6.398   0.961
87440W        W48861  17.640  19.725  13.308
87441W        W48862  10.860  23.528  11.928
87442W        W48863  28.109  38.474  12.408
87443W        W48864   0.362  35.387   1.436
87444W        W48865   4.305   3.902   1.291
87445W        W48866  15.098  29.988   0.841
87446W        W48867  12.265   6.910  13.802
87447W        W48868   9.734  18.596   0.923
87448W        W48869  15.147  27.112  12.498
87449W        W48870  32.531  40.337  11.109
87450W        W48871   3.830  12.230  10.976
87451W        W48872   1.362  41.443  13.958
87452W        W48873  37.065  22.683  13.853
87453W        W48874   4.348  31.444   2.732
87454W        W48875  32.894   7.311   2.871
87455W        W48876   8.291   6.285  12.388
87456W        W48877  16.274  42.920   3.180
87457W        W48878   8.853   8.233  14.986
87458W        W48879   3.311   6.845   0.474
87459W        W48880  15.111  13.677   3.746
87460W        W48881  34.435   3.727   1.918
87461W        W48882  28.565  33.467  14.872
87462W        W48883  11.159  31.620  12.849
87463W        W48884  43.821   6.284  10.511
87464W        W48885   7.810  22.639  10.935
87465W        W48886  26.068  38.938   1.422
87466W        W48887  22.557  32.464  11.509
87467W        W48888  32.059  18.732   1.272
87468W        W48889  23.151  15.108   2.819
87469W        W48890  35.470  22.052  14.874
87470W        W48891  30.985  12.632  13.846
87471W        W48892   4.235  30.027   4.326
87472W        W48893   7.895  35.433   3.861
87473W        W48894  19.254   3.315  12.903
87474W        W48895  28.465  18.235   4.729
87475W        W48896  14.132  12.337  10.407
87476W        W48897  21.070  22.079   3.696
87477W        W48898  28.641  23.684   1.357
87478W        W48899  32.530  24.201  13.064
87479W        W48900  44.954  16.279   1.428
87480W        W48901  33.441  43.396   4.180
87481W        W48902  37.429  10.666   1.213
87482W        W48903  44.354   9.841  11.127
87483W        W48904  13.780  13.150  13.993
87484W        W48905   0.862  27.959   3.282
87485W        W48906  32.133  20.040  11.568
87486W        W48907  34.458  37.904  10.510
87487W        W48908  11.369   8.162   2.340
87488W        W48909  36.921   5.256   4.211
87489W        W48910  36.513  43.854   0.351
87490W        W48911   3.255  23.611   0.909
87491W        W48912   1.880   7.895   2.403
87492W        W48913  44.808  13.309  13.906
87493W        W48914  36.545  24.559  11.887
87494W        W48915  26.182   6.830  12.035
87495W        W48916  36.078   4.289  12.931
87496W        W48917  18.056  12.171  10.562
87497W        W48918  14.617  40.929   2.367
87498W        W48919  35.423  27.577  14.785
87499W        W48920  10.663  32.498  14.389
87500W        W48921  31.006   9.327  14.794
87501W        W48922  28.535  31.633   1.382
87502W        W48923  11.651  38.444   0.384
87503W        W48924   4.843  11.238  12.347
87504W        W48925   4.783  24.144   9.559
87505W        W48926   4.328  27.043   2.259
87506W        W48927  11.334  22.744   3.677
87507W        W48928   7.270  17.094   4.673
87508W        W48929  23.662  31.984   1.740
87509W        W48930  34.432  29.652   2.380
87510W        W48931   7.802  22.070   0.289
87511W        W48932  39.473   4.445   0.484
87512W        W48933  39.935  35.926  13.849
87513W        W48934  25.086  42.367   3.222
87514W        W48935  32.591  25.066   1.291
87515W        W48936  35.999   0.757   4.335
87516W        W48937  34.551  29.970  14.026
87517W        W48938  28.961   8.255   1.734
87518W        W48939  24.183  33.046  13.796
87519W        W48940  19.179  40.054   3.285
87520W        W48941  29.163  21.623  10.933
87521W        W48942   6.343  35.937   4.702
87522W        W48943  36.058  16.578  10.918
87523W        W48944  32.495  23.153   4.691
87524W        W48945   4.843  12.117  13.432
87525W        W48946  12.651  10.267   4.283
87526W        W48947  13.152  38.898   0.879
87527W        W48948   8.857  30.907  10.452
87528W        W48949   0.962   8.200  13.920
87529W        W48950  28.624  35.548   3.823
87530W        W48951  13.283  16.189   2.864
87531W        W48952  35.407   4.859   1.438
87532W        W48953  43.940  28.131  14.855
87533W        W48954  13.218   4.395   4.800
87534W        W48955  11.283  28.502   4.270
87535W        W48956  42.483  30.534  12.942
87536W        W48957  28.992  26.956  13.315
87537W        W48958  16.242  42.865  13.960
87538W        W48959  10.800  18.616  11.404
87539W        W48960   7.194   0.424  10.603
87540W        W48961  39.880  33.930   0.459
87541W        W48962  31.922   1.315  10.914
87542W        W48963  21.655  24.545  10.456
87543W        W48964  30.932   1.459   1.330
87544W        W48965   8.678  35.425   1.241
87545W        W48966   4.336  22.591  11.547
87546W        W48967  12.179   0.279   2.770
87547W        W48968  39.880   3.861   1.782
87548W        W48969  30.644  32.072   5.147
87549W        W48970   2.386   3.921   4.282
87550W        W48971  42.873  41.451   3.361
87551W        W48972   3.393   3.934   1.722
87552W        W48973  24.179  34.381  14.896
87553W        W48974  30.013  40.878  13.317
87554W        W48975   7.715  20.242   3.850
87555W        W48976   6.863  24.083  14.482
87556W        W48977  40.326   0.796  10.120
87557W        W48978  14.149   7.299  14.467
87558W        W48979  16.133   9.739   2.224
87559W        W48980  12.645  22.504   1.793
87560W        W48981   2.872  17.085   3.728
87561W        W48982  42.778  40.410   3.215
87562W        W48983  36.356  14.794   2.828
87563W        W48984  19.609  30.162   2.870
87564W        W48985  12.723   8.272  12.474
87565W        W48986   2.423  32.534   1.384
87566W        W48987  39.407  37.436  11.858
87567W        W48988  35.463  13.291   0.828
87568W        W48989   7.719   7.767   1.920
87569W        W48990   1.295   5.925   1.281
87570W        W48991  39.337   4.428   1.305
87571W        W48992   3.931   3.350  12.084
87572W        W48993  28.079  30.912  12.485
87573W        W48994  28.635   6.719  11.533
87574W        W48995   2.918  32.410  12.387
87575W        W48996   8.875  38.559   0.441
87576W        W48997  11.348  10.141   4.597
87577W        W48998  27.186   9.703  13.359
87578W        W48999   7.785   8.668   0.298
87579W        W49000  34.396  40.318   3.196
87580W        W49001   0.441  24.132   1.210
87581W        W49002  42.016  42.841   3.706
87582W        W49003  17.742  37.552  10.554
87583W        W49004  21.225  38.531  10.582
87584W        W49005  28.145  39.408   2.389
87585W        W49006  20.746   2.279  14.330
87586W        W49007  15.666  10.155  13.376
87587W        W49008  44.441  11.664   4.827
87588W        W49009  27.538  29.525   3.853
87589W        W49010  28.448  21.162  10.507
87590W        W49011  27.471  44.385  14.410
87591W        W49012  33.885  14.256   2.340
87592W        W49013  15.227  21.603   4.607
87593W        W49014  15.157   4.724  13.815
87594W        W49015   8.298  40.830  13.812
87595W        W49016  31.418   0.408  10.556
87596W        W49017  28.934  22.542  14.399
87597W        W49018  40.852   3.393   2.736
87598W        W49019  35.052   6.754  10.591
87599W        W49020   6.314  28.994  13.048
87600W        W49021  35.565  26.171  12.049
87601W        W49022  34.592  37.555  10.023
87602W        W49023  10.766  15.815  14.806
87603W        W49024  14.627   7.255   0.818
87604W        W49025   8.682  16.787   0.462
87605W        W49026  35.462   9.212  12.481
87606W        W49027   3.769  28.623  11.540
87607W        W49028  13.335  27.096   4.836
87608W        W49029  42.972  20.074  13.354
87609W        W49030  39.035  41.296   4.180
87610W        W49031  13.792  14.340   4.788
87611W        W49032  30.137  40.873  14.991
87612W        W49033  38.527  33.476  11.892
87613W        W49034  24.105  11.336  11.501
87614W        W49035  11.193  32.022   2.313
87615W        W49036  23.724  43.479   0.793
87616W        W49037  20.076  42.880   4.282
87617W        W49038   4.852  16.223   0.270
87618W        W49039  14.615  43.990  12.085
87619W        W49040  16.215   3.798   2.753
87620W        W49041   5.324  21.729   0.245
87621W        W49042  43.463   9.760   3.298
87622W        W49043  24.160  26.053  10.977
87623W        W49044  26.650   4.343   3.819
87624W        W49045  37.545  42.782   4.268
87625W        W49046  15.291  12.743   1.249
87626W        W49047  33.555   6.204   0.483
87627W        W49048  35.569  10.153   2.242
87628W        W49049   7.205  43.856  13.838
87629W        W49050  10.260   5.362  13.837
87630W        W49051  26.958  43.407   2.266
87631W        W49052  31.472  44.848  10.532
87632W        W49053  38.074  20.712   0.387
87633W        W49054  36.583  24.053  14.873
87634W        W49055  39.828  23.647   4.772
87635W        W49056   9.280  31.566   2.867
87636W        W49057   5.725  41.854   0.372
87637W        W49058   9.710  33.939  12.540
87638W        W49059   0.913  42.917  10.100
87639W        W49060  30.442  24.484   1.740
87640W        W49061  28.103  26.696   1.381
87641W        W49062  15.144  32.526   4.305
87642W        W49063  10.179  22.010  13.794
87643W        W49064  44.379   3.295  14.313
87644W        W49065   1.268  18.696   0.305
87645W        W49066  41.466   0.948  11.083
87646W        W49067  29.654  42.298  13.853
87647W        W49068   5.718  30.425   3.313
87648W        W49069   8.676  11.865  14.877
87649W        W49070  14.183  42.519  13.311
87650W        W49071   5.844  23.171  13.794
87651W        W49072  10.350  23.206   1.874
87652W        W49073  10.680  35.927   5.177
87653W        W49074  25.489   2.748   2.207
87654W        W49075  23.552  40.307  11.864
87655W        W49076  28.156  12.150  10.596
87656W        W49077  38.878  32.413  11.920
87657W        W49078   5.410  23.539   0.461
87658W        W49079  32.110  36.419  12.855
87659W        W49080   7.876  29.083  14.879
87660W        W49081  13.131  29.659  10.914
87661W        W49082   0.389   6.881  12.910
87662W        W49083  28.471  27.588   2.329
87663W        W49084  33.471  11.810  11.051
87664W        W49085  31.516  36.355   4.796
87665W        W49086   5.924  24.020   2.312
87666W        W49087  32.959  18.644  14.770
87667W        W49088  27.098   1.872  13.476
87668W        W49089  42.491  39.516   2.871
87669W        W49090  26.001  24.033  13.900
87670W        W49091  13.783  14.656  13.474
87671W        W49092  30.658  27.119  11.883
87672W        W49093  43.391  17.728   4.767
87673W        W49094  33.401   0.903  10.964
87674W        W49095  28.526   8.718  10.912
87675W        W49096  19.154  16.293  12.916
87676W        W49097  11.868   5.928  11.585
87677W        W49098  32.527  23.682   0.787
87678W        W49099   7.221  26.204  13.849
87679W        W49100  37.903  21.596   2.849
87680W        W49101  20.031  35.403   1.753
87681W        W49102  35.577  21.629   2.357
87682W        W49103  13.658  21.537  12.847
87683W        W49104  40.030  14.192  12.082
87684W        W49105  42.806  42.501   4.177
87685W        W49106  31.126  10.353   1.932
87686W        W49107  32.003  36.856   0.298
87687W        W49108   8.318  22.124  11.579
87688W        W49109  21.530   8.775  13.997
87689W        W49110  15.586  28.999  11.612
87690W        W49111  21.077   1.374   4.279
87691W        W49112  30.940   6.714   2.211
87692W        W49113  10.354  27.610  13.351
87693W        W49114  15.678  12.335  14.337
87694W        W49115  28.155  44.008  10.410
87695W        W49116  25.208  11.240  11.096
87696W        W49117  33.594  37.511  14.303
87697W        W49118  18.721  25.614   4.704
87698W        W49119  33.913  14.594  10.645
87699W        W49120  14.128   9.178  12.536
87700W        W49121   1.357  23.159   1.286
87701W        W49122  37.982  11.738   0.449
87702W        W49123  23.177  43.885  13.974
87703W        W49124  19.175  20.219  11.019
87704W        W49125  10.262   2.435   2.709
87705W        W49126  27.093  30.455  13.395
87706W        W49127  10.238  21.192  14.292
87707W        W49128  21.222  31.147  12.013
87708W        W49129  20.033   2.769   2.344
87709W        W49130   2.373  30.594  12.578
87710W        W49131   5.809  28.547   0.872
87711W        W49132  22.115  22.167   3.254
87712W        W49133  27.617  18.589   2.754
87713W        W49134  41.431  25.158  13.025
87714W        W49135  29.970  11.185  11.881
87715W        W49136  13.682   4.335   4.235
87716W        W49137  44.009  28.997   2.760
87717W        W49138  14.671  36.490   3.300
87718W        W49139  21.590  19.238  11.464
87719W        W49140  12.674  31.049   1.761
87720W        W49141  15.206   9.225   0.845
87721W        W49142  20.658  15.252  14.280
87722W        W49143  18.271  33.494  12.577
87723W        W49144   8.330  26.118  12.000
87724W        W49145   9.679  10.817   1.922
87725W        W49146  16.124   1.806   2.837
87726W        W49147  21.563  17.725  11.563
87727W        W49148  38.406  29.494  10.430
87728W        W49149  30.016  37.571  10.520
87729W        W49150  34.995   5.827  14.335
87730W        W49151  43.310  27.101   3.834
87731W        W49152  16.676  14.220   1.905
87732W        W49153  11.826   6.428   3.749
87733W        W49154  37.971   3.779   2.867
87734W        W49155  32.926  20.710   1.381
87735W        W49156  37.959   4.244  14.363
87736W        W49157  35.899  24.518  12.580
87737W        W49158  24.099   9.190   2.228
87738W        W49159   7.832  19.584   2.752
87739W        W49160  18.154   1.840  12.346
87740W        W49161   9.715  13.290  12.043
87741W        W49162   5.704   8.841  14.355
87742W        W49163   5.879  38.862  12.924
87743W        W49164  34.114  40.956   2.806
87744W        W49165  19.556   2.460   4.703
87745W        W49166   7.245  23.043   4.613
87746W        W49167  43.395  41.481   2.345
87747W        W49168   6.684  20.139  11.399
87748W        W49169  12.284   8.809   3.674
87749W        W49170  41.815   6.693   0.437
87750W        W49171   7.905  11.774  14.792
87751W        W49172  25.171  16.613  11.442
87752W        W49173  31.095  27.097  13.399
87753W        W49174  13.211  24.994  13.038
87754W        W49175   8.728  36.006  10.572
87755W        W49176   6.756  20.076   0.427
87756W        W49177  31.099   4.262   4.258
87757W        W49178  31.641  41.036   4.294
87758W        W49179  28.027  40.449   0.467
87759W        W49180  44.814  16.811   3.656
87760W        W49181  21.545  22.019   0.766
87761W        W49182   0.251   2.804   2.399
87762W        W49183  36.847  27.055  10.484
87763W        W49184   0.903   6.741   3.648
87764W        W49185   4.415  10.666   2.903
87765W        W49186   8.753  26.519   1.713
87766W        W49187  42.859  11.743   2.693
87767W        W49188  33.880  37.920   1.414
87768W        W49189  18.279  29.072   0.291
87769W        W49190  35.902  17.718  10.606
87770W        W49191  17.222  26.965   3.658
87771W        W49192   9.168  29.942   2.242
87772W        W49193   9.180   1.900   3.861
87773W        W49194   2.853  14.227  12.485
87774W        W49195   1.888  44.933  10.554
87775W        W49196  22.193  26.685  11.556
87776W        W49197  25.545  43.953  13.862
87777W        W49198  10.866   7.822  10.636
87778W        W49199  29.478  29.054  13.016
87779W        W49200  17.795  37.995   1.433
87780W        W49201  27.062  44.927  13.935
87781W        W49202  10.678  38.443   4.192
87782W        W49203   7.357  31.087   0.852
87783W        W49204  27.145   1.461   2.839
87784W        W49205  14.646  16.290   0.340
87785W        W49206   7.875  41.426  10.600
87786W        W49207   9.388  10.370   0.379
87787W        W49208  14.737   4.388   1.216
87788W        W49209  17.630  29.561  14.944
87789W        W49210   5.930   5.297  14.871
87790W        W49211   0.839  19.092   3.157
87791W        W49212  23.657  40.393  13.517
87792W        W49213   5.808   3.307   0.880
87793W        W49214  33.116   8.897   0.339
87794W        W49215  23.529  42.988   2.415
87795W        W49216  37.020   3.744   2.753
87796W        W49217  40.842  11.346  11.101
87797W        W49218  29.083  21.719  13.499
87798W        W49219  19.763   8.769  10.008
87799W        W49220  12.632  13.119   2.673
87800W        W49221  39.499   1.817  14.875
87801W        W49222  34.538  13.294   4.604
87802W        W49223  37.544  23.540  11.536
87803W        W49224  31.111  43.319   1.723
87804W        W49225  18.170   9.722   0.401
87805W        W49226  42.835   4.260   2.818
87806W        W49227  40.931  19.182  12.928
87807W        W49228   0.399  30.091  11.962
87808W        W49229  21.172  34.489  13.546
87809W        W49230   0.426  20.191  10.442
87810W        W49231   0.257  30.580   2.221
87811W        W49232   7.800   3.263  10.065
87812W        W49233   5.301  26.702   0.403
87813W        W49234   0.377  25.208   2.242
87814W        W49235  24.687   8.260  14.364
87815W        W49236   7.866  44.334  10.100
87816W        W49237  28.115  24.589  13.991
87817W        W49238   1.957  19.712   3.711
87818W        W49239  24.215  22.747  14.845
87819W        W49240   8.704  12.806   4.792
87820W        W49241  12.703  36.527  14.469
87821W        W49242  31.930  19.073   0.266
87822W        W49243  10.675  10.194  10.989
87823W        W49244  39.539  12.271  13.945
87824W        W49245  23.588   1.241  10.985
87825W        W49246  19.214   2.247   4.296
87826W        W49247  25.490  42.814  12.500
87827W        W49248   0.356  43.276   4.787
87828W        W49249   0.247  34.604  12.004
87829W        W49250  16.143  19.616   1.923
87830W        W49251   3.276  40.884  12.500
87831W        W49252  10.829  15.090   2.317
87832W        W49253  31.622  13.296  12.417
87833W        W49254  34.611   0.946   2.213
87834W        W49255  28.551  24.218   3.673
87835W        W49256  35.978  30.063   1.311
87836W        W49257  42.813  22.637   2.889
87837W        W49258  18.558  11.662  14.323
87838W        W49259  10.745  21.733   1.212
87839W        W49260  14.715  27.956  10.430
87840W        W49261  39.842   6.388  12.890
87841W        W49262  11.189   2.932  13.904
87842W        W49263  16.213  12.614  12.565
87843W        W49264  28.500  30.527   4.701
87844W        W49265  13.776  38.454   2.342
87845W        W49266  18.166  12.290  12.890
87846W        W49267   5.849  43.899  14.344
87847W        W49268   2.286   8.239   4.124
87848W        W49269  38.873   2.742   3.290
87849W        W49270  29.946  31.038  14.287
87850W        W49271  29.572   8.846  11.968
87851W        W49272  11.127  24.179  10.612
87852W        W49273   8.744  36.842   2.294
87853W        W49274  25.023   1.312   1.349
87854W        W49275  19.242  20.053   0.313
87855W        W49276  14.670  37.405  11.522
87856W        W49277  21.116  25.964   2.727
87857W        W49278  33.947  38.437   3.640
87858W        W49279   3.902  12.341  13.339
87859W        W49280  36.505  41.787  13.987
87860W        W49281  32.921  10.183   2.363
87861W        W49282  39.061   8.837   3.243
87862W        W49283  21.222  33.461   0.750
87863W        W49284  30.422  42.942  11.114
87864W        W49285  30.632  11.270  14.769
87865W        W49286  13.304  36.931  10.889
87866W        W49287  25.210  34.011  13.432
87867W        W49288  37.948   3.306  11.007
87868W        W49289   3.434  34.935   1.336
87869W        W49290  28.468  44.869   1.365
87870W        W49291  24.229  16.745   3.329
87871W        W49292  35.504  40.855   2.324
87872W        W49293  26.660  13.664  11.900
87873W        W49294  30.429  26.468   0.750
87874W        W49295  22.543  29.526   2.259
87875W        W49296  14.689  37.983   3.236
87876W        W49297   7.325   4.854   1.371
87877W        W49298  31.501  13.195   1.731
87878W        W49299  19.775  38.962   4.167
87879W        W49300  42.966  11.710   2.413
87880W        W49301  34.501  35.375   0.835
87881W        W49302  10.339  24.090   2.764
87882W        W49303  36.478  31.128  11.889
87883W        W49304   7.176  13.157  14.962
87884W        W49305  23.618  14.800   2.902
87885W        W49306  17.153   2.895  11.990
87886W        W49307   7.854  15.595   4.334
87887W        W49308  18.286  20.590   2.872
87888W        W49309  18.130  22.688   4.602
87889W        W49310  10.765   4.777   0.380
87890W        W49311  43.922  12.658  10.052
87891W        W49312  37.458   2.363  13.526
87892W        W49313  37.062  36.436   0.865
87893W        W49314   1.788  25.658  11.072
87894W        W49315  14.293  33.045  11.117
87895W        W49316  24.040  23.116   0.892
87896W        W49317  27.123   9.238   4.823
87897W        W49318   4.945  20.564   2.222
87898W        W49319  17.268  13.780   2.262
87899W        W49320  24.015   1.296   3.677
87900W        W49321  41.905  18.293   2.896
87901W        W49322   7.297   7.812  11.385
87902W        W49323  36.434  15.265  14.968
87903W        W49324  13.123  28.002   0.899
87904W        W49325   5.365  37.343  13.380
87905W        W49326  12.744  27.965   4.202
87906W        W49327  16.220  35.103  14.477
87907W        W49328  37.368  38.324  12.009
87908W        W49329  29.154  21.129   0.893
87909W        W49330  39.541  22.585  14.969
87910W        W49331   9.698  35.005  14.491
87911W        W49332  36.417  44.333  10.979
87912W        W49333  26.119  11.669  13.421
87913W        W49334  35.987  36.086  11.393
87914W        W49335   0.826   7.353  12.083
87915W        W49336  42.990  36.095  12.493
87916W        W49337  20.183  33.494   4.677
87917W        W49338  29.579  42.787   3.734
87918W        W49339  16.202  37.377  11.586
87919W        W49340  42.333  25.514  10.420
87920W        W49341   4.397  17.728   3.648
87921W        W49342  17.145  42.940   0.425
87922W        W49343  12.689  34.102   4.717
87923W        W49344   9.671  37.996   3.163
87924W        W49345  22.109   6.352  11.918
87925W        W49346  36.846  42.947  11.438
87926W        W49347  32.480  42.895   3.864
87927W        W49348   1.794  12.274  11.032
87928W        W49349  18.102  34.384   1.889
87929W        W49350  13.342  30.628   2.883
87930W        W49351  42.955  39.951   0.426
87931W        W49352  31.998  25.159   4.327
87932W        W49353  21.083  27.653  14.467
87933W        W49354  24.191  21.163  13.448
87934W        W49355  29.670  33.077   3.724
87935W        W49356   1.899  33.114  13.916
87936W        W49357  23.578   9.883  14.997
87937W        W49358  12.677  17.613  13.349
87938W        W49359  21.648  11.775   1.891
87939W        W49360  20.734  32.050  12.931
87940W        W49361  38.964  16.077  14.999
87941W        W49362  36.559  42.905  14.895
87942W        W49363  16.635  26.080   1.368
87943W        W49364  10.196  14.634  14.340
87944W        W49365  33.539  41.008  13.847
87945W        W49366  33.044  23.538   2.262
87946W        W49367  34.604   8.817   2.283
87947W        W49368  17.742  40.423   3.744
87948W        W49369  18.111  34.996  12.049
87949W        W49370   8.332   8.723   5.209
87950W        W49371  42.468  22.510  13.930
87951W        W49372  38.412   3.889   4.822
87952W        W49373  32.493  15.194   0.300
87953W        W49374  12.120  15.657  10.596
87954W        W49375  28.930   4.930  12.031
87955W        W49376  26.013  44.897   2.275
87956W        W49377  29.974  26.698  14.975
87957W        W49378  39.333  19.262  12.859
87958W        W49379   2.294  19.097  10.599
87959W        W49380  11.777  33.925  13.798
87960W        W49381   1.280  19.189   4.171
87961W        W49382  23.019  32.469  11.385
87962W        W49383   2.859  20.608   2.681
87963W        W49384  31.508  10.382   5.246
87964W        W49385  32.623  42.458   3.327
87965W        W49386  39.040  29.646   0.338
87966W        W49387  44.971  32.633   2.678
87967W        W49388  22.036   5.736  14.394
87968W        W49389  28.594  31.453   3.334
87969W        W49390  10.842  30.498  13.964
87970W        W49391  35.359   6.295  10.147
87971W        W49392  26.515  32.602  12.919
87972W        W49393  16.097  43.339   3.334
87973W        W49394   4.702  27.941   3.221
87974W        W49395   8.331   9.221   4.341
87975W        W49396  43.814   7.745  11.575
87976W        W49397  26.589  25.686  11.023
87977W        W49398  42.803  15.648   2.829
87978W        W49399  24.711  29.442  12.887
87979W        W49400  15.173  34.384   1.855
87980W        W49401  38.367  16.101  12.875
87981W        W49402  19.568  11.213   1.701
87982W        W49403  28.660  28.995   4.144
87983W        W49404   4.408  36.957   0.431
87984W        W49405  37.985  14.815   3.284
87985W        W49406  32.965  13.694  14.996
87986W        W49407   1.752  35.551  11.532
87987W        W49408   8.208   9.243   0.434
87988W        W49409   7.809  13.215   0.731
87989W        W49410  41.909  36.082   3.173
87990W        W49411  36.480  44.802  14.871
87991W        W49412  33.395  38.944   2.185
87992W        W49413  15.186  22.559  13.514
87993W        W49414  31.633  25.107   0.908
87994W        W49415  27.014  44.974   0.399
87995W        W49416  26.566  19.558  12.040
87996W        W49417   7.775  18.625  12.453
87997W        W49418  26.611  38.508   4.217
87998W        W49419  33.929   5.300  11.127
87999W        W49420  19.170   2.336   3.755
88000W        W49421  19.680  38.940   0.927
88001W        W49422  18.571  17.237   3.829
88002W        W49423   0.808  30.586   3.644
88003W        W49424  11.647  11.843   2.849
88004W        W49425   2.878  24.078  14.759
88005W        W49426  21.070  12.237  10.613
88006W        W49427   9.716  34.472  10.528
88007W        W49428  26.679  16.078  13.418
88008W        W49429  30.551  29.159   0.371
88009W        W49430  35.025  11.234   4.305
88010W        W49431  19.047  30.053  10.594
88011W        W49432  17.150  17.609  13.876
88012W        W49433  26.966  26.014  13.354
88013W        W49434  11.234  10.702   4.193
88014W        W49435  27.118  25.615  14.404
88015W        W49436  16.789  22.702  14.845
88016W        W49437  25.069   1.968   2.680
88017W        W49438  25.203  17.131   3.221
88018W        W49439  13.807  37.479  11.540
88019W        W49440  14.808  15.282   4.115
88020W        W49441  29.551  38.034   0.383
88021W        W49442  30.597  16.673   3.632
88022W        W49443  43.513  13.194  14.770
88023W        W49444  13.112   6.691  11.594
88024W        W49445  28.025  26.090   0.940
88025W        W49446   3.864  17.772  12.979
88026W        W49447  41.871  39.516  12.440
88027W        W49448  36.006  34.429  10.893
88028W        W49449  21.628  12.671   3.367
88029W        W49450  37.007  22.006   0.787
88030W        W49451  35.075   7.797   4.181
88031W        W49452  10.808  36.947  10.586
88032W        W49453  42.507  41.329  10.632
88033W        W49454   2.418  35.556  14.764
88034W        W49455  41.524  11.750   4.119
88035W        W49456   1.950  44.763  14.322
88036W        W49457  25.709   3.433  13.006
88037W        W49458  37.437  25.585  11.889
88038W        W49459   9.371  25.127   2.230
88039W        W49460  17.123  24.711  11.974
88040W        W49461  41.971  10.637  12.450
88041W        W49462  28.671  30.116  13.951
88042W        W49463  26.188  15.096  13.014
88043W        W49464   4.335  30.041  10.466
88044W        W49465   5.419  16.225  11.072
88045W        W49466   6.422  28.967   4.796
88046W        W49467  15.811  39.546  12.066
88047W        W49468  23.191  44.492  12.540
88048W        W49469  40.354  16.231  11.899
88049W        W49470  36.898  19.245   3.833
88050W        W49471   2.816  28.562  14.364
88051W        W49472  25.028  31.083  13.327
88052W        W49473  33.586  37.390  11.904
88053W        W49474  36.982  31.526  12.881
88054W        W49475  16.208  38.390   4.184
88055W        W49476   1.827  29.041   3.245
88056W        W49477  30.636  41.960   0.438
88057W        W49478   9.696  41.346  14.758
88058W        W49479   8.372   2.341  14.878
88059W        W49480  19.657  40.442  13.915
88060W        W49481  38.399  25.544   1.246
88061W        W49482  22.553  25.714  12.890
88062W        W49483  34.002   8.313  10.933
88063W        W49484   8.276  37.468  11.019
88064W        W49485  44.310  13.193  12.854
88065W        W49486  27.461  29.102   1.744
88066W        W49487  19.567   4.244  11.891
88067W        W49488  12.811  31.442   4.172
88068W        W49489  37.347   3.261   1.784
88069W        W49490  27.446  35.902  13.036
88070W        W49491  25.595  20.112  10.640
88071W        W49492   2.827  13.240   0.890
88072W        W49493  20.094  25.163   1.776
88073W        W49494  39.409   3.439  13.480
88074W        W49495  32.571  41.438   0.834
88075W        W49496  42.799   4.233   2.310
88076W        W49497   9.802  23.052  10.898
88077W        W49498  15.250   6.424   1.778
88078W        W49499  29.515  14.258   0.398
88079W        W49500   2.263   3.887  11.948
88080W        W49501   8.183  20.552  12.530
88081W        W49502  26.208  18.643   4.800
88082W        W49503  25.139  36.042   3.847
88083W        W49504   8.312  18.574  12.571
88084W        W49505   6.842  20.573  11.002
88085W        W49506   6.858  34.912   0.282
88086W        W49507  13.652  29.930  14.774
88087W        W49508   5.878  22.655   0.292
88088W        W49509  22.568   4.269  10.485
88089W        W49510  14.615  16.261   2.668
88090W        W49511  24.995   6.811   4.211
88091W        W49512  40.365  41.488  11.885
88092W        W49513  17.699   4.305  10.993
88093W        W49514   5.717   6.286   0.731
88094W        W49515   4.875  29.043   3.708
88095W        W49516  20.726  37.852  14.455
88096W        W49517  22.147  42.308   1.336
88097W        W49518  39.542   4.348   3.277
88098W        W49519   9.262  11.806  12.883
88099W        W49520  31.903  23.581  13.351
88100W        W49521   0.764   1.432   4.147
88101W        W49522  25.980  20.720  10.546
88102W        W49523  21.650  35.933  12.940
88103W        W49524  13.748  37.986   2.789
88104W        W49525  44.784  19.743  11.402
88105W        W49526  28.545  25.128   0.852
88106W        W49527  41.412  41.016   2.768
88107W        W49528  26.122  38.896   1.869
88108W        W49529  27.151  29.991   1.307
88109W        W49530  10.659  10.215  12.045
88110W        W49531  27.482  39.026   1.923
88111W        W49532  33.007   7.290  13.998
88112W        W49533  36.938   9.886   1.728
88113W        W49534  20.177  33.446  13.362
88114W        W49535  30.039  18.726   3.711
88115W        W49536  23.498   1.903  14.999
88116W        W49537   5.295  22.126   2.326
88117W        W49538   5.207   6.422  11.904
88118W        W49539  42.812  33.099  14.777
88119W        W49540  43.431  35.957  12.902
88120W        W49541  25.011  26.068  13.409
88121W        W49542   3.352  14.832   4.152
88122W        W49543  12.658  38.959  11.483
88123W        W49544  35.521  41.822  10.494
88124W        W49545  35.080  36.371  11.532
88125W        W49546   6.887  26.971  11.543
88126W        W49547   8.160  26.067   2.185
88127W        W49548  10.728  20.186   4.624
88128W        W49549   8.893  43.505  12.471
88129W        W49550  19.554  24.136  10.619
88130W        W49551   4.393  29.549   4.342
88131W        W49552  35.369  23.065  12.830
88132W        W49553   3.329  23.722  12.470
88133W        W49554  29.054  36.018   3.678
88134W        W49555  32.972  35.579   4.193
88135W        W49556   8.252  10.839   3.285
88136W        W49557   1.869   4.207   1.273
88137W        W49558  15.701   6.272  13.465
88138W        W49559   3.426  30.656  13.431
88139W        W49560  19.602  16.166   2.248
88140W        W49561  42.953  19.186   0.336
88141W        W49562  34.884  23.625   2.319
88142W        W49563   1.266  30.067   1.747
88143W        W49564  22.164  11.297  14.283
88144W        W49565   6.886  36.897  12.898
88145W        W49566  29.965   5.898   3.363
88146W        W49567  31.980  43.821   9.976
88147W        W49568  37.947  27.980  14.851
88148W        W49569  33.127  31.138  14.839
88149W        W49570  22.227  36.890   4.600
88150W        W49571  23.589  12.620  12.066
88151W        W49572  10.300  16.721  10.416
88152W        W49573  15.085  44.003   3.863
88153W        W49574  11.262   6.878   1.328
88154W        W49575  19.708  39.437  10.430
88155W        W49576  17.659   9.736  12.375
88156W        W49577  29.583  25.027   2.228
88157W        W49578   0.860  29.438   4.791
88158W        W49579  11.253  26.195   1.850
88159W        W49580  29.008  38.071  10.415
88160W        W49581  17.601  44.317  14.813
88161W        W49582   3.280   3.226  14.278
88162W        W49583  40.521  32.598   2.708
88163W        W49584   3.296  33.607   3.261
88164W        W49585  42.972  38.026   5.307
88165W        W49586   6.287  17.619   2.824
88166W        W49587  29.075  22.238   3.195
88167W        W49588  21.217  11.716   3.725
88168W        W49589   1.386  31.030   1.331
88169W        W49590   5.841  18.290   2.245
88170W        W49591   9.156  30.644  12.031
88171W        W49592  26.187  11.151  14.450
88172W        W49593  44.961  39.340  13.940
88173W        W49594   1.392  25.682  11.473
88174W        W49595  31.526  18.682   4.682
88175W        W49596   2.370  18.715  13.936
88176W        W49597  26.165  38.373  12.955
88177W        W49598  23.626  16.614   1.312
88178W        W49599  37.399   7.694   4.323
88179W        W49600  25.619  42.939   0.918
88180W        W49601  25.036   4.883   2.335
88181W        W49602   5.756   4.769   0.791
88182W        W49603  33.887  20.629   0.862
88183W        W49604   3.438  36.970  14.833
88184W        W49605   3.325   3.379  11.859
88185W        W49606  17.225  43.272  12.037
88186W        W49607   7.822  14.675  14.881
88187W        W49608  23.669  22.132   4.223
88188W        W49609   5.401  23.582   2.755
88189W        W49610  18.244  16.580   3.176
88190W        W49611  35.969   8.693   4.827
88191W        W49612  15.675  39.828   4.771
88192W        W49613  22.503  23.211   4.733
88193W        W49614   8.817   3.434  14.344
88194W        W49615  34.019  35.411  14.025
88195W        W49616   1.761  22.229  13.897
88196W        W49617  14.793  33.577   0.350
88197W        W49618  30.983  20.138  13.512
88198W        W49619  13.803  37.472   1.369
88199W        W49620  27.993  15.629   4.780
88200W        W49621  12.716  14.318   1.916
88201W        W49622  37.530  13.206   2.221
88202W        W49623  31.029  19.043   4.196
88203W        W49624  43.499  44.916  13.375
88204W        W49625  11.177  40.907  11.458
88205W        W49626  12.627  44.001   0.957
88206W        W49627  24.221  39.535   0.402
88207W        W49628   4.364  37.452  10.084
88208W        W49629  36.038  20.186   2.765
88209W        W49630   1.734  16.721   0.879
88210W        W49631  20.715  30.552   1.230
88211W        W49632  12.748  12.833   0.736
88212W        W49633  21.218  43.296   4.319
88213W        W49634  25.495  38.531   0.864
88214W        W49635   0.278  18.139  14.450
88215W        W49636   3.876  39.013   0.327
88216W        W49637  32.400  20.545   0.245
88217W        W49638  33.617  44.845   3.640
88218W        W49639   9.693  31.559   1.242
88219W        W49640  39.375  25.650  14.498
88220W        W49641  44.475   7.188   4.738
88221W        W49642  11.729  22.074  11.905
88222W        W49643  21.602  23.657  11.050
88223W        W49644   8.657  31.133   2.298
88224W        W49645  11.678  13.307   5.282
88225W        W49646  31.457   5.815  12.032
88226W        W49647  34.970  37.039   4.186
88227W        W49648  41.802  26.666   3.633
88228W        W49649  21.653  30.508   2.315
88229W        W49650   2.740  40.037  13.875
88230W        W49651  13.164  41.874  11.011
88231W        W49652   5.917   4.442   0.374
88232W        W49653  10.818  23.533   4.135
88233W        W49654  22.660   4.351   5.155
88234W        W49655  42.907  20.083   0.383
88235W        W49656   6.784  18.628   4.689
88236W        W49657  41.789   7.706  14.954
88237W        W49658   9.747  36.583  10.568
88238W        W49659   8.351  13.690   3.742
88239W        W49660  39.459   3.357   4.649
88240W        W49661  25.586  42.826   1.440
88241W        W49662  21.163   6.306  11.936
88242W        W49663   4.417  24.164   4.797
88243W        W49664   1.401  19.587   4.695
88244W        W49665  14.119   5.883   9.936
88245W        W49666  27.614   6.409   1.224
88246W        W49667  15.629  24.155   1.880
88247W        W49668   3.424  41.938   0.951
88248W        W49669  34.401  11.248   3.201
88249W        W49670  20.551  32.899   2.748
88250W        W49671  13.711   6.915  12.082
88251W        W49672  23.662  10.171   0.734
88252W        W49673  13.722  24.987  11.543
88253W        W49674  14.778  33.492   1.444
88254W        W49675  13.154  42.352   0.777
88255W        W49676   8.845  28.622   1.738
88256W        W49677  10.160  22.055   0.855
88257W        W49678   4.339  18.562   1.283
88258W        W49679  34.548  23.107  14.972
88259W        W49680  42.480  34.924  14.809
88260W        W49681  32.408  32.939  10.465
88261W        W49682  15.289  43.866   1.853
88262W        W49683  28.487  37.563  12.894
88263W        W49684  18.626  12.792  14.833
88264W        W49685  29.035  43.465  10.923
88265W        W49686   7.189   7.683   3.829
88266W        W49687   4.391   0.379   1.928
88267W        W49688  29.563  30.432   1.365
88268W        W49689  38.040  44.501   0.851
88269W        W49690  24.567  39.040   3.689
88270W        W49691  36.479   0.267  13.383
88271W        W49692  25.058   5.332   4.822
88272W        W49693  11.808   0.799  12.571
88273W        W49694  20.682   3.939  13.369
88274W        W49695  34.512  11.722  11.034
88275W        W49696  39.937  22.670  13.369
88276W        W49697   3.862   1.959   2.302
88277W        W49698  14.640  19.548   0.871
88278W        W49699  13.155  34.987   2.668
88279W        W49700  22.249  35.566  13.487
88280W        W49701  36.869  39.957  11.890
88281W        W49702   8.160  16.663   0.361
88282W        W49703  14.757  37.996  12.512
88283W        W49704  32.140  21.049   3.773
88284W        W49705  29.519  19.636   4.135
88285W        W49706   9.247  30.040   4.768
88286W        W49707   2.374  32.976   0.251
88287W        W49708   4.420  17.738  14.811
88288W        W49709  11.323  40.414   0.312
88289W        W49710  42.364   1.407   2.756
88290W        W49711  36.518  29.991  12.013
88291W        W49712  39.362  37.942  14.799
88292W        W49713   0.828  40.044   1.723
88293W        W49714  29.125   5.257   4.653
88294W        W49715  15.815   0.921   0.876
88295W        W49716  18.695  38.074  12.923
88296W        W49717  23.689  23.612  14.967
88297W        W49718  40.877  22.252   3.813
88298W        W49719  20.766  27.096  14.285
88299W        W49720   5.917  43.960   2.891
88300W        W49721  39.492  42.389   0.340
88301W        W49722  36.880  37.832  14.406
88302W        W49723  16.248  11.773  13.909
88303W        W49724   6.742  31.065  10.461
88304W        W49725  40.414  18.108   1.883
88305W        W49726   2.282  42.928   3.239
88306W        W49727  41.036   2.869   1.369
88307W        W49728  17.595  24.144  14.369
88308W        W49729  30.504  24.081   3.347
88309W        W49730  12.700  34.442  10.523
88310W        W49731   1.426  29.952  14.496
88311W        W49732  14.147   5.746  12.391
88312W        W49733  24.618  39.459  11.946
88313W        W49734   0.883  41.015  10.413
88314W        W49735   0.953   9.371   0.882
88315W        W49736  40.506  30.471  12.577
88316W        W49737  28.960  36.908  14.503
88317W        W49738   2.902  11.783  13.020
88318W        W49739  21.674  33.100  12.970
88319W        W49740  33.893  18.561  13.043
88320W        W49741  17.280   4.233  10.454
88321W        W49742  16.220  13.111  12.917
88322W        W49743   7.778   4.892  11.579
88323W        W49744  31.031  14.780  13.405
88324W        W49745  26.159   5.899   3.284
88325W        W49746  23.165  31.532  13.528
88326W        W49747  32.404  39.331   0.855
88327W        W49748  43.295  17.644  13.859
88328W        W49749   3.375  44.962   1.751
88329W        W49750  30.078  12.146  12.874
88330W        W49751   1.862   1.402  14.862
88331W        W49752   1.734  24.553  10.051
88332W        W49753  22.536  36.884   3.302
88333W        W49754  44.267   9.882  12.886
88334W        W49755  42.281   7.196   4.134
88335W        W49756   1.824  31.480  10.897
88336W        W49757  26.466  39.049  14.444
88337W        W49758  44.992  14.662   4.335
88338W        W49759  12.342  11.832   4.729
88339W        W49760  17.696  34.908  12.841
88340W        W49761  17.199  17.218  13.003
88341W        W49762  26.677  23.567  12.030
88342W        W49763  18.626  14.604   1.736
88343W        W49764   5.755  26.584  13.958
88344W        W49765  20.251  38.482   4.761
88345W        W49766   8.665  34.969  11.591
88346W        W49767  14.632  23.515   2.361
88347W        W49768  34.967  24.126  11.018
88348W        W49769  42.836   9.188   3.228
88349W        W49770  28.441  32.931  12.448
88350W        W49771  11.139   4.704   3.383
88351W        W49772  13.277  43.764   3.706
88352W        W49773  44.006  26.176  13.975
88353W        W49774  27.941   9.356  11.878
88354W        W49775  40.507  22.065   3.641
88355W        W49776   4.804  24.721   1.825
88356W        W49777  10.878  12.819  12.424
88357W        W49778  24.479  38.517  11.061
88358W        W49779   6.312  37.527   1.865
88359W        W49780  19.272  17.679  11.025
88360W        W49781  43.269  41.943   1.758
88361W        W49782  39.350  19.060  11.536
88362W        W49783  36.018  19.656   4.145
88363W        W49784  31.608  24.554  11.890
88364W        W49785  28.968   5.359  14.298
88365W        W49786   7.819   2.894  11.607
88366W        W49787   8.728  13.337   0.358
88367W        W49788  24.529  29.573   2.775
88368W        W49789  12.230   9.790   0.852
88369W        W49790  37.544  26.155   4.310
88370W        W49791   6.682  10.378   9.991
88371W        W49792   9.348  37.536  10.984
88372W        W49793   8.220   9.730   1.399
88373W        W49794  10.697  25.170   4.221
88374W        W49795  36.008   6.739  12.411
88375W        W49796  31.126   9.878  13.950
88376W        W49797  39.000  27.159  11.075
88377W        W49798   8.815   3.759  14.987
88378W        W49799  14.688  38.064   1.856
88379W        W49800   7.325  40.519  12.943
88380W        W49801   0.360  13.298  12.996
88381W        W49802   1.823  43.988  10.529
88382W        W49803  21.231  21.116  10.598
88383W        W49804  44.283  43.994   1.415
88384W        W49805  19.088   6.693  10.608
88385W        W49806  29.532   7.223   9.924
88386W        W49807   7.813  23.652  11.496
88387W        W49808  36.925  26.624  13.891
88388W        W49809  24.703  42.898   0.481
88389W        W49810  20.055  43.984  10.459
88390W        W49811  13.713   7.410   0.449
88391W        W49812   1.301  31.523   0.929
88392W        W49813   1.359   7.791  11.527
88393W        W49814  18.205  32.141   0.345
88394W        W49815   5.849  37.937   4.138
88395W        W49816  33.466   2.911   3.203
88396W        W49817  23.097  35.454  12.443
88397W        W49818  28.166  37.080   0.733
88398W        W49819  31.647  30.603  13.402
88399W        W49820  19.666  31.500   2.892
88400W        W49821  40.538  14.197  12.991
88401W        W49822   2.332  11.768   1.327
88402W        W49823  36.523  30.450  12.985
88403W        W49824  40.331  39.882  14.442
88404W        W49825   3.257   6.684  14.770
88405W        W49826  30.954  34.611   5.107
88406W        W49827  17.591  20.121   1.873
88407W        W49828  38.951  42.824   4.279
88408W        W49829  25.208   3.323   1.702
88409W        W49830  26.115  17.067  10.582
88410W        W49831  36.028  17.123  14.988
88411W        W49832  34.879  39.398   0.367
88412W        W49833   9.748  31.021  14.812
88413W        W49834  43.892  23.541  10.966
88414W        W49835   9.708  23.698   4.835
88415W        W49836  16.085  36.470   3.200
88416W        W49837  25.527  28.623   1.786
88417W        W49838  28.474  28.673   1.272
88418W        W49839  24.581  35.915  13.954
88419W        W49840   6.357  20.148  10.513
88420W        W49841   6.346  33.587  11.905
88421W        W49842  13.346   6.340  12.033
88422W        W49843  28.042  36.551   2.269
88423W        W49844  42.440  24.650   2.217
88424W        W49845  10.361  19.688  10.476
88425W        W49846  11.241  13.330  14.799
88426W        W49847  27.075   1.416  11.128
88427W        W49848  10.298   1.769   1.817
88428W        W49849  33.523  12.148   5.150
88429W        W49850  38.914  33.068  11.408
88430W        W49851  17.138  22.728  12.859
88431W        W49852  20.245  41.945   1.922
88432W        W49853  21.540  30.521  11.595
88433W        W49854   0.329  24.603  13.380
88434W        W49855  16.162  28.596   2.801
88435W        W49856  15.219  23.552   3.167
88436W        W49857  11.768  20.214  10.600
88437W        W49858  16.117  20.236   2.372
88438W        W49859   0.785  33.505   4.655
88439W        W49860  40.536   6.744  13.042
88440W        W49861  39.326  34.583   0.804
88441W        W49862  31.915  22.125  12.049
88442W        W49863   7.851  15.229  14.960
88443W        W49864   6.359  32.081  12.913
88444W        W49865  39.048  36.069   3.657
88445W        W49866  19.271  39.017  11.476
88446W        W49867   5.193  36.531   1.241
88447W        W49868   5.430  26.554  14.472
88448W        W49869  11.252   9.766   3.761
88449W        W49870  10.360  19.685   0.401
88450W        W49871  29.923  44.922   3.828
88451W        W49872  14.619  24.668  14.000
88452W        W49873  43.444   0.775  12.916
88453W        W49874   4.439  23.631  12.463
88454W        W49875   5.408  29.997  13.946
88455W        W49876  31.604  29.064  11.107
88456W        W49877  13.633  17.301   1.893
88457W        W49878  41.350  38.514   2.753
88458W        W49879  27.107   0.967   3.676
88459W        W49880   9.301  12.126   3.382
88460W        W49881  33.887   2.301  14.414
88461W        W49882  34.585  39.442  12.060
88462W        W49883  24.150  20.531  10.575
88463W        W49884  42.297  38.999   2.793
88464W        W49885   4.217  35.903   1.314
88465W        W49886   0.944  22.537  13.842
88466W        W49887  16.209  29.045  14.872
88467W        W49888  35.377  20.198  10.634
88468W        W49889  13.289  15.686   1.303
88469W        W49890  31.986  14.099  12.430
88470W        W49891  30.048  14.597   2.789
88471W        W49892  34.942  23.999  11.374
88472W        W49893  18.590  28.096  13.942
88473W        W49894  40.009  39.383   4.156
88474W        W49895  24.983  37.411   4.682
88475W        W49896   3.217  38.380  13.544
88476W        W49897  15.187  27.449   4.754
88477W        W49898  24.001  16.306   1.908
88478W        W49899  43.780  43.838  10.935
88479W        W49900   0.916  23.553   0.929
88480W        W49901  43.951  21.110   3.690
88481W        W49902   3.824  12.729  14.334
88482W        W49903  36.529   5.329   3.291
88483W        W49904  18.260  30.540  13.006
88484W        W49905   3.408  42.359  11.435
88485W        W49906  44.497   9.313   0.341
88486W        W49907  39.957  15.777  14.842
88487W        W49908  11.641   6.819  14.421
88488W        W49909   7.826  34.431  11.588
88489W        W49910  16.257  36.060   5.253
88490W        W49911   0.984  17.258  12.097
88491W        W49912  44.809  44.421  12.058
88492W        W49913  35.901  13.122  11.965
88493W        W49914  39.395  41.030  10.599
88494W        W49915  34.101   6.383   4.351
88495W        W49916  12.794  16.147   1.409
88496W        W49917  41.925  23.718  10.059
88497W        W49918  16.640  24.124  13.985
88498W        W49919  12.133  35.453   1.358
88499W        W49920  26.135  29.052   1.894
88500W        W49921   4.221  22.030  12.550
88501W        W49922   2.453   0.885   0.284
88502W        W49923  10.875  28.617   1.832
88503W        W49924   1.445   3.310  11.912
88504W        W49925  23.131  11.329  13.342
88505W        W49926  31.921  20.572   0.405
88506W        W49927  12.322  38.972   2.835
88507W        W49928  16.310   3.868  13.984
88508W        W49929   9.326  11.842  13.973
88509W        W49930  18.230  42.968   3.843
88510W        W49931  34.450  21.548   4.284
88511W        W49932  18.594   0.351  14.863
88512W        W49933  26.495   7.224  14.463
88513W        W49934  33.079  38.905  10.605
88514W        W49935  30.955   4.891   0.249
88515W        W49936  17.628   5.879  14.422
88516W        W49937  18.168  28.628   0.467
88517W        W49938  17.078   8.657  10.560
88518W        W49939   4.779  42.934  11.479
88519W        W49940   7.193  17.187  13.929
88520W        W49941  32.968  43.403   0.455
88521W        W49942   8.819  37.388  14.886
88522W        W49943  13.305  16.777  14.891
88523W        W49944  40.547  25.017   1.278
88524W        W49945  23.547  15.324   2.394
88525W        W49946  16.707  22.691   3.826
88526W        W49947  23.512  44.440  14.007
88527W        W49948  30.078  37.890  14.364
88528W        W49949  28.629  23.233   2.358
88529W        W49950  29.077  13.835   3.833
88530W        W49951  27.008  24.036   0.832
88531W        W49952  35.598  27.683   4.628
88532W        W49953   3.737  22.705   1.260
88533W        W49954   6.305   1.940  11.467
88534W        W49955  19.207  31.626   0.296
88535W        W49956   2.374  11.234  14.428
88536W        W49957  16.615  35.080   1.710
88537W        W49958  43.766  39.406   4.691
88538W        W49959  29.474  15.228   2.726
88539W        W49960  23.159  35.479   2.723
88540W        W49961   2.462  43.853   4.607
88541W        W49962  24.494  41.365  12.851
88542W        W49963  37.463  31.932  12.504
88543W        W49964  13.182  20.541  10.902
88544W        W49965  22.609  36.381   3.236
88545W        W49966  30.990  33.394  11.527
88546W        W49967  42.994   4.444   3.649
88547W        W49968  29.138  20.269   3.337
88548W        W49969   7.235  16.199  10.915
88549W        W49970  33.501  35.987  10.417
88550W        W49971  42.791  33.606   1.374
88551W        W49972  10.286   1.761   4.654
88552W        W49973   1.871  21.186   5.121
88553W        W49974  17.800  37.336  14.413
88554W        W49975  17.570   6.801  12.017
88555W        W49976  36.456  15.692  13.859
88556W        W49977  34.614  34.000   0.430
88557W        W49978  42.398  25.678  14.772
88558W        W49979   2.397  39.516   2.263
88559W        W49980  13.282  31.073   3.656
88560W        W49981  16.201  43.907  13.339
88561W        W49982  20.592  13.731   2.759
88562W        W49983  22.241   3.855   3.809
88563W        W49984  39.019  39.905   3.838
88564W        W49985  32.530  29.142  13.993
88565W        W49986  24.633  13.132  12.997
88566W        W49987  38.457  24.989   4.705
88567W        W49988   5.245   2.948  14.919
88568W        W49989  31.497  30.089   3.377
88569W        W49990   3.221  29.121   5.248
88570W        W49991   2.788   3.840   1.773
88571W        W49992   1.440  22.037  10.502
88572W        W49993  18.659  33.068  10.972
88573W        W49994  16.748  12.683   0.760
88574W        W49995  44.922   0.365   0.432
88575W        W49996   4.727   4.305  13.838
88576W        W49997  20.154   6.742  12.825
88577W        W49998  38.935  41.522   0.447
88578W        W49999   4.819  23.537   1.836
88579W        W50000  14.728  31.909  14.764
88580W        W50001   6.838   0.955   0.933
88581W        W50002   8.662  37.415  10.114
88582W        W50003  27.075  26.000  10.604
88583W        W50004   4.750  37.351   4.838
88584W        W50005  10.696   8.319  10.967
88585W        W50006  12.707  22.227  11.579
88586W        W50007  10.199  39.907  10.964
88587W        W50008   9.287  25.594  13.442
88588W        W50009  12.825  21.584  12.823
88589W        W50010  33.921  37.929   0.967
88590W        W50011  15.628  32.978   3.777
88591W        W50012   6.913   1.375   4.177
88592W        W50013   4.346  22.627  13.339
88593W        W50014  19.169  35.970   4.617
88594W        W50015   0.297  10.218  10.403
88595W        W50016  34.566   5.230   1.391
88596W        W50017   2.287  18.118   0.747
88597W        W50018  18.072  12.847   3.364
88598W        W50019  12.801  14.228   2.750
88599W        W50020  12.812  30.929  13.333
88600W        W50021  11.170  43.381  10.953
88601W        W50022  21.070  35.392  10.498
88602W        W50023  24.973   4.282  10.517
88603W        W50024  22.663  39.418   4.230
88604W        W50025   7.715  40.884  14.813
88605W        W50026  34.420   4.785   1.706
88606W        W50027  41.481  28.577  14.955
88607W        W50028  24.158  43.293  13.882
88608W        W50029  18.611  12.758  13.511
88609W        W50030  27.025  33.589  14.403
88610W        W50031  12.854  23.140   0.259
88611W        W50032  11.729  10.320   4.221
88612W        W50033  32.611  34.603   0.279
88613W        W50034   1.952  11.212  11.436
88614W        W50035   9.240  30.065   0.244
88615W        W50036  31.411  16.300   5.291
88616W        W50037  36.589  24.641   4.734
88617W        W50038   9.182   4.811   2.302
88618W        W50039  14.651  43.411  12.026
88619W        W50040  44.878  15.807  12.982
88620W        W50041   3.232  18.646  10.460
88621W        W50042  33.015   0.383  14.460
88622W        W50043  13.351  36.562   2.772
88623W        W50044  16.224  37.853  11.034
88624W        W50045   7.808  15.134  12.901
88625W        W50046  38.986   9.184   3.721
88626W        W50047  33.936  35.977   2.783
88627W        W50048   3.816  23.705   2.212
88628W        W50049  17.586  38.393   3.712
88629W        W50050  22.556  29.492   4.696
88630W        W50051  21.635  14.790   2.764
88631W        W50052  20.089   1.908   3.715
88632W        W50053  19.051  44.952   0.786
88633W        W50054   4.885  22.997  11.103
88634W        W50055  41.835  43.799  13.365
88635W        W50056  39.396  33.915   4.690
88636W        W50057  21.608  14.686  12.093
88637W        W50058   3.790  37.400  14.465
88638W        W50059   9.175  23.035  12.012
88639W        W50060  19.563   1.952  10.900
88640W        W50061   6.280  31.057   3.679
88641W        W50062  17.183  12.783  10.517
88642W        W50063  42.432  15.309  13.999
88643W        W50064  15.727  35.524   4.626
88644W        W50065  44.441  20.050   3.727
88645W        W50066  38.947   6.726  12.408
88646W        W50067   5.238  44.839   3.294
88647W        W50068  38.495  29.512   0.346
88648W        W50069  17.097   7.205  13.826
88649W        W50070  35.596  11.682   1.382
88650W        W50071  20.219  13.837  14.813
88651W        W50072  20.195  22.064  11.416
88652W        W50073   8.802  12.342  13.462
88653W        W50074  44.799  15.159  14.927
88654W        W50075  33.426   8.863   5.263
88655W        W50076  31.405   3.326   0.418
88656W        W50077  34.406   4.897  13.994
88657W        W50078  16.640  17.691  14.805
88658W        W50079  15.325   6.850  10.473
88659W        W50080   4.858  44.989   1.829
88660W        W50081   9.252  22.060  13.350
88661W        W50082  33.399  25.699  12.941
88662W        W50083  27.145  27.153  11.606
88663W        W50084  37.855  22.167  12.841
88664W        W50085  28.090  26.459   3.160
88665W        W50086   5.894   3.221   3.273
88666W        W50087  14.191  37.070  12.997
88667W        W50088   3.709   5.895   1.239
88668W        W50089  42.335  14.699   3.150
88669W        W50090   1.973  44.773  11.457
88670W        W50091  12.748  12.335  13.037
88671W        W50092  44.325  43.816   3.287
88672W        W50093  34.527  23.712  14.839
88673W        W50094  16.691  18.246  14.468
88674W        W50095  33.101  38.885  14.440
88675W        W50096  16.636   9.327  14.942
88676W        W50097   7.792  42.326  11.031
88677W        W50098  22.197  19.184  14.349
88678W        W50099  33.563  27.161   3.791
88679W        W50100  18.187   8.728  11.968
88680W        W50101  24.626   4.210  13.378
88681W        W50102  11.822  25.492   4.183
88682W        W50103  11.168  33.492   3.210
88683W        W50104  44.395  14.722   0.954
88684W        W50105  16.599  34.432   1.376
88685W        W50106  26.126  44.373   0.356
88686W        W50107  39.441  18.187   0.332
88687W        W50108   3.300  39.550   1.391
88688W        W50109   2.870   1.290   9.539
88689W        W50110  20.626  28.094  13.378
88690W        W50111   4.262  38.352   4.195
88691W        W50112  25.173  19.274  14.787
88692W        W50113   9.261   3.416   3.231
88693W        W50114  31.602   9.800  14.024
88694W        W50115  31.563  25.613  14.418
88695W        W50116  13.726   8.367   4.117
88696W        W50117   7.720  24.151   9.670
88697W        W50118   1.274   8.680  13.342
88698W        W50119   1.252   2.366  14.879
88699W        W50120  13.640  15.260  13.423
88700W        W50121  31.518   4.708   4.742
88701W        W50122   2.390  26.601  13.536
88702W        W50123   4.800  24.567   2.329
88703W        W50124  36.519  23.526  14.031
88704W        W50125  17.125  20.071   2.340
88705W        W50126  19.284  10.818   0.896
88706W        W50127  24.631  27.648   2.352
88707W        W50128  27.068  15.139  14.958
88708W        W50129  12.127  36.963  12.895
88709W        W50130  10.219  29.585   1.809
88710W        W50131  22.737  35.486  10.931
88711W        W50132  27.540  31.452   2.290
88712W        W50133  17.302   6.364  13.986
88713W        W50134   1.944  38.914   2.847
88714W        W50135  41.461  38.928  12.477
88715W        W50136   4.376  11.151   0.251
88716W        W50137  12.721  44.480   0.383
88717W        W50138   3.799  42.983   3.215
88718W        W50139   9.220   9.345   1.222
88719W        W50140  26.481  30.499  10.610
88720W        W50141  36.408  29.990   4.745
88721W        W50142  16.104  25.181  14.465
88722W        W50143  16.097  27.620   0.320
88723W        W50144  36.942   7.185   3.166
88724W        W50145  11.176  36.559  14.799
88725W        W50146  16.189   6.708  11.063
88726W        W50147  15.163  33.085  13.835
88727W        W50148  44.981  43.301   2.234
88728W        W50149  29.436  43.467   4.295
88729W        W50150   9.179  42.357  13.896
88730W        W50151  25.043   1.765   0.945
88731W        W50152   3.299  31.944   4.208
88732W        W50153  35.044  37.346   3.690
88733W        W50154  36.403   6.791   4.171
88734W        W50155  16.293   4.870  12.524
88735W        W50156  29.597  39.986  10.987
88736W        W50157  43.855  24.129  12.554
88737W        W50158  12.227  10.206   4.782
88738W        W50159   5.261  27.675   0.387
88739W        W50160  14.636  43.473  12.982
88740W        W50161  13.172  37.556   9.971
88741W        W50162  33.008  10.151   4.251
88742W        W50163   9.173  40.541  12.532
88743W        W50164   9.649   2.818   0.759
88744W        W50165  27.984  35.378  13.863
88745W        W50166   5.755  12.246   1.228
88746W        W50167  12.349  32.973   2.808
88747W        W50168  22.052  32.945   2.792
88748W        W50169  24.039   9.200  11.431
88749W        W50170  42.464  28.184  12.430
88750W        W50171   7.876  29.608  10.505
88751W        W50172   0.248  24.165   0.401
88752W        W50173   9.149  27.083  11.527
88753W        W50174  23.209   2.272   1.830
88754W        W50175   1.422   5.287   2.829
88755W        W50176  25.177  30.101  12.478
88756W        W50177  41.313  28.981  11.099
88757W        W50178   5.868  29.984   3.772
88758W        W50179  36.586  36.442   3.279
88759W        W50180   0.898  13.760   2.818
88760W        W50181  31.506  36.487  14.787
88761W        W50182  42.983  36.969  11.441
88762W        W50183   9.660  43.820   3.155
88763W        W50184  34.075   6.427  12.382
88764W        W50185   3.897   4.251   2.684
88765W        W50186  33.444  29.054  12.977
88766W        W50187  27.592  13.292   1.784
88767W        W50188   6.319  12.757   2.385
88768W        W50189  20.074  16.211   1.373
88769W        W50190   4.796  28.070   1.707
88770W        W50191  17.660   1.929   0.371
88771W        W50192  34.499  26.089  13.393
88772W        W50193  41.880  41.459   3.732
88773W        W50194  12.811   0.867   3.303
88774W        W50195  26.084  42.894  13.409
88775W        W50196  17.660  21.101   2.342
88776W        W50197  27.468  32.993   3.325
88777W        W50198  28.006  32.012   1.731
88778W        W50199  37.913  17.669   2.766
88779W        W50200  40.371  23.510   1.816
88780W        W50201  35.030   2.441   1.329
88781W        W50202   6.313  16.710  10.474
88782W        W50203  41.453  21.135  14.816
88783W        W50204  31.035  43.958   0.818
88784W        W50205  12.729   7.361  11.984
88785W        W50206   7.857  37.912  13.040
88786W        W50207   2.833  18.273   0.790
88787W        W50208  37.836  25.517   4.341
88788W        W50209  32.118  22.615   4.300
88789W        W50210  21.517  38.478   1.775
88790W        W50211  39.378  30.041  10.927
88791W        W50212  36.358   3.443   4.661
88792W        W50213  27.047   3.711   2.843
88793W        W50214  41.975   3.252   4.731
88794W        W50215  43.414  25.508   0.287
88795W        W50216  38.053   1.385  11.069
88796W        W50217  11.319   3.916  14.963
88797W        W50218   5.921  20.613  13.508
88798W        W50219  41.365   1.969   0.356
88799W        W50220  17.678   3.749  10.556
88800W        W50221  29.140   7.722  14.799
88801W        W50222  17.082  34.054   4.347
88802W        W50223  16.702  14.637   5.210
88803W        W50224  37.918  28.444  13.380
88804W        W50225  36.425   1.740  10.579
88805W        W50226  41.870  19.733  11.067
88806W        W50227  22.181  11.219   3.201
88807W        W50228  25.500  43.439   1.434
88808W        W50229  27.113  34.483   3.153
88809W        W50230  42.986  38.916   4.774
88810W        W50231  25.072  35.008  11.876
88811W        W50232  21.240  41.450  11.557
88812W        W50233   0.817  24.099  12.491
88813W        W50234   7.391   5.281  12.359
88814W        W50235  16.266  28.103  12.516
88815W        W50236  30.146  28.995   1.331
88816W        W50237  10.268  33.568   3.261
88817W        W50238  11.694  42.854   3.865
88818W        W50239  31.478  44.328  10.998
88819W        W50240  42.964   7.725   2.767
88820W        W50241  35.067  21.527   0.966
88821W        W50242  43.937   5.199   1.270
88822W        W50243  10.373  14.786  10.428
88823W        W50244  35.597  15.148  13.941
88824W        W50245  28.439  26.148   1.411
88825W        W50246  13.831  21.550   2.223
88826W        W50247   4.265  23.188   9.985
88827W        W50248  31.641  35.991   3.805
88828W        W50249  19.280  40.946  11.483
88829W        W50250  32.975   2.871  14.767
88830W        W50251   9.368  31.948  10.912
88831W        W50252  19.162  28.087   4.146
88832W        W50253  26.493  14.812   2.288
88833W        W50254  16.580  39.359  14.924
88834W        W50255  31.409  33.008   0.812
88835W        W50256  35.552   3.784   2.891
88836W        W50257  41.919  22.077  12.368
88837W        W50258  33.062  12.166  12.000
88838W        W50259   9.731  21.559   4.628
88839W        W50260  10.267  11.326   3.322
88840W        W50261  10.320  29.458  14.515
88841W        W50262  38.011  13.307   2.274
88842W        W50263   9.816  14.119   0.934
88843W        W50264  38.052  38.873   1.382
88844W        W50265  44.296   2.878   2.349
88845W        W50266   1.874  25.669  10.404
88846W        W50267  36.548  44.961  13.987
88847W        W50268  30.428  35.386  10.506
88848W        W50269   8.279  27.690   1.437
88849W        W50270  35.984  44.346  10.114
88850W        W50271  10.188  20.621  12.372
88851W        W50272  19.057   8.731   4.691
88852W        W50273  37.009  35.466   1.263
88853W        W50274   9.792  41.905  13.842
88854W        W50275  15.708  43.772  12.505
88855W        W50276  22.226  13.318   3.218
88856W        W50277  29.937  10.364  12.945
88857W        W50278  43.416  23.723  13.971
88858W        W50279  29.034  12.793   3.224
88859W        W50280  13.818   1.869   1.277
88860W        W50281  28.517  29.093   3.854
88861W        W50282  12.196  11.791   1.236
88862W        W50283  34.974  19.137  10.455
88863W        W50284  18.687  26.590  12.026
88864W        W50285  16.155  15.749  11.592
88865W        W50286  15.169   2.459  13.388
88866W        W50287  42.830  20.639  13.945
88867W        W50288  25.999  17.612  13.353
88868W        W50289  41.346  14.154  11.933
88869W        W50290  43.366  42.905   1.414
88870W        W50291  25.186  10.281  12.547
88871W        W50292   2.308  30.144  13.047
88872W        W50293  29.519  16.197   2.707
88873W        W50294  41.305  37.914  14.496
88874W        W50295   4.743   7.711  12.389
88875W        W50296  27.079  40.965  12.927
88876W        W50297  32.500  13.261   3.856
88877W        W50298   6.700  23.999   4.759
88878W        W50299  29.032  20.213  12.869
88879W        W50300   7.334  36.032   1.870
88880W        W50301  43.406   1.789   3.302
88881W        W50302  36.877  40.984  14.301
88882W        W50303  23.576  28.078  13.542
88883W        W50304  17.223  31.463   3.635
88884W        W50305  28.502  38.981  14.807
88885W        W50306  26.087  23.201   0.738
88886W        W50307  23.664   7.303   9.995
88887W        W50308  18.263  20.194   1.742
88888W        W50309  27.967  26.135  12.829
88889W        W50310  43.832  17.577   0.260
88890W        W50311   3.361  27.956  13.018
88891W        W50312  44.977  44.829   3.295
88892W        W50313  36.587  17.686  11.056
88893W        W50314  31.097  29.149   3.854
88894W        W50315  38.855   9.331  14.475
88895W        W50316  29.428  24.081  14.330
88896W        W50317   1.976  11.755  12.003
88897W        W50318  24.034  14.728  13.048
88898W        W50319  12.203   3.893  12.073
88899W        W50320  11.797   1.877  11.398
88900W        W50321  41.305  14.193  14.839
88901W        W50322  11.252  41.808   0.843
88902W        W50323  13.289  33.992  11.949
88903W        W50324  27.452  30.537  10.947
88904W        W50325  26.070  27.065   3.687
88905W        W50326  13.191  23.589   3.347
88906W        W50327  14.221  29.482  12.541
88907W        W50328  15.242   0.362  13.345
88908W        W50329  20.234  11.311   2.748
88909W        W50330  30.995  39.011   1.737
88910W        W50331   7.694  42.945   4.787
88911W        W50332  13.797  32.634  14.319
88912W        W50333  41.981  22.616  12.929
88913W        W50334  14.795   7.764  12.076
88914W        W50335  35.097  34.526  10.485
88915W        W50336   0.833  19.147   4.304
88916W        W50337  44.853   0.850  14.515
88917W        W50338  18.243  39.475  11.575
88918W        W50339  38.046  43.767   1.415
88919W        W50340  35.921  21.089   4.215
88920W        W50341  24.490  41.341  12.421
88921W        W50342  41.033   1.415  13.538
88922W        W50343  37.547  36.556   5.106
88923W        W50344   4.234  17.288   4.614
88924W        W50345  28.183  16.635  11.071
88925W        W50346  24.491  24.553   1.384
88926W        W50347  39.423  28.631  14.997
88927W        W50348  44.432  42.865   3.233
88928W        W50349  40.990  33.131  14.340
88929W        W50350  29.936  34.549  13.322
88930W        W50351  17.733   5.426   4.129
88931W        W50352  42.473  13.165  13.880
88932W        W50353  14.789  27.191  12.387
88933W        W50354  12.315   7.263  11.544
88934W        W50355   0.463   2.406   9.933
88935W        W50356  44.321  32.449  13.054
88936W        W50357  30.022   4.766   3.318
88937W        W50358   7.256   8.868   1.232
88938W        W50359   2.309  29.165  10.644
88939W        W50360  22.570  15.664   0.427
88940W        W50361  25.584  16.173   0.763
88941W        W50362  23.171  27.686  10.939
88942W        W50363  21.671  18.175  10.524
88943W        W50364  23.672  27.137   1.328
88944W        W50365  15.669  38.528  14.023
88945W        W50366  20.620  34.605  12.982
88946W        W50367   9.786  10.177   1.882
88947W        W50368  32.596  38.018   3.245
88948W        W50369  25.131  27.970  14.029
88949W        W50370   7.250  24.544  13.903
88950W        W50371   6.771  19.743   4.626
88951W        W50372  19.169  24.091   4.149
88952W        W50373  26.637   5.433   3.272
88953W        W50374  31.463  10.287  11.478
88954W        W50375   4.220  36.506  13.464
88955W        W50376  41.520  44.886   1.270
88956W        W50377  38.409   9.287   2.185
88957W        W50378  20.091  35.943  13.877
88958W        W50379   4.943   7.253  12.996
88959W        W50380  11.259  18.069  11.975
88960W        W50381  14.216   8.315   3.664
88961W        W50382  15.724  17.762   0.296
88962W        W50383  27.941  27.068   2.857
88963W        W50384  15.235  29.103   2.711
88964W        W50385  14.653  25.515   1.731
88965W        W50386  39.554  10.656   4.198
88966W        W50387  42.314  36.862   3.253
88967W        W50388   4.721   8.779   3.636
88968W        W50389  33.509  13.300   1.908
88969W        W50390  21.262  33.609  14.958
88970W        W50391  30.455  14.096   1.818
88971W        W50392  43.879   0.257  14.303
88972W        W50393   4.360  41.830   3.342
88973W        W50394  22.998   7.417  13.354
88974W        W50395  34.521  22.009   1.300
88975W        W50396   3.414  15.323  12.401
88976W        W50397   4.944  17.694   4.816
88977W        W50398  27.531  20.657   2.208
88978W        W50399  29.057  19.645   2.314
88979W        W50400  12.855  39.814  11.050
88980W        W50401   8.295   0.377  13.426
88981W        W50402  18.776   7.807  14.965
88982W        W50403   6.885  31.999  10.542
88983W        W50404  42.513  10.774  12.537
88984W        W50405  20.619  24.558  12.579
88985W        W50406  26.969  40.046  12.046
88986W        W50407  44.401  42.420   1.781
88987W        W50408  20.733  23.140  14.863
88988W        W50409  28.512  12.154   1.236
88989W        W50410  41.820  31.637   2.236
88990W        W50411  34.001  34.596   1.268
88991W        W50412  27.661   2.465   0.907
88992W        W50413  14.729  41.331   2.743
88993W        W50414  39.022  24.049  10.562
88994W        W50415  17.600  10.260  13.831
88995W        W50416  41.793  37.859   3.220
88996W        W50417  30.012  40.376   2.239
88997W        W50418  28.448  30.481  11.497
88998W        W50419  10.691  18.776  13.537
88999W        W50420  39.958  10.708  14.416
89000W        W50421  11.328  21.701   0.890
89001W        W50422   7.781  39.914  14.913
89002W        W50423  30.050  43.929  12.825
89003W        W50424  41.817  21.099  10.602
89004W        W50425  36.544  24.565   3.854
89005W        W50426  17.663   8.826   0.456
89006W        W50427  40.027  11.767  10.538
89007W        W50428  27.965  14.283  14.834
89008W        W50429   6.205  34.018   1.286
89009W        W50430   7.872  26.003   3.802
89010W        W50431  18.277  15.083  13.445
89011W        W50432  41.502  23.202  11.489
89012W        W50433  24.154  25.962  10.568
89013W        W50434  33.051  28.561   3.247
89014W        W50435   1.291  29.457   4.215
89015W        W50436  17.556  14.120  12.958
89016W        W50437  12.665  25.593   3.722
89017W        W50438   6.698  43.457   3.759
89018W        W50439  30.445  19.603  13.797
89019W        W50440  12.147  10.849   3.831
89020W        W50441  12.622   3.438   2.351
89021W        W50442   8.876  24.570  13.922
89022W        W50443  21.155  19.705  11.018
89023W        W50444  12.730  15.626   3.309
89024W        W50445  39.495   6.777   0.420
89025W        W50446  31.064  31.544  12.574
89026W        W50447   8.704  38.521   1.920
89027W        W50448   5.917  11.815   2.295
89028W        W50449  32.022  26.553  14.298
89029W        W50450  10.266  11.222  11.023
89030W        W50451   1.285  43.481   1.321
89031W        W50452   3.217  38.960  12.852
89032W        W50453   7.723  33.122  13.520
89033W        W50454   3.767  41.967  12.478
89034W        W50455  22.049  41.463   3.652
89035W        W50456  44.283  12.683   0.809
89036W        W50457   5.290   2.441  12.895
89037W        W50458  12.671   8.667   4.768
89038W        W50459  25.016  32.000   2.256
89039W        W50460  25.004   0.823   3.871
89040W        W50461  38.500  35.490   0.329
89041W        W50462  26.181  23.224   1.835
89042W        W50463  27.144  13.317   3.702
89043W        W50464  13.311   1.478   2.728
89044W        W50465  28.958   7.666   0.333
89045W        W50466   4.751  39.389   4.729
89046W        W50467  29.959  16.104  13.378
89047W        W50468  13.779  10.138   2.368
89048W        W50469  25.185  33.611  12.968
89049W        W50470  35.513  16.687   1.843
89050W        W50471  29.522  33.112   2.800
89051W        W50472  38.424  44.409  14.278
89052W        W50473  35.460  43.323  12.096
89053W        W50474  32.137  27.594  12.836
89054W        W50475  21.641  37.970  14.911
89055W        W50476  14.287  23.141   2.234
89056W        W50477  22.997  35.424  14.031
89057W        W50478  22.007  16.278  12.478
89058W        W50479  25.544  15.163   2.714
89059W        W50480  23.208   0.911  13.428
89060W        W50481  23.543  24.710  11.429
89061W        W50482  15.730  17.271  14.804
89062W        W50483  10.649  35.930   1.881
89063W        W50484   6.310  43.851   4.608
89064W        W50485  14.726   5.865  10.609
89065W        W50486  36.891  36.422  14.000
89066W        W50487   9.260   0.840  10.565
89067W        W50488  30.494  38.542  13.931
89068W        W50489  23.089  38.968  10.637
89069W        W50490  24.182  17.106  10.898
89070W        W50491  10.681  38.025  12.913
89071W        W50492  41.975   5.379  12.523
89072W        W50493  13.798  14.738  11.422
89073W        W50494  24.978  36.430  13.456
89074W        W50495   2.401  30.463  10.497
89075W        W50496   6.369  13.818  11.035
89076W        W50497  26.487  32.465   1.778
89077W        W50498  24.153   9.840  14.840
89078W        W50499  31.056   4.230   3.850
89079W        W50500  35.545  14.182   1.404
89080W        W50501  12.243  38.042  14.336
89081W        W50502  43.904  25.483  14.408
89082W        W50503  23.711  39.395  12.420
89083W        W50504  10.724  26.052   3.679
89084W        W50505  36.362  27.978  13.991
89085W        W50506  18.580   1.903   2.676
89086W        W50507  18.649   2.924   1.831
89087W        W50508  21.623  41.862   4.767
89088W        W50509   5.769  36.888  14.863
89089W        W50510  10.877  27.503  12.007
89090W        W50511  28.628  42.932   3.282
89091W        W50512  44.346  43.339   3.726
89092W        W50513  17.304  12.659   3.638
89093W        W50514   1.337  32.993   3.657
89094W        W50515   1.803  10.173   3.299
89095W        W50516  13.181  14.167   2.870
89096W        W50517  13.153  11.733  10.439
89097W        W50518  13.672  44.294   2.704
89098W        W50519   9.293  19.571  10.978
89099W        W50520  14.105  36.542   2.203
89100W        W50521  43.416  10.224  12.407
89101W        W50522  19.634   4.293  11.485
89102W        W50523  24.573  37.344  11.573
89103W        W50524   8.882  38.352  13.907
89104W        W50525  12.638  23.185  11.508
89105W        W50526  23.139   0.362  13.045
89106W        W50527   8.814  37.414  12.045
89107W        W50528  44.868  19.106  10.414
89108W        W50529  43.277  26.050   0.308
89109W        W50530  24.212  31.123   3.149
89110W        W50531  41.928  13.284  10.445
89111W        W50532  19.203  42.818   0.459
89112W        W50533  21.036  20.174   4.739
89113W        W50534  23.231  42.447  11.459
89114W        W50535  26.689  19.060   2.235
89115W        W50536  30.487  13.768  12.899
89116W        W50537  17.778  34.438   0.871
89117W        W50538  24.119  44.322   1.837
89118W        W50539  37.393   3.758  10.141
89119W        W50540  39.462  25.647   2.816
89120W        W50541  11.821  11.837   5.306
89121W        W50542  12.804  11.183   3.345
89122W        W50543  38.347  10.369   2.253
89123W        W50544   3.859  12.777   1.935
89124W        W50545  14.206  21.604   1.825
89125W        W50546  11.737  42.415   2.671
89126W        W50547  42.021  24.024   4.639
89127W        W50548  42.952   7.188  14.911
89128W        W50549  39.866   9.825   4.181
89129W        W50550  44.004  10.745   0.347
89130W        W50551  33.947  19.732  11.016
89131W        W50552  31.493  34.575  11.995
89132W        W50553  16.264  28.524  14.007
89133W        W50554  38.874  34.404   1.703
89134W        W50555   2.426  16.602   4.649
89135W        W50556  26.205   8.285   4.721
89136W        W50557  19.579   4.721   1.243
89137W        W50558  11.672  40.904  12.930
89138W        W50559   9.794  42.346   3.676
89139W        W50560  35.456   5.259   3.649
89140W        W50561  34.546   3.759  13.888
89141W        W50562  40.322   7.187  10.970
89142W        W50563   7.722  37.983   1.859
89143W        W50564  37.535  35.462   2.750
89144W        W50565   3.309  13.246  13.030
89145W        W50566  18.608  42.437  13.933
89146W        W50567  33.433  32.964   1.844
89147W        W50568  42.778  25.568   1.260
89148W        W50569  32.033  27.463  14.812
89149W        W50570  37.512  28.484   4.635
89150W        W50571  18.102  24.209  11.067
89151W        W50572  32.934  42.833   5.207
89152W        W50573   2.333  31.080   2.784
89153W        W50574  16.212  17.246   4.616
89154W        W50575  44.501  35.455   2.667
89155W        W50576   7.384   6.775  13.423
89156W        W50577  20.098  23.080   0.454
89157W        W50578  40.835  16.285  14.496
89158W        W50579  24.540   8.714  11.448
89159W        W50580   3.437   5.834   1.800
89160W        W50581  44.795  31.942   2.366
89161W        W50582  37.834  21.080   2.410
89162W        W50583  12.139  31.538  13.340
89163W        W50584  10.329  39.377   3.254
89164W        W50585  12.149   4.713  14.882
89165W        W50586  28.959   6.302   1.757
89166W        W50587  36.546  18.700  13.792
89167W        W50588  12.856  20.610  12.896
89168W        W50589  22.510  24.636  11.072
89169W        W50590  37.036  17.249  11.944
89170W        W50591  44.388  10.204   0.393
89171W        W50592  42.480  14.263  12.941
89172W        W50593  28.562  41.022  12.562
89173W        W50594  44.461  13.778  12.077
89174W        W50595   9.841   2.892  13.914
89175W        W50596   6.305  27.620   4.318
89176W        W50597  41.850  24.697  14.501
89177W        W50598   3.711  44.281  10.588
89178W        W50599  17.089   7.210   4.696
89179W        W50600  23.520  40.402   1.400
89180W        W50601  38.913   4.418   0.247
89181W        W50602  12.229   1.314   4.222
89182W        W50603  29.078  42.026   3.643
89183W        W50604   7.801  11.193  13.880
89184W        W50605  33.021  41.795   1.450
89185W        W50606   1.294   3.948  10.406
89186W        W50607   7.388  19.175  12.975
89187W        W50608  30.987  33.077  12.425
89188W        W50609  40.994  34.497   1.282
89189W        W50610  37.394  41.354  12.389
89190W        W50611  16.795  19.553  13.924
89191W        W50612   0.339  39.817   1.320
89192W        W50613  23.151  29.044  14.344
89193W        W50614  39.047   6.243  14.958
89194W        W50615  34.080   8.396   0.911
89195W        W50616  43.279  14.828  10.096
89196W        W50617  17.089  41.479  12.420
89197W        W50618  41.504  15.621   4.195
89198W        W50619  12.158  12.360   1.264
89199W        W50620   9.717   7.677   3.385
89200W        W50621  16.242   9.279   1.811
89201W        W50622  43.831  13.285  12.005
89202W        W50623  25.127  15.210  14.305
89203W        W50624  17.726  43.922   1.699
89204W        W50625   3.379  23.542   0.293
89205W        W50626  20.725  42.510  12.568
89206W        W50627  26.985   7.414  12.025
89207W        W50628  15.133  38.945  12.973
89208W        W50629   5.361   9.836   0.306
89209W        W50630  14.149   1.752  13.330
89210W        W50631  17.131   1.946   3.267
89211W        W50632   6.901   9.290  13.940
89212W        W50633  35.027  42.823  14.992
89213W        W50634  33.519  44.332   1.316
89214W        W50635  26.989  34.416  10.505
89215W        W50636   8.711  26.482   4.173
89216W        W50637  13.259  35.103   2.324
89217W        W50638  30.078   2.383   3.336
89218W        W50639   7.704  26.461   5.183
89219W        W50640  19.252  32.499   3.669
89220W        W50641  31.422  21.115  14.791
89221W        W50642  31.642  15.135  12.964
89222W        W50643  31.497  20.155  12.349
89223W        W50644  24.993  10.874  11.609
89224W        W50645  43.422   4.221  11.550
89225W        W50646  21.245  25.690   4.807
89226W        W50647   3.231   6.384   4.159
89227W        W50648  36.056  12.761  13.326
89228W        W50649   3.284   9.194   5.219
89229W        W50650  20.761  20.670  13.843
89230W        W50651  37.392   3.758  10.593
89231W        W50652  34.059  25.638   2.807
89232W        W50653  42.440   2.809   0.373
89233W        W50654   2.331  24.531  12.571
89234W        W50655  11.816  32.551  13.964
89235W        W50656   3.292  28.012  14.500
89236W        W50657  19.656  42.526  11.949
89237W        W50658  43.433  15.168  12.535
89238W        W50659  17.748  41.881   2.891
89239W        W50660  15.329   6.884  13.060
89240W        W50661  43.850  14.687  13.545
89241W        W50662  36.035  29.158  12.991
89242W        W50663  15.325  35.032  10.910
89243W        W50664  32.434  18.620  11.529
89244W        W50665  13.298  29.989  10.575
89245W        W50666   5.410  36.971  13.367
89246W        W50667  20.734  27.169  12.545
89247W        W50668  30.104  22.525   0.313
89248W        W50669  36.516  33.925   1.368
89249W        W50670  35.043   6.750  14.015
89250W        W50671  43.918  37.434  13.966
89251W        W50672  11.263  31.616   3.216
89252W        W50673  40.959  15.634  14.475
89253W        W50674  22.077  35.870   4.258
89254W        W50675  40.054  26.655   4.684
89255W        W50676  18.726   9.232   4.654
89256W        W50677  18.122  43.838  12.996
89257W        W50678  44.502  21.638  12.989
89258W        W50679  32.405  17.126  11.075
89259W        W50680  34.592  19.055   2.398
89260W        W50681  42.027  38.960   5.262
89261W        W50682  32.009  44.431   0.928
89262W        W50683  11.662  34.958  13.808
89263W        W50684   1.454   9.811  13.055
89264W        W50685   3.876  19.278  11.409
89265W        W50686  28.117   8.398  13.829
89266W        W50687  40.347   6.868   2.309
89267W        W50688  31.086  14.307  10.455
89268W        W50689  31.514  23.667   0.831
89269W        W50690  36.458  11.149  14.897
89270W        W50691   3.426  28.624   4.156
89271W        W50692  32.899   9.176  12.408
89272W        W50693  44.369  44.295  13.984
89273W        W50694  38.528  23.218   4.837
89274W        W50695  31.498  26.631   1.368
89275W        W50696  26.569  28.550  11.006
89276W        W50697  44.402   2.962  11.480
89277W        W50698   4.368  21.136   4.212
89278W        W50699  20.155  24.708  10.996
89279W        W50700  22.164  24.039  13.865
89280W        W50701  43.306  24.160   2.789
89281W        W50702  27.549   8.247  11.102
89282W        W50703  24.531  23.180   1.725
89283W        W50704  13.134  41.030   3.282
89284W        W50705  22.252   0.449  12.893
89285W        W50706  12.692  44.321  11.969
89286W        W50707  12.799  26.470   3.659
89287W        W50708  43.465  34.545  10.914
89288W        W50709  40.840  44.287  11.098
89289W        W50710  12.291  15.250   1.353
89290W        W50711  34.520  13.339   0.393
89291W        W50712  23.609  30.478   4.751
89292W        W50713   7.865  36.492   3.301
89293W        W50714  25.705  20.653  11.553
89294W        W50715   7.721  35.974  11.925
89295W        W50716  21.127  19.765  12.905
89296W        W50717  21.106   2.962  13.362
89297W        W50718  12.679  23.987  14.404
89298W        W50719  30.034  18.727  11.537
89299W        W50720  31.992   9.257  11.945
89300W        W50721   2.320  21.148  11.939
89301W        W50722  40.965  25.136  14.295
89302W        W50723  16.782  16.725   2.731
89303W        W50724   8.285  38.849   4.767
89304W        W50725  41.882  10.860   3.667
89305W        W50726   0.949  17.730  13.996
89306W        W50727   2.779   2.897   1.724
89307W        W50728  29.611  30.968   3.362
89308W        W50729  15.618  14.142   4.611
89309W        W50730   7.812  41.468   4.262
89310W        W50731  17.071  23.084  11.049
89311W        W50732  40.359  23.574  10.080
89312W        W50733  29.986   5.759   0.892
89313W        W50734  27.475  34.560   3.845
89314W        W50735  37.468   4.252   1.442
89315W        W50736  17.289  40.403   0.403
89316W        W50737  22.555  18.069   3.745
89317W        W50738   9.731  15.657  12.892
89318W        W50739   6.272  39.473  12.841
89319W        W50740  42.456  34.565   3.332
89320W        W50741  13.254   5.271  13.353
89321W        W50742   3.942  14.137  13.035
89322W        W50743  10.197  31.623   1.759
89323W        W50744   6.718  40.354  13.966
89324W        W50745  10.788  38.490  13.901
89325W        W50746  44.975  15.718   1.810
89326W        W50747   6.843  17.203  10.625
89327W        W50748  44.358  26.020  12.401
89328W        W50749   4.232  36.987   2.208
89329W        W50750  43.338  37.964  12.081
89330W        W50751   0.445  21.114   0.888
89331W        W50752   4.837  12.786  13.530
89332W        W50753  10.799  33.098  14.990
89333W        W50754  41.345  16.714   0.967
89334W        W50755  35.902  13.215  10.492
89335W        W50756  22.209  28.527   2.773
89336W        W50757  18.546  22.663   1.845
89337W        W50758  37.921  38.004  10.450
89338W        W50759  35.563   0.303  10.966
89339W        W50760  14.110  33.929   2.312
89340W        W50761  21.596   2.321  13.047
89341W        W50762  14.119  22.608   4.673
89342W        W50763  39.830  25.110   1.867
89343W        W50764  44.309  33.565   2.347
89344W        W50765  18.645   8.889   1.801
89345W        W50766  19.550   7.198  10.949
89346W        W50767  41.392  37.480  12.991
89347W        W50768  28.522   5.706  13.020
89348W        W50769  17.087  25.211  12.556
89349W        W50770  43.364  10.304   0.946
89350W        W50771  20.679   1.237  13.909
89351W        W50772  13.205   0.290  11.058
89352W        W50773  24.045  29.562  13.058
89353W        W50774  42.842   8.721  10.966
89354W        W50775  23.658   3.435  11.561
89355W        W50776  25.973  43.865   3.346
89356W        W50777  27.520   5.695   2.710
89357W        W50778  18.549  31.617  11.548
89358W        W50779   5.389   1.398  13.379
89359W        W50780  13.675   6.745   0.865
89360W        W50781   3.797   5.745  10.136
89361W        W50782  25.605  42.368   3.771
89362W        W50783  22.520   7.351  13.974
89363W        W50784   3.799   4.739   5.177
89364W        W50785   9.389  30.124   1.235
89365W        W50786  13.335  35.087   3.298
89366W        W50787  11.347   5.781  12.398
89367W        W50788  16.580  17.097  10.062
89368W        W50789  34.465  21.227   2.726
89369W        W50790  40.530  15.090   4.770
89370W        W50791  42.475  29.126  12.381
89371W        W50792  42.927   5.908  14.497
89372W        W50793   7.710   1.956   4.659
89373W        W50794  26.600  11.267   3.349
89374W        W50795  25.971  38.439   2.410
89375W        W50796  35.941  29.080  11.489
89376W        W50797   8.221  17.160  13.835
89377W        W50798   6.266  42.435   3.758
89378W        W50799  30.605  32.031  12.533
89379W        W50800  10.186  30.999  13.372
89380W        W50801  44.491  19.221  14.950
89381W        W50802  33.989  10.676  10.410
89382W        W50803  30.617  16.073   2.327
89383W        W50804   2.866  32.009   2.828
89384W        W50805   3.890   4.320  12.547
89385W        W50806   4.431  26.601  13.939
89386W        W50807  42.905   1.911  14.967
89387W        W50808   5.798   0.444   2.810
89388W        W50809  17.199  32.620   1.834
89389W        W50810  11.700  41.827   3.290
89390W        W50811   1.473  39.514   3.179
89391W        W50812   5.928   8.795  13.847
89392W        W50813  32.118  38.853  13.348
89393W        W50814   8.867   4.729  12.509
89394W        W50815  19.042  39.033  13.341
89395W        W50816  26.095  13.745  14.339
89396W        W50817  13.295  19.213   2.860
89397W        W50818   6.920  22.734  12.376
89398W        W50819   1.967   1.797   4.127
89399W        W50820  14.744  28.645  14.793
89400W        W50821   1.793  42.426  11.447
89401W        W50822  25.583  17.268  12.966
89402W        W50823  35.893  28.670   3.651
89403W        W50824  28.932  23.492   3.863
89404W        W50825  30.124  17.736  12.385
89405W        W50826  10.258  30.575   3.284
89406W        W50827  28.133  25.088  12.053
89407W        W50828  27.568  21.033  13.333
89408W        W50829  22.196  23.100   0.860
89409W        W50830  33.617  23.000  13.896
89410W        W50831  13.230  10.360   1.424
89411W        W50832  14.270  23.531  12.363
89412W        W50833  36.988  20.268  13.865
89413W        W50834  12.818  20.582   3.804
89414W        W50835  36.929  35.987   1.743
89415W        W50836  30.010  22.646  11.551
89416W        W50837  42.329   1.249  10.627
89417W        W50838  32.525  34.540   2.756
89418W        W50839  19.542  12.762  11.450
89419W        W50840   6.233  20.643   0.864
89420W        W50841  41.359   7.744   0.326
89421W        W50842  10.731   1.243   1.903
89422W        W50843  26.648   1.347  12.344
89423W        W50844  30.973  31.585   0.426
89424W        W50845  12.642  34.111   3.641
89425W        W50846  19.586  30.055   1.430
89426W        W50847  16.286  34.100   1.791
89427W        W50848  40.855  32.551  14.762
89428W        W50849  29.527  31.119   1.263
89429W        W50850   8.196  42.313   1.305
89430W        W50851  17.589  27.541   2.267
89431W        W50852  36.408   5.310   1.317
89432W        W50853   4.328  36.871  13.433
89433W        W50854  34.521  37.384   0.428
89434W        W50855  33.464  11.802  13.032
89435W        W50856  23.734  42.917  10.619
89436W        W50857   7.876  39.456  12.869
89437W        W50858   8.772  34.399  14.294
89438W        W50859  32.115  25.137  14.886
89439W        W50860   7.321  40.981   0.934
89440W        W50861   5.338   0.873  13.844
89441W        W50862  14.285  19.561  11.408
89442W        W50863  23.625  12.614  14.332
89443W        W50864  41.840  10.212  12.832
89444W        W50865  16.309   3.399  12.990
89445W        W50866   7.198  26.531  12.072
89446W        W50867  26.005   1.953   2.359
89447W        W50868  27.680  33.123   2.234
89448W        W50869  27.547   6.685  12.467
89449W        W50870  22.097  21.546   1.294
89450W        W50871  38.919  21.138   2.873
89451W        W50872  35.399  30.122   3.717
89452W        W50873   2.814  13.169   1.277
89453W        W50874   1.262  38.953   3.256
89454W        W50875  11.707  11.222   0.870
89455W        W50876  14.108  32.107  14.298
89456W        W50877  22.235   2.450  10.432
89457W        W50878   1.842  25.605   9.526
89458W        W50879   5.387  21.534   2.353
89459W        W50880  31.064   7.849  12.946
89460W        W50881  17.139  36.566   9.990
89461W        W50882  12.625  43.784  14.433
89462W        W50883   1.369  44.855   1.296
89463W        W50884   3.743  43.444  14.780
89464W        W50885  27.142  15.242   3.241
89465W        W50886  11.160  18.570   0.406
89466W        W50887  12.776  31.553   1.752
89467W        W50888  43.446   2.882   1.435
89468W        W50889   4.822  29.933   9.588
89469W        W50890  39.458  43.327  11.429
89470W        W50891  39.027  22.735   4.746
89471W        W50892  34.117  28.661   0.877
89472W        W50893  35.096   3.922  11.461
89473W        W50894  13.179  28.667   0.405
89474W        W50895  22.167  18.752  11.893
89475W        W50896  11.207  12.729   3.211
89476W        W50897  15.184  19.189   2.873
89477W        W50898  12.235  24.229   4.187
89478W        W50899  24.568   3.439  10.154
89479W        W50900  39.461   7.290   2.211
89480W        W50901  16.800  16.636   1.409
89481W        W50902   4.339  26.991   9.515
89482W        W50903  30.650  21.100   0.358
89483W        W50904  21.081   6.704   1.783
89484W        W50905  12.835  20.080   4.642
89485W        W50906  17.636  11.127   2.887
89486W        W50907  29.527  19.583   2.723
89487W        W50908   7.360  39.355   1.908
89488W        W50909  38.955  14.695  11.444
89489W        W50910  21.238   8.826  10.639
89490W        W50911  29.471  29.550   4.161
89491W        W50912  43.827  24.608   3.727
89492W        W50913  26.173  37.080   1.257
89493W        W50914  20.614  25.183  14.346
89494W        W50915  30.414  26.549   4.255
89495W        W50916   2.402  14.282  14.858
89496W        W50917   3.753  35.028  10.929
89497W        W50918  19.083  30.607  10.534
89498W        W50919   2.291   8.872  12.376
89499W        W50920  28.662  12.346  14.423
89500W        W50921  34.995  10.642  13.463
89501W        W50922  42.794  16.151   4.661
89502W        W50923  12.206   4.729  10.438
89503W        W50924   7.907  13.819  13.814
89504W        W50925  21.560  11.753  11.019
89505W        W50926   1.280   1.321   3.679
89506W        W50927  27.610  40.495  10.468
89507W        W50928  11.243  26.128  10.614
89508W        W50929  43.016   9.752  13.372
89509W        W50930   1.261  33.948  11.877
89510W        W50931  38.372   1.270  11.078
89511W        W50932  37.354  28.588   2.189
89512W        W50933   3.278   7.907   1.260
89513W        W50934  35.534  39.977   0.268
89514W        W50935  31.524  34.560   0.333
89515W        W50936  37.935   5.401   3.243
89516W        W50937  37.553  18.706  13.027
89517W        W50938  35.964  20.054  14.955
89518W        W50939  41.909  24.119   2.781
89519W        W50940  36.354  41.314   4.289
89520W        W50941   9.342  39.055  11.390
89521W        W50942   5.729   1.764   2.361
89522W        W50943  40.979  11.233   4.628
89523W        W50944  14.737  41.831  13.503
89524W        W50945  15.604  27.081   2.406
89525W        W50946  17.653   4.889   3.198
89526W        W50947   4.886  42.419  12.353
89527W        W50948   5.704  32.913   2.894
89528W        W50949  38.429  16.585   5.182
89529W        W50950  23.195   8.204  14.515
89530W        W50951   4.839  40.447   1.826
89531W        W50952  12.792  28.998   3.197
89532W        W50953  27.950  21.652  14.024
89533W        W50954  20.594  32.468  14.939
89534W        W50955  28.113  44.471   3.223
89535W        W50956  42.501  12.749  13.022
89536W        W50957  37.521  25.159  11.099
89537W        W50958  42.859  15.215  13.836
89538W        W50959  29.580  11.654   4.122
89539W        W50960   6.702  37.050   3.167
89540W        W50961  27.493  41.921   3.375
89541W        W50962  17.621  25.467   0.467
89542W        W50963  19.560  38.898  12.501
89543W        W50964  29.593  13.143  13.503
89544W        W50965  12.660  36.889   2.866
89545W        W50966   7.334   2.449  14.926
89546W        W50967   6.417  10.301   4.291
89547W        W50968  11.760  14.218  11.087
89548W        W50969  38.983  23.190  12.928
89549W        W50970   3.289  40.849   1.731
89550W        W50971  16.673  21.137  12.028
89551W        W50972  24.621  19.705  13.333
89552W        W50973  37.349  36.853   3.694
89553W        W50974  21.126  26.515   1.784
89554W        W50975  36.465  42.798   0.812
89555W        W50976  43.367  42.848   4.671
89556W        W50977   4.921  33.434   4.150
89557W        W50978  37.859  37.538   4.324
89558W        W50979  34.111   9.216   2.883
89559W        W50980  40.527  15.750  12.987
89560W        W50981  22.015  44.465   4.310
89561W        W50982  42.370  18.731  10.437
89562W        W50983  19.542  25.621   5.125
89563W        W50984   6.805  39.998   3.356
89564W        W50985  33.921  17.799  10.532
89565W        W50986  11.714  31.125   4.648
89566W        W50987  18.564   6.247  14.374
89567W        W50988  18.647  33.486  12.070
89568W        W50989   9.270   9.757  14.495
89569W        W50990  41.849   9.717   2.179
89570W        W50991  27.571  22.138  11.035
89571W        W50992   0.959  40.922   2.712
89572W        W50993  22.677  23.706  12.575
89573W        W50994  38.424  43.512   0.336
89574W        W50995  33.012  22.666   0.832
89575W        W50996  15.326  43.986   4.171
89576W        W50997   0.986  20.564   4.792
89577W        W50998  42.373  21.228  14.405
89578W        W50999  37.350  27.638  13.941
89579W        W51000  20.270  13.811  12.853
89580W        W51001  33.571  33.110  12.058
89581W        W51002  19.708   7.711  12.422
89582W        W51003  21.170  24.988   1.923
89583W        W51004  21.260  24.724   2.786
89584W        W51005  13.106  13.737  10.430
89585W        W51006  38.475  19.162   2.669
89586W        W51007  43.394   9.259   4.825
89587W        W51008  27.549   8.669   0.331
89588W        W51009  38.963  26.038   0.354
89589W        W51010  25.196  24.587  14.946
89590W        W51011   9.206  31.525   4.340
89591W        W51012  11.668  36.435  13.364
89592W        W51013  15.795  43.366  13.817
89593W        W51014  15.211  24.544   2.737
89594W        W51015  41.376  43.501  11.503
89595W        W51016   4.840   2.731   9.640
89596W        W51017  33.482  41.862   2.708
89597W        W51018  29.977   0.980  10.506
89598W        W51019  26.594  42.936   0.815
89599W        W51020  42.429   1.247  13.826
89600W        W51021  22.226   0.402  14.370
89601W        W51022  41.936  11.867   3.674
89602W        W51023  36.492  24.654   2.338
89603W        W51024   5.772  11.643   3.846
89604W        W51025   1.453  40.826   1.357
89605W        W51026  29.485  17.279  12.535
89606W        W51027  34.459   6.710  13.369
89607W        W51028   0.341  30.519  10.575
89608W        W51029  20.177  43.905  14.758
89609W        W51030  22.186  29.008   2.293
89610W        W51031  43.412  38.918   1.282
89611W        W51032  14.719  36.489  13.045
89612W        W51033   5.910  35.384  11.411
89613W        W51034  18.264  14.247   2.374
89614W        W51035   1.448  24.175   2.898
89615W        W51036   9.390  21.120   3.764
89616W        W51037  25.570  28.569  11.117
89617W        W51038  19.675  41.293   1.406
89618W        W51039  16.200  32.966  11.038
89619W        W51040  29.635  20.202   3.707
89620W        W51041   1.841  11.229   1.396
89621W        W51042  31.927  23.686   2.718
89622W        W51043   6.218  20.719  12.380
89623W        W51044  38.418   0.288   3.716
89624W        W51045  43.360  30.422  11.449
89625W        W51046  26.597   1.257  10.948
89626W        W51047  28.548  17.163   4.720
89627W        W51048  20.121   2.444   3.184
89628W        W51049  25.174  25.472   2.878
89629W        W51050  15.185  26.207  11.611
89630W        W51051  33.413  18.618  14.791
89631W        W51052  24.075  18.650  13.796
89632W        W51053  36.891  41.027   0.902
89633W        W51054  42.465  11.339   1.898
89634W        W51055  11.834  16.214   1.258
89635W        W51056  22.714  15.653   3.739
89636W        W51057  39.371  26.569   4.250
89637W        W51058  34.950   9.788   0.452
89638W        W51059  26.696  25.011   1.311
89639W        W51060   8.248  42.026  13.958
89640W        W51061   8.765   2.299   0.749
89641W        W51062  22.063   1.762   2.190
89642W        W51063  40.487  16.639  11.885
89643W        W51064  15.290  15.094  13.356
89644W        W51065  38.484  25.693  12.849
89645W        W51066  43.404  40.028   1.312
89646W        W51067   5.756  21.134   4.240
89647W        W51068  33.566   7.776   3.710
89648W        W51069  44.346  35.407   4.192
89649W        W51070   2.863  18.734  13.888
89650W        W51071  26.206  10.296  11.440
89651W        W51072  11.348  40.314  11.012
89652W        W51073  38.437  23.057   2.383
89653W        W51074   2.724  32.927  14.786
89654W        W51075  15.186  35.536  10.893
89655W        W51076  27.114  33.065   0.729
89656W        W51077  39.444  23.717  15.000
89657W        W51078  31.414  33.113   4.157
89658W        W51079  36.368  21.547   2.368
89659W        W51080  30.502  15.592  12.346
89660W        W51081  26.166  22.540   4.774
89661W        W51082  17.102  25.519   2.853
89662W        W51083  36.435  27.667   0.787
89663W        W51084  28.535   3.317   4.708
89664W        W51085  32.572  37.490  10.958
89665W        W51086  31.535   1.788   1.925
89666W        W51087   9.772   5.220   4.724
89667W        W51088  13.130   5.893  12.407
89668W        W51089  17.795  39.359   2.302
89669W        W51090  12.243  37.003   0.258
89670W        W51091  16.663   7.800  11.487
89671W        W51092  25.112  30.967  12.855
89672W        W51093  24.040  11.752   4.623
89673W        W51094  28.494   6.255   0.358
89674W        W51095  31.566  16.723   5.263
89675W        W51096  14.122   4.866   2.868
89676W        W51097  41.889  44.335   9.934
89677W        W51098  33.407  15.804   4.232
89678W        W51099   9.651  40.518  13.405
89679W        W51100  44.784  25.011   1.910
89680W        W51101   6.835  32.605  10.987
89681W        W51102  37.075  24.723   4.774
89682W        W51103   3.760  18.618  12.057
89683W        W51104  32.935   3.330   1.774
89684W        W51105   4.204   6.266  10.576
89685W        W51106  37.413  43.370  13.846
89686W        W51107  39.401  14.304  12.074
89687W        W51108  18.714  18.702  14.968
89688W        W51109   9.376  30.916   1.814
89689W        W51110  39.530  33.582  14.413
89690W        W51111  11.700   9.366   0.860
89691W        W51112  36.456  22.598  12.835
89692W        W51113  38.381   9.241   2.786
89693W        W51114  17.716  13.741   1.304
89694W        W51115   1.863  34.492   4.654
89695W        W51116  37.036  20.222   4.678
89696W        W51117  12.747  16.777   3.801
89697W        W51118   8.351  22.128  13.964
89698W        W51119  32.474  28.174   2.299
89699W        W51120  26.099   3.335   4.315
89700W        W51121  41.492  30.503   4.682
89701W        W51122  20.588   8.182   1.295
89702W        W51123  15.320  19.554   0.929
89703W        W51124  43.013   8.169  13.807
89704W        W51125  30.983  14.822   0.797
89705W        W51126  18.756  30.958  14.422
89706W        W51127  30.581   7.204   4.828
89707W        W51128  43.328  21.056  14.838
89708W        W51129  34.468   0.478  13.911
89709W        W51130  43.447  29.463   2.787
89710W        W51131  10.706  11.221  14.851
89711W        W51132  24.162  17.589   3.654
89712W        W51133  35.584  18.152  14.475
89713W        W51134  27.121  16.578  11.517
89714W        W51135  26.131   2.912  11.542
89715W        W51136   7.415  34.582  12.475
89716W        W51137  24.091  44.919  13.843
89717W        W51138  32.632  11.656  12.456
89718W        W51139  20.260  17.563  11.895
89719W        W51140  12.778  39.436  11.965
89720W        W51141   9.327  10.848   0.927
89721W        W51142  24.550   1.381   4.241
89722W        W51143  39.406  33.496   3.285
89723W        W51144  32.009  23.198  14.345
89724W        W51145  17.245   6.323   3.233
89725W        W51146  37.082   9.806  13.468
89726W        W51147  38.536   3.284   0.275
89727W        W51148  30.926  39.001  11.405
89728W        W51149  26.118  21.179  14.930
89729W        W51150   1.788  24.113   4.743
89730W        W51151   1.419  44.282  12.409
89731W        W51152  21.117  21.670  10.601
89732W        W51153   6.371  35.433  14.987
89733W        W51154  28.091  33.568  11.399
89734W        W51155   0.300  10.659   3.334
89735W        W51156  32.603   7.741   0.937
89736W        W51157  43.803  21.674   0.407
89737W        W51158  34.091  18.261   4.269
89738W        W51159   7.797  36.975   3.175
89739W        W51160   4.231  14.273   2.352
89740W        W51161  44.826   2.962   3.698
89741W        W51162  38.551  25.046   3.856
89742W        W51163  38.384  33.045   3.196
89743W        W51164  20.665  14.132  13.348
89744W        W51165   3.928  14.705  12.399
89745W        W51166   3.814  22.615  14.454
89746W        W51167  16.709  42.986  11.540
89747W        W51168   9.830  42.992  12.018
89748W        W51169  21.235   7.811  11.568
89749W        W51170  12.753   6.695  13.526
89750W        W51171  41.348  31.445  12.048
89751W        W51172  14.683  37.531  13.311
89752W        W51173  44.389  26.530   3.699
89753W        W51174  15.821  32.954  10.939
89754W        W51175   0.372  30.608   5.272
89755W        W51176   6.729  36.380  11.039
89756W        W51177  10.304  36.099  13.894
89757W        W51178  32.891  37.341   1.302
89758W        W51179  43.408  39.815  12.836
89759W        W51180  26.137  28.512  14.340
89760W        W51181  44.838  27.610   1.875
89761W        W51182  22.233  18.103   1.895
89762W        W51183  36.024  22.231  14.892
89763W        W51184  38.919  17.198  13.982
89764W        W51185  16.306  36.527   0.732
89765W        W51186   0.974  17.089   4.741
89766W        W51187   7.286   7.198   3.800
89767W        W51188  31.033  20.733   0.919
89768W        W51189  12.621  16.139  10.639
89769W        W51190  41.475  18.056   1.305
89770W        W51191   3.415  10.220  13.385
89771W        W51192  43.335   9.230   3.826
89772W        W51193   8.729  18.143  12.875
89773W        W51194  16.738  30.563   9.962
89774W        W51195  22.716  21.227   1.288
89775W        W51196  11.752  30.525  10.622
89776W        W51197   3.813  10.208   2.750
89777W        W51198  17.607  43.293  14.392
89778W        W51199  42.004  13.268   3.696
89779W        W51200  30.045   5.294  14.892
89780W        W51201  43.954  31.594   0.440
89781W        W51202  20.752  12.672   3.742
89782W        W51203  37.560  37.912  12.973
89783W        W51204  29.131   8.277   4.175
89784W        W51205  37.375  36.430   0.847
89785W        W51206  16.219  31.631   1.904
89786W        W51207  32.432  10.768  11.523
89787W        W51208  37.545  28.169   2.680
89788W        W51209  41.378  19.068   3.715
89789W        W51210   4.318   3.843   3.658
89790W        W51211  38.422  30.931  13.416
89791W        W51212  26.075  38.390   4.802
89792W        W51213  43.443  36.911   2.728
89793W        W51214   8.721  11.808   0.773
89794W        W51215   8.222  20.163   0.376
89795W        W51216  24.981  10.663  14.397
89796W        W51217  13.746  19.756  13.315
89797W        W51218   8.854   6.896   0.384
89798W        W51219  32.636  30.918   1.795
89799W        W51220  41.328   6.291  11.954
89800W        W51221  43.480   6.703   1.899
89801W        W51222   9.271   2.321   0.328
89802W        W51223  10.760  34.932  10.565
89803W        W51224  14.298  33.596   4.186
89804W        W51225  36.842  30.634  12.345
89805W        W51226  28.453  39.003   4.739
89806W        W51227   0.910  43.886   0.425
89807W        W51228  12.179  37.377  12.041
89808W        W51229  22.251   5.858  14.898
89809W        W51230  15.686  19.182  13.870
89810W        W51231   8.871  43.870   1.927
89811W        W51232  43.464  26.624   3.751
89812W        W51233  13.136   2.814  10.896
89813W        W51234   8.388   5.228   1.824
89814W        W51235  21.672  12.222   0.797
89815W        W51236  22.092  24.582   4.806
89816W        W51237   3.242  23.007   3.289
89817W        W51238  30.923  31.588   4.817
89818W        W51239  30.642  10.141  13.910
89819W        W51240   1.871   3.328   9.944
89820W        W51241  21.049  14.594  13.331
89821W        W51242  34.560  35.000  13.893
89822W        W51243  10.195  18.678  11.935
89823W        W51244   7.888   5.842  11.554
89824W        W51245  36.416   5.858  11.026
89825W        W51246  11.857  31.065   0.369
89826W        W51247  29.133   1.973   2.244
89827W        W51248   1.325  43.338   3.209
89828W        W51249  20.235  41.353  12.093
89829W        W51250  36.841   8.860  13.337
89830W        W51251  31.486  36.076   4.143
89831W        W51252  33.589  30.491   2.663
89832W        W51253   6.346  34.369   1.442
89833W        W51254  39.882  30.038   4.340
89834W        W51255  19.077  19.145  11.600
89835W        W51256  21.226  10.382   0.772
89836W        W51257   7.698  34.017   4.754
89837W        W51258  15.137  30.478  11.443
89838W        W51259  35.025   5.329   1.889
89839W        W51260  41.992  23.997  12.426
89840W        W51261   6.704   3.877  11.957
89841W        W51262  33.429  33.467   0.767
89842W        W51263   1.363  25.028   4.680
89843W        W51264  42.459   5.757   1.319
89844W        W51265  25.973  26.532  11.416
89845W        W51266  39.835  36.889  11.378
89846W        W51267  25.565  37.844   1.272
89847W        W51268   7.294   4.210  13.332
89848W        W51269  26.651   9.378  14.395
89849W        W51270  22.065  27.077  12.903
89850W        W51271  27.649  37.927  12.952
89851W        W51272   6.729  34.406   1.332
89852W        W51273  15.577  16.756   3.379
89853W        W51274  15.594   4.829   3.657
89854W        W51275   3.738  42.440  14.284
89855W        W51276   8.253  17.556  12.373
89856W        W51277  37.522   2.866  11.490
89857W        W51278  42.965  12.716  14.921
89858W        W51279   8.807  11.224  10.144
89859W        W51280  28.081   7.207   1.760
89860W        W51281   0.917   2.917  12.521
89861W        W51282  26.098  41.867  14.346
89862W        W51283  20.182  35.420   0.937
89863W        W51284  38.456  15.306   3.305
89864W        W51285  43.850   7.729   4.812
89865W        W51286  36.353   4.944  10.492
89866W        W51287  29.459  38.436  14.789
89867W        W51288  15.797  20.185  11.880
89868W        W51289  16.703  17.778   4.809
89869W        W51290  19.177  44.969   3.831
89870W        W51291  25.504   8.284  14.807
89871W        W51292  37.426   8.778  13.386
89872W        W51293   7.710  32.603   1.365
89873W        W51294  17.157  36.900   4.181
89874W        W51295  32.561  25.047   2.327
89875W        W51296  35.013  41.967   0.421
89876W        W51297  22.593   4.273  13.458
89877W        W51298  13.299   8.660  10.520
89878W        W51299   1.436  27.461   2.704
89879W        W51300  18.625   4.369   2.357
89880W        W51301  43.932  32.030  11.984
89881W        W51302  21.186  18.748   4.158
89882W        W51303   3.737  29.117  14.357
89883W        W51304   8.791   7.889   2.850
89884W        W51305  11.283  23.064  11.891
89885W        W51306  43.007  29.636  14.466
89886W        W51307   2.962  38.518  11.018
89887W        W51308  12.147   5.880   4.151
89888W        W51309  29.040  20.124   0.422
89889W        W51310  26.503  25.546   0.413
89890W        W51311  35.938   0.943   0.285
89891W        W51312   7.809  10.878   0.418
89892W        W51313  13.748  12.199  12.409
89893W        W51314  24.513  36.531   3.788
89894W        W51315  40.913   6.333  10.514
89895W        W51316  34.921  29.017  11.434
89896W        W51317  41.455  21.693   2.390
89897W        W51318  27.048  35.495   3.804
89898W        W51319  11.310  13.147   2.812
89899W        W51320  12.131  43.308   4.129
89900W        W51321   9.846  37.942  13.468
89901W        W51322  39.998  11.622  14.779
89902W        W51323  28.676  42.316   2.842
89903W        W51324  42.442  44.471  11.002
89904W        W51325  41.827  43.808   4.652
89905W        W51326  44.404  32.023  13.503
89906W        W51327  21.650  43.970   1.434
89907W        W51328  36.966  29.515  12.360
89908W        W51329  25.984  38.429  11.105
89909W        W51330  31.625  29.161   2.758
89910W        W51331  21.588  26.663  13.880
89911W        W51332  36.023  10.293  14.323
89912W        W51333  39.377  43.480   0.387
89913W        W51334  32.425  15.106   3.735
89914W        W51335   2.264  20.116  10.609
89915W        W51336  29.468  23.990  14.914
89916W        W51337  14.782  26.670   4.220
89917W        W51338  11.281  38.378   2.880
89918W        W51339  29.464  12.680   3.775
89919W        W51340  13.325  11.777  11.456
89920W        W51341  37.352  43.282   2.390
89921W        W51342  40.799  10.768   2.665
89922W        W51343  24.555  12.790   1.769
89923W        W51344  43.274   7.862   1.281
89924W        W51345  23.565  23.204  12.003
89925W        W51346  15.207  15.737  12.420
89926W        W51347   7.743   2.925   0.952
89927W        W51348  36.078  19.672  10.447
89928W        W51349  40.903  18.271   1.909
89929W        W51350  29.478  32.506   4.238
89930W        W51351   9.669  15.093  12.057
89931W        W51352  14.796  10.302   1.236
89932W        W51353  24.219   7.775  11.499
89933W        W51354  44.326  36.957   3.641
89934W        W51355  29.610  10.170   0.410
89935W        W51356  39.045   4.445   1.226
89936W        W51357  43.378   7.246  12.887
89937W        W51358   7.324  21.039   0.849
89938W        W51359  32.047  44.452   2.724
89939W        W51360  32.466   6.677  13.893
89940W        W51361  12.334   6.287   1.376
89941W        W51362   5.360  29.508   1.395
89942W        W51363  14.691   4.707  10.907
89943W        W51364   6.350  37.357   2.246
89944W        W51365  38.053  39.385  12.931
89945W        W51366  16.574  22.747   3.277
89946W        W51367  23.577   9.706  11.938
89947W        W51368  42.977   3.732  11.473
89948W        W51369  44.445  39.427  12.959
89949W        W51370  20.076  42.311  11.578
89950W        W51371  17.094  30.929   0.916
89951W        W51372  44.326  44.789  14.762
89952W        W51373   4.227   0.911  11.541
89953W        W51374  40.045  26.978  11.104
89954W        W51375  35.098  15.661   4.636
89955W        W51376  44.862  40.458   0.891
89956W        W51377  22.017  10.847   4.724
89957W        W51378  27.549  25.179  10.545
89958W        W51379  30.086  24.479  14.427
89959W        W51380  39.419  17.785  12.510
89960W        W51381   1.935  42.937  14.471
89961W        W51382  44.293  13.120  10.991
89962W        W51383  27.670  26.500   2.681
89963W        W51384  43.333  15.219   3.641
89964W        W51385  27.054  35.510   1.260
89965W        W51386  31.470   2.754   1.243
89966W        W51387  31.046  16.231   1.213
89967W        W51388  25.626  20.580  13.410
89968W        W51389  14.255  37.047  14.478
89969W        W51390   9.332   7.783  14.852
89970W        W51391  10.863  39.460  12.971
89971W        W51392   3.810   2.282   0.965
89972W        W51393  43.961  24.707   0.456
89973W        W51394  38.982  13.603  14.464
89974W        W51395  27.124  43.012  10.946
89975W        W51396   4.241   2.463  13.457
89976W        W51397  29.158   3.297  14.398
89977W        W51398  23.030   7.707   4.294
89978W        W51399  32.106  12.735   0.905
89979W        W51400  19.231  43.847   3.321
89980W        W51401  20.643  15.607  13.543
89981W        W51402  41.439  29.521   1.451
89982W        W51403  22.611  25.146   1.247
89983W        W51404  22.243   8.263   2.178
89984W        W51405  10.251   2.790   2.886
89985W        W51406   1.329  40.311  14.768
89986W        W51407  16.643   4.321   2.248
89987W        W51408  13.672  35.560   4.797
89988W        W51409  34.583  31.583   2.306
89989W        W51410  27.091  21.663  11.490
89990W        W51411  21.156  20.172  13.477
89991W        W51412  30.622  41.798  14.891
89992W        W51413  39.957  20.531  12.446
89993W        W51414  21.152  10.829  11.391
89994W        W51415   0.272  31.007   4.140
89995W        W51416  13.208  26.956   0.732
89996W        W51417   2.235   1.968   3.368
89997W        W51418  23.096  32.515   0.864
89998W        W51419  27.067   3.338   9.968
89999W        W51420   5.314  22.573  13.308
90000W        W51421  40.799  26.157   1.820
90001W        W51422  17.778   5.279   1.370
90002W        W51423  13.201   8.828   3.747
90003W        W51424  36.887  40.938  11.470
90004W        W51425  31.499  41.474  14.402
90005W        W51426  14.822   3.776  14.365
90006W        W51427  25.617  39.832  14.400
90007W        W51428   4.801  38.371  10.424
90008W        W51429  36.412  40.498   3.733
90009W        W51430  31.623  28.599  12.829
90010W        W51431   7.689  21.250   0.913
90011W        W51432   3.395  25.114  11.542
90012W        W51433   5.710  31.059  13.347
90013W        W51434  26.665  12.219  10.502
90014W        W51435  23.099  14.786   3.194
90015W        W51436   0.792  41.523  10.106
90016W        W51437  23.678  21.263  12.388
90017W        W51438   2.745  34.417   0.739
90018W        W51439   3.782  22.006   0.836
90019W        W51440  30.059  39.952  12.575
90020W        W51441  15.590  20.736  11.874
90021W        W51442  32.023   6.258  10.986
90022W        W51443  41.378  36.516   4.206
90023W        W51444  37.557  33.533   4.724
90024W        W51445  33.394  14.735   4.292
90025W        W51446  27.021  37.866  11.051
90026W        W51447  25.098   4.390   3.783
90027W        W51448  33.123  14.166   0.413
90028W        W51449  12.773  26.513  12.401
90029W        W51450  18.287  32.040   2.183
90030W        W51451  42.523  16.681   5.273
90031W        W51452  18.705  38.821  14.498
90032W        W51453  43.932  38.556  11.972
90033W        W51454  21.743  39.330  12.953
90034W        W51455  25.653  44.942  10.579
90035W        W51456  11.756  34.540  10.524
90036W        W51457  24.045  18.628  14.936
90037W        W51458  38.441  44.895   4.674
90038W        W51459  27.600  24.164  11.423
90039W        W51460  40.893  27.020  14.516
90040W        W51461   4.930  16.181   4.617
90041W        W51462  39.064  19.150  13.803
90042W        W51463  26.563   8.260  14.764
90043W        W51464  18.745  14.745  12.341
90044W        W51465   1.956  12.835   3.192
90045W        W51466   6.839   1.413  10.119
90046W        W51467   3.920   4.440  12.035
90047W        W51468  38.029  33.419   0.914
90048W        W51469  24.160  35.946   2.686
90049W        W51470  13.804  30.126   4.757
90050W        W51471   4.885  35.550  12.069
90051W        W51472   3.300   7.702   0.811
90052W        W51473  44.382   0.877   0.394
90053W        W51474  32.027   0.742   4.728
90054W        W51475  16.665   3.953   4.720
90055W        W51476  44.813   6.324   4.156
90056W        W51477   1.760  21.695   2.246
90057W        W51478  41.370  44.311  10.896
90058W        W51479  35.071   5.771  10.098
90059W        W51480  17.769  31.448   2.676
90060W        W51481  14.785   4.402   3.308
90061W        W51482  34.530  43.967  13.423
90062W        W51483  27.193  28.056   1.897
90063W        W51484   0.833   3.804  13.837
90064W        W51485  20.606  25.204  13.470
90065W        W51486  21.568   4.920  11.597
90066W        W51487  18.711  35.482  13.404
90067W        W51488  29.918  38.386  12.859
90068W        W51489  22.705  32.618   1.927
90069W        W51490  19.732  20.604   4.613
90070W        W51491   6.349  15.151  13.328
90071W        W51492  26.523  14.789  12.092
90072W        W51493  38.428  29.926   4.242
90073W        W51494  33.921  27.017  14.814
90074W        W51495  17.774  30.440   5.734
90075W        W51496   8.367  28.153   2.410
90076W        W51497  44.468  41.419   2.867
90077W        W51498  40.458  13.732  13.052
90078W        W51499  19.125  36.445  14.997
90079W        W51500  19.210  24.554   2.374
90080W        W51501  39.409  24.229  14.459
90081W        W51502  42.010   7.774   3.368
90082W        W51503  27.687  39.535  12.363
90083W        W51504   1.298  30.500   1.260
90084W        W51505  26.130  41.334  14.835
90085W        W51506  29.073  14.114   2.759
90086W        W51507  29.554   3.370   0.813
90087W        W51508   8.318  38.949   4.149
90088W        W51509  20.244  22.196  13.498
90089W        W51510  15.588  43.005  12.956
90090W        W51511  17.092   5.884  10.975
90091W        W51512  28.571  24.999   2.888
90092W        W51513  25.156  14.291   2.768
90093W        W51514  40.353  28.153  14.358
90094W        W51515  10.185  43.870  13.398
90095W        W51516   0.284   3.251   0.288
90096W        W51517   1.898   5.214   3.699
90097W        W51518   9.190   4.891  12.370
90098W        W51519  10.747  12.833  12.881
90099W        W51520  41.315   0.436  12.079
90100W        W51521  28.959  33.002  12.090
90101W        W51522  16.629  16.656   0.345
90102W        W51523  37.944  44.937   1.795
90103W        W51524  23.989   9.352  14.347
90104W        W51525  16.799  22.634   2.414
90105W        W51526  37.079  29.126  12.348
90106W        W51527  24.571  44.767  13.444
90107W        W51528  34.594  20.134   1.254
90108W        W51529  34.074  32.015  13.382
90109W        W51530  33.895  36.572   2.355
90110W        W51531  20.112  18.128   2.761
90111W        W51532  15.776  33.409  10.587
90112W        W51533   5.274  29.584  12.996
90113W        W51534  15.819  13.334   4.179
90114W        W51535  39.015  26.518  10.492
90115W        W51536  31.112   4.768   0.962
90116W        W51537  39.023  33.963   3.363
90117W        W51538  11.683   5.301  14.318
90118W        W51539   8.349   1.792  11.125
90119W        W51540   2.467  37.548   4.677
90120W        W51541   1.773  24.111  10.546
90121W        W51542  40.817  39.509   4.809
90122W        W51543   9.687  32.423   4.149
90123W        W51544   4.218   0.824   2.754
90124W        W51545  33.432  42.502   3.249
90125W        W51546   1.974  13.763  13.489
90126W        W51547  20.569  18.555  13.472
90127W        W51548  13.233  27.170   2.756
90128W        W51549   4.239  25.107  14.463
90129W        W51550  22.121  38.904  11.094
90130W        W51551   9.651  42.917  13.397
90131W        W51552   4.774   6.828  10.630
90132W        W51553   0.938  29.644   1.811
90133W        W51554  33.512  12.295   5.716
90134W        W51555  19.757  14.751   2.208
90135W        W51556  28.451  14.280  10.472
90136W        W51557  28.652   5.818   2.769
90137W        W51558   3.850  11.756  11.531
90138W        W51559  27.978  19.619  10.517
90139W        W51560  36.841   5.333  13.487
90140W        W51561  30.517  16.759  13.999
90141W        W51562  35.026  30.074   1.445
90142W        W51563  13.686  30.022  10.935
90143W        W51564  42.366  42.420   1.384
90144W        W51565   2.293  16.790   2.321
90145W        W51566  32.915   7.399   2.417
90146W        W51567   8.226  44.327   1.865
90147W        W51568  41.488  16.615  10.927
90148W        W51569  25.692  41.933   3.223
90149W        W51570  39.049   2.389  13.474
90150W        W51571   2.846   6.849  13.307
90151W        W51572  33.484  14.178  14.927
90152W        W51573  34.104   4.796   0.265
90153W        W51574   3.383   7.299  10.146
90154W        W51575  17.595  28.538  11.065
90155W        W51576  10.237  29.486   1.279
90156W        W51577  33.111  14.124  11.985
90157W        W51578  22.142  26.132   2.736
90158W        W51579  18.685  13.784   0.831
90159W        W51580  18.181  30.995  10.015
90160W        W51581  13.624  39.972  10.417
90161W        W51582  30.457   6.818  13.899
90162W        W51583  27.104   3.710  10.610
90163W        W51584   5.904  44.933   2.324
90164W        W51585  13.693  13.684  12.920
90165W        W51586  14.170  34.599  14.485
90166W        W51587  18.594  22.008  12.377
90167W        W51588  39.042  21.021  13.376
90168W        W51589  25.188   9.800   4.674
90169W        W51590  34.022  25.989   4.828
90170W        W51591  40.021   6.268   1.347
90171W        W51592  37.979  34.110  10.472
90172W        W51593  20.683  22.169   0.899
90173W        W51594  43.781  33.568  12.957
90174W        W51595   9.759  44.880   1.329
90175W        W51596  22.148  30.443  10.551
90176W        W51597  20.759  23.510  12.033
90177W        W51598   7.401  19.049   0.452
90178W        W51599  44.771  38.510   4.227
90179W        W51600  39.524  41.395   3.214
90180W        W51601  42.795  34.009  14.315
90181W        W51602   3.880  43.970   2.727
90182W        W51603   0.744  40.928   1.281
90183W        W51604  43.433   5.874   2.311
90184W        W51605  32.430  19.554   5.130
90185W        W51606  34.074  24.515   3.769
90186W        W51607  29.975  44.480  12.502
90187W        W51608  11.132  42.862   1.892
90188W        W51609  39.916  30.002   2.698
90189W        W51610   3.312  10.303   2.213
90190W        W51611  38.491  15.608  14.008
90191W        W51612  39.817  24.203  12.032
90192W        W51613  28.654  33.973  14.931
90193W        W51614   7.238  24.010  10.417
90194W        W51615  11.175  24.016   2.848
90195W        W51616  28.005  12.175   9.665
90196W        W51617  33.947   5.418   0.400
90197W        W51618  21.242  12.328  11.014
90198W        W51619  25.098  39.007   3.215
90199W        W51620  39.963  16.106   1.835
90200W        W51621  21.050   5.309  13.426
90201W        W51622  43.384  39.373  13.535
90202W        W51623   3.300  26.095   2.691
90203W        W51624   9.197  43.317   1.814
90204W        W51625  21.756  20.179   0.297
90205W        W51626  37.373  31.023  14.372
90206W        W51627  30.946  38.469  10.477
90207W        W51628  43.474  36.359   0.824
90208W        W51629   4.393   6.821   2.324
90209W        W51630  28.496   4.350   0.877
90210W        W51631   7.328  23.730   4.784
90211W        W51632  21.724  37.969   3.671
90212W        W51633  37.034  16.274  10.555
90213W        W51634   5.892   4.812  13.809
90214W        W51635   7.411  37.865  13.852
90215W        W51636   8.740  13.730  13.937
90216W        W51637  11.783  38.016  10.924
90217W        W51638  30.613   0.878  12.550
90218W        W51639   1.245  42.822   0.399
90219W        W51640  12.144  42.486  11.909
90220W        W51641  22.719   3.428  11.570
90221W        W51642  22.115   7.882   9.457
90222W        W51643  37.521   2.400   3.668
90223W        W51644  44.822  12.208  14.925
90224W        W51645  32.895  25.582  13.457
90225W        W51646  23.541   9.715   2.234
90226W        W51647  26.597  21.108  10.474
90227W        W51648  37.544   8.200   0.847
90228W        W51649  25.649   5.713   3.183
90229W        W51650  11.743   1.799   1.300
90230W        W51651  19.645  44.308  12.834
90231W        W51652  24.209   3.215  10.441
90232W        W51653  28.461  39.839  11.426
90233W        W51654  24.065   1.315   2.419
90234W        W51655  36.031   1.460  11.017
90235W        W51656  14.254  27.541  11.016
90236W        W51657   6.787  32.605  13.522
90237W        W51658  23.649  17.162   0.796
90238W        W51659  11.164  32.447  12.862
90239W        W51660  34.466   3.884   2.802
90240W        W51661  31.599  29.100  14.347
90241W        W51662  35.492  30.443   0.457
90242W        W51663  36.488  28.072   2.257
90243W        W51664  37.056   8.269   1.755
90244W        W51665  37.871  14.612   1.761
90245W        W51666  26.687  43.941   3.684
90246W        W51667  23.989  43.873   3.254
90247W        W51668  42.963  38.854  12.578
90248W        W51669   2.299  30.493   1.745
90249W        W51670  39.918  24.632   4.683
90250W        W51671  43.397   2.292  14.905
90251W        W51672   4.385  33.057   2.298
90252W        W51673  16.205  35.943  14.352
90253W        W51674  39.818  44.926  14.980
90254W        W51675  44.318  13.618   0.828
90255W        W51676  21.130  22.685   1.842
90256W        W51677  44.894   4.908   4.828
90257W        W51678  24.674   0.424  12.077
90258W        W51679  17.617  12.135  11.532
90259W        W51680   3.955   6.213  13.527
90260W        W51681  14.164   6.185  10.896
90261W        W51682  39.052  30.122   2.240
90262W        W51683  32.985  26.471  12.964
90263W        W51684  24.522   0.778   2.291
90264W        W51685  44.981  19.140   4.326
90265W        W51686  27.481  30.111  11.546
90266W        W51687  23.689  36.448  12.913
90267W        W51688  44.948  27.116  13.885
90268W        W51689  38.553  13.137   4.743
90269W        W51690  12.315  40.335  11.907
90270W        W51691  43.932  18.682  13.952
90271W        W51692  33.508  27.473   0.753
90272W        W51693   1.378  31.540   1.285
90273W        W51694  23.525  28.547  14.507
90274W        W51695  19.203  44.949   3.359
90275W        W51696  36.510  27.027   0.440
90276W        W51697  12.336  13.273   1.371
90277W        W51698  35.396  21.682   2.895
90278W        W51699   6.354  27.016  14.855
90279W        W51700  33.105  22.171  13.827
90280W        W51701   8.355  41.467  11.861
90281W        W51702  38.429  14.177   2.872
90282W        W51703   2.411  41.806  11.597
90283W        W51704   5.767  12.786   1.769
90284W        W51705  30.138  35.855  10.580
90285W        W51706  21.584  38.931   3.347
90286W        W51707  27.993  22.743  10.532
90287W        W51708  38.995  30.000  10.567
90288W        W51709  34.942  10.207   4.336
90289W        W51710  34.880  28.010  10.963
90290W        W51711  39.900  19.767   2.346
90291W        W51712  25.092   4.292   0.473
90292W        W51713  37.539   1.238  12.472
90293W        W51714  15.208  32.596  10.892
90294W        W51715  28.496  40.383   1.324
90295W        W51716  34.530  28.492  13.327
90296W        W51717  25.990  40.832  10.902
90297W        W51718  26.100  42.923  13.987
90298W        W51719   3.873  40.508  11.121
90299W        W51720  40.987  41.318  13.436
90300W        W51721   6.390  18.210  10.978
90301W        W51722  12.165  21.699  14.991
90302W        W51723   6.754  18.772   2.401
90303W        W51724   7.694   3.915  12.055
90304W        W51725  12.672   5.215   0.287
90305W        W51726   0.816  13.705  12.091
90306W        W51727  33.968  14.143  10.028
90307W        W51728  15.169  29.616  13.324
90308W        W51729  10.362   4.762  12.406
90309W        W51730  23.100   4.824  14.935
90310W        W51731   9.832   1.341  13.808
90311W        W51732  39.376   0.458  12.411
90312W        W51733  33.497   4.712   0.353
90313W        W51734  18.246  18.739  10.892
90314W        W51735   6.811  19.242  11.996
90315W        W51736  44.334  42.979  12.438
90316W        W51737  28.629  31.070  11.597
90317W        W51738   6.246  39.342   9.599
90318W        W51739  21.195   4.724   0.349
90319W        W51740   4.370   9.149   3.825
90320W        W51741  21.737  27.973  13.961
90321W        W51742   5.380   4.244  11.586
90322W        W51743   6.361  26.507   3.239
90323W        W51744  20.577   3.374  12.983
90324W        W51745  14.331  16.673  14.304
90325W        W51746   1.872   5.252  10.407
90326W        W51747   0.973  30.453  13.845
90327W        W51748  13.655   9.667   1.902
90328W        W51749   0.744  16.600   3.162
90329W        W51750  38.476  13.322  12.569
90330W        W51751   2.231  15.253   3.384
90331W        W51752  28.604   0.329  10.637
90332W        W51753   2.300   6.233   3.693
90333W        W51754  28.983   7.704  10.521
90334W        W51755  42.825   5.790  10.447
90335W        W51756   0.377  16.237  12.560
90336W        W51757  44.932  11.360  14.785
90337W        W51758  39.885  31.117   1.225
90338W        W51759  41.951  39.032  11.066
90339W        W51760  30.940  26.186  12.059
90340W        W51761  15.215  42.469   3.692
90341W        W51762  20.748  26.075   2.817
90342W        W51763  37.061   3.779  13.939
90343W        W51764  25.644  34.606   4.117
90344W        W51765  32.614  31.058  13.913
90345W        W51766  25.070   0.880  10.997
90346W        W51767  10.842  18.782   0.877
90347W        W51768   8.888   5.740  13.357
90348W        W51769  40.026  17.603   2.397
90349W        W51770  17.624  18.661  12.553
90350W        W51771  20.605  21.103  12.849
90351W        W51772  38.400  40.514   2.793
90352W        W51773  14.648   5.428   3.764
90353W        W51774  42.404  23.074  14.394
90354W        W51775   4.419  26.059  12.515
90355W        W51776   8.231  36.498  10.069
90356W        W51777  44.910  28.956  11.973
90357W        W51778   4.829  39.827   0.464
90358W        W51779  13.721  37.960  14.920
90359W        W51780   5.740  43.344   3.707
90360W        W51781   6.681  43.379   1.894
90361W        W51782  42.962   7.388  13.956
90362W        W51783  16.150   8.368   4.318
90363W        W51784   4.799  33.933   2.768
90364W        W51785  23.063  41.508  14.296
90365W        W51786  36.435  11.792  10.459
90366W        W51787  35.439  22.704  14.446
90367W        W51788   7.837   4.773   0.750
90368W        W51789  18.124  40.435  12.366
90369W        W51790  33.425   3.711   4.730
90370W        W51791  20.554  44.943  13.844
90371W        W51792  37.873  24.537   1.218
90372W        W51793  26.192  25.076   2.307
90373W        W51794  31.637   8.266   1.896
90374W        W51795   5.797  21.590  14.429
90375W        W51796  40.502   2.745  12.445
90376W        W51797   5.728   9.203   0.849
90377W        W51798  43.794  41.993  10.485
90378W        W51799  40.386  20.102   4.267
90379W        W51800  20.753  43.406   1.244
90380W        W51801  31.055  39.315   2.237
90381W        W51802  26.125   7.368   1.295
90382W        W51803   6.210  29.599  13.037
90383W        W51804  35.956   3.456   5.137
90384W        W51805  31.621  34.568  12.378
90385W        W51806  32.033   2.324   1.387
90386W        W51807   6.222   0.827  11.884
90387W        W51808  27.451  39.865   0.360
90388W        W51809  42.817  40.483   4.339
90389W        W51810  40.512  32.553  10.986
90390W        W51811   7.395  35.967  10.011
90391W        W51812   2.915   4.425  13.406
90392W        W51813  18.580  28.546  11.930
90393W        W51814  29.446  44.264  14.415
90394W        W51815  11.358  36.864   4.810
90395W        W51816   6.763   4.730   3.829
90396W        W51817  23.171  41.807  14.020
90397W        W51818  36.060  11.184  12.977
90398W        W51819  25.705  22.140   0.904
90399W        W51820   5.717  23.605   1.768
90400W        W51821  18.663  14.266  13.885
90401W        W51822  37.032  23.531  13.027
90402W        W51823  13.297   3.406  13.493
90403W        W51824   9.258   8.225   1.427
90404W        W51825  35.920  31.461  14.813
90405W        W51826  19.665  28.118  14.336
90406W        W51827  42.937  24.212   0.863
90407W        W51828  43.482  31.637   4.352
90408W        W51829   4.401  23.515   5.107
90409W        W51830   1.864  10.359   4.156
90410W        W51831   6.212  42.329   1.291
90411W        W51832  35.099  21.649   1.301
90412W        W51833  26.984  16.274  11.460
90413W        W51834   5.399  31.988  12.566
90414W        W51835  10.209  20.616  13.936
90415W        W51836  20.046  40.987  10.640
90416W        W51837  39.479  25.526   4.598
90417W        W51838   0.756  10.833  11.011
90418W        W51839  10.205  11.299   2.818
90419W        W51840  24.567  21.740   2.374
90420W        W51841   7.285  38.928  13.442
90421W        W51842  29.944   8.335  12.358
90422W        W51843  29.589   4.358  10.477
90423W        W51844  23.519  44.269  14.488
90424W        W51845  17.167  17.622   1.701
90425W        W51846  13.624   1.306   3.368
90426W        W51847  20.116  38.884   0.319
90427W        W51848  27.492  28.026   2.865
90428W        W51849   7.414  30.645  14.845
90429W        W51850   8.812   8.363  13.545
90430W        W51851  40.882  14.282  14.881
90431W        W51852  38.061  15.312   3.328
90432W        W51853  26.183   4.254   1.218
90433W        W51854   4.204  29.669   1.798
90434W        W51855  37.521  18.190   3.356
90435W        W51856   9.777  32.969  12.917
90436W        W51857  15.784  12.345   0.372
90437W        W51858  40.006   0.864  14.897
90438W        W51859  23.108  35.060  10.539
90439W        W51860  26.953  27.565  12.455
90440W        W51861   5.829   8.271   0.465
90441W        W51862   4.351  38.895  10.620
90442W        W51863  38.963  16.678   2.362
90443W        W51864   9.696  40.858  12.869
90444W        W51865  38.490  31.060   0.925
90445W        W51866  39.447  24.589   2.736
90446W        W51867   2.319  19.268  13.974
90447W        W51868  43.354  38.506  10.583
90448W        W51869  28.435   9.181   2.329
90449W        W51870   5.251  19.135  13.969
90450W        W51871  10.692  36.072  10.504
90451W        W51872   2.440  11.371  13.540
90452W        W51873   8.307  27.492  12.989
90453W        W51874  13.320  18.759  14.833
90454W        W51875  37.547  41.533   0.324
90455W        W51876  43.493   8.175   2.360
90456W        W51877  18.244  15.607   3.236
90457W        W51878  35.079  10.652   4.285
90458W        W51879  36.370  13.258   1.703
90459W        W51880  11.195  12.186  13.494
90460W        W51881  13.177   8.324  10.596
90461W        W51882  36.004   2.767   1.304
90462W        W51883   6.781  25.595   0.282
90463W        W51884  39.515  44.996  13.357
90464W        W51885  17.773  33.076   4.327
90465W        W51886  31.646  17.699   1.298
90466W        W51887  22.222   5.912   1.808
90467W        W51888  13.756  38.043  11.437
90468W        W51889  28.013  23.497  10.505
90469W        W51890  32.085   4.700   0.340
90470W        W51891  41.944  30.564  10.637
90471W        W51892  14.823  28.479  13.047
90472W        W51893  29.638  41.955  10.584
90473W        W51894  43.959   8.840   3.303
90474W        W51895   8.655  12.320  12.518
90475W        W51896   7.886  42.441  10.585
90476W        W51897   8.707   0.820  12.994
90477W        W51898  26.628  36.988   0.467
90478W        W51899  39.908  31.531   4.819
90479W        W51900  27.968  31.421   2.418
90480W        W51901  34.965   3.780  12.421
90481W        W51902  18.288  17.126  11.908
90482W        W51903  28.487   7.759  11.939
90483W        W51904  38.996   0.789  13.969
90484W        W51905  25.502  32.475  12.499
90485W        W51906  42.901  34.954   2.820
90486W        W51907   3.296   5.387  13.463
90487W        W51908  21.572  38.950   2.897
90488W        W51909   0.398  41.844  10.892
90489W        W51910  33.946  41.533  14.297
90490W        W51911  19.592  35.533   0.306
90491W        W51912  20.136  19.615  14.024
90492W        W51913  23.051  19.537   2.812
90493W        W51914  37.381  17.069   4.806
90494W        W51915  23.631  37.496   4.203
90495W        W51916   7.245  27.953  10.437
90496W        W51917  16.578  32.484  12.460
90497W        W51918  15.201  22.128   3.829
90498W        W51919  27.124  35.012  13.003
90499W        W51920  30.564  31.469  13.020
90500W        W51921  12.750  21.679  14.403
90501W        W51922  23.500  18.666   1.218
90502W        W51923  29.979  33.497  11.951
90503W        W51924  18.743  15.744   2.233
90504W        W51925   5.862  37.512  13.332
90505W        W51926  36.347  43.431  14.322
90506W        W51927  42.391  42.861  10.526
90507W        W51928  20.095   0.976  14.482
90508W        W51929   6.319  44.297   1.402
90509W        W51930   3.262  30.127   3.637
90510W        W51931   8.718   5.879   1.334
90511W        W51932  26.166  24.594   2.714
90512W        W51933  30.641  36.556  10.618
90513W        W51934  31.488  42.812  13.332
90514W        W51935  21.639  24.570   3.731
90515W        W51936  22.629  26.694  14.467
90516W        W51937  28.638  29.136  12.052
90517W        W51938  37.411   8.853  11.513
90518W        W51939  26.103  44.310  14.026
90519W        W51940   9.879   8.200  11.407
90520W        W51941   0.970   3.323  12.994
90521W        W51942  40.031   4.261   4.176
90522W        W51943   0.307  25.133  10.427
90523W        W51944  16.588   2.754  12.979
90524W        W51945  29.085  38.894  12.900
90525W        W51946   7.770  34.555   1.793
90526W        W51947  31.046  13.273  11.111
90527W        W51948   6.861  38.063  13.490
90528W        W51949  15.701  29.945  14.493
90529W        W51950  21.061  33.044   1.742
90530W        W51951   7.782  20.103  10.584
90531W        W51952  17.239   7.713  12.024
90532W        W51953  22.504  32.891   1.852
90533W        W51954  20.562  25.190  11.939
90534W        W51955  22.741  32.105   4.341
90535W        W51956  22.025  16.215   4.269
90536W        W51957   1.892  11.865  12.935
90537W        W51958  25.174  44.383  11.589
90538W        W51959  24.150  15.634  13.423
90539W        W51960  38.872   2.342   1.380
90540W        W51961  31.603  13.623   0.824
90541W        W51962  44.316   5.890   3.633
90542W        W51963  27.671  10.840   4.622
90543W        W51964  25.633  31.432   3.699
90544W        W51965   5.396  43.977  13.502
90545W        W51966  35.860  21.221  10.544
90546W        W51967  40.326  22.667  11.951
90547W        W51968  14.752  42.802   1.396
90548W        W51969  13.244   4.902   3.727
90549W        W51970  17.679  15.764  14.844
90550W        W51971   3.222  40.953  14.458
90551W        W51972  16.618  39.821  10.973
90552W        W51973   3.758   1.871  14.844
90553W        W51974   8.742  21.542  10.567
90554W        W51975  20.713  21.145   0.779
90555W        W51976  15.594   3.380   4.256
90556W        W51977  10.762  19.584  13.351
90557W        W51978  41.332  37.965   2.827
90558W        W51979  44.860  31.539   2.306
90559W        W51980  27.017  43.332   0.940
90560W        W51981  28.494  25.708   4.128
90561W        W51982  44.848   6.863  10.545
90562W        W51983   7.309  26.528  13.511
90563W        W51984  44.912  35.574   2.818
90564W        W51985  33.454  38.902  13.315
90565W        W51986   5.363   4.365   3.791
90566W        W51987   2.332  32.120   1.312
90567W        W51988  43.381  11.775  12.019
90568W        W51989  39.955  12.324  13.523
90569W        W51990  18.613  14.634  14.935
90570W        W51991  37.535  11.747  13.402
90571W        W51992  43.878   9.352  11.972
90572W        W51993  11.666   3.332   2.180
90573W        W51994  35.412  35.090   2.724
90574W        W51995  16.692   1.395  11.984
90575W        W51996  19.210  33.475  14.330
90576W        W51997  30.472  20.231  11.385
90577W        W51998  12.628  43.414   2.830
90578W        W51999  32.628  35.412   2.873
90579W        W52000  14.761  13.158   0.425
90580W        W52001  32.461  32.550  10.989
90581W        W52002  24.525  40.541   3.701
90582W        W52003   1.439  14.630   4.692
90583W        W52004   1.331  40.531   1.851
90584W        W52005  35.445   0.287  14.374
90585W        W52006  18.062   0.433   2.697
90586W        W52007  34.393  40.323   4.637
90587W        W52008  12.260   3.753  12.908
90588W        W52009  28.010   0.479  10.444
90589W        W52010   0.415  34.883  13.978
90590W        W52011  11.186  36.998  14.512
90591W        W52012  42.499  32.087   5.297
90592W        W52013   8.709  32.624  10.507
90593W        W52014  43.367  20.639   1.768
90594W        W52015  14.740  13.619  13.397
90595W        W52016  12.163  23.585  12.045
90596W        W52017   1.247  11.769  10.422
90597W        W52018   1.383  12.635   4.186
90598W        W52019  28.051   7.685  11.879
90599W        W52020  43.977   6.875   1.908
90600W        W52021  10.284  33.885  11.437
90601W        W52022  30.152  27.140   3.186
90602W        W52023  13.289  43.485   3.737
90603W        W52024   7.676  13.673   2.706
90604W        W52025   2.927   9.162  11.425
90605W        W52026  42.797  21.707  11.477
90606W        W52027  31.071  43.926   2.863
90607W        W52028  15.582  43.824   4.116
90608W        W52029  27.974  21.182  10.033
90609W        W52030  34.871  41.790   2.224
90610W        W52031  29.488   0.406   9.999
90611W        W52032   2.409   7.690   0.351
90612W        W52033  25.179  44.309   2.284
90613W        W52034  42.780  41.025   4.330
90614W        W52035   1.801  39.447   0.908
90615W        W52036  24.186   7.199  11.490
90616W        W52037  44.996  25.966   1.380
90617W        W52038  35.887  36.929  13.864
90618W        W52039  17.096  10.237   5.310
90619W        W52040  38.450   7.781   1.331
90620W        W52041   9.264  27.573  11.004
90621W        W52042  30.987   3.952   4.319
90622W        W52043  10.661  21.528  13.802
90623W        W52044  40.028  29.584   3.248
90624W        W52045  30.909  43.898  11.507
90625W        W52046   7.397   5.891   4.159
90626W        W52047   2.747  33.594  12.870
90627W        W52048  13.628  20.625   2.217
90628W        W52049  41.301   2.406  14.788
90629W        W52050  23.641  38.978   4.723
90630W        W52051  38.416  20.530   0.457
90631W        W52052   9.738  16.096   4.233
90632W        W52053  18.211  22.121   4.696
90633W        W52054   8.843  24.098   3.195
90634W        W52055  36.549   1.887   4.697
90635W        W52056  25.118  26.686   9.958
90636W        W52057  31.070  27.566   3.208
90637W        W52058  32.016  29.028   5.104
90638W        W52059  20.592   3.395   3.763
90639W        W52060  38.844  44.492   4.784
90640W        W52061  40.895  21.527  12.472
90641W        W52062  34.435  19.237  12.387
90642W        W52063  40.979  18.103  12.086
90643W        W52064  32.065  20.741   0.879
90644W        W52065  31.150  23.539   3.263
90645W        W52066  33.007  42.932  10.487
90646W        W52067  42.281  28.938  11.889
90647W        W52068   5.819   4.718  12.834
90648W        W52069   8.734  22.625  11.083
90649W        W52070  43.407  37.451  12.997
90650W        W52071   1.320  15.282   4.724
90651W        W52072  30.499  22.049   1.822
90652W        W52073  24.165  22.011  14.471
90653W        W52074  41.940  13.303   4.730
90654W        W52075  36.007  24.073   2.234
90655W        W52076  44.333  26.530   4.822
90656W        W52077  20.620  28.102   3.853
90657W        W52078  25.034  37.845  13.869
90658W        W52079   6.301   0.386  14.481
90659W        W52080  13.715  42.488   0.797
90660W        W52081  26.151   6.758   2.902
90661W        W52082   4.708  43.382  11.592
90662W        W52083  20.613  42.305  14.494
90663W        W52084  16.594  31.967  12.087
90664W        W52085  40.050  20.101  14.509
90665W        W52086  21.563  23.686  10.539
90666W        W52087  33.928   6.871   0.845
90667W        W52088  12.667  43.911   3.689
90668W        W52089  42.290  11.791   1.447
90669W        W52090   1.478  19.722  14.472
90670W        W52091   2.780   9.242  13.308
90671W        W52092  17.226  16.602  12.563
90672W        W52093  27.044  14.778  14.376
90673W        W52094  40.371   2.958   4.641
90674W        W52095   8.166   9.294  13.447
90675W        W52096  41.881   7.414  10.425
90676W        W52097  22.662  41.490  12.565
90677W        W52098  16.119  11.240  12.883
90678W        W52099  41.844  38.564  12.045
90679W        W52100  16.734   9.190  11.861
90680W        W52101  13.844  27.530   1.331
90681W        W52102   8.888  22.150  11.103
90682W        W52103  30.001  23.559  11.963
90683W        W52104  38.558  22.616   1.899
90684W        W52105  22.583  32.978  10.044
90685W        W52106  18.138  39.872   2.792
90686W        W52107  31.534  38.513   4.288
90687W        W52108   7.879  11.768  11.066
90688W        W52109  24.661  13.625   4.825
90689W        W52110  26.559  16.614  13.961
90690W        W52111   3.307  22.688   0.757
90691W        W52112   2.756  33.586   1.915
90692W        W52113  44.755   4.268   1.890
90693W        W52114  23.141  33.058  14.467
90694W        W52115  14.226   9.800   0.950
90695W        W52116   1.249  38.374  12.397
90696W        W52117  13.634  31.471  14.307
90697W        W52118  34.414   8.392  14.333
90698W        W52119  31.549   6.335   0.318
90699W        W52120  18.192  39.554   0.333
90700W        W52121  34.926  34.014  11.554
90701W        W52122   0.344  42.457  12.930
90702W        W52123  32.483   6.278  10.947
90703W        W52124  34.512  32.606   0.908
90704W        W52125  31.401  11.294  13.421
90705W        W52126   9.292  27.068  11.086
90706W        W52127  23.091  38.515  12.366
90707W        W52128  23.514  27.024  11.876
90708W        W52129  37.031  35.434   3.772
90709W        W52130  16.227   0.967   1.848
90710W        W52131   0.448  13.807   1.826
90711W        W52132  11.360  32.067   0.948
90712W        W52133  23.556  43.764   0.361
90713W        W52134  27.180  38.557  11.866
90714W        W52135  24.032  21.182  13.926
90715W        W52136  44.488   6.920   0.776
90716W        W52137  33.419  27.165   4.186
90717W        W52138  44.905   5.411   1.698
90718W        W52139  34.071  13.105   0.299
90719W        W52140  20.227  44.305   4.771
90720W        W52141   9.795  34.393  13.915
90721W        W52142   0.379  40.026   1.788
90722W        W52143  27.635   7.684  12.573
90723W        W52144  29.133  40.431  14.289
90724W        W52145  13.787  27.692   1.898
90725W        W52146  22.685   1.802   0.878
90726W        W52147  41.806  26.988  13.052
90727W        W52148  33.903  15.638   3.723
90728W        W52149   0.338  27.146   2.380
90729W        W52150  40.542  16.251   2.830
90730W        W52151  17.095  17.780   1.273
90731W        W52152  30.529  28.971  14.490
90732W        W52153  34.879  31.521   2.366
90733W        W52154  29.985  20.657  14.994
90734W        W52155  40.945  28.012   1.843
90735W        W52156  10.823   6.246   0.856
90736W        W52157  42.448   2.926  11.116
90737W        W52158  15.144  16.728  13.839
90738W        W52159  23.557   1.314  12.823
90739W        W52160  36.867  38.020  11.031
90740W        W52161  44.982  42.523   3.668
90741W        W52162   3.436  24.081   9.985
90742W        W52163   3.800  44.007  14.368
90743W        W52164  37.875   2.924  11.067
90744W        W52165  44.314  36.464  13.994
90745W        W52166  34.540   7.398   0.861
90746W        W52167  25.975  21.093  11.392
90747W        W52168  13.642  22.053  13.814
90748W        W52169  11.302  14.199  14.980
90749W        W52170  44.977  27.447  13.814
90750W        W52171  40.017  32.036  12.920
90751W        W52172   1.403  19.728   1.924
90752W        W52173   4.768  28.678   1.233
90753W        W52174   6.194  36.861  11.868
90754W        W52175   6.871  15.241  14.959
90755W        W52176  36.459  42.330   2.263
90756W        W52177  17.646  17.200   0.392
90757W        W52178   2.436  23.164   3.678
90758W        W52179  34.045  43.488  10.541
90759W        W52180  35.057   0.414  13.045
90760W        W52181  22.032  15.597   2.369
90761W        W52182  38.531  33.410  14.357
90762W        W52183  15.685  43.275  10.498
90763W        W52184  10.186   0.907   2.389
90764W        W52185  31.634   6.281   1.434
90765W        W52186  43.818  26.493   0.403
90766W        W52187   7.196  28.516   3.687
90767W        W52188  14.714  28.492  13.963
90768W        W52189   4.346   0.465  10.637
90769W        W52190  25.582   2.803  14.797
90770W        W52191  19.125  20.545   0.849
90771W        W52192  33.996  40.911  12.974
90772W        W52193  15.103  34.916   5.206
90773W        W52194  11.147   7.802   4.641
90774W        W52195  35.034  15.251   0.338
90775W        W52196  25.676   9.809  11.901
90776W        W52197  42.303  30.912  14.857
90777W        W52198  40.806   7.295   4.700
90778W        W52199  26.050  44.313   4.658
90779W        W52200   6.415   6.306   2.181
90780W        W52201  27.967   3.426  13.373
90781W        W52202   7.763  16.308   0.851
90782W        W52203  36.451   0.744   4.801
90783W        W52204   9.248  28.015   1.355
90784W        W52205   3.926   0.905   9.524
90785W        W52206  41.859  11.755   1.914
90786W        W52207  35.539  31.510   2.873
90787W        W52208  44.402  16.710  13.968
90788W        W52209  42.778   2.950  14.409
90789W        W52210  19.205   8.873  11.938
90790W        W52211   1.816  29.654  10.106
90791W        W52212   5.875  22.639  14.869
90792W        W52213  11.194  27.977   1.786
90793W        W52214  35.027   0.262  13.822
90794W        W52215  16.621  23.723  14.994
90795W        W52216   8.739  17.150  11.072
90796W        W52217  27.544   1.829   2.663
90797W        W52218  13.226  33.920  12.545
90798W        W52219  37.869   3.241   3.184
90799W        W52220  35.039   9.329   3.690
90800W        W52221   3.447   2.274   1.809
90801W        W52222  31.567   7.267   1.930
90802W        W52223  12.671  33.555   2.708
90803W        W52224  28.638  29.657   4.632
90804W        W52225   5.796  43.988   0.798
90805W        W52226  11.708   6.680  11.457
90806W        W52227  39.002  44.446  12.362
90807W        W52228  17.224  44.350  14.324
90808W        W52229  11.774  44.483  11.973
90809W        W52230  27.103  22.701   0.856
90810W        W52231  33.982  36.440  13.533
90811W        W52232  13.622  34.932  14.379
90812W        W52233   1.733   9.678   2.720
90813W        W52234  32.632  41.455   4.785
90814W        W52235  25.052  29.152  10.628
90815W        W52236  29.616  22.667   2.197
90816W        W52237   2.780  26.069  10.576
90817W        W52238  17.768   2.776  13.041
90818W        W52239  34.065   2.414  11.099
90819W        W52240  19.246  38.464   3.163
90820W        W52241  11.278   7.699   0.435
90821W        W52242   6.827  15.800   2.827
90822W        W52243  27.192  11.202  10.983
90823W        W52244   8.326   0.869   3.697
90824W        W52245  29.458  41.480   5.265
90825W        W52246  26.069  13.831  13.336
90826W        W52247  26.188  17.244  11.551
90827W        W52248  44.322  13.243  14.348
90828W        W52249  44.958   8.342  11.491
90829W        W52250  34.086  36.960  12.962
90830W        W52251  36.062  43.295   4.144
90831W        W52252  42.292   8.220   1.724
90832W        W52253   6.692  37.900  14.414
90833W        W52254  19.634  16.196  13.945
90834W        W52255  14.292  26.000   0.396
90835W        W52256  21.136  37.567   0.842
90836W        W52257  15.102  34.108  10.977
90837W        W52258  10.719   0.937   4.174
90838W        W52259   5.809  22.184  11.874
90839W        W52260  19.212   3.772  11.929
90840W        W52261   0.388  14.159  12.006
90841W        W52262   6.253  18.250  13.434
90842W        W52263   1.292  34.033  14.295
90843W        W52264  36.483  36.865  12.466
90844W        W52265  25.681  29.982   4.686
90845W        W52266   7.312  39.905   1.801
90846W        W52267  16.122  22.606  11.003
90847W        W52268   0.403   4.898  13.457
90848W        W52269  23.699  13.624  13.026
90849W        W52270  34.493  36.952   2.368
90850W        W52271   0.378  25.699   2.326
90851W        W52272  30.612  20.583  10.623
90852W        W52273   8.349   3.873  12.457
90853W        W52274  20.162  33.483   0.837
90854W        W52275   0.491  15.179  13.434
90855W        W52276  35.039  25.045   1.935
90856W        W52277  23.088  36.941   2.402
90857W        W52278   1.355  38.857  14.326
90858W        W52279  31.969  15.795  13.511
90859W        W52280  20.651  12.738  14.904
90860W        W52281  28.549  29.958  11.463
90861W        W52282  14.299  40.867  11.476
90862W        W52283  44.377  20.181  11.877
90863W        W52284  34.548  41.911   1.848
90864W        W52285  43.470  43.791  11.411
90865W        W52286  43.407  17.131  12.924
90866W        W52287   2.408  28.612  11.565
90867W        W52288   4.868  42.853  13.891
90868W        W52289  41.960   8.357  13.952
90869W        W52290  28.679  30.920  13.523
90870W        W52291  11.789  37.989   1.334
90871W        W52292  41.434  17.298   4.243
90872W        W52293   0.352  34.956   4.829
90873W        W52294  42.384  14.114  14.304
90874W        W52295  40.801  20.133   3.678
90875W        W52296  17.770  20.263  12.445
90876W        W52297  12.736   2.404   4.344
90877W        W52298  40.475  35.436   1.334
90878W        W52299  23.573  28.116  11.506
90879W        W52300   8.813   0.765   4.325
90880W        W52301  19.193  43.346   4.658
90881W        W52302  27.992  33.006  14.872
90882W        W52303  22.692   3.778  11.051
90883W        W52304  20.683  41.501   2.804
90884W        W52305  23.507  35.857  13.485
90885W        W52306  33.557   1.279   0.316
90886W        W52307   9.243  43.497  12.370
90887W        W52308  27.960  20.664  14.415
90888W        W52309  44.451  26.590   2.732
90889W        W52310  37.077  42.852   0.330
90890W        W52311  15.151   0.892   4.214
90891W        W52312  21.253  39.938   3.370
90892W        W52313  41.296  17.255  12.943
90893W        W52314  34.936  24.991  10.095
90894W        W52315   9.723   2.405  13.316
90895W        W52316  22.108   1.475   1.825
90896W        W52317  18.632  34.974  12.075
90897W        W52318  16.593  14.803   4.779
90898W        W52319   8.288   9.174  14.374
90899W        W52320  15.685  34.390  11.570
90900W        W52321  34.594  17.634  10.606
90901W        W52322  19.682  26.635  10.125
90902W        W52323  32.971   8.327  11.000
90903W        W52324  34.975  40.533  12.519
90904W        W52325  26.580  14.299  13.372
90905W        W52326  14.265  13.841   3.642
90906W        W52327   5.924  32.138  11.093
90907W        W52328   7.897  10.705  13.528
90908W        W52329  16.778  42.893   4.177
90909W        W52330  41.375  28.999   1.853
90910W        W52331   4.800   1.969  11.908
90911W        W52332   0.421   5.840   2.179
90912W        W52333   7.392  24.975  14.930
90913W        W52334  43.271  10.253  14.887
90914W        W52335  41.849  10.843  13.826
90915W        W52336  15.731  27.979  12.554
90916W        W52337  19.176  10.782   4.817
90917W        W52338  40.962  18.247  13.429
90918W        W52339  13.728  13.676   3.315
90919W        W52340   2.900  34.378  14.010
90920W        W52341   1.900  23.633  12.985
90921W        W52342  44.260   3.767  12.514
90922W        W52343  35.008  44.499  10.133
90923W        W52344  40.048  16.128   4.707
90924W        W52345  31.463   9.275  11.470
90925W        W52346   8.265  22.723  12.831
90926W        W52347  40.312  20.727   3.167
90927W        W52348  32.502  38.033   4.271
90928W        W52349  21.727  10.167  13.392
90929W        W52350   4.308  44.444  11.974
90930W        W52351  12.157  43.398   1.932
90931W        W52352  20.582  10.677   0.868
90932W        W52353  16.082  27.100  12.460
90933W        W52354  28.457  44.887  12.025
90934W        W52355   5.203  42.320  11.410
90935W        W52356  22.711  15.818  14.847
90936W        W52357  38.054   6.368   0.891
90937W        W52358   2.394  26.612  14.381
90938W        W52359  26.568  23.653  13.054
90939W        W52360  38.491  28.582  13.448
90940W        W52361  41.489   0.446   4.661
90941W        W52362   7.280  22.584   4.241
90942W        W52363  19.599  41.853   3.648
90943W        W52364  18.161   8.391  10.908
90944W        W52365   4.938  31.019   1.899
90945W        W52366   7.200  18.275   1.435
90946W        W52367   9.756  21.744   4.158
90947W        W52368  36.482  33.027  13.856
90948W        W52369  10.802  41.841   0.313
90949W        W52370  38.478  14.678   3.799
90950W        W52371  18.180  40.961   2.384
90951W        W52372  37.559  14.671   4.600
90952W        W52373  24.685  16.594  13.970
90953W        W52374  35.439  37.967   3.173
90954W        W52375  25.527  10.383   4.822
90955W        W52376  21.645   4.362   3.362
90956W        W52377  41.298  32.437   3.747
90957W        W52378  20.089   3.321   2.768
90958W        W52379   8.850  36.892  14.402
90959W        W52380  22.664  36.575  10.427
90960W        W52381  40.835  39.502   2.806
90961W        W52382  10.745  42.526  12.357
90962W        W52383  34.427  19.722   3.792
90963W        W52384  26.139  10.336  14.994
90964W        W52385  28.603  21.068   2.815
90965W        W52386  19.056   4.907   3.369
90966W        W52387  28.497  44.354  14.906
90967W        W52388   8.681  42.456  12.376
90968W        W52389   8.799  15.608  12.076
90969W        W52390  16.718  13.263   3.694
90970W        W52391  23.200  39.822   0.932
90971W        W52392  44.807  36.022   2.664
90972W        W52393   6.330  28.165  11.894
90973W        W52394   7.379  16.197   0.255
90974W        W52395   9.719  27.153  13.426
90975W        W52396   1.865  10.218  13.005
90976W        W52397  26.070  23.025   0.388
90977W        W52398  19.285  30.492  14.816
90978W        W52399  38.542  11.711  10.949
90979W        W52400  34.468  42.817  12.446
90980W        W52401  21.739  42.321  13.942
90981W        W52402  12.263  32.944   1.408
90982W        W52403  26.515  25.092   2.202
90983W        W52404  13.226  43.998   4.832
90984W        W52405  32.060  38.879  11.003
90985W        W52406  23.707  34.394  12.958
90986W        W52407  29.568  17.633   0.380
90987W        W52408   7.746   0.864   4.724
90988W        W52409  38.952  19.178   1.305
90989W        W52410  44.808   8.714   0.458
90990W        W52411   7.881  41.880   0.434
90991W        W52412   2.299   2.734  14.418
90992W        W52413  10.722   2.861   2.223
90993W        W52414  28.629  27.595   3.855
90994W        W52415  25.157  25.619   1.825
90995W        W52416  25.146  31.510   3.217
90996W        W52417  13.797  17.246  12.062
90997W        W52418  15.327  24.584  13.395
90998W        W52419  35.953  10.291   3.295
90999W        W52420  38.961  14.779  12.997
91000W        W52421  40.460   7.296   5.234
91001W        W52422  42.428   9.709   2.688
91002W        W52423  36.509   6.397   1.449
91003W        W52424  36.890  15.234   5.776
91004W        W52425  19.658  44.414   0.805
91005W        W52426  12.692   7.417   2.712
91006W        W52427   3.714  38.457   2.419
91007W        W52428   1.948  15.697   4.791
91008W        W52429   4.212  24.092   3.782
91009W        W52430  39.374  35.432   4.285
91010W        W52431   7.805  38.898  14.429
91011W        W52432  29.532  28.044   3.818
91012W        W52433  36.860  10.139  13.323
91013W        W52434  24.047  33.890   4.752
91014W        W52435  41.881  23.567   0.307
91015W        W52436   5.874   0.375   1.249
91016W        W52437   2.894   9.217  13.027
91017W        W52438  40.526  10.816  10.519
91018W        W52439  22.081   9.801  14.780
91019W        W52440  21.256  30.957  12.374
91020W        W52441  44.834  14.792   3.327
91021W        W52442  27.447  41.373   4.296
91022W        W52443  41.435  17.116   0.472
91023W        W52444  44.922  19.162   2.186
91024W        W52445  17.303  26.561  11.986
91025W        W52446  13.841  11.147   3.693
91026W        W52447  41.357  43.901   3.660
91027W        W52448  36.879  27.646   4.190
91028W        W52449  44.009   1.905  14.915
91029W        W52450  38.551  19.539  10.448
91030W        W52451  10.361  24.513  10.898
91031W        W52452  40.452  14.265  11.573
91032W        W52453   0.351  26.957  12.483
91033W        W52454   3.392  18.628  10.937
91034W        W52455  18.722  11.800   1.394
91035W        W52456  41.996  20.755   1.742
91036W        W52457  12.627   1.757  12.412
91037W        W52458  27.595  42.289   0.377
91038W        W52459  20.528  13.246   0.389
91039W        W52460   7.394  35.439   0.837
91040W        W52461  36.502  44.478  10.008
91041W        W52462  13.157   6.376   2.812
91042W        W52463  38.509  10.259  14.017
91043W        W52464  42.939  40.826  13.024
91044W        W52465  32.486  21.666   3.371
91045W        W52466  13.707  22.177   2.771
91046W        W52467  15.165  14.695   4.312
91047W        W52468  25.965   3.380   0.386
91048W        W52469   7.311  43.881   2.746
91049W        W52470  15.734  11.183   3.665
91050W        W52471   5.437   1.443  11.606
91051W        W52472  19.618  37.394  12.529
91052W        W52473  36.991   7.174   2.313
91053W        W52474  28.038  20.221   1.293
91054W        W52475  25.057   2.436  11.080
91055W        W52476  24.184   6.912  13.538
91056W        W52477  25.989  13.678   0.348
91057W        W52478  36.975  36.497  11.430
91058W        W52479  36.482  17.557   1.830
91059W        W52480  19.052  27.092   4.117
91060W        W52481  29.041   7.732  11.576
91061W        W52482  43.352  13.785   4.181
91062W        W52483  44.999   8.893   1.876
91063W        W52484  18.688   6.735  12.823
91064W        W52485  43.454   4.755   4.220
91065W        W52486   5.728  10.179  12.975
91066W        W52487   6.886  10.296  10.418
91067W        W52488   7.400  30.997   1.892
91068W        W52489  32.930  19.225   1.884
91069W        W52490  34.551  30.546  13.417
91070W        W52491   4.739   0.475   2.730
91071W        W52492  44.798  36.944  14.963
91072W        W52493  28.004  14.121  11.557
91073W        W52494  33.493  18.247  11.539
91074W        W52495  33.004  37.942   2.216
91075W        W52496  10.730  25.624  10.548
91076W        W52497  31.907   9.374  12.970
91077W        W52498  40.909   0.280  10.530
91078W        W52499   5.413  29.128   0.242
91079W        W52500  23.059  40.524  14.908
91080W        W52501  30.090   3.216  14.893
91081W        W52502  40.952  42.961   2.195
91082W        W52503  14.651  33.098  12.439
91083W        W52504  25.004  11.286  12.066
91084W        W52505  13.219  37.888   3.177
91085W        W52506  41.304  42.839  12.831
91086W        W52507  20.569  33.941   3.663
91087W        W52508  20.608  23.517  11.108
91088W        W52509   2.829   4.322  11.046
91089W        W52510  42.001  24.558   2.268
91090W        W52511  12.835  36.401   0.354
91091W        W52512   4.216  39.420   1.410
91092W        W52513  10.239   9.646   4.712
91093W        W52514  19.192  17.573   0.373
91094W        W52515   8.374   3.378  11.954
91095W        W52516  38.501  40.811   1.699
91096W        W52517   4.330  10.719   4.797
91097W        W52518  13.261  33.443   0.288
91098W        W52519   6.762  38.883  14.928
91099W        W52520  26.661  13.667   1.779
91100W        W52521  24.225  39.437  12.368
91101W        W52522   1.739  10.748   2.385
91102W        W52523  35.940  41.935   0.401
91103W        W52524  15.187  22.253  14.395
91104W        W52525  19.642   2.773  13.463
91105W        W52526  35.968  14.710  14.350
91106W        W52527   3.439  34.493  11.071
91107W        W52528  26.595  35.456   3.263
91108W        W52529   7.793  35.564  10.464
91109W        W52530  32.039   1.303   0.323
91110W        W52531  31.426  37.449  11.429
91111W        W52532  37.557  25.101   0.371
91112W        W52533  28.584  32.568   2.893
91113W        W52534  24.708  19.598  10.548
91114W        W52535  10.864  12.819   3.334
91115W        W52536  14.128   0.778   1.756
91116W        W52537  15.674  19.079   2.747
91117W        W52538  28.098  11.145  12.909
91118W        W52539  40.371  43.774  13.469
91119W        W52540  11.745  30.155   2.211
91120W        W52541  17.265   9.681   3.341
91121W        W52542  43.360  18.172  14.474
91122W        W52543   3.948  31.513  14.916
91123W        W52544  28.117  25.095   1.422
91124W        W52545  24.512  41.832  10.478
91125W        W52546  31.942   4.737  10.085
91126W        W52547  35.945  39.374  12.011
91127W        W52548  39.899  12.170  10.528
91128W        W52549  14.647   7.844   3.248
91129W        W52550  17.571  37.905  14.806
91130W        W52551  29.960  39.062   2.853
91131W        W52552   7.303  44.979  13.355
91132W        W52553  25.204  15.251   1.768
91133W        W52554  13.610  40.461  10.956
91134W        W52555  24.604  24.522   3.205
91135W        W52556  22.028   3.911  13.937
91136W        W52557   7.861  30.614  14.422
91137W        W52558   3.391  41.503   1.749
91138W        W52559   7.842  44.442  11.009
91139W        W52560  26.609  13.795  10.915
91140W        W52561   0.872  14.660   2.778
91141W        W52562  11.864  27.067  12.964
91142W        W52563  39.953  27.050  12.489
91143W        W52564  34.579   5.834  11.586
91144W        W52565   0.780  20.237  13.004
91145W        W52566  41.413  40.934  12.506
91146W        W52567   0.906  21.686  12.971
91147W        W52568  16.215  15.239  11.574
91148W        W52569   5.375  28.643   0.416
91149W        W52570  16.655   5.245   3.666
91150W        W52571  44.358  20.093  13.039
91151W        W52572  31.984   2.817  14.493
91152W        W52573  10.383  14.287   1.920
91153W        W52574   9.150   6.426   3.255
91154W        W52575  16.728   2.769   4.349
91155W        W52576  32.500  39.316   2.222
91156W        W52577  21.027  25.584  12.414
91157W        W52578  36.399  16.689  10.500
91158W        W52579  25.980  32.521  11.927
91159W        W52580  35.470  19.061  14.395
91160W        W52581  38.955  29.016  12.502
91161W        W52582  39.433  29.055  10.535
91162W        W52583   9.343  20.196  12.503
91163W        W52584   5.420  41.462  14.497
91164W        W52585  16.758  41.357  14.502
91165W        W52586  14.737  37.575  11.104
91166W        W52587  23.508  33.069   3.854
91167W        W52588  29.983  43.941  14.954
91168W        W52589  26.467  24.560  11.053
91169W        W52590  40.009  14.248  14.836
91170W        W52591  38.457   5.394  12.995
91171W        W52592   1.814  23.164  13.956
91172W        W52593   6.887   3.242  13.497
91173W        W52594  13.343  28.556   2.328
91174W        W52595  14.701  33.507  12.973
91175W        W52596  23.068  35.526   1.413
91176W        W52597  28.550  27.610   1.901
91177W        W52598  39.505  38.552  12.082
91178W        W52599   1.390  35.422  11.124
91179W        W52600  29.002   9.394   3.193
91180W        W52601  44.396   7.323   2.322
91181W        W52602  17.652  36.914   4.221
91182W        W52603  19.062  28.568  14.871
91183W        W52604  35.493   6.308   4.252
91184W        W52605  21.605  31.613  14.447
91185W        W52606  17.064  38.839   0.732
91186W        W52607  30.419  32.422   2.764
91187W        W52608  10.273  35.425  14.455
91188W        W52609  42.351  23.102  11.040
91189W        W52610  11.313  19.197   4.228
91190W        W52611  28.173   9.353  11.010
91191W        W52612  16.207  14.330   4.823
91192W        W52613  18.685   2.366   2.419
91193W        W52614   2.906   0.972   4.822
91194W        W52615  24.102  11.675   1.761
91195W        W52616  25.478  44.808   4.629
91196W        W52617   2.854   8.767  13.010
91197W        W52618  26.083  23.670  12.017
91198W        W52619  33.889  27.493  12.553
91199W        W52620  44.352   1.829   4.621
91200W        W52621   9.287  26.094   2.378
91201W        W52622  13.313  17.745  12.004
91202W        W52623   9.179  24.995  14.396
91203W        W52624  19.768  28.630   0.346
91204W        W52625  41.356  39.841   3.233
91205W        W52626  20.711  21.727   4.344
91206W        W52627  25.564   1.876  13.989
91207W        W52628   7.267  20.050  12.357
91208W        W52629   6.712  29.970   2.690
91209W        W52630   3.877  17.579  13.531
91210W        W52631  34.501  16.156  13.951
91211W        W52632  19.195  34.386  14.982
91212W        W52633  26.530  33.420   0.872
91213W        W52634  27.994  33.477   3.380
91214W        W52635   8.858  33.381  14.948
91215W        W52636  21.745  18.117  13.435
91216W        W52637  26.966   5.836   0.387
91217W        W52638  14.180  44.316   2.237
91218W        W52639  22.588  19.249   2.865
91219W        W52640   2.272  27.947  12.520
91220W        W52641  42.284  41.847  10.449
91221W        W52642   8.344  18.549  12.940
91222W        W52643   6.916  44.979   4.144
91223W        W52644  32.901  19.712   3.382
91224W        W52645  22.673   7.776  14.305
91225W        W52646  37.065  44.420  12.053
91226W        W52647  15.665  35.989  14.842
91227W        W52648   5.357   1.272   2.380
91228W        W52649  44.486   6.184   1.223
91229W        W52650  37.457  43.918   0.311
91230W        W52651  37.844  32.969   4.733
91231W        W52652   7.403   7.200  10.896
91232W        W52653  26.961   8.856   1.845
91233W        W52654  43.007   8.202   4.757
91234W        W52655  12.774   5.358   3.784
91235W        W52656  23.656  23.637   1.345
91236W        W52657  15.174  16.695   4.134
91237W        W52658  26.078  23.600  12.482
91238W        W52659   5.817  32.974   1.841
91239W        W52660  25.186  16.307   3.280
91240W        W52661  17.756  20.610  13.872
91241W        W52662  40.820  23.593  10.959
91242W        W52663  25.061  44.909   2.278
91243W        W52664  18.640  27.194   2.411
91244W        W52665  42.507  24.984   0.457
91245W        W52666  43.301  27.637   4.231
91246W        W52667  29.565  25.685   4.734
91247W        W52668   5.802  41.479  14.783
91248W        W52669  17.742  27.000   0.747
91249W        W52670  41.818  42.414  14.369
91250W        W52671   1.910  15.219   1.238
91251W        W52672   4.423  10.202   3.375
91252W        W52673  15.111   3.850   4.671
91253W        W52674  40.417  37.507  10.120
91254W        W52675  31.513   7.888  13.547
91255W        W52676  19.642  15.186  14.512
91256W        W52677  14.647   3.826   4.229
91257W        W52678  28.572  17.575  11.390
91258W        W52679  25.509  37.500   3.707
91259W        W52680  44.942  37.545   1.862
91260W        W52681  22.175   0.304   4.703
91261W        W52682  37.493  18.235  10.447
91262W        W52683   0.369   4.796  13.843
91263W        W52684   2.834   5.350   3.851
91264W        W52685   4.778   0.829   4.636
91265W        W52686  27.149  18.167   3.302
91266W        W52687   3.939  12.855   3.296
91267W        W52688   4.237  39.430  11.611
91268W        W52689  36.035  19.756   2.899
91269W        W52690  19.047   0.312   0.771
91270W        W52691   6.731  13.225  13.822
91271W        W52692  33.881  36.389   1.413
91272W        W52693  23.113  33.988   3.695
91273W        W52694   4.891  43.917  11.044
91274W        W52695  21.747  10.205   0.833
91275W        W52696  18.259  31.552   2.231
91276W        W52697   3.801  27.523  14.924
91277W        W52698  44.419   4.823  12.410
91278W        W52699  25.089  36.937  11.582
91279W        W52700   7.248   1.908  12.873
91280W        W52701  31.967  36.575   1.314
91281W        W52702  31.520  14.608  14.885
91282W        W52703   7.730  42.974   9.920
91283W        W52704  20.578  24.633   3.631
91284W        W52705  18.775  32.423  14.953
91285W        W52706  37.082   1.436   0.452
91286W        W52707  18.215  17.276  13.954
91287W        W52708  37.006  14.599   4.819
91288W        W52709  31.562   5.879  14.839
91289W        W52710  11.336  22.729  13.063
91290W        W52711  38.957  43.322  14.020
91291W        W52712  38.998  11.682  14.290
91292W        W52713  33.877  11.271   1.210
91293W        W52714  39.929   0.916  12.849
91294W        W52715  33.416   9.179  10.921
91295W        W52716  18.169  43.794   1.392
91296W        W52717  19.236  13.295   0.922
91297W        W52718  35.380  44.817   3.849
91298W        W52719  39.504   4.327  11.984
91299W        W52720  41.416   9.738  13.823
91300W        W52721   2.322   0.266  14.390
91301W        W52722  33.613  29.005   2.188
91302W        W52723  39.032  26.459   3.785
91303W        W52724  42.003   2.957   0.287
91304W        W52725  34.912  20.177  12.876
91305W        W52726  11.758  40.808  14.384
91306W        W52727  44.821   5.899   2.330
91307W        W52728  17.278  41.466  11.057
91308W        W52729  33.040  39.032   1.385
91309W        W52730  42.373  29.538  14.412
91310W        W52731  27.129  40.898   0.757
91311W        W52732   1.787  11.136   2.684
91312W        W52733  27.994  42.890  13.352
91313W        W52734   7.171  30.517  12.430
91314W        W52735  36.094  39.365   0.428
91315W        W52736  31.902  39.858  11.884
91316W        W52737  36.025   1.282  13.347
91317W        W52738   8.249  31.601  11.408
91318W        W52739  24.191  31.636   1.728
91319W        W52740  10.298  12.245   0.328
91320W        W52741  16.148  30.437  12.032
91321W        W52742  40.389  17.706  12.067
91322W        W52743   9.875  30.154  13.534
91323W        W52744   9.307  10.330  11.917
91324W        W52745  36.458   4.253   3.783
91325W        W52746  11.135  17.140  11.428
91326W        W52747  44.449  39.941   1.342
91327W        W52748  15.766  40.405   1.264
91328W        W52749  28.597  13.705   2.880
91329W        W52750  41.035  34.554   3.835
91330W        W52751  17.105  13.300  13.950
91331W        W52752   4.759  20.271   4.291
91332W        W52753   5.307  21.041   0.900
91333W        W52754  10.347  44.470  11.094
91334W        W52755   4.886  27.527   5.258
91335W        W52756  14.186  44.343  11.981
91336W        W52757  33.465  13.787  14.844
91337W        W52758  28.950  27.154   0.772
91338W        W52759  12.358  11.837  13.371
91339W        W52760  44.447  14.728   1.431
91340W        W52761   4.889  31.627  11.058
91341W        W52762  34.983  16.266  12.531
91342W        W52763  33.584  42.920   0.862
91343W        W52764  42.856  39.355  13.338
91344W        W52765  34.115  17.279  14.891
91345W        W52766  20.634  19.074   3.375
91346W        W52767   4.869  27.692   4.116
91347W        W52768  10.873  16.680   3.162
91348W        W52769  18.580  39.905   0.401
91349W        W52770   1.393  40.972  11.571
91350W        W52771   4.799  18.270   3.864
91351W        W52772  15.193   7.869  11.032
91352W        W52773   2.891  26.529   0.833
91353W        W52774   0.310  44.449  11.537
91354W        W52775  23.596  23.205   1.864
91355W        W52776   2.784  18.654   2.313
91356W        W52777  43.484   3.859   3.830
91357W        W52778  40.938  17.632  12.880
91358W        W52779  29.041  12.637   1.768
91359W        W52780   9.259   8.722   0.965
91360W        W52781  25.503  20.269  12.455
91361W        W52782  44.406  28.002   0.784
91362W        W52783   5.734  15.819   2.789
91363W        W52784   1.889   1.951  10.491
91364W        W52785  11.199  39.332   2.316
91365W        W52786  43.936  26.995  14.379
91366W        W52787  12.716  14.277  14.962
91367W        W52788  21.710  42.778  11.537
91368W        W52789   3.823  26.069   0.854
91369W        W52790  22.708   7.690   9.616
91370W        W52791  23.195  30.578   3.262
91371W        W52792  24.539  17.166  12.519
91372W        W52793  28.040  32.089   2.839
91373W        W52794  33.107  32.927   0.819
91374W        W52795  35.090  22.544  10.464
91375W        W52796  33.917   2.364  11.428
91376W        W52797  10.362  12.619  11.972
91377W        W52798  31.539  12.623  11.597
91378W        W52799   6.760  41.453   1.228
91379W        W52800  12.235  15.285  14.399
91380W        W52801   2.958  27.504  12.549
91381W        W52802  20.160  35.485  10.949
91382W        W52803  42.494  25.655  14.487
91383W        W52804   1.884  36.357   2.364
91384W        W52805  23.196  43.483   1.229
91385W        W52806  37.961  44.816   3.243
91386W        W52807   8.248   6.716   1.853
91387W        W52808  44.947   1.306  13.941
91388W        W52809   2.735  28.047   3.187
91389W        W52810  23.121   3.820  12.453
91390W        W52811  38.527   7.903   2.337
91391W        W52812  12.806   0.788   1.796
91392W        W52813  20.745  34.030   2.285
91393W        W52814  13.226  35.574   1.788
91394W        W52815   6.773  12.765   3.268
91395W        W52816  11.254   2.291   0.754
91396W        W52817  16.252  33.876  14.855
91397W        W52818  26.988  21.718   2.340
91398W        W52819   6.878   3.909  14.792
91399W        W52820   2.793  36.015  13.803
91400W        W52821  14.140  21.612   3.218
91401W        W52822  21.523  35.394   3.662
91402W        W52823  35.970  31.013  13.939
91403W        W52824  29.067  10.665  11.874
91404W        W52825  21.538   0.958   1.848
91405W        W52826  23.113  41.789  12.431
91406W        W52827  19.646  15.802  14.299
91407W        W52828  23.666  12.274  10.549
91408W        W52829  43.488  30.656   0.866
91409W        W52830  37.571  42.980  13.320
91410W        W52831  26.169   8.165   4.176
91411W        W52832  13.243  32.941   1.902
91412W        W52833   4.365  18.618  12.051
91413W        W52834  19.764  38.534   3.846
91414W        W52835  42.894  40.327  12.488
91415W        W52836  44.362  37.343   1.807
91416W        W52837  10.717   2.391  10.436
91417W        W52838   8.834  37.558  12.433
91418W        W52839  13.341  42.809  14.915
91419W        W52840  26.080  42.929   3.335
91420W        W52841  32.953  28.128   3.854
91421W        W52842  16.252  42.375   1.244
91422W        W52843  36.481   8.896  14.984
91423W        W52844   6.350  44.947  11.954
91424W        W52845  41.982  16.080   1.884
91425W        W52846   1.898  32.637   4.180
91426W        W52847   2.380   0.464  10.434
91427W        W52848  13.707  13.226  11.438
91428W        W52849   6.916  13.160   3.187
91429W        W52850  10.146   3.388   3.258
91430W        W52851  35.531  35.419   1.752
91431W        W52852   6.214  21.514  12.892
91432W        W52853  40.348  21.093  10.010
91433W        W52854  21.184  22.175  14.853
91434W        W52855  32.041   0.815  14.297
91435W        W52856  34.562  42.913   4.802
91436W        W52857  19.218  42.394  13.401
91437W        W52858   3.858  17.782  13.812
91438W        W52859  10.640   7.783   2.329
91439W        W52860  23.103  14.274   4.305
91440W        W52861  10.209  19.751  11.924
91441W        W52862   2.284  38.071   0.250
91442W        W52863  25.088  32.587   0.845
91443W        W52864  12.746  37.029   0.726
91444W        W52865  25.577  42.840   1.746
91445W        W52866   9.216  13.769   4.619
91446W        W52867  25.082  12.779  12.019
91447W        W52868  41.358  32.509  13.474
91448W        W52869   8.285  14.664  11.128
91449W        W52870  42.282  10.810   3.328
91450W        W52871  22.167   2.331  12.856
91451W        W52872  30.510  35.067   2.225
91452W        W52873  11.277  33.600  10.961
91453W        W52874  36.522  41.854  14.431
91454W        W52875  29.618  43.450   0.877
91455W        W52876  12.265  11.245  12.868
91456W        W52877   7.768  32.528  12.866
91457W        W52878  30.116  22.700  13.407
91458W        W52879  13.763  19.682  11.866
91459W        W52880  38.351  24.987   2.806
91460W        W52881  39.552  24.019   3.870
91461W        W52882   6.243  29.639   4.775
91462W        W52883  25.000  16.793  12.867
91463W        W52884  16.262  16.119   3.314
91464W        W52885  30.990  36.539  11.381
91465W        W52886  35.561  14.192  10.911
91466W        W52887  16.623  20.164   3.312
91467W        W52888  41.942  42.313   2.887
91468W        W52889   1.755  26.107   5.260
91469W        W52890   5.365  30.542   2.292
91470W        W52891  36.050   2.888  11.464
91471W        W52892   5.721  20.700   3.238
91472W        W52893  35.569  35.940   4.136
91473W        W52894  24.498   5.917   3.329
91474W        W52895   3.386   2.377  12.377
91475W        W52896  10.783  19.667  11.873
91476W        W52897  43.965  38.482   0.881
91477W        W52898   0.320   1.377   0.276
91478W        W52899  16.073  35.982  11.895
91479W        W52900  17.172   4.838   2.821
91480W        W52901  30.943   4.759  13.917
91481W        W52902  23.991  43.878  12.346
91482W        W52903  13.716  32.493  14.833
91483W        W52904  40.515   6.277   4.258
91484W        W52905   3.898   7.407   0.312
91485W        W52906  35.509  29.979   2.741
91486W        W52907  44.878   4.300   3.199
91487W        W52908  42.325  30.527   3.200
91488W        W52909  42.799  26.070   1.445
91489W        W52910  15.685   1.242  13.355
91490W        W52911  16.795  29.106   1.414
91491W        W52912  19.060   6.416  12.527
91492W        W52913  42.496  16.589   2.246
91493W        W52914  29.563  30.620  11.592
91494W        W52915  30.604  22.677  13.045
91495W        W52916  38.375  15.277  13.433
91496W        W52917  36.858   6.299   3.374
91497W        W52918   2.949  12.352   2.416
91498W        W52919  43.881   8.899   3.763
91499W        W52920   2.246  22.505  11.923
91500W        W52921  31.005   8.817   4.259
91501W        W52922  13.160   5.270   3.673
91502W        W52923  41.297  19.688  13.543
91503W        W52924  23.023   7.854  10.530
91504W        W52925  38.361  14.679  14.359
91505W        W52926  19.198  23.196   4.321
91506W        W52927  12.785  10.715   0.355
91507W        W52928   9.879  28.553   0.320
91508W        W52929   5.800  42.025  10.037
91509W        W52930  20.063  20.527  13.952
91510W        W52931   2.264  26.159  13.020
91511W        W52932  26.635   9.655  10.533
91512W        W52933   2.754  39.916   3.820
91513W        W52934  23.571  22.132  14.920
91514W        W52935   7.886  15.598   4.633
91515W        W52936  26.101   5.437  11.525
91516W        W52937  20.074  43.464   0.826
91517W        W52938  39.544  35.377  12.915
91518W        W52939   2.390   8.768   4.243
91519W        W52940   3.779  38.450   3.846
91520W        W52941  38.944   2.934  13.374
91521W        W52942  16.127  22.652   1.707
91522W        W52943  15.220  29.633  14.903
91523W        W52944  30.518  12.702   1.698
91524W        W52945   3.397  41.975  13.486
91525W        W52946   7.346  28.121  13.503
91526W        W52947  27.991  16.226   2.808
91527W        W52948  31.462   4.907   9.613
91528W        W52949  41.409   2.934   4.773
91529W        W52950  28.140  13.696   1.746
91530W        W52951   7.388  35.919   0.786
91531W        W52952  36.854  38.960   0.364
91532W        W52953   3.424  43.845   5.318
91533W        W52954  29.920   0.329   3.271
91534W        W52955  18.612   3.358   1.755
91535W        W52956  23.990  40.542   3.273
91536W        W52957  25.544   2.743   1.281
91537W        W52958  43.986  18.590  11.464
91538W        W52959  19.667   0.893   3.664
91539W        W52960  14.279  25.176  10.412
91540W        W52961  29.028  12.353  14.948
91541W        W52962  10.287  32.630   4.275
91542W        W52963  41.791  14.316   0.483
91543W        W52964   7.852  25.638   3.353
91544W        W52965  10.264  39.394   5.607
91545W        W52966  42.026  43.306  11.372
91546W        W52967  42.478   1.305  10.916
91547W        W52968  19.198  12.736  10.012
91548W        W52969   9.395  19.537   1.841
91549W        W52970   3.918  41.863   0.798
91550W        W52971   9.236   4.347  12.523
91551W        W52972   8.221  10.303   1.728
91552W        W52973  27.504  37.942   0.410
91553W        W52974  40.459  11.777   0.795
91554W        W52975  37.514  19.179   0.391
91555W        W52976  12.117   7.700  11.555
91556W        W52977  18.585  14.605  10.978
91557W        W52978  28.665  33.510   4.355
91558W        W52979  20.213  19.743   3.631
91559W        W52980   0.814  18.082   3.631
91560W        W52981  20.765   4.745  11.382
91561W        W52982   4.207  15.148   2.687
91562W        W52983  31.129  28.513  10.627
91563W        W52984   1.964  12.170   4.309
91564W        W52985  30.055   9.237   2.762
91565W        W52986  28.517  13.756   0.775
91566W        W52987   0.923   1.965  11.400
91567W        W52988  22.536  27.449   0.469
91568W        W52989  44.940   2.933   4.705
91569W        W52990   6.282  10.304   1.711
91570W        W52991  10.372  43.403  13.912
91571W        W52992  16.211  39.828  13.061
91572W        W52993  28.545  40.539  13.808
91573W        W52994  25.529  18.179  14.783
91574W        W52995  41.462  37.411   0.925
91575W        W52996  32.529  14.253   1.791
91576W        W52997   9.307  14.796   0.857
91577W        W52998   7.409  19.042  14.841
91578W        W52999   0.816   4.941  12.376
91579W        W53000  14.647   7.716  12.864
91580W        W53001   9.888  30.471  12.565
91581W        W53002  11.321   7.211   1.402
91582W        W53003  25.680  27.584   3.764
91583W        W53004  35.932  42.891   1.842
91584W        W53005  41.459  13.183   2.792
91585W        W53006  31.968  24.011   4.776
91586W        W53007   4.733  24.642   3.351
91587W        W53008   1.827  29.168   0.780
91588W        W53009  19.119  36.585   0.761
91589W        W53010  25.086  35.932   0.774
91590W        W53011  40.809  10.769  13.538
91591W        W53012   7.180  15.250  10.983
91592W        W53013  35.988  22.144   2.188
91593W        W53014  41.529  23.520  10.593
91594W        W53015   4.409  17.197   1.781
91595W        W53016  10.332   0.302  10.562
91596W        W53017  36.894  11.721   1.275
91597W        W53018   8.162  28.982  14.353
91598W        W53019  15.696   2.756   4.258
91599W        W53020   9.296  19.572   2.695
91600W        W53021  15.703   0.322  11.910
91601W        W53022  37.560   6.764   4.742
91602W        W53023  11.352  43.767  12.932
91603W        W53024  42.466  28.549   1.223
91604W        W53025  38.965  36.092  13.433
91605W        W53026  44.373  15.672  13.982
91606W        W53027   6.309  27.062   3.265
91607W        W53028  13.821  37.544   1.906
91608W        W53029  40.024  24.214  12.411
91609W        W53030  31.003  28.945  12.384
91610W        W53031  14.813  33.070  13.380
91611W        W53032  10.159  26.088  12.874
91612W        W53033  20.168  23.191   3.718
91613W        W53034  35.493  37.063   1.445
91614W        W53035  21.165  37.418  13.515
91615W        W53036  34.016  34.607  14.967
91616W        W53037  37.059  14.103  12.475
91617W        W53038  13.351  35.002   4.745
91618W        W53039  28.941  26.639  12.021
91619W        W53040  13.178  34.396  14.889
91620W        W53041   9.266  40.837  13.890
91621W        W53042  34.092  38.487  13.952
91622W        W53043   9.867  11.810  13.457
91623W        W53044   0.397   1.303  12.384
91624W        W53045  31.570   7.186   0.367
91625W        W53046  38.986  36.474   4.197
91626W        W53047  32.952   4.813   1.733
91627W        W53048  27.105  34.371   4.173
91628W        W53049  43.452   5.829  11.020
91629W        W53050  21.513  17.573   4.122
91630W        W53051  22.577  26.965  14.003
91631W        W53052   2.425   7.300  11.013
91632W        W53053  30.096  18.624  13.917
91633W        W53054  27.111   7.882   2.730
91634W        W53055  40.886  14.188  11.382
91635W        W53056  29.047  35.412  13.453
91636W        W53057  13.819   7.294   3.662
91637W        W53058  12.620   6.304   3.776
91638W        W53059   4.719  43.997   5.218
91639W        W53060  25.188  12.226   0.430
91640W        W53061  30.150  30.494   0.389
91641W        W53062  31.525  23.159   1.352
91642W        W53063   6.306  12.709  11.591
91643W        W53064   5.204  37.496  12.453
91644W        W53065   9.784   1.442  11.975
91645W        W53066   5.384  31.948  10.142
91646W        W53067   2.297  35.490  13.025
91647W        W53068  27.496  18.667   1.804
91648W        W53069  32.119  27.548  11.501
91649W        W53070  13.677  41.349   3.282
91650W        W53071  31.936  24.511  13.441
91651W        W53072  30.164   3.453   1.375
91652W        W53073  41.901  14.717   2.698
91653W        W53074  35.505   0.487  13.399
91654W        W53075  24.713  23.579   0.839
91655W        W53076   7.693   4.702  14.991
91656W        W53077   5.238  32.556   9.598
91657W        W53078  16.099  30.921   3.318
91658W        W53079   7.729  40.813  10.485
91659W        W53080  20.599  10.306  11.975
91660W        W53081  41.317  41.486   2.377
91661W        W53082   0.857  24.976  10.480
91662W        W53083  32.624  35.561   4.191
91663W        W53084  29.651  33.095   3.159
91664W        W53085   5.716  12.167  14.976
91665W        W53086   7.376  14.712  13.358
91666W        W53087  28.577  15.097   1.390
91667W        W53088   8.881  15.706   1.925
91668W        W53089  23.629  44.392  12.871
91669W        W53090   9.339  40.972   2.805
91670W        W53091  31.594  25.526  12.459
91671W        W53092  11.263  22.634  12.468
91672W        W53093  37.457  37.991   3.165
91673W        W53094  15.107  15.756  14.295
91674W        W53095  42.881  11.325  11.609
91675W        W53096  34.896  31.008   4.709
91676W        W53097  11.645  22.727  12.577
91677W        W53098   8.222  12.618  12.958
91678W        W53099  39.381   1.931   3.769
91679W        W53100  44.783  43.341   2.668
91680W        W53101   2.297  40.824  14.818
91681W        W53102  19.132  24.037  11.086
91682W        W53103  41.386  14.615   2.278
91683W        W53104   1.357  23.630   3.286
91684W        W53105   1.463  37.866  12.913
91685W        W53106  38.440   4.772  13.463
91686W        W53107  18.167   0.953  12.914
91687W        W53108   4.796   0.891   3.721
91688W        W53109  22.626  23.182   4.253
91689W        W53110  29.487  27.953   0.826
91690W        W53111  28.112  24.121   4.290
91691W        W53112  41.871  40.990   4.122
91692W        W53113  25.501  11.729  10.458
91693W        W53114  42.367  33.957  14.303
91694W        W53115  11.316  15.105   2.245
91695W        W53116  10.247  34.989  11.925
91696W        W53117  11.302  20.721   2.293
91697W        W53118   5.386   2.889   2.196
91698W        W53119  20.749  28.963   4.661
91699W        W53120  23.051  28.964   0.775
91700W        W53121  14.234  35.497   1.427
91701W        W53122  24.708   1.476   1.342
91702W        W53123  34.492  41.528   3.317
91703W        W53124  24.988  38.465   3.792
91704W        W53125  25.064   7.672  13.841
91705W        W53126   3.765  43.358  13.860
91706W        W53127  42.777  19.768   2.879
91707W        W53128  28.449   7.383  12.499
91708W        W53129  35.431   1.767   0.773
91709W        W53130  34.077  14.291  13.840
91710W        W53131  39.975   0.831   2.327
91711W        W53132   3.319  30.543  13.805
91712W        W53133  35.538  30.454   1.307
91713W        W53134  43.831  12.824  11.035
91714W        W53135  11.309  17.755  10.894
91715W        W53136   3.949   7.787   3.680
91716W        W53137  30.150  41.428   4.764
91717W        W53138  18.099  23.734   1.695
91718W        W53139  34.370   3.229   2.373
91719W        W53140  44.839  38.325   2.287
91720W        W53141   8.295   6.830   2.390
91721W        W53142  37.427  29.137  11.886
91722W        W53143  22.714   2.945   1.774
91723W        W53144  19.157  33.078   2.337
91724W        W53145  43.855  21.207  11.891
91725W        W53146  17.100  15.670  12.462
91726W        W53147   0.746  41.497   1.761
91727W        W53148  10.377  15.102  12.479
91728W        W53149   2.894  10.672   3.744
91729W        W53150  28.467   1.276   3.206
91730W        W53151  14.596   8.848   2.767
91731W        W53152  10.850  28.980  12.408
91732W        W53153  44.465  38.880  10.622
91733W        W53154   0.467  21.587  12.403
91734W        W53155  43.981  28.582   3.836
91735W        W53156   7.174   1.359   9.540
91736W        W53157  40.019  37.523  12.481
91737W        W53158  19.073  35.955   3.782
91738W        W53159  24.521  25.590   2.211
91739W        W53160  19.083  43.967  14.886
91740W        W53161  15.722  39.549  12.571
91741W        W53162  11.700  24.625   3.210
91742W        W53163  37.508   7.257  13.934
91743W        W53164  29.010  11.334   4.350
91744W        W53165  17.137   0.337  10.963
91745W        W53166  28.971  32.916  12.545
91746W        W53167   4.260  28.165   1.227
91747W        W53168   8.244  32.044   0.876
91748W        W53169   1.463  13.687  12.910
91749W        W53170  18.779   6.350  12.421
91750W        W53171   3.318  37.888   1.270
91751W        W53172  42.843  15.592   4.746
91752W        W53173  26.131   1.866   1.849
91753W        W53174  35.029  36.069   0.808
91754W        W53175   4.759  32.972   1.443
91755W        W53176  36.373   2.299   9.978
91756W        W53177  10.352  12.624   1.796
91757W        W53178  17.599   8.791  10.118
91758W        W53179  33.977  16.647   4.284
91759W        W53180   1.305  36.018  12.419
91760W        W53181  23.677  32.432   1.408
91761W        W53182  39.927  14.649  14.430
91762W        W53183   5.699  38.944   9.495
91763W        W53184  21.036   4.849  13.484
91764W        W53185  36.566  19.064  13.462
91765W        W53186  16.131  41.450   3.854
91766W        W53187   3.929  28.955  10.143
91767W        W53188   0.862  20.097  11.057
91768W        W53189  33.899  14.824  12.940
91769W        W53190  18.182  40.875   3.175
91770W        W53191   1.343   1.251  11.920
91771W        W53192  22.594  33.884   0.927
91772W        W53193  10.851  24.069  11.892
91773W        W53194  37.341  17.785   0.423
91774W        W53195   6.214  34.097  12.016
91775W        W53196  38.957  10.793   2.670
91776W        W53197  34.944  42.489   3.274
91777W        W53198  18.093  25.531   3.323
91778W        W53199  16.173  20.577  11.951
91779W        W53200   5.844   5.366   0.919
91780W        W53201   1.402   8.176  12.825
91781W        W53202   1.924   0.831   0.354
91782W        W53203  15.265  42.878  13.874
91783W        W53204  18.546  19.562  12.363
91784W        W53205  37.068  26.643   4.185
91785W        W53206  38.331  12.810   3.363
91786W        W53207  26.136  25.166  12.928
91787W        W53208  26.480  18.687  11.915
91788W        W53209  23.571  42.298  10.611
91789W        W53210  15.600  41.482   2.707
91790W        W53211  24.135  10.721  10.975
91791W        W53212   0.895  36.557   2.827
91792W        W53213  11.792  15.099   1.290
91793W        W53214  40.922  13.241  12.443
91794W        W53215  21.722  44.397  10.501
91795W        W53216  27.616   7.259   2.244
91796W        W53217  10.669  35.908  13.019
91797W        W53218  33.496  27.065  11.998
91798W        W53219  30.052   6.792  12.982
91799W        W53220  30.046  19.103   4.223
91800W        W53221   9.745   4.880  13.974
91801W        W53222  31.094  31.143   1.244
91802W        W53223  32.956   9.351   2.309
91803W        W53224  32.412  14.694   1.239
91804W        W53225  44.263  36.477  11.432
91805W        W53226  37.083  24.501  12.869
91806W        W53227  27.186  22.207   4.785
91807W        W53228  13.723   5.769   3.229
91808W        W53229  31.536  36.851   3.182
91809W        W53230  37.966  35.516  14.963
91810W        W53231  20.076  42.816  12.049
91811W        W53232  42.329  14.285   9.560
91812W        W53233  23.155  41.862  14.899
91813W        W53234  44.773  36.062  12.997
91814W        W53235   5.349   7.770   3.681
91815W        W53236  21.156  17.600   0.242
91816W        W53237  31.068  44.973  10.977
91817W        W53238  10.357  24.657  12.992
91818W        W53239  34.000  21.523  12.948
91819W        W53240  17.285   7.315  12.886
91820W        W53241  42.856   8.289   3.349
91821W        W53242  27.968  32.563   4.604
91822W        W53243  14.672   8.285  13.917
91823W        W53244   4.241  30.557   0.800
91824W        W53245  34.475  39.846   4.800
91825W        W53246  23.206  28.083   0.869
91826W        W53247   0.915   5.359   3.768
91827W        W53248  27.173   7.784  11.922
91828W        W53249  23.529  11.212  12.089
91829W        W53250  34.420  13.177  14.980
91830W        W53251  15.660  29.448  13.393
91831W        W53252  41.982  15.288   4.832
91832W        W53253  20.177  24.975   2.250
91833W        W53254  19.058  25.628   1.254
91834W        W53255  11.652  44.914  13.913
91835W        W53256  20.580  43.773   2.703
91836W        W53257   8.700   6.899  13.519
91837W        W53258  14.319  18.772  13.933
91838W        W53259   4.874  25.152   0.368
91839W        W53260  34.529  20.063  12.468
91840W        W53261   9.175  27.506   3.639
91841W        W53262  16.607  20.545  12.953
91842W        W53263  20.107   1.310   2.364
91843W        W53264   4.875  33.424  14.395
91844W        W53265  23.571  12.682  10.930
91845W        W53266  36.943  12.210   0.298
91846W        W53267  28.577   4.699  10.525
91847W        W53268  39.958  30.983  10.415
91848W        W53269   1.934   4.207   1.778
91849W        W53270  16.810  40.883  11.602
91850W        W53271  30.165   3.910   4.812
91851W        W53272  34.612  28.043   0.458
91852W        W53273  37.460  25.969  14.865
91853W        W53274  10.790  25.084  13.979
91854W        W53275  44.356  27.574  11.970
91855W        W53276   0.477  14.698   3.261
91856W        W53277  12.211  39.474   2.179
91857W        W53278  10.691  42.800  10.941
91858W        W53279   1.388  16.206   4.344
91859W        W53280  34.997  24.192   2.229
91860W        W53281  27.987  37.922  10.540
91861W        W53282  27.012  15.620   1.369
91862W        W53283  37.445   4.783  10.551
91863W        W53284  21.133  21.086   0.253
91864W        W53285  40.982  42.778  13.857
91865W        W53286  37.906   1.945   0.461
91866W        W53287   6.324  18.711  11.459
91867W        W53288  15.281   2.466  14.777
91868W        W53289  33.589  12.274  11.472
91869W        W53290  33.426   1.462  10.516
91870W        W53291  34.951  30.443   1.431
91871W        W53292  29.137   0.327  14.326
91872W        W53293  44.782  19.177  11.476
91873W        W53294  33.507   5.766   3.340
91874W        W53295  37.895   8.663  14.422
91875W        W53296  14.237  12.228  12.540
91876W        W53297  14.268  43.322  14.449
91877W        W53298  13.343  34.484  13.064
91878W        W53299  13.160   0.471   2.283
91879W        W53300  25.641  29.175  12.507
91880W        W53301  27.589   2.928   2.758
91881W        W53302  22.206  41.367  10.909
91882W        W53303  25.549  13.813   4.179
91883W        W53304  37.937  36.472  14.392
91884W        W53305  41.447   8.398  10.471
91885W        W53306   6.227  34.382  11.510
91886W        W53307  26.629  27.172  11.049
91887W        W53308   9.803  12.168  10.590
91888W        W53309  28.596   7.227  12.972
91889W        W53310  31.634  20.161   1.769
91890W        W53311  25.502  30.594   4.178
91891W        W53312   8.665  31.632   3.836
91892W        W53313  44.494  40.013  12.042
91893W        W53314  30.113  21.248   1.297
91894W        W53315  39.454   5.297   0.266
91895W        W53316  39.879  37.435   0.883
91896W        W53317  21.734  16.264  12.470
91897W        W53318  16.749  34.061  13.920
91898W        W53319  15.763  23.712   3.182
91899W        W53320   9.650   1.325  11.556
91900W        W53321  29.160  10.150   1.833
91901W        W53322  23.655  38.358   1.306
91902W        W53323  27.479  29.174  12.568
91903W        W53324  42.953  22.546  14.912
91904W        W53325   1.885  22.740  10.509
91905W        W53326  41.956  13.824   3.281
91906W        W53327  22.693  38.939   0.811
91907W        W53328  33.080  39.521  10.589
91908W        W53329   8.882  14.326  14.973
91909W        W53330  44.326  29.021   4.308
91910W        W53331  23.503  37.509   2.698
91911W        W53332  28.960  41.952  11.372
91912W        W53333  42.029   5.272   3.656
91913W        W53334  40.445   6.770  14.819
91914W        W53335  13.699  37.975   2.368
91915W        W53336  43.978  41.483  11.519
91916W        W53337  10.816   0.402  12.407
91917W        W53338   8.853  24.654   2.349
91918W        W53339  27.473   5.879  14.450
91919W        W53340  11.348  29.552  12.034
91920W        W53341  21.608  16.092  12.890
91921W        W53342  22.614  15.605   2.300
91922W        W53343  31.044  10.362  11.606
91923W        W53344   9.809   1.866  11.932
91924W        W53345  24.025   5.852   4.319
91925W        W53346  42.299  42.848  14.448
91926W        W53347   3.816  27.082  11.378
91927W        W53348  35.474  33.006   1.379
91928W        W53349  32.560  27.963  14.342
91929W        W53350  27.554   4.324   1.372
91930W        W53351  30.494   6.265  12.513
91931W        W53352  15.603  21.073   4.194
91932W        W53353   7.749  24.665  11.879
91933W        W53354  29.564   0.313   0.481
91934W        W53355  27.623  38.564   4.193
91935W        W53356  43.945  10.223   3.251
91936W        W53357  29.940  29.539   1.419
91937W        W53358  28.029   4.225  12.989
91938W        W53359   9.381  19.076  11.977
91939W        W53360  36.501   1.772  13.026
91940W        W53361  44.429  21.526  11.505
91941W        W53362  25.120   0.906  13.332
91942W        W53363  11.325  37.537  12.492
91943W        W53364  31.984   1.911   2.331
91944W        W53365  37.430  43.897  13.450
91945W        W53366  40.549  32.616   1.424
91946W        W53367   1.799  42.392  14.321
91947W        W53368  10.349   5.803  14.295
91948W        W53369  32.453  18.212   3.729
91949W        W53370   2.419  30.441   2.179
91950W        W53371   5.438  17.613  14.875
91951W        W53372  30.090   0.459  12.367
91952W        W53373  39.834  37.371  12.053
91953W        W53374   6.264  17.636   4.614
91954W        W53375  33.500   8.378  13.998
91955W        W53376  21.123  29.171  10.897
91956W        W53377  37.022   2.955   5.761
91957W        W53378  14.170  31.927  12.358
91958W        W53379  32.014  26.159  11.121
91959W        W53380   7.849  27.612  14.918
91960W        W53381  15.228  12.182   0.840
91961W        W53382  11.842  20.765  14.277
91962W        W53383  20.678  26.120   3.177
91963W        W53384  21.142  40.527  10.625
91964W        W53385   0.827  30.028   4.755
91965W        W53386  25.115   1.266  13.452
91966W        W53387  29.954   1.892  13.064
91967W        W53388  26.604  11.751   1.728
91968W        W53389  32.980  34.599  12.494
91969W        W53390  12.340  43.323  13.488
91970W        W53391  38.998  30.431   3.814
91971W        W53392  13.604  13.278  10.915
91972W        W53393  22.128  43.781  14.952
91973W        W53394   8.178  37.534  14.879
91974W        W53395  31.128  17.689  13.050
91975W        W53396  29.519  22.676  10.949
91976W        W53397  14.183   5.813   1.898
91977W        W53398   2.747  28.459  11.861
91978W        W53399  15.189   6.702   3.299
91979W        W53400  28.944  34.575   3.206
91980W        W53401  11.734  25.490  11.466
91981W        W53402  18.703   1.429   1.842
91982W        W53403  18.272  31.133   2.210
91983W        W53404  38.934  35.093   2.902
91984W        W53405  18.115  19.709  13.482
91985W        W53406  31.133  25.541   1.378
91986W        W53407   6.760  13.164   0.910
91987W        W53408  29.995  32.615   1.698
91988W        W53409  39.473   8.866  11.050
91989W        W53410  33.406  25.032   1.438
91990W        W53411  39.879  34.068   3.673
91991W        W53412  40.896  15.329   3.331
91992W        W53413  28.588  38.020   1.889
91993W        W53414  23.507  18.142   1.766
91994W        W53415  25.005   2.251   3.164
91995W        W53416  15.690  29.151  10.069
91996W        W53417   3.873  23.587   1.330
91997W        W53418  26.185   2.330  12.839
91998W        W53419  29.487  16.788   3.753
91999W        W53420  41.329  27.447   1.786
92000W        W53421   4.434  38.932  11.412
92001W        W53422  32.415   6.243   9.992
92002W        W53423  26.182  20.669   0.384
92003W        W53424  33.380   3.828   1.723
92004W        W53425  23.680  29.526   2.255
92005W        W53426   0.313  42.840   2.697
92006W        W53427  13.634   9.378   3.857
92007W        W53428  25.506   7.259  13.360
92008W        W53429  29.141  29.023   4.271
92009W        W53430  10.825  43.394   4.135
92010W        W53431  24.621  35.873   3.837
92011W        W53432  14.811   4.899   3.639
92012W        W53433  26.118  41.515   0.768
92013W        W53434  18.738  41.034  12.398
92014W        W53435  36.587  21.631  13.921
92015W        W53436  18.125  21.044   4.211
92016W        W53437  16.704   4.419  12.926
92017W        W53438  41.912  36.016  11.874
92018W        W53439  39.490  12.163  11.455
92019W        W53440  27.053  44.824  13.519
92020W        W53441  32.631  27.051  11.459
92021W        W53442  22.635   4.884  11.878
92022W        W53443  13.253  11.796   3.358
92023W        W53444   4.811  24.146  13.343
92024W        W53445  28.503  12.734  13.362
92025W        W53446   2.909  22.652  11.387
92026W        W53447  33.520  29.086   0.261
92027W        W53448  36.374  20.682   4.739
92028W        W53449  20.189   3.371   5.270
92029W        W53450  11.736  20.682  13.346
92030W        W53451  32.088   8.694   2.415
92031W        W53452  20.132   3.759  13.311
92032W        W53453   1.324   4.908  13.822
92033W        W53454  33.410  42.489  10.457
92034W        W53455  22.079  17.560  10.548
92035W        W53456   2.782   8.788   1.351
92036W        W53457  20.163   2.828  10.594
92037W        W53458  10.368  19.245   4.634
92038W        W53459   8.373   3.748  11.463
92039W        W53460  32.618  26.090  12.343
92040W        W53461  36.976   3.333  13.878
92041W        W53462   3.935  28.552  12.983
92042W        W53463  21.643  21.229   4.742
92043W        W53464  26.954  40.437  12.860
92044W        W53465  11.826  15.093   3.845
92045W        W53466   3.939   3.236   1.885
92046W        W53467  25.673  34.510   0.286
92047W        W53468  30.566  38.951   1.724
92048W        W53469  28.069  21.625   1.310
92049W        W53470   1.398   5.278  12.358
92050W        W53471  10.774   8.325   1.729
92051W        W53472  15.281   0.986  14.331
92052W        W53473  42.429   7.394   1.357
92053W        W53474  41.927   6.257  11.372
92054W        W53475  12.664  29.993   2.179
92055W        W53476  11.211  13.298  13.537
92056W        W53477   7.866  36.352  11.986
92057W        W53478  27.126  40.851  14.297
92058W        W53479  17.644  39.014   0.817
92059W        W53480  29.558  14.676  13.496
92060W        W53481  10.715  37.446   2.204
92061W        W53482  44.298   9.332   2.342
92062W        W53483   0.756  15.690   0.750
92063W        W53484  18.061  44.403  12.521
92064W        W53485  16.116  18.655  13.440
92065W        W53486  36.040  31.021  12.532
92066W        W53487  40.903  26.185   0.828
92067W        W53488  27.631  27.107   1.373
92068W        W53489  16.273  14.670   1.233
92069W        W53490  23.570  10.844   0.766
92070W        W53491  29.028  12.142  10.100
92071W        W53492  32.091  27.616  12.355
92072W        W53493  41.820  17.624  12.463
92073W        W53494  16.710  10.633  13.897
92074W        W53495  19.724  18.270  14.294
92075W        W53496  34.008  11.742  11.918
92076W        W53497  27.174  33.105  13.040
92077W        W53498   0.852  29.538  13.436
92078W        W53499   7.828  13.713   1.258
92079W        W53500   3.745   1.465  10.015
92080W        W53501  34.585  10.651   4.252
92081W        W53502  42.391  43.484   4.318
92082W        W53503  29.607  23.674   5.168
92083W        W53504  13.228  15.609  12.473
92084W        W53505  34.516  24.483   2.291
92085W        W53506  41.322  41.355  11.980
92086W        W53507  32.573  31.897  14.899
92087W        W53508  33.609  20.154  10.548
92088W        W53509  30.965  27.964   2.825
92089W        W53510  40.314   9.810  12.901
92090W        W53511  23.996  41.936  14.489
92091W        W53512  34.482   2.330   4.324
92092W        W53513  38.406   3.815  11.920
92093W        W53514  34.575  13.657  14.351
92094W        W53515  17.254  38.361   3.297
92095W        W53516  39.055  41.983   2.746
92096W        W53517  17.269  17.696   4.832
92097W        W53518   4.936  20.192  14.770
92098W        W53519  44.369   3.460   3.209
92099W        W53520  36.891  16.255   2.401
92100W        W53521  19.217  12.658   4.176
92101W        W53522  36.360  42.917   4.330
92102W        W53523   6.704  31.080  11.027
92103W        W53524  17.612   0.328   4.195
92104W        W53525  43.420  40.465   4.223
92105W        W53526  15.242  32.108  10.627
92106W        W53527  21.633   6.737   1.226
92107W        W53528   4.433  33.575   0.835
92108W        W53529   0.820  25.568  12.068
92109W        W53530  18.165  12.730  13.954
92110W        W53531  21.220  31.110  11.107
92111W        W53532  33.020  40.365  14.869
92112W        W53533  18.647  19.765   3.194
92113W        W53534  42.475  19.678  14.894
92114W        W53535  37.353  38.819  14.794
92115W        W53536  42.293  23.595   1.864
92116W        W53537  34.881  19.051  13.791
92117W        W53538   1.268  30.507   1.706
92118W        W53539   8.389   3.260  13.913
92119W        W53540  41.980  42.815  11.597
92120W        W53541  33.129  13.142   5.735
92121W        W53542  22.553  32.937   0.842
92122W        W53543  16.112  23.138  10.465
92123W        W53544   1.370  30.535   2.704
92124W        W53545  27.106  24.079   4.783
92125W        W53546   0.908   7.228  13.978
92126W        W53547  28.023  15.158   1.823
92127W        W53548  38.950   8.811   1.448
92128W        W53549  26.190  10.876   0.262
92129W        W53550  23.032  41.010  12.536
92130W        W53551   7.791  35.369  13.428
92131W        W53552   1.779  31.468  13.030
92132W        W53553   8.811  36.492   2.836
92133W        W53554  28.535  22.052   1.393
92134W        W53555  23.648  29.631  14.424
92135W        W53556  42.962   9.353  11.609
92136W        W53557   2.959  22.649   0.764
92137W        W53558   5.373  35.358   3.370
92138W        W53559  22.079   1.755   4.703
92139W        W53560  42.780   0.781  10.613
92140W        W53561  24.482  15.772   4.164
92141W        W53562  16.587   6.883  10.952
92142W        W53563  20.748  44.448  12.058
92143W        W53564  41.818  12.720  13.476
92144W        W53565   8.845  10.804  13.335
92145W        W53566  44.953  42.518  11.120
92146W        W53567  11.230  10.657  13.458
92147W        W53568  27.557  28.085  12.083
92148W        W53569  19.542  21.244   4.741
92149W        W53570  29.163  42.894   2.789
92150W        W53571  31.418  28.117   1.402
92151W        W53572  40.454   0.339   0.394
92152W        W53573  27.192  41.999   4.330
92153W        W53574  30.438  42.455  12.496
92154W        W53575  41.905  26.659   2.192
92155W        W53576  28.138  25.669   1.339
92156W        W53577  43.455  28.583   2.268
92157W        W53578  20.723  18.560   3.745
92158W        W53579  37.886  21.665   0.793
92159W        W53580   5.193  16.724   3.790
92160W        W53581  26.018  25.008  10.984
92161W        W53582  22.733   6.703  11.427
92162W        W53583  33.046  13.693  11.974
92163W        W53584  14.185   8.246  14.948
92164W        W53585  37.047  23.562   1.295
92165W        W53586  15.763   5.828   1.439
92166W        W53587   8.383  35.868  12.567
92167W        W53588  12.123  32.034   3.162
92168W        W53589  25.475  35.585  11.965
92169W        W53590  42.860  33.019  12.466
92170W        W53591   2.760  25.686  12.858
92171W        W53592  12.802  42.791  12.863
92172W        W53593  18.545  21.105  14.382
92173W        W53594   9.686  21.161   0.762
92174W        W53595  28.505  28.174  12.016
92175W        W53596  36.390   4.393   3.211
92176W        W53597  15.209  17.171  12.524
92177W        W53598  40.315   9.700   0.317
92178W        W53599   6.910  10.219   4.838
92179W        W53600  38.464  24.566   1.771
92180W        W53601  20.610  37.858   3.821
92181W        W53602  20.603   1.245   2.252
92182W        W53603  25.549  22.021  14.787
92183W        W53604  10.371  16.738   4.667
92184W        W53605   4.819   7.823   2.771
92185W        W53606  25.053  29.490  11.446
92186W        W53607  28.630  29.520   1.897
92187W        W53608  20.550  35.373  14.494
92188W        W53609  19.693  43.433   3.850
92189W        W53610   6.878   7.723   1.247
92190W        W53611   9.793  16.209   3.759
92191W        W53612  12.772  32.106   5.090
92192W        W53613  31.540  14.814  14.020
92193W        W53614   1.343  13.287  13.027
92194W        W53615  26.477  32.938   2.411
92195W        W53616   8.308   3.803  14.906
92196W        W53617  15.790  40.868   2.308
92197W        W53618   7.881  27.465  13.961
92198W        W53619  35.537  18.206   3.161
92199W        W53620  12.153  18.071  10.616
92200W        W53621   0.760  43.273   0.920
92201W        W53622   3.285  14.188  12.353
92202W        W53623  25.706  30.122   1.353
92203W        W53624  27.176  27.970   1.218
92204W        W53625  10.349  35.002  13.430
92205W        W53626  28.163  16.759   0.345
92206W        W53627   5.420  26.160  13.490
92207W        W53628  27.584  40.862  12.860
92208W        W53629  32.565  12.660   1.216
92209W        W53630  10.801  36.013  13.399
92210W        W53631  19.594  44.400  10.458
92211W        W53632  36.880  39.836   1.367
92212W        W53633  23.084  43.810   0.340
92213W        W53634   1.420  20.660   2.415
92214W        W53635  24.098  35.581  13.382
92215W        W53636  40.940  24.174   3.194
92216W        W53637  40.047  42.333  12.367
92217W        W53638  11.635  43.273   3.265
92218W        W53639  35.529  44.450   4.191
92219W        W53640  24.229  21.671  14.455
92220W        W53641  38.389  43.285   3.810
92221W        W53642  19.660   0.862   2.338
92222W        W53643  35.565  43.903   0.903
92223W        W53644   1.974  25.504  11.897
92224W        W53645   1.412  27.679  12.835
92225W        W53646  10.878   8.348   3.832
92226W        W53647  21.630  19.584  12.437
92227W        W53648  27.990   1.459  11.510
92228W        W53649  38.404  29.983  10.633
92229W        W53650  14.742  44.295   2.296
92230W        W53651  34.088   8.168  14.445
92231W        W53652   8.233   4.269   3.770
92232W        W53653  37.960  25.612  14.942
92233W        W53654  28.087  13.293   3.228
92234W        W53655  33.616   5.761   0.936
92235W        W53656  15.605  30.104   3.174
92236W        W53657  43.413  27.947  14.963
92237W        W53658  16.590  24.992  12.847
92238W        W53659  14.173   9.695  13.337
92239W        W53660   2.286  19.192  12.376
92240W        W53661   6.298  40.513  13.420
92241W        W53662   3.406  21.054  11.040
92242W        W53663  25.662  30.138   2.866
92243W        W53664  15.228   3.844  14.330
92244W        W53665  37.468  42.294  14.836
92245W        W53666  42.849   4.711   3.844
92246W        W53667  33.396  27.039   1.215
92247W        W53668  37.466  16.578  10.576
92248W        W53669   3.805  29.993   2.889
92249W        W53670  41.849   8.760   2.837
92250W        W53671  23.081  44.309   1.772
92251W        W53672   4.271  27.447   9.926
92252W        W53673  13.281  11.243  10.544
92253W        W53674  35.590  22.019  13.487
92254W        W53675  24.014  24.589  10.988
92255W        W53676  20.217  38.484  11.884
92256W        W53677  29.426  42.010   0.389
92257W        W53678   9.790   9.881  14.972
92258W        W53679   7.386  25.043  13.522
92259W        W53680  12.135  10.261  11.598
92260W        W53681  37.519   1.745  14.305
92261W        W53682  23.081  18.771   0.422
92262W        W53683  20.572  19.741  12.063
92263W        W53684   4.788  38.506  12.871
92264W        W53685  32.889  19.712  14.880
92265W        W53686  23.686  21.064   2.347
92266W        W53687  30.537  43.305   2.404
92267W        W53688   6.306  35.993   0.292
92268W        W53689  41.404  43.852  13.860
92269W        W53690   9.881  11.725  12.044
92270W        W53691  29.106  42.984  11.466
92271W        W53692  36.917  15.224   9.986
92272W        W53693  28.563  15.674   0.479
92273W        W53694  15.627   1.241   1.733
92274W        W53695  32.529  23.038   3.735
92275W        W53696  24.582  30.513  14.852
92276W        W53697  37.060  29.531  11.978
92277W        W53698   1.427  25.070   3.313
92278W        W53699   0.483  33.119   3.646
92279W        W53700  43.861  42.525   4.248
92280W        W53701  20.687  19.093   1.752
92281W        W53702  10.275  21.614  11.495
92282W        W53703  38.953  36.852   3.203
92283W        W53704  28.145  14.232   3.244
92284W        W53705  30.602  10.331  14.398
92285W        W53706  35.089  23.134   1.867
92286W        W53707  25.100  39.929   2.234
92287W        W53708  22.719  21.177   2.744
92288W        W53709   9.727  12.855   4.158
92289W        W53710  39.871  18.241  12.415
92290W        W53711   5.724  24.120   1.321
92291W        W53712   6.843   6.184   4.728
92292W        W53713  32.015  32.921   4.690
92293W        W53714  40.526  41.472   2.238
92294W        W53715   6.360  23.134   3.270
92295W        W53716  26.005  30.434   3.161
92296W        W53717  41.957  37.341   4.751
92297W        W53718   3.367  42.925  14.779
92298W        W53719  24.642   6.231   2.886
92299W        W53720  35.964  17.778  13.866
92300W        W53721  15.253  25.544  12.342
92301W        W53722  18.746  29.162   2.850
92302W        W53723  31.492  33.563   2.750
92303W        W53724  21.601  42.338   3.273
92304W        W53725  44.261  24.034   1.741
92305W        W53726   6.820  28.669  11.935
92306W        W53727  37.526  37.473   5.131
92307W        W53728  13.314  35.024  13.871
92308W        W53729  34.508  15.245  11.125
92309W        W53730  19.116   5.694  11.052
92310W        W53731   0.789  25.532  14.515
92311W        W53732  29.613  42.916   4.700
92312W        W53733  39.393  12.771   5.802
92313W        W53734  17.695   7.182   3.747
92314W        W53735   0.852  31.498  12.032
92315W        W53736  27.956  26.466  10.934
92316W        W53737  35.573   3.453  11.434
92317W        W53738   6.351  29.433   2.208
92318W        W53739  20.089  27.501  13.031
92319W        W53740   5.857   2.251  14.451
92320W        W53741  44.418  31.575   0.930
92321W        W53742  14.606  11.756   2.811
92322W        W53743  15.157   1.448  14.855
92323W        W53744  39.989  19.621   0.397
92324W        W53745   3.818  31.906   0.415
92325W        W53746  41.453  42.835   5.120
92326W        W53747  36.087  11.762  11.571
92327W        W53748  16.663  25.209   0.846
92328W        W53749  42.778  10.777   4.711
92329W        W53750  24.213   0.330  11.590
92330W        W53751  24.995  22.103   0.467
92331W        W53752   5.361   5.800   1.412
92332W        W53753   9.694  37.359   0.763
92333W        W53754   2.280   4.934   1.784
92334W        W53755  39.929  41.990  13.515
92335W        W53756  23.084  14.700   1.411
92336W        W53757  29.552  36.852   0.295
92337W        W53758   3.365  16.290   2.307
92338W        W53759  28.571  31.139  13.800
92339W        W53760  17.713   8.666   3.680
92340W        W53761  17.730  20.032   1.348
92341W        W53762   3.749  17.102   3.259
92342W        W53763   7.742   9.243  13.860
92343W        W53764  39.961  41.413  11.377
92344W        W53765  36.057  22.628   2.369
92345W        W53766  26.025   3.954  11.938
92346W        W53767  25.139  18.177  10.512
92347W        W53768  19.629  36.402   1.745
92348W        W53769  15.329  10.805  13.365
92349W        W53770  14.693   9.854   3.794
92350W        W53771  12.800  23.101  14.454
92351W        W53772  29.970   7.245  13.426
92352W        W53773  13.140   7.195  13.324
92353W        W53774   4.774  29.972   1.447
92354W        W53775   0.901  26.996  11.601
92355W        W53776  43.789  34.034  10.937
92356W        W53777  44.381   2.798  14.022
92357W        W53778   4.327  22.551   2.865
92358W        W53779  12.181   4.408  13.397
92359W        W53780  33.099  41.537  13.334
92360W        W53781  12.154  34.916   3.693
92361W        W53782  31.465  34.878  11.070
92362W        W53783   6.325  34.018   1.821
92363W        W53784  24.026   0.396  14.903
92364W        W53785  34.096  34.924  11.537
92365W        W53786  37.988  14.262   1.721
92366W        W53787   2.887  14.649  14.494
92367W        W53788  25.142   1.795  14.361
92368W        W53789   2.892  22.010   1.227
92369W        W53790  20.257   7.717   2.216
92370W        W53791  22.534  29.481   5.147
92371W        W53792  23.667  20.599  11.542
92372W        W53793  25.030  43.848   3.726
92373W        W53794   7.772  35.359   4.248
92374W        W53795   2.836   7.791   2.871
92375W        W53796  13.616  20.535   4.211
92376W        W53797  35.043  12.749  10.951
92377W        W53798  39.926  20.118  14.792
92378W        W53799  30.107  11.641   9.940
92379W        W53800   1.929  12.227   2.791
92380W        W53801   5.743  12.182  11.474
92381W        W53802  26.569  25.983   4.627
92382W        W53803  27.688  11.682  14.338
92383W        W53804  36.050   3.833  10.622
92384W        W53805  26.556  44.914   3.650
92385W        W53806   7.406   8.870   3.654
92386W        W53807  27.034  14.589  12.468
92387W        W53808  26.458   5.925  14.389
92388W        W53809  38.554  10.274  12.442
92389W        W53810  10.784  25.150  12.418
92390W        W53811  13.144  44.003  11.867
92391W        W53812  40.389  31.937  10.082
92392W        W53813  30.445  21.541  11.018
92393W        W53814  18.285  13.168  14.935
92394W        W53815  10.310  40.544  13.356
92395W        W53816  13.180   3.407  10.634
92396W        W53817  39.939  12.349  12.517
92397W        W53818   3.292  33.120   4.199
92398W        W53819  18.212  35.861   2.823
92399W        W53820  34.962   0.435   4.675
92400W        W53821  18.267  42.903  11.918
92401W        W53822  11.750  21.148  12.385
92402W        W53823   5.218  31.581   3.644
92403W        W53824   3.336  20.113   1.897
92404W        W53825   6.355  10.638   4.642
92405W        W53826  27.198   7.776  10.640
92406W        W53827  42.968  22.682   1.808
92407W        W53828   1.483  36.523   1.763
92408W        W53829  42.458  43.002   1.449
92409W        W53830  24.096  24.579  14.910
92410W        W53831  38.048  41.377   0.261
92411W        W53832  36.541  12.735  11.972
92412W        W53833  31.446   8.324  10.943
92413W        W53834  31.499  41.521  10.952
92414W        W53835  38.824  12.243  12.574
92415W        W53836   4.354  11.127  11.436
92416W        W53837  30.008   9.652   1.921
92417W        W53838  18.178  20.653   3.372
92418W        W53839  14.750  36.373  14.797
92419W        W53840  36.035  42.313   4.252
92420W        W53841   7.258  18.081  12.555
92421W        W53842  39.903  21.715  12.845
92422W        W53843  44.758  21.092  14.801
92423W        W53844  17.280  43.809   1.907
92424W        W53845  17.715  15.306  11.465
92425W        W53846  36.000  27.013   0.795
92426W        W53847   4.324   8.891   1.858
92427W        W53848   4.243  27.677   2.241
92428W        W53849  12.778  11.355   2.353
92429W        W53850  29.955  10.155  11.513
92430W        W53851   0.405  23.550  14.478
92431W        W53852  27.086  40.834   4.780
92432W        W53853  40.546  18.158  10.437
92433W        W53854  19.116  28.021   3.254
92434W        W53855  16.678  11.295   2.892
92435W        W53856  30.118   3.723  13.533
92436W        W53857  30.920  29.993   3.843
92437W        W53858  23.228  25.638  12.457
92438W        W53859   2.323  26.690  12.379
92439W        W53860  43.826  22.115  11.371
92440W        W53861  37.427   0.466   4.338
92441W        W53862  20.157  37.530  10.462
92442W        W53863  37.007  39.475   1.422
92443W        W53864  30.106   1.290   0.370
92444W        W53865  13.726  36.845  12.842
92445W        W53866  11.218  11.285   0.963
92446W        W53867  29.508  15.282  12.428
92447W        W53868  29.015  15.190  10.571
92448W        W53869  18.163  15.660  12.835
92449W        W53870   0.376  34.929  14.404
92450W        W53871  22.164  20.091   1.309
92451W        W53872  39.921  11.805   2.273
92452W        W53873  35.090  36.347   0.918
92453W        W53874  20.550  34.543   2.195
92454W        W53875  21.667  17.764   3.341
92455W        W53876  41.900   3.436  12.488
92456W        W53877  27.133  14.735   2.801
92457W        W53878  30.010  34.418  13.025
92458W        W53879  42.464  22.684  14.935
92459W        W53880  39.338   5.337  11.598
92460W        W53881   2.757  10.270  11.959
92461W        W53882  29.972  32.995  12.578
92462W        W53883  12.809  32.132  13.981
92463W        W53884  10.241   2.876  13.503
92464W        W53885  34.078  30.463   4.311
92465W        W53886   6.717  34.083  12.091
92466W        W53887  26.994  25.040  14.475
92467W        W53888  26.022  17.595  13.881
92468W        W53889  31.055  42.293   4.651
92469W        W53890  28.044  37.547   0.459
92470W        W53891  25.101  12.795   2.819
92471W        W53892  40.824  33.874   1.748
92472W        W53893  17.798   6.384   3.375
92473W        W53894  10.846  10.754   2.832
92474W        W53895  19.165  25.531  13.461
92475W        W53896  34.596  17.155   0.468
92476W        W53897  21.631  34.025   2.239
92477W        W53898   2.833  37.994  13.961
92478W        W53899  38.369  13.340  13.417
92479W        W53900  24.197  44.448  11.995
92480W        W53901  27.507  23.073   2.705
92481W        W53902  19.081  25.988   3.657
92482W        W53903  33.538  12.717   0.939
92483W        W53904  29.575  26.199   2.248
92484W        W53905  31.095   8.843  14.313
92485W        W53906  31.518  42.308   1.799
92486W        W53907  40.932   7.707  14.941
92487W        W53908  40.015  11.698  10.913
92488W        W53909   5.760  16.222  10.629
92489W        W53910  42.777   8.340  11.951
92490W        W53911   1.260  20.605   3.379
92491W        W53912  21.546  30.620  10.959
92492W        W53913  42.791  30.050   0.858
92493W        W53914  30.907  23.594   4.817
92494W        W53915  10.231  24.139  11.091
92495W        W53916  39.947   0.386   2.349
92496W        W53917  40.452  43.916   2.699
92497W        W53918  27.976  38.961  14.827
92498W        W53919   6.733   2.871   1.326
92499W        W53920  34.456  23.638  12.979
92500W        W53921  18.089   4.860  12.981
92501W        W53922  17.286  26.200  13.508
92502W        W53923  17.753  19.601   1.810
92503W        W53924  31.086  14.685  11.600
92504W        W53925  40.345  33.514   3.216
92505W        W53926  26.172  27.115  12.479
92506W        W53927   8.883  12.347   4.190
92507W        W53928  36.976  29.470  10.527
92508W        W53929  18.173  30.074   2.838
92509W        W53930  10.791   8.207  12.836
92510W        W53931  25.990   2.458  13.528
92511W        W53932   9.771  12.692   1.404
92512W        W53933  39.452  30.149   0.424
92513W        W53934  24.584   9.719   4.250
92514W        W53935  44.290  11.137   0.380
92515W        W53936   8.229  38.892  14.857
92516W        W53937  41.028   3.749   3.156
92517W        W53938   9.175  39.448   0.308
92518W        W53939  32.554  20.635   2.862
92519W        W53940   7.253   2.735  12.377
92520W        W53941  34.021  28.018   4.647
92521W        W53942   1.422  39.917  14.968
92522W        W53943  32.945  17.104  14.764
92523W        W53944  31.597  33.390   4.716
92524W        W53945  27.573  39.411   2.824
92525W        W53946  19.112   1.418   3.344
92526W        W53947   3.304  11.643   2.352
92527W        W53948  36.488  12.291  12.946
92528W        W53949  16.270  24.649  11.373
92529W        W53950  14.804  15.733   3.176
92530W        W53951   8.850  13.131  13.879
92531W        W53952  39.382  26.126  13.839
92532W        W53953  13.158  34.398   0.865
92533W        W53954  22.060  39.053   4.653
92534W        W53955   4.411   2.439  13.958
92535W        W53956  16.173   5.722   2.880
92536W        W53957   0.488  33.427  13.828
92537W        W53958   6.248  41.416  14.820
92538W        W53959  40.824  19.533   1.868
92539W        W53960   7.231  13.309  11.071
92540W        W53961  17.704   7.778   1.392
92541W        W53962  24.060  42.783  10.575
92542W        W53963  27.998  43.406  13.355
92543W        W53964  40.389  17.097  13.868
92544W        W53965  28.602  28.020   4.196
92545W        W53966  12.344   1.434   4.691
92546W        W53967   7.384  28.461   1.443
92547W        W53968  15.248  19.242   4.308
92548W        W53969  19.061   4.739   4.800
92549W        W53970  33.017   6.820  12.018
92550W        W53971  44.848  36.079   1.223
92551W        W53972   0.790  10.809   4.749
92552W        W53973  33.031  31.581   2.723
92553W        W53974  18.601   4.247  10.507
92554W        W53975  40.980  16.671   5.092
92555W        W53976  43.289  14.733  11.438
92556W        W53977  22.252  33.083   4.206
92557W        W53978   3.215  40.497   2.767
92558W        W53979  16.165   1.736  12.848
92559W        W53980  44.910  10.360   0.427
92560W        W53981   0.853  40.814  12.449
92561W        W53982  16.189  33.421  10.077
92562W        W53983  42.479  21.057   2.222
92563W        W53984  28.980  23.190   2.772
92564W        W53985  19.098   2.240  10.404
92565W        W53986  25.612  23.539  10.423
92566W        W53987  22.639   9.356  11.060
92567W        W53988  31.527  18.183  10.419
92568W        W53989  16.584  28.503  13.025
92569W        W53990  16.745   4.847  12.917
92570W        W53991   5.234  11.257   3.787
92571W        W53992  18.292  25.147   0.853
92572W        W53993  21.711  14.654  11.005
92573W        W53994  43.500  31.086  12.017
92574W        W53995  19.779  11.640   4.169
92575W        W53996  18.110  36.849   4.348
92576W        W53997  38.964  37.018  14.817
92577W        W53998  29.472   7.253  13.494
92578W        W53999   8.183   4.330   0.853
92579W        W54000   3.310  18.120   0.827
92580W        W54001  40.042   3.399  14.968
92581W        W54002   9.199   5.312  12.369
92582W        W54003  20.041  10.214  11.900
92583W        W54004  11.791  39.488  12.848
92584W        W54005  41.805  41.429  12.381
92585W        W54006   0.751  29.566   1.285
92586W        W54007   4.296  24.630   3.248
92587W        W54008  10.290  34.939  10.625
92588W        W54009  21.716  32.057   2.374
92589W        W54010   3.297  33.560   2.843
92590W        W54011  29.527  29.119   2.411
92591W        W54012  25.070  40.032   3.773
92592W        W54013  11.737  28.077  11.511
92593W        W54014   8.688  37.562   3.754
92594W        W54015  16.189  14.218  12.561
92595W        W54016  13.265   9.806   1.257
92596W        W54017  34.560  17.658   3.789
92597W        W54018  30.066  25.159  13.494
92598W        W54019  30.050  25.120  12.063
92599W        W54020  13.293  13.239   4.669
92600W        W54021  36.881  21.630  14.387
92601W        W54022  33.425   8.354  11.372
92602W        W54023  35.024  30.960   2.299
92603W        W54024  39.540  32.006  11.891
92604W        W54025  32.139  24.988  14.497
92605W        W54026  20.121  23.513  13.443
92606W        W54027  25.121  25.197   0.763
92607W        W54028  39.323   6.368  10.489
92608W        W54029  23.144   3.342   4.271
92609W        W54030   1.450  24.611  13.803
92610W        W54031  25.014  30.943  14.434
92611W        W54032   1.239  15.237   0.767
92612W        W54033  14.764  22.081  10.901
92613W        W54034  44.473  22.015  14.802
92614W        W54035  12.747   5.412   2.675
92615W        W54036   3.850   2.875   0.877
92616W        W54037  15.123  26.700   4.762
92617W        W54038  41.337  25.681   4.746
92618W        W54039  35.106   1.250   4.180
92619W        W54040  35.391   0.957   3.337
92620W        W54041  16.105  14.157  11.477
92621W        W54042  32.018  44.762  10.939
92622W        W54043  41.479  21.737  14.013
92623W        W54044   6.703   1.871  11.883
92624W        W54045  14.222  17.684  14.395
92625W        W54046   6.680   7.854  13.915
92626W        W54047  39.882  30.124   1.848
92627W        W54048   8.732  23.125   1.447
92628W        W54049   6.298  24.090   0.433
92629W        W54050  43.334  16.656   0.441
92630W        W54051  38.828  13.823   3.816
92631W        W54052  23.501  18.229   3.337
92632W        W54053  10.369   8.233  12.511
92633W        W54054  32.440  12.353  12.482
92634W        W54055  14.303  11.204   3.643
92635W        W54056  25.982  22.023  14.804
92636W        W54057  38.889  39.963   1.824
92637W        W54058  10.318   3.388   9.943
92638W        W54059  42.981   5.850  14.803
92639W        W54060  23.092  44.380  11.562
92640W        W54061  34.012  32.034  10.588
92641W        W54062  21.049  31.459  12.447
92642W        W54063  44.899   5.815   3.772
92643W        W54064  24.088  20.734  12.906
92644W        W54065   9.663  20.555  12.421
92645W        W54066  30.491  12.332   4.201
92646W        W54067  27.015  44.294   4.787
92647W        W54068  32.914   4.225  12.423
92648W        W54069  19.270  44.833   0.309
92649W        W54070  13.711  36.406  10.541
92650W        W54071   9.777   4.348   0.384
92651W        W54072  44.488  36.865  11.006
92652W        W54073  34.488  33.467   0.406
92653W        W54074  15.583  42.872  13.850
92654W        W54075  36.071  40.393  10.898
92655W        W54076  21.251  44.862   1.780
92656W        W54077  14.318  10.741   3.341
92657W        W54078  25.126  27.450   0.785
92658W        W54079  21.738  12.131  13.835
92659W        W54080   1.256   8.189  12.364
92660W        W54081  44.397  40.940  10.978
92661W        W54082  20.148   1.331   3.662
92662W        W54083  20.146  40.472   1.697
92663W        W54084  39.511  12.686   1.815
92664W        W54085  17.622  36.903   0.832
92665W        W54086  11.239  40.884   4.332
92666W        W54087   1.240  24.497   3.814
92667W        W54088  23.082  12.295   0.788
92668W        W54089  28.496  28.450  10.998
92669W        W54090  25.137  26.464  11.024
92670W        W54091  41.343  21.206   4.219
92671W        W54092  32.018  31.923   0.796
92672W        W54093  33.583  18.100  13.424
92673W        W54094  29.549  23.508   3.313
92674W        W54095   0.409   3.715   4.642
92675W        W54096  17.235  25.965   1.407
92676W        W54097  35.454   9.172   4.286
92677W        W54098  23.511  28.182   0.761
92678W        W54099  33.529  12.139  11.089
92679W        W54100  33.017   1.481  10.557
92680W        W54101  22.223  14.298  10.484
92681W        W54102   0.251  33.459   1.414
92682W        W54103   5.348  12.720   1.826
92683W        W54104  13.166  28.001  12.938
92684W        W54105  29.138  36.358   4.137
92685W        W54106  33.380  19.725   4.777
92686W        W54107   8.682  10.191  11.047
92687W        W54108  22.682  29.425  14.997
92688W        W54109  12.789  19.164   4.119
92689W        W54110  11.195  15.130  11.042
92690W        W54111   0.439   3.359  14.980
92691W        W54112  38.532  28.449   2.703
92692W        W54113  29.101  39.359   0.749
92693W        W54114   1.420   3.261   1.299
92694W        W54115  12.652  31.626   3.867
92695W        W54116  33.066  13.350  11.569
92696W        W54117  12.311   1.440   1.211
92697W        W54118  43.324  11.137  14.984
92698W        W54119  37.563  24.018   1.790
92699W        W54120  19.771  18.270  13.453
92700W        W54121  19.233  25.008   0.244
92701W        W54122  30.932  14.826  14.340
92702W        W54123  39.387  27.561  12.912
92703W        W54124  15.808  21.519  14.908
92704W        W54125  30.142  24.606  14.969
92705W        W54126   7.175  10.742  14.445
92706W        W54127   1.751   6.407  12.491
92707W        W54128  44.394   7.384  12.066
92708W        W54129  32.593  32.449  12.382
92709W        W54130  15.578   7.698   3.827
92710W        W54131  29.466  12.199   0.334
92711W        W54132  13.284  16.622   3.644
92712W        W54133  42.906  16.301  11.375
92713W        W54134  33.992  38.003   2.814
92714W        W54135  17.177   1.396  11.861
92715W        W54136  21.693  24.532   4.701
92716W        W54137  27.195  29.585   4.825
92717W        W54138  25.623  42.384  13.319
92718W        W54139  24.160  32.559   0.403
92719W        W54140  23.716  33.618   1.238
92720W        W54141  33.493  17.616  14.894
92721W        W54142  43.280  12.706  13.851
92722W        W54143  12.192  36.041   1.752
92723W        W54144  13.160  29.088   2.180
92724W        W54145  28.543  16.165  13.358
92725W        W54146  20.116  22.687   4.756
92726W        W54147  21.607  19.071   3.657
92727W        W54148  44.406   1.430  14.302
92728W        W54149  13.307   6.207   3.358
92729W        W54150  25.638  28.982   4.331
92730W        W54151  26.145  25.564   4.817
92731W        W54152  19.163  15.718   4.630
92732W        W54153  41.902  38.509  10.443
92733W        W54154  18.662  25.531  10.914
92734W        W54155  38.881  35.589  12.990
92735W        W54156  16.762  12.795   1.409
92736W        W54157  34.538  44.969   2.401
92737W        W54158  23.582  11.749  14.890
92738W        W54159  16.126   2.313   0.320
92739W        W54160   1.939  32.946   1.411
92740W        W54161  18.614   8.672   1.310
92741W        W54162  43.314  18.216   2.777
92742W        W54163   5.809  44.784  13.321
92743W        W54164   5.706  42.858  14.284
92744W        W54165  32.432   8.873  11.969
92745W        W54166   2.729  16.203   2.339
92746W        W54167   6.383  41.821  12.410
92747W        W54168  43.844  36.915  12.502
92748W        W54169   2.881  21.118   1.736
92749W        W54170  34.392  32.142  12.056
92750W        W54171   3.315  12.766  11.518
92751W        W54172  30.650   8.799  14.343
92752W        W54173  38.892  40.009   4.788
92753W        W54174  21.570  38.479  12.400
92754W        W54175  43.853  12.748   4.609
92755W        W54176  17.279  36.078  10.942
92756W        W54177   6.340   1.310   4.748
92757W        W54178  33.561  44.331   3.175
92758W        W54179  15.318  17.722   3.329
92759W        W54180  43.434   3.306  14.353
92760W        W54181  34.954  26.964   2.419
92761W        W54182  13.771  19.674  14.975
92762W        W54183   5.315  11.172   0.405
92763W        W54184  15.585   0.439  14.500
92764W        W54185  39.475  28.546  13.999
92765W        W54186  23.996  36.583  14.365
92766W        W54187  44.888  12.274   1.918
92767W        W54188   3.941   0.259  13.374
92768W        W54189  32.610  33.037  11.962
92769W        W54190  40.397  26.071  10.441
92770W        W54191  27.606  26.960   4.197
92771W        W54192  38.477  34.497  13.327
92772W        W54193  42.958   6.198   3.310
92773W        W54194  31.971  43.804   1.695
92774W        W54195   9.644   9.853   4.281
92775W        W54196  23.033  36.073   2.243
92776W        W54197  21.601  14.326   4.728
92777W        W54198  17.067  22.147  10.607
92778W        W54199  12.632  29.645   5.113
92779W        W54200   1.434   4.295   0.909
92780W        W54201   8.747  44.976  11.040
92781W        W54202   2.907  39.955   0.402
92782W        W54203   3.290   0.344   9.564
92783W        W54204  22.512   6.877  10.940
92784W        W54205   1.456  31.953   3.230
92785W        W54206  33.571  21.106  14.805
92786W        W54207   6.698  40.393  10.640
92787W        W54208  31.533  21.636  10.622
92788W        W54209  20.108  42.949   5.260
92789W        W54210  26.475  23.535   1.766
92790W        W54211   7.808  25.072   1.810
92791W        W54212  41.843   5.929  11.471
92792W        W54213   7.754  12.145  13.008
92793W        W54214  32.539   1.751  10.960
92794W        W54215   8.807  40.381   3.839
92795W        W54216  22.209  44.906  11.510
92796W        W54217  19.609   0.794   3.235
92797W        W54218  14.732  39.884  12.960
92798W        W54219  38.547  27.080  10.495
92799W        W54220  29.931  16.145  14.444
92800W        W54221  11.832  19.676   1.282
92801W        W54222  38.420   0.875   1.884
92802W        W54223   6.347  38.550   1.819
92803W        W54224  15.121  35.949  11.863
92804W        W54225   3.357  33.953   3.194
92805W        W54226  14.604   3.347  11.390
92806W        W54227  36.858  10.382   0.752
92807W        W54228  38.364  25.474  14.308
92808W        W54229  25.010  25.218  14.892
92809W        W54230  26.180   0.395  12.072
92810W        W54231  27.594   9.169  11.903
92811W        W54232   0.885  35.944   0.928
92812W        W54233  44.266  39.401  10.961
92813W        W54234   1.772  38.841  14.871
92814W        W54235   1.427   3.368  13.336
92815W        W54236  26.130  25.967   2.669
92816W        W54237  37.389  30.522  14.759
92817W        W54238  42.347  41.444   0.818
92818W        W54239  28.557  40.399   4.623
92819W        W54240  35.943  10.192  13.892
92820W        W54241   5.877  38.395  10.043
92821W        W54242  31.021  17.246   2.404
92822W        W54243   0.364  36.412   0.952
92823W        W54244  28.058  24.620   1.255
92824W        W54245   5.265  33.387  12.990
92825W        W54246  14.616   1.733   0.393
92826W        W54247  34.956  40.321   2.204
92827W        W54248  14.129  15.231   0.357
92828W        W54249  39.934   9.709   2.299
92829W        W54250  26.547  17.743  10.937
92830W        W54251  40.873  11.834  14.966
92831W        W54252  44.868  42.349   4.331
92832W        W54253   7.690  30.954  12.900
92833W        W54254  11.849  19.581  13.314
92834W        W54255  11.197  14.129  13.396
92835W        W54256  20.122  28.453  11.605
92836W        W54257  24.057  41.411  12.426
92837W        W54258  24.666  42.400  14.872
92838W        W54259  22.522  29.123   2.790
92839W        W54260  37.397  34.549   0.783
92840W        W54261  37.516   5.905   3.760
92841W        W54262  27.621  31.592   2.883
92842W        W54263  28.034   7.258   4.747
92843W        W54264  10.257  30.049   3.195
92844W        W54265  28.127  34.117  14.765
92845W        W54266  11.814   8.277  12.838
92846W        W54267  15.102  43.434   4.785
92847W        W54268  29.023  11.823  14.419
92848W        W54269  16.648   1.800  13.812
92849W        W54270   9.258  27.543   3.223
92850W        W54271  12.280   9.755  11.890
92851W        W54272  15.239  29.630   3.191
92852W        W54273  45.000  33.617  12.339
92853W        W54274   9.297  10.860  11.508
92854W        W54275  10.215  15.144   2.713
92855W        W54276  10.791   6.344  11.040
92856W        W54277  30.610  19.073   4.197
92857W        W54278  12.247  32.459   9.984
92858W        W54279   2.358  17.788   4.286
92859W        W54280  28.971  23.594   1.238
92860W        W54281  36.477  35.942  13.986
92861W        W54282  33.531  22.679   4.199
92862W        W54283  15.322  21.095  11.082
92863W        W54284   5.205  26.073  12.442
92864W        W54285   6.267   5.258  11.498
92865W        W54286  17.774  24.089   2.408
92866W        W54287  40.507  20.542  13.951
92867W        W54288  44.311   9.347   4.705
92868W        W54289  18.119  35.936   1.859
92869W        W54290   1.930  40.441  14.328
92870W        W54291  39.848  31.004   1.752
92871W        W54292  29.985  19.283   2.707
92872W        W54293  22.582  11.237  12.883
92873W        W54294  39.404  28.503   0.458
92874W        W54295   7.352  29.925  11.429
92875W        W54296  40.884  43.909  10.446
92876W        W54297  25.165  20.567   2.187
92877W        W54298  42.398  11.762   1.905
92878W        W54299   4.908  10.322   0.772
92879W        W54300  36.528  24.564  14.489
92880W        W54301  21.739  21.628  13.801
92881W        W54302  19.108  25.055  14.812
92882W        W54303  36.989  31.491   1.765
92883W        W54304  23.702  22.613  11.511
92884W        W54305  39.918  28.162   0.319
92885W        W54306   5.231  30.022   2.218
92886W        W54307  20.191   5.240  13.825
92887W        W54308  41.479  30.646   0.283
92888W        W54309  44.888  36.963   1.385
92889W        W54310  44.862  10.755   4.244
92890W        W54311   4.371   4.230   5.285
92891W        W54312  18.647  43.834   4.180
92892W        W54313  43.332  16.254   4.299
92893W        W54314  33.884  14.128   1.859
92894W        W54315  32.113  42.416  14.827
92895W        W54316  40.919  11.706  11.459
92896W        W54317   6.857  41.901  11.477
92897W        W54318  12.355  44.823   0.873
92898W        W54319  42.328  39.525  13.328
92899W        W54320   5.884   3.835   1.921
92900W        W54321  18.766   9.752  14.925
92901W        W54322  37.894  21.156   4.329
92902W        W54323  29.087  20.185   1.921
92903W        W54324  43.780  42.834  13.058
92904W        W54325   6.688  30.598  10.619
92905W        W54326  20.719  42.368  13.832
92906W        W54327   4.294  43.914  14.362
92907W        W54328  26.174  20.230   3.285
92908W        W54329   3.302  10.293   3.146
92909W        W54330  34.018  16.765   1.922
92910W        W54331  23.000  42.855   0.901
92911W        W54332   0.892  14.160   3.760
92912W        W54333  44.890   2.463  11.438
92913W        W54334  27.602   9.864  13.993
92914W        W54335  23.033  26.517  13.889
92915W        W54336  21.253  38.013  13.373
92916W        W54337  44.860  24.159   3.365
92917W        W54338  34.987  24.574  13.012
92918W        W54339  13.649  23.003   2.232
92919W        W54340   0.364  34.579  12.431
92920W        W54341  30.985  31.081  14.978
92921W        W54342  14.163  30.430  14.436
92922W        W54343  40.986  20.173   1.734
92923W        W54344  34.060   2.837   1.771
92924W        W54345  11.689  44.900   4.159
92925W        W54346  41.325  12.667   4.222
92926W        W54347  31.070  11.144  13.810
92927W        W54348  19.205  33.577  10.439
92928W        W54349  26.567   8.753  14.843
92929W        W54350  15.117  30.111   5.606
92930W        W54351  16.311  14.225   5.241
92931W        W54352  15.615  42.355  13.523
92932W        W54353  43.944  23.013  13.022
92933W        W54354  42.855   5.731   3.646
92934W        W54355  37.338  17.148   0.748
92935W        W54356   6.779  20.645   0.792
92936W        W54357  37.948  21.650  14.471
92937W        W54358   6.833  11.859   1.842
92938W        W54359   1.834  29.031   3.718
92939W        W54360  42.296  15.195  12.992
92940W        W54361   8.342  38.483  11.496
92941W        W54362   6.891  18.142   4.280
92942W        W54363  32.576  20.208   4.238
92943W        W54364  14.746  10.353  13.453
92944W        W54365  16.318   0.855   1.317
92945W        W54366  28.054  21.154  10.551
92946W        W54367  41.349  29.460  14.447
92947W        W54368  26.956  10.228   4.322
92948W        W54369  40.338   9.779  14.336
92949W        W54370  14.106   9.659   2.743
92950W        W54371  16.189  10.282  13.904
92951W        W54372  21.663  21.065  11.574
92952W        W54373  19.045   3.941  12.884
92953W        W54374   7.692  34.957  10.538
92954W        W54375  27.680   4.367   1.823
92955W        W54376   9.683   1.362   0.956
92956W        W54377   3.426   3.742  10.542
92957W        W54378  26.629   2.896  10.928
92958W        W54379   2.963   6.898  10.554
92959W        W54380  11.628  20.141  11.421
92960W        W54381  40.449   0.920   2.243
92961W        W54382  27.007  38.485  12.513
92962W        W54383  19.228   7.300  14.449
92963W        W54384  27.040  30.983  13.544
92964W        W54385  12.335  17.207   0.859
92965W        W54386  42.031  37.391  10.625
92966W        W54387   8.394  21.189   4.710
92967W        W54388   4.315  13.158   1.792
92968W        W54389  15.597   9.266  11.023
92969W        W54390  36.870  26.192  10.416
92970W        W54391  28.114  23.040  12.396
92971W        W54392  26.077  33.619  13.866
92972W        W54393  22.531  34.589   2.773
92973W        W54394  32.955  44.004   2.290
92974W        W54395  39.963  14.752  11.540
92975W        W54396  23.490  28.556  12.350
92976W        W54397  20.640   6.423  12.893
92977W        W54398   0.307   2.777   1.724
92978W        W54399  10.878  34.591  12.041
92979W        W54400  28.583  15.155   3.797
92980W        W54401  11.299  31.643  12.352
92981W        W54402   6.243  15.783   2.413
92982W        W54403  23.605  41.871  14.432
92983W        W54404  32.541   3.777  13.318
92984W        W54405  42.966  22.693  13.445
92985W        W54406   9.817  41.904  12.853
92986W        W54407  25.543  38.331  14.905
92987W        W54408  37.351  14.810  14.380
92988W        W54409  35.440  21.253   0.357
92989W        W54410  27.087  39.338  14.922
92990W        W54411  40.006   8.261  14.299
92991W        W54412   7.668   5.386  10.473
92992W        W54413  10.668  11.795   3.382
92993W        W54414  29.444   7.332  12.037
92994W        W54415  10.874  22.253  14.374
92995W        W54416  11.232  15.225   4.285
92996W        W54417  10.333  28.087   3.829
92997W        W54418   9.757  26.656   0.330
92998W        W54419  44.271  22.119  14.502
92999W        W54420  33.409  37.558   4.342
93000W        W54421  10.644  16.661  13.405
93001W        W54422  11.236  40.004  10.411
93002W        W54423   5.699  18.723  10.913
93003W        W54424   9.272  14.722   4.735
93004W        W54425  39.425  41.798   2.764
93005W        W54426  32.451   3.911  10.445
93006W        W54427  44.328  28.643   4.333
93007W        W54428  26.045   1.418  12.072
93008W        W54429  36.541  29.454   4.665
93009W        W54430   3.454   3.834  12.003
93010W        W54431  37.515  31.445   0.765
93011W        W54432   3.803  22.596   2.186
93012W        W54433  37.398   5.196   1.883
93013W        W54434  41.009  25.195   4.168
93014W        W54435  22.647  26.671  12.029
93015W        W54436  34.381  44.446   4.241
93016W        W54437  15.198  38.403  14.971
93017W        W54438  19.189  31.054   4.632
93018W        W54439  21.549  17.255  10.011
93019W        W54440  34.592  25.021   0.283
93020W        W54441  24.162   4.891  13.834
93021W        W54442  29.485   9.779  14.466
93022W        W54443  25.498  12.208   4.219
93023W        W54444   4.359  37.849   3.318
93024W        W54445  23.000  17.741   0.282
93025W        W54446  24.071  11.734  13.914
93026W        W54447  29.639  19.219   4.144
93027W        W54448  40.491  18.692   3.149
93028W        W54449  13.212  13.800  13.000
93029W        W54450  41.413  20.247   1.350
93030W        W54451  28.491  42.826   9.943
93031W        W54452   5.770  17.132  13.401
93032W        W54453  12.137  40.454   4.280
93033W        W54454  17.128  15.181  11.502
93034W        W54455  19.554  19.564   3.377
93035W        W54456  24.206   5.911   0.933
93036W        W54457  27.556  16.640  10.513
93037W        W54458  32.067  42.291   2.855
93038W        W54459  34.516  17.656   1.226
93039W        W54460  28.467  19.243   2.808
93040W        W54461  35.870  39.839   1.383
93041W        W54462  32.422  42.373   4.827
93042W        W54463   7.380   7.347   2.738
93043W        W54464  13.732  13.671   0.916
93044W        W54465  22.106  37.030  11.394
93045W        W54466  44.310  44.948  12.510
93046W        W54467  10.823  38.388   5.704
93047W        W54468  14.689  19.274   0.881
93048W        W54469  42.800  13.644  14.878
93049W        W54470  22.591  22.097   3.228
93050W        W54471   0.815  21.201   0.796
93051W        W54472   6.312  19.752   1.697
93052W        W54473   1.785  29.443  13.518
93053W        W54474  29.622  42.329   2.246
93054W        W54475  17.224  10.251   3.631
93055W        W54476  29.094   2.922   0.733
93056W        W54477   8.687  42.505   3.284
93057W        W54478  31.514  37.872   0.295
93058W        W54479  15.096  37.042  11.923
93059W        W54480  28.935   9.320  14.004
93060W        W54481  40.052  43.406   2.223
93061W        W54482  23.167   6.274   4.242
93062W        W54483  10.648  44.762   4.339
93063W        W54484  10.203   8.702  12.368
93064W        W54485   4.814  15.680   9.996
93065W        W54486  29.476  16.295  11.883
93066W        W54487  31.598  37.849   0.942
93067W        W54488  10.171   3.885  13.518
93068W        W54489  37.485  25.560  12.476
93069W        W54490  26.489  33.616  11.873
93070W        W54491  21.231   4.784   4.771
93071W        W54492   1.237  12.178   1.906
93072W        W54493   3.418  15.586   0.752
93073W        W54494  35.434   0.749   1.239
93074W        W54495   8.898  21.153  13.398
93075W        W54496  33.952  10.671  11.992
93076W        W54497   5.877  40.948   0.470
93077W        W54498  36.459  27.582  13.991
93078W        W54499  35.587  20.726   3.657
93079W        W54500   5.400  32.478  14.428
93080W        W54501   3.301  30.559  12.019
93081W        W54502  32.961  15.678   4.215
93082W        W54503  31.912  28.604   3.191
93083W        W54504  15.583   2.885  14.490
93084W        W54505   2.275   1.341   2.391
93085W        W54506   1.845   5.297   2.184
93086W        W54507  36.923  37.509  11.866
93087W        W54508   2.836  16.080  11.986
93088W        W54509  23.035  44.993  11.606
93089W        W54510  21.633  39.546  13.455
93090W        W54511  38.413  16.583  11.944
93091W        W54512  17.163   4.265   4.191
93092W        W54513  39.046  14.147   0.314
93093W        W54514  29.142  39.896  14.010
93094W        W54515  17.083   9.653  11.105
93095W        W54516   6.381  30.424   0.784
93096W        W54517  29.151   4.393   0.880
93097W        W54518  10.141  20.255   0.408
93098W        W54519  16.720  25.596  11.954
93099W        W54520  36.537  25.183   5.262
93100W        W54521  21.254  28.465   1.738
93101W        W54522  16.596  23.087  11.128
93102W        W54523  36.393  39.548   2.868
93103W        W54524  27.955  40.897   3.148
93104W        W54525   6.261   2.934   5.129
93105W        W54526  26.123  29.619  13.797
93106W        W54527   4.233  11.244   3.671
93107W        W54528  27.516  36.519  14.899
93108W        W54529   6.889   1.236  12.371
93109W        W54530   4.446  41.475   2.672
93110W        W54531  44.278  16.651  13.389
93111W        W54532  31.082  43.357   0.961
93112W        W54533  24.724  36.952  10.604
93113W        W54534  42.502  16.074  14.809
93114W        W54535   7.308  30.430  14.366
93115W        W54536   1.970  34.000   5.122
93116W        W54537  37.046  19.147  12.024
93117W        W54538  23.127  32.603  10.453
93118W        W54539  24.521   4.814  11.107
93119W        W54540  42.335   1.242  13.057
93120W        W54541  35.456  26.989  13.965
93121W        W54542  29.127  41.880  10.513
93122W        W54543  18.187  13.658  13.548
93123W        W54544   0.833  22.550  13.451
93124W        W54545   6.869  35.391  14.027
93125W        W54546  28.963  25.610  11.120
93126W        W54547   0.771  21.125   0.454
93127W        W54548  19.112  21.214   2.763
93128W        W54549  25.658  20.683  14.384
93129W        W54550   9.376  20.068  11.447
93130W        W54551  24.517  27.592  11.954
93131W        W54552   5.756   6.713   1.734
93132W        W54553  19.771  32.537   1.744
93133W        W54554  32.459   7.355   0.416
93134W        W54555  25.966   8.405  12.954
93135W        W54556  26.631   3.836  10.504
93136W        W54557   1.314  43.002  10.483
93137W        W54558  43.768  31.902  12.505
93138W        W54559   0.290  33.409  10.429
93139W        W54560  31.914  22.507  12.035
93140W        W54561  23.119  39.918   1.724
93141W        W54562  37.354  34.500   1.229
93142W        W54563  35.383  34.947  11.407
93143W        W54564  17.266  34.958   2.889
93144W        W54565  31.467  44.768   4.605
93145W        W54566  22.677  11.311   1.402
93146W        W54567  11.787  30.127  14.931
93147W        W54568   7.268  30.507  13.517
93148W        W54569  32.083  44.760   1.377
93149W        W54570  18.617  38.021   1.425
93150W        W54571  28.517  10.368   1.808
93151W        W54572  16.696   5.361   1.810
93152W        W54573  41.861  32.493   2.256
93153W        W54574  30.555  24.599  14.888
93154W        W54575  37.003  13.108  13.046
93155W        W54576   8.240  13.190   4.288
93156W        W54577  23.685  16.208   1.446
93157W        W54578  13.277  44.444   4.698
93158W        W54579  22.600  35.882  13.810
93159W        W54580  11.747  10.360   2.187
93160W        W54581  25.577   3.921   3.857
93161W        W54582  25.967   6.819  10.141
93162W        W54583  10.148  25.483  13.351
93163W        W54584  13.132   0.263   4.746
93164W        W54585  11.746  19.701   0.797
93165W        W54586   7.274  25.666   1.256
93166W        W54587  33.046   5.726   4.662
93167W        W54588  32.496  23.711   3.233
93168W        W54589  32.525   8.389   4.241
93169W        W54590   5.241   0.819   0.358
93170W        W54591   5.411  10.323   4.748
93171W        W54592  39.479  30.555   3.155
93172W        W54593  27.167  44.815  14.453
93173W        W54594  10.160   1.733   1.398
93174W        W54595  20.675  19.110  11.082
93175W        W54596  15.297  17.153  13.392
93176W        W54597  20.703   4.316   0.415
93177W        W54598   7.192  42.831   4.678
93178W        W54599  31.561  24.160  14.894
93179W        W54600  16.773  24.056  13.399
93180W        W54601  11.158  29.062  14.367
93181W        W54602   6.694  19.669  11.403
93182W        W54603  27.069   1.859   3.253
93183W        W54604  29.465  22.170   1.307
93184W        W54605  37.569  19.690   1.888
93185W        W54606  15.158   3.734  11.860
93186W        W54607  10.649  32.051   2.318
93187W        W54608  39.494  18.109   0.777
93188W        W54609  28.063  25.525  12.081
93189W        W54610  26.101  39.361  14.347
93190W        W54611   6.353   7.264   4.613
93191W        W54612  25.178   2.964  11.485
93192W        W54613   3.769  38.867  11.496
93193W        W54614  35.066   4.360   2.308
93194W        W54615  27.952  36.412   0.332
93195W        W54616   7.759  19.560   0.729
93196W        W54617  27.456  30.103  13.896
93197W        W54618  18.215   1.824   1.375
93198W        W54619  24.979  16.172  11.108
93199W        W54620   5.290   2.732   5.674
93200W        W54621   9.301   0.361  11.529
93201W        W54622  13.141  32.949  11.419
93202W        W54623  18.105   4.311  13.870
93203W        W54624  26.165  41.971   0.834
93204W        W54625  29.073  37.389  13.390
93205W        W54626  35.553  21.656  12.396
93206W        W54627  24.019  27.449  12.411
93207W        W54628   6.241  17.133  13.392
93208W        W54629  25.687  18.717   0.418
93209W        W54630   1.919   7.351  14.849
93210W        W54631  35.015  14.832   0.747
93211W        W54632  22.104  43.370   1.703
93212W        W54633  29.440  35.542   0.781
93213W        W54634  19.543  29.034  11.464
93214W        W54635   8.751  43.902  11.077
93215W        W54636  41.960  18.270  12.474
93216W        W54637  36.099   1.885  12.080
93217W        W54638   9.203  19.626   2.219
93218W        W54639  43.391  14.189  10.452
93219W        W54640   1.976  40.866   3.158
93220W        W54641  15.824  12.122   2.242
93221W        W54642  41.443  40.928  14.769
93222W        W54643  16.109  14.801   3.660
93223W        W54644   3.944  13.322   3.812
93224W        W54645  40.323  20.538   3.866
93225W        W54646  31.070  33.536  11.857
93226W        W54647  27.154   8.793  13.846
93227W        W54648  42.459  32.093  12.433
93228W        W54649  38.380   2.445   3.271
93229W        W54650  37.899  26.496  13.990
93230W        W54651  32.918  42.977  11.483
93231W        W54652  16.592  40.841  12.951
93232W        W54653  29.482  24.514  12.849
93233W        W54654   1.276   5.697  10.535
93234W        W54655   4.353  32.910  13.808
93235W        W54656   0.831  34.423  13.461
93236W        W54657   5.815  38.875   3.253
93237W        W54658  40.005  33.406  13.313
93238W        W54659  21.256   9.705  12.497
93239W        W54660  32.483   8.257  12.074
93240W        W54661  35.034  18.736   1.390
93241W        W54662   7.881  30.599  13.817
93242W        W54663  39.992  12.278   0.868
93243W        W54664  30.003  31.020   3.342
93244W        W54665  17.074  35.905   1.709
93245W        W54666   9.356  33.905  10.592
93246W        W54667   5.244  17.080   1.723
93247W        W54668  10.357  39.559  10.144
93248W        W54669  30.010   2.252  11.893
93249W        W54670  16.266  40.910   1.837
93250W        W54671  20.697   2.267   1.713
93251W        W54672   1.745  25.503  14.431
93252W        W54673  30.616  17.095  14.454
93253W        W54674  20.765  24.152   0.354
93254W        W54675  36.954  43.765  10.565
93255W        W54676   5.406  32.053   0.869
93256W        W54677  28.092  43.022   0.836
93257W        W54678  33.972  24.649   2.743
93258W        W54679  23.089  38.875  11.926
93259W        W54680  10.855  17.198   4.323
93260W        W54681  43.981  29.434  12.485
93261W        W54682  21.603   7.323   2.243
93262W        W54683  43.792  29.586   0.829
93263W        W54684  10.827  32.906   3.681
93264W        W54685   8.289   4.341  10.474
93265W        W54686  26.672   7.795   3.329
93266W        W54687  39.934  15.248  14.503
93267W        W54688  10.849   7.666  11.026
93268W        W54689  29.571  44.301  13.897
93269W        W54690  18.669  34.570   4.764
93270W        W54691  11.735  40.862   1.740
93271W        W54692  42.482  27.623   2.681
93272W        W54693  36.083  32.394  11.548
93273W        W54694   7.895  16.184  13.526
93274W        W54695   5.343  33.976  13.948
93275W        W54696  37.944  22.139   3.654
93276W        W54697   8.346   1.738   0.876
93277W        W54698  16.579  10.238  11.449
93278W        W54699  39.902   3.383   1.332
93279W        W54700  27.535  39.403   1.446
93280W        W54701   3.774  12.156  14.313
93281W        W54702  11.256  33.936   2.674
93282W        W54703  39.061  11.337  10.952
93283W        W54704  30.977   0.347  12.873
93284W        W54705  29.540   1.421   3.856
93285W        W54706  31.016  42.851   1.836
93286W        W54707   6.840  31.923  14.865
93287W        W54708   9.236  29.622  11.599
93288W        W54709   5.286   4.307  11.918
93289W        W54710   8.264  40.312   5.675
93290W        W54711  38.379   0.310  13.505
93291W        W54712  16.620  18.611   3.317
93292W        W54713  15.803  24.078   4.823
93293W        W54714  41.459  26.638   1.385
93294W        W54715  18.220  29.578  11.596
93295W        W54716   3.376  18.734   5.174
93296W        W54717  12.175  20.035  12.873
93297W        W54718  18.640  12.176  12.451
93298W        W54719  40.805  31.522  11.998
93299W        W54720  29.081  17.296   2.841
93300W        W54721  41.446  38.547   4.667
93301W        W54722  12.317  39.483   2.725
93302W        W54723  33.902   6.326   5.189
93303W        W54724  31.033  15.774  12.850
93304W        W54725   5.838  29.574  12.566
93305W        W54726   1.422   0.335   3.363
93306W        W54727   6.231  43.450   1.420
93307W        W54728  12.612  28.113   1.700
93308W        W54729   1.298  27.019  14.406
93309W        W54730  21.617  35.426   2.213
93310W        W54731  41.851  11.142   2.701
93311W        W54732  26.677  30.079  14.995
93312W        W54733  33.059  19.636  10.961
93313W        W54734  27.595  30.652   0.368
93314W        W54735  26.486  39.946   1.848
93315W        W54736  37.574  33.408  11.124
93316W        W54737   0.769   4.924  12.864
93317W        W54738  35.896  10.704  12.864
93318W        W54739  42.855  40.053   2.707
93319W        W54740  37.405  18.748  13.824
93320W        W54741  13.783  36.049  14.498
93321W        W54742  30.918  35.934   0.879
93322W        W54743  25.599  27.594   4.659
93323W        W54744   6.788  44.844   1.831
93324W        W54745  32.595   6.762  13.323
93325W        W54746   7.401   8.176  12.931
93326W        W54747  23.100   3.256  11.928
93327W        W54748  10.213  34.030   3.216
93328W        W54749   0.314  21.705   2.373
93329W        W54750  16.749   3.829  12.870
93330W        W54751  12.739  15.758  14.309
93331W        W54752   4.290   5.792  11.912
93332W        W54753  18.761  16.292   0.454
93333W        W54754   2.290  32.431  11.879
93334W        W54755   0.969  16.124  10.463
93335W        W54756  36.031  44.324  14.850
93336W        W54757   7.257  37.476  12.909
93337W        W54758  32.629  12.133  13.829
93338W        W54759  44.961  21.583   1.708
93339W        W54760  12.356  35.410  11.469
93340W        W54761   7.304  31.412  11.410
93341W        W54762  31.617  36.482   2.218
93342W        W54763  19.756   2.845   1.278
93343W        W54764  34.438  33.547  14.937
93344W        W54765  37.025  25.693  13.486
93345W        W54766  13.303  34.564  11.419
93346W        W54767  44.848   1.820  14.010
93347W        W54768  37.388  41.347   1.909
93348W        W54769  38.378  27.066   4.323
93349W        W54770  33.485   3.310  12.948
93350W        W54771  41.996  20.536   1.239
93351W        W54772  39.356  37.973  10.518
93352W        W54773  41.417  40.032  14.825
93353W        W54774  17.164   4.920  13.809
93354W        W54775  12.317  35.519  12.998
93355W        W54776  13.130   8.210   4.601
93356W        W54777  33.030  15.631   4.770
93357W        W54778  37.391   4.938  12.935
93358W        W54779  13.746  31.445  12.520
93359W        W54780   1.799  38.074  12.519
93360W        W54781  37.918   5.207  13.938
93361W        W54782  37.521  34.056  10.894
93362W        W54783  42.430  30.595  10.440
93363W        W54784  39.351   9.834  13.813
93364W        W54785  22.584  37.480  11.053
93365W        W54786  12.630   6.898   3.154
93366W        W54787  19.740  44.416  13.809
93367W        W54788  15.093  39.346  13.795
93368W        W54789  16.181  31.520  14.308
93369W        W54790  28.605  11.643  10.638
93370W        W54791  28.545   6.919   1.280
93371W        W54792  17.149  29.109  13.829
93372W        W54793  30.440  42.798   0.465
93373W        W54794  28.065  40.329   1.392
93374W        W54795  21.170  19.071   1.877
93375W        W54796   4.739   3.264  12.579
93376W        W54797  34.577  24.643  11.941
93377W        W54798  18.602  34.873  13.031
93378W        W54799   5.387  21.645   4.163
93379W        W54800  30.577  10.220  10.905
93380W        W54801   9.148  36.983  12.441
93381W        W54802  36.413   6.255   9.941
93382W        W54803  33.537  18.608  10.418
93383W        W54804   4.862  12.653   2.687
93384W        W54805  39.400  24.018  11.956
93385W        W54806   8.164   2.409   4.150
93386W        W54807  34.512  23.554   0.271
93387W        W54808  17.123  22.223   2.211
93388W        W54809  32.087  17.255   4.157
93389W        W54810   4.335  40.800   3.252
93390W        W54811  27.126   0.450  10.632
93391W        W54812  32.520  39.819  14.950
93392W        W54813  43.498   8.303  13.428
93393W        W54814   8.295  30.421  12.515
93394W        W54815  39.471   5.352   1.309
93395W        W54816  27.609  18.176   2.229
93396W        W54817  32.972  33.513  11.940
93397W        W54818   9.818  32.966  12.446
93398W        W54819  24.044  24.628   3.278
93399W        W54820   7.724  39.452   1.737
93400W        W54821  38.958  24.583  14.466
93401W        W54822   2.374  34.982   1.718
93402W        W54823  17.065   6.239  10.066
93403W        W54824   8.901   9.302  11.887
93404W        W54825  23.086   8.337  12.847
93405W        W54826  10.871  39.524  12.457
93406W        W54827  20.038  15.153  10.157
93407W        W54828  16.177   8.202   4.664
93408W        W54829  19.189  12.789  10.609
93409W        W54830  39.842  24.978   4.640
93410W        W54831  12.155  20.696   3.639
93411W        W54832  14.781   5.697   0.334
93412W        W54833   1.463  23.102   4.170
93413W        W54834  23.214  42.924   3.686
93414W        W54835  15.266  31.440  14.820
93415W        W54836   1.434   9.763  12.040
93416W        W54837  10.768  36.962  13.803
93417W        W54838  16.590  23.547   2.403
93418W        W54839  11.280  36.857  14.790
93419W        W54840  15.673  40.304   4.668
93420W        W54841  22.083  39.825  13.791
93421W        W54842  39.369   2.729   3.765
93422W        W54843  44.461  18.622   2.898
93423W        W54844  22.056  38.428  12.406
93424W        W54845  33.599  19.579   1.263
93425W        W54846  34.507  19.570  11.395
93426W        W54847  11.131   9.876   4.194
93427W        W54848  32.893   6.893   2.866
93428W        W54849  36.001  30.137   3.324
93429W        W54850  20.680  15.157  13.877
93430W        W54851  27.564  33.501  10.534
93431W        W54852  25.065  33.517  10.626
93432W        W54853  23.571  17.176   0.483
93433W        W54854  34.530   5.732   1.246
93434W        W54855  32.593  17.289   4.738
93435W        W54856   5.931  11.128   4.740
93436W        W54857  25.667  42.511   3.167
93437W        W54858  10.774  14.268   4.731
93438W        W54859  40.451  33.615   0.799
93439W        W54860  41.883  13.176   9.489
93440W        W54861  40.380  10.840  10.976
93441W        W54862  40.483  22.539  14.317
93442W        W54863  44.000  31.095   0.350
93443W        W54864  34.392   1.923   1.739
93444W        W54865  21.073  35.019   5.234
93445W        W54866  33.500   6.284  11.466
93446W        W54867  41.340  34.428   4.631
93447W        W54868  40.479   3.834  10.508
93448W        W54869  26.542  38.507  14.450
93449W        W54870  22.048  18.165   4.812
93450W        W54871  40.500  39.403   1.367
93451W        W54872  31.107  14.663   5.115
93452W        W54873  23.538   7.743   5.125
93453W        W54874  42.783  17.120  10.542
93454W        W54875  35.090  29.012   0.379
93455W        W54876   4.351   1.242   4.693
93456W        W54877  12.800   9.756  12.356
93457W        W54878   5.337  14.095  14.771
93458W        W54879   9.310  41.451   9.548
93459W        W54880  19.624  37.490   3.360
93460W        W54881  20.690  25.498  11.472
93461W        W54882  44.814  11.182   4.306
93462W        W54883  29.153  26.525   2.809
93463W        W54884  15.126  38.819  14.978
93464W        W54885  39.509  43.779   0.891
93465W        W54886  17.693   9.884   3.769
93466W        W54887  24.516   8.245   0.735
93467W        W54888  16.095  15.282  13.815
93468W        W54889  37.073  37.918  13.902
93469W        W54890  16.132  24.495  12.421
93470W        W54891  14.723  26.570   0.942
93471W        W54892  38.038  13.343  11.980
93472W        W54893  15.093  41.818  14.401
93473W        W54894  20.046   5.868   3.740
93474W        W54895  39.405  25.509   3.169
93475W        W54896  30.487   5.372  10.999
93476W        W54897  31.148  40.446  14.924
93477W        W54898  25.107  36.869   0.869
93478W        W54899  24.071  12.812  10.515
93479W        W54900   8.327   2.823  14.376
93480W        W54901  28.569  12.191   0.424
93481W        W54902  17.086   0.785  10.958
93482W        W54903  23.551  38.538   3.750
93483W        W54904  27.503  15.646   4.302
93484W        W54905  37.064  15.608   3.162
93485W        W54906  18.635  12.352   1.437
93486W        W54907  32.930  26.076  12.471
93487W        W54908  23.643  34.017  11.983
93488W        W54909  14.249  22.652  12.084
93489W        W54910  44.809  39.823   4.678
93490W        W54911   5.735   6.876   1.333
93491W        W54912  27.972   8.800  12.041
93492W        W54913  20.262   8.167   3.793
93493W        W54914  40.465  36.899  12.512
93494W        W54915  19.219  22.155   2.332
93495W        W54916  34.449  14.604  12.004
93496W        W54917  12.695   2.298   0.902
93497W        W54918  31.640  14.119  13.328
93498W        W54919  16.619  40.493  12.908
93499W        W54920  38.349  18.065   0.470
93500W        W54921  15.116  22.109  12.390
93501W        W54922  42.887  22.065   4.348
93502W        W54923  21.527  32.111   0.364
93503W        W54924  36.517  34.408  14.004
93504W        W54925  25.107   4.286  14.018
93505W        W54926   0.336  17.239   2.681
93506W        W54927   6.377  27.014  11.941
93507W        W54928  19.662   0.868  13.519
93508W        W54929  28.536   6.696   0.841
93509W        W54930  13.277  14.115   9.946
93510W        W54931  44.768  27.054   2.839
93511W        W54932   2.370  10.794  12.024
93512W        W54933   7.285  10.867   4.789
93513W        W54934  25.982  40.047   4.692
93514W        W54935  32.139  14.670  13.494
93515W        W54936  40.432  28.558   4.827
93516W        W54937   0.271  44.379   1.399
93517W        W54938  30.447  31.960   2.734
93518W        W54939  30.973   0.385   2.271
93519W        W54940   2.939   6.906   2.685
93520W        W54941  22.206  22.563   3.773
93521W        W54942  11.280   3.268   2.731
93522W        W54943  21.618  12.661  14.382
93523W        W54944   4.411   8.863  13.804
93524W        W54945  32.600  26.136  10.625
93525W        W54946  29.945  10.873  12.985
93526W        W54947  23.617   7.863   5.600
93527W        W54948  38.865  15.698   1.376
93528W        W54949  20.540  25.505   2.324
93529W        W54950  11.696  15.648   5.293
93530W        W54951  15.206  19.666  12.878
93531W        W54952  31.037  33.596   3.237
93532W        W54953  41.481   0.847   3.336
93533W        W54954  16.175  29.168   2.252
93534W        W54955  12.626   2.865   2.885
93535W        W54956  18.767  35.412   3.220
93536W        W54957  24.172  35.955   1.232
93537W        W54958  39.906  16.768  11.008
93538W        W54959  24.054   7.856   1.278
93539W        W54960   8.279  28.062   3.150
93540W        W54961   3.826   4.400  14.429
93541W        W54962   8.348  12.715   2.763
93542W        W54963   1.975  29.438   2.790
93543W        W54964  41.483  15.155  12.407
93544W        W54965  24.655  36.392   2.895
93545W        W54966   3.267  18.154  12.425
93546W        W54967   8.339  31.088  13.927
93547W        W54968   7.361  15.228  12.453
93548W        W54969  40.878   3.396  10.428
93549W        W54970   3.253  10.170  12.876
93550W        W54971  15.701  19.136  12.074
93551W        W54972  39.533  22.620  11.981
93552W        W54973   2.805  24.094  12.369
93553W        W54974  44.924  37.842   2.279
93554W        W54975  27.131  33.531   0.815
93555W        W54976  32.970   4.275   3.214
93556W        W54977   1.343  11.281  12.498
93557W        W54978  28.039  23.535   2.211
93558W        W54979  36.413  16.731   4.198
93559W        W54980  38.544  37.960   0.433
93560W        W54981  13.327  35.476   3.679
93561W        W54982  25.574  27.126  13.537
93562W        W54983  44.764  39.323  11.401
93563W        W54984  13.793   5.785   1.430
93564W        W54985  35.890  40.535   1.280
93565W        W54986  44.293  39.420   3.706
93566W        W54987   1.291  30.645   0.426
93567W        W54988  37.454  14.142  14.860
93568W        W54989  19.047   8.775   1.876
93569W        W54990   6.228  26.544   1.807
93570W        W54991  19.684  10.297  10.508
93571W        W54992  18.784  34.424   0.306
93572W        W54993   7.866  34.407  14.394
93573W        W54994  14.679  16.604  12.534
93574W        W54995   6.300  28.511  14.995
93575W        W54996  12.721  32.514  11.102
93576W        W54997  26.579   6.833   4.629
93577W        W54998  27.645   7.820   2.756
93578W        W54999   6.249   0.921   1.935
93579W        W55000   1.379  37.565   2.191
93580W        W55001  41.473  16.684  14.764
93581W        W55002  39.514   3.909   1.852
93582W        W55003  26.048  24.540  14.961
93583W        W55004  15.260  26.143   4.127
93584W        W55005   2.253  26.996   3.191
93585W        W55006  34.542  29.595  12.495
93586W        W55007   7.209   9.880   3.840
93587W        W55008  26.499  34.040   1.235
93588W        W55009  30.970  19.237  12.978
93589W        W55010  16.292   1.958   3.367
93590W        W55011   1.449  20.574  12.492
93591W        W55012  14.788   3.400   2.754
93592W        W55013  42.878  18.556   3.694
93593W        W55014  24.022  27.006  13.060
93594W        W55015  29.152  25.963  10.527
93595W        W55016  27.041  18.290   1.846
93596W        W55017  28.440  39.893   1.786
93597W        W55018  12.702  23.236  10.906
93598W        W55019  17.732   0.264  12.979
93599W        W55020  30.075  19.278  12.835
93600W        W55021  13.272  28.944  11.869
93601W        W55022  24.622  18.619  10.612
93602W        W55023   5.741  34.507   3.296
93603W        W55024  36.558  35.381   3.196
93604W        W55025   5.846  16.740  12.405
93605W        W55026  30.972  19.736  13.838
93606W        W55027   7.369   1.919  10.426
93607W        W55028  43.833  30.140   2.367
93608W        W55029  23.554  26.564   4.270
93609W        W55030  38.960  27.111   2.828
93610W        W55031  37.446  14.740   2.416
93611W        W55032  43.994  40.334   4.125
93612W        W55033   6.723  28.993  11.958
93613W        W55034  19.578   3.831  13.048
93614W        W55035  41.464  40.855   4.207
93615W        W55036  20.674  37.565  14.439
93616W        W55037  24.980  31.630   2.724
93617W        W55038   7.697  42.025   3.357
93618W        W55039  33.609  32.969  11.001
93619W        W55040  20.563  28.437  14.406
93620W        W55041   2.890  40.363  13.952
93621W        W55042  11.344  29.431  13.013
93622W        W55043   7.208  37.068   3.719
93623W        W55044  32.954  33.436  13.798
93624W        W55045  18.718  34.486   2.841
93625W        W55046  29.478  16.734   0.957
93626W        W55047   7.863  12.348   1.430
93627W        W55048  41.428   9.168  11.957
93628W        W55049   5.237  11.270   4.770
93629W        W55050   1.855  32.631   1.815
93630W        W55051  37.387  35.091   0.815
93631W        W55052  21.663   8.721  14.964
93632W        W55053  16.764   3.915  11.498
93633W        W55054  23.562  41.827   0.292
93634W        W55055  17.227   3.930   2.273
93635W        W55056  18.546  25.986   1.311
93636W        W55057  35.066  23.576  13.365
93637W        W55058  25.183  33.531  13.410
93638W        W55059  24.651  24.062  11.412
93639W        W55060   3.438   6.735  12.015
93640W        W55061  35.537  13.282  13.335
93641W        W55062  42.500  26.008  10.630
93642W        W55063  24.116  40.034  12.528
93643W        W55064   3.239  38.928   1.271
93644W        W55065   5.779  13.780  14.349
93645W        W55066  12.338   7.251  13.498
93646W        W55067  15.746   5.812   4.185
93647W        W55068  12.361  12.841  12.838
93648W        W55069  22.595   3.451   1.736
93649W        W55070  36.946  26.104  12.514
93650W        W55071  18.244  18.143  11.007
93651W        W55072  27.974   1.310  14.482
93652W        W55073  14.332   9.343   0.287
93653W        W55074   8.355  17.726  13.857
93654W        W55075  35.389  27.965   4.699
93655W        W55076  36.944  15.122   3.293
93656W        W55077  13.280  25.574   0.751
93657W        W55078  30.435  36.424   3.347
93658W        W55079  28.082  44.322  10.557
93659W        W55080  40.050  19.147   4.242
93660W        W55081   6.419  23.585   4.201
93661W        W55082  17.731  31.462  10.502
93662W        W55083  26.534  16.135  12.492
93663W        W55084  14.305  12.127  11.006
93664W        W55085  21.176  16.177   4.687
93665W        W55086  24.119   2.435   2.277
93666W        W55087  24.132   6.686  13.972
93667W        W55088  31.969   9.373  10.437
93668W        W55089  26.021   4.256   2.887
93669W        W55090  41.866  31.115   0.431
93670W        W55091  36.068  17.652  10.960
93671W        W55092   0.876   3.951   4.635
93672W        W55093  21.263  17.277   0.934
93673W        W55094  24.106  14.762  12.345
93674W        W55095  26.056  30.538   0.898
93675W        W55096  15.629  31.644  13.886
93676W        W55097  37.356   8.748   4.659
93677W        W55098  23.115  29.619  14.289
93678W        W55099   4.781   5.761   4.193
93679W        W55100   1.413  13.841   2.725
93680W        W55101  13.185   5.877   1.712
93681W        W55102  20.650  21.257   2.681
93682W        W55103  24.077   3.926  12.412
93683W        W55104   9.389  22.693  11.127
93684W        W55105  42.483  24.579  13.841
93685W        W55106  44.411  35.999  10.510
93686W        W55107  20.096  40.490   9.936
93687W        W55108  37.084  29.030   4.226
93688W        W55109  24.497   4.298  12.838
93689W        W55110  40.384  27.561  13.522
93690W        W55111  12.227   5.860   3.167
93691W        W55112   3.248  28.579  12.092
93692W        W55113  35.503  39.383   3.265
93693W        W55114  34.011   0.393   0.373
93694W        W55115  12.345  13.842  11.019
93695W        W55116  21.017  36.494   1.275
93696W        W55117   2.273  13.619  13.477
93697W        W55118  39.990  12.125  13.930
93698W        W55119  33.106  18.174  10.472
93699W        W55120  35.466  31.086  11.118
93700W        W55121  24.083  23.012   4.652
93701W        W55122   2.244   3.799   1.720
93702W        W55123  40.950  26.995  11.892
93703W        W55124   9.245   8.809   4.600
93704W        W55125   7.682  32.420   0.473
93705W        W55126  44.968  34.574   0.409
93706W        W55127  41.937   3.832  11.469
93707W        W55128  18.633   6.194  13.326
93708W        W55129  12.786  41.837  10.554
93709W        W55130  13.237   3.843   0.396
93710W        W55131  19.112   8.198   4.212
93711W        W55132   4.433   2.338  12.881
93712W        W55133  14.631  19.191  14.452
93713W        W55134  10.234  25.588   1.933
93714W        W55135  40.979  16.246   4.794
93715W        W55136  16.120   8.860   4.131
93716W        W55137  31.901  37.514  10.109
93717W        W55138  38.944  29.427  14.838
93718W        W55139   8.364  28.610  13.042
93719W        W55140  10.727  33.624  12.837
93720W        W55141  14.202  10.875   1.263
93721W        W55142  33.895  36.452   1.722
93722W        W55143   6.235   0.425  14.929
93723W        W55144  33.528  26.673   1.911
93724W        W55145  30.604  11.203  11.429
93725W        W55146  37.447  38.939   4.707
93726W        W55147  11.295  12.234   2.685
93727W        W55148  36.500  41.923   4.347
93728W        W55149  40.961  39.355  11.128
93729W        W55150   0.860  12.689  11.929
93730W        W55151  37.543  39.869  11.563
93731W        W55152  40.984  43.002   1.402
93732W        W55153  27.473   0.959  14.913
93733W        W55154  24.052  36.948   4.190
93734W        W55155  16.185   4.344  11.952
93735W        W55156   8.352  41.971   0.820
93736W        W55157  25.543  32.972  12.374
93737W        W55158   9.772  19.049   1.926
93738W        W55159  26.157  40.807  10.471
93739W        W55160  33.533  10.156  10.990
93740W        W55161   5.199  20.259  11.471
93741W        W55162   6.739  21.590   4.773
93742W        W55163  27.108  38.523   4.251
93743W        W55164  42.009  19.663   3.743
93744W        W55165   6.677  36.462   3.800
93745W        W55166  39.914   6.339   4.681
93746W        W55167  24.550  15.126   3.378
93747W        W55168  31.914  22.633  12.405
93748W        W55169  42.984  16.173  10.969
93749W        W55170  21.600  20.761   4.634
93750W        W55171  13.734  12.850  13.378
93751W        W55172   2.738  38.993   1.704
93752W        W55173  10.840  26.167   4.309
93753W        W55174  31.059  31.556   4.217
93754W        W55175  31.602  15.611   3.863
93755W        W55176   7.214   7.408  13.540
93756W        W55177  39.945  25.706   2.237
93757W        W55178  39.368  25.209  11.049
93758W        W55179  11.730  14.278  13.853
93759W        W55180  16.316   2.359  13.472
93760W        W55181  43.327  15.114   2.272
93761W        W55182   5.250  35.964  10.600
93762W        W55183  40.886  35.855   4.286
93763W        W55184  14.707  21.140  14.001
93764W        W55185  30.647  15.327   9.487
93765W        W55186  37.471  33.088  11.373
93766W        W55187  15.137   5.873   3.831
93767W        W55188   4.930  41.977  13.350
93768W        W55189  10.775  24.536   0.814
93769W        W55190   5.839  14.112  10.893
93770W        W55191   1.785  36.858  14.478
93771W        W55192  31.640   5.747  12.983
93772W        W55193  16.145   0.458  12.973
93773W        W55194   2.950  34.543  14.799
93774W        W55195  39.864  19.064   1.290
93775W        W55196   2.432  35.104   2.233
93776W        W55197  22.731  24.017   2.844
93777W        W55198  11.198  34.867   0.933
93778W        W55199  40.371   4.767   5.187
93779W        W55200  15.730  28.107  12.885
93780W        W55201  24.005  42.409   2.774
93781W        W55202  32.494   5.196  10.953
93782W        W55203  40.937  39.534  14.282
93783W        W55204   5.258   7.362  13.891
93784W        W55205  27.505  39.897  14.949
93785W        W55206  35.898  23.111  14.991
93786W        W55207  34.982  20.525   4.256
93787W        W55208  16.225  31.037   1.715
93788W        W55209  12.171  14.265   0.923
93789W        W55210  34.070  14.239   0.834
93790W        W55211   6.804  10.250   1.238
93791W        W55212  23.125  13.209   3.260
93792W        W55213   7.852  32.954   3.221
93793W        W55214  29.582  34.992  11.534
93794W        W55215  26.103  43.931   0.288
93795W        W55216   3.838   9.278  14.294
93796W        W55217  39.409  10.338  14.892
93797W        W55218   2.792  15.768   2.720
93798W        W55219  18.742   5.217   1.313
93799W        W55220  33.443   9.367   2.357
93800W        W55221  40.031  43.384   3.337
93801W        W55222   8.859  28.465  11.523
93802W        W55223  38.443   0.421  11.114
93803W        W55224  22.241  34.113  10.622
93804W        W55225  36.474  30.572   0.905
93805W        W55226  35.568  26.594   0.346
93806W        W55227  17.600  23.675  11.058
93807W        W55228   9.199  35.038   2.402
93808W        W55229  40.853  26.591  14.296
93809W        W55230  36.956  22.566  14.460
93810W        W55231  24.034  13.343  13.991
93811W        W55232  44.758  10.149  11.519
93812W        W55233  26.558  33.612   4.740
93813W        W55234  39.905  38.523   0.940
93814W        W55235  43.472  26.568  11.119
93815W        W55236   8.686  37.387   4.675
93816W        W55237  36.028   0.327   2.376
93817W        W55238   7.188  14.117  10.543
93818W        W55239  32.065  21.715   1.213
93819W        W55240  26.197  40.841   4.247
93820W        W55241  12.132  19.546   1.850
93821W        W55242  41.800  21.150  13.472
93822W        W55243  20.679  39.523   0.897
93823W        W55244  32.957  44.933  10.590
93824W        W55245  35.486  40.500  12.824
93825W        W55246  18.098  25.047   1.411
93826W        W55247  18.636   8.342   2.891
93827W        W55248  28.964  32.418   4.792
93828W        W55249  17.224  29.002   0.965
93829W        W55250   9.327   3.429   2.794
93830W        W55251   6.738   7.867  13.376
93831W        W55252  30.497  19.697   1.380
93832W        W55253  29.618  14.688   0.894
93833W        W55254   5.395  26.062   2.883
93834W        W55255  42.437  34.535  13.919
93835W        W55256  39.557  27.561  13.817
93836W        W55257  17.192  38.345   4.296
93837W        W55258  34.991  35.440  11.902
93838W        W55259  42.304   1.735   4.159
93839W        W55260  43.829  43.772  11.981
93840W        W55261  27.152  30.092  14.466
93841W        W55262  21.744   3.249  10.560
93842W        W55263  28.037  36.534  10.076
93843W        W55264   3.930  22.097   3.867
93844W        W55265  38.415  37.871   1.924
93845W        W55266   9.185  27.145  14.294
93846W        W55267   8.224  11.678   3.842
93847W        W55268   4.741  22.632  13.359
93848W        W55269  16.687  16.226   0.431
93849W        W55270   6.908  17.082  14.492
93850W        W55271  15.810  33.405   1.229
93851W        W55272   6.294   4.738   1.762
93852W        W55273   6.904  43.856   2.183
93853W        W55274  36.061  36.527  12.455
93854W        W55275  28.129  14.655  12.481
93855W        W55276  17.653   8.772   2.388
93856W        W55277  13.211  23.140  13.959
93857W        W55278  42.522  36.541   2.207
93858W        W55279  21.751  34.511  14.494
93859W        W55280   5.790   9.755   3.268
93860W        W55281  10.820  31.047  14.299
93861W        W55282  42.446   3.275  11.078
93862W        W55283  39.496   2.367   0.763
93863W        W55284  35.993  33.939   3.720
93864W        W55285  17.238   8.792   4.320
93865W        W55286  33.886  40.822  13.414
93866W        W55287  38.498  43.941   3.795
93867W        W55288   4.329  21.180  10.421
93868W        W55289  28.550  20.253  12.028
93869W        W55290  26.190  21.554  13.972
93870W        W55291  34.110  41.421  12.838
93871W        W55292  13.253   7.280  11.877
93872W        W55293  28.615  24.508   3.232
93873W        W55294  34.982  26.510  10.035
93874W        W55295  12.307  22.555   2.837
93875W        W55296  24.017  13.768  11.095
93876W        W55297  30.556   2.341  11.557
93877W        W55298  14.768  29.921  13.503
93878W        W55299  20.099  14.636  12.911
93879W        W55300  41.338  28.611  11.106
93880W        W55301  42.844  30.997  13.986
93881W        W55302  12.278  19.274   3.717
93882W        W55303  17.734  29.947  11.554
93883W        W55304   3.403   9.149   3.274
93884W        W55305  17.630  33.998  10.409
93885W        W55306  40.371  10.682  13.054
93886W        W55307   7.699  41.511  11.873
93887W        W55308  20.096  30.024   2.289
93888W        W55309  33.481  37.830  10.502
93889W        W55310  21.648  13.190  13.865
93890W        W55311   3.724  27.182  11.862
93891W        W55312   7.369   6.746  11.432
93892W        W55313  14.165  43.412   2.747
93893W        W55314  18.658  24.517   4.665
93894W        W55315  44.327  12.824  11.492
93895W        W55316  10.370  13.323   1.393
93896W        W55317  29.503  19.603  10.615
93897W        W55318  14.711   6.245   0.362
93898W        W55319  37.529  42.527   0.864
93899W        W55320  13.244  21.574  12.435
93900W        W55321  30.444  11.689   5.763
93901W        W55322  37.919  18.068  10.417
93902W        W55323  23.614  35.506   0.930
93903W        W55324  38.837  22.079  12.002
93904W        W55325  39.342  21.248   4.331
93905W        W55326  20.247  32.136  13.798
93906W        W55327   9.164  35.109  12.562
93907W        W55328  12.656  14.773  11.962
93908W        W55329  10.824  20.537   3.217
93909W        W55330  39.329  42.924   1.235
93910W        W55331  18.554  37.018   3.661
93911W        W55332   7.707  25.547   4.144
93912W        W55333   7.792  23.229  14.476
93913W        W55334  37.347  35.944   4.282
93914W        W55335  37.457  24.118  14.863
93915W        W55336  43.872  30.587   2.241
93916W        W55337  28.092  24.198   3.254
93917W        W55338   9.277  32.913  10.426
93918W        W55339  44.310  37.989  14.014
93919W        W55340  40.816   9.882   3.242
93920W        W55341  31.129  29.100  13.515
93921W        W55342  18.255  22.607  10.608
93922W        W55343  34.906  26.163  11.463
93923W        W55344  11.779  42.521   0.925
93924W        W55345  44.279  13.711  11.027
93925W        W55346  11.638  40.352  14.878
93926W        W55347  33.091  32.626   1.933
93927W        W55348  29.554  22.227  10.028
93928W        W55349   3.757   2.364  11.873
93929W        W55350  40.881  20.261  14.444
93930W        W55351  15.668  11.695  11.519
93931W        W55352  21.718  19.776  11.508
93932W        W55353  28.027  11.266  14.302
93933W        W55354  32.888   4.801   0.390
93934W        W55355  36.040  21.719   4.282
93935W        W55356  16.217  20.592   3.829
93936W        W55357   2.892  35.975   2.363
93937W        W55358   0.418  12.273  13.365
93938W        W55359  36.951  32.888   4.789
93939W        W55360  36.937  30.459   3.373
93940W        W55361  15.268  25.160   1.264
93941W        W55362   3.437   6.878  10.517
93942W        W55363   5.389  16.183  13.807
93943W        W55364  41.895   9.660   0.278
93944W        W55365  20.589   7.756   1.216
93945W        W55366   7.284  38.066  12.511
93946W        W55367   9.184  28.591   2.703
93947W        W55368  44.960  26.077  11.952
93948W        W55369  21.562  33.424  13.412
93949W        W55370   9.719  21.732   3.156
93950W        W55371   3.430  31.567  14.029
93951W        W55372  25.670  44.977  11.021
93952W        W55373  13.174  39.054   2.859
93953W        W55374  41.963   2.837  14.914
93954W        W55375  39.814  16.594   1.829
93955W        W55376  26.682   6.855  12.558
93956W        W55377   9.256  34.894   0.393
93957W        W55378  24.202  10.742   2.852
93958W        W55379  22.728  15.291  13.923
93959W        W55380  19.686  11.194   2.786
93960W        W55381  25.604  11.800  14.279
93961W        W55382  21.223   8.671  11.543
93962W        W55383  20.640  26.158  11.596
93963W        W55384  20.270  37.024   3.357
93964W        W55385  30.572  25.561  10.575
93965W        W55386  25.667  25.535  13.399
93966W        W55387  22.077  24.624  11.123
93967W        W55388  28.638   5.232   1.351
93968W        W55389  41.875  33.027   4.323
93969W        W55390  11.199  34.426   3.376
93970W        W55391   0.334   1.420  11.583
93971W        W55392  24.608  39.527   3.847
93972W        W55393   5.359   9.683   4.213
93973W        W55394  21.170   6.265   1.827
93974W        W55395   1.799   4.943   1.389
93975W        W55396  41.919  10.374  10.410
93976W        W55397  35.469  15.153   3.359
93977W        W55398   8.260  36.446   1.426
93978W        W55399  23.704  37.029   2.200
93979W        W55400  42.946  22.527   3.305
93980W        W55401  41.792   1.288  12.010
93981W        W55402  34.484  39.379   1.332
93982W        W55403  23.110  40.955   1.762
93983W        W55404  16.219  20.556   0.943
93984W        W55405   1.237  11.352   4.632
93985W        W55406   0.373  23.986   2.802
93986W        W55407  19.140  14.700   3.272
93987W        W55408  39.009  27.164   4.299
93988W        W55409  33.106  38.017  11.611
93989W        W55410  22.603  33.933  13.514
93990W        W55411  41.527   9.255  13.414
93991W        W55412  21.126   0.770  10.635
93992W        W55413  34.075   1.300   1.841
93993W        W55414   0.904  11.784   3.769
93994W        W55415  39.487   4.895   1.428
93995W        W55416  34.075   1.880  13.011
93996W        W55417  13.289   3.269   1.383
93997W        W55418  11.687  33.535  12.845
93998W        W55419  12.316  35.034  13.453
93999W        W55420  22.708  17.591   4.793
94000W        W55421  29.010  14.291   3.812
94001W        W55422  16.670  18.712   2.686
94002W        W55423  22.086  19.678  13.888
94003W        W55424  41.322  26.547   9.976
94004W        W55425  24.096   5.202  11.463
94005W        W55426  23.588  35.001   1.269
94006W        W55427  44.888  38.914  10.579
94007W        W55428   9.825  43.313   3.201
94008W        W55429  44.311  38.969   3.216
94009W        W55430  29.508  18.675  14.329
94010W        W55431  19.262   3.815   1.729
94011W        W55432  35.941  23.105  14.337
94012W        W55433  39.933  10.768  12.084
94013W        W55434  23.145  19.613   5.161
94014W        W55435  36.553  30.996  12.492
94015W        W55436  12.178  33.130   3.163
94016W        W55437  31.440   5.870   2.213
94017W        W55438  23.595  33.924  12.502
94018W        W55439  33.426  13.804  10.519
94019W        W55440  40.354  38.008   1.379
94020W        W55441  11.860   5.361  14.813
94021W        W55442  21.214  41.844  10.964
94022W        W55443   7.229  30.115  13.388
94023W        W55444   9.795  14.256  11.120
94024W        W55445  14.113  11.652   1.800
94025W        W55446   9.173   7.377   1.900
94026W        W55447  44.457   0.836  12.552
94027W        W55448  23.642   3.884  14.023
94028W        W55449  26.958  18.215   4.309
94029W        W55450  23.044   8.237  11.001
94030W        W55451   4.804  15.750  13.823
94031W        W55452  30.496   1.243  12.869
94032W        W55453  17.634  34.375  12.388
94033W        W55454  23.101  20.135  10.918
94034W        W55455  23.139  44.373   2.852
94035W        W55456  36.999   3.760  13.473
94036W        W55457  34.909  43.416   4.708
94037W        W55458  33.606  31.092   0.356
94038W        W55459  24.574  32.393   4.713
94039W        W55460   5.824  44.990   4.251
94040W        W55461  21.581  32.132   3.179
94041W        W55462  19.171  23.600  13.498
94042W        W55463  39.840  30.621  13.403
94043W        W55464  39.428  31.637  14.841
94044W        W55465  12.154  39.326   1.220
94045W        W55466  40.901   0.963  14.326
94046W        W55467  28.649   6.213  11.406
94047W        W55468  26.969  31.010   3.151
94048W        W55469   8.896  17.222   0.446
94049W        W55470  22.997  33.516  14.987
94050W        W55471  43.392   9.331   1.820
94051W        W55472  41.397   4.747   3.856
94052W        W55473  19.759  21.540   1.806
94053W        W55474  17.597  18.275  10.545
94054W        W55475  33.445  20.694  11.550
94055W        W55476  38.849  36.084   0.280
94056W        W55477  21.563  33.584  11.891
94057W        W55478  43.346  13.198  11.042
94058W        W55479  23.186  16.243  13.325
94059W        W55480  14.617   3.880   2.221
94060W        W55481  26.584  30.142   0.419
94061W        W55482  18.178   4.907  13.825
94062W        W55483  39.486   8.363   4.803
94063W        W55484  27.104   7.716  11.443
94064W        W55485  39.046  26.200  13.413
94065W        W55486  39.421  30.600  13.450
94066W        W55487   8.666   2.327  12.936
94067W        W55488  43.015  35.108  14.374
94068W        W55489  39.945  14.749  12.878
94069W        W55490  22.569  27.176   3.697
94070W        W55491  34.966  25.050   2.394
94071W        W55492  10.361  28.577  14.010
94072W        W55493  12.672  23.526   3.859
94073W        W55494   8.198  20.707  13.845
94074W        W55495  35.448   3.375  13.466
94075W        W55496   5.314  40.483   2.847
94076W        W55497  10.211  39.841   3.779
94077W        W55498  40.942  11.197  10.150
94078W        W55499  42.023  37.500   1.918
94079W        W55500  20.081  30.107   4.207
94080W        W55501  27.563  29.497  12.445
94081W        W55502  38.334  29.977   2.377
94082W        W55503  13.740   6.898   2.729
94083W        W55504  42.897  23.594  11.917
94084W        W55505   4.218  43.422  10.608
94085W        W55506  33.582  13.129   2.858
94086W        W55507  31.622  25.155  14.934
94087W        W55508  16.263  11.292  11.003
94088W        W55509   1.333  24.524  12.490
94089W        W55510  13.228  12.822  12.557
94090W        W55511  36.429   6.770   0.242
94091W        W55512  35.958  15.247   4.259
94092W        W55513   0.383  27.589   2.776
94093W        W55514  26.673   8.675  10.432
94094W        W55515  43.859  32.985   3.178
94095W        W55516  38.885  26.978  12.975
94096W        W55517   4.914  22.687  14.322
94097W        W55518   0.385   3.256  13.334
94098W        W55519  39.841  24.069   0.452
94099W        W55520  37.470  40.966  12.404
94100W        W55521  25.558   7.226   4.133
94101W        W55522  14.167   4.412  14.913
94102W        W55523  33.396  39.428  12.047
94103W        W55524   8.210  10.635  11.404
94104W        W55525  22.201   3.230  14.854
94105W        W55526  26.069  16.686  13.344
94106W        W55527  27.077  37.457   0.411
94107W        W55528  27.521  30.119   4.733
94108W        W55529  19.076  26.982   0.776
94109W        W55530  17.075   1.910   2.409
94110W        W55531   1.913   8.661  12.460
94111W        W55532  32.060   2.322  13.493
94112W        W55533  37.479   1.335   4.771
94113W        W55534  25.129  22.735   3.254
94114W        W55535  35.546  14.779  12.521
94115W        W55536  30.161  18.128   3.239
94116W        W55537   7.752  13.676   4.670
94117W        W55538  18.644  40.393  12.528
94118W        W55539  27.150  40.833   3.247
94119W        W55540   4.753  27.503  10.147
94120W        W55541  42.854  14.151   0.357
94121W        W55542  14.696  42.470  12.869
94122W        W55543  37.369  41.397   4.201
94123W        W55544  16.160  11.240  11.601
94124W        W55545  28.447   4.339  14.782
94125W        W55546  36.039  13.204  13.902
94126W        W55547  33.538  22.089  13.009
94127W        W55548  13.749  31.420  11.912
94128W        W55549   7.411  37.354   0.378
94129W        W55550  21.627  10.312   3.809
94130W        W55551   0.775  32.965   1.869
94131W        W55552  24.604   4.940  12.826
94132W        W55553   6.325  38.014  10.068
94133W        W55554  26.495  31.965   3.653
94134W        W55555  21.149  37.426  10.472
94135W        W55556  44.440   2.765  12.569
94136W        W55557  38.962   5.242   3.281
94137W        W55558  31.625  18.717   1.751
94138W        W55559  41.862   0.451  12.861
94139W        W55560   8.405  23.521  10.466
94140W        W55561  38.460  20.255   0.301
94141W        W55562  20.070  20.271  10.443
94142W        W55563  21.526  30.628   3.699
94143W        W55564  23.736  29.599  12.372
94144W        W55565   1.320  41.442  11.929
94145W        W55566  27.067  38.884  11.492
94146W        W55567  27.486  42.376  12.074
94147W        W55568  35.106  10.179   0.404
94148W        W55569   6.793  16.663   1.306
94149W        W55570  34.383  21.660   2.757
94150W        W55571   8.713  18.193   3.236
94151W        W55572   8.678  19.218  11.900
94152W        W55573   3.868  23.048  14.879
94153W        W55574   9.224  14.234  10.955
94154W        W55575   7.223  21.134   4.749
94155W        W55576  19.125  34.439  11.478
94156W        W55577  12.774   2.463  13.915
94157W        W55578  20.044  38.405   4.276
94158W        W55579  34.420  22.237   2.714
94159W        W55580  28.061  22.045   0.418
94160W        W55581  34.503  27.667   3.333
94161W        W55582   4.239  21.646  11.089
94162W        W55583  32.893  23.639   3.237
94163W        W55584   1.374   5.709  11.407
94164W        W55585  14.300  29.979  12.346
94165W        W55586  27.998   8.254   1.705
94166W        W55587  35.418  42.372  13.495
94167W        W55588  27.051  15.627   2.214
94168W        W55589  26.649  36.043  14.312
94169W        W55590  13.299  19.197   0.921
94170W        W55591  20.226  19.736   1.322
94171W        W55592  38.461  22.206  14.466
94172W        W55593  31.438  16.238  11.480
94173W        W55594   3.373  38.840  11.069
94174W        W55595   2.866   8.760   0.934
94175W        W55596   3.851   3.832   0.920
94176W        W55597  27.026  18.174  13.447
94177W        W55598  39.329  25.696   0.482
94178W        W55599  29.545  39.065   3.827
94179W        W55600   1.874   5.200  13.336
94180W        W55601  16.125  12.257  10.475
94181W        W55602  41.364  15.286  12.842
94182W        W55603   5.763  26.458  12.010
94183W        W55604  30.986  37.904  11.100
94184W        W55605   2.454   4.312  11.016
94185W        W55606  29.939  36.046   1.320
94186W        W55607  42.887   8.663  10.600
94187W        W55608  34.117  45.000  10.932
94188W        W55609  19.575  31.107   3.151
94189W        W55610   0.381  31.484   0.262
94190W        W55611  35.994  34.413   3.287
94191W        W55612  30.043  26.577   2.874
94192W        W55613  27.626  35.921   1.875
94193W        W55614  21.651  41.845  13.864
94194W        W55615   7.364  29.496  11.923
94195W        W55616  28.552   8.324  12.877
94196W        W55617  41.494   8.848   0.928
94197W        W55618  37.531  12.239   0.859
94198W        W55619  39.489  20.145   4.692
94199W        W55620  19.276  21.201  10.611
94200W        W55621  21.019   3.421   0.248
94201W        W55622   2.962   7.858  14.361
94202W        W55623   7.373  10.264  13.430
94203W        W55624  13.812  25.608  14.344
94204W        W55625  44.299  26.094   0.878
94205W        W55626  18.693  31.543   2.778
94206W        W55627  34.921  14.805  12.470
94207W        W55628  28.086   0.811  14.941
94208W        W55629  11.655  29.610   1.358
94209W        W55630  24.649  43.999   4.164
94210W        W55631  36.481  10.206  10.076
94211W        W55632  11.841  40.821   2.362
94212W        W55633   7.280  21.566  13.501
94213W        W55634  32.944  41.457   2.361
94214W        W55635  44.454  34.477   0.307
94215W        W55636  30.488  22.114  13.450
94216W        W55637  18.183  23.180  12.479
94217W        W55638  33.484   4.377   4.719
94218W        W55639  24.995   4.933   9.961
94219W        W55640  24.986  31.453   0.951
94220W        W55641  24.009  39.341  12.873
94221W        W55642  27.185   3.948  14.453
94222W        W55643  11.173   7.322   0.310
94223W        W55644  28.011   3.938  10.634
94224W        W55645  17.236  18.283  12.885
94225W        W55646   7.850   1.313  14.345
94226W        W55647  38.000  21.197   5.278
94227W        W55648  23.219  20.252  12.451
94228W        W55649  27.046  36.381  13.826
94229W        W55650  19.065  30.656   0.324
94230W        W55651   2.803  22.508   1.850
94231W        W55652  30.445  13.626   1.257
94232W        W55653  15.586  13.239  12.368
94233W        W55654  19.213   7.726  14.276
94234W        W55655  30.033  25.492   4.684
94235W        W55656  33.049  31.403  12.564
94236W        W55657   6.218  17.260   2.866
94237W        W55658   2.322  26.955   2.693
94238W        W55659   8.691  22.123   3.350
94239W        W55660  19.234  27.995  13.019
94240W        W55661  40.471   1.407   4.752
94241W        W55662  12.153  34.093  14.943
94242W        W55663   0.753  38.358   3.657
94243W        W55664  38.548  17.567   1.257
94244W        W55665  28.127  41.408   1.837
94245W        W55666   6.686  31.984  11.379
94246W        W55667  32.013  34.933  12.991
94247W        W55668  36.090  43.764  14.808
94248W        W55669  39.013   3.931  11.857
94249W        W55670  40.514  10.329  12.875
94250W        W55671  18.763  17.159  10.560
94251W        W55672  31.492  41.423   2.824
94252W        W55673  42.417  29.175  13.424
94253W        W55674  11.683  10.710   3.839
94254W        W55675  28.931  39.366  14.777
94255W        W55676  41.382  27.127  13.907
94256W        W55677  24.173  41.484   2.351
94257W        W55678  40.309   8.212   3.180
94258W        W55679  37.520  26.092  14.010
94259W        W55680  23.550  36.445   3.176
94260W        W55681  35.935  39.847   0.415
94261W        W55682  30.916  23.989   1.347
94262W        W55683  39.514   1.395   4.277
94263W        W55684   6.820  26.616  11.479
94264W        W55685  43.940   6.852   3.294
94265W        W55686  16.159  37.979   1.924
94266W        W55687  18.083  20.180   1.314
94267W        W55688  28.163  43.848  11.889
94268W        W55689   5.878  10.336   4.142
94269W        W55690  13.165  27.453  10.585
94270W        W55691  29.436  38.901  14.979
94271W        W55692  17.211  13.140  11.455
94272W        W55693  41.823  11.672   4.217
94273W        W55694  41.868  30.083  14.493
94274W        W55695  10.709   7.837  13.032
94275W        W55696  21.108  17.068   0.378
94276W        W55697  28.440  21.137  14.314
94277W        W55698  27.610  42.280  13.002
94278W        W55699  38.407   1.287   1.449
94279W        W55700  44.960  44.856  12.529
94280W        W55701   5.794   0.359   3.235
94281W        W55702  26.137  11.188   4.176
94282W        W55703  29.115   7.856  14.396
94283W        W55704  36.872  24.638   4.137
94284W        W55705  21.140  34.475  13.824
94285W        W55706  13.104   5.850   0.410
94286W        W55707  42.999   2.345  13.316
94287W        W55708  18.216  42.431   3.202
94288W        W55709  22.716  35.994  14.769
94289W        W55710  30.538  15.770   4.253
94290W        W55711  29.575  39.897   3.700
94291W        W55712   5.929   8.215   2.255
94292W        W55713  34.427  18.054   4.318
94293W        W55714  35.940   5.800   0.306
94294W        W55715   9.737  32.087   2.737
94295W        W55716   1.846  14.764  14.412
94296W        W55717  26.104   9.210  10.889
94297W        W55718  32.032  17.147  14.468
94298W        W55719   5.344  15.580  14.797
94299W        W55720   7.782  42.502   4.234
94300W        W55721  34.497  42.523  13.893
94301W        W55722  14.621   8.342   3.812
94302W        W55723  34.080  18.191   1.784
94303W        W55724  35.454  22.667  11.864
94304W        W55725   9.170  13.696   3.820
94305W        W55726  35.591  14.715   4.293
94306W        W55727  13.640  12.179   0.870
94307W        W55728  11.193   0.920  12.358
94308W        W55729  25.130  10.860   4.193
94309W        W55730  19.535  40.536  11.954
94310W        W55731  34.975  44.910  13.996
94311W        W55732   6.268  29.073  13.414
94312W        W55733   5.818  24.685   1.431
94313W        W55734  22.507  42.291   1.396
94314W        W55735   7.887  23.624  12.961
94315W        W55736  38.476  21.712  13.020
94316W        W55737   7.873   0.982   4.324
94317W        W55738   9.668  41.032  14.925
94318W        W55739  14.144   2.349  14.868
94319W        W55740   6.749  25.545   2.834
94320W        W55741  18.625  27.662  13.411
94321W        W55742  41.986  30.474  14.971
94322W        W55743   5.812   6.352   2.286
94323W        W55744  12.150   9.879   3.227
94324W        W55745  10.840  16.723  14.025
94325W        W55746  12.289   4.444  12.978
94326W        W55747   1.388  28.555   1.833
94327W        W55748  31.477  18.175  13.885
94328W        W55749  44.391   2.863   4.221
94329W        W55750  41.880  30.541   2.290
94330W        W55751  25.497  11.230  10.418
94331W        W55752  29.138  28.012  13.413
94332W        W55753  37.429  17.100   3.772
94333W        W55754  39.448  12.152  13.418
94334W        W55755  25.565  24.514   1.289
94335W        W55756  42.413  22.153  14.000
94336W        W55757  20.106  38.363   1.349
94337W        W55758  31.122  14.322  11.093
94338W        W55759  43.306  27.112  11.538
94339W        W55760  35.064  27.506  12.523
94340W        W55761  26.163  10.636   1.246
94341W        W55762  31.627   0.806   1.873
94342W        W55763  18.214   4.219   2.771
94343W        W55764   8.343  19.044  11.124
94344W        W55765   2.233  25.111  10.148
94345W        W55766  38.898   3.335  11.095
94346W        W55767  41.475  35.531  13.360
94347W        W55768  10.383  24.530   2.903
94348W        W55769  27.614  10.817   0.877
94349W        W55770  11.714  33.924  12.532
94350W        W55771   7.887  27.488   0.457
94351W        W55772   0.330  35.884   2.664
94352W        W55773  38.017  16.592   1.288
94353W        W55774  36.417   6.869  12.402
94354W        W55775   9.351   6.882   3.793
94355W        W55776   9.800  17.747   1.443
94356W        W55777  32.973  11.274   1.757
94357W        W55778   8.666   9.276   3.165
94358W        W55779  10.641  41.414  13.793
94359W        W55780   3.885   3.753  13.321
94360W        W55781  20.652  27.492   2.754
94361W        W55782   8.674  18.712   0.281
94362W        W55783  20.190  29.045   0.291
94363W        W55784  15.309  33.976  11.546
94364W        W55785  33.994   4.443  12.480
94365W        W55786  20.708   0.828   4.277
94366W        W55787  11.623   3.788  12.380
94367W        W55788   0.755  28.621  13.506
94368W        W55789  35.467  29.162  14.432
94369W        W55790  24.999  32.486   0.475
94370W        W55791   3.867   1.845   1.265
94371W        W55792  40.988   9.219  13.414
94372W        W55793  24.642  31.478  11.603
94373W        W55794  41.514  28.552  11.565
94374W        W55795   7.225  21.599   2.246
94375W        W55796  26.020  40.990   1.406
94376W        W55797  34.412  24.974  12.344
94377W        W55798  34.907  27.011  11.918
94378W        W55799  41.517  44.492  14.512
94379W        W55800  20.071  41.834   2.224
94380W        W55801  13.179  15.765   0.332
94381W        W55802   0.252   4.296   3.365
94382W        W55803  38.363  19.215  14.337
94383W        W55804   7.174  22.037   2.729
94384W        W55805  38.010  43.017   4.811
94385W        W55806  44.866  38.991   4.739
94386W        W55807   8.695  38.383  12.521
94387W        W55808  13.221   6.904  11.124
94388W        W55809  31.902  26.625  13.879
94389W        W55810   8.362   4.927   3.274
94390W        W55811  16.196  11.251   2.827
94391W        W55812  26.147  17.110  13.383
94392W        W55813  10.698  29.007   4.626
94393W        W55814  41.471  17.756  11.892
94394W        W55815  40.025   5.742   3.806
94395W        W55816  27.459  35.377  12.503
94396W        W55817  13.729  36.955  13.532
94397W        W55818  25.082  37.364  11.382
94398W        W55819  25.599  10.868   2.765
94399W        W55820  32.521   4.309  11.471
94400W        W55821  20.710   5.777   5.122
94401W        W55822  42.324  43.882   3.217
94402W        W55823  15.102  37.952  13.043
94403W        W55824  24.099  43.848   0.464
94404W        W55825  44.264  42.440  10.930
94405W        W55826  25.210   9.823  13.516
94406W        W55827  44.983  29.525   2.389
94407W        W55828  41.019  44.350   4.820
94408W        W55829  25.075   0.898   1.238
94409W        W55830  26.956  23.712  14.894
94410W        W55831  30.498   8.384   2.762
94411W        W55832  30.563  10.688  14.404
94412W        W55833  16.262  42.806   4.242
94413W        W55834  15.089  39.382  14.911
94414W        W55835  42.003  32.138  13.057
94415W        W55836  36.903  23.104  10.475
94416W        W55837  15.742  13.318  14.409
94417W        W55838  36.854  32.885  14.460
94418W        W55839  12.802   6.707   2.729
94419W        W55840   3.348  31.533  11.518
94420W        W55841   5.242   7.308   4.739
94421W        W55842   0.353   1.974  11.057
94422W        W55843   9.692  32.033   1.768
94423W        W55844  15.819  35.376  10.912
94424W        W55845  34.564  43.841   0.967
94425W        W55846  20.139   7.777  13.372
94426W        W55847  38.995  15.734  13.357
94427W        W55848  25.532  32.613   0.867
94428W        W55849  20.713   5.241  12.975
94429W        W55850  18.709  41.455  12.488
94430W        W55851  19.699  13.106  10.508
94431W        W55852   3.853  44.292   4.625
94432W        W55853  21.234  21.253  14.390
94433W        W55854   8.233  18.158  10.581
94434W        W55855  25.969  19.615   3.722
94435W        W55856  38.506  27.035   0.347
94436W        W55857  34.429   0.416  13.050
94437W        W55858  31.494   0.819  11.912
94438W        W55859   5.196   2.367  14.340
94439W        W55860  44.443  38.558   4.240
94440W        W55861  22.165  14.256  13.880
94441W        W55862  28.598  29.437  14.457
94442W        W55863   3.280   9.177  12.054
94443W        W55864  11.314  19.278  14.815
94444W        W55865  39.937   7.706  10.560
94445W        W55866  40.457  32.937   4.267
94446W        W55867   6.269  30.947  14.978
94447W        W55868  13.116  33.433  11.464
94448W        W55869  32.535  18.246  11.486
94449W        W55870   4.698  23.044  11.924
94450W        W55871   8.816  41.372  12.463
94451W        W55872  10.770  17.658  14.962
94452W        W55873  29.069  17.675  12.553
94453W        W55874  43.818   1.364  12.916
94454W        W55875  16.257  37.976   4.827
94455W        W55876   2.750  28.122   2.750
94456W        W55877  13.635  18.190   0.440
94457W        W55878  24.219  22.694   4.679
94458W        W55879   2.308   5.325   3.826
94459W        W55880  24.215   0.322  12.881
94460W        W55881  24.003   2.468   1.402
94461W        W55882   3.322  35.945   0.862
94462W        W55883   2.422   0.745  12.995
94463W        W55884   8.293  35.066  12.951
94464W        W55885  20.568  40.419   0.412
94465W        W55886  38.058  19.719  13.850
94466W        W55887  34.554   1.843   3.809
94467W        W55888   2.885  37.981   2.334
94468W        W55889  19.544   8.309   0.788
94469W        W55890  40.496  25.054  13.053
94470W        W55891  10.774  31.966  11.608
94471W        W55892   2.255  37.352   3.715
94472W        W55893  28.564  32.496   3.150
94473W        W55894  41.309  22.235  12.510
94474W        W55895  23.992  16.129  12.490
94475W        W55896   7.217  23.173  14.945
94476W        W55897  21.230  12.622  13.432
94477W        W55898  19.041  26.155  10.947
94478W        W55899  14.605  25.213   3.371
94479W        W55900  25.707   6.394  10.109
94480W        W55901  25.198  22.097   2.783
94481W        W55902  34.097   2.744   0.433
94482W        W55903  16.264  36.493  12.544
94483W        W55904   6.751  11.367   1.329
94484W        W55905   4.796  31.142   3.226
94485W        W55906   7.199  14.814   2.199
94486W        W55907  32.055   3.751  12.384
94487W        W55908  23.031  12.633   3.730
94488W        W55909  20.171  30.653   1.926
94489W        W55910  24.206  43.920   2.345
94490W        W55911   9.379  21.604  14.968
94491W        W55912  20.208  30.132  11.931
94492W        W55913   0.774  30.488  14.838
94493W        W55914  28.502  13.682   1.412
94494W        W55915   1.803  16.635   0.289
94495W        W55916  35.399   3.909   2.412
94496W        W55917  36.524  41.412  14.016
94497W        W55918   1.393  33.043  11.075
94498W        W55919  43.365  43.400  10.472
94499W        W55920  19.629  37.488  10.457
94500W        W55921   3.887   5.857   3.704
94501W        W55922  37.003  23.571  11.500
94502W        W55923  42.777   6.840   2.320
94503W        W55924  42.897  21.556  10.933
94504W        W55925   5.915  38.837  10.888
94505W        W55926  20.150  22.509   1.452
94506W        W55927  13.235   0.335   3.303
94507W        W55928  10.169   1.783  14.283
94508W        W55929  11.803   3.771  14.795
94509W        W55930  21.140   6.254  12.407
94510W        W55931   5.201  40.509  14.821
94511W        W55932  28.474  19.266   3.809
94512W        W55933  22.205  39.939  14.414
94513W        W55934  17.642   6.861   4.149
94514W        W55935  33.450  35.593  11.931
94515W        W55936  23.561  42.314  13.045
94516W        W55937  12.681  44.959   2.891
94517W        W55938  31.041  14.711  11.923
94518W        W55939  20.086  35.517  12.033
94519W        W55940  22.597  43.345  13.356
94520W        W55941  34.413  44.815  12.858
94521W        W55942  44.274  21.051  13.386
94522W        W55943  12.257  24.572  10.630
94523W        W55944  24.082   5.353   0.818
94524W        W55945  42.827  41.972   2.758
94525W        W55946  25.506  39.549   2.196
94526W        W55947  23.714  23.182   3.178
94527W        W55948  34.947  41.363  13.503
94528W        W55949   1.438  39.024   0.784
94529W        W55950  37.831   6.677   4.751
94530W        W55951  14.716  43.395  10.976
94531W        W55952  32.077  32.052  13.325
94532W        W55953  43.866  24.981  11.011
94533W        W55954  26.151  37.058  12.990
94534W        W55955  16.582  13.335  13.838
94535W        W55956  23.703  14.238  10.405
94536W        W55957  14.694  13.341   9.997
94537W        W55958   0.337  18.582   1.704
94538W        W55959  30.652  23.654  13.523
94539W        W55960  28.999  36.533  12.983
94540W        W55961  44.908  43.417   4.813
94541W        W55962  31.604  15.658   4.234
94542W        W55963  11.309  28.111   0.303
94543W        W55964  39.908   8.876   2.680
94544W        W55965  37.555  27.637   3.359
94545W        W55966  42.331  35.862  10.970
94546W        W55967  10.246  31.119  12.060
94547W        W55968  15.749  34.573  12.048
94548W        W55969  24.991  14.619  10.557
94549W        W55970  37.978  43.861  11.078
94550W        W55971   4.397   6.870   2.877
94551W        W55972  19.121  22.674  11.871
94552W        W55973  14.619  38.333  11.915
94553W        W55974  23.674  34.586   0.838
94554W        W55975   8.342   8.720   1.827
94555W        W55976  32.885  16.793  14.505
94556W        W55977  25.101  35.493   1.819
94557W        W55978  37.574  22.641  13.002
94558W        W55979  25.580  21.560   4.183
94559W        W55980  22.695  14.717   1.738
94560W        W55981  25.684   2.925  13.841
94561W        W55982  19.628  15.314  12.438
94562W        W55983  23.118   9.787  12.067
94563W        W55984  13.112  30.630   9.613
94564W        W55985  42.358  24.037  10.462
94565W        W55986  32.066  43.379   0.851
94566W        W55987   1.910   6.760  14.768
94567W        W55988  36.009   1.286  14.796
94568W        W55989  35.982  24.228   3.844
94569W        W55990   7.778  32.575  14.983
94570W        W55991  11.205  16.813  14.938
94571W        W55992  31.463  31.120  13.498
94572W        W55993  12.700  11.699  13.510
94573W        W55994  19.603   1.888  12.938
94574W        W55995   9.742  35.985   1.745
94575W        W55996  44.358  26.024   0.298
94576W        W55997  33.463  41.975   4.643
94577W        W55998  35.455  22.680   3.692
94578W        W55999   3.424   3.731  13.028
94579W        W56000  24.572  16.608   3.637
94580W        W56001  41.984  25.540   2.768
94581W        W56002  41.875  39.945   4.617
94582W        W56003  28.643   8.826   2.221
94583W        W56004  35.544   5.300  12.980
94584W        W56005   5.194  18.189  11.525
94585W        W56006   2.863  34.912  10.498
94586W        W56007  36.577  20.659   4.166
94587W        W56008  37.464  43.272   5.155
94588W        W56009  27.492   6.720  10.635
94589W        W56010  36.901  30.085  10.634
94590W        W56011  17.656  42.995   3.348
94591W        W56012  11.753  42.926   0.853
94592W        W56013   9.187  22.586  10.073
94593W        W56014  10.318  18.225  11.399
94594W        W56015  25.654   2.459  13.049
94595W        W56016   1.473  36.426  13.326
94596W        W56017  34.532  30.538   4.196
94597W        W56018  17.620  23.498   2.416
94598W        W56019   4.871  29.650   1.796
94599W        W56020  19.282  18.771  12.484
94600W        W56021  33.506  11.782   4.349
94601W        W56022  41.842  28.965   4.653
94602W        W56023  10.344  43.015  13.977
94603W        W56024  31.067  26.135   1.305
94604W        W56025  33.991   5.425   4.680
94605W        W56026  23.147   4.820   0.419
94606W        W56027   4.287  14.206   0.938
94607W        W56028  30.011  18.225   0.729
94608W        W56029  20.123  24.020  11.128
94609W        W56030  15.815  29.925  10.489
94610W        W56031  12.178  29.642   3.383
94611W        W56032   6.284  15.709  10.601
94612W        W56033  38.488  19.634  10.922
94613W        W56034  42.021   7.404  11.890
94614W        W56035  15.784   6.755  11.029
94615W        W56036  20.157  27.123  13.363
94616W        W56037  23.691  34.112   0.743
94617W        W56038  11.281  30.954  11.038
94618W        W56039  35.077   4.924   2.362
94619W        W56040  37.851  24.656  13.821
94620W        W56041  33.558  13.822  11.002
94621W        W56042  36.393   2.873  13.458
94622W        W56043  27.686  41.362   1.237
94623W        W56044  25.663  11.142   0.475
94624W        W56045   5.708  28.055   2.763
94625W        W56046  25.045  18.205  13.021
94626W        W56047  15.768  18.088   4.834
94627W        W56048  37.425   0.272  13.516
94628W        W56049  30.150  29.595   4.263
94629W        W56050  26.169  29.666  10.571
94630W        W56051   9.736  22.038  14.479
94631W        W56052  18.685  44.285   4.195
94632W        W56053   6.285  16.155  12.939
94633W        W56054  39.465   6.730   2.266
94634W        W56055  32.538   1.387  14.370
94635W        W56056  31.020  20.584  12.436
94636W        W56057  39.385  26.998  12.963
94637W        W56058   3.427  22.071   4.743
94638W        W56059   6.346  10.847   3.730
94639W        W56060  22.163  33.039  12.568
94640W        W56061  19.560  11.790  14.299
94641W        W56062  35.538   1.285   0.341
94642W        W56063  30.028  11.779  12.057
94643W        W56064   9.817  44.898   2.733
94644W        W56065  30.042  19.213  13.834
94645W        W56066  23.041   0.292   2.698
94646W        W56067  14.598  14.339   3.301
94647W        W56068  21.159  24.636   0.737
94648W        W56069   5.403  14.094   2.783
94649W        W56070   0.876   7.282   0.925
94650W        W56071   4.277  14.668  14.949
94651W        W56072  23.626  20.672   1.839
94652W        W56073  19.280  37.087  12.080
94653W        W56074  22.161  13.275   0.845
94654W        W56075  43.460  20.179  12.540
94655W        W56076  30.438  15.259  10.987
94656W        W56077  34.429  14.136  14.975
94657W        W56078  41.356  12.707  14.842
94658W        W56079  27.612   7.274  11.981
94659W        W56080  34.029  41.916   3.651
94660W        W56081  20.550  17.693   2.785
94661W        W56082  22.637  14.696  11.556
94662W        W56083  27.064  35.905   1.241
94663W        W56084  42.390  38.022  13.797
94664W        W56085  15.754  12.124   1.290
94665W        W56086  30.025  13.308  12.018
94666W        W56087   0.880  38.023   3.371
94667W        W56088  14.282  11.153   2.724
94668W        W56089  23.605  38.438   4.257
94669W        W56090   2.751  42.516   2.247
94670W        W56091  38.985   8.248   4.239
94671W        W56092   3.443  44.882   1.318
94672W        W56093   6.193  33.885   3.729
94673W        W56094  34.456  30.929   2.254
94674W        W56095  37.980   7.210   0.962
94675W        W56096  44.894  10.249  13.514
94676W        W56097  26.627   0.967   0.953
94677W        W56098  16.665  19.264   3.211
94678W        W56099  10.246  39.001   4.339
94679W        W56100  37.941  15.085   2.319
94680W        W56101  15.281   0.335   4.310
94681W        W56102  12.746  13.329  12.922
94682W        W56103   5.898  28.463  14.000
94683W        W56104   0.853  23.064   0.901
94684W        W56105  11.194   2.328   2.896
94685W        W56106  31.518  19.537   2.724
94686W        W56107   8.691  32.983  10.471
94687W        W56108  14.222  19.770  12.491
94688W        W56109   2.298  17.299  11.435
94689W        W56110   1.899  43.284  12.510
94690W        W56111  42.991  37.087  12.049
94691W        W56112   2.408  30.130   1.274
94692W        W56113   8.827   2.408  13.439
94693W        W56114  20.607  36.587  11.488
94694W        W56115  16.227  18.742  10.427
94695W        W56116  35.552  11.790  10.612
94696W        W56117   7.229  15.175  12.027
94697W        W56118   3.761   5.419  11.471
94698W        W56119  11.631  19.279  14.883
94699W        W56120  19.701  19.262  10.430
94700W        W56121  18.559  31.405   1.233
94701W        W56122  24.042  18.238   2.864
94702W        W56123  43.416  44.854  14.971
94703W        W56124  35.601  16.580   3.334
94704W        W56125   6.682   9.228  10.586
94705W        W56126  26.123   2.382  13.935
94706W        W56127  41.334   7.674  11.959
94707W        W56128  22.718  24.546   2.746
94708W        W56129   7.798  33.495  12.974
94709W        W56130  10.256  35.853   2.317
94710W        W56131   1.278   3.840   4.350
94711W        W56132  28.026   0.392  12.478
94712W        W56133   9.317  32.028   2.859
94713W        W56134  31.043  26.979   1.832
94714W        W56135  38.443  41.477  11.577
94715W        W56136   2.885  35.049  13.861
94716W        W56137  25.502   8.876  11.121
94717W        W56138  43.805  15.702   1.859
94718W        W56139  22.100  29.983   0.459
94719W        W56140  15.587  13.348  13.836
94720W        W56141  43.463  37.955  11.392
94721W        W56142  34.936  32.577  10.999
94722W        W56143  13.671  33.485   2.810
94723W        W56144  21.153  33.998   0.740
94724W        W56145  28.018  19.753  12.392
94725W        W56146  18.566   9.300  14.990
94726W        W56147  13.652  18.632  11.571
94727W        W56148  32.509  27.549  11.960
94728W        W56149  16.676   2.304   3.763
94729W        W56150  22.091  13.651  10.901
94730W        W56151  40.950   4.850   1.289
94731W        W56152  25.060   8.227  13.508
94732W        W56153  44.415   6.835  10.013
94733W        W56154  29.632  27.041  13.386
94734W        W56155  42.511  35.364  11.407
94735W        W56156  21.243   5.734  12.443
94736W        W56157  33.606  11.193  12.514
94737W        W56158  33.943  20.160  11.535
94738W        W56159  27.051  19.609   0.314
94739W        W56160  14.738  42.281  14.792
94740W        W56161  29.074  16.598  11.445
94741W        W56162  10.377  23.588   3.805
94742W        W56163  16.633  31.084  12.380
94743W        W56164  43.920  37.380  11.430
94744W        W56165  20.593  24.654   4.176
94745W        W56166  12.144  38.362   1.376
94746W        W56167  36.994  25.679   2.713
94747W        W56168  34.607  10.792  10.901
94748W        W56169  42.806  28.577   0.805
94749W        W56170   7.844  40.825   4.273
94750W        W56171  21.223  40.436   3.707
94751W        W56172  15.593  21.179   0.855
94752W        W56173  21.191   8.675  13.907
94753W        W56174  18.055  12.789  11.568
94754W        W56175  25.683   6.343   1.395
94755W        W56176  23.241   8.712   2.368
94756W        W56177  23.613  32.943  10.414
94757W        W56178   9.185  14.107  11.483
94758W        W56179   4.940  32.101  11.866
94759W        W56180  25.151  17.156   4.725
94760W        W56181  34.045  43.836   3.185
94761W        W56182  37.575  33.887  13.402
94762W        W56183  10.231  11.270   4.797
94763W        W56184  26.960  20.541  14.860
94764W        W56185  44.314  21.674   4.623
94765W        W56186  20.658  27.995   3.378
94766W        W56187   0.435  37.954  13.006
94767W        W56188  34.492  20.648  10.985
94768W        W56189   2.447  42.922   3.770
94769W        W56190  31.610   4.224  11.890
94770W        W56191  29.491   9.181  14.511
94771W        W56192  26.633  39.057   4.723
94772W        W56193  39.891  28.470  11.855
94773W        W56194  40.470  36.097   3.218
94774W        W56195  34.603  11.228   2.417
94775W        W56196  36.913   3.781   3.753
94776W        W56197  42.435   7.294  14.799
94777W        W56198   7.256  26.026  12.869
94778W        W56199  30.162  36.542  11.982
94779W        W56200   1.808  44.477  14.785
94780W        W56201  23.173  33.438   4.643
94781W        W56202   4.795   3.369   0.259
94782W        W56203  22.155  16.239   0.792
94783W        W56204  34.991  39.819   2.385
94784W        W56205   1.353  35.507  11.485
94785W        W56206  34.901  28.115   1.284
94786W        W56207  29.091   5.223  11.090
94787W        W56208  18.270  38.860   4.177
94788W        W56209   1.780  43.320  11.895
94789W        W56210  43.766  38.378   2.872
94790W        W56211  33.404  20.188   2.850
94791W        W56212  11.322  20.536   3.234
94792W        W56213  37.367  19.686   0.962
94793W        W56214   8.303  12.651  12.370
94794W        W56215   3.355  11.275   2.756
94795W        W56216  24.671  23.616   2.379
94796W        W56217  44.391  14.212  10.426
94797W        W56218  19.770  12.818  10.624
94798W        W56219  19.040  29.570  13.369
94799W        W56220   0.301  34.103   1.340
94800W        W56221  24.066  30.119   1.899
94801W        W56222  43.314  19.749  11.966
94802W        W56223  14.619  23.544   4.214
94803W        W56224  20.093  17.573  11.407
94804W        W56225  43.019  42.461   0.414
94805W        W56226  17.062  23.557   0.418
94806W        W56227  12.315  42.435   3.848
94807W        W56228  23.103  33.956   4.780
94808W        W56229   3.259  12.218  13.415
94809W        W56230  41.031   8.200   3.377
94810W        W56231  42.394   0.292   1.338
94811W        W56232   7.307  32.900   2.235
94812W        W56233   2.750  18.675  12.972
94813W        W56234  34.873  36.362  13.062
94814W        W56235   5.417  43.996   3.354
94815W        W56236   5.391  23.500   3.819
94816W        W56237  12.360   6.900  10.951
94817W        W56238  12.781  16.272  12.936
94818W        W56239  15.631   3.749  12.452
94819W        W56240  31.922   9.272   3.841
94820W        W56241  25.535   0.330   0.922
94821W        W56242  40.442  30.580   0.472
94822W        W56243  22.724   7.221   5.301
94823W        W56244  18.723  18.628   0.866
94824W        W56245  18.163   7.876  12.389
94825W        W56246  26.109  24.147  12.480
94826W        W56247  24.575  28.441  13.916
94827W        W56248  16.132   9.203  11.864
94828W        W56249  26.041  29.095   0.949
94829W        W56250  22.064  11.680   0.858
94830W        W56251  11.677  32.466   4.133
94831W        W56252  17.135  25.974  13.859
94832W        W56253   3.896   7.371   1.451
94833W        W56254   1.405  29.009   4.279
94834W        W56255  44.456  25.644  14.921
94835W        W56256  19.753   3.879   1.321
94836W        W56257  28.087  19.232  14.277
94837W        W56258   0.848  24.492  14.770
94838W        W56259  42.447  36.069  13.963
94839W        W56260  37.039  43.021   3.317
94840W        W56261  12.754  27.556   2.793
94841W        W56262   6.728  26.180  10.030
94842W        W56263  26.045  25.640  14.338
94843W        W56264  11.253   5.741  11.606
94844W        W56265  22.677   1.977  13.377
94845W        W56266  41.463  41.849   4.833
94846W        W56267   9.356  38.428   3.710
94847W        W56268  24.231  39.943   1.249
94848W        W56269  33.380  12.145   0.737
94849W        W56270  26.001  13.227   1.303
94850W        W56271  34.060  18.743  11.540
94851W        W56272   1.773  36.502  12.846
94852W        W56273  33.407  10.365   2.890
94853W        W56274   0.792  23.539  14.020
94854W        W56275   8.289  43.284   2.856
94855W        W56276   5.282  19.546   3.249
94856W        W56277  43.428  17.697   0.444
94857W        W56278  38.819   4.206  14.419
94858W        W56279  11.731  38.069   3.286
94859W        W56280  29.065  22.617   1.329
94860W        W56281  18.215  20.258   3.170
94861W        W56282  31.612  35.442  11.545
94862W        W56283  21.686   4.209   5.228
94863W        W56284  16.664  15.787  10.921
94864W        W56285  22.645  30.133  14.275
94865W        W56286  38.403  12.746   0.920
94866W        W56287  11.173   2.888  12.856
94867W        W56288  13.642  11.671   2.828
94868W        W56289   6.310  39.323   1.927
94869W        W56290   7.836  16.104  14.358
94870W        W56291   2.229  37.083  12.032
94871W        W56292  29.497  16.307  14.844
94872W        W56293  20.192  35.024  10.918
94873W        W56294  40.882  20.680   2.337
94874W        W56295  33.437  29.447   1.438
94875W        W56296  10.859  44.003  12.373
94876W        W56297  43.297  33.622   4.218
94877W        W56298  35.044  33.397  13.542
94878W        W56299  28.133  12.184  12.859
94879W        W56300   1.327  24.140  10.624
94880W        W56301  40.025  20.046   0.825
94881W        W56302   7.230  19.706   2.780
94882W        W56303  22.247  21.750  12.858
94883W        W56304  36.512  23.587  11.088
94884W        W56305  26.670  15.788  10.936
94885W        W56306  31.474  16.581  12.424
94886W        W56307  15.643  30.560  13.016
94887W        W56308   3.881  36.562   3.205
94888W        W56309  23.591  25.580   3.285
94889W        W56310  13.299  32.444  11.413
94890W        W56311  21.609  39.493   2.341
94891W        W56312  22.151  20.164  12.975
94892W        W56313   9.239   1.846   0.254
94893W        W56314  22.115  13.803  13.510
94894W        W56315  22.538  40.866   1.444
94895W        W56316  23.231  16.773  12.397
94896W        W56317  20.539   2.262   3.253
94897W        W56318   6.329  16.124   4.215
94898W        W56319  23.548  20.602   3.728
94899W        W56320  35.448  37.395   1.696
94900W        W56321   5.235  20.210  10.421
94901W        W56322  24.193  44.885  10.605
94902W        W56323   3.824  37.913  14.032
94903W        W56324  20.120  31.970   2.777
94904W        W56325   8.382  33.569   2.850
94905W        W56326   8.695  17.168  13.393
94906W        W56327  28.635  39.882   2.214
94907W        W56328   6.838   1.287   5.726
94908W        W56329  33.623  34.981  13.450
94909W        W56330   5.394  42.970  13.417
94910W        W56331   0.802   2.326   4.807
94911W        W56332  18.141  30.036  11.377
94912W        W56333  37.958  28.556  13.023
94913W        W56334  23.104  27.644   2.355
94914W        W56335  11.133  39.367  11.543
94915W        W56336  10.295  36.998  12.037
94916W        W56337  36.528  29.445   0.735
94917W        W56338  29.469  16.205  13.433
94918W        W56339   9.778  19.246  14.385
94919W        W56340  10.775  14.804   0.939
94920W        W56341  43.488  18.276  14.980
94921W        W56342  27.584  41.939  10.471
94922W        W56343   8.244  23.161   2.878
94923W        W56344  16.131  20.660   1.398
94924W        W56345   9.814   6.756   4.229
94925W        W56346  23.664   3.869  14.449
94926W        W56347  21.213  21.157  11.590
94927W        W56348  35.081  22.148  11.552
94928W        W56349   5.313  13.844  11.956
94929W        W56350  21.699  43.362  12.393
94930W        W56351  16.707  28.153   1.909
94931W        W56352   8.285  20.692  12.856
94932W        W56353  31.523   1.826   3.852
94933W        W56354   9.644  43.915  11.381
94934W        W56355  34.369   7.751   0.737
94935W        W56356   8.833  29.165  13.895
94936W        W56357  19.625  31.927   1.919
94937W        W56358   3.872   2.298  12.951
94938W        W56359  22.225   7.693  14.917
94939W        W56360   8.328  26.666  13.803
94940W        W56361  28.067  40.481  12.031
94941W        W56362  15.687  26.021   4.307
94942W        W56363  20.201  16.709  12.485
94943W        W56364   9.174   7.198   1.303
94944W        W56365  34.490  17.719  11.017
94945W        W56366   3.875  25.605   0.419
94946W        W56367  28.173  18.270  14.864
94947W        W56368  42.451  40.982  10.574
94948W        W56369  43.309   5.203   2.357
94949W        W56370  41.464   3.394   4.720
94950W        W56371  21.026  11.802  13.968
94951W        W56372  14.720  20.104   3.237
94952W        W56373  24.481  29.670  13.886
94953W        W56374  15.719  23.649  14.898
94954W        W56375  25.655   0.312  14.496
94955W        W56376  41.893  21.655   3.707
94956W        W56377  33.465  30.031  11.119
94957W        W56378  11.284  36.869  10.608
94958W        W56379  37.363   1.836   3.838
94959W        W56380  29.424  20.614  11.583
94960W        W56381  12.800  25.071   1.918
94961W        W56382  31.641  23.203   1.821
94962W        W56383   9.253  43.951   1.796
94963W        W56384   8.253  44.836   1.820
94964W        W56385  33.908  34.479  13.364
94965W        W56386  13.692  41.953  12.509
94966W        W56387   2.892  33.926   3.825
94967W        W56388   0.757  15.207   0.733
94968W        W56389  13.302   6.877  11.885
94969W        W56390   1.325  18.162  12.360
94970W        W56391  16.185  44.467   3.366
94971W        W56392  36.566  10.697  12.907
94972W        W56393  26.033   7.871   2.866
94973W        W56394  13.251   1.303  13.464
94974W        W56395  37.494  23.573   2.734
94975W        W56396  16.597  30.496   0.321
94976W        W56397  16.764  11.172   1.772
94977W        W56398  19.138  15.802   0.804
94978W        W56399  26.057  17.749   1.825
94979W        W56400  27.559  33.472   1.930
94980W        W56401  19.079  40.518  12.975
94981W        W56402  37.578   4.350  11.593
94982W        W56403  29.046   3.233   3.862
94983W        W56404   0.790  35.917  12.054
94984W        W56405  31.437   3.766   1.333
94985W        W56406  30.092  20.202   0.799
94986W        W56407  12.672   9.341  13.920
94987W        W56408  36.440  37.934  13.962
94988W        W56409  30.021  16.145  14.854
94989W        W56410  40.818  31.091  14.333
94990W        W56411   9.749  44.482   3.385
94991W        W56412  16.241  26.699  14.470
94992W        W56413  32.994  34.407  14.392
94993W        W56414  15.144  18.263   1.387
94994W        W56415  32.453  19.126  14.937
94995W        W56416  12.251  30.917  11.390
94996W        W56417  37.513  21.638   1.255
94997W        W56418  31.041   5.819  14.406
94998W        W56419   5.813   2.927  12.372
94999W        W56420  10.152  15.803  11.491
95000W        W56421  22.712  30.060   3.764
95001W        W56422  34.089  35.874  13.535
95002W        W56423  21.658  17.066   5.187
95003W        W56424   4.756   7.709   2.355
95004W        W56425  33.476  13.795  12.928
95005W        W56426  29.654  43.345  13.437
95006W        W56427   7.209  39.492  13.530
95007W        W56428  28.156  11.154   0.775
95008W        W56429  34.891  31.625  11.023
95009W        W56430  24.713  34.098   2.754
95010W        W56431  19.087  24.994  13.394
95011W        W56432  41.991   1.837   5.159
95012W        W56433  24.091   8.795   4.658
95013W        W56434  22.603  20.605   3.688
95014W        W56435   4.426  42.030  10.573
95015W        W56436  23.047  20.195  14.286
95016W        W56437  26.070  43.420   3.715
95017W        W56438  37.418  32.603  14.784
95018W        W56439  12.201   3.945  11.602
95019W        W56440  33.584  26.171   1.268
95020W        W56441   9.329  23.081  12.872
95021W        W56442   4.315  43.826   3.349
95022W        W56443  24.551  24.667  12.933
95023W        W56444  30.160  10.701   0.937
95024W        W56445  16.177  40.492  12.352
95025W        W56446  23.168   2.837   4.598
95026W        W56447  22.549  24.581  13.935
95027W        W56448  30.155  19.071   4.690
95028W        W56449   1.975  26.166   2.730
95029W        W56450  39.465  38.845   3.362
95030W        W56451  18.287  22.539   0.818
95031W        W56452   7.188  43.328   4.606
95032W        W56453  39.980  42.351   4.816
95033W        W56454  34.573   4.937  11.925
95034W        W56455  35.985  11.744   4.344
95035W        W56456  35.021  11.676  13.986
95036W        W56457  22.600  21.728  10.428
95037W        W56458   1.253  36.546  14.011
95038W        W56459   0.872   5.266  14.467
95039W        W56460   1.258  35.508   5.592
95040W        W56461   3.919  15.586   9.944
95041W        W56462  25.702  33.129  12.867
95042W        W56463  30.090  13.210   3.269
95043W        W56464  30.946  15.085  10.471
95044W        W56465  24.591   7.802  13.471
95045W        W56466   9.172  27.468   4.174
95046W        W56467  44.404  10.150   3.228
95047W        W56468  44.906  44.462   4.320
95048W        W56469  36.401  12.822   1.241
95049W        W56470  18.700  44.820   0.395
95050W        W56471  11.839  23.702  11.384
95051W        W56472  22.647  18.065  12.034
95052W        W56473  44.483  27.182  13.446
95053W        W56474  18.185   6.386   2.365
95054W        W56475  11.643  43.990   2.208
95055W        W56476  16.669   5.904   1.810
95056W        W56477  26.493  17.291   1.406
95057W        W56478   9.304  11.710   0.912
95058W        W56479  36.089  19.126  12.462
95059W        W56480  42.870   7.864  14.482
95060W        W56481  21.541  16.716  11.106
95061W        W56482  12.348  17.137   1.738
95062W        W56483  23.492  31.454  11.058
95063W        W56484  42.777  40.382   1.929
95064W        W56485  43.897  42.977   0.888
95065W        W56486  39.430  27.658  11.927
95066W        W56487   6.769  37.846  10.534
95067W        W56488  23.597  10.271   0.432
95068W        W56489   7.864  43.504  12.467
95069W        W56490   0.806   0.360   3.282
95070W        W56491  44.849  37.565   0.858
95071W        W56492  29.035  29.530   0.857
95072W        W56493  43.300  29.653  12.986
95073W        W56494  32.588  40.314   0.786
95074W        W56495  35.396   8.367  13.857
95075W        W56496  27.150  13.608  12.352
95076W        W56497  15.742   0.845  14.357
95077W        W56498  15.097   3.950  11.499
95078W        W56499  34.465  28.479  11.488
95079W        W56500  36.943  25.541   1.919
95080W        W56501   0.348  12.314  13.844
95081W        W56502   9.354  15.699   1.708
95082W        W56503  24.081  41.889   3.834
95083W        W56504  27.100  39.902   1.753
95084W        W56505  10.637  26.522   4.632
95085W        W56506   4.943  40.485   3.820
95086W        W56507  13.308  13.729   4.658
95087W        W56508  43.378  14.305  12.417
95088W        W56509   1.327   3.949   1.356
95089W        W56510   4.303  17.785  13.805
95090W        W56511   8.870   8.322  14.461
95091W        W56512  10.148   0.844   1.934
95092W        W56513  29.992   0.421  14.925
95093W        W56514  38.914  41.974  14.921
95094W        W56515  17.118   0.755  11.949
95095W        W56516  18.593   6.863  11.929
95096W        W56517   4.370   4.272   0.278
95097W        W56518   1.277  34.397   4.291
95098W        W56519  10.366  41.004  13.409
95099W        W56520  41.320  31.914   3.742
95100W        W56521   4.245   7.363   4.598
95101W        W56522  20.228  23.497   3.666
95102W        W56523  12.242  34.467  10.586
95103W        W56524  27.999  32.394  11.396
95104W        W56525  19.744  29.135   2.411
95105W        W56526   4.308  28.091  10.582
95106W        W56527  19.158  37.932   2.276
95107W        W56528  24.583  10.217  10.954
95108W        W56529  15.225  23.558   4.764
95109W        W56530  15.318  42.369  13.424
95110W        W56531  40.339  40.797  10.541
95111W        W56532  19.114  27.502   3.840
95112W        W56533  30.043  28.471   1.750
95113W        W56534   0.273  34.058  12.932
95114W        W56535  29.501  29.992   1.881
95115W        W56536  34.493   9.234  10.622
95116W        W56537   7.897  14.685  10.965
95117W        W56538  35.963  30.928   1.212
95118W        W56539  26.629  36.028  10.149
95119W        W56540  44.345  15.258  14.926
95120W        W56541  40.963  33.991   4.811
95121W        W56542  38.546  15.122   1.366
95122W        W56543  37.015  26.028  11.069
95123W        W56544  40.865  17.733   2.264
95124W        W56545  35.084   1.479   3.317
95125W        W56546  18.059  38.922  10.588
95126W        W56547  42.483  16.175   2.303
95127W        W56548  20.074  42.297  11.107
95128W        W56549   2.273  15.658  10.029
95129W        W56550   0.277  32.892   2.201
95130W        W56551   2.839  32.991   3.283
95131W        W56552  40.508  19.592  14.412
95132W        W56553  34.941  14.243   1.842
95133W        W56554  36.511  29.063   0.956
95134W        W56555  27.174  40.040   0.879
95135W        W56556  24.044  30.619   2.709
95136W        W56557  16.753  35.024  14.327
95137W        W56558  29.533  27.553   0.413
95138W        W56559  37.553  36.411  11.871
95139W        W56560  36.090   4.909   3.355
95140W        W56561  26.495  12.197  14.343
95141W        W56562  12.338  28.096  11.079
95142W        W56563   9.218   7.346   3.338
95143W        W56564  35.432  23.696   2.881
95144W        W56565  41.912  40.499   3.785
95145W        W56566  27.949  38.381  11.553
95146W        W56567  18.162  41.532   1.350
95147W        W56568  31.896  32.428  12.463
95148W        W56569  38.863  28.046  11.048
95149W        W56570  22.746  34.882   0.437
95150W        W56571  32.585  20.650  13.337
95151W        W56572  14.326  19.660  13.455
95152W        W56573   5.848  22.652  10.435
95153W        W56574   8.822  41.314  11.913
95154W        W56575  43.906  44.805  12.988
95155W        W56576  34.515  32.036  14.773
95156W        W56577   0.373  11.827   4.210
95157W        W56578  29.636  16.591  14.468
95158W        W56579  18.142  11.324   3.680
95159W        W56580   1.870   5.267   5.190
95160W        W56581  14.338   7.899   3.236
95161W        W56582   7.226  43.916   1.725
95162W        W56583  31.484  14.214   3.841
95163W        W56584  44.920  33.483  13.844
95164W        W56585   7.831  10.151  13.347
95165W        W56586   2.267   1.290  12.547
95166W        W56587  29.485  32.961  13.885
95167W        W56588   8.379   3.260   2.791
95168W        W56589  20.031  28.964   1.370
95169W        W56590  27.133  40.315   4.279
95170W        W56591  27.660  29.088   4.676
95171W        W56592  38.915   3.339  12.083
95172W        W56593  44.410  43.935   2.178
95173W        W56594  10.384  25.040   3.170
95174W        W56595  40.837   4.304  12.347
95175W        W56596  23.087  11.280  12.370
95176W        W56597  17.652   0.374   4.598
95177W        W56598  43.009  19.164  13.859
95178W        W56599  27.015  14.183  11.893
95179W        W56600  43.338  43.306   0.940
95180W        W56601  17.163   2.943   4.754
95181W        W56602  34.014  43.450   3.761
95182W        W56603  25.081  17.750   2.719
95183W        W56604  22.576  36.497   2.763
95184W        W56605  22.218  14.611  14.422
95185W        W56606  36.430  42.032  12.894
95186W        W56607  30.595   1.774  11.567
95187W        W56608  27.074  25.023  12.000
95188W        W56609   8.663  25.485  11.563
95189W        W56610   7.781  12.245   4.633
95190W        W56611  42.965  29.602   4.644
95191W        W56612   6.801  23.178  12.366
95192W        W56613  43.914  29.502  11.898
95193W        W56614   5.209   5.274  14.818
95194W        W56615  42.371   3.277  14.441
95195W        W56616  11.740  13.630  12.438
95196W        W56617  41.470  30.925   3.252
95197W        W56618  32.101  19.547   1.414
95198W        W56619  14.694  35.065   3.186
95199W        W56620  19.646  15.654  13.493
95200W        W56621  11.166  34.013   2.287
95201W        W56622   6.685  35.559  11.937
95202W        W56623   9.672  11.827   1.431
95203W        W56624  35.942  34.917   1.830
95204W        W56625  31.635  24.092  14.493
95205W        W56626  26.972   7.846   2.237
95206W        W56627  33.968  16.080   1.408
95207W        W56628   9.255   3.346   4.773
95208W        W56629  43.501   6.850  12.078
95209W        W56630  31.465  23.644   2.836
95210W        W56631  22.103  42.451   4.263
95211W        W56632  30.147  27.669   4.197
95212W        W56633  12.123   8.287  11.429
95213W        W56634  40.000  21.712  11.887
95214W        W56635  43.282  36.076  11.594
95215W        W56636   1.767   0.957   1.737
95216W        W56637   2.785  11.828   1.348
95217W        W56638  26.174  11.667  14.958
95218W        W56639  35.004   0.385   4.288
95219W        W56640  18.203   7.803  11.565
95220W        W56641  42.468  40.046  14.356
95221W        W56642  36.503  11.671  12.951
95222W        W56643  41.413   9.882   1.266
95223W        W56644  21.145  31.135   0.292
95224W        W56645  22.568  35.604   2.757
95225W        W56646   1.894   7.751  14.447
95226W        W56647  39.892  24.146   3.741
95227W        W56648  32.553  36.876   0.857
95228W        W56649  24.157  10.239   5.201
95229W        W56650   9.772  26.194  10.634
95230W        W56651  44.306  16.195  10.404
95231W        W56652   2.472  11.171  12.356
95232W        W56653  12.235   8.244   4.831
95233W        W56654  36.078  14.803  10.948
95234W        W56655  29.967  21.572   4.114
95235W        W56656  27.688  32.496   1.780
95236W        W56657   3.437   0.826   3.824
95237W        W56658  41.890  25.171   3.642
95238W        W56659  14.171   8.871   5.165
95239W        W56660   6.876  27.606  14.371
95240W        W56661  43.301   1.344   1.713
95241W        W56662  33.080  31.008  13.964
95242W        W56663   3.357  36.578   4.774
95243W        W56664  44.968  35.038   1.357
95244W        W56665  26.581  37.386  12.912
95245W        W56666  16.252  43.907  10.592
95246W        W56667  22.518   7.183  10.630
95247W        W56668  23.099  22.155  13.500
95248W        W56669   8.367   0.785  13.982
95249W        W56670  16.234   7.225   3.825
95250W        W56671   5.819   4.744   2.247
95251W        W56672  31.096  36.561   1.841
95252W        W56673   8.759  23.678  11.994
95253W        W56674  42.892  33.119   1.767
95254W        W56675  35.934  34.985   0.947
95255W        W56676   5.427  36.560  12.912
95256W        W56677  31.569   8.262  10.544
95257W        W56678  20.529   7.315   4.811
95258W        W56679  13.212  33.987  11.455
95259W        W56680  18.219   7.848   1.925
95260W        W56681  21.586  39.447  12.465
95261W        W56682  14.286  24.979   0.364
95262W        W56683  32.061  33.581  11.561
95263W        W56684  44.908  15.315  11.020
95264W        W56685  37.453   1.798   5.764
95265W        W56686  17.728  32.626  10.534
95266W        W56687  43.772  24.098   1.871
95267W        W56688  26.536   4.415  10.014
95268W        W56689  40.435   0.251   0.730
95269W        W56690  43.427  39.815   2.269
95270W        W56691   8.799   8.807  11.411
95271W        W56692   3.360  15.222  14.337
95272W        W56693  32.493  29.080  11.479
95273W        W56694  10.696  36.865  14.954
95274W        W56695   1.840  20.268   4.815
95275W        W56696  39.912  38.503   4.816
95276W        W56697  10.751  44.801   2.314
95277W        W56698   2.411  30.047  13.827
95278W        W56699  20.099  17.228   2.334
95279W        W56700  34.047  40.962  13.947
95280W        W56701  21.093  22.199   1.253
95281W        W56702  38.523  22.602  10.585
95282W        W56703   7.712  31.514   2.206
95283W        W56704  40.856  37.449  13.318
95284W        W56705  35.498   6.733   3.337
95285W        W56706  23.240  27.566  12.472
95286W        W56707   2.243   0.331   0.799
95287W        W56708  42.527   7.304  12.510
95288W        W56709   7.199  15.726   3.266
95289W        W56710   9.733  11.349  10.605
95290W        W56711  11.763  14.790  14.421
95291W        W56712   5.264  29.149   2.275
95292W        W56713   7.675   7.214  12.860
95293W        W56714  42.998  16.272  10.570
95294W        W56715  36.981  22.617   2.774
95295W        W56716  25.191  23.185  13.513
95296W        W56717  28.584  17.307  13.354
95297W        W56718   7.830  38.382   2.706
95298W        W56719  39.512   0.353   0.848
95299W        W56720  35.403   8.865  14.857
95300W        W56721   9.183  15.793   0.831
95301W        W56722  41.294  23.114   0.381
95302W        W56723   0.353  42.447  12.078
95303W        W56724  39.041  36.074   3.332
95304W        W56725  28.960  23.504   4.217
95305W        W56726  30.916  35.885   9.954
95306W        W56727  23.997  37.043   1.862
95307W        W56728  30.613   2.809  10.501
95308W        W56729  25.615   2.909   1.864
95309W        W56730   4.268  13.811   0.451
95310W        W56731   3.282  14.215   1.739
95311W        W56732  22.006   7.724   0.298
95312W        W56733  20.753  22.040  11.438
95313W        W56734  13.133  32.413   4.706
95314W        W56735  14.656  25.046  11.945
95315W        W56736  13.343  26.519   5.232
95316W        W56737  26.669  43.977  12.083
95317W        W56738   7.172  35.094  12.944
95318W        W56739   7.774   0.387  11.922
95319W        W56740   9.388  26.657   3.843
95320W        W56741  11.763   7.694   1.366
95321W        W56742  26.522  26.122  14.023
95322W        W56743  40.405  39.360   2.259
95323W        W56744  17.700  36.007   0.274
95324W        W56745  24.193  37.938  11.599
95325W        W56746  26.520  41.971  11.455
95326W        W56747  34.563  28.148   2.839
95327W        W56748  40.470  43.339  14.956
95328W        W56749  17.112  42.446   1.886
95329W        W56750  44.409  36.557   2.863
95330W        W56751   5.239  37.887  11.095
95331W        W56752   6.847   5.929  11.471
95332W        W56753  43.432   8.307   4.124
95333W        W56754  28.484  16.764   0.956
95334W        W56755  23.225  42.451  12.852
95335W        W56756  37.408  38.966   3.223
95336W        W56757  41.380   2.366   3.310
95337W        W56758  29.631  38.371   0.727
95338W        W56759  42.982  40.854  11.395
95339W        W56760   4.758  15.615   1.715
95340W        W56761  30.626  26.557  13.459
95341W        W56762  37.880  36.551   3.716
95342W        W56763  15.628  38.941   5.267
95343W        W56764  36.984   8.751   4.238
95344W        W56765  31.067  14.698   1.361
95345W        W56766  10.647  17.765  12.978
95346W        W56767  28.124  43.431  11.115
95347W        W56768   1.809  21.041   4.820
95348W        W56769  36.888  42.512   4.209
95349W        W56770  38.543  18.589   3.210
95350W        W56771  20.211  16.639   1.775
95351W        W56772  26.072  34.439   1.305
95352W        W56773  16.799  21.689   3.377
95353W        W56774  26.654   3.943   4.685
95354W        W56775  39.415  38.013   2.825
95355W        W56776  12.301  31.124   9.972
95356W        W56777  25.163  14.811  14.373
95357W        W56778  15.144  30.572  12.069
95358W        W56779   8.377  28.547   0.457
95359W        W56780  29.494  28.109  12.537
95360W        W56781  34.470  11.826  12.000
95361W        W56782  25.471   5.701  12.917
95362W        W56783  38.503  40.469   0.258
95363W        W56784  13.351  10.693   2.275
95364W        W56785  34.054  22.690  10.143
95365W        W56786   0.967  44.950  12.864
95366W        W56787  29.161  32.138   2.677
95367W        W56788  34.565  44.367  10.962
95368W        W56789   9.216  19.640   4.762
95369W        W56790  31.060  39.819  12.076
95370W        W56791   2.259   9.886  11.933
95371W        W56792  36.890   8.731  11.094
95372W        W56793  38.342   2.342   0.266
95373W        W56794  31.407  29.631  14.457
95374W        W56795   8.742  15.615  13.986
95375W        W56796  36.984  12.639  10.433
95376W        W56797   8.334  44.288   3.793
95377W        W56798   6.399  24.184   4.154
95378W        W56799  19.206  30.096   0.957
95379W        W56800  15.142  40.356   0.787
95380W        W56801  38.477  14.335  12.922
95381W        W56802  25.690  40.477   4.651
95382W        W56803  34.510   7.326  12.567
95383W        W56804  29.599  29.138  11.410
95384W        W56805  20.548  44.426  12.509
95385W        W56806  22.551   1.902   2.776
95386W        W56807   3.376  12.769  11.122
95387W        W56808  29.032  17.621  10.896
95388W        W56809  34.525  20.195  14.762
95389W        W56810   5.792  23.994   5.666
95390W        W56811  40.983  12.338  10.577
95391W        W56812  20.629  26.953   2.189
95392W        W56813  35.971  26.959  12.914
95393W        W56814   8.720  18.712  12.060
95394W        W56815  27.147  34.571   5.120
95395W        W56816   5.287  14.691   2.374
95396W        W56817  15.297  28.034  14.275
95397W        W56818   0.433   0.883  11.083
95398W        W56819   8.172  28.551   3.862
95399W        W56820   4.758  44.309   0.749
95400W        W56821   6.376   5.372  12.568
95401W        W56822  36.970  26.631   4.627
95402W        W56823   6.843  29.584   0.933
95403W        W56824  22.019  37.988   3.347
95404W        W56825  30.533  40.333   2.676
95405W        W56826  11.778  34.597  11.022
95406W        W56827  32.567  12.745   0.318
95407W        W56828  30.489  30.652   1.788
95408W        W56829  11.287   3.785  12.512
95409W        W56830  31.501  28.936  13.415
95410W        W56831  34.487   1.346   1.230
95411W        W56832  28.096  24.536  12.418
95412W        W56833  24.068  11.303   4.259
95413W        W56834  31.931   4.226   3.854
95414W        W56835  38.545  38.837   4.744
95415W        W56836  38.058  16.283  11.938
95416W        W56837  13.627   6.851   2.352
95417W        W56838  36.908  30.154   3.160
95418W        W56839  42.936  10.646  14.464
95419W        W56840  20.531  31.562  12.980
95420W        W56841   2.377  26.074   3.283
95421W        W56842  19.101  15.267  10.606
95422W        W56843  44.481  26.167  14.336
95423W        W56844  12.840  35.521  12.932
95424W        W56845  23.729  21.207   0.361
95425W        W56846  44.915  30.023   4.614
95426W        W56847  34.557  42.842  12.096
95427W        W56848  31.909  24.184  11.020
95428W        W56849  17.781  43.960   3.235
95429W        W56850  14.202  10.675  13.006
95430W        W56851  17.164  29.470  14.786
95431W        W56852  28.681  31.532  14.831
95432W        W56853  39.516   2.470  12.945
95433W        W56854  33.604  10.726   2.327
95434W        W56855  13.788  21.723  14.323
95435W        W56856  43.939  23.577   4.622
95436W        W56857  27.040  14.319   1.802
95437W        W56858   8.677   1.921  14.884
95438W        W56859  28.079  22.231   0.815
95439W        W56860  14.797   5.712  12.436
95440W        W56861   0.917   7.336   4.297
95441W        W56862  22.571  39.322   2.262
95442W        W56863  32.453  11.822   3.681
95443W        W56864  37.464  34.537  13.395
95444W        W56865  12.759   7.303  11.107
95445W        W56866  44.888  29.650  14.503
95446W        W56867   3.369  23.203  11.527
95447W        W56868  33.568   9.823   2.378
95448W        W56869   4.720  26.546  14.995
95449W        W56870  43.798   0.821   2.903
95450W        W56871  31.641  10.217  14.407
95451W        W56872  42.945   5.822  12.889
95452W        W56873   2.806  13.679   0.410
95453W        W56874  17.142  18.225   2.241
95454W        W56875  44.928  32.047  14.370
95455W        W56876  41.494  32.094   1.252
95456W        W56877  28.613  42.397  10.576
95457W        W56878  26.039   7.842  10.006
95458W        W56879   1.303  38.999   1.857
95459W        W56880  28.490  40.377   3.219
95460W        W56881  39.515  17.699  11.020
95461W        W56882  17.290  29.539   1.813
95462W        W56883  25.591   1.250   4.648
95463W        W56884   6.705  27.140   4.673
95464W        W56885   3.927   5.924   0.309
95465W        W56886   4.940  30.550   0.887
95466W        W56887  26.470  34.087   3.343
95467W        W56888  25.007   2.812   0.882
95468W        W56889  28.057  43.863   1.832
95469W        W56890  18.119  26.999  12.024
95470W        W56891  25.219  29.471   1.365
95471W        W56892  23.167  44.330  10.495
95472W        W56893  13.715  31.956   1.268
95473W        W56894  31.924   0.490  11.063
95474W        W56895  40.825  17.129  10.539
95475W        W56896  22.165  31.100   0.268
95476W        W56897  43.512  16.201   2.893
95477W        W56898  28.472   4.377   4.307
95478W        W56899  24.052   7.415  14.996
95479W        W56900   1.942  34.515   0.746
95480W        W56901  16.663  13.628  14.339
95481W        W56902  11.192  16.633  13.353
95482W        W56903  18.187  27.089   1.212
95483W        W56904   3.949  41.371   3.666
95484W        W56905  31.006  28.055   4.698
95485W        W56906  14.758   6.182  12.420
95486W        W56907   5.369   9.785  12.832
95487W        W56908  19.699   3.412   1.810
95488W        W56909  37.876  38.033   4.618
95489W        W56910  18.169  37.395  10.497
95490W        W56911  27.460  27.557  11.015
95491W        W56912  30.482   0.841  14.997
95492W        W56913  14.722  42.913  10.102
95493W        W56914  30.143  10.719   9.487
95494W        W56915   1.467  32.965   0.828
95495W        W56916  44.305  39.336  11.550
95496W        W56917  38.930  25.672  12.865
95497W        W56918  11.740  13.768  11.462
95498W        W56919   9.768  39.321   0.305
95499W        W56920   8.229  21.512   3.256
95500W        W56921  23.094   2.441  10.553
95501W        W56922  38.417  18.275   0.817
95502W        W56923  10.347  35.434  13.800
95503W        W56924  14.708  24.194   3.758
95504W        W56925  32.069  33.114  10.404
95505W        W56926   8.256  39.882  10.957
95506W        W56927  24.569  28.664  10.481
95507W        W56928   5.699  18.252  12.896
95508W        W56929  22.154  40.428   1.351
95509W        W56930  29.087  11.235  11.074
95510W        W56931   3.832  38.932  10.978
95511W        W56932  42.521  36.003  10.546
95512W        W56933   6.187  27.956   1.704
95513W        W56934  42.293  15.801   4.615
95514W        W56935  10.178   7.774   0.326
95515W        W56936  32.525  36.079  12.402
95516W        W56937  40.486  43.930  14.319
95517W        W56938   1.388   7.786  12.532
95518W        W56939   3.328  36.967   2.784
95519W        W56940  24.496  34.968  14.449
95520W        W56941  44.494  31.976   2.810
95521W        W56942  32.562  12.238   0.740
95522W        W56943   7.722   7.257   0.790
95523W        W56944  36.079  42.974   4.721
95524W        W56945  11.282  26.488   0.926
95525W        W56946  41.315  28.106   4.273
95526W        W56947  41.893  39.041  14.407
95527W        W56948  29.577   3.840  13.006
95528W        W56949   4.308  35.362   3.690
95529W        W56950  17.307   3.732  11.025
95530W        W56951  31.644   7.767  14.799
95531W        W56952  19.181  26.110  11.991
95532W        W56953   4.444  42.846  12.395
95533W        W56954  17.777  33.503  13.892
95534W        W56955  13.642  29.539   3.380
95535W        W56956  15.154  37.564  12.893
95536W        W56957  35.362   7.330  14.374
95537W        W56958  38.901  41.478  10.975
95538W        W56959  21.697  18.241  14.457
95539W        W56960  44.854  37.395  10.991
95540W        W56961   7.743  22.532   4.280
95541W        W56962  14.726  11.657   2.260
95542W        W56963  35.962  41.958  14.877
95543W        W56964  39.396  28.993   3.198
95544W        W56965  33.504   8.857  11.911
95545W        W56966  31.589  34.437   3.745
95546W        W56967  18.265  37.481  11.113
95547W        W56968  39.978   3.729   1.228
95548W        W56969  23.654   1.793   4.277
95549W        W56970  22.026  24.704   1.440
95550W        W56971  44.392  41.983   1.741
95551W        W56972  26.545  19.043  13.427
95552W        W56973  18.231   6.711  11.957
95553W        W56974   0.920  11.370   1.392
95554W        W56975   6.424  24.081  13.433
95555W        W56976  31.440  25.110  14.509
95556W        W56977   1.268   8.175  13.883
95557W        W56978   8.291  21.532   3.675
95558W        W56979   5.330  32.452   3.805
95559W        W56980  25.005   1.803   3.340
95560W        W56981  19.715   9.879  13.020
95561W        W56982  18.585  40.029   2.304
95562W        W56983  39.902  13.761   2.900
95563W        W56984  20.036  13.240   3.646
95564W        W56985  17.242  29.578  11.550
95565W        W56986  28.537  39.891  11.857
95566W        W56987  28.959  31.578  13.346
95567W        W56988  44.373  13.639   4.202
95568W        W56989  35.037  44.387   1.802
95569W        W56990  16.712   0.913  11.072
95570W        W56991  10.773   9.844   1.877
95571W        W56992  25.139   9.268   2.344
95572W        W56993  27.064   5.786   2.248
95573W        W56994   1.919  39.459  14.876
95574W        W56995  12.834  31.435  10.978
95575W        W56996   7.677  43.270   1.328
95576W        W56997   0.911   4.859  11.430
95577W        W56998  28.537  10.185  13.331
95578W        W56999  16.133   7.208  12.576
95579W        W57000  33.911   9.391  10.556
95580W        W57001  10.293   5.782  10.465
95581W        W57002  15.749  16.627   2.729
95582W        W57003  12.227  18.667  13.965
95583W        W57004   8.215  32.407  10.468
95584W        W57005  36.531   2.793  10.904
95585W        W57006  43.775  43.448  13.499
95586W        W57007  37.466  24.537   0.269
95587W        W57008  24.584  24.565  14.503
95588W        W57009  17.077  26.012  10.999
95589W        W57010  17.774  26.024   2.673
95590W        W57011  38.940  34.886  11.463
95591W        W57012  14.332  40.473  14.977
95592W        W57013   7.825  22.185  10.408
95593W        W57014  22.025  24.056   4.155
95594W        W57015   5.694  44.981  14.844
95595W        W57016  10.346  23.020  11.891
95596W        W57017   4.379  30.628  10.641
95597W        W57018  39.028  30.165   0.348
95598W        W57019  23.664  12.612  12.383
95599W        W57020  43.475  42.025  13.908
95600W        W57021  13.818  23.066  10.425
95601W        W57022   9.386  20.590  10.550
95602W        W57023  17.772  16.209   4.305
95603W        W57024  13.225  20.541  13.482
95604W        W57025  24.626  41.868   1.771
95605W        W57026  17.186  24.231   1.294
95606W        W57027  13.147  42.474   3.637
95607W        W57028   1.450  19.070  14.481
95608W        W57029  31.091  17.269  13.470
95609W        W57030  34.039  24.107  14.276
95610W        W57031  28.644  41.383   3.355
95611W        W57032  32.112   4.804   2.191
95612W        W57033  15.669  17.617  10.587
95613W        W57034  36.024  27.451   2.303
95614W        W57035  19.188  11.224   3.870
95615W        W57036  21.520   3.864  14.433
95616W        W57037  13.224  44.441  14.295
95617W        W57038  44.318  29.992   4.818
95618W        W57039  34.569   8.776   3.670
95619W        W57040  40.339  25.132   4.707
95620W        W57041  44.325  20.583   4.138
95621W        W57042  38.904  31.088   0.295
95622W        W57043  43.433  34.871  12.511
95623W        W57044   7.824  25.027   5.209
95624W        W57045  23.993   8.402  13.323
95625W        W57046  18.627  26.103   4.245
95626W        W57047  36.448  44.364  13.866
95627W        W57048  28.549  11.842   0.258
95628W        W57049  35.932  30.557   4.236
95629W        W57050  12.820   9.353  11.955
95630W        W57051   9.346  17.742  13.925
95631W        W57052  30.479   4.715   2.341
95632W        W57053  24.159   2.885  14.997
95633W        W57054  41.884  42.489  11.964
95634W        W57055  17.667  40.490  12.453
95635W        W57056  31.018  36.079   3.193
95636W        W57057  43.960  39.434  11.059
95637W        W57058   4.345  24.020  11.915
95638W        W57059  34.385  33.611  12.058
95639W        W57060  22.223  12.730   1.407
95640W        W57061  19.078  24.666  11.998
95641W        W57062   8.351  22.688  10.456
95642W        W57063  21.126  22.604  11.933
95643W        W57064  17.577  34.077  11.986
95644W        W57065   3.911  21.040   0.456
95645W        W57066   7.402  34.558   3.635
95646W        W57067  31.549  11.834  11.503
95647W        W57068   8.881  14.175   2.309
95648W        W57069  31.424  39.020  12.541
95649W        W57070  17.071  14.205  11.518
95650W        W57071   7.774  29.618   2.356
95651W        W57072  40.884  36.591   2.182
95652W        W57073   4.827  27.118   0.354
95653W        W57074  29.604  25.470   3.713
95654W        W57075   0.928  17.701   0.260
95655W        W57076  16.576   0.819   1.918
95656W        W57077  36.375  12.216   4.299
95657W        W57078  43.979  35.506   4.811
95658W        W57079  24.485  21.613  14.301
95659W        W57080  30.419   8.312  14.336
95660W        W57081  18.760  28.950  11.589
95661W        W57082  41.806   3.253   0.772
95662W        W57083  17.126  16.705  13.430
95663W        W57084  27.189  31.084  12.905
95664W        W57085  20.609  37.437   2.222
95665W        W57086  33.097  32.042   2.724
95666W        W57087  25.205  15.615  11.431
95667W        W57088  44.297   4.242   2.181
95668W        W57089  41.791  30.565  14.301
95669W        W57090   0.883  37.002   2.899
95670W        W57091   5.718  42.325  13.421
95671W        W57092   5.397  38.865  13.833
95672W        W57093  42.950  33.937   0.773
95673W        W57094  15.321  30.124  14.856
95674W        W57095  42.343  32.956   2.346
95675W        W57096  30.524   8.782  10.405
95676W        W57097  37.580  12.360  12.079
95677W        W57098   2.738  36.885   0.750
95678W        W57099   2.294  25.517  10.086
95679W        W57100  40.037   1.266   3.224
95680W        W57101   6.235   2.367  13.314
95681W        W57102   3.932  13.680   0.429
95682W        W57103  26.045  41.980  10.437
95683W        W57104  36.861  17.194  12.392
95684W        W57105  17.689  41.810   3.763
95685W        W57106  30.148  11.703   3.326
95686W        W57107   9.704   9.191   2.343
95687W        W57108  32.924   3.417  14.433
95688W        W57109  21.605  19.702   0.825
95689W        W57110   0.262   5.387  11.386
95690W        W57111  35.370  17.221   3.377
95691W        W57112  15.793   5.774  13.534
95692W        W57113   9.679   9.297  11.877
95693W        W57114  44.783  25.098  13.363
95694W        W57115  20.606  16.131   1.717
95695W        W57116  32.593  31.094  10.938
95696W        W57117  29.612  29.115  10.547
95697W        W57118  17.106   6.243  14.366
95698W        W57119  15.766   8.868   3.298
95699W        W57120  11.761  20.261  13.944
95700W        W57121   8.829   5.720   2.419
95701W        W57122  12.241  28.105  11.586
95702W        W57123  15.737  24.479  13.914
95703W        W57124  13.152  25.163  12.345
95704W        W57125  21.087   1.276  12.971
95705W        W57126  22.658  10.321   3.186
95706W        W57127  17.655   4.797  14.992
95707W        W57128   8.258  21.536  10.989
95708W        W57129   3.766  41.936   1.700
95709W        W57130  40.427  34.381  14.412
95710W        W57131  14.330  22.161  13.521
95711W        W57132  24.147  27.031   3.759
95712W        W57133  26.588   5.753   1.932
95713W        W57134  20.650  38.831  13.347
95714W        W57135  43.469  16.248  12.922
95715W        W57136  27.118  33.084  11.515
95716W        W57137  27.961  29.170  11.536
95717W        W57138  37.983  21.233  11.412
95718W        W57139  21.580   0.371  11.482
95719W        W57140  18.177  20.766   4.619
95720W        W57141   9.292  31.502  14.770
95721W        W57142  15.305  29.532   0.756
95722W        W57143  17.681  33.462  10.108
95723W        W57144  42.526   0.796   2.859
95724W        W57145  32.971   1.380   2.361
95725W        W57146   3.246  11.657  10.541
95726W        W57147  11.823   4.905   0.750
95727W        W57148  35.593  18.779   2.858
95728W        W57149  26.203  16.242  14.461
95729W        W57150  37.905  18.268   2.214
95730W        W57151  38.990  20.593  10.929
95731W        W57152  22.640  11.843   3.250
95732W        W57153   4.352  34.865  13.910
95733W        W57154  30.620   1.953   1.368
95734W        W57155  29.101   8.853   4.727
95735W        W57156  42.445  26.666   3.839
95736W        W57157   3.889  39.468  10.908
95737W        W57158   5.427  36.994  14.016
95738W        W57159   7.242  20.125  14.030
95739W        W57160  27.093  12.731  12.539
95740W        W57161  10.700  29.625  12.350
95741W        W57162   4.769  26.029   3.848
95742W        W57163   4.360   7.687  14.831
95743W        W57164  37.581  15.322   2.291
95744W        W57165   6.294  16.717   3.689
95745W        W57166  12.644  23.626  12.436
95746W        W57167  13.227  30.469   5.195
95747W        W57168  16.096  26.107  11.001
95748W        W57169  26.536  17.145  12.395
95749W        W57170  19.753  41.944  13.873
95750W        W57171  43.786   0.970  13.370
95751W        W57172   1.443  18.774  14.809
95752W        W57173  27.054  17.766   1.764
95753W        W57174  12.360  43.946  14.920
95754W        W57175  11.217  19.545   4.767
95755W        W57176   6.677  16.807   4.780
95756W        W57177   1.953  40.536   1.845
95757W        W57178  12.713  23.209  13.912
95758W        W57179  11.701   6.314  11.960
95759W        W57180  33.989  16.740  11.077
95760W        W57181  12.735   2.312   2.222
95761W        W57182   4.856   6.228  12.845
95762W        W57183  44.946  29.090  14.276
95763W        W57184  16.218  40.516   4.322
95764W        W57185  16.605   5.697   2.840
95765W        W57186   9.221  37.011   2.811
95766W        W57187   2.402  37.565   2.251
95767W        W57188  12.292  41.425   0.794
95768W        W57189  38.358   1.346   3.307
95769W        W57190  30.439  43.016  12.488
95770W        W57191  36.528  21.522  10.944
95771W        W57192  42.874  39.559   2.902
95772W        W57193   1.316  37.365   0.768
95773W        W57194  25.125   4.809   2.830
95774W        W57195  29.935   0.787   2.823
95775W        W57196  36.463   7.830  14.927
95776W        W57197  38.539  25.575   3.275
95777W        W57198  34.510   3.875   5.601
95778W        W57199  40.938   7.831   0.410
95779W        W57200  28.167  19.740  11.473
95780W        W57201  12.284  16.207   3.707
95781W        W57202  26.508  37.394   4.697
95782W        W57203  16.162  34.384   2.194
95783W        W57204  21.226  40.054  10.923
95784W        W57205  17.706  19.660   4.603
95785W        W57206   4.709  33.916   3.685
95786W        W57207   4.728  13.183   4.781
95787W        W57208  33.967  43.888  12.915
95788W        W57209   3.224  18.666   2.764
95789W        W57210  35.442  41.852   1.268
95790W        W57211  24.483  31.471  13.847
95791W        W57212  42.902  26.670   9.924
95792W        W57213   1.786  31.519   3.675
95793W        W57214  20.681  32.400  13.971
95794W        W57215  44.377  26.074  11.057
95795W        W57216  15.591  23.574   4.346
95796W        W57217  41.502  20.653   2.736
95797W        W57218  25.056  31.937  14.806
95798W        W57219  26.146  43.776  13.520
95799W        W57220  21.665  32.909   2.876
95800W        W57221  29.442  16.705   1.876
95801W        W57222  43.325  29.937   2.357
95802W        W57223   8.379   7.201  12.990
95803W        W57224  15.328  20.597   2.377
95804W        W57225  35.096   4.779   0.801
95805W        W57226  30.589  19.560   1.881
95806W        W57227  43.863   0.851  11.026
95807W        W57228  18.060  37.907   1.262
95808W        W57229  30.617  33.071  12.415
95809W        W57230  18.273  41.398  14.886
95810W        W57231   3.723   6.226   0.786
95811W        W57232  44.482  31.097  10.639
95812W        W57233   8.219  40.014   3.337
95813W        W57234  12.257  35.603   2.195
95814W        W57235  26.678  27.543  12.974
95815W        W57236  39.918   0.287  12.897
95816W        W57237  38.510  26.998   3.192
95817W        W57238  44.777  33.942   9.978
95818W        W57239  40.008  15.138  13.833
95819W        W57240  27.463  18.765   3.648
95820W        W57241   7.185  16.716  13.996
95821W        W57242  38.365   3.461  11.015
95822W        W57243  44.261  14.259   0.319
95823W        W57244  31.410  18.752  14.480
95824W        W57245  13.166  14.286   2.337
95825W        W57246  30.627  34.423   4.236
95826W        W57247   6.891  38.886   0.754
95827W        W57248   4.225  11.842   3.793
95828W        W57249  16.233  23.060   1.357
95829W        W57250  20.570  30.027  12.487
95830W        W57251   4.391  35.434  14.974
95831W        W57252   1.364  38.456   1.215
95832W        W57253  12.731  21.074   3.803
95833W        W57254  15.651  10.694  12.554
95834W        W57255   7.812  17.642   4.707
95835W        W57256  10.697  13.803  14.388
95836W        W57257   4.347   7.692  11.873
95837W        W57258  38.010  28.148   1.451
95838W        W57259  39.901  26.990  10.546
95839W        W57260   0.344  23.096   2.265
95840W        W57261  26.034  22.181   4.313
95841W        W57262  21.742  36.400   0.281
95842W        W57263  37.549  35.416  11.392
95843W        W57264  20.251   8.663   4.347
95844W        W57265  15.195  25.571  14.288
95845W        W57266  35.951   9.259  12.459
95846W        W57267   5.209  43.468  13.468
95847W        W57268  20.183   3.915   0.879
95848W        W57269  39.811  37.841   0.305
95849W        W57270  40.030   4.282  13.918
95850W        W57271   1.282  37.919   3.330
95851W        W57272  20.168  14.614   3.312
95852W        W57273  35.586  13.260   1.780
95853W        W57274  35.045  11.811  14.497
95854W        W57275  25.601  25.074  12.457
95855W        W57276   9.388  29.988  12.463
95856W        W57277  29.991  43.410   0.418
95857W        W57278  29.014  40.938   4.320
95858W        W57279   2.361  35.015  11.029
95859W        W57280  42.459  34.099   1.418
95860W        W57281   5.696  40.441  12.406
95861W        W57282   6.197  40.837  12.550
95862W        W57283   6.428  40.548   0.843
95863W        W57284  20.246  43.447   2.186
95864W        W57285  20.699  41.472  13.481
95865W        W57286  44.361  21.597   3.723
95866W        W57287  13.816  17.785   2.858
95867W        W57288  27.457  28.511   2.363
95868W        W57289  19.221  26.138  10.520
95869W        W57290   9.205  32.496   2.204
95870W        W57291  28.649  35.106   1.295
95871W        W57292  28.119  38.444   1.250
95872W        W57293   6.922  39.401   0.739
95873W        W57294   9.683  41.294  11.536
95874W        W57295  19.243  12.814  11.921
95875W        W57296  13.609  12.120  11.040
95876W        W57297  21.255  32.992  12.008
95877W        W57298   9.813  29.448   0.427
95878W        W57299  19.246  13.801  12.496
95879W        W57300  43.432  26.464   1.301
95880W        W57301  32.056  26.205   4.233
95881W        W57302  25.564  44.923   3.738
95882W        W57303   6.216  42.032   4.747
95883W        W57304  43.799  28.967  11.556
95884W        W57305  30.555  22.203   4.205
95885W        W57306  26.070  40.010  12.062
95886W        W57307  31.514  44.941   2.335
95887W        W57308  34.557  36.044   0.388
95888W        W57309  41.952  34.443  10.906
95889W        W57310  25.496   3.750  14.317
95890W        W57311  15.327  29.165   4.264
95891W        W57312  35.018  43.780   3.689
95892W        W57313   4.744   6.377   2.806
95893W        W57314  32.965  27.483  11.486
95894W        W57315  44.917   8.205   2.385
95895W        W57316  33.537  22.997   3.250
95896W        W57317  29.522   7.726   3.311
95897W        W57318  15.693   2.285  13.518
95898W        W57319  37.831   2.928  12.351
95899W        W57320  21.023  43.313   0.412
95900W        W57321  31.035   1.285  12.439
95901W        W57322  33.525   5.806   4.130
95902W        W57323  25.701  19.621  12.368
95903W        W57324  14.808  35.900  11.459
95904W        W57325   8.732   3.257   0.739
95905W        W57326  16.191  16.752   4.621
95906W        W57327  21.726  40.521  12.513
95907W        W57328  26.073  34.590   3.312
95908W        W57329  22.007  32.029  12.887
95909W        W57330  20.270  10.780  13.401
95910W        W57331  43.930  31.116  13.326
95911W        W57332   5.321   5.201  13.956
95912W        W57333  32.121  39.424  13.811
95913W        W57334  13.172  10.227   0.335
95914W        W57335  12.701  39.862   2.316
95915W        W57336  26.572   1.444   1.913
95916W        W57337  40.510  37.496   1.283
95917W        W57338  33.569   1.771  14.903
95918W        W57339  27.472  28.118   1.319
95919W        W57340  36.855  35.515  12.084
95920W        W57341  28.186  31.409   0.434
95921W        W57342  23.531   0.482   4.345
95922W        W57343  42.495  42.456  10.417
95923W        W57344  31.456   0.826   2.321
95924W        W57345   9.266  24.983  12.030
95925W        W57346  17.579   1.832  13.049
95926W        W57347  44.437  34.908  14.970
95927W        W57348   3.858  15.161  14.280
95928W        W57349  32.120   5.225   0.279
95929W        W57350  22.010  22.243  14.501
95930W        W57351  20.657   2.815   4.297
95931W        W57352  34.465  36.858  14.980
95932W        W57353  26.203   1.388   3.303
95933W        W57354   1.401  30.491   2.283
95934W        W57355   1.289  41.026  14.966
95935W        W57356  29.921  12.670   1.905
95936W        W57357   1.313  29.472  11.502
95937W        W57358  30.074  14.209   3.387
95938W        W57359  18.213  43.880  11.384
95939W        W57360  13.661  41.867  14.418
95940W        W57361   0.767  39.834  10.551
95941W        W57362  43.952  26.970  10.962
95942W        W57363   1.910  34.108   0.830
95943W        W57364  28.044   4.428   2.723
95944W        W57365  44.941  40.456  14.981
95945W        W57366   8.896   1.448   2.407
95946W        W57367  30.568  15.208  12.070
95947W        W57368  15.621  37.063  14.392
95948W        W57369  31.600  12.842  13.795
95949W        W57370   8.888  15.782  14.467
95950W        W57371  26.123  36.872  10.993
95951W        W57372   0.466  42.410   0.926
95952W        W57373  35.938  21.109   2.815
95953W        W57374  18.768  18.167   3.258
95954W        W57375  30.590  22.252   3.785
95955W        W57376  35.362  43.801  14.352
95956W        W57377  25.651  15.225   0.747
95957W        W57378  19.691  30.456  12.094
95958W        W57379  21.705  42.974  11.080
95959W        W57380  29.616  34.912  13.852
95960W        W57381   9.308  14.333   0.426
95961W        W57382  30.912  23.514  12.497
95962W        W57383  33.930  15.788   1.734
95963W        W57384  36.384  35.067  10.063
95964W        W57385   2.389   8.759   2.734
95965W        W57386  34.077  36.924  13.525
95966W        W57387  23.062  36.562  11.029
95967W        W57388  10.260  39.394  11.472
95968W        W57389  36.969  39.394  11.435
95969W        W57390  42.524  33.107   4.116
95970W        W57391  16.225   2.886  10.949
95971W        W57392  14.623   6.330   3.345
95972W        W57393   5.832  19.672  12.012
95973W        W57394   0.476  31.953   1.698
95974W        W57395   4.715   6.192   3.846
95975W        W57396  32.135  38.471  12.980
95976W        W57397  20.638  13.683   2.231
95977W        W57398  38.406  14.633  11.990
95978W        W57399  24.511  24.664   4.209
95979W        W57400  13.339  13.242  12.074
95980W        W57401  41.821  19.282   3.644
95981W        W57402  19.585   8.809   4.162
95982W        W57403  29.997  31.458  14.410
95983W        W57404  33.039  20.243  14.980
95984W        W57405  13.336  13.256  12.494
95985W        W57406  16.232  33.489  13.986
95986W        W57407  37.409  37.561   4.785
95987W        W57408   7.690  24.507   4.176
95988W        W57409  37.013  33.441  11.887
95989W        W57410  18.707  39.466  13.849
95990W        W57411  13.745  12.631   0.921
95991W        W57412  21.237  24.715  13.538
95992W        W57413  11.306  37.511  10.037
95993W        W57414  30.457   6.185  13.542
95994W        W57415  10.744  24.039  10.955
95995W        W57416  21.566  12.262   4.767
95996W        W57417  18.273  31.582   0.835
95997W        W57418   1.378  25.526  14.000
95998W        W57419  43.959  39.003  12.497
95999W        W57420  38.067  41.837  12.511
96000W        W57421  27.002  34.062  11.405
96001W        W57422  25.661  38.482  14.312
96002W        W57423  39.852   8.198   2.362
96003W        W57424  18.562  33.114   0.749
96004W        W57425   4.802  27.637   1.784
96005W        W57426  28.124  39.361   0.834
96006W        W57427  43.367  31.492  12.052
96007W        W57428  18.566  42.935   4.130
96008W        W57429  24.178  26.118  12.504
96009W        W57430  11.167  30.121   4.152
96010W        W57431   8.231  44.921  12.383
96011W        W57432  44.802  16.289   4.755
96012W        W57433  11.791  35.967  11.970
96013W        W57434  38.820  21.210   2.370
96014W        W57435  44.397  14.633  13.823
96015W        W57436   1.834  27.446  11.392
96016W        W57437   7.287  30.947  12.853
96017W        W57438   4.347   2.298   2.229
96018W        W57439  13.825  36.575   3.761
96019W        W57440  33.567  33.126  12.383
96020W        W57441  37.948  17.584  11.964
96021W        W57442   9.362  25.496   3.230
96022W        W57443  11.706   6.374  12.873
96023W        W57444  31.517  18.269   3.692
96024W        W57445  41.913  35.569  11.917
96025W        W57446  24.567  33.461  11.498
96026W        W57447  21.571  43.772  10.936
96027W        W57448   8.811  21.086   5.123
96028W        W57449   1.246  18.239   2.403
96029W        W57450  12.841  22.562  13.515
96030W        W57451  14.737  18.132  11.579
96031W        W57452  33.902  16.291  12.078
96032W        W57453  28.638  22.175  11.529
96033W        W57454  33.504   3.294  13.800
96034W        W57455  40.035  15.818   2.398
96035W        W57456  41.522   8.801  13.445
96036W        W57457  11.260  14.319  11.452
96037W        W57458   5.200  27.504   3.386
96038W        W57459  29.141  43.014  13.890
96039W        W57460  23.508  14.301   0.808
96040W        W57461   6.863   9.850  13.055
96041W        W57462  30.960   2.912  11.484
96042W        W57463  30.630  31.576   2.245
96043W        W57464  19.257  38.520  10.555
96044W        W57465  16.665   1.788  13.054
96045W        W57466  43.385  15.629   3.751
96046W        W57467  24.610  20.098  11.034
96047W        W57468  35.589  21.752  13.510
96048W        W57469   4.925   5.873   2.219
96049W        W57470  10.246  23.735   0.934
96050W        W57471  37.562  23.020   4.355
96051W        W57472  26.520   5.880   2.823
96052W        W57473  39.538  11.339  12.851
96053W        W57474  41.909  40.035  14.903
96054W        W57475  16.075  40.482   2.877
96055W        W57476  35.948   7.713  12.968
96056W        W57477  17.697  27.680   4.824
96057W        W57478  38.416   7.887   3.727
96058W        W57479  30.441  26.555   2.309
96059W        W57480   8.741  44.493   4.810
96060W        W57481  37.541   0.962   4.830
96061W        W57482  23.498  25.157  10.956
96062W        W57483  27.950  44.301  11.975
96063W        W57484   2.836  24.011   4.182
96064W        W57485   5.747  35.473  14.958
96065W        W57486  35.944  15.134  12.829
96066W        W57487  11.196  39.392  11.982
96067W        W57488  14.673   5.232   1.305
96068W        W57489   8.210  37.345   9.532
96069W        W57490  18.632   8.804   0.892
96070W        W57491  23.592  39.394  13.851
96071W        W57492  13.262  22.600   4.691
96072W        W57493   9.318  23.682  11.977
96073W        W57494   8.393  26.523   3.724
96074W        W57495   9.157   1.278   1.380
96075W        W57496  22.169  42.503  11.559
96076W        W57497   1.393  44.869   3.801
96077W        W57498  28.442   2.842   1.279
96078W        W57499  13.812   1.293   0.796
96079W        W57500  44.913  17.588  11.039
96080W        W57501  28.550  22.574   1.376
96081W        W57502  21.156   0.935   4.815
96082W        W57503   2.843  34.499   5.199
96083W        W57504  43.962  40.341  14.984
96084W        W57505  24.041  10.275  12.570
96085W        W57506  25.573   8.671   3.201
96086W        W57507  15.306  30.546   4.290
96087W        W57508   4.886  33.406   1.386
96088W        W57509  13.227  19.594   4.776
96089W        W57510   9.682  25.488   3.797
96090W        W57511  19.549  35.581   3.318
96091W        W57512  20.574  19.661   3.270
96092W        W57513  15.185  28.150   0.254
96093W        W57514  41.340  18.769   4.760
96094W        W57515  19.552  38.822  12.072
96095W        W57516  27.532  39.984  13.386
96096W        W57517   0.320  35.527  11.014
96097W        W57518  24.139  31.911  10.007
96098W        W57519  27.104  10.774  12.548
96099W        W57520  12.216  17.111  14.997
96100W        W57521  32.096  12.825   2.709
96101W        W57522  30.074  33.482   2.223
96102W        W57523  13.761   8.878  11.048
96103W        W57524  35.502  39.347  10.422
96104W        W57525  19.645  30.420   4.748
96105W        W57526  21.172  31.978  11.951
96106W        W57527  33.517  25.701   3.364
96107W        W57528  26.119  25.577  13.413
96108W        W57529  25.610  28.508  10.630
96109W        W57530  22.061  20.239  11.882
96110W        W57531  23.518  23.994  14.351
96111W        W57532  12.353  21.181  13.909
96112W        W57533  42.514  32.431   2.344
96113W        W57534  30.128  17.628  13.481
96114W        W57535   8.769  15.716   2.670
96115W        W57536  27.076   2.258   4.151
96116W        W57537  21.728  37.882  13.537
96117W        W57538   3.715  26.122  12.497
96118W        W57539   4.701  27.071   2.823
96119W        W57540  30.422   3.899   3.340
96120W        W57541  43.495  36.059  10.893
96121W        W57542   9.264  30.030   1.750
96122W        W57543  27.540   2.888  10.552
96123W        W57544   0.837  31.628   0.806
96124W        W57545  36.433  39.050   3.843
96125W        W57546  20.547  38.494  14.826
96126W        W57547   7.811  27.110   3.704
96127W        W57548   6.412   7.698   4.164
96128W        W57549  36.889   9.329  10.572
96129W        W57550  26.095  30.919   1.366
96130W        W57551  10.238  36.862   4.326
96131W        W57552  30.967  39.956  13.342
96132W        W57553  36.422   4.723  10.915
96133W        W57554  26.691  14.737  10.572
96134W        W57555   3.242  44.850   2.289
96135W        W57556   9.243   0.307  13.524
96136W        W57557  10.748  28.057  11.892
96137W        W57558  37.921   6.740   1.343
96138W        W57559  22.073  10.311  13.952
96139W        W57560  18.687  15.601   0.379
96140W        W57561   1.779   3.394  11.501
96141W        W57562  33.955  16.098   4.302
96142W        W57563  16.233   1.290  11.413
96143W        W57564  19.766  23.577   4.622
96144W        W57565  36.491   1.466  14.882
96145W        W57566  15.328  20.543   0.346
96146W        W57567  41.337  37.022  14.495
96147W        W57568   8.346  16.255  11.997
96148W        W57569  32.950  31.990   3.280
96149W        W57570  30.058  25.976  11.582
96150W        W57571  36.530  30.567  13.826
96151W        W57572  16.292  19.275   3.236
96152W        W57573  12.824  27.589   2.406
96153W        W57574  10.262  35.477   2.897
96154W        W57575   3.286  17.608   4.821
96155W        W57576  17.219   3.414  11.430
96156W        W57577  10.221  15.685  14.360
96157W        W57578   6.743   2.256   2.300
96158W        W57579  42.931   1.277   1.254
96159W        W57580   9.347  39.020   2.797
96160W        W57581   7.416  16.763  10.555
96161W        W57582   7.226  17.089  12.091
96162W        W57583  30.552  23.542   0.750
96163W        W57584  18.583  21.654  11.921
96164W        W57585  15.282  32.393   4.648
96165W        W57586  36.513   5.851   4.634
96166W        W57587  15.697  14.217  10.610
96167W        W57588  37.501  33.443   1.731
96168W        W57589  24.979  19.141  11.515
96169W        W57590   0.819  36.960   1.250
96170W        W57591  18.744  18.715   1.802
96171W        W57592  41.915   6.755   1.759
96172W        W57593  31.150  19.671   3.849
96173W        W57594   1.415  42.942   3.780
96174W        W57595  26.588   7.815   4.815
96175W        W57596  33.512  43.832   0.298
96176W        W57597  44.442  15.674  12.959
96177W        W57598  27.007   6.794   4.615
96178W        W57599   0.443  30.645   1.378
96179W        W57600  42.393  10.370   2.883
96180W        W57601  21.164  30.617  13.988
96181W        W57602  31.475  36.038   2.898
96182W        W57603  11.642  27.530   3.174
96183W        W57604  18.138  32.499  12.490
96184W        W57605  23.022  35.016  11.436
96185W        W57606  19.045  40.429  11.468
96186W        W57607   1.907  26.957   3.641
96187W        W57608   1.882  38.952  12.846
96188W        W57609  34.094  20.688  10.603
96189W        W57610  13.263  32.009  12.978
96190W        W57611  13.344  40.353  12.923
96191W        W57612   0.383  12.174  14.406
96192W        W57613  25.041  20.050  13.487
96193W        W57614  15.131   6.343   4.337
96194W        W57615  24.045  34.883  12.540
96195W        W57616  33.995  42.364   2.662
96196W        W57617  21.618   2.819   4.669
96197W        W57618  30.584  27.653   1.313
96198W        W57619  11.781  42.782   1.305
96199W        W57620  26.641  31.901  10.931
96200W        W57621  23.009  29.605   1.447
96201W        W57622   3.371  14.782  11.576
96202W        W57623  32.131  19.117   1.922
96203W        W57624  32.941  17.721   1.707
96204W        W57625  34.478  12.280  12.039
96205W        W57626  13.712  44.986   3.813
96206W        W57627  26.106  43.383  12.973
96207W        W57628  39.530  21.183   2.739
96208W        W57629   5.772  34.928   0.448
96209W        W57630  40.308  13.140   0.822
96210W        W57631  20.527   1.349  12.973
96211W        W57632  16.157  41.842  10.520
96212W        W57633   9.205  35.873   1.401
96213W        W57634  10.153  35.946  12.928
96214W        W57635  29.606  32.907  10.416
96215W        W57636  11.342   8.246  12.950
96216W        W57637  32.101  10.737  11.113
96217W        W57638  19.572   1.478  10.604
96218W        W57639  38.550   8.751   0.276
96219W        W57640  10.307  15.798   5.121
96220W        W57641   2.846  31.495  14.511
96221W        W57642  30.436  35.079  13.005
96222W        W57643  15.256  37.948   3.256
96223W        W57644  38.548   6.404  12.056
96224W        W57645  22.111   3.941   3.239
96225W        W57646  35.907  41.476  13.840
96226W        W57647  43.981  16.127  13.400
96227W        W57648  24.510   5.698   9.542
96228W        W57649   0.868   8.893  11.072
96229W        W57650  17.209  26.958  10.485
96230W        W57651   8.185  32.992  12.020
96231W        W57652   6.262  26.491  11.978
96232W        W57653  28.966  36.996  12.864
96233W        W57654   4.911  16.118  12.983
96234W        W57655  17.181  36.415   1.295
96235W        W57656   2.840   3.257  14.376
96236W        W57657  33.393  10.707  14.978
96237W        W57658   3.355  15.291   2.241
96238W        W57659  40.807  29.584  14.397
96239W        W57660  20.661  25.022  12.524
96240W        W57661  25.987  40.007  11.490
96241W        W57662  11.367  36.906  11.455
96242W        W57663   1.267  13.772   4.760
96243W        W57664  14.700   9.219  12.096
96244W        W57665  41.004   1.393   0.837
96245W        W57666  41.368   6.739  14.441
96246W        W57667   3.241  13.822  11.399
96247W        W57668   7.211  37.902   5.803
96248W        W57669  10.747  32.990   1.871
96249W        W57670  41.356  21.109  14.474
96250W        W57671   2.407  22.556  14.872
96251W        W57672  36.387  23.504   9.920
96252W        W57673  27.555  14.588  14.499
96253W        W57674   1.819   4.286  13.353
96254W        W57675  32.529  12.747  13.920
96255W        W57676   7.839  42.006  11.577
96256W        W57677  24.598  40.446  13.929
96257W        W57678   4.912   5.807   3.630
96258W        W57679  15.204  26.964   0.427
96259W        W57680   4.880   2.843   2.789
96260W        W57681   0.858  32.077  12.005
96261W        W57682  24.018  13.664  13.509
96262W        W57683  27.945  11.717   1.870
96263W        W57684   0.845  32.142   3.800
96264W        W57685  31.140  32.055   0.901
96265W        W57686  39.496  40.840  14.791
96266W        W57687   1.898   5.823  14.007
96267W        W57688  21.182  43.987   1.809
96268W        W57689  17.736  24.011  11.587
96269W        W57690  25.153  35.515  12.995
96270W        W57691  32.445  14.774  13.442
96271W        W57692  27.022  22.642  10.495
96272W        W57693  25.094  12.711   0.268
96273W        W57694  11.198   9.817  14.352
96274W        W57695  25.563  35.854  14.498
96275W        W57696   0.916   0.931  13.851
96276W        W57697  43.295   7.703  14.274
96277W        W57698  30.046  31.465   1.882
96278W        W57699  35.581  17.066  13.885
96279W        W57700  39.472  25.622  13.425
96280W        W57701  44.386  10.792   1.369
96281W        W57702  42.807  24.165  13.411
96282W        W57703   0.375   4.753  12.375
96283W        W57704  29.472  23.221  14.910
96284W        W57705  37.359   3.351  13.917
96285W        W57706  27.682  42.461   1.746
96286W        W57707  28.111   7.758   1.269
96287W        W57708  40.922  23.608   2.768
96288W        W57709  13.617   3.877  11.912
96289W        W57710  37.971  12.670  13.422
96290W        W57711  10.288  15.748  12.833
96291W        W57712  28.078   0.478  12.055
96292W        W57713  35.901  39.005   3.787
96293W        W57714  25.164  19.142  13.950
96294W        W57715  40.859  22.511  11.457
96295W        W57716   3.796  17.147  11.375
96296W        W57717  10.712  37.409   4.161
96297W        W57718  36.488  24.102   0.471
96298W        W57719  40.508  16.707   1.412
96299W        W57720  37.489   0.389   3.748
96300W        W57721  24.202  12.848  14.290
96301W        W57722  27.576  11.317   0.908
96302W        W57723  39.458   9.324   0.369
96303W        W57724  32.900  14.264   4.675
96304W        W57725  38.497   8.854  10.538
96305W        W57726   9.700  27.445   4.615
96306W        W57727   8.177  37.853  12.389
96307W        W57728  25.143   9.272   3.834
96308W        W57729   8.890  32.539   4.633
96309W        W57730  24.978  34.999   1.325
96310W        W57731  40.800  37.539   0.446
96311W        W57732  37.525  26.178  14.468
96312W        W57733  17.071  34.941   0.300
96313W        W57734   7.785  19.638   3.761
96314W        W57735  34.511   8.718   1.772
96315W        W57736   7.804   2.437  14.946
96316W        W57737  10.288  30.945  10.503
96317W        W57738  15.654   7.196   2.826
96318W        W57739   0.259  39.045   0.354
96319W        W57740  19.084  28.648   0.968
96320W        W57741   6.860  14.230   4.728
96321W        W57742   9.850   8.884  14.312
96322W        W57743  44.995  37.547  11.401
96323W        W57744  31.904  20.082   0.846
96324W        W57745  33.907  22.072  12.905
96325W        W57746   3.415  31.005   3.336
96326W        W57747   0.840  26.623   3.252
96327W        W57748  33.611  33.941  13.803
96328W        W57749   8.783   4.258   1.334
96329W        W57750  20.209  33.929  10.511
96330W        W57751   8.209   6.398  14.342
96331W        W57752  21.243  12.240   4.836
96332W        W57753  16.653  31.923   9.934
96333W        W57754  41.534  20.063   3.215
96334W        W57755  38.848  38.539   1.840
96335W        W57756  10.772   5.197  11.491
96336W        W57757  28.063   3.905  13.543
96337W        W57758  16.597  17.276   0.365
96338W        W57759   9.858  34.069   2.869
96339W        W57760  36.882  28.018   3.656
96340W        W57761   4.885   4.336   1.782
96341W        W57762  40.981  44.282   4.146
96342W        W57763  44.784  22.673   1.760
96343W        W57764  10.303  21.191  12.021
96344W        W57765   6.182  20.705  10.624
96345W        W57766  32.585  40.965  13.511
96346W        W57767  39.539   8.184   3.854
96347W        W57768  42.835  22.244  12.486
96348W        W57769  34.604  15.085  12.050
96349W        W57770  32.459   1.309  10.075
96350W        W57771  34.533  41.387   1.767
96351W        W57772  32.553  44.444  10.137
96352W        W57773   9.793  16.640   0.303
96353W        W57774  13.277  43.863   3.353
96354W        W57775   5.326  14.106   3.811
96355W        W57776  23.501  11.178   1.836
96356W        W57777   0.329  22.127  14.285
96357W        W57778   8.699   6.367   4.237
96358W        W57779  43.814  37.453  14.927
96359W        W57780   6.756  41.807   0.835
96360W        W57781   5.705  22.026   0.789
96361W        W57782   3.809  32.955   1.806
96362W        W57783  30.434   1.352   1.934
96363W        W57784   0.328  10.355  13.906
96364W        W57785  19.182  30.059   1.263
96365W        W57786  36.390  39.037  10.482
96366W        W57787   1.850  21.083  10.054
96367W        W57788  31.566  43.296   1.424
96368W        W57789  13.716  12.349   3.306
96369W        W57790   8.784   7.878  11.480
96370W        W57791   5.339  25.511   1.763
96371W        W57792  15.310  27.483  14.948
96372W        W57793  11.173   2.846  11.997
96373W        W57794   1.329  13.334  10.541
96374W        W57795  12.687   6.266   3.258
96375W        W57796  17.690  42.308   2.751
96376W        W57797  17.292  28.523   4.807
96377W        W57798  22.530   9.720   4.223
96378W        W57799  10.691  34.119  12.841
96379W        W57800  43.954  10.284  10.524
96380W        W57801  15.084  27.059   1.868
96381W        W57802   8.845  24.974  12.948
96382W        W57803  40.497   8.322  13.520
96383W        W57804  21.195  37.349   4.745
96384W        W57805  40.361   7.330   4.177
96385W        W57806  36.992  41.298  11.608
96386W        W57807   7.311  36.586   2.793
96387W        W57808  10.879  39.008  12.875
96388W        W57809  29.126  12.287  13.816
96389W        W57810  26.636  13.328  11.886
96390W        W57811  18.105  19.764  14.474
96391W        W57812  11.160  13.771  12.826
96392W        W57813  35.371  13.708  12.896
96393W        W57814  37.874  42.338   4.244
96394W        W57815  24.536  10.183  14.921
96395W        W57816  17.248  28.584  10.630
96396W        W57817   2.900  12.706  12.879
96397W        W57818  37.060  16.761  10.986
96398W        W57819  25.154  42.509  12.896
96399W        W57820  10.820  22.659   1.222
96400W        W57821  31.499  43.338  11.419
96401W        W57822  44.853  14.105  14.988
96402W        W57823  25.684  23.672   1.272
96403W        W57824  16.597  34.540  12.566
96404W        W57825  11.258   1.974  13.018
96405W        W57826   8.731  38.349  11.932
96406W        W57827  42.992  39.871  13.799
96407W        W57828   2.419   5.297   0.357
96408W        W57829  17.706  28.977  12.926
96409W        W57830  18.620  36.950  13.050
96410W        W57831  25.068  40.844   2.272
96411W        W57832  24.989   1.443   2.300
96412W        W57833   3.730  27.606   4.263
96413W        W57834  29.566  27.600   4.174
96414W        W57835  16.183   6.816  10.574
96415W        W57836  11.364  43.477   3.200
96416W        W57837  37.425  31.631  12.846
96417W        W57838  17.226  44.912  13.893
96418W        W57839   4.249  27.531  13.957
96419W        W57840  13.842   3.274  12.501
96420W        W57841  14.226  22.135  11.597
96421W        W57842  18.691   2.280   2.849
96422W        W57843  27.104  33.405  13.414
96423W        W57844  15.225  17.096  10.488
96424W        W57845  25.996  15.790  13.053
96425W        W57846  16.711  40.938  11.127
96426W        W57847   2.878  17.201  11.378
96427W        W57848  22.068  38.856   0.481
96428W        W57849   4.274  44.764   4.781
96429W        W57850   1.777  32.102  12.038
96430W        W57851  38.414  41.901   2.764
96431W        W57852  21.130  29.151   3.305
96432W        W57853  27.128   0.780  14.312
96433W        W57854  22.568  19.608   5.201
96434W        W57855  16.234  22.094   2.893
96435W        W57856  19.239  38.989   4.186
96436W        W57857  38.048  41.996   0.295
96437W        W57858   2.931  39.042   1.324
96438W        W57859  38.392  32.043   2.832
96439W        W57860   9.859  39.835   1.744
96440W        W57861  25.016  36.590  13.874
96441W        W57862   9.170   2.332  12.920
96442W        W57863  26.702  24.202  10.579
96443W        W57864  38.969  20.671  12.977
96444W        W57865  16.635  35.080  12.408
96445W        W57866  15.166   4.359  14.504
96446W        W57867  23.573   9.171  11.025
96447W        W57868   0.847  32.405  14.907
96448W        W57869  38.052  40.039   2.815
96449W        W57870  43.454   6.876  13.532
96450W        W57871  24.990  41.006   1.848
96451W        W57872  18.659  14.170   0.904
96452W        W57873  44.274  43.978  10.007
96453W        W57874  39.808  34.404  12.461
96454W        W57875   6.254  11.666  13.928
96455W        W57876  11.712  44.357  12.470
96456W        W57877  39.812  13.242   1.353
96457W        W57878   2.874  29.945   0.928
96458W        W57879  24.591  27.691  13.538
96459W        W57880  10.161   5.323   2.689
96460W        W57881   4.840  24.540  12.850
96461W        W57882   9.259  20.684   3.692
96462W        W57883  14.803   6.752   4.136
96463W        W57884  25.171   2.261   2.283
96464W        W57885   3.711  23.605  11.491
96465W        W57886  20.131  18.671   5.101
96466W        W57887  34.943  16.282  11.593
96467W        W57888  12.798  40.358   4.756
96468W        W57889  41.370   3.419  10.410
96469W        W57890  34.431  34.468  11.989
96470W        W57891  43.434   7.287   0.890
96471W        W57892  41.854  37.488  13.454
96472W        W57893  12.263  41.035   1.329
96473W        W57894  41.405   5.762   4.828
96474W        W57895  32.942  37.478   0.827
96475W        W57896  34.016   3.247  13.818
96476W        W57897   2.307  26.184  12.391
96477W        W57898  18.771   0.322  10.973
96478W        W57899  12.784  14.699   3.764
96479W        W57900  40.803  24.221   4.745
96480W        W57901  15.237  22.645   4.131
96481W        W57902   8.784  14.271  14.372
96482W        W57903   4.702  32.488  12.488
96483W        W57904   7.193  16.114   0.811
96484W        W57905  37.567  40.334  12.983
96485W        W57906  11.289  37.073  11.051
96486W        W57907  34.598  36.055   2.239
96487W        W57908  43.404  34.076  14.318
96488W        W57909  27.519   5.409  11.083
96489W        W57910   4.371   5.300   3.362
96490W        W57911  42.326  24.100   0.781
96491W        W57912  16.684  27.648  10.977
96492W        W57913   7.357  30.631   3.287
96493W        W57914  34.600  37.924  13.368
96494W        W57915   2.317  26.471   1.306
96495W        W57916  43.386  11.717   2.731
96496W        W57917  31.531  32.435   2.354
96497W        W57918   2.462   5.930   1.449
96498W        W57919  34.570  24.033  13.326
96499W        W57920  17.744   6.210  11.569
96500W        W57921  26.654  26.677   0.380
96501W        W57922  18.736  12.670   0.442
96502W        W57923  19.105  20.045  12.094
96503W        W57924  17.763  30.570  12.561
96504W        W57925  19.562  31.587   1.704
96505W        W57926   9.269  15.613   2.197
96506W        W57927  28.672  42.358   4.328
96507W        W57928  43.895   3.451  12.863
96508W        W57929  33.586  31.493   3.839
96509W        W57930  31.440  31.055  13.807
96510W        W57931  20.197  17.138   4.348
96511W        W57932  14.777  34.470   0.774
96512W        W57933  21.584  12.275  10.900
96513W        W57934  15.127   1.257   2.831
96514W        W57935   7.305   6.829   0.781
96515W        W57936  41.530  29.445  10.505
96516W        W57937  30.604   8.277   4.317
96517W        W57938  40.364  41.360   0.332
96518W        W57939  20.028   4.766   3.753
96519W        W57940  37.414  16.182  12.990
96520W        W57941  21.618  13.670   3.642
96521W        W57942  32.021   0.425  13.528
96522W        W57943   6.243  13.227   1.395
96523W        W57944  21.626  43.007  11.855
96524W        W57945  32.983   7.255  14.342
96525W        W57946   3.719  12.260   0.483
96526W        W57947  32.117   5.417  11.997
96527W        W57948  31.119  22.135   4.644
96528W        W57949  20.130  25.671   1.223
96529W        W57950  40.308  33.110  11.527
96530W        W57951   2.318  13.751   2.853
96531W        W57952  37.540   5.745  14.280
96532W        W57953  26.162   5.240  12.567
96533W        W57954   4.899  30.015  13.377
96534W        W57955   1.961  38.981   1.229
96535W        W57956  12.301  44.293   3.666
96536W        W57957  27.962   8.796  10.050
96537W        W57958   0.795   9.667   4.689
96538W        W57959   1.749  21.626  10.643
96539W        W57960  35.493  30.547  12.954
96540W        W57961  27.528   7.365  13.384
96541W        W57962  21.019  36.481  14.822
96542W        W57963  11.323   8.242  13.409
96543W        W57964  18.101   8.242  11.432
96544W        W57965  34.530  30.980   3.199
96545W        W57966   6.268  10.367   4.726
96546W        W57967  35.448   1.451  10.034
96547W        W57968  26.062  18.605   0.324
96548W        W57969  38.518   4.382   2.398
96549W        W57970  29.566  23.087  13.450
96550W        W57971  39.513  18.062   1.928
96551W        W57972   3.380  35.996  12.836
96552W        W57973   1.385  42.903  13.328
96553W        W57974   5.757  24.086   1.919
96554W        W57975  21.728  26.137  10.929
96555W        W57976  24.143   4.274  11.873
96556W        W57977   9.374  18.161  11.859
96557W        W57978   3.315  13.316   4.614
96558W        W57979  10.700  25.630  14.878
96559W        W57980  17.660  20.648  11.419
96560W        W57981  12.328  23.150   2.317
96561W        W57982   8.189  20.142  12.543
96562W        W57983  18.623  43.778  14.873
96563W        W57984  11.253   4.388  13.041
96564W        W57985   4.759  39.539   2.805
96565W        W57986  11.725  31.423  10.989
96566W        W57987  40.463  20.273  11.932
96567W        W57988  23.567  26.601  13.864
96568W        W57989   5.759  22.726   4.312
96569W        W57990  34.416  35.562  13.930
96570W        W57991  13.277  33.084  13.819
96571W        W57992  37.399  38.896  14.347
96572W        W57993  35.375  26.103  13.374
96573W        W57994  41.358  12.673  13.877
96574W        W57995  43.864   1.368   3.697
96575W        W57996  28.512  28.077   3.174
96576W        W57997  17.664  43.861  14.912
96577W        W57998  44.462  26.151  14.936
96578W        W57999  14.115   7.716  11.555
96579W        W58000  30.541  20.530   1.745
96580W        W58001  34.867   6.704   0.754
96581W        W58002  33.887   5.277   1.843
96582W        W58003  32.975  33.428  12.501
96583W        W58004  36.522   5.771   1.817
96584W        W58005   1.475  22.575  14.466
96585W        W58006  42.805  10.362  12.512
96586W        W58007  10.725   6.766   4.143
96587W        W58008   1.325   5.219  14.864
96588W        W58009  39.995   2.911  13.471
96589W        W58010  36.879   1.827   9.542
96590W        W58011  26.565  43.409   0.797
96591W        W58012  14.714  27.667  13.912
96592W        W58013  41.320  43.379  14.771
96593W        W58014  21.672  22.565  14.306
96594W        W58015  13.134  36.481  11.933
96595W        W58016  23.604  24.511  14.423
96596W        W58017  33.006   1.262   0.363
96597W        W58018  30.056   4.212  13.545
96598W        W58019  21.652   3.290  12.066
96599W        W58020  20.619   1.418  12.430
96600W        W58021   3.914  14.735  11.101
96601W        W58022   7.235  37.364  11.096
96602W        W58023   7.855  24.600   0.903
96603W        W58024  29.635  29.158   1.406
96604W        W58025  16.089  35.013  12.067
96605W        W58026  28.480   0.494   0.294
96606W        W58027  18.679  43.948  11.121
96607W        W58028  33.613  40.978  12.513
96608W        W58029  13.193  40.043   2.384
96609W        W58030  16.749  26.142  11.607
96610W        W58031  39.001   7.740   4.173
96611W        W58032  28.607   1.880  14.349
96612W        W58033   8.276  27.563   3.756
96613W        W58034   6.679   2.463  10.469
96614W        W58035  20.079  30.998  13.021
96615W        W58036   4.439  23.213  13.013
96616W        W58037  20.639  12.277  14.394
96617W        W58038  22.519  14.339   0.955
96618W        W58039  26.090  24.590   0.364
96619W        W58040  17.100  13.788  14.515
96620W        W58041  31.960  33.994  13.423
96621W        W58042  41.304  28.187   3.865
96622W        W58043   3.909   0.864  10.050
96623W        W58044  22.719  36.012  12.859
96624W        W58045  11.207  33.077   3.704
96625W        W58046  23.653  40.511  12.978
96626W        W58047   8.783  28.943  12.449
96627W        W58048  28.039  13.345  10.484
96628W        W58049  30.000  11.838  14.986
96629W        W58050  28.497   2.962   0.253
96630W        W58051  15.588  22.580  12.492
96631W        W58052   5.315  40.324  12.090
96632W        W58053  42.484   8.657   2.683
96633W        W58054  11.264  34.481   1.778
96634W        W58055  11.292   8.840   1.818
96635W        W58056  42.468   0.327  13.405
96636W        W58057  44.767  22.608  13.534
96637W        W58058   9.886  32.010  14.490
96638W        W58059  31.579   5.337   1.236
96639W        W58060  25.601   7.777   4.347
96640W        W58061  44.427  20.119  13.443
96641W        W58062  41.845  25.642  10.473
96642W        W58063  39.373  19.734   4.597
96643W        W58064   3.926  13.795  13.432
96644W        W58065  38.958  10.329  10.998
96645W        W58066  23.672   7.826   9.962
96646W        W58067  31.931  32.128   4.615
96647W        W58068   2.863  23.194   4.761
96648W        W58069   3.410  33.876  12.468
96649W        W58070  37.508  33.899  10.554
96650W        W58071  38.425   3.869  12.524
96651W        W58072  19.723   4.376  13.942
96652W        W58073   2.364  34.975   2.784
96653W        W58074   8.241  27.972  10.907
96654W        W58075  29.929  30.622   3.232
96655W        W58076  27.487  18.148  14.990
96656W        W58077  31.459   0.840   4.597
96657W        W58078  36.509  13.823  11.020
96658W        W58079  21.533   2.746   0.311
96659W        W58080   6.770   0.265  12.527
96660W        W58081  39.484  21.184  11.940
96661W        W58082   8.305  19.574   5.152
96662W        W58083  21.534  16.649  13.889
96663W        W58084   4.928  12.180   2.666
96664W        W58085  34.596  24.498  14.865
96665W        W58086  37.978  22.130  14.458
96666W        W58087  37.884  12.259   1.805
96667W        W58088   4.433  34.448   0.853
96668W        W58089  16.077   8.766   2.878
96669W        W58090  40.447  41.324  13.053
96670W        W58091  17.174   5.362   3.859
96671W        W58092  22.212   0.328  12.360
96672W        W58093  34.082  29.005  11.986
96673W        W58094  32.981   4.827  11.552
96674W        W58095  28.611  14.821  13.332
96675W        W58096  18.669  36.557   0.414
96676W        W58097  27.003  40.054   3.667
96677W        W58098   3.272  31.125   5.261
96678W        W58099  21.224  13.249  12.936
96679W        W58100  40.378   3.934   2.854
96680W        W58101   2.857  41.882   4.632
96681W        W58102  31.540  27.570   1.745
96682W        W58103  26.600  15.270   0.316
96683W        W58104  30.458  44.397   1.426
96684W        W58105  26.618   3.232   1.364
96685W        W58106  26.036  23.004   2.862
96686W        W58107  42.484  10.194  14.773
96687W        W58108  44.354  14.159   1.213
96688W        W58109   3.844  28.471   0.451
96689W        W58110  43.775  16.789   0.332
96690W        W58111  10.359  26.107   1.419
96691W        W58112   4.721  21.619   4.675
96692W        W58113  33.120  29.922  12.499
96693W        W58114  12.694  37.950  11.892
96694W        W58115  14.207   3.854  11.960
96695W        W58116  35.979  14.184   3.869
96696W        W58117  25.590  11.283   0.810
96697W        W58118  33.491   3.369   0.380
96698W        W58119  40.340  14.831   5.669
96699W        W58120   4.849  30.951   4.820
96700W        W58121  21.726   7.895  14.814
96701W        W58122  16.085  32.503   1.879
96702W        W58123   6.822  42.429  13.388
96703W        W58124  14.633  43.412   0.411
96704W        W58125  31.610  34.087   3.778
96705W        W58126   8.859  13.289   4.720
96706W        W58127  41.875  24.036   4.253
96707W        W58128  13.298  33.569   4.676
96708W        W58129  19.699  27.581  11.600
96709W        W58130  38.366  24.678  13.820
96710W        W58131  37.872  40.344  12.439
96711W        W58132  36.091   2.379  11.956
96712W        W58133  36.091   5.817  10.551
96713W        W58134  23.128  20.588  12.979
96714W        W58135  33.131  35.976  14.886
96715W        W58136  14.591  33.502   0.936
96716W        W58137  10.852  30.612   1.747
96717W        W58138  37.079  25.198  12.928
96718W        W58139   9.761  12.674  13.446
96719W        W58140  25.471  41.378   4.672
96720W        W58141  39.052  16.227  10.931
96721W        W58142   6.825   1.475  10.953
96722W        W58143  16.623  11.329  14.990
96723W        W58144  26.689  11.341  13.844
96724W        W58145  34.429   4.427  14.802
96725W        W58146   9.247  15.114   3.704
96726W        W58147   6.374   3.268   3.268
96727W        W58148  19.582  44.422   1.235
96728W        W58149  28.137  44.266  11.460
96729W        W58150   7.285  24.496  14.429
96730W        W58151  39.995  30.015  10.888
96731W        W58152   5.928  31.059  14.386
96732W        W58153   9.295   7.255  12.872
96733W        W58154  27.466  11.806   4.318
96734W        W58155  26.120  31.550  13.012
96735W        W58156   2.864  21.719   2.807
96736W        W58157  31.940  35.400  11.490
96737W        W58158  22.554  29.512   3.632
96738W        W58159  12.193   7.744  11.886
96739W        W58160  18.592  20.070  14.972
96740W        W58161   4.342   8.834  14.502
96741W        W58162  39.348  33.566  12.459
96742W        W58163  19.262   7.718   4.812
96743W        W58164  11.776  31.429   1.872
96744W        W58165  41.512  12.640   0.253
96745W        W58166   7.670  32.948  14.508
96746W        W58167  42.384  31.128  11.484
96747W        W58168  38.552  33.626   3.247
96748W        W58169  11.730  42.981   2.261
96749W        W58170  11.645  22.208  12.372
96750W        W58171  31.498  19.114  12.938
96751W        W58172  35.938   7.171  13.840
96752W        W58173  31.446  37.393   1.815
96753W        W58174  42.374  17.567  14.923
96754W        W58175  19.099  37.027   1.226
96755W        W58176  13.628  32.463  11.472
96756W        W58177   9.880   6.751  10.598
96757W        W58178  10.798  42.524   0.374
96758W        W58179  11.174  36.390  12.371
96759W        W58180   3.292  27.608   3.360
96760W        W58181   7.891   6.428  12.415
96761W        W58182  13.123  32.532  11.054
96762W        W58183  35.438  13.339   1.323
96763W        W58184  43.918  43.498   2.805
96764W        W58185  18.627  24.623   1.341
96765W        W58186  37.844   5.395   1.861
96766W        W58187  16.737  44.485   1.746
96767W        W58188  30.967   9.713   2.355
96768W        W58189   8.207  25.111   4.738
96769W        W58190  30.949   7.749   3.807
96770W        W58191   3.270   0.328  14.030
96771W        W58192   7.738  34.912   0.872
96772W        W58193  29.097  43.353   2.274
96773W        W58194  34.892  18.195  13.800
96774W        W58195  42.896   1.426  11.979
96775W        W58196  40.005  38.392  14.004
96776W        W58197  18.051  29.066  12.560
96777W        W58198  34.885  21.258   1.413
96778W        W58199  15.650  29.652   5.133
96779W        W58200  23.230  15.751   3.703
96780W        W58201  37.505  10.829  12.552
96781W        W58202  27.572   7.180  12.839
96782W        W58203  11.246  16.664   4.760
96783W        W58204  26.586  27.045  13.004
96784W        W58205  39.376  44.412  13.486
96785W        W58206  38.994  23.152  14.961
96786W        W58207   0.772  18.159   0.928
96787W        W58208   1.926   7.233   4.145
96788W        W58209   6.212  22.701  10.513
96789W        W58210  43.362  30.646   1.260
96790W        W58211  19.573  16.205   1.282
96791W        W58212   5.405  38.500   3.778
96792W        W58213  24.146  36.953  14.276
96793W        W58214  19.242  35.913  10.537
96794W        W58215   9.806  24.621  14.373
96795W        W58216   0.320  33.124  12.879
96796W        W58217   1.931  37.495  12.005
96797W        W58218  30.604  34.048  13.451
96798W        W58219  42.904  39.953  11.376
96799W        W58220  28.057   9.238  13.804
96800W        W58221  20.118  29.933  13.337
96801W        W58222  36.098   8.332   3.316
96802W        W58223  37.460  23.562   1.928
96803W        W58224  35.014  43.000  13.007
96804W        W58225  24.222  26.593  10.488
96805W        W58226  44.950  16.583  14.893
96806W        W58227  22.548  35.494   3.303
96807W        W58228  32.032  15.212  14.377
96808W        W58229   3.314   9.385  12.996
96809W        W58230  10.641  16.619  12.481
96810W        W58231  30.955  44.362   4.793
96811W        W58232  44.877   9.185   2.364
96812W        W58233   5.362   9.850  11.096
96813W        W58234  26.086   1.956  11.538
96814W        W58235  13.340  10.163  10.545
96815W        W58236  19.689  30.599   5.189
96816W        W58237  26.665   0.416   4.261
96817W        W58238   2.304   2.922  12.013
96818W        W58239  16.119  24.223   1.393
96819W        W58240  37.067  44.316   2.262
96820W        W58241  25.120  32.556  11.885
96821W        W58242  33.025   3.904   4.669
96822W        W58243  27.073  20.062  12.445
96823W        W58244  23.218  12.663  12.364
96824W        W58245  16.731  38.554   1.421
96825W        W58246   1.348  30.591  12.503
96826W        W58247  27.096  37.463  11.591
96827W        W58248  42.987  29.078  11.059
96828W        W58249  16.278  19.202  11.610
96829W        W58250  41.439  34.465   4.160
96830W        W58251   1.243   0.313   1.229
96831W        W58252  31.497  30.524  10.904
96832W        W58253   4.253  35.915  10.638
96833W        W58254   1.288  14.129  12.897
96834W        W58255  44.864  33.410  11.878
96835W        W58256  43.009   4.875  13.819
96836W        W58257  39.818  31.428   0.303
96837W        W58258  11.794  33.579  14.474
96838W        W58259  12.753  36.363   3.257
96839W        W58260  30.448  19.732  14.978
96840W        W58261  35.944  32.081   3.265
96841W        W58262   0.380  28.936  13.334
96842W        W58263  22.070  21.185  13.980
96843W        W58264  24.609  21.188   3.197
96844W        W58265  35.568  39.348   0.843
96845W        W58266  41.921  20.174  14.285
96846W        W58267  35.890  18.772  14.369
96847W        W58268   5.795   1.782  11.035
96848W        W58269  37.934   0.490   2.411
96849W        W58270  39.958  36.546  14.292
96850W        W58271  15.704   5.202  13.441
96851W        W58272  38.486  42.919   0.364
96852W        W58273  19.704  34.575  13.317
96853W        W58274  10.761  35.504  14.501
96854W        W58275  29.552  23.639  14.996
96855W        W58276  24.210  44.306  10.992
96856W        W58277  40.043  10.824  12.998
96857W        W58278   4.706  23.071  10.006
96858W        W58279   0.383  41.378  10.966
96859W        W58280  32.975  39.363   1.842
96860W        W58281  43.347  20.541   4.200
96861W        W58282   6.751  17.630   3.678
96862W        W58283   1.878   1.429   4.256
96863W        W58284  12.168  12.787   2.365
96864W        W58285  26.045  10.698   0.783
96865W        W58286  11.141  34.587  12.556
96866W        W58287  13.691  38.058   0.313
96867W        W58288  24.208  18.109   4.135
96868W        W58289  40.986  23.029   0.955
96869W        W58290   3.219  36.432  11.954
96870W        W58291  36.489  17.756  13.434
96871W        W58292   0.360  18.203  11.433
96872W        W58293  27.529  32.090   4.115
96873W        W58294  37.909  12.756  11.038
96874W        W58295   1.454  28.142   9.470
96875W        W58296  15.824  39.462   2.417
96876W        W58297  18.726  42.458   2.367
96877W        W58298  28.563  30.579   4.160
96878W        W58299  34.527  15.748   3.298
96879W        W58300  25.963  15.587  14.463
96880W        W58301  44.424  38.901   5.288
96881W        W58302  28.616  32.570   0.273
96882W        W58303  38.956   0.347   1.316
96883W        W58304   9.690  18.062   2.396
96884W        W58305  36.382  18.108   1.436
96885W        W58306  26.117  30.571   4.598
96886W        W58307  41.891  37.998   4.737
96887W        W58308  16.581  36.071  13.793
96888W        W58309  29.929  14.237  13.003
96889W        W58310   7.254  43.429  11.550
96890W        W58311  19.567   0.985  12.994
96891W        W58312   4.336  32.109  13.389
96892W        W58313   1.961  14.116   3.779
96893W        W58314  16.621  41.941  11.085
96894W        W58315  33.520   2.419   2.684
96895W        W58316   5.749   2.427   9.481
96896W        W58317  32.142  44.777  12.453
96897W        W58318   3.283  35.048  11.931
96898W        W58319  42.479  12.659   4.644
96899W        W58320  35.393  19.592  11.506
96900W        W58321  35.448  34.043  14.997
96901W        W58322   0.920   0.435   2.406
96902W        W58323  34.995  42.448  12.516
96903W        W58324  10.160  11.674   0.875
96904W        W58325  11.654  30.474   1.867
96905W        W58326   3.372  17.759  13.861
96906W        W58327  12.680   8.225  11.387
96907W        W58328   2.866   9.852   1.774
96908W        W58329  32.905  14.813  12.880
96909W        W58330   6.190   1.475  12.512
96910W        W58331   4.337   3.396  12.464
96911W        W58332  38.858   0.863   5.295
96912W        W58333  39.450  42.859   1.857
96913W        W58334  11.138  44.864   1.787
96914W        W58335  31.593  40.309  10.986
96915W        W58336  11.836  13.262   0.251
96916W        W58337  15.763  30.475   2.793
96917W        W58338  11.663  42.958   1.757
96918W        W58339  14.281  37.929  12.481
96919W        W58340  22.095  44.858  10.632
96920W        W58341  17.159  21.620  13.872
96921W        W58342   7.827  37.909   9.489
96922W        W58343  38.325  19.212   3.665
96923W        W58344   4.734  13.141   2.212
96924W        W58345  13.698  39.383  12.411
96925W        W58346  18.751  14.830   2.268
96926W        W58347  11.727  31.430  11.383
96927W        W58348   4.802  38.442   2.835
96928W        W58349  26.058   3.839   0.828
96929W        W58350   4.700  42.995  12.502
96930W        W58351  20.219  13.293  11.120
96931W        W58352  38.995  15.634   2.295
96932W        W58353  34.071  24.500  14.293
96933W        W58354  38.012  16.147  11.450
96934W        W58355  28.565  23.585  11.374
96935W        W58356   0.342  38.456  14.760
96936W        W58357   3.374   5.362  13.857
96937W        W58358  14.711  36.487   3.711
96938W        W58359   5.768   5.207  13.406
96939W        W58360   6.298  35.512   0.307
96940W        W58361  33.949  32.504  11.969
96941W        W58362   0.837  23.719   0.243
96942W        W58363  22.640  24.204  13.981
96943W        W58364  38.897  33.470   3.794
96944W        W58365  41.314  42.340   3.682
96945W        W58366   3.423  44.820  13.034
96946W        W58367  38.019   4.213   3.837
96947W        W58368  12.667  43.319  14.010
96948W        W58369   4.856  16.574  13.929
96949W        W58370  43.985  32.429   0.869
96950W        W58371   8.316   7.306   4.230
96951W        W58372   9.200  41.015  10.562
96952W        W58373  23.141  41.889  11.400
96953W        W58374  42.889  12.166   1.761
96954W        W58375  35.007  11.641   3.299
96955W        W58376   9.822  27.018  14.362
96956W        W58377  25.135  22.229  10.155
96957W        W58378  27.021   5.406   2.800
96958W        W58379  35.912  39.392  12.580
96959W        W58380  39.865   6.767  11.082
96960W        W58381  42.509  14.610  11.868
96961W        W58382  43.973  39.003  10.616
96962W        W58383   5.760  18.068   1.304
96963W        W58384  34.877  18.598  13.063
96964W        W58385  20.267  37.979  11.574
96965W        W58386   2.891  25.499   3.323
96966W        W58387   6.719  10.697  13.876
96967W        W58388  14.597  18.244   0.287
96968W        W58389  23.648  18.556   3.788
96969W        W58390  17.690  41.299   4.646
96970W        W58391  44.292  38.054  12.465
96971W        W58392   3.373  43.330   3.308
96972W        W58393  31.613  18.282  11.969
96973W        W58394   7.247  10.633  14.018
96974W        W58395  25.532  10.859  14.774
96975W        W58396   6.810  10.807  12.371
96976W        W58397   2.396  24.633   4.714
96977W        W58398  21.026   2.253  10.589
96978W        W58399  26.539  18.067  11.496
96979W        W58400   7.714  16.760  10.989
96980W        W58401   0.844   1.815   1.864
96981W        W58402  12.701  22.070  12.011
96982W        W58403  43.446  25.526   2.894
96983W        W58404  23.149  15.328   0.852
96984W        W58405  11.210  32.422   4.218
96985W        W58406  12.219  16.574  10.995
96986W        W58407  37.545  18.593   3.825
96987W        W58408   3.724   7.832  14.786
96988W        W58409  38.330  34.928   2.371
96989W        W58410   4.361  13.149  14.945
96990W        W58411  43.928  13.795   0.947
96991W        W58412  28.536   8.688   4.348
96992W        W58413  41.364  18.123  12.006
96993W        W58414  36.589  29.498   2.704
96994W        W58415  11.745  34.865  11.061
96995W        W58416  10.756   3.272  12.356
96996W        W58417  43.812  37.839  10.458
96997W        W58418  17.673  34.508  12.992
96998W        W58419  43.361  39.861   3.183
96999W        W58420   6.373  19.257   3.832
97000W        W58421  43.488  18.122   3.311
97001W        W58422  35.992  24.678   4.766
97002W        W58423  28.479  29.490  13.018
97003W        W58424  22.730   7.817   0.871
97004W        W58425  15.719  17.783  13.543
97005W        W58426  33.949   9.167  14.987
97006W        W58427  19.140  37.455   4.269
97007W        W58428  31.538  28.585  11.053
97008W        W58429  23.147  19.702  12.483
97009W        W58430   9.303  38.007   4.788
97010W        W58431   5.220  26.506   1.717
97011W        W58432   0.396  33.090   1.438
97012W        W58433  11.861  42.871  13.462
97013W        W58434  19.653  29.953   1.873
97014W        W58435  42.802  22.184  11.497
97015W        W58436  42.793   5.206  13.376
97016W        W58437  40.946   7.290  13.832
97017W        W58438  39.416  35.584   4.743
97018W        W58439  20.570   2.373   0.872
97019W        W58440  32.615  28.125  12.536
97020W        W58441   7.684  40.338  14.304
97021W        W58442  14.216  13.788   3.184
97022W        W58443  12.770   7.385   3.694
97023W        W58444   5.221  11.809   4.804
97024W        W58445  25.642   4.253   2.718
97025W        W58446  27.565  30.978  13.379
97026W        W58447  30.491  27.609   4.263
97027W        W58448   9.803  39.972   1.382
97028W        W58449  34.910  35.503   4.750
97029W        W58450  36.950  12.177  11.911
97030W        W58451  41.008  24.612   2.245
97031W        W58452  34.935  13.683  10.567
97032W        W58453  20.186  25.513   2.748
97033W        W58454  35.928  32.529   4.680
97034W        W58455  27.943  10.217  13.535
97035W        W58456  19.074  13.282   0.303
97036W        W58457  39.462  41.356   2.356
97037W        W58458  38.485  25.095  13.838
97038W        W58459  19.537  22.204  12.520
97039W        W58460  13.247  41.918   0.360
97040W        W58461   9.394   6.756   4.202
97041W        W58462  36.870  23.490   4.834
97042W        W58463  14.720  30.572  14.383
97043W        W58464   0.745   1.792   2.749
97044W        W58465  32.491  38.977   1.351
97045W        W58466  19.587  22.113   2.302
97046W        W58467   0.301  43.281   3.367
97047W        W58468  32.526  31.558  13.505
97048W        W58469  25.587  44.428  13.373
97049W        W58470  22.673  36.891  14.364
97050W        W58471   3.423  18.150  11.858
97051W        W58472  15.772   3.737   2.290
97052W        W58473  15.125  33.951  10.605
97053W        W58474  31.911   7.227  14.314
97054W        W58475  17.143  43.328   4.648
97055W        W58476  40.502  38.409  14.454
97056W        W58477  17.124  15.299  13.798
97057W        W58478  24.593  42.001  14.818
97058W        W58479  20.646  13.835   1.700
97059W        W58480  25.207  34.540   1.294
97060W        W58481  10.318  27.978  11.107
97061W        W58482   2.917  33.585   0.248
97062W        W58483  33.404  25.104   4.333
97063W        W58484   3.815   3.244   3.812
97064W        W58485  23.167  33.942   1.247
97065W        W58486  32.557  12.735   2.785
97066W        W58487  42.524  19.748   1.739
97067W        W58488  19.104  43.385   4.195
97068W        W58489  33.528   3.422   0.749
97069W        W58490   4.771  35.026   0.280
97070W        W58491  39.819  13.169  13.000
97071W        W58492  34.482   7.325  11.958
97072W        W58493   0.763  40.024  11.989
97073W        W58494  25.058  43.988   2.876
97074W        W58495  13.724  22.512   0.927
97075W        W58496   4.743  13.196   0.418
97076W        W58497  16.150  42.789  14.914
97077W        W58498  14.821   5.253   2.334
97078W        W58499   8.860  40.806  12.087
97079W        W58500  16.300  12.242   3.330
97080W        W58501  41.333  16.686   1.725
97081W        W58502  22.128  17.781   4.167
97082W        W58503  34.104   7.386  14.803
97083W        W58504  10.253   2.414  12.873
97084W        W58505  15.143   1.762   4.137
97085W        W58506   2.790  24.045   2.199
97086W        W58507   7.900  14.158  12.057
97087W        W58508  33.448  27.498  13.314
97088W        W58509   8.687  11.361  13.820
97089W        W58510   8.321  19.229   2.756
97090W        W58511  33.564   5.714  11.582
97091W        W58512  37.045  16.662   0.406
97092W        W58513   1.773  37.343   2.299
97093W        W58514  18.546  21.592  14.786
97094W        W58515  24.195  31.474   4.802
97095W        W58516  27.154   5.278  13.948
97096W        W58517  28.083  21.703  10.436
97097W        W58518  15.680  37.487   9.951
97098W        W58519  35.569  28.590  12.579
97099W        W58520  21.243  16.238   3.790
97100W        W58521  14.261   1.335   4.802
97101W        W58522   2.755   8.696   2.220
97102W        W58523  42.792  18.617   3.305
97103W        W58524  15.804  17.135   1.765
97104W        W58525  28.171  38.928  13.882
97105W        W58526  11.358  20.199   3.822
97106W        W58527   7.888   6.894  14.292
97107W        W58528  42.828  27.634  13.837
97108W        W58529  31.437  31.562  12.555
97109W        W58530  21.624  26.099  10.523
97110W        W58531  18.572  29.975  11.032
97111W        W58532  31.950  24.550   2.180
97112W        W58533  33.969   4.703  12.422
97113W        W58534  21.164  32.922   3.261
97114W        W58535  25.080  30.452   4.354
97115W        W58536  13.190  23.074  14.429
97116W        W58537  23.716  42.942   4.331
97117W        W58538  14.725  34.491  11.088
97118W        W58539   4.245   7.245   1.777
97119W        W58540  35.030  10.333  10.546
97120W        W58541  33.524  26.457   3.234
97121W        W58542   7.180  25.611   4.165
97122W        W58543   1.859  10.192  12.396
97123W        W58544  35.980  26.458  14.500
97124W        W58545  36.855  22.643   4.797
97125W        W58546   7.237   3.898   3.800
97126W        W58547  18.644  10.322   0.370
97127W        W58548  17.115   0.793  13.002
97128W        W58549  18.201   0.349   2.229
97129W        W58550  14.599  37.981   0.355
97130W        W58551  26.483  32.141   0.357
97131W        W58552   4.331  18.180   2.329
97132W        W58553  14.323  44.869  13.352
97133W        W58554  39.971   6.279   1.703
97134W        W58555  35.449   2.366  14.442
97135W        W58556  33.416  10.317   1.817
97136W        W58557  32.937  24.181  10.517
97137W        W58558  30.923  32.486   0.895
97138W        W58559  41.294   0.274   2.402
97139W        W58560  40.957  19.247  13.382
97140W        W58561  10.874   7.181  12.579
97141W        W58562   9.703  15.295   2.866
97142W        W58563   9.184  29.127  12.008
97143W        W58564  20.164  13.207   3.149
97144W        W58565   0.266  41.976  11.973
97145W        W58566  22.703  42.875  10.063
97146W        W58567  33.084  16.155  10.985
97147W        W58568  10.154  30.163  14.847
97148W        W58569  10.293  33.025  13.891
97149W        W58570  22.146  25.180  10.526
97150W        W58571  30.534  39.880  13.874
97151W        W58572  34.563  44.787   4.677
97152W        W58573  30.033  11.774  13.320
97153W        W58574   6.756  24.492   3.263
97154W        W58575  19.093  21.168   2.354
97155W        W58576   1.351  16.785  13.498
97156W        W58577  10.157   8.352   4.662
97157W        W58578   2.339   1.474  14.368
97158W        W58579  11.816  44.341  11.042
97159W        W58580  42.471  30.642   3.805
97160W        W58581  10.644  33.923   3.733
97161W        W58582   6.317  23.550  11.932
97162W        W58583  13.227  10.156   3.844
97163W        W58584   2.357  44.496   0.333
97164W        W58585  41.948  10.213  10.895
97165W        W58586  32.534  10.863  14.821
97166W        W58587   2.795  35.852  14.500
97167W        W58588  44.297  31.044   1.399
97168W        W58589  10.211  40.489  14.369
97169W        W58590  40.936  28.555   0.297
97170W        W58591  37.082  26.974  11.120
97171W        W58592   4.810  22.204   2.850
97172W        W58593  14.095   8.199   4.625
97173W        W58594  26.987   1.462   3.240
97174W        W58595  11.244  32.401   0.341
97175W        W58596  36.977  35.913   2.782
97176W        W58597   0.958  20.550  10.928
97177W        W58598  36.387   6.284  11.949
97178W        W58599  41.911  30.475  10.942
97179W        W58600  37.959  18.121   5.286
97180W        W58601  31.500  38.565  12.403
97181W        W58602  17.194  44.846  10.995
97182W        W58603  20.071  29.441  14.765
97183W        W58604  34.463  14.201  10.403
97184W        W58605   9.295  30.132  13.833
97185W        W58606   7.318  22.638   3.381
97186W        W58607   9.294   5.804  10.920
97187W        W58608  15.241   5.762   1.254
97188W        W58609  34.924  10.250   3.352
97189W        W58610   1.889  22.549   0.269
97190W        W58611  26.475  39.545   3.710
97191W        W58612  19.699  35.040  10.941
97192W        W58613   6.315  18.629  13.961
97193W        W58614  16.225   3.862   0.901
97194W        W58615  32.625  32.914  14.882
97195W        W58616  41.385  12.779   1.914
97196W        W58617   9.195  17.764   4.610
97197W        W58618   0.263  38.982   2.731
97198W        W58619  38.840  18.053  14.395
97199W        W58620  42.431  10.298   3.231
97200W        W58621  33.580  10.784   0.300
97201W        W58622  38.037  36.423   3.276
97202W        W58623  34.896  41.992   3.365
97203W        W58624   5.415  29.074  11.491
97204W        W58625  44.910  20.598   0.820
97205W        W58626  19.749  12.756  10.094
97206W        W58627  19.178  15.762  13.547
97207W        W58628  23.048   5.896   3.269
97208W        W58629  20.546  32.500  11.590
97209W        W58630   3.876  35.596  11.998
97210W        W58631  10.214  30.091  11.458
97211W        W58632  20.037  34.440  13.524
97212W        W58633  35.465   1.954  13.453
97213W        W58634   9.160  36.061   2.225
97214W        W58635  29.060  13.313  12.580
97215W        W58636  31.021  11.686  10.622
97216W        W58637  32.134   7.327  10.065
97217W        W58638   0.297  11.831  10.406
97218W        W58639  13.195  39.894  11.947
97219W        W58640  27.639  38.942  12.903
97220W        W58641  32.593  34.868   1.362
97221W        W58642  38.439  26.110   0.292
97222W        W58643   2.427  13.343  14.302
97223W        W58644  34.557  27.641   2.307
97224W        W58645   5.213  31.093   3.152
97225W        W58646  39.998  27.031   1.814
97226W        W58647   1.949  14.217  12.906
97227W        W58648  30.988  26.672  10.514
97228W        W58649  37.387   4.704   0.424
97229W        W58650  40.020  10.361   1.738
97230W        W58651  29.465  42.455  11.587
97231W        W58652   8.737   1.337   3.322
97232W        W58653  13.721  23.121   3.270
97233W        W58654  44.812   8.167  11.911
97234W        W58655  21.544  36.519  14.795
97235W        W58656  40.424  12.841   3.202
97236W        W58657  34.073  11.688  14.863
97237W        W58658  44.418  44.882   3.187
97238W        W58659  30.025  19.548   4.691
97239W        W58660   4.320  25.151   1.332
97240W        W58661   5.793  43.937  11.587
97241W        W58662  37.410  19.193  11.390
97242W        W58663  20.202   5.922   3.229
97243W        W58664  11.252  22.240  12.345
97244W        W58665  20.039  24.510   0.868
97245W        W58666   5.881  40.334  14.370
97246W        W58667  10.375  21.161   3.157
97247W        W58668  31.556  33.550  11.910
97248W        W58669  13.324  39.900   4.636
97249W        W58670   9.242  31.414  12.572
97250W        W58671  16.600  22.013  12.492
97251W        W58672   9.800   1.826  11.411
97252W        W58673  28.532  25.177  13.060
97253W        W58674  19.196  15.247   2.730
97254W        W58675  26.964  39.972   1.281
97255W        W58676  15.701  20.644  11.483
97256W        W58677  16.713   0.982   3.670
97257W        W58678  44.798   1.429  11.528
97258W        W58679   0.783  12.708  10.140
97259W        W58680  26.145   7.280   0.791
97260W        W58681  44.896  42.987   4.783
97261W        W58682  21.020  24.688  13.873
97262W        W58683  26.083  14.765   3.721
97263W        W58684  12.716  39.478   3.667
97264W        W58685  44.472  31.942   2.270
97265W        W58686  10.774   9.802   4.761
97266W        W58687  42.898  24.479  11.858
97267W        W58688  39.002   8.874  12.501
97268W        W58689  42.936  30.035   3.721
97269W        W58690   5.345  29.099  14.797
97270W        W58691  21.756  34.475  14.860
97271W        W58692  33.551   6.367   2.819
97272W        W58693  19.105   9.847   1.873
97273W        W58694  20.078  17.599   2.808
97274W        W58695   5.757   6.812  12.435
97275W        W58696  17.652  15.299  13.950
97276W        W58697   3.849  14.316  11.526
97277W        W58698   8.223  32.046  13.912
97278W        W58699   1.344  23.038  11.455
97279W        W58700   2.431  12.264   0.273
97280W        W58701   2.957  26.650   1.398
97281W        W58702  27.501  32.016   4.734
97282W        W58703  41.463  39.926  14.350
97283W        W58704  42.956  30.988   5.098
97284W        W58705   7.405  19.741   1.849
97285W        W58706   2.316  39.338   0.245
97286W        W58707  31.434   1.884   3.291
97287W        W58708  23.028  36.069   2.669
97288W        W58709   1.902  28.573   2.766
97289W        W58710  15.770   6.293  11.994
97290W        W58711  35.528  30.449  13.431
97291W        W58712   4.395   2.948   2.712
97292W        W58713  33.581  20.541   1.805
97293W        W58714  10.383  18.672  12.927
97294W        W58715  16.105  40.999   4.653
97295W        W58716   5.416   4.767  14.820
97296W        W58717  24.214  12.173  12.365
97297W        W58718  21.088   2.747  12.519
97298W        W58719  11.217   4.410   3.858
97299W        W58720  43.488   9.708  10.951
97300W        W58721   2.369  32.584  11.407
97301W        W58722  19.104   9.867  11.871
97302W        W58723   2.336  42.862   1.775
97303W        W58724   7.172  41.804  11.876
97304W        W58725  21.527  24.002  10.575
97305W        W58726  31.473  43.424   4.679
97306W        W58727  35.097   4.444  14.976
97307W        W58728  31.107   2.754  14.343
97308W        W58729  24.984  22.608  14.788
97309W        W58730  38.532  11.850  12.976
97310W        W58731  26.148  10.866  10.480
97311W        W58732  31.047  12.619  12.088
97312W        W58733  31.036  44.857  13.463
97313W        W58734  34.026  22.665   3.862
97314W        W58735   8.864  10.311   3.746
97315W        W58736  37.068  11.155  12.945
97316W        W58737  32.532   4.857   2.399
97317W        W58738  40.520  34.880   0.325
97318W        W58739  32.033  36.517   0.356
97319W        W58740  23.063  15.151  14.455
97320W        W58741   7.399  34.382  13.418
97321W        W58742  32.434  31.064   4.702
97322W        W58743   1.822  15.709   1.335
97323W        W58744  15.148  16.312   1.696
97324W        W58745  39.356  27.633   0.800
97325W        W58746   3.907  12.663   4.188
97326W        W58747   1.765  20.753   4.280
97327W        W58748  37.865  34.119   0.266
97328W        W58749  37.534  42.787   0.272
97329W        W58750  26.561  17.082  14.431
97330W        W58751  10.216  38.967   1.427
97331W        W58752   5.747  16.702   4.817
97332W        W58753  19.143  41.026   3.750
97333W        W58754  29.553  43.364  13.980
97334W        W58755  18.120  24.127  14.010
97335W        W58756   3.238  43.512   2.212
97336W        W58757  27.946  25.468  13.861
97337W        W58758  20.254  33.889  12.892
97338W        W58759  43.907  21.722  11.392
97339W        W58760  41.367  30.428  12.350
97340W        W58761  27.953  37.957  11.042
97341W        W58762  33.990  10.718  12.919
97342W        W58763  40.334  23.067  11.032
97343W        W58764  37.002   7.332   2.838
97344W        W58765  29.520  34.093  11.612
97345W        W58766  24.974  16.632  14.910
97346W        W58767  23.653   8.714  10.980
97347W        W58768  12.709  28.987  14.905
97348W        W58769  43.899   2.863  14.429
97349W        W58770  25.695   8.280   3.821
97350W        W58771   3.287  16.653  10.145
97351W        W58772  31.043  26.613   2.210
97352W        W58773  23.069  33.119  11.396
97353W        W58774  33.056  30.596   1.424
97354W        W58775  22.058  13.106   2.372
97355W        W58776  24.017  11.251   1.259
97356W        W58777  19.632  39.396  11.056
97357W        W58778   3.709  21.538   0.835
97358W        W58779   7.859  25.122   2.182
97359W        W58780   3.715  12.241   3.312
97360W        W58781  10.728  24.537  13.990
97361W        W58782  17.774   4.700  12.962
97362W        W58783  37.537  23.569  11.117
97363W        W58784  24.536   4.876  11.451
97364W        W58785  24.192  22.240  12.961
97365W        W58786   9.865  41.296   1.698
97366W        W58787   5.379  29.942   4.121
97367W        W58788  21.546   4.770   0.426
97368W        W58789  36.846  16.619   2.370
97369W        W58790  42.841   2.882  10.936
97370W        W58791  33.879  18.736  11.021
97371W        W58792   8.876  25.105  10.999
97372W        W58793  15.783   3.370  13.924
97373W        W58794  34.537  39.437   2.781
97374W        W58795   5.273  41.466   1.787
97375W        W58796  29.658   2.258  14.922
97376W        W58797  22.015  30.511  10.961
97377W        W58798   3.251  10.639   4.169
97378W        W58799  33.057  37.867   1.747
97379W        W58800  43.840  20.650   4.717
97380W        W58801  28.669   2.763  13.503
97381W        W58802   6.257  27.600  11.961
97382W        W58803  43.930  15.186   3.188
97383W        W58804   9.697  43.887   0.929
97384W        W58805  20.670  43.390   3.309
97385W        W58806  20.161  39.358   2.280
97386W        W58807  38.989   0.492  12.826
97387W        W58808  34.464   6.393  12.933
97388W        W58809  12.754   6.196  14.447
97389W        W58810  13.120  31.003   0.411
97390W        W58811  16.755  16.118  11.947
97391W        W58812  42.492  19.723  11.460
97392W        W58813  42.868  30.103  12.455
97393W        W58814  19.047  20.726   0.385
97394W        W58815  16.291  19.748  13.371
97395W        W58816  22.608  24.583  11.470
97396W        W58817  15.243   6.812   1.264
97397W        W58818  30.965  36.412   4.134
97398W        W58819  41.030   9.745  12.384
97399W        W58820  23.112   6.700   0.941
97400W        W58821  15.793  14.673   1.270
97401W        W58822  42.957  22.559   4.699
97402W        W58823  20.120  31.464   4.826
97403W        W58824  38.864  34.936  10.636
97404W        W58825  30.465  31.099   4.122
97405W        W58826   1.469  33.412   3.760
97406W        W58827  43.506  16.277  14.817
97407W        W58828  14.308   5.421  12.458
97408W        W58829  42.864  22.220  13.979
97409W        W58830  27.493  22.733   4.620
97410W        W58831  23.033   4.829   0.957
97411W        W58832  38.353  35.942  13.003
97412W        W58833  44.850   3.354   2.342
97413W        W58834  15.291   3.348   3.252
97414W        W58835  14.261   4.752   3.682
97415W        W58836  28.993  34.116   0.446
97416W        W58837  36.020  43.510   3.663
97417W        W58838  19.677   1.446  11.508
97418W        W58839   7.782  25.174  11.043
97419W        W58840  13.679   4.891  12.359
97420W        W58841  24.520  25.675   1.300
97421W        W58842  12.701   7.221   1.830
97422W        W58843  14.676  40.001   1.439
97423W        W58844  15.235  26.170   1.309
97424W        W58845   7.410  28.096  14.439
97425W        W58846   3.801  25.687  13.506
97426W        W58847  14.178   2.418   3.307
97427W        W58848  33.595  22.649   4.719
97428W        W58849  16.172  16.566  11.578
97429W        W58850  13.194   5.309   4.789
97430W        W58851  31.024  41.459   1.319
97431W        W58852  38.068  15.744  12.507
97432W        W58853  32.054  34.075  12.425
97433W        W58854  36.428   4.228   4.195
97434W        W58855  29.581  42.777  13.004
97435W        W58856  38.928  43.290  14.833
97436W        W58857  37.832   2.462  11.064
97437W        W58858  23.033   8.245   2.831
97438W        W58859  28.124  42.341   0.769
97439W        W58860  22.207  25.037   0.764
97440W        W58861  35.990  36.946   1.241
97441W        W58862  29.594  39.949  14.295
97442W        W58863  11.696  22.678   3.236
97443W        W58864  10.862  41.917  13.544
97444W        W58865  27.159  41.853   1.922
97445W        W58866  23.596  41.895  14.823
97446W        W58867  27.499  22.535   2.733
97447W        W58868   7.805  16.775  13.997
97448W        W58869  41.011  38.063   4.771
97449W        W58870  21.627  15.777  10.606
97450W        W58871   4.754  38.454   0.435
97451W        W58872  29.562  43.432   1.908
97452W        W58873  34.413   1.468   1.890
97453W        W58874  13.776  34.076  14.470
97454W        W58875  31.079  14.243  12.879
97455W        W58876  28.571  13.750  12.035
97456W        W58877  10.150  26.609   4.270
97457W        W58878  31.078  30.479   3.361
97458W        W58879  43.424  35.070  14.023
97459W        W58880  38.412  18.606  13.834
97460W        W58881  22.151  44.847   0.260
97461W        W58882  16.658  35.393   3.704
97462W        W58883  27.941  13.727  12.565
97463W        W58884  18.087  14.666   2.900
97464W        W58885  27.975  44.413   9.944
97465W        W58886  19.062  23.668  13.799
97466W        W58887  26.677  23.516  11.012
97467W        W58888  26.004  29.918   3.629
97468W        W58889   8.163   7.313   3.323
97469W        W58890  40.918  11.841   0.727
97470W        W58891  11.179  16.715   0.398
97471W        W58892  44.392   1.758   1.394
97472W        W58893  29.667   1.292   3.268
97473W        W58894  21.057   5.870   2.856
97474W        W58895  10.806  35.094   1.704
97475W        W58896  15.297  14.700  10.544
97476W        W58897  41.341  25.654   0.752
97477W        W58898  42.812  25.589  14.481
97478W        W58899  39.822  26.606  12.485
97479W        W58900  39.004  38.977  14.903
97480W        W58901  32.635  16.582   2.749
97481W        W58902  27.095  25.164  13.523
97482W        W58903  21.630  31.578   0.278
97483W        W58904  29.608  18.554  11.007
97484W        W58905   6.282   6.399   3.643
97485W        W58906  37.556  41.790   3.386
97486W        W58907  29.920   7.825   3.382
97487W        W58908  11.769  10.365  14.904
97488W        W58909   1.863  11.147   4.784
97489W        W58910  39.952  39.897   2.699
97490W        W58911  41.868  22.602   4.249
97491W        W58912  31.537   4.765   3.775
97492W        W58913  38.046  26.038  14.903
97493W        W58914  20.225  39.326  14.927
97494W        W58915   1.447  31.585  12.004
97495W        W58916  21.576  13.234   4.335
97496W        W58917   3.283   1.436  13.465
97497W        W58918  40.377  20.099   3.656
97498W        W58919  20.088   6.210  10.502
97499W        W58920  25.160  14.260  12.042
97500W        W58921  14.304  40.869   3.178
97501W        W58922   7.218  20.249   4.235
97502W        W58923  42.316  12.145  11.930
97503W        W58924  42.806   5.774  11.108
97504W        W58925   0.878  21.042  13.542
97505W        W58926  17.231  18.200  12.559
97506W        W58927  39.001  25.549  12.453
97507W        W58928  40.390  11.324  10.887
97508W        W58929   8.252   2.868  10.494
97509W        W58930   4.316   4.241   4.207
97510W        W58931  21.578  44.343   2.331
97511W        W58932   5.335   1.964  13.477
97512W        W58933  33.504  30.441  13.312
97513W        W58934  32.514  23.525  14.919
97514W        W58935  29.135   9.828   1.296
97515W        W58936  41.011  28.080  10.413
97516W        W58937  12.219  20.151   1.442
97517W        W58938  18.139   1.383   0.918
97518W        W58939  18.084  40.521  10.914
97519W        W58940  13.108  36.055   2.673
97520W        W58941  22.542  18.647  14.771
97521W        W58942  39.495   6.376  12.032
97522W        W58943  31.527  22.586   0.837
97523W        W58944  34.108   6.287  10.445
97524W        W58945   9.380  33.122  13.516
97525W        W58946   2.275  13.158   3.184
97526W        W58947   4.856   8.322   1.265
97527W        W58948  32.509  16.235   0.929
97528W        W58949  23.195  37.974  12.035
97529W        W58950  38.358  37.840  14.790
97530W        W58951  33.082  39.527  12.536
97531W        W58952  39.053  41.928  12.850
97532W        W58953   5.359  28.165   0.844
97533W        W58954   8.864  12.175   1.291
97534W        W58955   3.253  10.688   3.823
97535W        W58956  38.840  30.158   4.337
97536W        W58957  38.445  13.816   3.656
97537W        W58958  14.300  28.453   4.134
97538W        W58959  39.945  36.842   3.307
97539W        W58960  20.053   7.233   3.705
97540W        W58961   5.261  34.086   9.566
97541W        W58962  40.336  26.679  10.903
97542W        W58963   1.372  12.345  14.886
97543W        W58964  42.922  25.201  11.412
97544W        W58965   9.205   7.324  10.974
97545W        W58966  12.354  41.817   4.333
97546W        W58967  14.306   6.791   0.930
97547W        W58968   5.388  39.046   4.305
97548W        W58969  36.083  42.327   1.867
97549W        W58970  28.963  21.226  10.516
97550W        W58971  19.074  35.553   1.836
97551W        W58972  18.110  14.288   3.687
97552W        W58973  13.762  37.041  14.775
97553W        W58974  44.426  15.776  11.115
97554W        W58975  11.303   1.769  13.352
97555W        W58976  44.382  19.280  11.867
97556W        W58977  44.923  10.764  14.846
97557W        W58978  28.949  17.200  13.316
97558W        W58979   4.391  29.582  14.344
97559W        W58980  28.010  18.256  10.493
97560W        W58981  10.702  12.702   4.286
97561W        W58982  28.052  17.793  14.834
97562W        W58983   8.859  12.726   1.806
97563W        W58984  16.133   5.786   0.383
97564W        W58985  16.206   0.883   0.923
97565W        W58986  12.217  31.570  13.818
97566W        W58987  22.021  33.510   1.923
97567W        W58988  18.756  17.081   0.414
97568W        W58989  33.997  14.692   2.179
97569W        W58990   1.921   1.241  14.364
97570W        W58991  26.487  17.630   3.146
97571W        W58992  13.792  16.135  11.957
97572W        W58993  26.570  36.415   1.844
97573W        W58994   6.722  29.612   1.388
97574W        W58995  33.020  43.879   1.346
97575W        W58996  13.758  24.071   3.192
97576W        W58997  23.582  39.052  14.837
97577W        W58998  35.997  41.436  12.495
97578W        W58999  31.496  24.195   1.410
97579W        W59000  23.997  17.682  13.985
97580W        W59001  30.119  14.747  13.323
97581W        W59002  34.603   1.914   3.383
97582W        W59003  27.006   4.313   1.280
97583W        W59004  17.214  21.111   3.292
97584W        W59005   1.246  18.061  13.496
97585W        W59006   9.744  11.763   4.707
97586W        W59007  27.173  37.006  12.916
97587W        W59008   9.366  39.548   3.756
97588W        W59009  37.559  41.016  10.965
97589W        W59010  24.134  11.355  12.940
97590W        W59011   2.868  24.673   5.681
97591W        W59012  29.947  37.520  14.443
97592W        W59013   2.830  20.630   2.372
97593W        W59014  30.626  44.768  13.359
97594W        W59015  42.848  33.567  12.541
97595W        W59016  31.635   8.744   1.233
97596W        W59017  11.622  17.790   0.468
97597W        W59018  36.455  32.546  10.460
97598W        W59019  36.959  13.210  14.942
97599W        W59020   1.275  42.928   2.720
97600W        W59021   4.758  36.526  14.325
97601W        W59022  35.557  13.601  10.470
97602W        W59023  29.150  12.645   1.289
97603W        W59024  41.797  24.610  10.562
97604W        W59025  40.829  14.820   3.322
97605W        W59026  23.220  36.953   3.303
97606W        W59027  18.068  32.569   9.625
97607W        W59028  11.809  30.955   3.663
97608W        W59029   7.876  33.597  10.041
97609W        W59030  19.124  32.044  10.460
97610W        W59031  30.060  32.035   0.902
97611W        W59032  41.337  10.258   3.832
97612W        W59033   0.258   5.819   0.455
97613W        W59034  37.451  13.165  11.419
97614W        W59035  30.122  41.307   2.370
97615W        W59036  25.676  33.430  10.505
97616W        W59037  40.890   8.230  12.345
97617W        W59038  10.803  21.530  14.912
97618W        W59039  37.558   1.756   9.506
97619W        W59040   4.265  12.822  14.374
97620W        W59041   4.450  21.120   2.324
97621W        W59042  17.264  27.450   4.351
97622W        W59043  15.811  44.784  14.899
97623W        W59044  24.211   4.816   5.162
97624W        W59045  41.410  36.053   4.171
97625W        W59046  25.062   4.335   4.609
97626W        W59047   7.264  14.737   1.424
97627W        W59048  42.519  32.933   1.810
97628W        W59049  20.726  23.056  12.025
97629W        W59050  42.884  20.227  11.112
97630W        W59051   1.801  30.982  14.771
97631W        W59052  18.735  43.447  14.319
97632W        W59053  39.486   4.311  13.869
97633W        W59054   6.217   5.861   1.425
97634W        W59055  44.281  27.501  13.545
97635W        W59056  10.191  16.679  14.992
97636W        W59057  21.248  30.976   3.382
97637W        W59058  44.343  25.515   5.163
97638W        W59059  43.952  26.656  13.435
97639W        W59060  43.961  24.113  12.069
97640W        W59061  24.101  21.692   0.375
97641W        W59062  28.566   2.411  10.642
97642W        W59063   4.386   8.732   5.229
97643W        W59064   0.857  10.326   1.316
97644W        W59065  42.370  28.929  14.395
97645W        W59066  19.218  44.949   2.361
97646W        W59067  32.910  39.916   1.405
97647W        W59068   6.777   1.384  12.939
97648W        W59069  22.223  34.948   1.804
97649W        W59070  29.930  26.122   3.261
97650W        W59071  19.562  37.380  11.579
97651W        W59072  40.839   0.785  11.979
97652W        W59073  19.224  17.687   2.201
97653W        W59074  38.541   4.780  14.834
97654W        W59075  18.778  29.084   2.257
97655W        W59076  25.652  21.163  12.516
97656W        W59077  24.592  27.560  10.466
97657W        W59078  29.527   7.305   5.231
97658W        W59079   6.209   6.258   1.282
97659W        W59080  42.844   7.895  11.999
97660W        W59081   3.264   1.858  13.937
97661W        W59082   9.388  41.399  12.073
97662W        W59083   4.440  15.282   4.714
97663W        W59084  30.983  26.053  11.074
97664W        W59085  39.503  12.652  13.995
97665W        W59086  40.947  33.029   2.735
97666W        W59087  16.630  28.162   1.362
97667W        W59088  12.205  16.676   2.893
97668W        W59089  17.221   3.243   2.745
97669W        W59090  28.062   1.788   2.890
97670W        W59091  18.693   7.822   2.179
97671W        W59092  24.560   7.666  13.933
97672W        W59093  37.057  31.527   0.428
97673W        W59094  36.368  12.788  13.952
97674W        W59095  39.822  22.066   1.717
97675W        W59096   2.951  20.255   1.898
97676W        W59097  39.325  13.748   3.174
97677W        W59098  28.932  25.146   4.156
97678W        W59099  40.434  24.202   4.683
97679W        W59100  43.958  18.748  11.978
97680W        W59101  15.253  30.956  10.571
97681W        W59102  43.295  42.805  10.951
97682W        W59103  13.145   7.338  10.543
97683W        W59104  31.506   5.395  13.928
97684W        W59105  12.822  18.697   4.709
97685W        W59106   9.344   3.299   1.716
97686W        W59107  34.067  12.631  14.315
97687W        W59108  24.138  14.115   3.379
97688W        W59109  26.569  24.514   2.843
97689W        W59110  30.449  44.924   2.684
97690W        W59111  20.769  14.634  13.925
97691W        W59112   1.945  44.363  12.476
97692W        W59113  14.789   6.304  14.772
97693W        W59114  41.334  19.608  12.903
97694W        W59115   5.699  34.055  10.426
97695W        W59116  30.147  22.501   1.228
97696W        W59117  22.111  18.261  12.905
97697W        W59118  23.114  16.741   4.223
97698W        W59119  10.807  11.264   0.317
97699W        W59120   8.200  24.597   1.799
97700W        W59121  37.458  31.051  12.876
97701W        W59122  39.819  24.095  14.915
97702W        W59123   4.821  36.360   1.279
97703W        W59124  28.104  32.044  14.505
97704W        W59125  29.014  32.018   0.283
97705W        W59126  24.714  11.201  12.463
97706W        W59127  33.595  12.665   1.861
97707W        W59128  31.919  24.217  14.466
97708W        W59129  43.996  25.676   0.871
97709W        W59130  19.045  12.261  11.610
97710W        W59131  17.220  41.408  13.378
97711W        W59132  15.149  19.170   1.326
97712W        W59133  17.729   3.846   1.714
97713W        W59134  25.983   1.913  13.883
97714W        W59135  19.271   6.407   4.833
97715W        W59136  34.036  18.158   4.666
97716W        W59137  42.940  13.195   3.869
97717W        W59138  34.889  11.164  10.999
97718W        W59139   4.785  17.136   1.354
97719W        W59140  18.141  17.762  14.852
97720W        W59141  32.581  20.197  14.388
97721W        W59142  36.913  14.671   2.839
97722W        W59143  24.579  44.296   4.602
97723W        W59144  35.535   9.684   4.343
97724W        W59145  12.292  27.481  12.432
97725W        W59146  19.078  23.692   0.409
97726W        W59147  11.809  16.623  10.060
97727W        W59148   1.950  18.249  12.981
97728W        W59149  35.982   0.305  14.509
97729W        W59150   3.274   4.398  11.873
97730W        W59151  39.947  18.747   0.272
97731W        W59152  11.281  34.492  13.049
97732W        W59153  25.045  44.959  11.920
97733W        W59154  25.691   6.825  14.776
97734W        W59155  22.141  25.555   2.263
97735W        W59156  22.168   5.897  11.521
97736W        W59157   9.151   7.331  12.340
97737W        W59158   2.313   3.827   3.681
97738W        W59159  39.050   2.302  11.917
97739W        W59160  26.092  12.345   1.898
97740W        W59161  37.938  30.453   5.242
97741W        W59162  37.437  20.729   1.802
97742W        W59163  43.368   5.824   3.380
97743W        W59164  36.015  28.055   1.368
97744W        W59165  17.606  40.329   3.312
97745W        W59166  37.459   9.653  14.914
97746W        W59167  37.063  31.499   3.695
97747W        W59168  16.260  41.893   2.825
97748W        W59169  18.102  38.337   0.840
97749W        W59170  25.663  25.091  14.458
97750W        W59171  10.272  17.179  11.991
97751W        W59172  41.857   6.198   2.248
97752W        W59173  11.223  43.417   0.291
97753W        W59174  39.950  22.693   3.301
97754W        W59175  31.637  22.557   2.322
97755W        W59176  36.386   5.217   2.781
97756W        W59177  25.033  44.390  12.407
97757W        W59178  28.109  23.193   1.232
97758W        W59179   9.766  16.696  14.919
97759W        W59180  32.512   1.783  13.452
97760W        W59181  11.729  36.575   0.798
97761W        W59182   8.868  37.047   4.793
97762W        W59183  42.448  21.060  13.528
97763W        W59184  41.794  22.232   1.849
97764W        W59185  16.198   3.418   3.829
97765W        W59186  26.193  27.507   3.360
97766W        W59187  30.519   9.303   3.670
97767W        W59188  26.976   0.388  14.442
97768W        W59189   7.808  31.539  12.082
97769W        W59190  30.143  31.580  13.440
97770W        W59191  15.328   1.782  13.889
97771W        W59192   9.650  21.683   2.721
97772W        W59193  43.867  31.521   1.234
97773W        W59194  41.942  23.997  14.447
97774W        W59195  13.817  10.742   0.343
97775W        W59196  25.031  13.303   2.843
97776W        W59197  41.329   2.407  12.437
97777W        W59198  33.874  23.635   3.309
97778W        W59199  10.709  30.493  12.947
97779W        W59200   5.333   8.737   3.173
97780W        W59201  24.583  35.076   4.340
97781W        W59202  25.603  37.084  13.800
97782W        W59203   7.807   0.861   2.687
97783W        W59204  35.985   0.893   1.216
97784W        W59205  28.490  13.262   3.325
97785W        W59206  35.918   3.732   0.799
97786W        W59207  32.116  36.056  14.304
97787W        W59208   7.695  32.049  12.891
97788W        W59209   8.190  14.186  10.895
97789W        W59210  42.384  31.989   2.698
97790W        W59211  12.749  35.383   3.846
97791W        W59212  35.068  23.541  14.315
97792W        W59213   1.304  42.819  11.376
97793W        W59214  16.252  44.914  11.595
97794W        W59215  33.590  35.008  10.555
97795W        W59216   6.235  17.201  12.498
97796W        W59217  40.982  26.461  12.345
97797W        W59218   4.267  40.815  10.550
97798W        W59219  35.884  37.451  14.467
97799W        W59220  43.318   1.351   0.943
97800W        W59221  10.866  15.721   2.743
97801W        W59222   4.383   2.876  10.927
97802W        W59223  40.891  17.259   4.772
97803W        W59224  13.174   1.754  14.450
97804W        W59225  15.106  10.866   2.194
97805W        W59226  44.360  39.030   0.397
97806W        W59227   1.845  31.528  13.956
97807W        W59228  35.426   3.750  11.484
97808W        W59229  10.332  32.469  11.405
97809W        W59230  37.501  36.975  12.063
97810W        W59231  12.241   9.180  12.844
97811W        W59232  11.643  17.215  14.376
97812W        W59233  30.043  10.205  13.953
97813W        W59234  17.197  39.444   2.288
97814W        W59235  27.511  43.940   4.619
97815W        W59236   4.395   5.285   0.841
97816W        W59237  11.266   8.679   2.700
97817W        W59238  28.558  44.436  10.585
97818W        W59239  38.960   2.947  10.076
97819W        W59240  25.019  17.694  11.999
97820W        W59241  18.760   3.788   4.161
97821W        W59242  19.119   3.244  14.358
97822W        W59243  10.188  28.965   3.678
97823W        W59244  24.050  15.618   0.291
97824W        W59245  38.826  44.789  12.912
97825W        W59246  11.191  40.442  12.377
97826W        W59247  37.447  19.088  12.513
97827W        W59248  24.503  42.520  11.113
97828W        W59249  35.505   2.337  11.582
97829W        W59250   2.936  35.604   2.884
97830W        W59251   2.447  41.973   2.840
97831W        W59252   0.287  31.592  13.936
97832W        W59253  25.059  33.092   4.249
97833W        W59254  25.612   1.309  14.893
97834W        W59255   7.244  26.579  11.589
97835W        W59256  42.310  30.604  10.966
97836W        W59257  26.114   1.253  11.593
97837W        W59258   1.446  33.490  11.018
97838W        W59259  35.956  12.853   4.354
97839W        W59260  37.907  37.014  10.914
97840W        W59261  23.531  24.706   2.709
97841W        W59262   0.784  29.066   2.258
97842W        W59263  22.241   2.840   3.725
97843W        W59264   4.838  29.532  11.568
97844W        W59265   8.223  26.174  13.995
97845W        W59266  42.838   6.890  14.433
97846W        W59267  37.055   4.441  11.071
97847W        W59268  18.168  25.666  10.585
97848W        W59269  27.002   6.312  11.521
97849W        W59270  33.063  44.788   2.709
97850W        W59271  17.698  26.976  14.933
97851W        W59272  32.628   7.308  10.967
97852W        W59273  23.614   2.423  14.373
97853W        W59274  31.502   2.375  13.470
97854W        W59275  30.996  44.454   5.182
97855W        W59276  33.067  32.134  11.482
97856W        W59277  32.421  26.493  14.951
97857W        W59278  22.724  25.966  11.585
97858W        W59279  13.333  18.154   3.751
97859W        W59280  10.857  39.347   5.803
97860W        W59281  28.172  17.191  10.623
97861W        W59282  15.620   7.790  13.336
97862W        W59283  36.564  40.797  10.614
97863W        W59284  38.393  13.220   9.672
97864W        W59285  20.070  40.867  14.275
97865W        W59286  43.395   6.817   3.274
97866W        W59287  10.686   0.311   2.358
97867W        W59288  39.327  23.661  11.467
97868W        W59289  16.168  10.651   1.808
97869W        W59290   2.428  15.765  14.987
97870W        W59291  34.612  36.985  14.312
97871W        W59292  22.210   7.866  14.351
97872W        W59293  30.952  40.305  12.000
97873W        W59294  39.376   0.805  13.443
97874W        W59295   1.956  36.559   3.261
97875W        W59296  37.386   3.857  11.944
97876W        W59297  42.491  26.586  11.460
97877W        W59298  40.537  43.438  10.907
97878W        W59299  14.291  27.543  10.639
97879W        W59300  43.292  17.722  14.935
97880W        W59301   2.804  16.624   3.249
97881W        W59302   1.282  17.266  12.361
97882W        W59303   3.838  43.881   1.212
97883W        W59304  32.044  44.901   0.957
97884W        W59305  26.138  31.001   0.756
97885W        W59306  27.542  32.572   4.176
97886W        W59307  12.177   0.466  13.521
97887W        W59308  20.213   9.705  13.400
97888W        W59309  19.265  10.209   3.353
97889W        W59310  26.541  30.052  13.845
97890W        W59311   5.415  36.016   1.440
97891W        W59312  23.019  28.931  11.051
97892W        W59313  19.062  11.669   3.220
97893W        W59314   9.693   8.695   4.735
97894W        W59315  28.510   5.410  13.047
97895W        W59316  44.315  42.425   4.149
97896W        W59317  26.143  13.271   4.161
97897W        W59318   2.883  26.661   0.443
97898W        W59319  42.814  22.170   3.695
97899W        W59320  15.263  44.270   4.209
97900W        W59321  41.532  39.055   1.756
97901W        W59322  33.128  34.039  13.933
97902W        W59323   0.404  29.032   0.372
97903W        W59324  27.171  21.650  12.504
97904W        W59325  32.926   1.752   0.924
97905W        W59326  44.259  34.542   2.734
97906W        W59327   3.454  10.201  14.409
97907W        W59328  15.637  19.162  12.917
97908W        W59329  40.023  15.743  10.094
97909W        W59330  20.250  43.909   0.297
97910W        W59331  21.573  35.050  13.318
97911W        W59332  19.608   9.284  12.478
97912W        W59333  43.959   3.285   4.641
97913W        W59334  42.933   1.345  13.827
97914W        W59335  22.143   3.309   5.705
97915W        W59336   7.354   9.886   0.955
97916W        W59337   4.425  42.009   2.754
97917W        W59338  43.891   8.187  13.333
97918W        W59339  31.595  18.165  11.474
97919W        W59340   8.376  35.470  14.279
97920W        W59341  20.664  29.467   0.283
97921W        W59342  24.147  18.603  12.853
97922W        W59343   8.862  42.925  14.816
97923W        W59344  43.964   7.363  10.610
97924W        W59345   2.246  20.039  11.497
97925W        W59346  43.863  28.072  14.398
97926W        W59347  27.096   4.412  10.570
97927W        W59348  13.820  36.438  14.767
97928W        W59349  31.431   9.759   2.886
97929W        W59350   1.370  35.487  11.860
97930W        W59351  30.101  40.482   1.407
97931W        W59352  35.958  22.566  13.343
97932W        W59353  30.526  43.917  12.426
97933W        W59354  29.539   4.753  11.031
97934W        W59355  23.050   7.300   9.484
97935W        W59356   8.814  11.709   3.327
97936W        W59357  25.097  27.463   4.313
97937W        W59358   1.447  17.219   3.248
97938W        W59359  28.099  13.797  11.926
97939W        W59360  19.086  19.259   1.427
97940W        W59361  18.255   8.181  12.569
97941W        W59362  44.987   3.867  13.045
97942W        W59363   2.380  20.206   1.699
97943W        W59364   7.789  15.090   0.296
97944W        W59365  29.553   6.748  10.890
97945W        W59366  42.475  17.068   4.751
97946W        W59367  11.305  27.591  13.449
97947W        W59368   7.201  27.458   1.240
97948W        W59369   3.389   0.325  13.393
97949W        W59370  18.753   8.257   0.791
97950W        W59371   6.238  11.341   2.726
97951W        W59372  12.628   1.932   0.303
97952W        W59373   6.335  35.574  11.503
97953W        W59374   5.341  42.929   2.222
97954W        W59375  14.222  43.280   2.259
97955W        W59376  25.044  19.751   2.851
97956W        W59377  11.762   6.284   4.207
97957W        W59378  37.842  16.788  12.451
97958W        W59379  39.449  20.253  14.298
97959W        W59380  24.205  12.753   2.822
97960W        W59381   1.355  12.354  10.925
97961W        W59382  39.428  36.926   2.897
97962W        W59383  35.454   3.387   2.823
97963W        W59384  35.031  43.275  12.495
97964W        W59385   2.399  26.537  14.939
97965W        W59386   1.814  43.368   0.254
97966W        W59387   3.955  31.525   1.238
97967W        W59388  35.031  27.508  10.971
97968W        W59389  30.524  22.221   2.359
97969W        W59390  35.916   6.806   0.834
97970W        W59391  23.568  29.993  10.548
97971W        W59392  18.636   2.947   2.342
97972W        W59393  20.218  27.962  11.499
97973W        W59394  41.034  32.986   2.218
97974W        W59395  31.435  38.862   3.268
97975W        W59396  13.841  37.429   0.941
97976W        W59397  43.848  33.983  12.505
97977W        W59398  25.705  33.549  13.521
97978W        W59399  11.268   8.706   5.200
97979W        W59400  12.150  39.522  10.446
97980W        W59401  37.455  26.581  11.068
97981W        W59402  28.611  10.753   4.298
97982W        W59403  33.933  37.429  14.434
97983W        W59404  25.183  22.081   3.755
97984W        W59405   5.435  38.062   3.173
97985W        W59406  20.591   7.771   3.267
97986W        W59407  36.040   1.330  13.873
97987W        W59408  15.679   4.875   4.147
97988W        W59409  42.458  21.563   3.347
97989W        W59410  39.894  38.908  13.952
97990W        W59411   5.797   6.255  13.324
97991W        W59412  43.940  15.315   4.166
97992W        W59413  43.386  10.792   4.798
97993W        W59414   1.302  14.680   0.888
97994W        W59415   9.217  24.576   2.418
97995W        W59416  21.512  21.522   2.800
97996W        W59417   4.893   1.292  13.887
97997W        W59418  21.572  28.931  12.090
97998W        W59419  20.142  36.898  12.414
97999W        W59420  12.209   0.355  10.944
98000W        W59421   2.840  10.298   4.169
98001W        W59422  25.100  38.828  13.978
98002W        W59423  16.617  14.809   3.724
98003W        W59424  19.274  30.081  14.793
98004W        W59425   1.892  27.108  14.458
98005W        W59426  33.068   7.793   4.627
98006W        W59427  16.095  17.119  11.939
98007W        W59428   9.271  34.487   1.350
98008W        W59429  34.985  21.613   2.238
98009W        W59430  21.111  36.983  10.498
98010W        W59431  14.627  13.747  11.472
98011W        W59432  27.464  12.771   4.294
98012W        W59433   3.290   1.919  14.402
98013W        W59434  22.247  24.209  12.339
98014W        W59435  43.482  17.620   2.217
98015W        W59436  33.064  21.589   3.380
98016W        W59437  42.989  29.060   2.271
98017W        W59438  27.577  42.015  13.040
98018W        W59439  38.407  38.494   4.777
98019W        W59440   9.318  15.664  11.583
98020W        W59441  29.586  25.027  14.766
98021W        W59442  16.173  40.483   0.765
98022W        W59443  31.613   3.379   4.714
98023W        W59444  10.210  34.951   1.420
98024W        W59445   2.834  30.419   3.373
98025W        W59446   0.870  32.433   3.176
98026W        W59447  30.908  24.531  11.571
98027W        W59448  44.415  25.118   0.362
98028W        W59449  40.537  43.275   0.482
98029W        W59450  20.218   3.320   4.142
98030W        W59451  36.436  34.036  11.868
98031W        W59452  42.302  13.604   1.706
98032W        W59453  18.743  15.732   0.738
98033W        W59454  16.582  37.965  11.007
98034W        W59455  27.003  12.770  11.543
98035W        W59456  42.307  25.477   2.768
98036W        W59457  36.512  29.658   9.990
98037W        W59458  32.498  28.941  14.310
98038W        W59459  33.048  39.053  11.973
98039W        W59460  14.281  34.983   5.234
98040W        W59461   7.403  30.163  12.896
98041W        W59462   1.789  11.255  11.920
98042W        W59463   8.746   1.862  13.906
98043W        W59464   9.260  37.534  10.597
98044W        W59465  41.917  23.597  10.893
98045W        W59466   0.753  41.963   1.832
98046W        W59467   8.160  12.682   0.285
98047W        W59468  21.587  37.844  12.359
98048W        W59469  42.798  42.482   4.744
98049W        W59470  16.072  11.199  11.975
98050W        W59471  37.579  40.878   1.366
98051W        W59472   6.297  36.455  12.486
98052W        W59473  13.235   5.924  14.812
98053W        W59474   3.347  42.007   2.673
98054W        W59475  11.358  27.534   0.375
98055W        W59476  20.092  22.100   4.234
98056W        W59477  39.440  17.610  10.520
98057W        W59478  28.672  32.470  10.551
98058W        W59479   3.324  24.228   2.342
98059W        W59480   7.413  43.379   3.632
98060W        W59481  11.161  35.515   0.367
98061W        W59482   7.674  23.662  11.939
98062W        W59483   9.748   1.869  13.386
98063W        W59484  39.963  40.467  14.298
98064W        W59485  28.002   7.296   4.308
98065W        W59486  21.714  16.141  11.479
98066W        W59487  16.737   7.680  13.517
98067W        W59488   6.730   2.883  13.024
98068W        W59489  30.053  30.557   4.827
98069W        W59490  21.625  40.855   2.240
98070W        W59491  13.285   7.792   2.230
98071W        W59492   4.448  19.232  13.899
98072W        W59493   8.737  31.948  13.796
98073W        W59494  29.057  15.638  11.982
98074W        W59495  28.137   7.872   2.362
98075W        W59496  31.633  44.003  14.484
98076W        W59497  24.503  32.918   1.883
98077W        W59498   4.364  13.143  12.014
98078W        W59499  30.043  10.165   0.257
98079W        W59500  41.935  35.888   1.916
98080W        W59501  27.081  30.048  12.084
98081W        W59502  15.190  28.605  13.462
98082W        W59503  23.149  16.699  13.387
98083W        W59504  44.936  34.594  13.954
98084W        W59505  35.440   6.251   1.240
98085W        W59506  19.211  30.989   3.289
98086W        W59507  31.935  31.933  12.832
98087W        W59508  42.991  27.138   0.767
98088W        W59509  21.678   6.341   1.326
98089W        W59510  13.215  41.416   3.281
98090W        W59511  37.352  31.898  10.420
98091W        W59512   0.892  16.147   4.318
98092W        W59513  28.990  38.050   4.139
98093W        W59514  11.233  18.727   4.265
98094W        W59515  30.080  43.513   1.775
98095W        W59516  25.636  18.255   0.792
98096W        W59517   8.746   8.302  11.944
98097W        W59518  28.481  30.428   0.384
98098W        W59519   6.763  17.770  10.459
98099W        W59520  39.947  26.188  14.447
98100W        W59521  27.090   3.904   1.297
98101W        W59522  34.926   6.829  11.566
98102W        W59523  42.877  19.657  13.311
98103W        W59524  19.160  39.509   3.859
98104W        W59525  28.037  28.140  11.982
98105W        W59526   0.823  40.853  11.436
98106W        W59527  26.128   2.763   1.236
98107W        W59528  37.448   8.791   2.860
98108W        W59529   5.384  15.582   1.754
98109W        W59530  27.635  43.452   4.809
98110W        W59531   5.261  11.230   1.250
98111W        W59532  16.294  41.527  13.510
98112W        W59533  17.127   8.274   1.824
98113W        W59534  36.891  15.647   5.226
98114W        W59535  11.368  30.630  11.919
98115W        W59536  11.190  29.030  12.501
98116W        W59537  10.731  26.080   2.748
98117W        W59538  40.530  10.171   5.162
98118W        W59539  26.166  30.142  14.785
98119W        W59540  32.087  11.234  11.866
98120W        W59541  12.201  32.615   0.428
98121W        W59542  22.245   1.893   3.836
98122W        W59543   6.245   0.937  13.424
98123W        W59544  22.103   4.420   4.190
98124W        W59545  36.950  28.130   1.407
98125W        W59546  32.067  20.586   1.286
98126W        W59547  38.948  35.559   0.277
98127W        W59548  26.500  14.116  13.804
98128W        W59549  18.050   6.239  10.621
98129W        W59550  17.788  26.170  11.936
98130W        W59551  35.368  25.533  12.009
98131W        W59552  32.997  30.076   2.897
98132W        W59553  12.240  38.874  13.966
98133W        W59554  13.203  14.313   1.261
98134W        W59555   3.758  25.079   3.319
98135W        W59556  36.937  35.398  13.052
98136W        W59557   5.845   9.811  12.557
98137W        W59558  19.161  10.691   3.285
98138W        W59559  17.620  28.668   4.679
98139W        W59560   8.820   4.726   3.725
98140W        W59561  10.785  43.303   1.286
98141W        W59562   1.936  16.782  10.461
98142W        W59563  32.528   2.350  11.882
98143W        W59564  33.997   7.849   0.470
98144W        W59565  21.122  27.589  10.637
98145W        W59566  38.989  25.645  11.409
98146W        W59567   8.849  29.002  12.028
98147W        W59568  28.113  34.984  10.968
98148W        W59569  18.285  30.456  10.414
98149W        W59570  38.900   0.966   4.780
98150W        W59571  10.804  36.963   2.279
98151W        W59572  33.559  32.108   4.280
98152W        W59573  16.646  17.574  13.429
98153W        W59574  29.536   9.296   0.423
98154W        W59575  38.864  17.289  11.060
98155W        W59576  29.154  36.926  11.925
98156W        W59577  20.140   1.928   4.715
98157W        W59578  10.822  14.232  13.417
98158W        W59579  31.985   5.289  12.369
98159W        W59580  38.563  29.594  14.006
98160W        W59581   4.882   1.914   0.290
98161W        W59582  12.206   8.364  14.955
98162W        W59583  14.630  32.903   0.898
98163W        W59584  40.341  26.639   0.414
98164W        W59585  28.532   2.740  12.386
98165W        W59586  32.493  14.784  11.465
98166W        W59587  18.545   9.328   1.898
98167W        W59588  22.613  17.152  14.511
98168W        W59589   2.464  34.071  12.867
98169W        W59590  34.586   4.919  12.446
98170W        W59591  32.596   5.914   1.360
98171W        W59592  15.253  15.229  11.008
98172W        W59593  21.211  10.685   2.328
98173W        W59594   2.396  23.000   9.610
98174W        W59595  34.537  41.787   2.259
98175W        W59596  29.448  40.308   2.736
98176W        W59597   3.362  44.381  11.091
98177W        W59598  38.919  29.173   0.394
98178W        W59599  19.266   6.859   1.904
98179W        W59600  10.802  44.403  11.397
98180W        W59601  31.624  25.131   4.778
98181W        W59602  13.836  37.365   4.763
98182W        W59603  10.689  21.058  14.355
98183W        W59604  12.191   4.372   0.906
98184W        W59605  16.184  27.180   0.266
98185W        W59606   7.330   4.204  14.355
98186W        W59607  25.013  26.617   1.726
98187W        W59608  28.582   8.754   3.844
98188W        W59609  36.391   0.829  11.507
98189W        W59610  37.942  10.247   0.394
98190W        W59611   1.951  18.725  10.410
98191W        W59612  26.564  20.172  14.770
98192W        W59613  41.858  16.719   2.721
98193W        W59614  44.340  12.688  13.032
98194W        W59615   8.326  15.141  12.486
98195W        W59616  31.125  18.062  11.039
98196W        W59617  26.960  39.831  10.526
98197W        W59618  14.826   9.750   4.736
98198W        W59619  26.971  24.651   4.291
98199W        W59620  29.952   6.360  13.027
98200W        W59621  27.061  44.954  14.778
98201W        W59622  43.021  10.741  13.823
98202W        W59623  32.590  15.810   3.197
98203W        W59624  37.882  38.442   1.908
98204W        W59625   7.719  42.470  11.576
98205W        W59626   2.734  23.210  14.858
98206W        W59627  28.522  10.184   4.310
98207W        W59628  19.559  23.193   3.167
98208W        W59629  32.990  12.638  13.995
98209W        W59630  41.859  23.607  10.478
98210W        W59631  29.011  38.411   1.697
98211W        W59632   3.935  36.436   1.855
98212W        W59633  34.946  21.109  11.528
98213W        W59634   7.818  29.945  14.001
98214W        W59635  22.646  44.428   9.954
98215W        W59636  15.611   3.932   3.291
98216W        W59637  26.184  19.588  10.436
98217W        W59638  17.289   0.841   5.165
98218W        W59639  29.131  35.899   4.291
98219W        W59640  43.386  43.326   1.782
98220W        W59641   7.863  13.732   0.835
98221W        W59642  40.847  20.063  12.431
98222W        W59643  17.188  22.167   1.303
98223W        W59644  37.889  43.377   1.893
98224W        W59645  17.567  21.076   3.357
98225W        W59646  25.589  35.394   3.209
98226W        W59647  14.215  43.791   0.897
98227W        W59648  41.023  34.520  12.465
98228W        W59649  37.460  15.640  11.407
98229W        W59650   8.810  38.919   0.468
98230W        W59651  10.344  16.246  12.895
98231W        W59652   2.432  25.558  11.542
98232W        W59653  24.205  29.098  13.401
98233W        W59654  10.649  17.102  11.459
98234W        W59655   7.221  18.753   1.349
98235W        W59656  11.174   4.813  14.470
98236W        W59657  33.040  39.533   2.685
98237W        W59658  26.571  41.829  10.910
98238W        W59659  28.496  38.332  11.568
98239W        W59660  16.108  10.217   4.795
98240W        W59661  43.438  19.702   2.239
98241W        W59662  28.965  23.156   4.677
98242W        W59663  15.791  30.918   2.403
98243W        W59664  44.467  22.027   1.413
98244W        W59665  11.674  18.594  10.417
98245W        W59666  35.016   0.944  12.497
98246W        W59667  12.321  18.094   1.774
98247W        W59668  36.016  40.372  12.076
98248W        W59669  18.752   1.344   0.802
98249W        W59670   9.886  18.654   4.695
98250W        W59671  25.568  37.945  10.576
98251W        W59672  21.684  29.591   2.241
98252W        W59673  43.981  26.667   0.749
98253W        W59674  21.574  18.582  14.482
98254W        W59675  23.656  24.213  12.918
98255W        W59676  17.217  21.557  10.562
98256W        W59677   3.759  43.798  12.966
98257W        W59678  37.574  20.216  14.293
98258W        W59679  38.520  30.423  14.804
98259W        W59680  22.085  12.765   3.200
98260W        W59681   8.766  36.031  11.426
98261W        W59682  38.401   3.374   4.828
98262W        W59683  36.985  26.075  14.287
98263W        W59684  44.402  15.589   5.268
98264W        W59685  22.524  35.475  10.147
98265W        W59686  40.419  37.424   2.281
98266W        W59687   0.804  44.893   0.936
98267W        W59688  25.016  19.114   3.248
98268W        W59689  18.621  22.550  12.069
98269W        W59690   3.883  22.101  13.425
98270W        W59691  36.009  31.974  11.524
98271W        W59692  15.184  28.938   0.918
98272W        W59693  19.269  34.988  11.874
98273W        W59694  38.075   9.151  12.369
98274W        W59695   0.437  37.005   3.189
98275W        W59696   9.687  33.490  13.525
98276W        W59697   9.339  35.030   3.168
98277W        W59698  27.585  13.768  11.966
98278W        W59699  37.470  38.480  12.848
98279W        W59700  44.381  27.125   1.359
98280W        W59701  21.038  42.919   1.727
98281W        W59702  43.442   1.330   4.293
98282W        W59703  32.953   5.855  12.448
98283W        W59704  35.960  24.683  12.045
98284W        W59705  37.888  23.728   0.804
98285W        W59706  24.651  17.134  14.340
98286W        W59707  30.959  20.653  11.089
98287W        W59708  36.921  30.975  12.033
98288W        W59709  28.041   3.811  12.526
98289W        W59710  24.670  22.537  12.873
98290W        W59711  44.290  43.449   1.824
98291W        W59712  15.769  37.505   3.815
98292W        W59713  41.423  42.305   3.173
98293W        W59714  24.631  29.511   1.282
98294W        W59715   9.365  36.980   3.666
98295W        W59716  18.279   5.830  12.365
98296W        W59717   7.334  36.514  10.108
98297W        W59718  19.248  13.205  14.829
98298W        W59719   3.948  36.491  11.440
98299W        W59720  22.217  30.118  10.635
98300W        W59721   5.194  13.202   4.153
98301W        W59722  32.989   4.924   3.813
98302W        W59723  35.986   9.348   2.835
98303W        W59724   0.759   9.189  11.060
98304W        W59725   3.850   0.839   1.322
98305W        W59726   3.451  33.425   0.306
98306W        W59727   2.327  35.894   1.247
98307W        W59728  21.146   3.861   1.309
98308W        W59729   0.281  29.006   0.830
98309W        W59730  40.424  34.469   0.382
98310W        W59731  34.402  44.819  14.887
98311W        W59732  36.481  10.367   0.726
98312W        W59733  23.113  21.659  14.379
98313W        W59734  43.993   3.288   2.256
98314W        W59735  24.207  11.649   5.097
98315W        W59736  31.084  26.042  12.504
98316W        W59737  34.948  18.274   1.756
98317W        W59738  19.116  19.082   2.668
98318W        W59739   9.211  10.363   3.311
98319W        W59740  38.918  17.175  14.987
98320W        W59741  36.573   3.391  14.403
98321W        W59742  43.959  22.253  12.345
98322W        W59743  22.708  42.867  13.860
98323W        W59744  44.989   1.880   0.843
98324W        W59745  15.628  36.458  10.443
98325W        W59746  34.092  31.594  14.993
98326W        W59747   9.391  42.991   4.210
98327W        W59748   6.695  44.979  13.324
98328W        W59749  26.522  30.106  10.572
98329W        W59750  16.175  14.103  13.835
98330W        W59751   4.886  23.700  13.871
98331W        W59752   1.322  30.510  14.030
98332W        W59753   0.389   5.213  11.969
98333W        W59754  26.524   3.409  11.606
98334W        W59755  30.483  18.132   4.137
98335W        W59756  26.597  11.785   0.961
98336W        W59757  13.654  19.571   2.211
98337W        W59758  28.590  17.671   4.627
98338W        W59759  32.055   9.782  14.359
98339W        W59760  21.049  40.957   4.156
98340W        W59761  30.443  31.127  14.901
98341W        W59762  32.944  40.018  12.919
98342W        W59763  38.511  11.168   2.862
98343W        W59764   5.924  42.978  14.949
98344W        W59765  33.616  24.531   4.133
98345W        W59766  31.529   9.768   4.151
98346W        W59767  18.146  29.617   1.381
98347W        W59768   7.904   6.780  12.869
98348W        W59769  33.912  18.657  14.291
98349W        W59770   0.402  12.199   2.417
98350W        W59771   1.831  29.042   2.861
98351W        W59772  35.603  41.887  13.472
98352W        W59773  14.769  16.722   0.925
98353W        W59774   3.731  44.943  10.511
98354W        W59775  39.451  38.846  11.575
98355W        W59776  35.880  26.049  12.873
98356W        W59777  14.334  18.087  14.971
98357W        W59778  44.397  32.017   3.805
98358W        W59779   0.852  32.395  12.495
98359W        W59780   2.402  41.465  13.533
98360W        W59781  14.833  17.269  14.352
98361W        W59782  19.197   5.734   1.222
98362W        W59783   7.902  27.099   4.620
98363W        W59784  37.866   8.263   4.326
98364W        W59785  42.403  30.549   2.847
98365W        W59786  23.008   5.890   2.291
98366W        W59787  17.707   9.785   2.859
98367W        W59788  17.633   6.242   1.697
98368W        W59789   4.866  23.492   4.217
98369W        W59790   2.738  16.756   2.734
98370W        W59791  19.655   5.207   0.360
98371W        W59792  20.709  37.916  11.456
98372W        W59793  38.821   1.427  14.376
98373W        W59794  18.093   5.746  11.577
98374W        W59795  38.462  20.041   4.730
98375W        W59796  30.631  36.060   1.307
98376W        W59797  23.526  44.397   2.232
98377W        W59798   3.945  35.477   0.481
98378W        W59799  35.106   8.900   0.859
98379W        W59800  26.674  16.786   9.995
98380W        W59801  23.575   2.439  12.870
98381W        W59802  37.860  22.533   4.834
98382W        W59803  25.666  10.294  10.617
98383W        W59804  32.558  26.126  11.378
98384W        W59805   0.797  42.846   1.384
98385W        W59806  35.909  10.294   3.738
98386W        W59807  16.796  37.538  14.471
98387W        W59808  25.572   9.266  10.553
98388W        W59809  39.469  36.983   4.757
98389W        W59810  41.391  42.888  10.414
98390W        W59811  26.978  15.084   2.202
98391W        W59812   4.371  25.672   2.325
98392W        W59813  24.137  44.924   2.302
98393W        W59814  21.088  12.752   3.283
98394W        W59815   7.739  38.502   3.861
98395W        W59816  27.122   3.799  11.489
98396W        W59817  25.101  23.576   1.213
98397W        W59818  12.239   5.825  14.433
98398W        W59819  26.659   5.706  14.010
98399W        W59820   9.754  35.494   2.382
98400W        W59821  37.470  34.445  11.895
98401W        W59822  36.519   1.475  13.037
98402W        W59823  16.311  23.053  10.949
98403W        W59824  31.904  38.879  12.922
98404W        W59825  29.471   1.848  12.933
98405W        W59826  32.057  36.496   2.274
98406W        W59827  23.233   6.305   3.264
98407W        W59828  10.237   1.748   2.217
98408W        W59829   3.774  23.698   1.820
98409W        W59830  25.705   5.801  13.332
98410W        W59831   4.711  14.206   4.257
98411W        W59832  14.614  14.186  13.375
98412W        W59833  28.985  40.926   3.249
98413W        W59834  14.288   5.266  13.321
98414W        W59835  40.016   0.397   3.837
98415W        W59836  24.625  16.632   1.865
98416W        W59837  15.581  23.703  12.907
98417W        W59838  32.575  43.831  13.341
98418W        W59839  29.017   3.763   3.222
98419W        W59840   9.235  43.450   0.394
98420W        W59841  12.328  29.449  12.476
98421W        W59842  20.578   7.397   0.482
98422W        W59843  39.520   6.864   1.785
98423W        W59844  35.572   2.877   2.713
98424W        W59845  35.084  35.001   3.249
98425W        W59846  43.839  43.358  13.996
98426W        W59847  15.291  15.253  14.342
98427W        W59848  22.042  17.760   1.394
98428W        W59849  23.601  44.338   4.231
98429W        W59850   1.860  14.283   0.912
98430W        W59851  26.189  24.605   4.284
98431W        W59852  13.168  10.290   3.262
98432W        W59853  13.278  41.915   2.232
98433W        W59854  31.058  25.194  11.070
98434W        W59855  12.745  14.238  10.413
98435W        W59856  39.418   0.881   1.307
98436W        W59857  32.993  42.978  14.892
98437W        W59858  36.588  14.715  13.538
98438W        W59859  43.789  37.046  11.412
98439W        W59860   1.241   1.846  14.827
98440W        W59861   1.448  24.622  15.000
98441W        W59862  12.611   6.802  11.021
98442W        W59863  35.532  40.849   0.400
98443W        W59864   8.265  40.986   3.652
98444W        W59865  31.952  33.484  12.500
98445W        W59866  44.957  25.542  11.379
98446W        W59867  14.742  20.230   1.911
98447W        W59868  25.480  29.467  12.002
98448W        W59869  17.225  38.486   1.331
98449W        W59870   4.388  43.382  13.464
98450W        W59871  25.633   1.302   3.641
98451W        W59872  36.473  17.650  10.417
98452W        W59873   9.247  40.827  12.064
98453W        W59874   9.645   9.225   4.679
98454W        W59875   7.818   3.391   2.371
98455W        W59876  27.453  11.747  13.014
98456W        W59877  13.158   5.383   1.365
98457W        W59878  41.439  20.683   3.812
98458W        W59879  33.985  19.573   0.731
98459W        W59880   4.944   4.429  12.406
98460W        W59881  30.603  41.409  10.905
98461W        W59882  19.088  39.954  10.641
98462W        W59883  41.512  29.936   0.789
98463W        W59884  15.298   3.870  13.385
98464W        W59885  18.263  32.899   1.932
98465W        W59886  44.809   1.790   0.399
98466W        W59887   0.769  28.072   1.322
98467W        W59888   7.807   2.394  11.054
98468W        W59889   2.887  12.810  14.769
98469W        W59890  23.517  22.212  10.410
98470W        W59891  26.095   8.691   3.378
98471W        W59892  30.622  31.444   2.678
98472W        W59893  16.094  34.559  13.358
98473W        W59894  34.043   9.153  10.955
98474W        W59895  17.644  40.345   2.190
98475W        W59896   0.316  39.837   4.159
98476W        W59897  13.666  41.372  14.796
98477W        W59898  28.498  27.060  11.082
98478W        W59899  17.305  36.855  11.934
98479W        W59900  12.767   0.869  14.799
98480W        W59901  19.729  21.659  14.877
98481W        W59902  36.018  33.445   4.297
98482W        W59903  16.639  36.928   1.339
98483W        W59904  17.118  21.149  12.348
98484W        W59905  33.445  28.561   0.840
98485W        W59906  38.508  25.494  14.893
98486W        W59907  22.614  28.556  11.536
98487W        W59908  11.694  12.779  14.978
98488W        W59909  10.776  22.619  10.426
98489W        W59910  35.893  42.837  14.907
98490W        W59911   2.816   6.250   3.256
98491W        W59912  11.756  35.447  14.029
98492W        W59913  16.132  29.155  13.885
98493W        W59914  27.450  21.253  14.786
98494W        W59915  42.400  27.948   4.117
98495W        W59916  12.272  32.012  14.451
98496W        W59917  43.020  27.996  12.975
98497W        W59918  15.694  30.549   1.265
98498W        W59919  28.572   1.863   3.784
98499W        W59920  24.541  43.939   0.412
98500W        W59921  24.118   1.966  12.971
98501W        W59922  36.958  19.156   1.920
98502W        W59923  29.538  25.652   4.186
98503W        W59924  32.633  13.187   3.248
98504W        W59925  36.997  32.043  14.369
98505W        W59926  15.201  21.572  13.826
98506W        W59927  11.841  24.495  14.496
98507W        W59928  12.190  27.620  14.834
98508W        W59929  22.589   9.384  13.433
98509W        W59930  29.957  24.577   0.911
98510W        W59931  34.986  28.668   0.940
98511W        W59932  43.464  35.037  13.543
98512W        W59933  28.490  23.138   3.184
98513W        W59934  23.492  16.157  13.794
98514W        W59935  13.659  30.614   0.359
98515W        W59936   0.293  21.054  13.998
98516W        W59937  42.957  18.180  13.402
98517W        W59938  33.953  32.595   4.162
98518W        W59939  43.842  42.392  10.624
98519W        W59940  20.148  31.638  13.051
98520W        W59941  34.977  18.736   1.885
98521W        W59942  31.056  32.033  11.984
98522W        W59943  14.166  36.429   0.407
98523W        W59944   1.733   5.713   0.269
98524W        W59945  34.494  25.671  13.057
98525W        W59946  36.355   6.746   0.940
98526W        W59947   5.364  42.507   2.902
98527W        W59948   9.653  37.850  14.014
98528W        W59949  40.964  15.617   4.797
98529W        W59950  17.263  14.612  11.598
98530W        W59951  41.838  17.720   1.826
98531W        W59952  17.556  29.565  13.308
98532W        W59953   4.408  18.265  11.084
98533W        W59954  22.176  19.230  13.017
98534W        W59955  28.150  42.903  13.830
98535W        W59956  14.239  36.388   4.216
98536W        W59957  28.508  38.819  12.947
98537W        W59958  14.183  35.947   3.656
98538W        W59959  36.389  40.482   5.246
98539W        W59960  24.144  28.081   3.202
98540W        W59961  39.426  14.176  14.430
98541W        W59962  13.808  13.338   3.378
98542W        W59963  20.162  37.387  12.972
98543W        W59964   3.220   9.866  12.359
98544W        W59965  35.420  38.360  13.490
98545W        W59966  23.068  19.200  13.996
98546W        W59967  18.664  30.484  13.367
98547W        W59968  11.710  31.645  14.976
98548W        W59969  12.687  21.543   3.160
98549W        W59970   6.770  40.883  13.051
98550W        W59971  10.660  33.510   0.467
98551W        W59972  10.170   7.694  13.539
98552W        W59973  37.843  43.944  11.600
98553W        W59974  26.538  12.808  10.919
98554W        W59975   2.841   2.462   1.925
98555W        W59976  24.182  34.597  13.839
98556W        W59977  39.873  24.649  14.412
98557W        W59978  37.886  20.123  11.486
98558W        W59979   0.880  16.120  13.482
98559W        W59980  12.309   9.174   3.697
98560W        W59981  31.499  37.891  13.861
98561W        W59982  25.596   0.394  11.057
98562W        W59983   3.738   9.207   2.751
98563W        W59984   6.795  28.960   3.629
98564W        W59985  34.459  33.570  13.030
98565W        W59986   5.707  26.506  14.823
98566W        W59987  29.076  41.386  11.050
98567W        W59988   5.304  15.750  14.012
98568W        W59989  10.224   5.921  10.997
98569W        W59990  30.074   6.397  13.480
98570W        W59991  35.890  32.495   0.412
98571W        W59992  20.089   7.178   3.376
98572W        W59993  10.762  40.879   3.206
98573W        W59994  34.433  11.621  10.503
98574W        W59995  31.059  24.200   2.754
98575W        W59996  16.204  25.531   4.259
98576W        W59997  41.426  30.582  13.445
98577W        W59998  13.637  12.811   2.343
98578W        W59999  29.650  31.079   0.402
98579W        W60000  10.785  34.116   3.239
98580W        W60001  20.244  18.643  11.114
98581W        W60002  21.147   4.441  11.415
98582W        W60003  16.182  37.469  12.445
98583W        W60004  14.827  14.138  14.402
98584W        W60005  17.717   4.245   3.209
98585W        W60006  17.211  39.498  11.494
98586W        W60007  31.574  36.410  10.517
98587W        W60008  27.003   4.859   2.360
98588W        W60009  35.045  16.768   3.765
98589W        W60010  12.234  29.566  12.908
98590W        W60011  40.045  30.094  12.880
98591W        W60012  27.124  14.742  13.458
98592W        W60013   1.381  29.035  13.341
98593W        W60014  38.434  15.272   2.264
98594W        W60015  19.652  10.223   4.614
98595W        W60016   2.729   4.773   1.316
98596W        W60017  11.700  23.174  14.471
98597W        W60018  23.208   8.173   4.775
98598W        W60019  33.623  24.203  12.949
98599W        W60020  41.487  21.226   3.252
98600W        W60021  18.117  13.334  11.879
98601W        W60022  34.996  12.314   4.677
98602W        W60023  35.859  13.757  11.457
98603W        W60024   6.394  12.725  14.455
98604W        W60025  41.012  15.646   1.753
98605W        W60026   2.781  31.973   0.806
98606W        W60027  22.024  34.896   1.336
98607W        W60028  12.143   0.846   9.929
98608W        W60029  44.947  12.209   1.393
98609W        W60030  41.347  21.739  14.992
98610W        W60031  24.649   3.748   3.187
98611W        W60032  21.676  18.604  12.978
98612W        W60033  13.335  37.516   3.801
98613W        W60034  17.218  21.027  10.616
98614W        W60035  24.623  25.006  10.614
98615W        W60036  39.403  32.940   3.359
98616W        W60037  41.799  14.611  11.470
98617W        W60038  27.002  37.955   1.783
98618W        W60039  39.882   5.293   2.737
98619W        W60040  21.252  20.264   4.221
98620W        W60041  29.591  29.505   5.178
98621W        W60042  11.750  14.771   0.783
98622W        W60043  38.839  27.514   4.772
98623W        W60044  31.935   7.837   1.878
98624W        W60045   1.945  18.573  12.897
98625W        W60046  33.435  30.597   4.815
98626W        W60047   6.395  14.269   2.845
98627W        W60048  21.080   1.792  11.084
98628W        W60049   4.247  44.429   2.856
98629W        W60050  31.461   1.940  13.348
98630W        W60051  26.096   5.925  11.110
98631W        W60052  17.705  17.792  10.054
98632W        W60053  22.187   1.469  14.292
98633W        W60054  35.546   4.698  11.558
98634W        W60055  11.773  27.588   2.215
98635W        W60056   9.288  23.094  14.349
98636W        W60057  25.623   9.853   4.718
98637W        W60058  33.601   7.263  11.570
98638W        W60059   3.386  29.952  14.893
98639W        W60060  17.174  12.812   4.734
98640W        W60061  17.110  26.685  10.512
98641W        W60062  44.287  35.878   0.397
98642W        W60063  22.030  16.115   3.860
98643W        W60064   7.172   2.946  11.098
98644W        W60065   1.970  37.400  12.937
98645W        W60066  30.016  15.099  13.798
98646W        W60067  38.510  10.180  10.974
98647W        W60068  18.221  40.355  11.475
98648W        W60069  35.397  39.319  14.435
98649W        W60070  30.154  28.065  13.508
98650W        W60071  12.172  38.497  12.557
98651W        W60072  21.649  29.621  10.534
98652W        W60073  25.135  17.183   2.378
98653W        W60074  36.028  43.926   4.251
98654W        W60075  29.960  43.957  13.422
98655W        W60076  16.673   2.870   0.333
98656W        W60077   4.838  42.434   2.689
98657W        W60078  31.108  44.775   4.258
98658W        W60079  17.729  30.921  10.478
98659W        W60080  18.594  11.363  14.764
98660W        W60081   2.348  38.364  13.935
98661W        W60082  25.501  26.477   3.176
98662W        W60083  13.772  15.677   3.365
98663W        W60084  34.565  10.266   1.879
98664W        W60085   5.378  30.632  14.363
98665W        W60086  19.100  25.596   4.141
98666W        W60087  13.155   5.812  13.868
98667W        W60088  24.663   6.739   1.911
98668W        W60089  19.625   8.364  11.420
98669W        W60090  32.951   0.451   2.817
98670W        W60091  39.429   6.284   3.204
98671W        W60092  33.061  34.979   2.206
98672W        W60093   4.831  40.541  10.515
98673W        W60094  21.667  33.554  12.992
98674W        W60095  20.534  41.850   2.690
98675W        W60096  36.850  12.224  13.880
98676W        W60097   9.811  11.328   4.188
98677W        W60098  44.818  12.642   2.791
98678W        W60099  13.249  18.161   4.125
98679W        W60100  16.088   7.226  13.918
98680W        W60101   9.809   7.740   4.135
98681W        W60102  33.455  13.151   4.610
98682W        W60103  23.549  33.100  14.452
98683W        W60104  41.018  42.353  12.487
98684W        W60105  40.539  27.552   3.780
98685W        W60106  42.847  44.340  11.034
98686W        W60107   0.399   3.329   1.295
98687W        W60108  34.398  26.589  14.286
98688W        W60109  22.191   7.319  11.475
98689W        W60110  16.294   2.260   1.820
98690W        W60111  14.797  13.703   3.734
98691W        W60112  39.449   3.438  10.459
98692W        W60113  17.095  19.754  13.035
98693W        W60114  27.098   8.221  10.919
98694W        W60115  32.950  40.519  13.002
98695W        W60116  12.272  43.846   4.288
98696W        W60117  27.944  17.149  13.361
98697W        W60118  27.586  17.293  14.456
98698W        W60119  11.784  11.229   3.861
98699W        W60120  40.055  21.259  13.804
98700W        W60121   3.839   8.678  15.000
98701W        W60122  28.158   9.268  12.568
98702W        W60123  16.668   3.929   0.856
98703W        W60124  12.221   7.272   1.773
98704W        W60125  36.521  37.411  14.785
98705W        W60126  40.801  31.453   2.890
98706W        W60127  20.664  25.559   2.745
98707W        W60128  27.079   4.359   3.147
98708W        W60129  14.317  27.471   1.725
98709W        W60130  19.656   5.933  10.461
98710W        W60131  29.645   3.383  10.477
98711W        W60132  44.943  23.224  14.295
98712W        W60133   8.885  41.295  10.418
98713W        W60134  16.121  19.248   0.923
98714W        W60135  37.850  16.716   2.370
98715W        W60136  38.335  37.344   4.125
98716W        W60137  27.474  21.048  12.526
98717W        W60138   9.273  35.963   3.234
98718W        W60139   4.311   8.684  13.436
98719W        W60140  23.995  33.945   1.765
98720W        W60141   5.397  35.909  14.904
98721W        W60142  23.083   8.242  11.930
98722W        W60143  31.424  11.682  10.131
98723W        W60144  11.226  17.298   4.767
98724W        W60145  11.265  38.969  12.519
98725W        W60146  15.724  40.920   1.699
98726W        W60147  29.015   0.368   3.202
98727W        W60148  31.030   2.347   2.867
98728W        W60149  19.282  14.166   2.262
98729W        W60150  32.585  34.889  14.886
98730W        W60151  36.351  28.529   1.832
98731W        W60152   1.782  37.341  13.383
98732W        W60153  30.470  28.084   2.259
98733W        W60154  21.203   3.424   3.647
98734W        W60155  23.171   1.944   1.230
98735W        W60156  20.661   4.272  13.407
98736W        W60157  25.062   1.754  12.934
98737W        W60158  26.049   9.684   2.315
98738W        W60159   2.395  10.225  14.017
98739W        W60160  18.191   6.682  10.536
98740W        W60161  17.075  38.469  14.950
98741W        W60162  16.251   9.727   1.818
98742W        W60163  41.948  39.430  11.543
98743W        W60164  29.054  38.333  10.589
98744W        W60165  14.725  26.005   3.270
98745W        W60166  43.515  43.802  14.777
98746W        W60167   4.931  26.606  11.038
98747W        W60168  37.417  39.470  11.459
98748W        W60169  12.274   7.220   3.344
98749W        W60170  15.689  25.502  11.963
98750W        W60171  10.767  32.899  14.334
98751W        W60172  25.625  38.012   4.641
98752W        W60173  38.481  13.145  10.007
98753W        W60174  43.413  35.012   0.945
98754W        W60175  27.067  28.572   2.325
98755W        W60176  15.185  21.601   1.761
98756W        W60177   5.414  20.134  12.534
98757W        W60178  37.833  36.560  12.537
98758W        W60179  33.419  42.803   4.300
98759W        W60180  39.056  36.986   3.691
98760W        W60181  33.609  24.673  13.329
98761W        W60182   3.239  26.637  13.482
98762W        W60183  24.607  26.134  12.510
98763W        W60184   8.225   4.209  14.999
98764W        W60185  36.484  18.075  10.921
98765W        W60186  25.471  37.953  11.007
98766W        W60187  37.867   4.733  14.453
98767W        W60188  33.417  43.807  13.046
98768W        W60189  34.443  22.692  13.467
98769W        W60190  41.043  23.512  12.580
98770W        W60191  37.503   8.668   1.376
98771W        W60192  31.005   3.802  13.861
98772W        W60193   6.265  36.947   9.442
98773W        W60194  38.481   3.955   1.371
98774W        W60195  26.511   6.799  14.304
98775W        W60196  30.517   7.813  14.424
98776W        W60197  40.036  11.142   1.236
98777W        W60198  25.582  41.829   3.714
98778W        W60199  36.930  39.884  13.847
98779W        W60200  12.815  10.713  11.604
98780W        W60201  26.627  32.918  12.044
98781W        W60202  26.077   2.873  14.015
98782W        W60203  42.918  21.229  11.442
98783W        W60204  16.598  39.904  11.537
98784W        W60205  14.661  11.670   4.243
98785W        W60206  34.582  14.094   4.687
98786W        W60207  18.712  30.962   4.194
98787W        W60208   1.258  18.678   4.691
98788W        W60209  42.449  37.870  10.899
98789W        W60210  24.541  17.579   3.753
98790W        W60211  21.261  41.495   4.785
98791W        W60212  23.033  18.203  14.510
98792W        W60213   9.250  37.985   3.358
98793W        W60214  31.569  10.322   0.735
98794W        W60215  22.531  13.806   2.231
98795W        W60216  30.063  32.014   2.837
98796W        W60217  42.931   4.326   1.697
98797W        W60218  15.633  32.604   0.378
98798W        W60219   5.413  38.870   3.642
98799W        W60220  29.646  27.511  13.014
98800W        W60221  44.856   9.808  11.557
98801W        W60222  22.204  13.605   1.895
98802W        W60223  13.822  33.061   2.762
98803W        W60224  14.654  13.330  13.369
98804W        W60225  32.469  42.332  10.492
98805W        W60226  38.941   0.884  11.935
98806W        W60227   8.870   6.304  11.506
98807W        W60228  14.149  40.368   2.791
98808W        W60229  37.913   2.332  11.455
98809W        W60230  34.979   7.802   4.679
98810W        W60231   7.684   6.723  12.350
98811W        W60232  18.063   7.301  14.993
98812W        W60233   6.385  12.224  13.474
98813W        W60234  31.021   6.312   4.208
98814W        W60235  29.101  14.726   1.241
98815W        W60236  21.176  15.271   5.293
98816W        W60237   5.894   5.735  14.852
98817W        W60238  23.510  22.137   1.259
98818W        W60239   2.889  37.442   4.211
98819W        W60240  35.426  33.989  10.451
98820W        W60241   6.829  40.510   0.252
98821W        W60242   3.846  40.462  14.407
98822W        W60243  11.160  26.204  14.456
98823W        W60244  17.224  32.079   4.332
98824W        W60245  13.797  29.609   4.710
98825W        W60246  13.248  25.045   0.462
98826W        W60247  39.924  39.952   1.276
98827W        W60248  16.783  10.197   4.157
98828W        W60249  22.603   5.788  11.537
98829W        W60250   8.178  25.603   4.248
98830W        W60251  24.537  43.968   0.912
98831W        W60252  17.149  34.596  13.814
98832W        W60253  10.661   7.889   3.307
98833W        W60254  36.553  17.091  14.798
98834W        W60255  12.822  20.577   0.778
98835W        W60256   7.295  30.127   4.354
98836W        W60257  13.307  38.887  10.553
98837W        W60258  17.691  19.066  12.845
98838W        W60259  14.150  37.578   2.319
98839W        W60260  17.797  13.243  14.369
98840W        W60261  11.163  33.043   1.892
98841W        W60262  28.078   3.908   5.236
98842W        W60263  27.557  14.636  11.558
98843W        W60264  10.656  10.264   2.870
98844W        W60265  43.818  32.518   3.852
98845W        W60266  10.734  34.000   2.735
98846W        W60267   8.201   1.771  13.433
98847W        W60268  18.748   3.863  10.553
98848W        W60269  30.942   0.424   1.442
98849W        W60270  31.025  13.701  11.602
98850W        W60271  39.045  10.262   3.169
98851W        W60272  27.088   8.876   1.311
98852W        W60273   1.881   4.868   0.276
98853W        W60274   2.268   6.212  10.455
98854W        W60275   9.223   6.699   1.382
98855W        W60276  21.112  29.551   1.280
98856W        W60277  18.159  42.520   1.703
98857W        W60278  16.791  35.931   2.278
98858W        W60279  14.707  34.116  11.437
98859W        W60280  28.666  22.154  13.352
98860W        W60281  32.944  20.739   2.769
98861W        W60282  22.585   8.786   1.398
98862W        W60283  25.064   8.313  13.798
98863W        W60284  41.506   3.459  11.440
98864W        W60285   3.405  35.099   0.406
98865W        W60286  27.010   0.796   0.284
98866W        W60287  37.542  33.096   2.670
98867W        W60288  38.019   7.865  13.017
98868W        W60289  12.739  39.900   1.449
98869W        W60290  21.090   0.279  12.375
98870W        W60291   7.751   4.289  13.979
98871W        W60292   2.320  28.488   3.331
98872W        W60293  10.860  35.921  13.985
98873W        W60294  32.448  29.424  14.287
98874W        W60295  36.439  21.254   3.691
98875W        W60296   4.856  38.005  12.341
98876W        W60297  19.636  28.157   1.814
98877W        W60298   8.844  22.695   4.250
98878W        W60299  43.359  11.851  11.592
98879W        W60300   5.199  13.110  13.386
98880W        W60301  16.232  34.388  11.535
98881W        W60302  20.084  21.187   4.724
98882W        W60303  22.612  14.595  11.965
98883W        W60304  23.638  14.669  14.972
98884W        W60305  28.959  32.050  13.927
98885W        W60306   5.870  19.254   3.156
98886W        W60307   4.338   6.823   1.376
98887W        W60308  27.505  16.096   0.738
98888W        W60309  19.592  10.872  11.481
98889W        W60310  24.590  11.817   1.421
98890W        W60311  35.439   9.756   2.366
98891W        W60312  36.940   8.257  11.916
98892W        W60313  33.393  29.000  10.590
98893W        W60314  24.991  16.302  13.016
98894W        W60315  19.273   2.430  10.968
98895W        W60316  34.587  42.020   3.797
98896W        W60317   0.335  21.205   4.786
98897W        W60318   5.226  37.415   4.693
98898W        W60319  40.011  41.005  12.547
98899W        W60320  17.143  11.274  10.628
98900W        W60321  40.470  37.361   3.657
98901W        W60322  20.065  27.672   0.807
98902W        W60323   6.844  43.360   1.399
98903W        W60324  30.609  23.036  12.980
98904W        W60325  12.850  16.163   0.432
98905W        W60326  27.953  21.156  12.941
98906W        W60327   1.933  34.372   4.195
98907W        W60328  25.551  26.975  12.572
98908W        W60329  27.543  19.604  13.939
98909W        W60330   6.865  14.820   3.714
98910W        W60331   6.918  31.898   3.366
98911W        W60332   0.813  34.106   3.801
98912W        W60333  40.408  34.074  13.039
98913W        W60334  24.128  32.955   3.632
98914W        W60335  14.256  26.616   1.883
98915W        W60336   8.788   1.288   3.682
98916W        W60337  11.289   8.816  11.954
98917W        W60338  23.721  37.420  10.508
98918W        W60339  23.670   4.853  14.814
98919W        W60340  32.008  35.949   4.699
98920W        W60341  34.505  19.698  10.914
98921W        W60342  31.609  39.824  10.414
98922W        W60343  11.624   3.334  14.428
98923W        W60344  24.221  11.222  12.429
98924W        W60345   7.776  14.631   4.817
98925W        W60346  27.547  10.168  12.858
98926W        W60347  18.278  44.889   4.229
98927W        W60348  19.570  19.769   1.315
98928W        W60349  37.433  22.065   4.763
98929W        W60350  27.045  33.102   2.800
98930W        W60351  23.602  35.453  11.475
98931W        W60352  41.865  22.519  14.943
98932W        W60353  13.267  39.058   2.216
98933W        W60354  44.845  20.677   3.269
98934W        W60355  25.667  12.145  11.020
98935W        W60356  40.455   9.817  12.480
98936W        W60357   7.279   5.934  10.548
98937W        W60358  19.767  13.332   2.750
98938W        W60359  15.267  27.498   3.171
98939W        W60360  25.712  23.606  10.989
98940W        W60361  14.824   7.792   3.674
98941W        W60362   2.387   3.740  12.343
98942W        W60363  15.601  19.601   0.247
98943W        W60364   6.247  21.739  14.774
98944W        W60365  28.016  39.323   0.408
98945W        W60366  20.214  22.194  14.811
98946W        W60367  27.452  37.453  12.518
98947W        W60368   9.320  18.148   4.827
98948W        W60369   3.314  23.999   1.367
98949W        W60370  44.776  43.991   4.143
98950W        W60371  32.116   4.908   0.813
98951W        W60372  43.469  10.860   0.771
98952W        W60373  11.716  14.694   2.744
98953W        W60374  44.487   0.848  11.875
98954W        W60375  23.073  23.620  11.891
98955W        W60376  10.790  24.148  10.482
98956W        W60377  38.536  44.355  14.980
98957W        W60378   0.791  13.704  14.283
98958W        W60379  25.168  39.496   1.304
98959W        W60380   1.375  43.279   4.629
98960W        W60381  28.014   5.423   2.703
98961W        W60382   8.766  15.803  10.440
98962W        W60383  18.672  16.713   1.331
98963W        W60384  22.099  10.383  13.387
98964W        W60385  36.068  37.571   0.782
98965W        W60386   8.856   6.284   0.429
98966W        W60387  33.495  42.445  11.862
98967W        W60388  31.030   0.385  10.989
98968W        W60389  10.659  38.974   0.791
98969W        W60390  33.890  40.493   1.246
98970W        W60391  19.098  41.462  13.872
98971W        W60392  24.686  22.720   1.875
98972W        W60393  29.648   0.869  13.030
98973W        W60394  44.321  35.055   3.231
98974W        W60395  28.176   0.357   2.795
98975W        W60396  18.253   5.878   3.642
98976W        W60397  13.629  31.150   2.746
98977W        W60398  25.036  11.345  13.979
98978W        W60399  42.509  43.932   4.754
98979W        W60400  35.967  20.256  13.332
98980W        W60401  44.400  13.318  10.640
98981W        W60402   0.417  16.651   3.266
98982W        W60403  21.686   3.934   3.802
98983W        W60404  34.546   1.325   5.243
98984W        W60405  26.690  17.771  13.372
98985W        W60406  17.795  17.761   4.133
98986W        W60407   9.789  13.685  13.951
98987W        W60408  36.851  35.386  13.966
98988W        W60409  18.106  25.684  14.867
98989W        W60410  19.710  19.104   0.819
98990W        W60411   1.444  41.861   1.744
98991W        W60412  19.042  11.201  11.407
98992W        W60413  26.640  31.040  12.341
98993W        W60414  18.640  17.591  11.937
98994W        W60415  18.762  16.209   1.890
98995W        W60416  20.096  31.499   3.743
98996W        W60417  36.954  36.483   1.269
98997W        W60418  35.456  12.666  13.985
98998W        W60419  28.649  26.988  11.871
98999W        W60420  20.067  34.110  12.092
99000W        W60421   1.397  38.533  13.464
99001W        W60422  15.823  26.108  11.057
99002W        W60423   3.400  24.179   0.395
99003W        W60424  25.070  34.876  14.340
99004W        W60425   5.700  40.309   0.273
99005W        W60426   4.758  22.030  12.512
99006W        W60427  15.127  39.044  12.373
99007W        W60428  22.021  23.227  13.926
99008W        W60429  14.320   7.228  12.845
99009W        W60430  26.650  11.831   2.353
99010W        W60431   5.828  16.158  11.008
99011W        W60432   5.861  39.961   1.859
99012W        W60433  42.465  32.589   0.358
99013W        W60434  26.698  40.409   2.802
99014W        W60435  12.783  33.958  14.446
99015W        W60436  21.548   7.902   4.117
99016W        W60437  28.091  38.412  10.583
99017W        W60438  40.423  34.553  10.025
99018W        W60439  13.154  40.407  11.474
99019W        W60440  43.766  21.626   3.314
99020W        W60441   0.911  39.445   3.818
99021W        W60442  10.774  22.709  14.413
99022W        W60443   6.388  25.623   5.806
99023W        W60444   0.342   3.741  11.589
99024W        W60445   5.275   5.420   0.314
99025W        W60446  36.376  21.533   1.317
99026W        W60447  29.087  42.494   4.272
99027W        W60448   0.308  33.450  14.902
99028W        W60449  29.440  24.575   4.158
99029W        W60450  28.159  21.733  13.308
99030W        W60451  44.347  28.132  14.466
99031W        W60452  16.726   8.175  11.954
99032W        W60453  30.623   5.430   1.845
99033W        W60454  19.581   9.279   2.323
99034W        W60455  19.637   6.834  14.372
99035W        W60456  12.262  15.620   5.274
99036W        W60457   5.432  17.710  14.391
99037W        W60458   1.922   4.384  12.558
99038W        W60459  25.589  12.719   2.683
99039W        W60460  33.117  41.302   2.801
99040W        W60461  32.957  32.516  11.080
99041W        W60462  27.086  24.068  10.062
99042W        W60463  29.963  42.910  13.046
99043W        W60464  39.425  32.083   2.845
99044W        W60465  20.045  39.042  14.935
99045W        W60466   6.784  25.127   4.152
99046W        W60467  25.080   7.904   3.816
99047W        W60468  31.614  13.675   1.696
99048W        W60469  22.693  25.094   2.411
99049W        W60470  34.047  37.412  13.995
99050W        W60471   3.773  19.659   1.441
99051W        W60472   6.333   3.310  10.452
99052W        W60473   2.379   5.881   2.859
99053W        W60474  35.495  16.219   0.824
99054W        W60475  34.500  14.238  11.514
99055W        W60476  26.066  24.050  12.889
99056W        W60477   7.414  17.703  14.813
99057W        W60478   9.665  36.533   0.281
99058W        W60479  25.496   2.740  10.424
99059W        W60480  41.340  40.374  10.894
99060W        W60481  22.649  19.124  13.313
99061W        W60482  32.985  27.639   0.481
99062W        W60483  41.533  33.390  11.044
99063W        W60484   4.268  16.693   0.309
99064W        W60485  43.464  33.557  12.882
99065W        W60486  34.055  40.393  14.281
99066W        W60487  16.712  25.700  13.858
99067W        W60488  15.676   4.795   0.440
99068W        W60489  28.033  11.784   3.160
99069W        W60490  18.140  38.857  11.457
99070W        W60491  28.187  27.678  13.866
99071W        W60492  17.591   2.345   4.657
99072W        W60493  23.209   6.754   2.191
99073W        W60494   7.368   8.190  12.565
99074W        W60495  35.087   5.371  10.943
99075W        W60496   9.689  25.039   3.869
99076W        W60497  10.163  32.915  14.472
99077W        W60498  30.108  33.403  13.858
99078W        W60499  30.098  41.940   1.750
99079W        W60500  14.244   7.404  10.962
99080W        W60501   8.655  26.069   0.780
99081W        W60502  30.649  23.536  13.854
99082W        W60503   4.348  35.407   0.855
99083W        W60504  11.830  38.444   1.380
99084W        W60505  15.627  26.634  10.039
99085W        W60506  25.596   5.248   9.579
99086W        W60507  25.184   4.931   4.690
99087W        W60508  44.363  41.321   4.222
99088W        W60509   5.918  37.997   2.284
99089W        W60510  33.434  39.827  10.100
99090W        W60511   4.276  11.267  12.077
99091W        W60512  12.157  30.467   4.690
99092W        W60513  28.596  21.648  14.891
99093W        W60514  15.594  23.100  13.309
99094W        W60515  20.198  24.595   2.663
99095W        W60516  21.250  18.114  10.415
99096W        W60517   3.850  31.476  14.478
99097W        W60518   9.373  17.263  10.588
99098W        W60519  32.981  27.010  11.605
99099W        W60520  44.768  19.698   1.230
99100W        W60521  39.970   7.686   0.785
99101W        W60522  35.985  13.121  11.393
99102W        W60523  11.786  43.354  14.877
99103W        W60524   4.301   1.307  11.091
99104W        W60525   7.732  22.598   2.393
99105W        W60526  24.025   7.336  12.356
99106W        W60527  14.294  23.045  12.927
99107W        W60528  27.131  41.392   0.930
99108W        W60529  24.039  10.338   1.823
99109W        W60530  43.513   0.759   2.782
99110W        W60531  20.545  43.868   2.247
99111W        W60532  10.169  33.544   5.317
99112W        W60533  30.008  10.670   9.985
99113W        W60534  31.514  23.016  11.129
99114W        W60535  30.009  39.451   1.413
99115W        W60536   7.386  19.634   0.463
99116W        W60537  13.273  28.589  11.518
99117W        W60538   0.946  35.079   2.399
99118W        W60539   8.685  37.569  10.494
99119W        W60540   9.202   6.254  14.804
99120W        W60541  40.409  19.131   4.207
99121W        W60542   9.825  44.353  12.894
99122W        W60543   2.376   9.805  10.995
99123W        W60544  33.396  17.556  12.397
99124W        W60545  42.384  40.943  10.943
99125W        W60546  41.349  24.051  11.952
99126W        W60547  42.010  33.439   3.332
99127W        W60548  41.840  40.033  14.295
99128W        W60549  21.100  37.435  11.099
99129W        W60550   7.882  10.329  14.325
99130W        W60551  43.500  44.375   3.296
99131W        W60552  21.133  27.958   0.925
99132W        W60553  23.143   3.249   5.286
99133W        W60554  21.261   6.372  14.321
99134W        W60555   7.844  23.119   2.721
99135W        W60556  27.665   8.286  10.627
99136W        W60557  34.411   4.727  14.405
99137W        W60558  12.710   6.330  13.522
99138W        W60559  17.667   4.906   2.352
99139W        W60560   8.775  11.133  14.352
99140W        W60561  36.003  21.030   3.250
99141W        W60562  19.627   2.470  11.512
99142W        W60563   4.345  21.518   1.284
99143W        W60564  35.904  29.090  12.464
99144W        W60565  37.481  37.044  14.379
99145W        W60566  39.986  43.022  11.048
99146W        W60567  12.677  26.166  11.472
99147W        W60568   7.784  35.860   3.813
99148W        W60569  37.057  17.793  12.461
99149W        W60570  39.899  41.809   4.113
99150W        W60571   1.349  24.654   3.318
99151W        W60572  15.799   2.763  13.354
99152W        W60573  31.576  21.193   1.722
99153W        W60574  15.218   1.882   2.778
99154W        W60575  18.245  21.036  11.103
99155W        W60576  27.194   6.342   3.707
99156W        W60577  10.764  20.098  13.895
99157W        W60578  40.361   6.223   3.782
99158W        W60579  10.649  40.458  13.837
99159W        W60580  23.169  21.689   4.727
99160W        W60581  33.539  35.436   3.829
99161W        W60582  27.678  12.155  10.990
99162W        W60583  26.153  26.205  10.582
99163W        W60584   9.350  20.606  11.421
99164W        W60585  10.297  25.546  11.549
99165W        W60586  28.072  10.635   2.350
99166W        W60587  30.459   2.833  13.969
99167W        W60588   5.372  38.443  12.885
99168W        W60589  32.463  36.064  14.474
99169W        W60590  26.968  42.925   3.647
99170W        W60591  43.272  23.071   2.856
99171W        W60592  39.512  20.199   1.891
99172W        W60593  30.052  27.159   2.358
99173W        W60594  40.874   4.309   0.362
99174W        W60595  17.230  11.764   1.409
99175W        W60596  39.949   6.239  12.422
99176W        W60597   0.369  43.425  12.437
99177W        W60598  43.961  11.154  14.381
99178W        W60599   0.264   5.890   1.398
99179W        W60600   6.328  36.358   3.839
99180W        W60601   7.240  35.451  13.472
99181W        W60602  18.176  40.006   4.171
99182W        W60603  36.955  44.271   1.368
99183W        W60604   0.822  18.115   5.309
99184W        W60605  39.904  11.303   9.986
99185W        W60606   3.804  41.909  11.380
99186W        W60607  26.580  14.221   4.304
99187W        W60608  33.384   7.727   3.174
99188W        W60609  40.391  19.168  14.497
99189W        W60610  23.727  13.619  11.596
99190W        W60611  24.091  42.800   0.787
99191W        W60612  44.987   2.929  12.410
99192W        W60613  27.946   5.709   3.814
99193W        W60614  34.432  28.543   1.301
99194W        W60615  31.011  43.327   1.233
99195W        W60616  20.227  10.648   1.784
99196W        W60617  44.355  23.162   0.476
99197W        W60618  44.860   9.710  13.323
99198W        W60619  20.155  28.954  12.510
99199W        W60620   5.707  29.627  13.978
99200W        W60621  32.418   8.400  13.030
99201W        W60622  12.235   2.353   3.170
99202W        W60623  43.328  39.439  11.938
99203W        W60624  12.620  35.907  11.914
99204W        W60625  12.846  24.562   4.163
99205W        W60626  25.031  11.642   4.747
99206W        W60627  30.636   5.743   1.329
99207W        W60628  13.677  20.111  13.042
99208W        W60629   0.892  26.633   4.671
99209W        W60630  19.157   6.403  13.538
99210W        W60631   7.271   6.246  12.981
99211W        W60632  29.618   4.784   1.340
99212W        W60633   2.237  43.816   0.439
99213W        W60634  34.376  14.669  14.298
99214W        W60635  24.205  39.467   1.407
99215W        W60636  39.519  39.323   2.407
99216W        W60637   6.220  40.456   1.838
99217W        W60638  44.417  15.221  12.065
99218W        W60639  29.479   2.800  14.296
99219W        W60640   3.744  41.346  13.319
99220W        W60641   5.383  33.622   4.707
99221W        W60642  27.541  40.829   0.867
99222W        W60643  35.029   5.294   4.773
99223W        W60644  21.174  38.409   0.774
99224W        W60645  14.810   0.255  10.486
99225W        W60646  11.305  26.040  11.975
99226W        W60647  24.657   9.213   1.862
99227W        W60648   7.679  39.498   2.830
99228W        W60649   1.249   8.170   0.314
99229W        W60650  30.160  24.083  14.023
99230W        W60651  19.592  15.230   0.779
99231W        W60652  14.613   0.830  10.099
99232W        W60653  41.425   3.344  14.919
99233W        W60654  40.902  38.054   1.443
99234W        W60655  18.061  42.517  13.063
99235W        W60656  12.614  40.488  12.456
99236W        W60657  33.514  21.194   4.837
99237W        W60658  42.936  20.560  12.013
99238W        W60659  31.968  21.099   1.259
99239W        W60660   6.239  29.136   1.210
99240W        W60661   5.306  24.627  14.305
99241W        W60662   2.265  36.891  12.452
99242W        W60663  31.145  12.642   4.225
99243W        W60664  17.734  12.748  14.996
99244W        W60665  39.920  10.673   0.299
99245W        W60666  26.635  43.483   1.411
99246W        W60667  20.690  29.531   3.375
99247W        W60668  39.957  30.054  14.907
99248W        W60669  25.546  14.202   0.790
99249W        W60670  19.259  13.198  11.870
99250W        W60671  34.048   2.273   3.756
99251W        W60672  35.423  34.444   3.232
99252W        W60673  28.600  27.498   0.963
99253W        W60674  42.377  29.961  13.018
99254W        W60675  10.381  30.064   1.818
99255W        W60676   6.365  11.354  12.473
99256W        W60677  18.575  43.902  14.460
99257W        W60678  18.576  27.692   4.183
99258W        W60679  28.549  29.666   1.424
99259W        W60680  13.129  26.465   4.332
99260W        W60681  22.537  10.171  12.838
99261W        W60682  21.081  14.835  11.515
99262W        W60683  21.732  17.095   3.188
99263W        W60684  38.851  19.717  10.628
99264W        W60685  21.083  44.926   3.843
99265W        W60686  31.477  28.578  12.545
99266W        W60687   0.292   2.346  14.917
99267W        W60688  26.616   1.463  13.491
99268W        W60689   0.913  21.046   4.755
99269W        W60690  19.080  20.724  11.951
99270W        W60691  22.112  23.008   2.323
99271W        W60692  33.005  35.485  10.413
99272W        W60693  10.247  28.645  11.499
99273W        W60694  32.618  34.571   4.174
99274W        W60695  33.965  22.591   2.310
99275W        W60696  43.979  30.089  11.061
99276W        W60697  12.171  38.006   1.283
99277W        W60698  36.521   1.418  11.096
99278W        W60699  30.476  42.804   3.303
99279W        W60700  16.221  28.177   3.738
99280W        W60701  22.740  38.030  13.484
99281W        W60702  17.225  37.444  10.484
99282W        W60703   1.774   2.750  13.456
99283W        W60704  30.138  33.500  11.388
99284W        W60705   1.358  28.179  11.912
99285W        W60706   6.261   3.395   0.316
99286W        W60707  22.052  15.610  11.509
99287W        W60708  12.677  17.709  10.492
99288W        W60709   1.815  37.503   1.762
99289W        W60710  42.478  28.658   1.841
99290W        W60711  27.991  33.382   4.613
99291W        W60712  18.590  31.517  10.995
99292W        W60713  32.098  10.729  13.982
99293W        W60714   5.436  34.105  11.927
99294W        W60715  16.660  16.083  12.463
99295W        W60716  35.865  23.083  12.829
99296W        W60717  30.996  24.073  12.472
99297W        W60718   5.907  36.578   4.176
99298W        W60719  28.144  11.232   3.835
99299W        W60720   2.862  28.470   0.786
99300W        W60721   4.784   5.270   1.789
99301W        W60722  27.611  28.526   3.248
99302W        W60723   6.371  19.772  11.494
99303W        W60724  29.972  11.289   0.278
99304W        W60725   8.231  19.701   4.778
99305W        W60726  31.903   6.809   0.955
99306W        W60727  34.424   3.821   3.276
99307W        W60728  12.644   2.368   4.835
99308W        W60729  41.398   5.227  11.519
99309W        W60730  28.649  17.190   3.156
99310W        W60731  36.992  26.620  11.003
99311W        W60732  33.399  36.999  11.608
99312W        W60733   7.857  25.178   1.235
99313W        W60734  17.281   9.198  13.912
99314W        W60735  12.158  36.427  12.052
99315W        W60736  44.263  35.928   4.352
99316W        W60737   8.174  37.921   2.811
99317W        W60738   9.287   8.884  12.504
99318W        W60739  36.358   7.388  13.307
99319W        W60740  21.752  17.612  12.409
99320W        W60741  19.264  34.104   4.602
99321W        W60742  13.820  16.207  14.807
99322W        W60743  14.110  29.620   1.846
99323W        W60744  32.101  20.577   4.613
99324W        W60745  20.673   6.287  14.866
99325W        W60746  25.693  22.094  12.892
99326W        W60747  29.015  32.444  12.494
99327W        W60748  19.063  37.997   0.887
99328W        W60749  24.064   8.777  13.818
99329W        W60750  38.994  33.130   2.662
99330W        W60751  29.111  22.096   0.911
99331W        W60752  13.804   0.425   1.229
99332W        W60753  41.303  21.035  11.021
99333W        W60754  23.053  29.602  11.521
99334W        W60755  20.039  17.101  14.504
99335W        W60756  12.734  31.904  10.160
99336W        W60757  38.825  13.339  10.009
99337W        W60758  27.619  13.685  12.993
99338W        W60759  29.646   6.691  12.908
99339W        W60760  44.458  16.314  11.580
99340W        W60761  22.646   4.753   3.681
99341W        W60762  16.106  43.469  12.060
99342W        W60763  10.664  36.448  14.958
99343W        W60764  25.557  36.549  10.407
99344W        W60765  31.979   8.890  13.439
99345W        W60766  17.572  10.301   4.157
99346W        W60767   5.310  23.112   0.849
99347W        W60768   7.358   3.846   2.764
99348W        W60769  42.925  27.643  10.134
99349W        W60770  22.704   9.705  10.485
99350W        W60771  40.816   0.394   0.451
99351W        W60772   9.340   4.812  13.331
99352W        W60773  13.680   2.438  14.460
99353W        W60774  31.066   8.177   1.295
99354W        W60775  14.758  39.426   1.251
99355W        W60776   3.252  33.554   4.254
99356W        W60777  22.252   0.463  10.578
99357W        W60778  40.520  33.412  12.442
99358W        W60779  15.761  40.827  11.119
99359W        W60780   7.690   0.314  13.338
99360W        W60781  37.042  25.107   1.720
99361W        W60782  31.592  18.178   2.840
99362W        W60783  16.113  28.114   1.223
99363W        W60784  19.091  29.502   3.757
99364W        W60785  15.218  16.652   2.335
99365W        W60786  42.318  41.485   0.294
99366W        W60787   0.483  15.269  12.019
99367W        W60788   0.894   7.243   1.219
99368W        W60789  23.127  25.152  12.055
99369W        W60790  39.037  23.168  10.022
99370W        W60791   4.430   2.276   4.337
99371W        W60792  13.800   2.226  11.392
99372W        W60793   2.941  21.666   0.929
99373W        W60794  12.788  29.442  13.474
99374W        W60795  14.252  13.331   1.402
99375W        W60796   2.910  17.240   4.172
99376W        W60797  15.117  18.241   0.405
99377W        W60798  29.612  34.891   3.813
99378W        W60799  17.070  35.084   3.758
99379W        W60800  40.376  23.699  14.375
99380W        W60801  36.046   9.700   0.906
99381W        W60802  33.522  33.495   4.200
99382W        W60803  20.214   3.892  10.460
99383W        W60804  18.556  33.499   1.220
99384W        W60805  13.168  20.039   3.831
99385W        W60806  38.064  34.874  12.524
99386W        W60807  41.538  28.644   3.267
99387W        W60808  38.941  17.209   4.333
99388W        W60809  37.379  43.012  11.009
99389W        W60810  40.360  44.391   1.810
99390W        W60811  25.649  42.289  10.568
99391W        W60812  14.781  25.600   4.836
99392W        W60813  32.995   8.844   4.663
99393W        W60814   1.405   0.365  11.444
99394W        W60815  15.686  36.983  13.497
99395W        W60816  33.600  29.161   3.714
99396W        W60817  41.940   3.266  10.963
99397W        W60818  43.951  14.718  14.869
99398W        W60819  30.495  13.110   1.229
99399W        W60820  15.744  26.568  11.916
99400W        W60821  11.183  20.048   4.319
99401W        W60822  14.329  17.593  10.913
99402W        W60823  20.133  29.163  10.975
99403W        W60824  25.668  18.249   2.823
99404W        W60825  26.128  13.643   4.186
99405W        W60826  28.039  15.327   4.612
99406W        W60827  29.999  38.482   2.834
99407W        W60828  28.607  20.577   1.349
99408W        W60829  18.066   0.745  10.573
99409W        W60830  11.647  44.806  10.019
99410W        W60831  18.625  21.582   1.881
99411W        W60832  16.123  29.459   2.734
99412W        W60833  22.614  43.406  11.530
99413W        W60834  11.234  39.953   0.863
99414W        W60835   0.309  38.930  11.933
99415W        W60836  42.303   1.390   3.155
99416W        W60837   3.947   8.295   0.368
99417W        W60838  11.233  42.944  12.386
99418W        W60839  10.851  33.883  12.507
99419W        W60840  15.726   6.421  14.405
99420W        W60841  34.921  22.689   3.842
99421W        W60842   9.856  26.703  13.912
99422W        W60843  36.549   1.854   0.392
99423W        W60844  18.667  27.160  12.855
99424W        W60845   2.914  29.585  11.014
99425W        W60846  41.938   2.895   4.263
99426W        W60847   9.191  21.656  11.911
99427W        W60848  14.601  36.907  11.390
99428W        W60849  26.649   1.252   0.420
99429W        W60850  43.008  40.305   0.769
99430W        W60851   8.303  14.695   4.353
99431W        W60852  13.846  40.498   2.189
99432W        W60853  43.295  30.065  13.505
99433W        W60854  44.498  33.938   3.316
99434W        W60855  19.690  17.299  13.014
99435W        W60856  38.387   9.210   4.252
99436W        W60857  16.087  38.011  12.824
99437W        W60858  32.436   4.208  11.928
99438W        W60859   3.439  35.979   4.195
99439W        W60860  27.979   2.929   0.396
99440W        W60861  38.371  18.777   0.391
99441W        W60862  16.641  20.638  12.434
99442W        W60863  12.693  39.317  14.025
99443W        W60864   7.734  32.599  10.461
99444W        W60865  27.588  21.639  12.004
99445W        W60866   9.677  10.736   4.298
99446W        W60867  16.216  26.554   0.327
99447W        W60868  21.524  16.162  10.600
99448W        W60869   9.720  18.604   1.342
99449W        W60870  33.567  39.980  12.369
99450W        W60871  37.022  19.581  14.326
99451W        W60872  25.009  22.109   0.743
99452W        W60873   6.366  32.464   2.726
99453W        W60874  40.380  27.060   0.317
99454W        W60875  33.983  38.076  14.293
99455W        W60876  40.305  22.679   3.260
99456W        W60877  31.495  11.197  10.069
99457W        W60878  19.640  23.615  13.035
99458W        W60879   4.708   5.349   2.195
99459W        W60880  12.174  26.456   2.230
99460W        W60881  18.606  10.347   4.714
99461W        W60882  14.772  32.900  11.535
99462W        W60883   8.849  11.830  13.350
99463W        W60884  10.342   8.397   3.293
99464W        W60885   6.184  14.148  13.061
99465W        W60886  27.655  10.878   2.315
99466W        W60887  15.630  24.644   4.218
99467W        W60888  43.828  39.394  13.038
99468W        W60889  39.847  26.196  11.881
99469W        W60890  40.869  17.708  14.444
99470W        W60891  36.470  36.027  11.115
99471W        W60892  27.132  40.309  13.533
99472W        W60893  36.861  16.690   1.309
99473W        W60894  13.138   8.843   2.405
99474W        W60895  43.941  40.429   0.366
99475W        W60896  30.602  26.108  14.842
99476W        W60897  18.610  25.096   0.903
99477W        W60898  26.608  27.480  12.096
99478W        W60899   7.772  27.507   2.772
99479W        W60900  11.788  35.443  11.468
99480W        W60901  24.569  21.262  10.423
99481W        W60902   4.919  13.337  11.979
99482W        W60903  40.951  28.627  14.816
99483W        W60904   6.685  35.877   1.365
99484W        W60905  41.305  28.569   1.894
99485W        W60906  27.942  13.296   1.784
99486W        W60907  33.524  16.594  13.325
99487W        W60908  36.980  31.088  14.950
99488W        W60909  28.609  34.384   4.263
99489W        W60910  22.733   0.330  13.911
99490W        W60911  36.410   7.180   4.736
99491W        W60912  41.897  44.278  14.974
99492W        W60913  43.474  17.778  13.005
99493W        W60914  17.143  12.276  12.349
99494W        W60915   5.322   8.394  11.379
99495W        W60916  11.208   6.398   4.679
99496W        W60917  29.592  28.492  13.424
99497W        W60918  42.324  18.238   1.262
99498W        W60919  37.489  12.661  10.014
99499W        W60920  31.051  24.616   3.807
99500W        W60921   8.287  27.625   4.221
99501W        W60922  18.258  32.057  13.982
99502W        W60923  13.606  24.989  13.412
99503W        W60924  25.065   1.767  12.567
99504W        W60925  11.291  36.376  10.898
99505W        W60926   2.375  13.601   3.332
99506W        W60927   2.263   6.702  14.890
99507W        W60928   6.777  27.536  13.388
99508W        W60929  31.434  42.834  14.389
99509W        W60930  20.547  38.395  10.550
99510W        W60931  22.743   7.824  10.935
99511W        W60932  13.674  10.688   3.259
99512W        W60933  14.718  19.196  12.485
99513W        W60934  21.593  16.727   0.853
99514W        W60935  40.434   1.899  10.012
99515W        W60936   6.228   9.694  10.445
99516W        W60937  41.036   1.459  12.552
99517W        W60938  33.056  27.096  12.360
99518W        W60939  27.688  12.143  13.408
99519W        W60940  27.480  26.040   2.303
99520W        W60941  42.527  25.526  13.830
99521W        W60942  19.099  42.477   4.332
99522W        W60943  30.465  28.461  12.070
99523W        W60944  28.646  26.171  11.999
99524W        W60945   4.338  13.707   3.649
99525W        W60946  11.223  29.547  13.944
99526W        W60947  33.566  14.313  14.326
99527W        W60948  17.799   8.815  11.599
99528W        W60949  42.857  31.503   1.240
99529W        W60950  40.926  12.173   2.898
99530W        W60951   0.934  30.099  14.486
99531W        W60952   7.356  16.684   4.311
99532W        W60953  41.419  13.187  14.897
99533W        W60954  16.250  26.961  12.005
99534W        W60955  18.760  30.104   2.770
99535W        W60956  28.514  31.538   1.772
99536W        W60957  34.513  40.528  11.994
99537W        W60958  20.172  15.177  12.411
99538W        W60959  18.175  22.129   3.346
99539W        W60960  14.753  20.059  12.520
99540W        W60961  29.031   5.811   1.830
99541W        W60962  10.176  22.583  14.809
99542W        W60963   2.916  11.787   0.737
99543W        W60964  16.301  10.314   2.896
99544W        W60965  15.094   6.687   1.779
99545W        W60966   5.690  33.006   4.825
99546W        W60967  36.976  20.229  14.374
99547W        W60968   4.232  22.539  14.936
99548W        W60969  26.115  30.517  14.284
99549W        W60970  39.826  27.961  12.395
99550W        W60971   6.844   2.374   1.832
99551W        W60972  34.589  39.872   3.169
99552W        W60973  12.684  36.584   5.308
99553W        W60974  37.502  16.803   0.785
99554W        W60975   4.923  15.282   3.308
99555W        W60976  34.467  36.081  13.800
99556W        W60977  10.210   9.649  13.430
99557W        W60978  29.498  33.913  14.451
99558W        W60979  27.666   0.915   4.797
99559W        W60980  44.374  27.196   0.793
99560W        W60981  16.636  17.187  11.908
99561W        W60982  43.801  44.373   4.748
99562W        W60983   0.745  42.347   0.330
99563W        W60984  33.938  44.991   3.205
99564W        W60985   9.806  14.202  14.827
99565W        W60986  41.319  14.618  14.814
99566W        W60987  38.034  12.362  11.042
99567W        W60988  13.780  11.719   1.730
99568W        W60989  15.218   8.785   4.280
99569W        W60990   6.782  16.079  10.497
99570W        W60991  41.815  43.282  10.640
99571W        W60992  29.528  31.449   2.779
99572W        W60993  24.652  22.645  14.366
99573W        W60994  38.985  28.490  11.887
99574W        W60995  35.493   2.795  12.024
99575W        W60996  11.730  22.607  12.953
99576W        W60997  13.714  19.173  10.897
99577W        W60998  16.571   2.740   1.697
99578W        W60999  28.072  39.891   1.373
99579W        W61000  13.746  27.467  14.902
99580W        W61001   8.284  29.131   0.476
99581W        W61002  24.503   9.648  14.897
99582W        W61003  22.039  34.044  13.020
99583W        W61004   4.366   4.818   2.218
99584W        W61005  10.829  20.580  14.296
99585W        W61006  28.075  31.490  10.626
99586W        W61007  44.952  19.205   3.689
99587W        W61008  23.713  42.392   4.188
99588W        W61009  35.008  12.333   1.230
99589W        W61010  10.676  16.630  10.954
99590W        W61011  32.434  37.565  12.825
99591W        W61012  15.660  18.741  13.037
99592W        W61013  31.532  33.963  14.396
99593W        W61014  22.057  30.007  11.967
99594W        W61015  43.924  34.452   4.689
99595W        W61016  21.080   8.278   1.881
99596W        W61017  39.001  38.993   2.181
99597W        W61018  23.711  41.864  11.909
99598W        W61019  19.706  12.664   5.713
99599W        W61020  34.957  17.714   0.915
99600W        W61021  27.483  17.193   1.345
99601W        W61022  35.976  21.709  13.034
99602W        W61023   9.273  13.652   0.456
99603W        W61024   6.755  43.449  14.348
99604W        W61025   8.809  41.411  10.033
99605W        W61026   4.736   6.324  13.481
99606W        W61027   5.355   1.940  11.948
99607W        W61028   9.663  15.739  11.102
99608W        W61029  38.043  24.559  12.944
99609W        W61030  25.080  40.863   3.189
99610W        W61031  19.753   0.792   4.776
99611W        W61032   3.247  34.487   4.828
99612W        W61033  24.629   3.260  12.028
99613W        W61034  30.601  27.037  12.848
99614W        W61035   9.350  23.550   2.385
99615W        W61036   5.255  14.124  12.094
99616W        W61037  37.337  44.808  12.966
99617W        W61038   5.706  18.206  14.810
99618W        W61039   6.218  18.109  13.876
99619W        W61040   9.359  39.464  14.870
99620W        W61041  15.248   3.754  12.552
99621W        W61042  33.493  24.576   3.724
99622W        W61043   4.450  35.389  12.038
99623W        W61044   9.877  40.498   1.385
99624W        W61045  43.507   8.845   2.305
99625W        W61046  18.269  26.067   1.432
99626W        W61047  27.668  41.422  14.004
99627W        W61048  22.129  13.618  10.485
99628W        W61049  31.404   6.421   2.285
99629W        W61050  26.102  18.229  11.413
99630W        W61051   9.715  22.125  11.986
99631W        W61052  44.914  30.159  11.923
99632W        W61053  19.283  16.727   9.493
99633W        W61054  32.457  30.148  10.543
99634W        W61055  27.185  19.176  11.460
99635W        W61056   3.808  41.309  12.555
99636W        W61057   0.863  43.951  12.428
99637W        W61058  10.236  33.389  13.335
99638W        W61059  21.524  42.354   3.782
99639W        W61060  42.023  41.847   1.858
99640W        W61061  25.150  34.915  10.475
99641W        W61062  17.300  31.049   3.735
99642W        W61063  27.025  20.691  11.397
99643W        W61064   3.862   0.945   5.737
99644W        W61065  29.011   1.478   3.864
99645W        W61066  16.693  44.347   2.750
99646W        W61067  10.777  25.037   2.771
99647W        W61068  25.091  17.120  12.825
99648W        W61069  17.233   9.840   4.347
99649W        W61070  44.985  26.543  10.622
99650W        W61071   4.333   6.221   3.755
99651W        W61072   9.768  31.532   3.279
99652W        W61073  20.576  40.462   1.335
99653W        W61074  37.353  12.682   2.349
99654W        W61075  36.361  31.045   4.630
99655W        W61076  34.967   9.684   1.350
99656W        W61077  29.523  37.503  11.901
99657W        W61078  21.175  31.118  12.970
99658W        W61079   7.399   5.390  14.946
99659W        W61080  41.876   5.345  11.876
99660W        W61081  20.075  25.708  14.416
99661W        W61082  20.720  32.415   1.352
99662W        W61083  37.083  34.043   4.637
99663W        W61084   8.811   7.194   3.710
99664W        W61085  30.435  27.487   3.240
99665W        W61086  30.997  11.294   3.228
99666W        W61087  39.407  29.164  13.502
99667W        W61088   6.710  34.572  12.930
99668W        W61089   3.354  15.206   3.862
99669W        W61090   2.885  17.068   2.787
99670W        W61091  36.077  24.610   3.181
99671W        W61092   0.838   8.345   1.422
99672W        W61093  30.096  17.106  14.323
99673W        W61094  32.513  35.508  13.965
99674W        W61095   3.862  38.908   1.803
99675W        W61096   5.692  23.215   2.348
99676W        W61097  31.080   8.729  11.905
99677W        W61098  22.565  33.908  14.276
99678W        W61099  22.209  44.331  11.106
99679W        W61100  44.779  23.208  11.440
99680W        W61101  21.616  11.186   1.780
99681W        W61102  13.677  10.712  13.878
99682W        W61103  36.035  11.128  13.984
99683W        W61104   0.820  29.443  12.496
99684W        W61105   9.821  21.131   2.345
99685W        W61106  26.117  25.000  14.778
99686W        W61107  40.304   2.320   1.868
99687W        W61108   9.867  24.098  12.981
99688W        W61109  16.636  30.419  10.627
99689W        W61110  42.405   5.731   0.747
99690W        W61111   3.791   1.885  13.978
99691W        W61112  38.864   0.486   3.340
99692W        W61113  25.575  27.940  11.466
99693W        W61114  27.031  30.934  10.620
99694W        W61115  17.782  32.113  10.430
99695W        W61116  11.312  19.594   2.239
99696W        W61117   4.328  17.741   1.253
99697W        W61118  12.663  27.948   3.728
99698W        W61119  26.039  29.015   4.815
99699W        W61120   2.288  15.227  13.928
99700W        W61121  38.334   4.858  14.356
99701W        W61122  37.456  32.616   1.419
99702W        W61123  21.125  18.222  13.527
99703W        W61124  20.140  30.963  12.015
99704W        W61125   9.208  44.875  12.493
99705W        W61126  31.100  21.631   4.122
99706W        W61127  27.640   8.203   0.287
99707W        W61128   6.844  11.183   3.339
99708W        W61129   1.798  40.374   5.082
99709W        W61130   4.206  35.601  14.496
99710W        W61131   9.831  24.043   2.338
99711W        W61132   9.160  25.020  10.517
99712W        W61133  34.954  38.847   4.808
99713W        W61134  40.804  10.292  14.457
99714W        W61135  43.865  40.437  10.995
99715W        W61136  20.545   0.956   2.372
99716W        W61137  30.962  31.106   2.787
99717W        W61138   5.338  22.225   5.115
99718W        W61139  17.787   2.816  12.551
99719W        W61140   5.726  31.586  10.976
99720W        W61141  33.568  10.862   4.282
99721W        W61142  39.543  12.180   4.207
99722W        W61143  36.437  44.367  14.784
99723W        W61144  40.389  12.786  13.886
99724W        W61145  36.367  35.932   4.727
99725W        W61146  18.637   2.747  11.388
99726W        W61147  39.808  35.973   4.237
99727W        W61148   1.920   1.786  14.819
99728W        W61149  25.597   4.902  10.097
99729W        W61150  11.263  20.121  12.512
99730W        W61151  42.953  40.372   2.895
99731W        W61152   7.255  15.230   3.850
99732W        W61153  29.921  40.347  12.367
99733W        W61154   1.392  32.393  12.878
99734W        W61155  29.610  36.382   0.260
99735W        W61156  23.056  18.289   0.406
99736W        W61157  31.539  16.130  11.976
99737W        W61158   8.395  23.134   3.732
99738W        W61159  43.492   5.735  14.933
99739W        W61160  17.117   8.869   0.250
99740W        W61161  34.017   0.277   5.319
99741W        W61162  36.070  24.105   0.416
99742W        W61163  35.960  25.010  10.953
99743W        W61164  36.415  38.926  13.390
99744W        W61165  38.024  12.653   4.129
99745W        W61166  32.135  28.187  11.372
99746W        W61167  15.597  28.662   4.806
99747W        W61168  19.742  35.528   4.323
99748W        W61169  11.175   7.185   3.754
99749W        W61170  14.771  15.257   0.280
99750W        W61171  18.055  33.448  12.939
99751W        W61172   2.758  14.776   3.857
99752W        W61173  25.688  26.554   9.921
99753W        W61174  25.166  11.130  10.002
99754W        W61175   5.194  33.595   3.861
99755W        W61176  39.985   4.361   4.798
99756W        W61177  18.728   7.701  12.421
99757W        W61178  29.451  14.105  12.511
99758W        W61179   6.306  12.292   0.311
99759W        W61180  39.974  24.085  10.414
99760W        W61181  18.591  32.961  13.979
99761W        W61182   7.193  31.056  10.477
99762W        W61183  17.302  40.329   1.707
99763W        W61184  26.669   4.262   4.182
99764W        W61185  27.452  39.852   3.768
99765W        W61186  17.649  40.928   1.283
99766W        W61187  11.731  13.183  13.828
99767W        W61188  10.142  42.412  11.554
99768W        W61189  19.559  10.239  11.499
99769W        W61190   3.346  35.408  14.013
99770W        W61191  26.169   8.347  12.462
99771W        W61192   6.818  15.307  11.391
99772W        W61193  19.670  40.892   0.258
99773W        W61194  24.992  44.447   0.335
99774W        W61195  39.356  29.629   1.450
99775W        W61196  15.691  13.715  10.038
99776W        W61197  32.608   8.842  13.890
99777W        W61198   0.480  17.571  13.940
99778W        W61199  13.311  27.005  13.444
99779W        W61200  33.577  39.361  10.934
99780W        W61201  31.138   8.779   5.275
99781W        W61202  17.157  33.447   2.860
99782W        W61203  27.088  18.644  13.822
99783W        W61204  13.681  11.821   4.627
99784W        W61205  41.808  30.434  12.997
99785W        W61206  42.515  23.573   4.746
99786W        W61207  35.503  31.541   3.365
99787W        W61208  44.368   8.741   1.789
99788W        W61209  36.002  32.950   3.758
99789W        W61210  33.972  19.157   3.324
99790W        W61211  39.506  17.651  11.504
99791W        W61212   2.409  19.749   1.868
99792W        W61213  40.447  14.750   4.694
99793W        W61214  42.902  30.044   1.277
99794W        W61215   7.790  15.106   4.287
99795W        W61216  39.476   1.789   2.689
99796W        W61217  40.452   6.207   2.738
99797W        W61218  35.358  31.530  12.534
99798W        W61219  20.749  41.987   1.385
99799W        W61220  23.728  37.073  13.825
99800W        W61221  22.727  13.760   3.756
99801W        W61222   4.734   6.735  14.375
99802W        W61223  28.931  20.145  10.892
99803W        W61224  16.153   0.341   3.697
99804W        W61225   5.782  26.107  13.494
99805W        W61226  35.091  25.603   3.381
99806W        W61227  44.414  18.701   3.198
99807W        W61228   9.298  19.773   9.929
99808W        W61229  12.186  37.061  12.579
99809W        W61230  25.489  42.877  10.118
99810W        W61231  14.337  38.972  13.859
99811W        W61232  33.609  30.053   0.282
99812W        W61233   5.341  12.306   3.220
99813W        W61234  20.107  36.350   3.645
99814W        W61235  17.599  21.226   1.918
99815W        W61236  10.802  19.672   3.858
99816W        W61237  34.981  27.182  13.381
99817W        W61238   5.297   0.457   4.147
99818W        W61239  40.327   8.324  11.534
99819W        W61240  28.635  36.507  12.477
99820W        W61241   2.916  35.424  10.418
99821W        W61242   2.376  28.615  12.477
99822W        W61243  13.659  37.413   4.303
99823W        W61244   2.802  20.576  13.477
99824W        W61245  10.266   2.305  14.792
99825W        W61246  15.170  16.095  14.472
99826W        W61247  24.511   4.246  14.828
99827W        W61248  12.128  30.976  13.942
99828W        W61249  36.403   6.280   0.890
99829W        W61250   3.780  31.471   2.331
99830W        W61251   7.320  32.453  12.419
99831W        W61252   6.335  44.295  11.427
99832W        W61253  30.414  40.531  12.380
99833W        W61254  30.989  43.890  12.931
99834W        W61255  20.093  12.238  12.564
99835W        W61256  41.444  32.945   2.198
99836W        W61257  40.475  22.121  14.396
99837W        W61258  31.634  27.113   2.278
99838W        W61259   8.301  40.443  12.998
99839W        W61260  31.441  31.610  11.510
99840W        W61261  10.278   9.260  14.806
99841W        W61262  31.420  20.647   1.446
99842W        W61263  43.361  26.009  14.933
99843W        W61264  24.018   2.319   2.698
99844W        W61265  35.598  36.981  12.480
99845W        W61266  38.417  40.311  12.382
99846W        W61267  11.193  36.008   0.737
99847W        W61268  39.494  10.193   2.718
99848W        W61269   2.926  36.886   0.373
99849W        W61270  15.765  26.166   1.714
99850W        W61271  23.067  23.142   1.340
99851W        W61272  39.414   8.327   2.810
99852W        W61273  12.244  31.530   0.903
99853W        W61274   2.914   7.373  13.951
99854W        W61275  25.122  31.525   2.352
99855W        W61276  25.010  39.449   4.243
99856W        W61277  17.307  42.380   4.223
99857W        W61278  12.807   9.857  13.839
99858W        W61279   6.399   8.709  14.865
99859W        W61280  12.250  44.459  12.025
99860W        W61281  31.449   0.259   1.249
99861W        W61282  25.553  40.480  10.918
99862W        W61283  41.916  43.290  14.329
99863W        W61284  13.633   5.357   1.230
99864W        W61285  19.125  24.016   3.150
99865W        W61286  13.228   8.783  12.015
99866W        W61287  19.688  25.167   3.191
99867W        W61288  17.198  21.083   4.718
99868W        W61289  39.345  32.471  12.049
99869W        W61290  37.837   5.336   1.295
99870W        W61291  13.743  39.491   2.766
99871W        W61292  43.774  19.278  12.055
99872W        W61293  23.552  41.518  10.510
99873W        W61294  13.291  17.223   1.371
99874W        W61295  44.486  29.614   4.776
99875W        W61296  28.011  27.107  12.482
99876W        W61297   8.270  26.462  11.600
99877W        W61298   9.793  41.952   2.333
99878W        W61299  26.560  29.640   1.276
99879W        W61300  39.323  14.174  11.612
99880W        W61301  44.835  19.738   3.251
99881W        W61302  25.664  11.187  10.888
99882W        W61303  21.652  35.003   2.848
99883W        W61304  38.887   3.794   4.324
99884W        W61305  39.927  17.647  11.007
99885W        W61306  28.053  33.914  11.579
99886W        W61307   3.291  18.290   2.902
99887W        W61308  17.250  19.592   1.332
99888W        W61309  40.826  40.354  14.758
99889W        W61310  44.370  17.074  11.884
99890W        W61311  10.161  11.152  10.466
99891W        W61312  13.824   2.322   4.230
99892W        W61313   5.864  37.374   2.726
99893W        W61314  29.659  35.509   3.676
99894W        W61315  37.061  24.561   1.352
99895W        W61316  13.809  28.597   1.415
99896W        W61317  10.200   1.245   1.297
99897W        W61318  44.315  42.469   2.396
99898W        W61319  26.175  12.118  12.857
99899W        W61320  37.036   6.383  14.786
99900W        W61321   1.416  44.851  11.466
99901W        W61322  39.395  38.568   0.862
99902W        W61323  30.571  35.090  13.347
99903W        W61324   3.376  32.076  12.463
99904W        W61325  43.976  41.009   1.697
99905W        W61326   8.349   2.910   1.424
99906W        W61327  25.156  15.287   0.310
99907W        W61328  43.918  21.233   0.867
99908W        W61329  15.314  35.909  12.449
99909W        W61330  31.453  11.293   3.863
99910W        W61331  12.778  39.995   0.421
99911W        W61332  22.060  43.356  12.578
99912W        W61333  15.325  28.507   4.225
99913W        W61334  17.790  16.231  11.067
99914W        W61335  17.716  21.512  12.368
99915W        W61336  17.099  37.444   3.367
99916W        W61337   3.455  16.670  14.979
99917W        W61338  23.514  41.314  14.962
99918W        W61339  24.705  22.581   4.762
99919W        W61340  16.754  38.958  13.445
99920W        W61341  24.148  14.272   2.381
99921W        W61342   7.717  43.787  10.617
99922W        W61343  31.455   2.786  14.972
99923W        W61344   3.347   4.870   1.448
99924W        W61345  14.602  31.981   2.271
99925W        W61346  44.352   8.707  10.894
99926W        W61347  27.013  34.031   1.226
99927W        W61348  37.033  16.727  12.945
99928W        W61349  11.296   7.303  12.952
99929W        W61350  22.694  23.534   3.349
99930W        W61351  33.002  17.709   2.851
99931W        W61352  17.581  31.510   3.831
99932W        W61353  25.492  36.911  14.925
99933W        W61354  22.185  38.365   1.422
99934W        W61355  31.577  42.502   3.828
99935W        W61356  34.994  25.180  11.417
99936W        W61357  33.890   3.933  12.557
99937W        W61358  31.517  24.195   0.747
99938W        W61359  21.664  25.177   4.159
99939W        W61360  14.254  13.224   0.778
99940W        W61361  40.955   6.685   0.398
99941W        W61362   5.893   1.287  13.017
99942W        W61363  35.901  38.913  12.912
99943W        W61364  17.614  33.066   0.362
99944W        W61365  39.487  35.889  11.027
99945W        W61366  19.665  42.395   2.902
99946W        W61367  41.882  41.346  12.051
99947W        W61368  15.097  19.052  13.042
99948W        W61369  39.513  17.619  13.933
99949W        W61370  39.998   2.839  11.012
99950W        W61371   2.780   4.867  10.889
99951W        W61372  28.142  11.831  14.436
99952W        W61373  29.436  31.595   2.399
99953W        W61374  21.524   5.318   2.662
99954W        W61375  16.235  19.123   2.850
99955W        W61376   2.921  18.084  13.408
99956W        W61377  43.947  36.457   0.933
99957W        W61378  41.385  10.877   2.771
99958W        W61379  21.162  34.449   2.257
99959W        W61380  42.473  16.087  10.516
99960W        W61381  43.348  39.469   3.239
99961W        W61382  10.340  23.107   3.257
99962W        W61383  16.149  34.890  12.390
99963W        W61384  37.577  25.587   0.387
99964W        W61385  36.560  30.444  14.281
99965W        W61386  43.475   1.786   0.372
99966W        W61387  35.484  35.489  14.403
99967W        W61388  14.157  36.537  11.012
99968W        W61389  29.510  31.972  11.111
99969W        W61390  22.612   2.308   2.757
99970W        W61391  30.013   4.218   4.209
99971W        W61392  39.391  30.955  14.508
99972W        W61393   0.392  39.952   2.276
99973W        W61394  23.606  22.614   0.254
99974W        W61395   5.919  40.419  13.378
99975W        W61396   8.205  12.189  13.870
99976W        W61397  31.626  15.611  11.901
99977W        W61398  19.687  31.095   0.461
99978W        W61399  32.958  41.382  10.472
99979W        W61400  36.565  23.130   2.196
99980W        W61401  35.957  33.483  12.580
99981W        W61402  38.841  18.240  10.608
99982W        W61403  14.626   4.380  10.410
99983W        W61404   8.677  31.066  12.955
99984W        W61405  29.644  16.194   0.395
99985W        W61406  26.069   9.309   0.886
99986W        W61407  38.925   6.917  11.611
99987W        W61408  34.031  36.351  11.076
99988W        W61409  18.257  23.668  11.119
99989W        W61410  43.842  15.721  10.094
99990W        W61411   7.754  36.987  11.872
99991W        W61412  39.050   1.779   2.887
99992W        W61413  41.820   9.714  11.594
99993W        W61414  43.943   2.947  14.923
99994W        W61415  20.757  27.556   1.899
99995W        W61416  18.578  24.543   3.748
99996W        W61417  16.216  17.675  13.406
99997W        W61418  38.358  21.555   3.659
99998W        W61419  20.531  16.725  14.008
99999W        W61420  14.830   3.766  13.035
    0W        W61421  27.469  32.107  10.540
    1W        W61422  19.654  10.776  14.930
    2W        W61423  19.221  21.068  11.419
    3W        W61424   9.677  21.717  12.431
    4W        W61425  39.503  35.595   1.267
    5W        W61426  12.264   6.414   3.208
    6W        W61427   9.231  15.818  11.947
    7W        W61428  29.173  26.511   5.131
    8W        W61429  34.444  27.596   4.642
    9W        W61430  43.950  13.792  11.463
   10W        W61431  14.817   8.360  14.492
   11W        W61432   2.874  28.978  13.893
   12W        W61433  43.396  13.776   1.364
   13W        W61434   1.458   7.762   1.394
   14W        W61435  30.095  31.559  11.868
   15W        W61436  20.708   6.265   3.247
   16W        W61437  24.079  16.760   2.838
   17W        W61438   5.794  25.508  14.908
   18W        W61439  19.076  30.439  12.528
   19W        W61440  37.835  41.787   4.713
   20W        W61441  40.452  43.464   2.342
   21W        W61442  33.920   1.856   2.196
   22W        W61443  36.448  21.235   1.350
   23W        W61444  41.916  32.951  13.412
   24W        W61445  27.561  10.814  10.888
   25W        W61446  15.318  24.983   4.752
   26W        W61447  44.301  29.076   0.274
   27W        W61448  24.001  31.074  11.106
   28W        W61449  39.932  22.232   2.882
   29W        W61450  38.054  15.614  14.443
   30W        W61451  28.096   4.229  10.458
   31W        W61452  14.744  25.203  11.595
   32W        W61453  15.195  28.072  10.967
   33W        W61454   6.787  29.996   2.390
   34W        W61455   4.243  27.480   0.433
   35W        W61456  16.604   7.697   1.843
   36W        W61457  32.095  32.895  14.507
   37W        W61458  17.786   8.888  12.403
   38W        W61459  16.139  31.605   9.958
   39W        W61460  43.897   7.760   4.177
   40W        W61461  19.564  41.845  11.991
   41W        W61462  28.948  41.468  13.943
   42W        W61463  12.310  35.467   1.775
   43W        W61464  14.255  12.224  13.413
   44W        W61465   2.867  42.435  12.532
   45W        W61466  42.911   2.829  13.010
   46W        W61467   9.274  12.155  14.284
   47W        W61468  42.911   1.342  10.419
   48W        W61469   5.702  17.107   2.227
   49W        W61470  33.915   7.291   2.732
   50W        W61471  38.520   7.721  12.371
   51W        W61472  12.744  30.576  11.520
   52W        W61473   6.863  42.308   1.397
   53W        W61474  21.586  32.522  12.423
   54W        W61475  44.401   4.448  11.491
   55W        W61476   2.464  20.731   0.273
   56W        W61477   9.234  31.406   0.471
   57W        W61478   6.214  31.427   4.704
   58W        W61479  14.623  22.220   1.697
   59W        W61480  40.470  25.576   0.390
   60W        W61481  17.270  11.697  13.546
   61W        W61482  13.344   9.834  13.421
   62W        W61483  34.915  42.853   4.307
   63W        W61484  36.588   3.348  12.928
   64W        W61485  21.079  37.959   3.355
   65W        W61486   5.726   4.417   4.353
   66W        W61487  27.070  30.056  13.905
   67W        W61488   2.773   7.250   3.303
   68W        W61489  28.042  27.462   3.188
   69W        W61490  27.158   3.352   0.919
   70W        W61491  30.520   6.403   1.798
   71W        W61492  18.111  36.432   1.797
   72W        W61493   0.464   3.227  12.075
   73W        W61494  39.035  31.925   0.412
   74W        W61495   1.371  11.175  14.412
   75W        W61496  19.243  30.950  14.971
   76W        W61497  42.373   6.370  13.018
   77W        W61498   8.857  12.328  11.548
   78W        W61499  15.249  12.810  13.853
   79W        W61500  43.488  22.653   2.865
   80W        W61501  11.731   8.825   0.906
   81W        W61502  25.526  36.590  12.877
   82W        W61503  16.223  28.964  14.436
   83W        W61504   1.400  29.612   1.258
   84W        W61505  44.804  13.137   0.323
   85W        W61506   3.726  36.037  13.030
   86W        W61507  10.847  39.529  10.913
   87W        W61508  10.341  42.354  13.309
   88W        W61509  43.989  23.131  13.494
   89W        W61510  21.196  26.598   2.237
   90W        W61511   5.754  26.157   0.431
   91W        W61512  23.132   8.670  10.896
   92W        W61513   9.323  23.100   3.730
   93W        W61514  18.070  15.670  13.529
   94W        W61515  41.472  34.488  14.388
   95W        W61516   7.853  37.939   3.725
   96W        W61517  23.683  39.821   1.300
   97W        W61518  15.815  41.844  10.455
   98W        W61519  30.930  29.606   1.891
   99W        W61520  40.039  39.414   1.359
  100W        W61521  13.246  43.947   0.886
  101W        W61522  32.968  41.855   4.147
  102W        W61523  34.421  27.982  14.764
  103W        W61524  14.154  39.521   2.716
  104W        W61525  15.632   4.219  13.871
  105W        W61526  28.155   8.873  10.519
  106W        W61527  11.859  10.718  12.449
  107W        W61528  42.805   4.443  13.035
  108W        W61529  18.580  10.176  10.090
  109W        W61530  28.586  22.250   1.809
  110W        W61531  24.576   9.760   0.445
  111W        W61532  13.286  16.766  10.939
  112W        W61533  38.464  15.705  14.985
  113W        W61534  26.093  36.354   0.465
  114W        W61535  36.426  30.968   3.207
  115W        W61536   8.690  10.656   3.800
  116W        W61537  43.835  41.309   1.734
  117W        W61538  18.584  38.340  13.417
  118W        W61539  15.594  41.943  11.586
  119W        W61540  26.982   9.880  12.547
  120W        W61541  16.629  16.298  14.812
  121W        W61542  43.812  39.512  13.894
  122W        W61543  10.256  41.891  11.613
  123W        W61544  24.030  16.085   3.809
  124W        W61545   8.340  40.996  12.477
  125W        W61546  24.133   8.378   0.780
  126W        W61547   7.778  28.184  11.862
  127W        W61548  28.970  42.460   0.437
  128W        W61549   7.303  18.579  14.016
  129W        W61550  42.917   7.234  13.323
  130W        W61551  30.585  40.367  13.420
  131W        W61552   8.296  42.479   0.362
  132W        W61553  41.827  39.496   4.322
  133W        W61554  29.967  17.114   1.361
  134W        W61555  37.431  24.566  14.824
  135W        W61556  38.549  24.720   1.425
  136W        W61557  13.690   8.200  13.003
  137W        W61558  26.193   2.390   2.738
  138W        W61559  13.202  29.981   1.722
  139W        W61560  41.414  17.583  11.493
  140W        W61561  37.537  35.400   1.911
  141W        W61562  14.270  25.192  12.512
  142W        W61563  28.604  25.656   1.928
  143W        W61564  31.647  36.884   2.255
  144W        W61565   2.906  25.639   3.815
  145W        W61566  10.763   1.284   0.786
  146W        W61567  21.678  42.849   0.298
  147W        W61568  38.442  23.199  14.804
  148W        W61569  32.047  23.002  12.973
  149W        W61570  23.048   7.883   2.268
  150W        W61571  19.154   2.823   1.295
  151W        W61572  18.787   1.821  13.957
  152W        W61573  44.335  27.113  11.977
  153W        W61574   8.885   6.736  12.023
  154W        W61575   5.239  43.342  12.069
  155W        W61576  29.534  34.105  13.484
  156W        W61577  24.547  32.112   0.354
  157W        W61578  44.798   3.435  11.041
  158W        W61579  22.687  25.015  12.859
  159W        W61580   9.315  25.081  12.557
  160W        W61581  16.742   3.394  12.843
  161W        W61582  28.583   2.757  13.063
  162W        W61583   1.345  40.426   2.196
  163W        W61584  28.497  24.554   4.314
  164W        W61585  44.783   5.811   2.777
  165W        W61586  39.959  41.985   2.363
  166W        W61587  35.544  40.313   4.702
  167W        W61588  19.159  35.071  12.846
  168W        W61589   7.365  33.044   4.153
  169W        W61590  40.451   4.726  11.090
  170W        W61591   8.833  30.057  14.511
  171W        W61592  18.600  43.479  11.040
  172W        W61593   7.816  15.578  14.905
  173W        W61594  42.322  30.963  11.128
  174W        W61595  37.918   8.746  11.454
  175W        W61596  14.755   0.766  13.822
  176W        W61597  38.397  11.803   2.709
  177W        W61598   8.284  10.668  10.586
  178W        W61599  16.076  34.964  10.075
  179W        W61600  39.828  43.934  13.526
  180W        W61601  38.862  26.482   1.753
  181W        W61602  14.325  14.679   4.124
  182W        W61603  13.798  29.006   4.711
  183W        W61604  31.094   6.428   1.355
  184W        W61605  42.876  34.877  14.789
  185W        W61606  22.215  33.987  14.834
  186W        W61607  10.749   4.340   1.906
  187W        W61608  32.033  12.321  14.428
  188W        W61609  33.058  30.104  12.085
  189W        W61610   4.435  41.816   1.877
  190W        W61611  36.883  10.253   2.777
  191W        W61612  34.893  35.393   4.165
  192W        W61613   7.264  40.868  13.976
  193W        W61614   9.369  18.724  11.884
  194W        W61615   1.741  44.983   4.302
  195W        W61616  29.121  35.358   3.826
  196W        W61617   0.391  39.055   3.714
  197W        W61618  41.868  11.199   1.232
  198W        W61619  24.977  44.890   1.324
  199W        W61620  10.712  13.786   0.954
  200W        W61621   6.722  16.100  13.467
  201W        W61622   7.824   7.814   1.267
  202W        W61623  37.010  36.020  14.354
  203W        W61624  19.681  35.594  14.907
  204W        W61625  13.772  40.496  13.907
  205W        W61626  12.282  28.655   1.232
  206W        W61627  20.622  27.590  11.379
  207W        W61628   6.773  34.516   1.838
  208W        W61629  31.450  16.148  13.348
  209W        W61630  42.029  17.064  14.468
  210W        W61631  31.441  24.155  11.602
  211W        W61632  16.584  23.022   0.908
  212W        W61633  29.937   0.816  12.853
  213W        W61634   7.888  13.818  10.898
  214W        W61635  30.993  23.566   1.734
  215W        W61636  14.306  34.456   2.849
  216W        W61637  33.468  32.619   2.292
  217W        W61638  40.380  14.228  13.813
  218W        W61639  10.638  16.206   2.254
  219W        W61640  26.604  10.376   2.252
  220W        W61641   6.326  27.681   1.857
  221W        W61642  38.985  14.221   2.757
  222W        W61643  19.769  22.220   1.320
  223W        W61644  21.182  25.660  13.447
  224W        W61645  26.619  12.197   1.427
  225W        W61646  44.940   8.377   0.302
  226W        W61647  17.202   8.766   3.852
  227W        W61648   9.214   6.190  14.373
  228W        W61649  17.292  19.088  13.804
  229W        W61650  23.504  19.277  14.410
  230W        W61651  43.852  30.585   0.389
  231W        W61652  41.398  42.839   2.711
  232W        W61653   1.823  30.035  14.384
  233W        W61654   6.689   5.231  11.863
  234W        W61655   5.219   2.298   3.864
  235W        W61656  33.387  17.676  11.526
  236W        W61657  17.304  34.614  14.901
  237W        W61658  42.511  40.827  13.422
  238W        W61659  34.586  18.709   0.748
  239W        W61660  26.179  25.189   0.386
  240W        W61661  40.411   3.318  14.902
  241W        W61662   1.906  36.560  13.313
  242W        W61663  37.001  44.461  14.028
  243W        W61664  18.730   8.163  12.416
  244W        W61665  32.114   0.422   1.699
  245W        W61666  16.577  40.318  13.536
  246W        W61667  12.779  10.680  12.369
  247W        W61668  34.016   7.706   2.798
  248W        W61669  44.954  37.424   1.365
  249W        W61670  29.580   0.454  11.493
  250W        W61671  22.630   3.435   2.353
  251W        W61672  43.853  17.062   2.188
  252W        W61673   6.693  36.004  11.038
  253W        W61674   0.746  15.594   4.599
  254W        W61675  42.370  10.314  13.815
  255W        W61676   5.846  39.494   5.142
  256W        W61677  37.335  29.982  10.628
  257W        W61678  29.999  23.504   4.182
  258W        W61679  31.595   1.966   2.804
  259W        W61680  23.006   2.807  11.441
  260W        W61681  22.646  12.705  12.833
  261W        W61682   0.776  17.561   0.750
  262W        W61683  22.050  24.505   3.646
  263W        W61684  34.992  32.490  12.381
  264W        W61685   3.350  37.555   3.383
  265W        W61686  36.870  19.749   3.852
  266W        W61687  36.551  42.477  13.987
  267W        W61688   9.184  11.163  13.014
  268W        W61689  24.162  37.555   0.456
  269W        W61690  20.111  33.120   4.299
  270W        W61691  42.359   3.438   4.274
  271W        W61692  30.929  14.249   4.281
  272W        W61693   1.956  43.277   4.756
  273W        W61694   6.261  34.890  13.432
  274W        W61695  19.675  36.036   1.359
  275W        W61696  29.098  27.610  11.961
  276W        W61697  12.829  19.644  13.822
  277W        W61698  15.193   7.217  10.643
  278W        W61699  36.527   6.386  12.505
  279W        W61700  17.683  22.561   0.472
  280W        W61701  37.533  16.240  10.948
  281W        W61702  33.007  28.125   4.354
  282W        W61703  23.112   1.297   3.780
  283W        W61704  39.918  42.812  10.458
  284W        W61705  23.567  24.221  10.596
  285W        W61706  25.051  14.588   1.789
  286W        W61707  11.300  37.069   4.158
  287W        W61708  35.874   0.336  12.460
  288W        W61709  37.876   0.909  13.014
  289W        W61710  28.628  33.561  12.484
  290W        W61711   8.900  32.519   4.243
  291W        W61712  26.174  39.474   0.906
  292W        W61713  34.976  31.933  10.594
  293W        W61714  32.608  39.502  13.402
  294W        W61715   7.366  22.123  12.984
  295W        W61716  36.922  20.533   0.836
  296W        W61717   9.861  28.675  13.471
  297W        W61718  34.911  15.736  11.054
  298W        W61719  32.413   1.265  13.460
  299W        W61720   2.742  38.877   4.177
  300W        W61721  23.136  11.837   4.616
  301W        W61722  40.969  44.489   3.792
  302W        W61723  21.059   0.962  13.324
  303W        W61724  19.202  16.632  12.884
  304W        W61725  20.694   3.239  13.402
  305W        W61726   3.250   6.356   9.958
  306W        W61727  15.696  32.598  11.923
  307W        W61728  43.840  24.672   2.341
  308W        W61729  41.470   1.481   2.178
  309W        W61730  32.609  32.999   1.707
  310W        W61731  28.008  43.957  14.851
  311W        W61732  12.837  36.957   1.796
  312W        W61733  31.072  31.950   0.296
  313W        W61734  14.777  11.306   1.774
  314W        W61735   7.880  34.542  12.087
  315W        W61736  17.597  31.612   0.307
  316W        W61737  32.055   0.753  13.029
  317W        W61738  26.117  27.483   4.299
  318W        W61739   1.749  21.101   1.415
  319W        W61740  17.073  13.625  10.048
  320W        W61741   7.270  35.960  14.445
  321W        W61742  12.837  17.293   4.234
  322W        W61743  32.473  36.462   2.667
  323W        W61744  30.074  27.559   4.770
  324W        W61745  13.776   4.852  10.084
  325W        W61746  40.927  38.042  11.899
  326W        W61747  33.550  31.427   2.847
  327W        W61748  38.377  30.600   4.735
  328W        W61749  18.699  10.199  12.937
  329W        W61750  44.504  36.562   0.941
  330W        W61751  25.174  23.063  12.948
  331W        W61752  20.721  44.924  10.603
  332W        W61753  18.573   6.323   0.832
  333W        W61754  17.121  13.296   0.272
  334W        W61755  12.303  14.189   0.304
  335W        W61756  36.915  43.780   2.718
  336W        W61757  23.695   4.387   2.366
  337W        W61758  30.512  15.676  10.025
  338W        W61759   0.390  34.596   1.349
  339W        W61760  37.971  36.087   5.150
  340W        W61761  35.048  11.731  12.355
  341W        W61762  25.975  21.063   0.856
  342W        W61763  28.131   2.399  13.954
  343W        W61764  33.495  25.971   4.776
  344W        W61765  24.536  12.809  14.390
  345W        W61766  14.265  19.186  11.896
  346W        W61767  25.095   9.850  14.881
  347W        W61768  35.568   8.316   1.845
  348W        W61769  15.152  24.520  11.427
  349W        W61770   1.878   9.166   0.306
  350W        W61771   8.661  34.605  12.888
  351W        W61772  14.631  29.443  14.500
  352W        W61773  28.566  27.142  13.809
  353W        W61774  25.208  39.835   2.763
  354W        W61775  20.740   4.255   1.266
  355W        W61776  19.751  42.030   4.795
  356W        W61777   1.450  20.584  14.851
  357W        W61778  44.859  41.815   1.776
  358W        W61779  37.833   2.322   1.758
  359W        W61780  40.364   7.904   2.876
  360W        W61781  21.758  37.038  12.342
  361W        W61782   0.248   7.773  14.411
  362W        W61783  15.810  44.770  10.630
  363W        W61784  23.052  39.835  12.916
  364W        W61785  37.382   4.736   2.381
  365W        W61786   5.204  20.590  14.516
  366W        W61787  39.467   0.877  11.396
  367W        W61788   7.245  36.442  11.998
  368W        W61789  11.354  35.458  11.919
  369W        W61790  21.127  30.093  14.822
  370W        W61791  39.315   0.962  13.026
  371W        W61792  17.762  12.835   2.411
  372W        W61793  28.036  17.670   3.211
  373W        W61794  21.544   6.813  14.420
  374W        W61795  14.635  41.029   0.474
  375W        W61796  43.861   3.421  14.894
  376W        W61797  26.013  23.712   2.260
  377W        W61798   5.852  19.220   0.320
  378W        W61799  20.108  10.384  10.501
  379W        W61800  17.647  42.301  14.444
  380W        W61801  11.327  28.532  13.476
  381W        W61802  14.757  15.766   0.447
  382W        W61803  28.076  44.342   2.743
  383W        W61804  44.942  19.079  14.970
  384W        W61805   6.909  32.570   0.881
  385W        W61806   6.892  24.549  13.814
  386W        W61807  23.168  32.466  14.803
  387W        W61808  38.341  13.326   2.776
  388W        W61809  22.655  37.534   0.478
  389W        W61810  39.344  42.412  12.372
  390W        W61811  31.112  16.153   2.877
  391W        W61812  28.939  24.610  14.025
  392W        W61813  33.071   2.433  14.998
  393W        W61814  30.961  25.186   5.199
  394W        W61815  19.111   5.917  12.014
  395W        W61816  14.309  20.184   3.818
  396W        W61817  13.230  44.337   2.321
  397W        W61818  16.648  43.918   4.774
  398W        W61819  44.994   9.339  11.903
  399W        W61820  17.678  29.655   3.860
  400W        W61821  25.147  38.826   4.290
  401W        W61822  33.473   5.416  11.531
  402W        W61823   5.349  12.305  14.392
  403W        W61824  37.447  42.397  11.056
  404W        W61825  23.112   1.894   4.220
  405W        W61826  17.777   5.801  12.565
  406W        W61827  13.601  11.250   3.215
  407W        W61828  33.089  10.706   0.960
  408W        W61829  12.651  31.531  12.535
  409W        W61830  16.190   5.711  13.984
  410W        W61831  35.465  17.575   2.407
  411W        W61832  35.583   7.362  13.437
  412W        W61833  36.366  33.045   1.328
  413W        W61834  44.270   7.880   3.765
  414W        W61835  36.881   1.859   1.360
  415W        W61836  43.868   5.781  12.527
  416W        W61837  42.828  32.923  10.107
  417W        W61838  10.704  10.254   4.120
  418W        W61839  40.518  23.537   1.403
  419W        W61840  22.095  31.532  11.128
  420W        W61841  24.038   1.340   2.729
  421W        W61842  43.792  19.561  12.065
  422W        W61843  34.086  21.720   0.930
  423W        W61844  17.637  21.193  14.825
  424W        W61845  40.322  33.469   1.771
  425W        W61846  29.552   5.844   3.231
  426W        W61847  39.529  31.413   2.834
  427W        W61848  41.962  31.470  13.063
  428W        W61849   7.825  21.568   1.377
  429W        W61850  44.911  32.913  11.049
  430W        W61851  16.294  32.962  10.416
  431W        W61852  37.553  30.160  12.978
  432W        W61853  17.740  20.031  10.507
  433W        W61854  12.693  41.340  14.287
  434W        W61855  28.506   6.411  14.975
  435W        W61856  29.655   5.746  10.621
  436W        W61857   5.274   7.348   3.705
  437W        W61858  24.498  40.346  11.514
  438W        W61859  12.292   2.429   4.167
  439W        W61860   8.255   4.222   0.258
  440W        W61861   2.867   9.211  12.035
  441W        W61862   2.743  43.993   9.475
  442W        W61863  29.953   2.251   3.777
  443W        W61864  44.006  10.720   3.365
  444W        W61865  10.683  27.127   0.741
  445W        W61866  35.468  41.426   1.695
  446W        W61867  17.604  10.637   1.925
  447W        W61868  30.908  27.508   2.863
  448W        W61869   6.725  44.284   2.806
  449W        W61870   1.464   1.974   0.269
  450W        W61871  18.055  42.873   4.191
  451W        W61872  43.414  37.397  12.561
  452W        W61873  32.614  41.504  13.002
  453W        W61874  11.346   0.334   1.714
  454W        W61875  34.524   1.483   4.729
  455W        W61876  24.128  37.536   1.260
  456W        W61877  31.035  22.158   1.840
  457W        W61878  12.726  42.865  14.364
  458W        W61879   3.920  44.259   1.783
  459W        W61880  14.823  34.015   1.764
  460W        W61881   7.882   2.920  12.082
  461W        W61882  39.981   3.380   4.762
  462W        W61883  19.166  36.500  11.553
  463W        W61884  12.262  23.149   3.733
  464W        W61885  16.802  16.104   1.745
  465W        W61886   0.411  17.763  13.536
  466W        W61887  37.853  18.716   2.845
  467W        W61888  10.219  37.407   1.245
  468W        W61889  30.008   5.195  13.938
  469W        W61890  21.540  21.595  14.953
  470W        W61891  33.129  44.966  12.866
  471W        W61892  15.607  33.907   3.690
  472W        W61893   2.818  35.553   5.218
  473W        W61894  30.010   5.839   3.780
  474W        W61895  10.378  23.514  14.846
  475W        W61896  42.786   6.337  12.403
  476W        W61897  21.621  30.524  12.975
  477W        W61898   4.863  27.450   1.225
  478W        W61899   7.696  39.891   1.751
  479W        W61900  14.667  40.984   2.890
  480W        W61901  17.778  29.982  14.862
  481W        W61902   4.418  38.879   1.773
  482W        W61903   3.955  40.439   1.319
  483W        W61904  31.088   6.774  14.952
  484W        W61905   8.181  38.432   1.442
  485W        W61906  22.169  29.660   2.763
  486W        W61907  24.092  14.333  13.379
  487W        W61908   2.776  38.859   0.950
  488W        W61909  42.857  11.292   0.287
  489W        W61910  40.912  21.705   0.311
  490W        W61911  41.344  15.656   2.833
  491W        W61912  26.085   0.389   3.367
  492W        W61913  12.752   5.820  14.913
  493W        W61914  30.145  37.447   0.879
  494W        W61915   1.838  34.074   9.677
  495W        W61916  35.954  11.346  13.531
  496W        W61917   9.279   2.779  10.964
  497W        W61918   0.858  32.534  12.846
  498W        W61919  38.387  33.889  12.414
  499W        W61920  38.462  43.856   2.307
  500W        W61921  10.344   8.721  11.963
  501W        W61922  31.577  40.379  14.890
  502W        W61923   9.649  11.810   4.130
  503W        W61924   2.964  42.955  10.624
  504W        W61925  32.426  27.106   1.806
  505W        W61926   0.856   2.439  13.978
  506W        W61927  32.623  28.985   1.293
  507W        W61928  20.037  30.151   1.745
  508W        W61929  31.598  27.668   0.266
  509W        W61930  17.168  33.400  13.862
  510W        W61931   2.784  38.966  11.933
  511W        W61932  11.844  37.964   2.257
  512W        W61933  32.451  38.011  11.402
  513W        W61934  13.815  31.587   1.237
  514W        W61935  42.399   3.311   1.927
  515W        W61936  10.343  12.814  14.508
  516W        W61937  30.029   3.379   0.958
  517W        W61938  24.574  13.784   3.743
  518W        W61939  16.758  31.015   2.194
  519W        W61940  13.296  36.060  11.989
  520W        W61941   5.361  23.580   0.859
  521W        W61942  14.803  43.454   0.752
  522W        W61943   6.409  26.203   2.737
  523W        W61944  24.011  10.275  11.380
  524W        W61945  18.117  34.431  13.488
  525W        W61946  35.570  10.838  11.017
  526W        W61947   7.710  24.088   1.854
  527W        W61948   7.890  18.708  11.373
  528W        W61949  43.343  29.087  12.568
  529W        W61950  44.993  33.000  11.893
  530W        W61951  39.824  22.118   4.179
  531W        W61952  11.854  10.796  10.961
  532W        W61953  44.456  16.236  12.901
  533W        W61954   7.758  43.515  10.496
  534W        W61955  12.135  43.470   3.364
  535W        W61956   5.757  18.775  13.545
  536W        W61957  38.932   3.253   1.858
  537W        W61958  11.791   6.340   3.347
  538W        W61959  12.161   9.782  13.874
  539W        W61960  39.368   3.785  10.612
  540W        W61961  41.531  15.090  11.509
  541W        W61962   9.739   6.208  14.288
  542W        W61963  28.086  25.106  14.001
  543W        W61964   8.342   9.828   2.893
  544W        W61965   2.945  13.131  12.083
  545W        W61966  18.161   6.716   1.868
  546W        W61967   5.740  14.290  12.464
  547W        W61968  24.591  40.048  10.472
  548W        W61969   5.764  40.842  13.329
  549W        W61970  34.375  20.723   0.830
  550W        W61971  25.710  32.580  13.834
  551W        W61972   3.723  23.114   3.860
  552W        W61973  35.396  17.702   3.724
  553W        W61974   3.229  13.767  10.414
  554W        W61975   6.284  41.519   0.278
  555W        W61976   5.430  17.072  12.494
  556W        W61977   0.767  26.083  13.850
  557W        W61978  10.231  21.161  10.151
  558W        W61979   7.338  36.409  13.803
  559W        W61980  29.592  44.912  13.001
  560W        W61981  12.761  12.131   2.189
  561W        W61982  28.449   2.319  11.578
  562W        W61983  11.252  26.481  14.812
  563W        W61984   0.355  33.108  12.514
  564W        W61985  32.410   5.736   4.768
  565W        W61986  35.374  35.422   3.743
  566W        W61987  17.115  29.443  11.037
  567W        W61988  33.493  38.463   0.806
  568W        W61989  40.874  33.488  11.609
  569W        W61990  32.121  15.581  10.061
  570W        W61991  28.568  10.382   1.252
  571W        W61992  18.109  31.056  11.009
  572W        W61993  12.284   7.196  12.479
  573W        W61994   2.827  19.681  11.005
  574W        W61995  29.021  34.596  11.896
  575W        W61996  14.744  15.261  10.448
  576W        W61997  28.139  18.626   4.255
  577W        W61998  33.006   0.468   0.478
  578W        W61999  12.344  42.336  11.580
  579W        W62000  13.300  12.771  13.505
  580W        W62001  13.608  30.482  10.528
  581W        W62002  17.226  42.925  14.938
  582W        W62003  44.962  14.658   0.884
  583W        W62004   1.324  32.011   3.647
  584W        W62005  13.313  10.377  13.053
  585W        W62006  33.046  28.494   2.403
  586W        W62007  13.174   0.418   4.333
  587W        W62008  14.719  22.106  11.397
  588W        W62009  21.715  23.580  14.288
  589W        W62010  15.637  26.462  12.989
  590W        W62011  28.622  14.691   0.845
  591W        W62012  36.970  39.440  10.478
  592W        W62013   1.338  10.834   4.758
  593W        W62014  27.446   1.855  12.857
  594W        W62015  41.487   4.817  13.832
  595W        W62016  40.028  19.243   0.293
  596W        W62017  24.026  34.096  14.870
  597W        W62018   6.707  12.231   3.670
  598W        W62019  15.645  29.606   0.295
  599W        W62020   1.373  33.056   3.342
  600W        W62021  17.737  25.513  12.426
  601W        W62022  14.674  38.879  11.585
  602W        W62023  42.959  30.454   4.219
  603W        W62024  24.528  35.042  14.876
  604W        W62025   4.430  32.513  10.141
  605W        W62026  17.223  16.665  11.505
  606W        W62027  44.294  40.413   2.253
  607W        W62028  32.918  18.648  11.404
  608W        W62029  29.168  30.497  13.536
  609W        W62030   4.935  26.047   4.169
  610W        W62031   6.263   5.896  13.357
  611W        W62032  37.498   7.340   3.148
  612W        W62033  41.314   5.424   1.245
  613W        W62034  15.771  40.313   3.702
  614W        W62035  26.593  11.336   2.417
  615W        W62036  31.934  25.214   2.294
  616W        W62037  41.938  32.907  10.532
  617W        W62038  29.616  35.897   0.842
  618W        W62039  40.966  24.663   3.214
  619W        W62040  32.396  14.823   0.288
  620W        W62041  29.620  40.893  10.932
  621W        W62042   8.872  27.107   3.757
  622W        W62043  24.224   4.831   0.887
  623W        W62044  29.079  33.005   0.891
  624W        W62045   9.782   0.804  10.592
  625W        W62046  31.927  21.742   4.715
  626W        W62047  41.520  43.935  12.434
  627W        W62048  15.098  30.081   4.657
  628W        W62049  31.915  40.474  12.061
  629W        W62050  42.441  19.237  10.957
  630W        W62051  41.530  42.894   1.232
  631W        W62052  36.846  12.672   2.241
  632W        W62053  43.014  35.519  13.029
  633W        W62054  34.573  22.224  13.910
  634W        W62055  10.360   4.791   0.246
  635W        W62056  34.093   7.283   2.362
  636W        W62057  32.397  34.605   2.331
  637W        W62058  26.486  42.456   4.150
  638W        W62059  40.888  10.750  11.390
  639W        W62060  23.657   1.753  11.977
  640W        W62061  31.970  42.418   1.327
  641W        W62062  39.821   7.748   1.804
  642W        W62063  17.583  37.940   3.279
  643W        W62064   2.738  33.454   1.217
  644W        W62065  31.124  38.006  12.995
  645W        W62066  11.741  40.332   3.801
  646W        W62067  18.123  28.172  14.761
  647W        W62068   7.188  35.553  10.516
  648W        W62069  14.135  29.611   5.307
  649W        W62070  39.903   7.737  14.506
  650W        W62071  35.444  43.371  10.490
  651W        W62072  10.876  11.265   3.734
  652W        W62073  43.010   8.304   2.776
  653W        W62074  39.470  38.997  10.623
  654W        W62075  33.890  26.562   2.393
  655W        W62076  30.055   2.919  10.532
  656W        W62077   1.459  44.456   3.309
  657W        W62078  27.128  43.016  11.550
  658W        W62079  21.143  42.870  14.974
  659W        W62080  19.618  18.272   0.293
  660W        W62081  21.573  12.794   0.779
  661W        W62082  16.609  13.841  14.945
  662W        W62083   6.696  13.327   3.758
  663W        W62084  33.108  11.755   1.760
  664W        W62085  15.112   0.759   3.316
  665W        W62086  30.065   2.873   2.741
  666W        W62087  44.326  32.131   0.425
  667W        W62088  15.657   2.810   2.333
  668W        W62089  41.979   9.750   3.164
  669W        W62090  19.533  13.263   4.609
  670W        W62091  20.736  36.877   4.190
  671W        W62092   2.751  18.651   4.606
  672W        W62093  10.724  12.260   2.190
  673W        W62094  39.943  30.163  11.893
  674W        W62095  12.286  23.608  13.387
  675W        W62096  43.930   8.314  10.977
  676W        W62097   8.759  29.625  10.519
  677W        W62098  11.189   3.933   4.128
  678W        W62099  15.823  11.762  13.478
  679W        W62100  15.702   8.377   0.738
  680W        W62101  24.574  17.724   1.786
  681W        W62102   6.707  10.669   1.427
  682W        W62103  30.475  11.230  10.964
  683W        W62104  31.537  18.611  10.575
  684W        W62105  42.010  25.043   1.819
  685W        W62106  41.925   8.346  13.395
  686W        W62107  26.625  41.324  14.391
  687W        W62108  42.854  25.561   3.269
  688W        W62109   7.303   2.814   3.855
  689W        W62110  38.571  41.983   3.204
  690W        W62111   8.735  17.134  10.618
  691W        W62112  30.920  20.678   0.250
  692W        W62113  18.237   8.835  14.912
  693W        W62114  30.646  27.520   2.686
  694W        W62115  23.586  38.017   2.856
  695W        W62116  41.328  40.804  12.882
  696W        W62117  14.129  38.841   4.763
  697W        W62118  17.613  18.594   2.392
  698W        W62119   7.302  10.284  13.981
  699W        W62120  39.456   4.893  13.801
  700W        W62121  31.965  30.457  12.020
  701W        W62122  31.440  26.043  12.065
  702W        W62123   9.359   4.774  14.276
  703W        W62124  38.822  43.397  11.412
  704W        W62125  29.918   9.300  11.995
  705W        W62126  38.334  36.427   4.809
  706W        W62127   0.908  16.713   4.775
  707W        W62128  23.224  29.063   3.690
  708W        W62129  30.934   0.299   3.221
  709W        W62130  28.185  12.270  13.337
  710W        W62131  31.085  17.626   1.781
  711W        W62132  40.983  24.551   3.777
  712W        W62133  28.435   3.282  14.760
  713W        W62134  37.544  26.486   4.750
  714W        W62135  32.135   5.737   4.785
  715W        W62136   9.158  19.657  13.472
  716W        W62137  37.977  11.696   1.840
  717W        W62138  33.072  28.176   0.369
  718W        W62139  26.152   9.864   0.343
  719W        W62140  20.524  42.818   3.643
  720W        W62141  39.837  22.530   0.835
  721W        W62142  16.598   5.388   0.356
  722W        W62143  35.876  39.929   3.683
  723W        W62144  37.940  26.476   4.779
  724W        W62145  43.911  14.774  12.960
  725W        W62146  19.669   2.726   0.425
  726W        W62147   8.220  18.185   2.310
  727W        W62148   4.774  44.361  10.994
  728W        W62149   3.722   6.712  12.003
  729W        W62150  16.667  34.934   1.316
  730W        W62151  12.167  11.200   4.270
  731W        W62152  33.541  39.518  12.826
  732W        W62153  23.014  35.087   2.217
  733W        W62154  31.119  42.314   3.211
  734W        W62155  12.145  24.204   0.351
  735W        W62156  33.476  12.717  11.533
  736W        W62157  17.693  16.140   3.383
  737W        W62158   5.325   8.869   2.242
  738W        W62159  39.499  41.469   1.749
  739W        W62160   7.856   6.905  13.939
  740W        W62161  20.083   5.225   0.945
  741W        W62162   7.203  14.114   0.856
  742W        W62163  20.698   7.295   3.298
  743W        W62164  37.832  19.060   4.794
  744W        W62165   8.262  32.533  14.367
  745W        W62166  28.119   5.691  10.554
  746W        W62167  10.802  19.115  10.525
  747W        W62168  42.346  24.589  12.402
  748W        W62169  14.629   6.241   2.823
  749W        W62170  26.094  39.984   2.198
  750W        W62171  20.075   5.281  11.448
  751W        W62172  33.601  31.466  14.299
  752W        W62173  22.617  12.786   1.791
  753W        W62174  35.547  16.262   3.287
  754W        W62175  22.695  11.636   5.116
  755W        W62176  18.662  16.747   3.359
  756W        W62177  42.845  29.521   2.765
  757W        W62178  33.470  19.652   4.214
  758W        W62179  24.640  33.917   4.774
  759W        W62180  23.615   4.389   3.276
  760W        W62181   0.876   5.748   4.127
  761W        W62182  38.070  31.105  10.446
  762W        W62183  23.603  31.600   1.396
  763W        W62184   3.274  25.037   1.814
  764W        W62185  29.169  30.597   3.775
  765W        W62186   8.727  30.653  10.609
  766W        W62187  21.235  21.131   1.718
  767W        W62188  37.443  40.040  13.995
  768W        W62189  33.936  12.641   0.740
  769W        W62190  33.114  40.884  12.956
  770W        W62191  38.857  28.471  14.403
  771W        W62192  40.866  13.141   1.302
  772W        W62193  29.657  20.161   2.825
  773W        W62194  33.914   1.934  12.075
  774W        W62195  30.428  11.843  13.378
  775W        W62196  33.085  24.147   2.826
  776W        W62197  15.144  13.232  12.956
  777W        W62198  21.022  22.629   4.323
  778W        W62199   2.426  13.640  12.442
  779W        W62200  43.351  12.774   4.608
  780W        W62201  27.188  10.696   1.852
  781W        W62202   8.265  28.128  10.443
  782W        W62203  22.052   8.686  11.893
  783W        W62204  16.681   5.808   1.434
  784W        W62205  24.220   3.816   1.320
  785W        W62206  15.288  26.199  14.401
  786W        W62207  22.231  13.846  14.973
  787W        W62208   1.397  13.617   3.370
  788W        W62209  21.069  36.098  12.010
  789W        W62210  42.447  18.227  11.600
  790W        W62211  40.937   6.368  10.966
  791W        W62212  24.570  12.702  12.977
  792W        W62213   0.756  38.823  14.292
  793W        W62214   8.703  21.602   0.395
  794W        W62215  31.099   3.737  11.540
  795W        W62216   3.847  10.819  11.382
  796W        W62217  27.022  25.090  14.845
  797W        W62218   6.812  23.208  14.341
  798W        W62219  27.969  37.036   4.828
  799W        W62220  37.340  23.147  13.012
  800W        W62221   4.796  25.653   3.752
  801W        W62222  31.008  29.152   1.282
  802W        W62223   3.389  20.114  14.954
  803W        W62224  36.460   0.316  11.902
  804W        W62225  22.197  28.133   0.358
  805W        W62226  31.918  44.432  11.024
  806W        W62227   0.794   0.460  14.958
  807W        W62228  43.405  35.077   1.784
  808W        W62229   6.763  40.901  14.921
  809W        W62230  33.918  33.517   1.298
  810W        W62231  43.021  29.987  14.295
  811W        W62232  18.179  26.159  14.852
  812W        W62233  25.101  16.723   0.846
  813W        W62234   5.732  19.099   4.771
  814W        W62235  11.677  17.594  10.483
  815W        W62236  24.107  38.475   0.854
  816W        W62237  33.986   9.820   4.131
  817W        W62238   4.425   3.217   5.246
  818W        W62239   9.646  38.054   5.241
  819W        W62240  43.427  28.505  10.907
  820W        W62241  37.084   8.174   4.615
  821W        W62242  34.907  41.491   2.378
  822W        W62243  33.882  13.768  10.437
  823W        W62244  35.061  17.229  10.962
  824W        W62245  36.973   1.354  12.917
  825W        W62246  40.468  28.449  12.024
  826W        W62247  36.424  26.967  10.936
  827W        W62248   3.892  18.737   4.149
  828W        W62249  35.582   3.739   0.293
  829W        W62250  20.064   3.823  11.900
  830W        W62251  35.930  36.549  11.963
  831W        W62252  16.318  14.820  11.434
  832W        W62253  36.946  33.459  14.395
  833W        W62254  25.541  14.650   2.270
  834W        W62255  27.100   2.444   1.923
  835W        W62256  11.760   1.748  14.393
  836W        W62257  22.543  12.839  12.554
  837W        W62258  10.356  15.678   2.252
  838W        W62259  34.381  18.149   2.752
  839W        W62260  38.474  22.538  13.798
  840W        W62261   5.196   6.866  11.104
  841W        W62262  11.693   0.856  11.464
  842W        W62263  23.576  31.032  11.467
  843W        W62264  31.645  22.200   1.414
  844W        W62265  37.067  43.901  13.535
  845W        W62266  20.187  23.621  14.439
  846W        W62267  31.516  33.555   0.960
  847W        W62268  10.262  13.182   3.666
  848W        W62269  11.342  33.028   4.701
  849W        W62270  15.231  22.091  13.928
  850W        W62271  27.109  14.308  12.474
  851W        W62272  35.457  29.124   3.147
  852W        W62273  29.660  28.940   3.774
  853W        W62274  10.233  13.126  10.444
  854W        W62275  11.763  23.558  12.082
  855W        W62276  15.806  41.446   0.828
  856W        W62277   0.827  41.898   2.820
  857W        W62278  37.514  34.890   2.782
  858W        W62279  26.638  27.093   0.351
  859W        W62280  20.705  41.530   0.251
  860W        W62281   5.284  26.009   3.168
  861W        W62282  39.817  10.703  10.419
  862W        W62283  19.151   3.763   3.643
  863W        W62284   5.861   7.338   2.868
  864W        W62285  31.111   5.769   1.902
  865W        W62286  40.826  38.924   1.888
  866W        W62287   6.917   1.432   3.383
  867W        W62288  19.755  23.069   2.719
  868W        W62289   3.867  16.705   1.869
  869W        W62290   4.941  17.740  12.887
  870W        W62291  44.802  28.053   4.836
  871W        W62292  23.592  18.276  11.440
  872W        W62293  36.410  43.490   1.805
  873W        W62294  21.174   8.394  12.424
  874W        W62295  26.131  37.001  12.544
  875W        W62296  23.097  27.117  12.041
  876W        W62297  18.790   2.799  13.395
  877W        W62298  39.888  27.684   1.265
  878W        W62299  14.591   4.257   4.733
  879W        W62300   3.396   5.426  12.407
  880W        W62301  29.001  30.066  13.891
  881W        W62302   4.833   3.881  11.600
  882W        W62303  36.449  28.029   3.217
  883W        W62304  34.036  34.569  14.508
  884W        W62305  15.318  44.811   1.917
  885W        W62306  24.974   3.320  14.426
  886W        W62307  40.309  25.990  11.482
  887W        W62308  13.741  22.030  10.421
  888W        W62309  23.667  17.793  11.494
  889W        W62310  16.807  23.085   2.781
  890W        W62311  41.387  10.714  14.471
  891W        W62312  24.985  39.032  12.966
  892W        W62313  26.579  35.096  14.904
  893W        W62314  29.513  18.147  12.963
  894W        W62315  13.175   0.977   5.236
  895W        W62316  31.904  39.894   4.257
  896W        W62317   9.873  11.170  13.037
  897W        W62318  31.502  17.156  11.977
  898W        W62319  33.898   8.849   2.805
  899W        W62320  30.420  12.739  14.295
  900W        W62321  28.080  23.070   0.441
  901W        W62322   6.908  26.515  13.815
  902W        W62323  23.194   5.246   1.851
  903W        W62324  42.437  18.101   0.383
  904W        W62325  27.452  12.261   1.258
  905W        W62326  25.630   9.653  14.865
  906W        W62327  34.453  10.702   1.808
  907W        W62328  33.935   1.789  12.570
  908W        W62329  33.581  14.713   4.673
  909W        W62330  30.923   2.371   0.467
  910W        W62331  11.854  11.137   4.656
  911W        W62332  26.170  32.443   1.813
  912W        W62333  38.435  17.134  13.044
  913W        W62334   3.835  20.257  11.376
  914W        W62335  22.103  43.903   1.347
  915W        W62336   4.332  10.773   3.629
  916W        W62337   8.831   6.352  14.826
  917W        W62338  37.980  25.078   1.361
  918W        W62339   4.716  15.583  11.519
  919W        W62340   2.738  28.103   5.293
  920W        W62341  34.869  17.184   5.153
  921W        W62342  16.600  23.606   2.693
  922W        W62343  10.346  33.997   3.674
  923W        W62344  32.574  34.596   1.271
  924W        W62345  37.417  22.581  13.481
  925W        W62346  27.471  39.487  14.873
  926W        W62347  17.208   7.692   0.797
  927W        W62348  26.637  29.118  11.608
  928W        W62349  29.518  26.642   1.270
  929W        W62350  43.968  27.181   2.367
  930W        W62351   9.814  37.919   1.350
  931W        W62352   5.854   4.895  11.542
  932W        W62353  22.631  27.063  12.014
  933W        W62354  13.612   7.668   2.688
  934W        W62355  40.481  23.048  12.846
  935W        W62356  42.857  30.592  12.082
  936W        W62357  44.941   4.738  11.125
  937W        W62358  39.969   2.842  11.921
  938W        W62359   8.352  36.013   0.283
  939W        W62360  27.674  42.793  13.055
  940W        W62361  40.955   6.796  13.381
  941W        W62362  21.585  30.623  13.360
  942W        W62363  39.438  17.177  14.813
  943W        W62364  44.469  43.796  11.432
  944W        W62365  22.648  24.514   0.905
  945W        W62366   4.790  32.637   3.840
  946W        W62367  19.772  38.951   3.294
  947W        W62368  21.067   4.860   2.801
  948W        W62369  30.592  43.914  12.956
  949W        W62370  14.181  20.192   1.805
  950W        W62371  36.065  14.746  13.844
  951W        W62372  25.058  42.876  12.845
  952W        W62373  35.964  10.241   2.229
  953W        W62374   9.323  19.127  10.578
  954W        W62375  24.643  25.531  11.508
  955W        W62376  36.963   2.284  11.602
  956W        W62377  18.227   2.338   1.420
  957W        W62378  13.199  40.983  14.479
  958W        W62379  26.537  44.458   5.150
  959W        W62380  30.001  29.570  12.480
  960W        W62381  12.775  33.053   4.295
  961W        W62382  44.465   7.849  12.062
  962W        W62383  24.981  13.647  10.935
  963W        W62384  44.006  44.837  14.933
  964W        W62385  13.692  34.491  14.512
  965W        W62386  31.467  36.580  11.114
  966W        W62387  17.613  15.259   1.930
  967W        W62388  26.178  43.409  13.464
  968W        W62389  35.078   1.743   0.876
  969W        W62390   2.749  24.992   2.861
  970W        W62391  38.943   5.333  14.375
  971W        W62392  17.237  20.093  10.924
  972W        W62393   7.258   1.911   1.767
  973W        W62394  33.453  15.639   0.906
  974W        W62395  34.561   8.776  13.873
  975W        W62396  42.364  37.427   1.768
  976W        W62397  36.952  12.283   2.248
  977W        W62398  28.601  36.880  13.892
  978W        W62399  13.750   3.709  14.917
  979W        W62400   0.895   3.900  10.524
  980W        W62401  15.595  35.557   3.235
  981W        W62402  30.143  40.027  13.401
  982W        W62403   9.224  26.203  14.887
  983W        W62404  36.587  39.540   4.341
  984W        W62405  37.849  32.427  14.793
  985W        W62406  26.109  22.623  11.088
  986W        W62407  27.984  41.020  12.574
  987W        W62408  21.662  40.965   1.242
  988W        W62409  18.547  25.688   3.634
  989W        W62410   0.303  33.458   4.777
  990W        W62411   7.273  40.019   3.161
  991W        W62412   8.707  31.032  10.899
  992W        W62413  30.111   9.876  11.601
  993W        W62414  18.079  41.016   2.801
  994W        W62415  34.392  27.045   3.650
  995W        W62416  30.565  38.955  13.359
  996W        W62417  10.724  16.633  10.455
  997W        W62418  31.475  29.477  14.983
  998W        W62419   6.250  27.625   2.699
  999W        W62420   9.351  32.548   1.438
 1000W        W62421  19.768  14.151  12.981
 1001W        W62422  28.100   1.919  14.427
 1002W        W62423  13.735   0.970   3.160
 1003W        W62424  30.456  37.359   3.216
 1004W        W62425  12.248  40.850  11.431
 1005W        W62426  16.125   0.467   4.674
 1006W        W62427  34.410  15.717   2.187
 1007W        W62428  17.582  36.067  13.341
 1008W        W62429  20.157   8.254  14.867
 1009W        W62430   9.263  42.441  11.870
 1010W        W62431  44.876   1.384   2.265
 1011W        W62432  41.538  36.885   1.360
 1012W        W62433  44.492  17.788  12.438
 1013W        W62434   5.805  23.608   1.390
 1014W        W62435   8.248   8.797  14.941
 1015W        W62436  11.163  17.075   3.180
 1016W        W62437   6.380  36.483  14.876
 1017W        W62438  23.204   4.313   3.185
 1018W        W62439  28.057  13.126  14.394
 1019W        W62440   5.757   3.384   2.367
 1020W        W62441  32.548  35.437   0.469
 1021W        W62442  10.315   7.850   1.881
 1022W        W62443   9.217  21.017   2.882
 1023W        W62444  32.441  35.975  12.001
 1024W        W62445  11.294   5.704  10.998
 1025W        W62446  43.974   5.801  12.053
 1026W        W62447   5.753  13.710   2.688
 1027W        W62448  39.063  11.133   3.674
 1028W        W62449  44.825  42.907  12.479
 1029W        W62450  15.688   1.818  13.945
 1030W        W62451  19.539  40.818   1.331
 1031W        W62452  18.708   6.290   5.309
 1032W        W62453  13.752  32.519   3.682
 1033W        W62454  44.337  11.217  12.386
 1034W        W62455  34.492  38.507   3.706
 1035W        W62456   1.402  32.097   0.854
 1036W        W62457   2.322  13.625   4.743
 1037W        W62458  38.028  23.089  10.934
 1038W        W62459  42.804  30.089   1.725
 1039W        W62460   7.231  44.922   4.144
 1040W        W62461   5.362  33.952  14.341
 1041W        W62462  28.025  19.215   4.159
 1042W        W62463   4.351   2.275   1.355
 1043W        W62464   3.359  28.632   2.388
 1044W        W62465  44.417   4.269  10.066
 1045W        W62466  31.026  13.160   3.263
 1046W        W62467  13.252   6.389   1.728
 1047W        W62468  23.635  25.212  14.016
 1048W        W62469  34.951  17.170   3.663
 1049W        W62470  30.032  28.038  14.421
 1050W        W62471   0.476   1.417   2.382
 1051W        W62472  40.837  36.481   1.907
 1052W        W62473  15.721  40.477  11.508
 1053W        W62474  26.467  12.330   4.202
 1054W        W62475   0.900  22.056   2.406
 1055W        W62476  29.600  40.399  11.065
 1056W        W62477  38.523   8.319   0.801
 1057W        W62478  36.024  36.469   4.326
 1058W        W62479  43.787  42.025  14.960
 1059W        W62480  27.007  40.818  13.416
 1060W        W62481  12.762  42.920   1.731
 1061W        W62482  15.668   7.382   1.719
 1062W        W62483   7.673  27.105  12.543
 1063W        W62484  38.923   5.304  14.774
 1064W        W62485  14.714   5.194   1.750
 1065W        W62486  15.620   2.903  12.429
 1066W        W62487  11.335  25.972   4.786
 1067W        W62488  37.833  32.489   0.880
 1068W        W62489  37.362  41.479   2.245
 1069W        W62490   3.883  12.687  12.541
 1070W        W62491  32.631  12.234   1.368
 1071W        W62492  27.125  18.584   0.837
 1072W        W62493  33.437   3.809   0.803
 1073W        W62494  35.498   6.795  11.903
 1074W        W62495  19.701  35.602   2.766
 1075W        W62496  42.460  20.209  13.322
 1076W        W62497  38.545  28.106  14.995
 1077W        W62498  42.952   3.848   3.785
 1078W        W62499   2.892  35.369   0.737
 1079W        W62500  30.085  18.193   1.759
 1080W        W62501  30.963  12.201   1.370
 1081W        W62502  43.893  36.998  14.478
 1082W        W62503  44.420  25.688  14.025
 1083W        W62504  11.305  18.697  10.968
 1084W        W62505  29.642  25.580  12.569
 1085W        W62506  36.549   3.231  10.081
 1086W        W62507  40.507  24.539   1.323
 1087W        W62508  42.935  23.510   3.781
 1088W        W62509   1.478  26.052  12.838
 1089W        W62510  40.996  16.676   3.293
 1090W        W62511  31.138  32.582   1.875
 1091W        W62512  42.434  34.115  13.807
 1092W        W62513   3.370  23.610  11.876
 1093W        W62514  17.712  23.683  12.869
 1094W        W62515  15.707  40.549  12.417
 1095W        W62516  35.084  22.105   3.844
 1096W        W62517  42.324  41.830   4.699
 1097W        W62518  37.568  14.265   4.128
 1098W        W62519  28.067   3.895   4.766
 1099W        W62520   0.762  35.901   2.673
 1100W        W62521  13.325  11.177  14.842
 1101W        W62522  13.780  20.033   0.310
 1102W        W62523  15.183  33.403  13.391
 1103W        W62524  28.934   5.753  12.430
 1104W        W62525  24.553   5.812   2.818
 1105W        W62526  15.112   7.898   2.688
 1106W        W62527  32.605   4.298  14.789
 1107W        W62528  26.557   2.397  13.877
 1108W        W62529  31.082   3.875   5.155
 1109W        W62530  17.294  14.336   2.363
 1110W        W62531  19.115  41.866   4.194
 1111W        W62532   1.378  23.526   0.434
 1112W        W62533  22.138  35.576  11.452
 1113W        W62534  40.400   6.885   1.410
 1114W        W62535   8.182  17.689  14.422
 1115W        W62536  28.503  22.635   3.303
 1116W        W62537  27.139  11.635   1.255
 1117W        W62538  35.017  41.498  12.069
 1118W        W62539  19.754  21.515  12.517
 1119W        W62540  15.109  12.231   4.308
 1120W        W62541  22.111  26.070  14.308
 1121W        W62542  23.172   5.322  14.469
 1122W        W62543  29.608   6.230   4.341
 1123W        W62544  14.736  21.569  12.097
 1124W        W62545  41.456   0.814  14.015
 1125W        W62546  18.151  26.964   4.172
 1126W        W62547  39.506  34.012   0.807
 1127W        W62548  36.473   4.856  11.925
 1128W        W62549   4.234  27.190   0.845
 1129W        W62550  22.111  34.893  12.510
 1130W        W62551  13.249  12.318   3.779
 1131W        W62552  14.712  38.425   3.720
 1132W        W62553  35.926  43.933  13.428
 1133W        W62554  32.891   8.878   3.264
 1134W        W62555  33.601  31.591  10.914
 1135W        W62556  43.830  37.990   2.250
 1136W        W62557  39.469  30.124   3.631
 1137W        W62558  31.621   2.417   4.632
 1138W        W62559  14.689   4.890   1.800
 1139W        W62560  22.689  32.000   3.686
 1140W        W62561  17.757  24.151  14.887
 1141W        W62562  44.813  12.176   3.795
 1142W        W62563  21.138  11.833   5.310
 1143W        W62564  43.417  43.450  11.888
 1144W        W62565  38.398  31.083   4.253
 1145W        W62566  40.441  26.978  12.445
 1146W        W62567  35.886  35.886  10.928
 1147W        W62568   8.771   1.787  12.571
 1148W        W62569  36.868  11.704  11.471
 1149W        W62570  22.210  26.611  14.905
 1150W        W62571  19.119  29.656   2.205
 1151W        W62572  43.011  27.045  13.861
 1152W        W62573   4.784  10.323   3.637
 1153W        W62574  22.235  20.741  13.931
 1154W        W62575  34.078  36.951   0.818
 1155W        W62576   7.833  12.241   2.387
 1156W        W62577  19.694  12.665   3.866
 1157W        W62578  21.122  36.518  12.999
 1158W        W62579  40.499  14.258   3.300
 1159W        W62580  18.630  42.507  14.448
 1160W        W62581  42.382  13.621   0.762
 1161W        W62582  14.752   7.312  12.941
 1162W        W62583  22.607  36.413   1.760
 1163W        W62584  42.300  43.506   2.403
 1164W        W62585   3.342  44.424   5.217
 1165W        W62586  11.362  31.417  14.308
 1166W        W62587   4.752  36.520   4.212
 1167W        W62588  20.630  16.219   0.954
 1168W        W62589   4.819  35.420   3.228
 1169W        W62590  30.058  37.545  11.959
 1170W        W62591  30.546  12.219   0.844
 1171W        W62592  24.168  42.910  12.352
 1172W        W62593  23.608  28.638  13.945
 1173W        W62594  24.499  33.045   0.930
 1174W        W62595  20.596  23.074   3.802
 1175W        W62596  34.401  23.075  10.426
 1176W        W62597  15.242  30.470  14.918
 1177W        W62598   1.270  35.532  13.351
 1178W        W62599  10.237  25.142  14.476
 1179W        W62600   1.480  37.932   2.878
 1180W        W62601  42.802  21.174   2.403
 1181W        W62602  11.330  25.488  11.006
 1182W        W62603  35.508  20.244   1.822
 1183W        W62604   2.884  40.814  12.095
 1184W        W62605  11.675  27.658  12.352
 1185W        W62606   4.308  28.490  14.314
 1186W        W62607  39.541   6.192   1.695
 1187W        W62608   2.774  41.894   0.477
 1188W        W62609  29.997   2.732  14.275
 1189W        W62610  39.944   5.790   4.164
 1190W        W62611  14.282   6.306  13.456
 1191W        W62612  10.321  41.367  13.005
 1192W        W62613   0.981  12.161  14.403
 1193W        W62614  14.702  13.712   2.705
 1194W        W62615   4.435  22.558  10.917
 1195W        W62616  26.593  32.117  12.884
 1196W        W62617   7.304  38.374   2.206
 1197W        W62618   9.799  34.515   3.248
 1198W        W62619  42.420  10.201  10.952
 1199W        W62620   2.343  34.592  13.504
 1200W        W62621  36.896  20.619   0.313
 1201W        W62622   9.867  27.609   0.448
 1202W        W62623  32.539   0.337   2.869
 1203W        W62624  26.083   5.781  13.906
 1204W        W62625   0.325  44.773  12.870
 1205W        W62626  29.500  19.129   1.413
 1206W        W62627  26.479  32.444  13.489
 1207W        W62628   4.314   2.417  12.421
 1208W        W62629  41.340  20.611   4.630
 1209W        W62630  16.597  17.799   3.293
 1210W        W62631  26.457  14.590   3.797
 1211W        W62632  31.084  35.094   3.774
 1212W        W62633  11.745   7.365   4.199
 1213W        W62634  26.020  15.626  13.340
 1214W        W62635  34.902   1.951  14.476
 1215W        W62636  23.091  11.319  11.428
 1216W        W62637   6.840  40.516   2.222
 1217W        W62638  16.261   8.299  12.922
 1218W        W62639  41.330  13.341  14.027
 1219W        W62640  29.528   3.723   3.850
 1220W        W62641  18.665  43.886  11.537
 1221W        W62642   9.733   4.436  14.381
 1222W        W62643  21.597   0.922  12.825
 1223W        W62644  12.245  11.822  12.886
 1224W        W62645  11.280   6.788  14.925
 1225W        W62646  44.759  11.728   3.211
 1226W        W62647  29.590  12.633  11.535
 1227W        W62648  33.442  26.539   0.792
 1228W        W62649   0.346  19.229  13.517
 1229W        W62650   6.309  24.524   1.421
 1230W        W62651  32.571  22.071   0.469
 1231W        W62652  12.141   1.855   4.646
 1232W        W62653  31.102  16.681   4.298
 1233W        W62654  25.484  44.339   3.707
 1234W        W62655  11.281  36.539  11.449
 1235W        W62656  42.969   1.745   3.772
 1236W        W62657  36.848   0.413   4.631
 1237W        W62658  14.310  29.980  11.579
 1238W        W62659  31.445   5.274  13.443
 1239W        W62660  18.100  13.128   2.227
 1240W        W62661  11.343   3.889   0.376
 1241W        W62662  35.602  13.214  12.478
 1242W        W62663  28.120   3.261   4.148
 1243W        W62664  22.526  37.076   0.475
 1244W        W62665  27.135  10.641   4.191
 1245W        W62666   0.324   1.819  13.815
 1246W        W62667   7.394  16.224  14.288
 1247W        W62668  29.100  13.784   2.247
 1248W        W62669  23.559  29.026   1.284
 1249W        W62670  19.610  40.884  14.768
 1250W        W62671  43.853   8.813   1.276
 1251W        W62672   3.770  16.633   2.683
 1252W        W62673  39.514   6.184   3.836
 1253W        W62674  39.465   6.277   2.296
 1254W        W62675  40.893  16.715   2.402
 1255W        W62676  23.544  11.796  14.479
 1256W        W62677   2.339   3.937  10.489
 1257W        W62678  37.041  28.091   4.834
 1258W        W62679  19.102  19.614  12.086
 1259W        W62680  41.824   0.900  13.863
 1260W        W62681  23.052  34.022  10.961
 1261W        W62682   8.341  14.723  11.960
 1262W        W62683  14.808   7.175  13.937
 1263W        W62684  22.222  37.386  11.068
 1264W        W62685  39.475  18.634   3.776
 1265W        W62686  25.150  16.596   4.630
 1266W        W62687   1.955  28.138  13.497
 1267W        W62688  30.590  29.635  14.768
 1268W        W62689  26.206  42.414  10.605
 1269W        W62690  31.045  29.443  12.834
 1270W        W62691  31.480  39.984   0.479
 1271W        W62692  31.949  25.200  12.407
 1272W        W62693  38.968  22.218  14.931
 1273W        W62694  13.602  31.932   1.888
 1274W        W62695   4.396  11.656   1.226
 1275W        W62696   6.771   2.447   3.724
 1276W        W62697   6.428   6.701  10.621
 1277W        W62698  17.784   6.331   0.815
 1278W        W62699  15.744  35.028  13.349
 1279W        W62700  13.685  43.416   2.325
 1280W        W62701  13.820  10.809  14.777
 1281W        W62702   6.690  29.123  11.579
 1282W        W62703  27.587  24.679   0.931
 1283W        W62704  35.432  20.693   2.322
 1284W        W62705  21.650   9.659  14.771
 1285W        W62706  18.729  37.948  14.346
 1286W        W62707  25.554  12.189  13.457
 1287W        W62708  16.072  18.785  12.032
 1288W        W62709  14.314  18.654   2.323
 1289W        W62710  42.931  28.077   3.167
 1290W        W62711  12.239  26.004  12.889
 1291W        W62712  24.143   9.695  10.477
 1292W        W62713  11.160  39.401   0.943
 1293W        W62714  17.684  43.858   0.380
 1294W        W62715  32.634  44.799   2.714
 1295W        W62716  37.475  12.294  10.454
 1296W        W62717  26.077  28.089   3.296
 1297W        W62718   2.261  17.074  13.860
 1298W        W62719   2.800  23.694  12.965
 1299W        W62720  24.147  44.872  14.427
 1300W        W62721  41.400  16.813   1.431
 1301W        W62722  43.835  26.959  14.832
 1302W        W62723  38.554  29.542   1.868
 1303W        W62724  37.485   3.951   5.758
 1304W        W62725  13.185  29.555  11.536
 1305W        W62726  33.009  19.599   4.280
 1306W        W62727  23.610  14.750  13.508
 1307W        W62728   4.752  44.943   2.825
 1308W        W62729  11.693  18.603   2.270
 1309W        W62730   2.285   3.947   4.790
 1310W        W62731  36.537  34.442   1.868
 1311W        W62732   5.702  33.542   1.807
 1312W        W62733  38.831  37.846  11.562
 1313W        W62734  22.076  38.858  13.859
 1314W        W62735   9.755  15.687  10.443
 1315W        W62736  15.750  10.839  10.531
 1316W        W62737  15.588  35.508  13.964
 1317W        W62738  31.003  33.581  12.880
 1318W        W62739   3.357  43.271  13.956
 1319W        W62740   5.324  17.286   3.666
 1320W        W62741  30.552   2.389  10.115
 1321W        W62742  29.635   7.786   2.293
 1322W        W62743  33.994  21.718   1.799
 1323W        W62744   3.859  17.634  10.593
 1324W        W62745  16.640  31.414   2.892
 1325W        W62746  35.074  15.248   0.916
 1326W        W62747  31.979  13.799   1.231
 1327W        W62748  41.393  31.970  10.968
 1328W        W62749  18.090   7.900   4.241
 1329W        W62750  30.931   8.365   3.645
 1330W        W62751  11.642  44.334   1.243
 1331W        W62752  19.087   3.281   4.691
 1332W        W62753  10.709  38.432  10.494
 1333W        W62754  27.096   9.182   3.185
 1334W        W62755   5.384   3.905  14.372
 1335W        W62756  44.866  44.339  13.998
 1336W        W62757  24.583  30.006  11.032
 1337W        W62758  30.936   4.406   1.389
 1338W        W62759  44.837  29.989  11.039
 1339W        W62760  15.775   0.964   5.121
 1340W        W62761  44.977   8.733   1.405
 1341W        W62762  23.508   7.880  12.889
 1342W        W62763   4.823  16.313   1.339
 1343W        W62764  17.575  35.598  13.058
 1344W        W62765  43.924  11.713  13.456
 1345W        W62766  17.732   6.916   0.367
 1346W        W62767  10.290   2.808  11.871
 1347W        W62768   8.310  28.475  14.014
 1348W        W62769  43.823  19.639   1.796
 1349W        W62770   1.395   7.354   3.761
 1350W        W62771  37.424  44.904  10.596
 1351W        W62772  38.024  21.042   3.340
 1352W        W62773   5.261  10.310   3.164
 1353W        W62774  14.771  42.332   3.850
 1354W        W62775   3.265   3.290   9.979
 1355W        W62776   1.841  27.953  11.038
 1356W        W62777  35.886   0.799  12.072
 1357W        W62778  19.656  25.650   2.336
 1358W        W62779  12.262  37.555  10.634
 1359W        W62780  12.283  19.227  11.499
 1360W        W62781   3.926  26.497  14.442
 1361W        W62782  30.959  13.264  11.392
 1362W        W62783  43.488  13.620   0.850
 1363W        W62784  11.814  38.031  12.525
 1364W        W62785  20.611  33.102  14.934
 1365W        W62786  12.279  28.995   1.378
 1366W        W62787  22.021  40.839   4.806
 1367W        W62788  44.774  30.989  12.870
 1368W        W62789  10.738  37.414  11.487
 1369W        W62790   3.288  14.827   5.180
 1370W        W62791  42.375  40.499   2.892
 1371W        W62792   7.386  34.107   1.246
 1372W        W62793  36.086  17.209  11.435
 1373W        W62794  10.748  23.140  12.979
 1374W        W62795  28.155  37.488   4.640
 1375W        W62796  40.546  26.646   0.967
 1376W        W62797   7.185  37.476   3.688
 1377W        W62798  36.347  33.525   2.410
 1378W        W62799  12.751   3.221  11.380
 1379W        W62800   8.346   1.452  12.511
 1380W        W62801  21.145  24.486   4.166
 1381W        W62802  39.064   6.797  14.994
 1382W        W62803  25.019  31.009  11.863
 1383W        W62804  33.442  19.273  10.476
 1384W        W62805  15.181  19.682   3.703
 1385W        W62806   0.431  16.277   0.934
 1386W        W62807  32.461  35.063   4.830
 1387W        W62808  31.583  28.117   4.780
 1388W        W62809  13.130  14.263  10.479
 1389W        W62810  13.203  16.115   1.239
 1390W        W62811  32.039  22.579   2.899
 1391W        W62812  34.049   0.809   1.846
 1392W        W62813  34.892   7.204  13.917
 1393W        W62814  20.168  15.610  14.515
 1394W        W62815  17.682  40.000   3.356
 1395W        W62816  37.490   6.343  11.914
 1396W        W62817  43.491  18.734   4.743
 1397W        W62818   3.785  23.057   2.254
 1398W        W62819  40.979  35.928   1.883
 1399W        W62820  15.154  37.847   4.629
 1400W        W62821  22.636  20.622   1.250
 1401W        W62822   4.698   9.799   0.343
 1402W        W62823  13.809  37.075  13.834
 1403W        W62824  35.090  16.799   3.232
 1404W        W62825   3.859  27.520   4.599
 1405W        W62826  38.534  15.806  11.069
 1406W        W62827  29.156  36.397   0.805
 1407W        W62828  32.575  26.545  14.493
 1408W        W62829  27.986   6.887   4.272
 1409W        W62830   2.740  12.707  13.384
 1410W        W62831   9.300   3.423   0.892
 1411W        W62832  35.997  11.253  11.062
 1412W        W62833  28.565  26.628  11.922
 1413W        W62834  31.029  41.537  14.336
 1414W        W62835  44.883  41.478   2.837
 1415W        W62836  30.940   2.813   1.264
 1416W        W62837   8.162  29.955  10.504
 1417W        W62838  28.612   3.439   3.682
 1418W        W62839  24.526  37.538   0.349
 1419W        W62840  16.642  34.445   3.801
 1420W        W62841  14.780   2.844  13.061
 1421W        W62842  18.234  15.761  11.505
 1422W        W62843  43.805   3.300  11.377
 1423W        W62844  25.608  34.369  12.018
 1424W        W62845  12.334   1.817  13.849
 1425W        W62846  24.482  38.855   0.736
 1426W        W62847   9.661  22.670   4.671
 1427W        W62848  16.234  25.617  14.343
 1428W        W62849  18.149  29.668  14.920
 1429W        W62850  41.367  44.372  14.884
 1430W        W62851  27.494  35.106  13.493
 1431W        W62852  39.026  42.875  12.502
 1432W        W62853  38.549   5.297   4.677
 1433W        W62854   2.368  40.369  12.987
 1434W        W62855   7.333  13.181   4.731
 1435W        W62856   1.789  33.048   5.265
 1436W        W62857  19.176  16.193  14.320
 1437W        W62858  34.115  16.655  12.075
 1438W        W62859  34.899  17.727   2.716
 1439W        W62860  13.286  42.287   4.823
 1440W        W62861  28.511   8.883  12.009
 1441W        W62862  27.193  13.665   4.813
 1442W        W62863  39.356   0.411  13.450
 1443W        W62864  13.673  43.459  12.974
 1444W        W62865  11.705   0.386  14.829
 1445W        W62866  23.118  10.366   2.292
 1446W        W62867  12.201  30.446   9.662
 1447W        W62868  37.082  25.975   4.116
 1448W        W62869   8.701  23.053  10.981
 1449W        W62870  29.015  13.729  11.505
 1450W        W62871  28.945  26.088  10.958
 1451W        W62872  26.084  25.093   0.737
 1452W        W62873  36.372  44.954   4.201
 1453W        W62874  35.366   3.845  12.944
 1454W        W62875  26.683  11.321   0.377
 1455W        W62876  42.399  39.884  12.363
 1456W        W62877  17.208  22.019  12.557
 1457W        W62878  43.816  32.477  14.480
 1458W        W62879  38.880  32.515  13.819
 1459W        W62880  24.171  31.470  13.466
 1460W        W62881  20.109  18.086  13.826
 1461W        W62882  27.093  12.179  14.902
 1462W        W62883  33.400  22.013  12.555
 1463W        W62884  39.339  33.130  13.314
 1464W        W62885  34.989  24.624   3.191
 1465W        W62886  12.290  43.839  13.523
 1466W        W62887   4.258   0.281   2.756
 1467W        W62888  11.779  24.173   4.622
 1468W        W62889  40.313  14.652   3.859
 1469W        W62890   1.470  36.557  12.482
 1470W        W62891  18.062  44.497  12.067
 1471W        W62892  25.509  13.836  13.385
 1472W        W62893  41.966  44.397  12.475
 1473W        W62894  29.475  27.094  10.906
 1474W        W62895  41.326  42.910  14.773
 1475W        W62896   7.173  31.063   2.215
 1476W        W62897   4.386  27.615   4.693
 1477W        W62898  36.529   9.859   1.916
 1478W        W62899  30.929  31.564   3.807
 1479W        W62900  36.071  23.991  14.464
 1480W        W62901  35.448  16.782  13.939
 1481W        W62902  34.592   4.708  14.773
 1482W        W62903   8.896   7.884   3.701
 1483W        W62904  42.943  26.172   4.226
 1484W        W62905  28.080  10.195   4.158
 1485W        W62906  20.522  19.093  13.485
 1486W        W62907  37.549  25.059  14.481
 1487W        W62908  34.033  36.025  12.051
 1488W        W62909  28.655  23.085   0.870
 1489W        W62910   5.400  12.738   2.314
 1490W        W62911   0.954  30.596   5.287
 1491W        W62912   1.442   3.324  14.361
 1492W        W62913  19.648  38.467  14.458
 1493W        W62914  36.401   8.341   2.792
 1494W        W62915  31.477   2.366   2.357
 1495W        W62916  37.902  39.047   0.312
 1496W        W62917   7.908   9.765   1.287
 1497W        W62918  32.615  34.512  14.953
 1498W        W62919   5.691  33.875   4.322
 1499W        W62920  38.000  31.896  11.085
 1500W        W62921  41.913   5.816   3.380
 1501W        W62922  16.199  33.399   3.338
 1502W        W62923  42.363  31.132  14.431
 1503W        W62924  32.585  35.385   1.887
 1504W        W62925  42.442   1.932  12.069
 1505W        W62926  12.796   4.265   2.330
 1506W        W62927  29.979  38.330  14.805
 1507W        W62928  28.458  27.473  11.970
 1508W        W62929  25.039  31.995   5.092
 1509W        W62930  12.698  29.960  12.910
 1510W        W62931  34.047  35.005   3.868
 1511W        W62932  39.535  17.061   3.295
 1512W        W62933  29.090  37.050  10.422
 1513W        W62934  29.156   6.798   2.719
 1514W        W62935   6.228  20.575   0.306
 1515W        W62936  18.119  37.361  12.384
 1516W        W62937  44.387  28.621   1.895
 1517W        W62938  28.494  21.051   0.759
 1518W        W62939  17.764  25.487  10.987
 1519W        W62940  25.699   1.331  11.560
 1520W        W62941  17.738   4.418   1.299
 1521W        W62942   1.972  41.333  13.981
 1522W        W62943  44.314  44.461  10.437
 1523W        W62944  24.642  34.430   2.688
 1524W        W62945  15.624  32.495   1.383
 1525W        W62946  31.931  19.605   0.945
 1526W        W62947   5.392  17.144   2.682
 1527W        W62948   6.257  13.672  12.365
 1528W        W62949  18.672   4.272   2.898
 1529W        W62950  12.661  26.627  11.067
 1530W        W62951  16.708  20.194   2.832
 1531W        W62952   4.828  11.707  12.002
 1532W        W62953  24.644   8.287   4.256
 1533W        W62954  43.871   5.833  12.982
 1534W        W62955   5.732   3.373  11.608
 1535W        W62956   3.812  34.883  14.464
 1536W        W62957  12.220   4.857   1.395
 1537W        W62958   4.207   1.283  11.476
 1538W        W62959  35.469  24.662   2.732
 1539W        W62960  26.533   4.861  14.461
 1540W        W62961   5.276  44.471  14.980
 1541W        W62962  19.160  31.437   3.371
 1542W        W62963  28.108  35.035   4.708
 1543W        W62964  29.527  27.477  11.570
 1544W        W62965  39.396  27.521  13.494
 1545W        W62966  38.398  23.686  11.522
 1546W        W62967  13.691  40.319  12.970
 1547W        W62968   6.336  30.442  12.001
 1548W        W62969  33.094  13.788   0.884
 1549W        W62970  15.148  28.482  10.587
 1550W        W62971  15.091  15.329   3.709
 1551W        W62972  40.543  17.790   2.411
 1552W        W62973  17.582  19.737  12.340
 1553W        W62974  14.599  36.480   4.752
 1554W        W62975  28.513  41.831   1.286
 1555W        W62976   6.218  18.126   4.751
 1556W        W62977  25.012  26.470  14.938
 1557W        W62978  17.143   9.301   1.904
 1558W        W62979  28.647  34.868   0.784
 1559W        W62980  22.058  34.467   4.675
 1560W        W62981  17.727  29.165   3.302
 1561W        W62982  10.226  23.513  10.625
 1562W        W62983  36.591  10.878  10.626
 1563W        W62984   4.865  28.489  12.536
 1564W        W62985  39.420  22.134  11.973
 1565W        W62986  19.694  36.525  12.419
 1566W        W62987  15.275  33.552   4.768
 1567W        W62988  21.575  28.456   2.415
 1568W        W62989   4.903  24.517   0.805
 1569W        W62990  26.597  17.779  11.449
 1570W        W62991  16.723  11.736   2.668
 1571W        W62992  33.397  41.397  11.905
 1572W        W62993  31.921  34.010   4.224
 1573W        W62994  29.992  26.146  14.323
 1574W        W62995  15.786   1.363   2.183
 1575W        W62996  10.213  12.120  11.414
 1576W        W62997  32.906  43.278  11.955
 1577W        W62998  35.054   0.486   1.351
 1578W        W62999  14.264   5.195  10.612
 1579W        W63000  42.987  15.737   1.257
 1580W        W63001  33.103  23.572   0.769
 1581W        W63002  12.363  37.472  14.948
 1582W        W63003  14.318  19.118   3.285
 1583W        W63004  40.415  14.113   2.277
 1584W        W63005  11.291  25.673  13.010
 1585W        W63006  29.978   0.393  10.922
 1586W        W63007  33.452   0.418   2.866
 1587W        W63008   4.929  11.185  14.329
 1588W        W63009  43.448  27.673   3.719
 1589W        W63010  35.028   2.908   1.326
 1590W        W63011  16.731  14.775  13.957
 1591W        W63012   9.308  33.441   3.837
 1592W        W63013  30.911  20.167  12.958
 1593W        W63014   9.709   3.259   0.961
 1594W        W63015  20.716  34.093  11.421
 1595W        W63016  14.603   7.411   4.203
 1596W        W63017  18.132  12.259   5.621
 1597W        W63018  41.438  35.472   0.801
 1598W        W63019  10.288  16.175  12.455
 1599W        W63020  35.100  43.952  14.442
 1600W        W63021  33.464  18.745   4.807
 1601W        W63022   6.769  30.112   0.334
 1602W        W63023   6.851  17.798   2.215
 1603W        W63024  18.067  10.208  14.437
 1604W        W63025  19.638  29.649  11.523
 1605W        W63026   2.769  14.738  11.549
 1606W        W63027  34.027  21.549   1.351
 1607W        W63028  12.685  43.007   1.228
 1608W        W63029   0.263  27.519  10.432
 1609W        W63030  39.319  13.646  14.409
 1610W        W63031  39.827  25.999   1.791
 1611W        W63032  14.819  27.127   3.783
 1612W        W63033  42.390  29.433   1.317
 1613W        W63034   4.319  34.484   1.721
 1614W        W63035  39.319   9.842   2.257
 1615W        W63036   8.332  37.972  11.504
 1616W        W63037  42.505  23.226  11.439
 1617W        W63038   7.851   7.732   3.778
 1618W        W63039  31.976  15.787   1.783
 1619W        W63040  20.679   8.751   1.755
 1620W        W63041  30.986  44.908   4.686
 1621W        W63042  32.600   9.804   4.246
 1622W        W63043  25.711   2.816   0.261
 1623W        W63044   0.308  24.613  11.900
 1624W        W63045  19.087  26.011   1.353
 1625W        W63046  26.079  33.053  14.844
 1626W        W63047   6.718  39.055   1.835
 1627W        W63048  25.071  11.652   3.217
 1628W        W63049  29.474  36.847   4.127
 1629W        W63050  19.644  19.199   2.226
 1630W        W63051  40.845  19.535   4.836
 1631W        W63052  22.716   3.245  14.957
 1632W        W63053  39.823  25.607   1.315
 1633W        W63054  42.516  17.203   1.832
 1634W        W63055   7.784  25.712   1.246
 1635W        W63056  36.392  35.478   0.845
 1636W        W63057  44.782  15.625   0.349
 1637W        W63058  38.840  36.396   0.278
 1638W        W63059  34.052  20.674  14.453
 1639W        W63060  40.816  22.743   2.375
 1640W        W63061   9.199  34.015   1.326
 1641W        W63062  44.800  25.551   4.796
 1642W        W63063  21.735  41.866   0.962
 1643W        W63064   9.740  44.313  11.529
 1644W        W63065  11.183  15.813  14.961
 1645W        W63066  17.087  14.833  12.941
 1646W        W63067  28.163  10.719  14.786
 1647W        W63068   5.822   0.305  11.414
 1648W        W63069  38.035  12.771   1.358
 1649W        W63070  10.692   5.430  12.983
 1650W        W63071  14.738  35.860   4.273
 1651W        W63072  22.641  11.832   2.670
 1652W        W63073  17.122   4.449   3.638
 1653W        W63074  13.846  44.834   1.916
 1654W        W63075  38.048  12.827   4.655
 1655W        W63076  26.114  37.557   4.302
 1656W        W63077   8.280  30.031  12.082
 1657W        W63078  43.017  41.829  10.632
 1658W        W63079  33.092  21.681  14.012
 1659W        W63080  44.986  31.483   4.354
 1660W        W63081  43.498  39.034  11.016
 1661W        W63082  43.430  41.493  10.604
 1662W        W63083  16.088  22.648   0.794
 1663W        W63084   8.385  31.500   2.180
 1664W        W63085   4.251   0.412   9.605
 1665W        W63086  24.158  43.442  13.440
 1666W        W63087  27.109  42.930  13.864
 1667W        W63088  39.486  33.889   2.307
 1668W        W63089   9.392  13.138   2.314
 1669W        W63090  43.500  16.238  11.413
 1670W        W63091  33.499  40.451   0.398
 1671W        W63092  21.060  15.176  11.099
 1672W        W63093  42.954  34.879  11.591
 1673W        W63094  14.128  17.705   2.320
 1674W        W63095  15.683  16.085  12.864
 1675W        W63096  31.510  38.917   4.655
 1676W        W63097  28.061  37.386  11.870
 1677W        W63098  17.194  17.567  13.335
 1678W        W63099  29.076   2.288  13.324
 1679W        W63100  26.509  30.414  11.488
 1680W        W63101   3.367   4.308  14.510
 1681W        W63102  44.421   3.373  11.009
 1682W        W63103   1.478  29.085   2.379
 1683W        W63104  26.993  19.754   4.715
 1684W        W63105  43.488  15.770  10.097
 1685W        W63106   5.737  15.147   0.777
 1686W        W63107  19.613   2.410   0.379
 1687W        W63108  23.077  42.312   3.747
 1688W        W63109  25.144   8.876  14.838
 1689W        W63110  38.325  20.671   2.243
 1690W        W63111  13.684  34.099   2.271
 1691W        W63112  36.376  33.555   1.715
 1692W        W63113   4.888  12.221  12.399
 1693W        W63114  13.832  34.072  13.471
 1694W        W63115  18.118  39.973   4.762
 1695W        W63116  29.073  43.977   4.156
 1696W        W63117  27.581  29.018   0.873
 1697W        W63118  41.454  12.226  12.425
 1698W        W63119  39.998  16.793  11.471
 1699W        W63120  14.757  36.965   4.723
 1700W        W63121  21.616  37.005  10.527
 1701W        W63122   4.222   2.888  10.493
 1702W        W63123  43.769  36.033   4.654
 1703W        W63124   9.263  38.032   3.680
 1704W        W63125  12.166  23.039  12.523
 1705W        W63126  38.923  16.688  12.832
 1706W        W63127  21.720  43.498  11.569
 1707W        W63128  42.512  27.105   4.731
 1708W        W63129  11.160  10.355  10.905
 1709W        W63130  15.604  23.627   5.227
 1710W        W63131   4.348  12.723   1.752
 1711W        W63132  13.130  24.640   3.660
 1712W        W63133  37.552  28.007  13.530
 1713W        W63134   8.738  24.521   1.282
 1714W        W63135  15.084  18.698  10.449
 1715W        W63136  42.501  18.177  13.512
 1716W        W63137  41.839   6.200   4.145
 1717W        W63138  31.504  16.636   1.276
 1718W        W63139  13.623   0.982  12.017
 1719W        W63140  34.023  15.218   4.119
 1720W        W63141  19.048  28.013  12.509
 1721W        W63142  18.255  19.051   3.653
 1722W        W63143   0.957  28.104   1.897
 1723W        W63144  25.096  14.777  11.936
 1724W        W63145  41.292  44.355   0.330
 1725W        W63146   3.412  15.748  14.403
 1726W        W63147  44.316  34.472  11.490
 1727W        W63148  44.779  12.158   2.312
 1728W        W63149  21.679  31.923  14.789
 1729W        W63150  21.104  36.913   4.810
 1730W        W63151  30.952  33.931  13.035
 1731W        W63152   4.915   9.789   3.863
 1732W        W63153  38.423   3.780   0.303
 1733W        W63154  14.266  15.167   0.966
 1734W        W63155  29.942  17.183   2.796
 1735W        W63156   6.717  38.554   2.820
 1736W        W63157  11.192  41.806   2.755
 1737W        W63158  21.183  44.474  14.491
 1738W        W63159   2.903  28.451   2.320
 1739W        W63160   5.815  22.196  10.601
 1740W        W63161  15.675  15.674  13.435
 1741W        W63162  16.191  42.383  12.072
 1742W        W63163  33.542  37.581  13.972
 1743W        W63164   9.216  20.221  11.895
 1744W        W63165   4.929   4.724  11.937
 1745W        W63166  35.551  27.959  11.051
 1746W        W63167   1.382   0.295   0.361
 1747W        W63168  16.567   0.421  10.901
 1748W        W63169  17.279  21.257   0.926
 1749W        W63170  42.797  17.210  14.463
 1750W        W63171  15.813  12.707   2.863
 1751W        W63172  44.448  16.119   3.160
 1752W        W63173   3.726  15.703  10.443
 1753W        W63174  26.517  38.370   1.889
 1754W        W63175  13.729   7.770  14.980
 1755W        W63176  19.705  21.541  11.438
 1756W        W63177  33.571  41.861  13.855
 1757W        W63178  30.581   2.246   2.252
 1758W        W63179  20.138  40.812  14.760
 1759W        W63180  12.201   0.368   0.833
 1760W        W63181  31.898  11.669   9.972
 1761W        W63182  34.574   6.781   4.191
 1762W        W63183   0.782  37.920  12.024
 1763W        W63184   7.404  25.612   1.775
 1764W        W63185   1.240  17.679  10.546
 1765W        W63186  23.724  33.888   0.385
 1766W        W63187   4.333  44.921   1.911
 1767W        W63188  14.245   1.467   1.399
 1768W        W63189  14.759  10.747   4.635
 1769W        W63190  22.106  28.533  13.009
 1770W        W63191  24.529   3.733   1.841
 1771W        W63192   2.832   4.932   2.335
 1772W        W63193  41.931   6.748  10.530
 1773W        W63194  14.663  34.475  14.822
 1774W        W63195  17.760  43.287   1.299
 1775W        W63196  16.685  17.642   1.734
 1776W        W63197  11.303  38.926  12.973
 1777W        W63198  15.115  17.709   0.909
 1778W        W63199   9.283  21.576  12.963
 1779W        W63200  32.598  35.884  10.538
 1780W        W63201  38.008  39.954   1.745
 1781W        W63202  40.545  18.574   1.267
 1782W        W63203   6.281  30.993  13.873
 1783W        W63204  42.859  20.104   2.393
 1784W        W63205  44.774  20.237  11.011
 1785W        W63206  37.862  42.387  11.605
 1786W        W63207  15.196   9.175   2.379
 1787W        W63208  16.766  41.835   4.234
 1788W        W63209  43.495  32.953   4.745
 1789W        W63210   7.380  17.752  13.419
 1790W        W63211  21.220  38.339  12.900
 1791W        W63212  25.479   8.167  10.435
 1792W        W63213  28.662  38.417  14.914
 1793W        W63214  21.610  25.531  13.543
 1794W        W63215  26.605  16.248  11.902
 1795W        W63216  26.112  16.652  14.444
 1796W        W63217  18.261  26.518   3.269
 1797W        W63218   3.321  21.061   1.891
 1798W        W63219  29.074  19.061   3.216
 1799W        W63220  42.373   9.692  14.961
 1800W        W63221  11.770  39.978   5.215
 1801W        W63222  10.809  39.924   0.925
 1802W        W63223  42.339   5.791  10.469
 1803W        W63224  19.725  13.744  14.444
 1804W        W63225  32.935  27.527   4.778
 1805W        W63226  24.001  30.521  14.800
 1806W        W63227   6.819  19.045   2.873
 1807W        W63228  40.846  14.606   2.721
 1808W        W63229  26.079  23.124   4.312
 1809W        W63230   4.925  16.206   0.819
 1810W        W63231  38.937  40.506   4.757
 1811W        W63232  32.542  31.091  11.483
 1812W        W63233  40.531  42.815  12.497
 1813W        W63234  15.628  14.281   2.833
 1814W        W63235  15.289  32.141  12.021
 1815W        W63236   3.955   4.280   4.354
 1816W        W63237  38.394  22.197  12.538
 1817W        W63238  24.482  14.133  13.465
 1818W        W63239  25.002  42.994  12.530
 1819W        W63240  28.607  22.502   2.764
 1820W        W63241  38.381  39.481  11.457
 1821W        W63242  19.661  20.748  11.445
 1822W        W63243  30.104  19.572   0.339
 1823W        W63244  37.848  24.648   1.915
 1824W        W63245  38.849  25.079  14.379
 1825W        W63246  44.265  28.177  12.882
 1826W        W63247  41.501  24.705   0.862
 1827W        W63248  29.545  35.860  11.118
 1828W        W63249   3.894  16.639   2.197
 1829W        W63250  28.956  21.753   1.780
 1830W        W63251  28.435  13.328  14.871
 1831W        W63252   4.865  10.367  14.770
 1832W        W63253  14.749  27.955  13.310
 1833W        W63254  28.513  27.026  13.473
 1834W        W63255  11.660  24.607  14.931
 1835W        W63256  23.085   7.840   4.725
 1836W        W63257  40.374  26.681  13.332
 1837W        W63258  30.533  44.489  14.944
 1838W        W63259   6.889  33.113   3.213
 1839W        W63260   9.200   2.874  13.478
 1840W        W63261   0.253  19.765  11.508
 1841W        W63262   4.313  28.632   2.419
 1842W        W63263  11.749  28.055   0.801
 1843W        W63264  13.277   8.667   0.280
 1844W        W63265  23.726  17.743   3.771
 1845W        W63266   6.767   5.769  14.325
 1846W        W63267  36.047  30.466  10.433
 1847W        W63268  42.425   6.300  13.899
 1848W        W63269  39.356  11.238  11.045
 1849W        W63270   6.806  42.494   3.148
 1850W        W63271  35.963  29.173   3.812
 1851W        W63272  32.899  40.418   0.358
 1852W        W63273  35.971  17.579   4.831
 1853W        W63274  33.408  11.690  11.414
 1854W        W63275  10.867  12.794  11.961
 1855W        W63276  36.346  26.582   0.359
 1856W        W63277  12.791   5.825   3.794
 1857W        W63278   1.317  22.642  11.022
 1858W        W63279  40.007  38.547  13.406
 1859W        W63280  20.598   3.908   3.319
 1860W        W63281  15.181  21.569  13.547
 1861W        W63282  19.122  13.838   2.321
 1862W        W63283  30.966  20.630   2.886
 1863W        W63284  35.032  43.940   1.887
 1864W        W63285  15.612  15.595   4.119
 1865W        W63286   0.747  11.789  12.908
 1866W        W63287   8.788   2.303   2.285
 1867W        W63288  16.730  30.949   3.264
 1868W        W63289  25.670  25.539  10.975
 1869W        W63290  17.150  33.886  10.642
 1870W        W63291  30.455  31.046   2.377
 1871W        W63292   1.867   0.305   4.256
 1872W        W63293  20.247  29.562  14.292
 1873W        W63294  17.754  21.732   2.385
 1874W        W63295   9.774  36.037   4.614
 1875W        W63296  11.863  22.144   2.901
 1876W        W63297  17.192   7.286   1.804
 1877W        W63298   6.329  16.587   2.339
 1878W        W63299  12.795  17.758   4.312
 1879W        W63300  35.070  23.993   3.825
 1880W        W63301  21.693  12.348  12.021
 1881W        W63302  23.500  10.355  11.492
 1882W        W63303  27.104  21.039   9.970
 1883W        W63304  23.222  42.315   2.276
 1884W        W63305  19.253   2.405  11.865
 1885W        W63306  35.598   4.699  12.887
 1886W        W63307   7.887  44.371  14.018
 1887W        W63308  13.839  40.520  13.374
 1888W        W63309  10.814   6.209  12.378
 1889W        W63310  35.080  35.524   0.948
 1890W        W63311  27.024  39.430  10.942
 1891W        W63312  37.046  28.055  14.796
 1892W        W63313  27.503  22.558   3.216
 1893W        W63314  31.472  33.900   4.654
 1894W        W63315  22.643  30.533  11.431
 1895W        W63316  11.672   9.691   2.392
 1896W        W63317   8.368   0.925   0.300
 1897W        W63318   5.376   3.851   0.945
 1898W        W63319  32.904  38.841  12.490
 1899W        W63320  33.071  14.662  11.045
 1900W        W63321  19.106  17.152  10.939
 1901W        W63322  36.489  44.495   1.793
 1902W        W63323  14.605  31.912   3.249
 1903W        W63324  16.601  34.448  11.007
 1904W        W63325  16.762   7.184   3.672
 1905W        W63326   0.343  43.400  10.511
 1906W        W63327  39.434  20.632  12.971
 1907W        W63328   8.367   5.721   1.782
 1908W        W63329  29.927  20.105   1.303
 1909W        W63330  24.691   7.867   2.225
 1910W        W63331  32.633  38.020  13.381
 1911W        W63332   5.769   0.873   4.730
 1912W        W63333  10.338  17.307  13.332
 1913W        W63334   6.194   2.367   1.362
 1914W        W63335   6.915  11.334   2.393
 1915W        W63336   0.905  32.590  11.977
 1916W        W63337  23.150  19.123   2.416
 1917W        W63338   3.712   4.276  14.900
 1918W        W63339   7.391  14.755  10.945
 1919W        W63340  37.955  18.548   3.687
 1920W        W63341  40.828  26.686   3.711
 1921W        W63342  30.641   3.778  10.452
 1922W        W63343  34.008   2.383  10.625
 1923W        W63344   1.821  19.703   0.897
 1924W        W63345   9.334  37.043  12.026
 1925W        W63346  13.261  26.176   3.780
 1926W        W63347  40.374  14.094  12.543
 1927W        W63348  17.559  16.126  13.962
 1928W        W63349  32.998  41.809  13.018
 1929W        W63350   6.699  30.065  11.581
 1930W        W63351  43.329  33.474   2.221
 1931W        W63352  44.829  41.963  11.531
 1932W        W63353  11.152   5.265   2.267
 1933W        W63354  16.769   6.209  13.923
 1934W        W63355   5.758  27.559   1.314
 1935W        W63356  21.097   9.781  10.002
 1936W        W63357  32.904  31.941   4.655
 1937W        W63358  28.661  29.050  12.492
 1938W        W63359  29.635  30.059  12.923
 1939W        W63360  18.679  17.652  13.309
 1940W        W63361  10.655  27.993  12.343
 1941W        W63362  15.757  14.765  13.460
 1942W        W63363  21.589  26.105   2.265
 1943W        W63364   6.834  43.002   3.220
 1944W        W63365   2.340  29.492  13.813
 1945W        W63366   3.867  35.453   4.196
 1946W        W63367  19.065   3.401   3.282
 1947W        W63368  19.754  30.009  12.997
 1948W        W63369  13.171  13.842  13.454
 1949W        W63370  10.662  34.546   3.187
 1950W        W63371  28.976  29.557   1.216
 1951W        W63372  12.624  24.691  11.125
 1952W        W63373  31.015  11.371  13.405
 1953W        W63374  12.240  32.467  13.458
 1954W        W63375  40.502  19.589   2.818
 1955W        W63376   7.188  43.298  13.344
 1956W        W63377  20.046  20.524   3.216
 1957W        W63378   2.948  41.933  14.977
 1958W        W63379  34.004  12.773   2.330
 1959W        W63380  31.952  22.720  14.958
 1960W        W63381  28.153  29.149   0.345
 1961W        W63382   1.459  24.076  13.487
 1962W        W63383   9.776  15.584   3.379
 1963W        W63384  38.926   8.210   1.311
 1964W        W63385  41.891  31.542  12.080
 1965W        W63386   2.444  28.584   2.301
 1966W        W63387  21.114   6.242   0.384
 1967W        W63388  21.220  39.884   4.642
 1968W        W63389   3.247  14.101   0.781
 1969W        W63390  28.121   5.698  10.137
 1970W        W63391   0.958  35.596   3.262
 1971W        W63392  40.502  19.127   2.885
 1972W        W63393  11.637  21.590  14.347
 1973W        W63394  41.954  22.540   3.369
 1974W        W63395  19.750  41.819   5.152
 1975W        W63396  22.517  22.210   2.417
 1976W        W63397   4.362  25.601  13.052
 1977W        W63398   6.890  33.877   2.774
 1978W        W63399   6.319  39.314  12.497
 1979W        W63400  21.140  33.494   2.703
 1980W        W63401  20.738   0.491  10.528
 1981W        W63402  37.457  38.851  13.920
 1982W        W63403  19.558   1.910   2.232
 1983W        W63404   9.842   5.708  10.447
 1984W        W63405  42.379  12.219  14.412
 1985W        W63406   4.878  12.657  10.571
 1986W        W63407  12.279  33.428  11.434
 1987W        W63408  10.858  18.193   2.281
 1988W        W63409  38.062  23.631   2.815
 1989W        W63410  33.125  39.365   3.234
 1990W        W63411  43.421  32.983   4.338
 1991W        W63412  42.883   0.804  14.460
 1992W        W63413   5.844  28.180  13.987
 1993W        W63414  27.072   4.868  12.435
 1994W        W63415  28.167  13.641  12.999
 1995W        W63416  12.136   5.829   3.795
 1996W        W63417  15.174  34.569   4.307
 1997W        W63418  11.792  20.180  14.480
 1998W        W63419  42.898  17.115   4.608
 1999W        W63420  44.368  21.721  13.881
 2000W        W63421  32.132  27.153   2.741
 2001W        W63422  33.076   6.410  12.382
 2002W        W63423   3.269   8.337   4.312
 2003W        W63424  16.116  35.599   3.321
 2004W        W63425  12.213  13.780   1.258
 2005W        W63426  35.453   6.394  13.498
 2006W        W63427  12.247  14.140   2.288
 2007W        W63428   3.836  12.714   4.744
 2008W        W63429  40.433  20.540  13.001
 2009W        W63430  29.078  33.102   2.419
 2010W        W63431  15.722  31.589   2.184
 2011W        W63432  13.818   0.485  14.876
 2012W        W63433  38.400   7.665  14.778
 2013W        W63434   9.669  33.131   2.859
 2014W        W63435  38.990  12.736   5.244
 2015W        W63436  24.540  27.544   4.154
 2016W        W63437   5.395  10.849  13.003
 2017W        W63438  43.292   1.425   3.375
 2018W        W63439  44.863  12.772  13.399
 2019W        W63440  41.914  31.005   4.310
 2020W        W63441   6.245   7.880   0.883
 2021W        W63442  43.995  35.925   3.196
 2022W        W63443   2.808  18.611   2.690
 2023W        W63444  18.736  22.206  10.427
 2024W        W63445  44.822  43.420  14.464
 2025W        W63446   8.277  33.594  11.858
 2026W        W63447  22.637   4.736  14.846
 2027W        W63448  17.221  20.266  14.326
 2028W        W63449  21.599  27.558   1.708
 2029W        W63450  28.186  12.812   1.791
 2030W        W63451  21.634   1.781   3.785
 2031W        W63452  10.837  27.006  11.939
 2032W        W63453  25.164   6.904  13.380
 2033W        W63454   4.764  37.556   0.842
 2034W        W63455   3.251   6.877  10.985
 2035W        W63456  33.625  42.434   0.746
 2036W        W63457   3.837  19.259   1.899
 2037W        W63458  36.548  35.596  14.774
 2038W        W63459   9.798  40.047   2.180
 2039W        W63460   4.212  35.509   3.169
 2040W        W63461   6.233  17.298  11.128
 2041W        W63462   7.219  24.186  13.451
 2042W        W63463  13.839  25.996  12.996
 2043W        W63464  31.909  13.223  13.852
 2044W        W63465  36.522  30.928  13.313
 2045W        W63466  23.130   8.784   1.353
 2046W        W63467   3.803  32.958   0.965
 2047W        W63468   2.770  34.436   4.823
 2048W        W63469  11.767  34.869   4.814
 2049W        W63470   5.928  23.644  12.341
 2050W        W63471  27.989  34.609   4.605
 2051W        W63472  38.360  12.183  13.344
 2052W        W63473  24.677  19.210   1.230
 2053W        W63474  29.620   1.885  14.436
 2054W        W63475  20.257  26.140  11.530
 2055W        W63476  35.045   8.182   2.403
 2056W        W63477   4.323   7.332  14.900
 2057W        W63478  38.827  16.811  14.860
 2058W        W63479   5.203   9.647   3.352
 2059W        W63480  33.576  24.695  11.014
 2060W        W63481  12.303   7.833  12.965
 2061W        W63482  27.531  39.435   0.299
 2062W        W63483  43.004  10.878   0.732
 2063W        W63484  20.640  29.954   3.835
 2064W        W63485   6.231  36.897   4.122
 2065W        W63486  44.897  14.123  13.799
 2066W        W63487   1.344  10.855  11.087
 2067W        W63488   6.848   2.244  11.120
 2068W        W63489   6.213  21.701   0.255
 2069W        W63490  32.916  35.400   2.273
 2070W        W63491   6.845  13.697  11.029
 2071W        W63492  12.350   9.319   0.375
 2072W        W63493  43.941  38.851   0.767
 2073W        W63494   2.229  39.005  14.473
 2074W        W63495  13.820  39.384   3.647
 2075W        W63496   4.765  37.847  14.334
 2076W        W63497   5.694   4.250   2.345
 2077W        W63498  33.924   8.808  10.908
 2078W        W63499  10.309  36.481  13.940
 2079W        W63500  20.700   6.849   3.331
 2080W        W63501  19.108   2.254   4.662
 2081W        W63502   8.831  11.652   2.291
 2082W        W63503  21.053  20.271  11.443
 2083W        W63504  34.473  41.862  13.984
 2084W        W63505  32.461  34.569  11.554
 2085W        W63506   9.351   4.292   4.718
 2086W        W63507  27.952  40.347   4.729
 2087W        W63508  39.442   0.769   0.381
 2088W        W63509   9.676  39.437  13.841
 2089W        W63510  26.032  37.446  11.554
 2090W        W63511   2.813   7.711   1.426
 2091W        W63512  27.055  32.445   2.740
 2092W        W63513  43.456  24.579  13.795
 2093W        W63514  20.729  37.531  12.436
 2094W        W63515   1.895   6.410   0.389
 2095W        W63516  12.663   7.785   0.827
 2096W        W63517  14.749  17.654  14.322
 2097W        W63518  12.706  40.370   2.884
 2098W        W63519   7.667   5.690   3.751
 2099W        W63520  16.708  36.043  13.358
 2100W        W63521   7.778  11.806   1.863
 2101W        W63522   7.196   3.717   4.777
 2102W        W63523   1.257  13.115   3.870
 2103W        W63524  21.704   1.294   0.393
 2104W        W63525  38.464   3.365  12.847
 2105W        W63526   7.681  23.168   2.392
 2106W        W63527  32.125  37.366   0.264
 2107W        W63528  44.774  38.329   2.766
 2108W        W63529   7.835  38.957  13.338
 2109W        W63530  34.878  21.748  10.641
 2110W        W63531   0.820  16.311   0.930
 2111W        W63532  20.077  37.561   2.761
 2112W        W63533  15.723  14.597  14.960
 2113W        W63534  32.466  44.434  10.930
 2114W        W63535  11.858  15.237  13.904
 2115W        W63536  44.479  11.753  14.764
 2116W        W63537  21.154  17.718  13.368
 2117W        W63538  13.659  39.988   1.242
 2118W        W63539   6.195  31.947   0.269
 2119W        W63540  30.035   6.393  12.495
 2120W        W63541  10.646   3.939  12.934
 2121W        W63542   1.745  31.971  12.530
 2122W        W63543  22.064  25.041  13.522
 2123W        W63544  12.323   5.220   0.917
 2124W        W63545  14.200   8.179   3.192
 2125W        W63546  39.397  25.622  14.856
 2126W        W63547   8.726  43.984   4.703
 2127W        W63548  38.342  30.451   0.392
 2128W        W63549  16.753  19.126  12.357
 2129W        W63550  14.803  43.270  11.455
 2130W        W63551   8.337  29.515   0.750
 2131W        W63552  12.232  41.524   2.853
 2132W        W63553   0.460  11.146   0.958
 2133W        W63554  18.197   3.382   4.718
 2134W        W63555  31.074   6.269  14.278
 2135W        W63556   4.435  40.009  13.532
 2136W        W63557  13.628   8.365  14.898
 2137W        W63558  29.424  12.316  13.844
 2138W        W63559  11.790  36.002   2.201
 2139W        W63560  21.561   8.781  12.572
 2140W        W63561  18.688   0.787  10.948
 2141W        W63562  33.574  40.516  10.510
 2142W        W63563  22.162   7.228   2.365
 2143W        W63564  42.888  20.134   3.816
 2144W        W63565  25.474  18.768  12.833
 2145W        W63566  15.104  26.656   0.256
 2146W        W63567   3.330  28.663  12.539
 2147W        W63568  19.136  36.572   1.281
 2148W        W63569  36.934  18.550  12.832
 2149W        W63570   1.286   5.252  10.953
 2150W        W63571  17.633  39.852   2.832
 2151W        W63572  32.551  37.510   4.336
 2152W        W63573  43.772  38.881   4.654
 2153W        W63574  15.188  11.625  12.369
 2154W        W63575  36.056  22.135  12.497
 2155W        W63576  22.625  24.707  10.557
 2156W        W63577  17.121   8.184  10.946
 2157W        W63578   2.248  23.500   1.254
 2158W        W63579  24.491  33.481  13.803
 2159W        W63580  16.143   6.768  14.801
 2160W        W63581  31.529   4.417   3.809
 2161W        W63582   8.794  37.361   2.890
 2162W        W63583  37.085  28.631   3.697
 2163W        W63584  11.665   5.335  10.580
 2164W        W63585  21.070   9.391  12.927
 2165W        W63586  13.746  26.056  13.907
 2166W        W63587  41.488  29.157  14.765
 2167W        W63588  11.801  35.985   3.313
 2168W        W63589  41.455  10.719  12.530
 2169W        W63590  44.388  23.025   4.342
 2170W        W63591   4.698  23.535  13.372
 2171W        W63592  19.618  25.144  10.644
 2172W        W63593  18.107  19.562   0.954
 2173W        W63594  14.704  13.252  11.963
 2174W        W63595  28.177  11.804  10.975
 2175W        W63596  30.978  31.984  12.901
 2176W        W63597  21.701  24.709   1.911
 2177W        W63598  16.694   1.407   1.332
 2178W        W63599  36.067  13.781   3.360
 2179W        W63600  39.925  11.691   1.695
 2180W        W63601  28.595  18.265   3.796
 2181W        W63602  31.544   5.922  11.381
 2182W        W63603  39.494  40.048  14.843
 2183W        W63604  39.512   8.314  13.897
 2184W        W63605   3.350   6.901  14.365
 2185W        W63606  42.023  30.604   3.326
 2186W        W63607   9.356  11.828  14.846
 2187W        W63608  13.224  38.512   1.774
 2188W        W63609  28.520   3.394  13.409
 2189W        W63610  44.426  19.206  11.414
 2190W        W63611  31.107  44.315  10.429
 2191W        W63612  32.424  43.892   0.310
 2192W        W63613   6.875  22.567  12.089
 2193W        W63614   2.740  32.125  12.580
 2194W        W63615   3.837  26.077   1.447
 2195W        W63616  27.515  12.671   2.825
 2196W        W63617  30.623  36.514  13.447
 2197W        W63618   7.258  36.564   3.753
 2198W        W63619   4.941  26.052  11.606
 2199W        W63620   0.362  27.496   3.199
 2200W        W63621   7.863   6.365  11.122
 2201W        W63622  11.340  13.695   1.451
 2202W        W63623  31.001  38.980  14.297
 2203W        W63624  12.326   9.151   1.263
 2204W        W63625   6.706   9.278  13.049
 2205W        W63626  12.322  15.677   4.339
 2206W        W63627  15.149  34.022   4.341
 2207W        W63628  19.666   5.249   1.925
 2208W        W63629   4.317  43.330   3.339
 2209W        W63630  40.944  19.108   4.181
 2210W        W63631   5.805  15.246  12.065
 2211W        W63632  38.974   8.236   4.789
 2212W        W63633  16.142   6.207   0.471
 2213W        W63634  17.758  20.246  13.857
 2214W        W63635  13.817  26.688  13.966
 2215W        W63636  15.631  10.152   3.279
 2216W        W63637  17.254  28.547  10.891
 2217W        W63638  38.833   5.747  13.329
 2218W        W63639   1.404  34.374  14.382
 2219W        W63640  21.621  12.668  13.459
 2220W        W63641  37.546   1.481  11.959
 2221W        W63642  22.248  23.714   2.187
 2222W        W63643  42.295  27.144  14.954
 2223W        W63644  34.056  25.713   3.678
 2224W        W63645  37.336   6.294  12.847
 2225W        W63646   3.425  25.545  11.879
 2226W        W63647  32.014  41.394  10.574
 2227W        W63648   2.289  44.791  14.314
 2228W        W63649  39.870  31.496  11.025
 2229W        W63650  34.603  20.210   3.372
 2230W        W63651  30.157  27.094   3.678
 2231W        W63652  28.497  24.981   1.338
 2232W        W63653  39.956   2.387  12.037
 2233W        W63654  35.521  23.135  13.444
 2234W        W63655  11.654   6.306   2.765
 2235W        W63656  30.588  41.809  11.462
 2236W        W63657  43.818  18.618  11.089
 2237W        W63658  22.202  18.253   2.418
 2238W        W63659   5.376  26.986  11.448
 2239W        W63660  14.276  35.880  14.026
 2240W        W63661   3.892   6.332  14.842
 2241W        W63662  15.608  28.093  12.025
 2242W        W63663  22.732  44.987   1.380
 2243W        W63664  11.842  42.473   4.639
 2244W        W63665  32.128  10.322   1.309
 2245W        W63666   2.785   6.873  14.944
 2246W        W63667  29.125  34.886   4.220
 2247W        W63668  36.964   0.942   2.859
 2248W        W63669   8.720   5.207  12.990
 2249W        W63670  44.810  41.309   3.221
 2250W        W63671  16.169  21.738   3.722
 2251W        W63672  13.256  27.594  14.980
 2252W        W63673   2.376  12.707   4.280
 2253W        W63674   7.276  28.957  12.491
 2254W        W63675  18.190   4.926   4.619
 2255W        W63676  35.082  21.130   0.831
 2256W        W63677  29.535  44.488  12.367
 2257W        W63678  21.673  42.990   1.383
 2258W        W63679  30.959  40.346   9.992
 2259W        W63680  36.967   2.738  11.989
 2260W        W63681  27.160  16.120  10.446
 2261W        W63682   9.174  14.186   3.159
 2262W        W63683  40.442  41.025   2.350
 2263W        W63684  28.440  29.440  14.781
 2264W        W63685   0.875  32.509   0.906
 2265W        W63686  35.488  41.902   2.754
 2266W        W63687  19.160  35.968   1.423
 2267W        W63688   9.382  32.482   2.708
 2268W        W63689  29.067  32.393   4.191
 2269W        W63690  28.132   6.373  10.517
 2270W        W63691  26.488  36.869   1.268
 2271W        W63692  33.579  15.270   3.218
 2272W        W63693   5.835  15.682  11.914
 2273W        W63694  40.502  32.548  13.008
 2274W        W63695   7.849  34.051  10.546
 2275W        W63696  37.546  16.694  11.987
 2276W        W63697  21.732  38.363   4.312
 2277W        W63698  10.866   7.359   4.771
 2278W        W63699   8.248  29.060   2.349
 2279W        W63700  23.188  14.195   0.852
 2280W        W63701  42.401  15.647  14.369
 2281W        W63702  22.520  41.499   0.433
 2282W        W63703  27.587   1.306   3.719
 2283W        W63704   7.235  31.561   3.645
 2284W        W63705   1.444  42.488  13.823
 2285W        W63706   3.869  34.504  14.296
 2286W        W63707   1.916  23.127   0.335
 2287W        W63708   4.443   8.389   3.811
 2288W        W63709  33.587  42.923   3.301
 2289W        W63710  11.323   1.336   0.430
 2290W        W63711  44.963   5.688  10.539
 2291W        W63712  32.908  33.472   3.668
 2292W        W63713   1.892  30.098   4.643
 2293W        W63714  32.409   3.450  10.104
 2294W        W63715  42.462  38.947   4.779
 2295W        W63716  26.989  16.140  14.772
 2296W        W63717  39.500  35.385   2.334
 2297W        W63718  14.336  15.196   1.397
 2298W        W63719  44.389  38.070   1.876
 2299W        W63720  11.203   2.842   3.255
 2300W        W63721  24.031  25.664  14.967
 2301W        W63722   0.393  13.215  12.483
 2302W        W63723   8.296  29.479   4.629
 2303W        W63724  37.019  36.491   2.874
 2304W        W63725  30.069  33.537   0.350
 2305W        W63726  41.986   4.283  12.442
 2306W        W63727  14.155  44.871   4.760
 2307W        W63728  19.541  39.465   2.737
 2308W        W63729  31.476  27.598  12.514
 2309W        W63730   4.884   0.930  11.410
 2310W        W63731  40.911  43.855   3.308
 2311W        W63732  32.139   3.820  11.931
 2312W        W63733  38.476   7.365   4.148
 2313W        W63734  42.006  14.635   2.316
 2314W        W63735  41.478  30.066   1.228
 2315W        W63736  24.130  32.053   2.312
 2316W        W63737  37.839  26.172   0.294
 2317W        W63738  39.521  14.783   1.444
 2318W        W63739  32.009  11.767   0.271
 2319W        W63740  29.652  18.065   3.684
 2320W        W63741  41.333  34.486  14.811
 2321W        W63742   5.829  40.345  11.532
 2322W        W63743  20.229   0.916  11.401
 2323W        W63744  29.958  35.457  14.378
 2324W        W63745  27.165  16.770   2.666
 2325W        W63746  27.519   3.863  13.964
 2326W        W63747  37.010  30.989  13.419
 2327W        W63748   0.769   7.200  14.898
 2328W        W63749  13.806   0.918   3.707
 2329W        W63750  43.007  11.323   4.340
 2330W        W63751  22.057  36.393   0.927
 2331W        W63752  17.793   3.435  12.360
 2332W        W63753  17.061  29.645   0.272
 2333W        W63754  10.676  12.127   3.311
 2334W        W63755   7.324  28.627   0.363
 2335W        W63756  16.676  39.007  11.981
 2336W        W63757  38.528   5.259   1.325
 2337W        W63758   9.245   0.300  14.434
 2338W        W63759  11.704  26.034  13.920
 2339W        W63760  33.015   8.185  13.923
 2340W        W63761  27.086  40.320  12.419
 2341W        W63762  23.212  35.440   0.427
 2342W        W63763  35.370  29.015   4.656
 2343W        W63764  36.351  37.555  11.991
 2344W        W63765  41.423  19.116  13.330
 2345W        W63766  22.552  34.485   1.918
 2346W        W63767   0.828  39.983   4.733
 2347W        W63768   0.865  39.828   3.871
 2348W        W63769   4.857  22.518  13.876
 2349W        W63770  40.432  36.971  13.317
 2350W        W63771   4.852  38.045  11.498
 2351W        W63772  30.516  11.735   4.160
 2352W        W63773  42.938   7.802  12.425
 2353W        W63774  33.916   0.412  11.862
 2354W        W63775   5.256   6.410   2.819
 2355W        W63776   2.728  38.010   1.353
 2356W        W63777  22.501  13.248   5.092
 2357W        W63778  10.202  41.316  14.949
 2358W        W63779  24.018  20.673   0.877
 2359W        W63780  25.538  15.199  12.574
 2360W        W63781  44.845  19.144   1.303
 2361W        W63782  11.187  42.780  10.109
 2362W        W63783  38.547   8.850   4.799
 2363W        W63784  29.956   7.296  14.000
 2364W        W63785  17.574  36.075   1.328
 2365W        W63786  15.218  32.540   0.245
 2366W        W63787  40.886  13.788   0.733
 2367W        W63788  37.414  12.801   0.939
 2368W        W63789  28.583  17.641  12.497
 2369W        W63790  23.595  41.482   1.294
 2370W        W63791  12.223   6.790   1.930
 2371W        W63792  41.794  43.496   3.819
 2372W        W63793  39.466  15.273  10.610
 2373W        W63794  18.704  33.406   2.239
 2374W        W63795  10.225  19.212  11.052
 2375W        W63796  35.951  39.318   2.724
 2376W        W63797   3.789  44.811   3.235
 2377W        W63798  37.086   3.773   2.214
 2378W        W63799  43.828  15.670   3.321
 2379W        W63800  41.483  22.164  10.890
 2380W        W63801  19.199   5.851   4.266
 2381W        W63802  34.420  11.348   3.634
 2382W        W63803   4.273  30.558   2.410
 2383W        W63804  27.156  34.484   2.737
 2384W        W63805   8.394  23.713   2.824
 2385W        W63806  20.649  33.446   1.376
 2386W        W63807  32.115  27.653   2.217
 2387W        W63808  25.040  27.998  10.604
 2388W        W63809   1.788  34.453   2.355
 2389W        W63810  11.862  27.978  12.465
 2390W        W63811  20.629  36.404   0.844
 2391W        W63812  23.691  32.934  13.517
 2392W        W63813  11.193  20.057  11.909
 2393W        W63814  21.520  35.989   4.166
 2394W        W63815  30.140  39.884   0.961
 2395W        W63816  44.405  30.560  12.047
 2396W        W63817   7.908  19.153  14.801
 2397W        W63818  24.676   5.721   1.737
 2398W        W63819  14.228   1.282   0.965
 2399W        W63820  20.580   2.937  14.448
 2400W        W63821  36.472  20.531   3.658
 2401W        W63822  10.718  23.547   0.460
 2402W        W63823  36.422  37.398  10.991
 2403W        W63824  35.968   9.230  10.528
 2404W        W63825  18.671  36.036  10.580
 2405W        W63826   3.947   3.407  14.361
 2406W        W63827   4.306   2.906   3.685
 2407W        W63828  37.378  36.939   1.327
 2408W        W63829  14.138  21.128   2.383
 2409W        W63830  44.439  17.204   2.245
 2410W        W63831  17.794  22.010   1.405
 2411W        W63832  44.459  25.645   0.914
 2412W        W63833  17.608   8.268  13.986
 2413W        W63834  24.049  32.936  11.004
 2414W        W63835  30.073  33.380  14.832
 2415W        W63836  44.435   1.420  10.143
 2416W        W63837   5.780  19.109  11.455
 2417W        W63838  12.196  21.725   0.309
 2418W        W63839  13.726  41.457   0.476
 2419W        W63840  21.108  39.030  12.449
 2420W        W63841  28.986  34.908  12.019
 2421W        W63842  41.537  38.375  13.323
 2422W        W63843  29.596   1.767   1.796
 2423W        W63844  38.821  41.861   3.679
 2424W        W63845  37.441  40.409  11.375
 2425W        W63846  43.790   8.661   4.139
 2426W        W63847  31.096  22.155  11.894
 2427W        W63848   1.317  38.958   4.260
 2428W        W63849  15.288  27.055  14.855
 2429W        W63850   3.887  24.212  12.387
 2430W        W63851  32.057  40.797   1.230
 2431W        W63852  30.101   2.421   1.428
 2432W        W63853  19.765   8.196  12.932
 2433W        W63854  18.085  33.922  11.587
 2434W        W63855  39.026  28.096   4.180
 2435W        W63856  33.422  12.615  10.965
 2436W        W63857  33.054  13.284   9.942
 2437W        W63858  12.200  34.478  11.466
 2438W        W63859   3.361  17.111   2.394
 2439W        W63860  12.165  16.651   2.352
 2440W        W63861  14.260  22.585  12.497
 2441W        W63862  23.201  30.607   0.869
 2442W        W63863  18.776  43.502  10.628
 2443W        W63864  44.472  31.982  12.410
 2444W        W63865   1.338  18.554   2.889
 2445W        W63866  28.617  15.330  10.530
 2446W        W63867  43.495   3.381   0.765
 2447W        W63868  23.185  22.745   2.781
 2448W        W63869   0.784   4.731   3.257
 2449W        W63870  14.784  34.927   1.239
 2450W        W63871  35.599  23.124   4.688
 2451W        W63872  38.858  15.283  12.558
 2452W        W63873  17.218  18.786  10.059
 2453W        W63874  29.647  32.391  11.449
 2454W        W63875  23.113  27.062   0.277
 2455W        W63876   8.892  33.047   0.852
 2456W        W63877   4.720  28.056  12.974
 2457W        W63878   6.394  37.936   2.694
 2458W        W63879  44.293  24.713   4.290
 2459W        W63880   9.763  31.959  13.447
 2460W        W63881  40.847  25.017   0.424
 2461W        W63882  23.712  26.558  13.481
 2462W        W63883   7.189  24.717   5.253
 2463W        W63884  16.167   9.695  13.862
 2464W        W63885  27.518  38.542   1.315
 2465W        W63886   1.905  23.071   3.168
 2466W        W63887  40.983  28.979   2.398
 2467W        W63888  26.961  38.476  13.453
 2468W        W63889  13.210  44.302   2.897
 2469W        W63890  15.665  16.709   2.303
 2470W        W63891  42.481  16.099   1.251
 2471W        W63892  35.363   3.711   4.609
 2472W        W63893  32.447  34.411  12.403
 2473W        W63894   4.320   7.750   4.310
 2474W        W63895  41.429  13.758  11.976
 2475W        W63896  38.534  17.704  13.398
 2476W        W63897  37.070  32.627  11.577
 2477W        W63898  15.098  43.973   1.316
 2478W        W63899  38.969  37.851   1.752
 2479W        W63900  11.744  21.120  14.788
 2480W        W63901  22.190  22.009  12.510
 2481W        W63902  39.406  17.616   0.833
 2482W        W63903  26.595  10.766  13.015
 2483W        W63904  37.529   6.297   4.638
 2484W        W63905   7.273   9.811  11.893
 2485W        W63906  16.117  35.534  13.498
 2486W        W63907  31.936  22.090   4.642
 2487W        W63908   4.433   0.771   4.648
 2488W        W63909  21.524   9.272  14.460
 2489W        W63910  37.951  42.406  10.471
 2490W        W63911  18.182   7.378  10.928
 2491W        W63912  12.292  42.934   3.344
 2492W        W63913  21.213  11.230   4.739
 2493W        W63914  12.655  32.425   0.315
 2494W        W63915   0.277  42.957  11.026
 2495W        W63916  30.586   0.885   4.341
 2496W        W63917  39.365  29.579  13.995
 2497W        W63918  44.448  22.575  13.946
 2498W        W63919  30.499   9.205   0.370
 2499W        W63920  27.992  30.455   4.345
 2500W        W63921  34.454  12.639  12.027
 2501W        W63922  35.553  15.089  12.942
 2502W        W63923  13.205   3.831   0.962
 2503W        W63924   1.741   5.759  11.590
 2504W        W63925   5.422   9.221  12.930
 2505W        W63926  10.306  23.673   1.321
 2506W        W63927  21.048   3.428  12.499
 2507W        W63928  24.689  39.440   4.604
 2508W        W63929  23.673  34.024  13.985
 2509W        W63930  16.722   7.814  12.578
 2510W        W63931  37.468   2.467   2.731
 2511W        W63932  23.027  38.535   3.217
 2512W        W63933  13.181   2.266  11.086
 2513W        W63934   4.811  26.582   2.689
 2514W        W63935  44.934   7.710   4.607
 2515W        W63936  39.547  39.946  11.895
 2516W        W63937   4.752  20.098  11.006
 2517W        W63938  11.753  44.415   0.408
 2518W        W63939  15.264  33.499  10.935
 2519W        W63940  44.936   5.809  12.859
 2520W        W63941  44.947  28.963   1.731
 2521W        W63942  39.429   4.740  14.336
 2522W        W63943  29.482  27.152   1.813
 2523W        W63944   1.858  43.290  10.989
 2524W        W63945   5.726  42.955  12.495
 2525W        W63946   5.816   6.373   3.755
 2526W        W63947   0.369   6.904  10.943
 2527W        W63948  42.983   2.291  14.836
 2528W        W63949  29.463  10.857  12.570
 2529W        W63950  21.105   4.936   0.774
 2530W        W63951  10.257  29.615  13.867
 2531W        W63952  15.587  18.581  11.383
 2532W        W63953  32.957  20.143   3.184
 2533W        W63954   9.813  42.819  14.416
 2534W        W63955   4.381  25.614  12.086
 2535W        W63956  13.151  41.791  14.357
 2536W        W63957  22.502  14.679  12.839
 2537W        W63958   6.189   0.871  11.513
 2538W        W63959  18.691  37.049   0.354
 2539W        W63960  41.023   6.425   0.813
 2540W        W63961  13.600  31.932   3.684
 2541W        W63962  27.477   5.335   0.914
 2542W        W63963  12.332  37.052   3.664
 2543W        W63964  16.166   4.709  10.130
 2544W        W63965  21.076  38.481  11.875
 2545W        W63966  13.266  26.083   1.310
 2546W        W63967  27.091  13.737   1.376
 2547W        W63968   9.776  18.144   2.821
 2548W        W63969  11.754   6.402  14.824
 2549W        W63970  41.032  15.715   2.790
 2550W        W63971   3.882  32.109   5.690
 2551W        W63972   4.334  17.692   0.361
 2552W        W63973  26.143  24.700   4.652
 2553W        W63974  15.321  42.517   0.775
 2554W        W63975  23.605  31.633   3.235
 2555W        W63976  13.107   7.800   0.417
 2556W        W63977  31.555  28.486  14.391
 2557W        W63978   9.671  28.447  13.898
 2558W        W63979  15.701  42.875   5.266
 2559W        W63980   8.803  12.135  10.520
 2560W        W63981  36.926  25.131  11.068
 2561W        W63982  11.841   2.780  11.007
 2562W        W63983  24.225  30.083   0.376
 2563W        W63984  13.117  32.922   4.188
 2564W        W63985   0.412   9.293  10.461
 2565W        W63986  42.310  43.855   2.861
 2566W        W63987   8.878  20.575  12.517
 2567W        W63988  29.031   1.368  13.468
 2568W        W63989  29.521  11.709   0.960
 2569W        W63990  23.552  41.418  13.451
 2570W        W63991  24.227  25.213   2.674
 2571W        W63992   7.392  44.808   3.737
 2572W        W63993  12.797  36.998  14.299
 2573W        W63994  34.879  17.783   3.845
 2574W        W63995  25.523  43.930   1.882
 2575W        W63996  36.853   7.310   3.867
 2576W        W63997  28.573  41.337   2.181
 2577W        W63998   8.875  39.987   3.163
 2578W        W63999  36.071  31.499   0.821
 2579W        W64000  13.301  17.187  14.443
 2580W        W64001  33.909  35.473   1.394
 2581W        W64002   8.789  35.896   0.269
 2582W        W64003  24.007  40.365   1.750
 2583W        W64004  29.572  32.444   1.302
 2584W        W64005   1.901  13.739  12.889
 2585W        W64006   1.315  34.934  13.522
 2586W        W64007  39.502  24.609   0.312
 2587W        W64008  41.380  43.340   0.813
 2588W        W64009  15.670  23.587  13.862
 2589W        W64010  24.115  38.459   0.307
 2590W        W64011  15.218   7.888  11.908
 2591W        W64012  15.695  29.586  10.549
 2592W        W64013  31.611  32.578   4.287
 2593W        W64014  41.400  27.661  11.486
 2594W        W64015   4.363  42.363  12.574
 2595W        W64016  17.738  42.951  12.463
 2596W        W64017  31.980  28.567   4.748
 2597W        W64018  39.554   3.840  13.916
 2598W        W64019  39.384  43.870  10.532
 2599W        W64020  11.680  28.584   2.374
 2600W        W64021   0.920   9.361   4.268
 2601W        W64022  21.259  39.937   3.727
 2602W        W64023  33.879   9.680  11.876
 2603W        W64024  20.195  38.488   1.853
 2604W        W64025  28.509  22.209  10.551
 2605W        W64026   3.861  32.591  11.123
 2606W        W64027  25.209  42.028   1.911
 2607W        W64028  24.479  44.991   4.744
 2608W        W64029  31.646  23.512   1.835
 2609W        W64030   1.445  22.506  12.934
 2610W        W64031  25.625   9.842   3.705
 2611W        W64032  39.842  40.925   1.244
 2612W        W64033  15.308   6.778   2.750
 2613W        W64034  39.932  28.491  11.417
 2614W        W64035  17.580  25.042   0.968
 2615W        W64036  21.717  44.446  11.498
 2616W        W64037  21.227  28.628   2.368
 2617W        W64038  15.795   7.858  14.477
 2618W        W64039   8.177   4.701   2.300
 2619W        W64040  34.512  21.249  10.123
 2620W        W64041  34.920  18.594   2.213
 2621W        W64042   2.818  34.401   9.635
 2622W        W64043   4.258  10.718   1.753
 2623W        W64044  30.586  31.608  12.422
 2624W        W64045  31.999  40.348  10.518
 2625W        W64046  35.076  39.996   0.389
 2626W        W64047  25.974  24.641  11.994
 2627W        W64048  12.175   4.761   2.783
 2628W        W64049  15.786  12.702   1.813
 2629W        W64050  43.766   6.792  10.417
 2630W        W64051  13.290  17.782  11.412
 2631W        W64052  31.448  12.294   2.747
 2632W        W64053  10.792  13.729   3.243
 2633W        W64054   7.302   8.673   3.304
 2634W        W64055   7.202  36.356   5.177
 2635W        W64056  30.019  14.612   1.392
 2636W        W64057  34.091  30.921  12.339
 2637W        W64058   7.868  15.741  10.096
 2638W        W64059   9.326  32.427  10.512
 2639W        W64060  30.096  35.090   3.808
 2640W        W64061  17.778  15.757  12.481
 2641W        W64062  42.846  30.478   4.761
 2642W        W64063  39.335  36.497   0.247
 2643W        W64064   8.242  37.953  10.631
 2644W        W64065   7.227  17.565  13.931
 2645W        W64066  11.211  23.046   0.267
 2646W        W64067  25.178   6.691   1.363
 2647W        W64068  28.932  41.832   0.454
 2648W        W64069  18.160  26.052  13.984
 2649W        W64070  37.482  36.458   4.671
 2650W        W64071  31.964  21.722   0.786
 2651W        W64072  41.314  10.831  12.953
 2652W        W64073  20.529  22.541  13.403
 2653W        W64074  42.305  27.967  14.909
 2654W        W64075  24.101  27.003   2.813
 2655W        W64076  32.085   8.232  12.072
 2656W        W64077  15.756   4.861   5.194
 2657W        W64078  38.450  25.979   4.178
 2658W        W64079  31.579  12.169   3.175
 2659W        W64080   4.304  22.057  13.382
 2660W        W64081   7.185  32.089  12.364
 2661W        W64082  14.761  39.855  12.545
 2662W        W64083  42.947  40.881  11.067
 2663W        W64084  16.109  41.385   4.634
 2664W        W64085   9.822  11.334   3.187
 2665W        W64086  27.183  15.097  12.548
 2666W        W64087  15.202  44.956   2.664
 2667W        W64088  29.544   5.404  12.453
 2668W        W64089  19.166  34.096  12.866
 2669W        W64090  33.521  38.020   1.442
 2670W        W64091  11.165   5.690   1.349
 2671W        W64092  18.610   4.925   1.294
 2672W        W64093  23.724  18.155  13.310
 2673W        W64094  33.131  29.622   4.621
 2674W        W64095   6.348  12.622   2.711
 2675W        W64096   8.244  41.295   3.677
 2676W        W64097   2.412   0.338   4.288
 2677W        W64098  10.747  30.099   4.778
 2678W        W64099  17.130  35.013  13.063
 2679W        W64100  33.405  11.203  14.379
 2680W        W64101  25.670  20.248   4.632
 2681W        W64102  41.368   4.859   2.260
 2682W        W64103  11.234  31.524  10.942
 2683W        W64104  39.457   5.402  14.501
 2684W        W64105  21.637  31.560   2.303
 2685W        W64106   2.887  22.110  13.532
 2686W        W64107  15.183  28.628  14.328
 2687W        W64108  44.290  25.667  10.957
 2688W        W64109  37.027  29.440  14.793
 2689W        W64110  36.529  10.677   1.381
 2690W        W64111  44.773  19.655   1.867
 2691W        W64112   5.369  41.906   3.697
 2692W        W64113  10.214   8.789   0.384
 2693W        W64114  44.380  20.258  10.458
 2694W        W64115  37.422  27.150   2.219
 2695W        W64116  28.977   8.853   2.344
 2696W        W64117   4.921  14.325   0.337
 2697W        W64118  39.560  38.492   1.237
 2698W        W64119  41.992  23.211   3.838
 2699W        W64120  12.346  42.405  14.445
 2700W        W64121  12.169  25.965   2.279
 2701W        W64122   0.294  41.491   2.813
 2702W        W64123  15.703  38.337   0.771
 2703W        W64124   7.383  32.480   1.217
 2704W        W64125  12.845   5.743  11.050
 2705W        W64126   7.874  28.528  11.871
 2706W        W64127  30.494  16.643  11.926
 2707W        W64128  27.626  44.937   0.413
 2708W        W64129  30.160  14.218  11.946
 2709W        W64130  32.041  18.074   1.777
 2710W        W64131  39.985   2.361   4.194
 2711W        W64132  34.969  32.634   4.686
 2712W        W64133  30.537  19.085  14.924
 2713W        W64134  11.684   3.878   4.785
 2714W        W64135   3.423  39.973   3.848
 2715W        W64136  44.472  13.780   2.277
 2716W        W64137  30.094  10.213   1.729
 2717W        W64138  18.059  28.466   4.700
 2718W        W64139   1.413  22.018   2.831
 2719W        W64140  19.593   2.263   0.772
 2720W        W64141  41.296  23.149   0.873
 2721W        W64142   2.855  12.704   0.415
 2722W        W64143  29.479   1.796   5.204
 2723W        W64144  17.722  19.243  11.906
 2724W        W64145  21.698  37.336   3.275
 2725W        W64146   4.409  12.183   3.221
 2726W        W64147   7.220   0.884   0.386
 2727W        W64148   7.886  17.220  12.422
 2728W        W64149  18.594   8.796   4.168
 2729W        W64150  41.454  16.759   2.255
 2730W        W64151  25.060  11.740   2.229
 2731W        W64152  10.842  30.559   2.766
 2732W        W64153   4.245  42.508  11.551
 2733W        W64154  25.482  31.142   1.880
 2734W        W64155   6.850   0.322   1.439
 2735W        W64156  29.951  17.242   3.827
 2736W        W64157  35.939  34.481  10.446
 2737W        W64158  41.906  38.000  10.482
 2738W        W64159  17.789   1.958   2.703
 2739W        W64160  10.359  42.353   2.810
 2740W        W64161  42.824  19.251  10.449
 2741W        W64162  12.172  34.005   4.829
 2742W        W64163  25.196  14.629   3.810
 2743W        W64164   0.837  38.052   1.261
 2744W        W64165  31.934  41.512  11.050
 2745W        W64166   2.387   5.932  10.616
 2746W        W64167  32.032  29.511  13.839
 2747W        W64168  37.529  13.125   1.350
 2748W        W64169   5.256   6.763  12.041
 2749W        W64170  23.096  43.284  14.779
 2750W        W64171   0.864   2.766   0.868
 2751W        W64172  11.863  28.546  10.890
 2752W        W64173  23.678  17.106  14.843
 2753W        W64174  19.068   7.803   1.314
 2754W        W64175  17.226  17.190  10.026
 2755W        W64176  38.823  23.556   4.763
 2756W        W64177   8.790  38.029   5.245
 2757W        W64178  36.579   2.327  13.456
 2758W        W64179  33.022  11.134  14.917
 2759W        W64180  36.509  42.831   2.255
 2760W        W64181  15.235  27.188   3.374
 2761W        W64182   9.380  31.991   4.225
 2762W        W64183  20.180  23.609   0.842
 2763W        W64184  21.690   2.839   1.844
 2764W        W64185  27.643  21.578  12.530
 2765W        W64186  35.473  41.996   0.305
 2766W        W64187  23.692  25.478  12.860
 2767W        W64188  10.147  22.063  10.597
 2768W        W64189   0.977  24.559  10.901
 2769W        W64190  24.647  44.835  11.057
 2770W        W64191  10.782   7.706   1.254
 2771W        W64192  21.524  21.666  10.445
 2772W        W64193  10.877  16.286  13.798
 2773W        W64194  20.210  20.672   2.303
 2774W        W64195  11.153  18.208   1.819
 2775W        W64196   3.225   7.740   1.852
 2776W        W64197   8.328  21.202   1.242
 2777W        W64198  36.364  42.826  14.412
 2778W        W64199  28.470  27.470  10.559
 2779W        W64200  43.395  43.906   2.247
 2780W        W64201  12.850  18.611  12.016
 2781W        W64202  34.869  39.496  10.460
 2782W        W64203   5.340  44.276   1.910
 2783W        W64204  21.598   2.360   1.270
 2784W        W64205  40.466  44.503   0.422
 2785W        W64206  33.959   9.767   2.699
 2786W        W64207   1.438  39.420   3.809
 2787W        W64208  42.865  43.844   1.414
 2788W        W64209  44.927  36.384  12.522
 2789W        W64210   3.931   1.366  11.039
 2790W        W64211  17.610  41.368   3.269
 2791W        W64212  34.432  16.170  12.478
 2792W        W64213  23.714   7.863   1.727
 2793W        W64214  12.689  22.052   1.696
 2794W        W64215  39.851  44.336   1.904
 2795W        W64216   1.857  27.180  11.904
 2796W        W64217  21.027  11.203  14.466
 2797W        W64218  27.644  22.016   4.260
 2798W        W64219  34.971   9.822  11.516
 2799W        W64220   4.407  19.249   1.828
 2800W        W64221  42.398  23.044  13.518
 2801W        W64222   5.771  44.399   0.943
 2802W        W64223  12.685  14.647   3.238
 2803W        W64224  31.464  16.181  13.053
 2804W        W64225   4.821  14.169   1.910
 2805W        W64226  43.881  22.212  10.644
 2806W        W64227  37.339  24.708   4.129
 2807W        W64228  40.453  23.205  11.889
 2808W        W64229   2.232  21.719   4.791
 2809W        W64230  18.144  38.850   3.806
 2810W        W64231  25.050  42.432   1.776
 2811W        W64232   2.322  25.614   5.246
 2812W        W64233  31.543  15.163  11.901
 2813W        W64234   6.256  11.723   3.208
 2814W        W64235   1.737  36.886   3.649
 2815W        W64236  42.466   8.661  13.517
 2816W        W64237  31.934  44.336   5.221
 2817W        W64238   9.786  11.309  13.931
 2818W        W64239  40.336  28.115  12.909
 2819W        W64240  16.577  11.626   1.417
 2820W        W64241  22.070  34.404  11.863
 2821W        W64242  17.600   0.752   2.720
 2822W        W64243   0.921  31.964  13.477
 2823W        W64244  14.214   0.250   2.206
 2824W        W64245  18.788  15.255   2.261
 2825W        W64246  35.910  19.704  11.879
 2826W        W64247  16.145  10.285  12.351
 2827W        W64248  32.129  10.369  13.977
 2828W        W64249  33.017  34.930  11.425
 2829W        W64250  13.620  38.570  14.928
 2830W        W64251  34.043  32.923   3.765
 2831W        W64252  32.636   2.929   2.415
 2832W        W64253  12.345   0.858   2.836
 2833W        W64254  35.382  28.507  12.090
 2834W        W64255  14.821  34.073   0.954
 2835W        W64256  26.083  26.107  12.870
 2836W        W64257   0.327  40.512  13.524
 2837W        W64258  43.946  10.698  12.543
 2838W        W64259  44.466   6.286   4.231
 2839W        W64260  23.240  40.970  11.488
 2840W        W64261  10.372  44.473   0.251
 2841W        W64262  38.404  38.940  12.977
 2842W        W64263   8.664  18.240  11.595
 2843W        W64264  35.551  32.420  14.347
 2844W        W64265  14.603  33.025   4.122
 2845W        W64266  25.474   7.740  13.358
 2846W        W64267   3.860  30.093   4.266
 2847W        W64268  23.157  21.098   0.304
 2848W        W64269  43.404  43.883  10.439
 2849W        W64270   1.273  14.756  14.764
 2850W        W64271   8.709  21.219   0.328
 2851W        W64272  11.749   0.365  13.423
 2852W        W64273  43.857  26.549   1.350
 2853W        W64274  11.144   1.761   4.219
 2854W        W64275  11.358  25.036  14.282
 2855W        W64276  22.645  31.500  12.998
 2856W        W64277  13.216  16.126  14.001
 2857W        W64278   6.787   0.458  13.540
 2858W        W64279  27.086  23.549   2.852
 2859W        W64280  29.141   7.686   4.794
 2860W        W64281  40.488  34.580   2.661
 2861W        W64282  42.360  11.285   1.399
 2862W        W64283  11.164  44.462  12.426
 2863W        W64284  12.835  32.974  13.962
 2864W        W64285   2.746  36.581   1.426
 2865W        W64286  44.807  17.171   2.854
 2866W        W64287  28.024   0.806   4.698
 2867W        W64288  43.406  27.507   0.828
 2868W        W64289  27.180  17.645   3.280
 2869W        W64290   0.894  33.532  10.455
 2870W        W64291  13.800  44.988   2.407
 2871W        W64292  34.968  41.386  11.596
 2872W        W64293  23.659  26.635   2.748
 2873W        W64294  23.120  40.978   3.324
 2874W        W64295  26.144   6.424   2.681
 2875W        W64296  32.523  23.128   0.245
 2876W        W64297  30.572  33.909   2.340
 2877W        W64298  33.436   2.917   0.862
 2878W        W64299   4.415  16.118  12.091
 2879W        W64300   6.676   8.716   2.753
 2880W        W64301  41.337  34.577   2.410
 2881W        W64302  17.112  17.774  14.443
 2882W        W64303  24.643  35.089   1.723
 2883W        W64304  16.672  16.811  14.919
 2884W        W64305  22.042  16.221  13.353
 2885W        W64306  22.707  21.550  11.985
 2886W        W64307  30.461  42.489   3.257
 2887W        W64308  40.400  29.109  11.506
 2888W        W64309   7.806  33.520  14.406
 2889W        W64310  42.898  37.015   3.697
 2890W        W64311  41.429  18.252  12.351
 2891W        W64312   0.828  35.399  12.424
 2892W        W64313   9.305  18.175   0.738
 2893W        W64314  30.583  44.399  10.500
 2894W        W64315  30.990  12.296   3.800
 2895W        W64316  10.344  28.013   4.183
 2896W        W64317   1.749  12.683  11.947
 2897W        W64318  44.967  14.197   2.295
 2898W        W64319  18.272  17.616  13.002
 2899W        W64320  30.994   2.894  12.958
 2900W        W64321   7.761  40.530  11.585
 2901W        W64322   9.191  10.227  10.909
 2902W        W64323   0.989   2.927   3.224
 2903W        W64324   9.330  15.127   0.410
 2904W        W64325  37.912  17.164   3.667
 2905W        W64326  29.586  35.576   2.754
 2906W        W64327  13.727  28.547  14.821
 2907W        W64328  37.840   1.918   2.285
 2908W        W64329  25.498  21.692   0.442
 2909W        W64330  39.453  24.164   1.726
 2910W        W64331   2.727  35.556   4.785
 2911W        W64332  41.472  26.694   2.748
 2912W        W64333  17.078  35.364  11.528
 2913W        W64334  13.208  33.072   4.750
 2914W        W64335  18.559  31.458  12.844
 2915W        W64336  10.349  32.128   1.925
 2916W        W64337  30.929  11.739   0.754
 2917W        W64338  11.146  40.921   1.720
 2918W        W64339  38.952   3.424  13.450
 2919W        W64340  23.054  30.587  11.429
 2920W        W64341   7.321   3.954  13.452
 2921W        W64342  27.128  17.725  14.940
 2922W        W64343  23.538  35.464  12.421
 2923W        W64344  13.674   3.845   4.203
 2924W        W64345  27.520   2.419   2.298
 2925W        W64346  13.179   3.888  14.903
 2926W        W64347  27.991  15.148   2.752
 2927W        W64348  19.637  35.525   4.716
 2928W        W64349  22.597  18.062   1.264
 2929W        W64350  30.132   1.903   1.763
 2930W        W64351  28.521  11.660   3.357
 2931W        W64352  31.977   7.808  11.605
 2932W        W64353   2.448   6.728   4.616
 2933W        W64354   0.454  40.846   1.328
 2934W        W64355  22.532  37.028   3.649
 2935W        W64356  43.002  35.404  12.507
 2936W        W64357  25.055  37.969   4.228
 2937W        W64358   7.802  17.770  12.418
 2938W        W64359  10.340  38.334  13.812
 2939W        W64360  44.780  18.577   3.805
 2940W        W64361  11.775   1.385  11.068
 2941W        W64362  27.558  40.990  10.971
 2942W        W64363   3.325  13.182  11.012
 2943W        W64364  26.551  25.521  12.083
 2944W        W64365  35.937  21.105  14.759
 2945W        W64366  19.735  39.956   3.371
 2946W        W64367  27.640   0.884   4.347
 2947W        W64368  36.346  43.859  12.486
 2948W        W64369  13.727  10.266   3.233
 2949W        W64370  37.337  32.137   4.281
 2950W        W64371  20.691  14.183  12.362
 2951W        W64372  39.968  42.898   2.890
 2952W        W64373   2.723  11.154   0.398
 2953W        W64374  31.926  32.633  11.891
 2954W        W64375   6.762  16.086  14.926
 2955W        W64376  32.490  10.696   1.922
 2956W        W64377  22.715   6.752   3.291
 2957W        W64378   0.298  27.519   0.330
 2958W        W64379  28.118  33.087   1.747
 2959W        W64380  32.585  39.545  12.068
 2960W        W64381  39.023   2.764   0.468
 2961W        W64382   4.779   2.319   2.717
 2962W        W64383   1.258  10.175  12.880
 2963W        W64384  30.157  20.573  10.594
 2964W        W64385  11.749  42.010   4.121
 2965W        W64386  19.675  20.153   4.639
 2966W        W64387  27.600  43.284   3.680
 2967W        W64388  18.779  11.362  12.565
 2968W        W64389   4.416   7.763   1.224
 2969W        W64390   4.918  44.975   4.165
 2970W        W64391   9.277  12.184  11.974
 2971W        W64392  29.067  23.524  12.455
 2972W        W64393  11.754  26.167  11.555
 2973W        W64394  35.393  14.767  14.897
 2974W        W64395  34.057  44.460   3.869
 2975W        W64396  18.262  30.548   5.083
 2976W        W64397  32.013   4.292  14.934
 2977W        W64398  42.963   9.222  10.437
 2978W        W64399   1.902  17.147  13.059
 2979W        W64400  41.016   4.822   2.377
 2980W        W64401   7.826  11.149   0.285
 2981W        W64402   1.470  20.239  14.002
 2982W        W64403  26.168  29.026   1.369
 2983W        W64404  15.786  43.971  10.150
 2984W        W64405  42.962  29.955   3.295
 2985W        W64406  13.673  12.736  11.890
 2986W        W64407   8.729  37.939  13.373
 2987W        W64408  14.752  12.317   4.113
 2988W        W64409  16.215   0.973  12.373
 2989W        W64410   1.871  16.634  13.976
 2990W        W64411  12.656   3.279  13.430
 2991W        W64412  29.490  31.931   2.246
 2992W        W64413   1.275  44.426  13.849
 2993W        W64414  30.997  43.786  10.981
 2994W        W64415   1.389  10.287  10.984
 2995W        W64416  30.525  24.514   3.259
 2996W        W64417   2.948  12.164   2.877
 2997W        W64418  43.350  12.672  11.922
 2998W        W64419   1.813  21.613   0.368
 2999W        W64420  10.803  26.525  12.939
 3000W        W64421   7.775  26.479  13.985
 3001W        W64422  15.265  20.704   4.121
 3002W        W64423  26.586  12.837   2.748
 3003W        W64424  29.141  15.114  14.811
 3004W        W64425  42.463  36.007   3.760
 3005W        W64426  41.905  37.867   2.877
 3006W        W64427  27.177  21.028   5.309
 3007W        W64428   1.419   0.332  12.974
 3008W        W64429  17.287  25.571   2.294
 3009W        W64430   9.230  24.025  14.028
 3010W        W64431   8.797  35.494   0.372
 3011W        W64432   6.328   8.869   2.354
 3012W        W64433   2.364  35.522  13.475
 3013W        W64434  31.009  14.593   9.635
 3014W        W64435  17.592  17.677  10.924
 3015W        W64436  34.370  36.560  11.451
 3016W        W64437  42.296  11.735   4.708
 3017W        W64438   9.647  42.846   1.813
 3018W        W64439  24.642  31.039  12.930
 3019W        W64440  43.787  37.412  12.514
 3020W        W64441   3.436  23.168  10.914
 3021W        W64442  35.390  10.704  12.095
 3022W        W64443  20.756  21.699   0.292
 3023W        W64444  20.242  33.080   4.597
 3024W        W64445  43.877   2.458   1.835
 3025W        W64446   0.441  16.605  13.048
 3026W        W64447  16.801   5.873  11.938
 3027W        W64448  42.283   1.856   3.685
 3028W        W64449  34.605   2.795   9.613
 3029W        W64450   5.770  29.464   1.307
 3030W        W64451   6.819   8.851   3.160
 3031W        W64452  41.496  30.995  10.531
 3032W        W64453  10.844  26.520  13.953
 3033W        W64454  19.535  30.145   3.373
 3034W        W64455  23.097  37.537   1.220
 3035W        W64456  42.890  32.935  11.445
 3036W        W64457  24.686   3.875  12.014
 3037W        W64458   7.894   2.895   4.327
 3038W        W64459  19.054   3.714   0.843
 3039W        W64460  34.011  11.771   0.259
 3040W        W64461  27.025  23.013  12.565
 3041W        W64462  20.273  38.359  12.920
 3042W        W64463   5.759  44.294   3.242
 3043W        W64464   5.707  41.929  12.005
 3044W        W64465  21.689  18.740   0.389
 3045W        W64466  38.883   3.725  11.375
 3046W        W64467  35.081  29.031  12.387
 3047W        W64468  32.527  25.992  13.795
 3048W        W64469  37.957  40.438  14.980
 3049W        W64470  23.660  43.307   4.605
 3050W        W64471  16.104  23.538   4.258
 3051W        W64472   0.745  13.118   1.923
 3052W        W64473  12.797  37.978   0.959
 3053W        W64474  21.218  36.933   3.330
 3054W        W64475  10.293  38.965   2.767
 3055W        W64476  29.087  10.734   0.805
 3056W        W64477  30.565  12.697   0.350
 3057W        W64478  11.287  11.679  11.031
 3058W        W64479  24.078   5.275   3.837
 3059W        W64480  27.499  30.080   1.748
 3060W        W64481  20.264  32.931  13.981
 3061W        W64482  31.906   4.304   1.817
 3062W        W64483  43.297   2.731   4.752
 3063W        W64484  11.786  16.196  12.413
 3064W        W64485  34.940  42.309  13.392
 3065W        W64486   9.786  26.489  14.495
 3066W        W64487  21.586   2.409   4.603
 3067W        W64488  33.066  24.723   3.862
 3068W        W64489  41.839  31.995   1.228
 3069W        W64490  39.984  44.853   1.728
 3070W        W64491   5.319   3.407   2.841
 3071W        W64492   6.342  40.824  13.437
 3072W        W64493  36.559  21.222  11.601
 3073W        W64494  35.489  40.514  12.381
 3074W        W64495   3.810   6.357  11.957
 3075W        W64496  36.928  15.720  12.340
 3076W        W64497  32.097  33.932  14.775
 3077W        W64498  13.751  23.659   0.874
 3078W        W64499  43.307  18.255  13.843
 3079W        W64500  16.178  38.508   3.237
 3080W        W64501  30.033  13.114  13.948
 3081W        W64502  22.649  31.090  13.367
 3082W        W64503  26.563  29.920  11.561
 3083W        W64504   2.297  36.880  13.908
 3084W        W64505  19.117  11.663  14.876
 3085W        W64506  27.623  33.949  13.006
 3086W        W64507  30.424   3.350   1.231
 3087W        W64508  39.485  22.658   0.744
 3088W        W64509  10.810  23.594   2.816
 3089W        W64510   3.460   2.411   0.844
 3090W        W64511  12.148  22.077   0.780
 3091W        W64512  15.243  18.079  10.588
 3092W        W64513  14.178  43.982  10.626
 3093W        W64514  19.167  21.718  12.847
 3094W        W64515   6.690  24.541   2.276
 3095W        W64516   3.917  39.990  11.599
 3096W        W64517  31.931  10.174  10.511
 3097W        W64518  17.712   7.822  13.340
 3098W        W64519   0.256  43.853  14.787
 3099W        W64520  34.576   7.867   3.269
 3100W        W64521  15.275   9.822   0.936
 3101W        W64522  37.920  34.015  12.868
 3102W        W64523  43.304  44.328  12.873
 3103W        W64524  26.005  26.604   4.317
 3104W        W64525  32.498  31.578   4.322
 3105W        W64526  35.911   8.751  14.442
 3106W        W64527  36.498  19.711   0.908
 3107W        W64528  24.002  31.095  12.019
 3108W        W64529  33.599   7.767  14.424
 3109W        W64530  29.028  22.665  10.935
 3110W        W64531  23.988   7.773  14.874
 3111W        W64532  27.591  32.499  10.447
 3112W        W64533  14.271  21.520  14.934
 3113W        W64534  28.173  14.830   4.188
 3114W        W64535  28.952  18.078   3.824
 3115W        W64536   1.948   2.763   3.313
 3116W        W64537  18.659  21.636  13.484
 3117W        W64538  19.224   3.406  12.462
 3118W        W64539  33.957  13.213   2.687
 3119W        W64540  11.795   1.950  11.880
 3120W        W64541  16.736  22.072  14.297
 3121W        W64542   9.275  37.836   0.372
 3122W        W64543  41.494  21.092   0.926
 3123W        W64544   2.962  13.641   4.331
 3124W        W64545  36.448  24.725   3.298
 3125W        W64546   1.348  17.177   1.347
 3126W        W64547  20.067  35.879  11.001
 3127W        W64548  43.503  27.507  13.451
 3128W        W64549  20.167  18.226   0.246
 3129W        W64550  19.680  18.281  11.862
 3130W        W64551  22.137  38.039   4.161
 3131W        W64552  22.035   9.695   4.242
 3132W        W64553   4.875  13.815  12.407
 3133W        W64554  39.929  31.563  10.508
 3134W        W64555   2.885  36.553  10.982
 3135W        W64556   0.871  36.439  10.984
 3136W        W64557   1.951  43.286   1.360
 3137W        W64558   3.950  20.231   0.277
 3138W        W64559  23.154  40.511   2.848
 3139W        W64560  26.695  21.127   4.266
 3140W        W64561   7.202  25.539   2.315
 3141W        W64562  26.981  32.022  12.573
 3142W        W64563  39.362   0.823   4.663
 3143W        W64564  44.777  13.646  13.434
 3144W        W64565  14.792  32.925   3.361
 3145W        W64566  36.089   5.699   1.318
 3146W        W64567  38.923  14.712  10.008
 3147W        W64568  13.688  24.686   0.786
 3148W        W64569   0.418  42.824   4.269
 3149W        W64570  16.283  23.504   1.370
 3150W        W64571   9.165  38.824  12.971
 3151W        W64572  12.797  39.488  12.987
 3152W        W64573  30.414  29.175   1.726
 3153W        W64574  24.170  35.031  13.864
 3154W        W64575   2.766  17.610  11.943
 3155W        W64576  39.062  13.228   1.856
 3156W        W64577  19.616  27.473   1.372
 3157W        W64578  33.432   8.358  10.606
 3158W        W64579  27.050  10.344  14.783
 3159W        W64580  43.924   9.794   2.812
 3160W        W64581  19.557  33.529   2.257
 3161W        W64582  43.879  16.805  10.529
 3162W        W64583  19.734   4.716  12.521
 3163W        W64584  38.352  23.730   2.367
 3164W        W64585  38.010  20.541   1.265
 3165W        W64586   9.290  21.205  12.891
 3166W        W64587  40.495  23.079   0.824
 3167W        W64588  21.109  37.440  14.771
 3168W        W64589  42.886  44.354  14.949
 3169W        W64590  40.890  29.955  11.401
 3170W        W64591   4.302  34.510   3.347
 3171W        W64592   6.834  12.857  11.500
 3172W        W64593   2.916   7.860   0.870
 3173W        W64594  43.341  33.457  11.467
 3174W        W64595  11.298   5.698   4.804
 3175W        W64596  21.030   2.746  14.788
 3176W        W64597   7.226  16.647   2.883
 3177W        W64598  42.784  26.033   3.709
 3178W        W64599  38.383  25.511  12.513
 3179W        W64600  16.174   3.898   1.823
 3180W        W64601   1.902   5.252   2.747
 3181W        W64602   1.944  33.002  13.547
 3182W        W64603  44.447  13.182   1.772
 3183W        W64604   1.461  38.897  11.405
 3184W        W64605  31.036  32.419   4.612
 3185W        W64606  20.174  16.646  10.592
 3186W        W64607   2.360  42.445   2.839
 3187W        W64608  31.000  26.986  13.816
 3188W        W64609  35.513  18.262   2.355
 3189W        W64610  37.077  17.589   1.726
 3190W        W64611  33.940  40.898  12.085
 3191W        W64612  21.137  18.569  13.856
 3192W        W64613  39.344  16.726  12.950
 3193W        W64614  12.756  34.894  11.907
 3194W        W64615  41.987  35.885  12.394
 3195W        W64616  13.600  38.996   2.834
 3196W        W64617   4.330  20.647  12.976
 3197W        W64618   4.402  12.814   3.863
 3198W        W64619  24.193  25.034   0.769
 3199W        W64620  21.641  24.722  11.576
 3200W        W64621  40.368  37.056   0.776
 3201W        W64622  25.963  29.142   3.302
 3202W        W64623   5.423   4.865   3.246
 3203W        W64624   4.261   0.868  11.890
 3204W        W64625  19.193   3.379   4.290
 3205W        W64626   9.163  39.945  12.869
 3206W        W64627   3.748  36.417  12.093
 3207W        W64628  34.966   0.840  14.301
 3208W        W64629  30.036  20.642   4.146
 3209W        W64630  12.747   6.300  13.846
 3210W        W64631  39.443  36.053   2.321
 3211W        W64632  39.892  36.887  14.478
 3212W        W64633  40.404   9.204   1.794
 3213W        W64634   6.911  19.177   0.902
 3214W        W64635  29.449   1.896  12.496
 3215W        W64636  18.276  16.077  11.044
 3216W        W64637  23.168  31.482  13.983
 3217W        W64638  41.914   9.716   4.353
 3218W        W64639  17.167  32.112  10.050
 3219W        W64640  28.992  39.349   4.345
 3220W        W64641   8.327  32.956   2.208
 3221W        W64642  12.758  35.970  13.941
 3222W        W64643   0.815  10.859   0.287
 3223W        W64644  25.082   7.236  10.933
 3224W        W64645  36.504  32.989  14.936
 3225W        W64646  22.078  19.687   4.695
 3226W        W64647  23.062  39.971   2.335
 3227W        W64648  35.480   1.760  14.437
 3228W        W64649  22.656   0.408  10.900
 3229W        W64650   3.355  24.633   1.730
 3230W        W64651  43.498  32.528  10.607
 3231W        W64652  31.569  14.199   1.296
 3232W        W64653   4.280   4.863  13.885
 3233W        W64654  16.087   9.867   4.731
 3234W        W64655  38.478  11.271  12.555
 3235W        W64656  41.922   4.776  10.642
 3236W        W64657  36.963  36.983  14.317
 3237W        W64658  33.001  32.538  14.363
 3238W        W64659  34.460  16.809  11.455
 3239W        W64660  40.409  18.176   0.870
 3240W        W64661  16.755   2.334  11.484
 3241W        W64662  41.416  31.636   2.884
 3242W        W64663   0.907  33.053  12.541
 3243W        W64664  18.100   3.846   0.754
 3244W        W64665  27.554  12.282  14.780
 3245W        W64666  20.718   4.217  11.071
 3246W        W64667   1.413   4.787  14.975
 3247W        W64668  33.930   9.257   3.767
 3248W        W64669  26.122  17.794  14.997
 3249W        W64670  43.787  25.557   4.745
 3250W        W64671  33.588  11.188   2.737
 3251W        W64672  35.423  16.685   1.409
 3252W        W64673   7.773  10.177   4.804
 3253W        W64674  24.649  29.987   4.349
 3254W        W64675  32.461  38.558  10.597
 3255W        W64676   0.892   5.355  10.439
 3256W        W64677   2.228  23.102  14.904
 3257W        W64678  10.224  19.175  10.587
 3258W        W64679  28.520  30.622   3.188
 3259W        W64680  12.161  10.714   4.145
 3260W        W64681  20.238  21.648   4.716
 3261W        W64682  19.080   8.261   2.785
 3262W        W64683  39.044  21.544  13.353
 3263W        W64684   3.935  27.170  14.785
 3264W        W64685  12.129  25.629  12.071
 3265W        W64686  32.911   4.224  13.880
 3266W        W64687  24.974  25.146  12.525
 3267W        W64688   3.914  31.514  13.855
 3268W        W64689  23.542   0.353  11.128
 3269W        W64690   2.316  25.665   1.704
 3270W        W64691  10.854  23.726  13.407
 3271W        W64692   3.912   6.714   0.436
 3272W        W64693   0.874  37.898  11.493
 3273W        W64694   8.175  43.427   0.409
 3274W        W64695  39.031  26.559   5.098
 3275W        W64696  31.103  37.881   4.662
 3276W        W64697  39.928  24.194   1.451
 3277W        W64698  20.694  19.592   2.779
 3278W        W64699  23.519  44.293  13.524
 3279W        W64700  44.001  15.622  12.939
 3280W        W64701   4.831  31.084  14.417
 3281W        W64702  12.340  37.575  11.456
 3282W        W64703  29.566  26.095  12.872
 3283W        W64704  20.231  44.455   2.363
 3284W        W64705  27.125  38.416   0.881
 3285W        W64706   1.316  21.243  10.495
 3286W        W64707   2.820   3.449  10.044
 3287W        W64708  28.671  28.530   3.183
 3288W        W64709   0.829  43.390  11.581
 3289W        W64710   8.729  44.473   5.138
 3290W        W64711  14.677   4.734  13.009
 3291W        W64712   8.226   0.950   0.769
 3292W        W64713  34.565  39.501  11.409
 3293W        W64714  31.925  15.294   4.286
 3294W        W64715   9.680  23.233  13.994
 3295W        W64716  21.079  20.080   5.164
 3296W        W64717  33.912   0.354   3.183
 3297W        W64718  22.591  35.040   4.228
 3298W        W64719   5.773   3.421   3.678
 3299W        W64720  20.038  12.328   4.268
 3300W        W64721   6.820  40.023   5.211
 3301W        W64722  32.989  22.616   1.862
 3302W        W64723  20.131  27.058   0.832
 3303W        W64724  41.505   8.732  13.033
 3304W        W64725  17.732  18.787  11.860
 3305W        W64726  19.742  24.048  12.535
 3306W        W64727  33.419  27.482  13.931
 3307W        W64728  12.261  13.315   0.355
 3308W        W64729  24.144  20.179  12.394
 3309W        W64730   0.339  24.098   0.766
 3310W        W64731  13.789   1.381   1.761
 3311W        W64732   4.413  11.762  14.015
 3312W        W64733  22.118   7.279   0.780
 3313W        W64734   3.830  19.580  13.058
 3314W        W64735  27.683  15.820  10.471
 3315W        W64736  26.575  34.907   2.266
 3316W        W64737   6.780   6.796   1.376
 3317W        W64738   6.768  12.208   0.278
 3318W        W64739   0.397   2.335   0.456
 3319W        W64740   9.170  25.628  13.984
 3320W        W64741  12.319  42.894  10.590
 3321W        W64742  41.350  15.299   4.676
 3322W        W64743  18.102  38.074   2.369
 3323W        W64744  37.575  17.194   3.200
 3324W        W64745  35.541  35.108   2.231
 3325W        W64746  29.446  44.319  13.061
 3326W        W64747  25.209  36.485   3.325
 3327W        W64748  37.925   8.328   1.396
 3328W        W64749  23.601   3.351  10.634
 3329W        W64750  32.102   3.788   3.366
 3330W        W64751  18.153  35.997   3.694
 3331W        W64752  31.971   0.839  10.096
 3332W        W64753  21.682  36.589  13.965
 3333W        W64754  41.311   3.404  12.515
 3334W        W64755  34.524  29.430   0.858
 3335W        W64756  21.673   9.322  13.445
 3336W        W64757   1.866   7.358   1.850
 3337W        W64758  14.788   7.182  11.482
 3338W        W64759  14.679  20.576  14.440
 3339W        W64760  20.578  32.427  12.915
 3340W        W64761  41.370  13.690  11.559
 3341W        W64762  35.068  26.975   1.278
 3342W        W64763  16.189  23.153   4.196
 3343W        W64764  18.581  27.161   1.854
 3344W        W64765  31.061  18.724   5.140
 3345W        W64766   5.851  39.949  10.445
 3346W        W64767  31.972  23.026   4.681
 3347W        W64768  30.016  29.535  13.308
 3348W        W64769  22.073   3.430  13.341
 3349W        W64770   6.386   8.790  14.382
 3350W        W64771  21.162  14.792  14.984
 3351W        W64772  27.128  14.703  12.009
 3352W        W64773  21.128  23.053  13.940
 3353W        W64774  23.628  33.466   0.752
 3354W        W64775  36.842  34.417  11.378
 3355W        W64776  35.922  21.662  11.399
 3356W        W64777  29.619  38.032  13.440
 3357W        W64778   1.865  26.583   2.759
 3358W        W64779   9.823  30.977  12.874
 3359W        W64780  28.932  37.050   4.340
 3360W        W64781  39.865  35.940  14.867
 3361W        W64782  31.050   3.715   4.681
 3362W        W64783  19.241  38.991  14.348
 3363W        W64784  16.613  35.917  14.980
 3364W        W64785  29.962   3.362  11.402
 3365W        W64786  21.224  44.443   3.325
 3366W        W64787  43.005   9.734  12.880
 3367W        W64788  24.148   0.761   4.643
 3368W        W64789  29.569  40.303  10.542
 3369W        W64790  16.658  42.310  10.900
 3370W        W64791  12.774  38.401  14.768
 3371W        W64792  43.410  24.650  13.505
 3372W        W64793  30.977   1.769  10.010
 3373W        W64794  13.336  44.943   1.742
 3374W        W64795  37.931  44.926  13.374
 3375W        W64796  34.581  19.158  11.546
 3376W        W64797  20.138  12.703  11.577
 3377W        W64798  29.621  25.471  13.949
 3378W        W64799  22.678  16.235   4.278
 3379W        W64800  18.178  26.976  10.417
 3380W        W64801  15.133  40.938   3.243
 3381W        W64802  39.415  34.502   1.374
 3382W        W64803  35.093  41.002  11.910
 3383W        W64804  30.980  26.174   0.348
 3384W        W64805  23.107  12.203  10.592
 3385W        W64806   3.325  27.060   2.304
 3386W        W64807  23.023  39.053  14.306
 3387W        W64808  18.768  20.243   1.291
 3388W        W64809  38.441  25.507   0.467
 3389W        W64810  24.563  30.563  12.562
 3390W        W64811   7.718  11.136   4.233
 3391W        W64812  23.219  29.021  11.607
 3392W        W64813  38.998  25.520  10.453
 3393W        W64814  14.316   0.365  13.368
 3394W        W64815  19.258  24.147  13.928
 3395W        W64816  26.604  37.414  10.600
 3396W        W64817  32.022  29.036   1.373
 3397W        W64818  31.962   3.788   0.261
 3398W        W64819  11.283  11.354   1.230
 3399W        W64820   6.348  35.599   4.829
 3400W        W64821   2.456   3.364   0.941
 3401W        W64822  13.845  18.120  10.950
 3402W        W64823  21.090  18.210   4.252
 3403W        W64824  30.107  27.678  12.872
 3404W        W64825  13.214  23.671  10.405
 3405W        W64826  12.778  11.819   1.402
 3406W        W64827  44.003  21.124   4.126
 3407W        W64828  13.787  40.938   3.684
 3408W        W64829  32.893   2.752   2.828
 3409W        W64830  14.711  33.613  14.000
 3410W        W64831  19.667   0.294   2.356
 3411W        W64832  44.984  37.913   1.736
 3412W        W64833  44.411  31.925  10.617
 3413W        W64834  41.839  18.652  11.954
 3414W        W64835  41.903  40.336   3.366
 3415W        W64836  24.120  13.237  12.562
 3416W        W64837  23.545  26.497  10.509
 3417W        W64838  39.915   5.762   2.863
 3418W        W64839  41.839  12.202   2.303
 3419W        W64840  20.243   7.325   4.693
 3420W        W64841  30.651  31.503  11.421
 3421W        W64842   2.250  19.132  11.886
 3422W        W64843  44.356   0.251  11.859
 3423W        W64844  39.841  20.669   2.869
 3424W        W64845  28.078  36.557  12.543
 3425W        W64846  13.231  11.748  12.019
 3426W        W64847  25.577  41.973  10.439
 3427W        W64848  22.064   1.843  10.526
 3428W        W64849  14.792  30.014   3.260
 3429W        W64850  44.451  16.093   0.451
 3430W        W64851   3.366  19.043   2.326
 3431W        W64852  42.005   3.408   3.692
 3432W        W64853  25.211   3.359   3.802
 3433W        W64854  38.024  29.131   1.231
 3434W        W64855  40.495  25.524   2.709
 3435W        W64856  26.467  15.187  11.870
 3436W        W64857   3.862  11.741   1.256
 3437W        W64858  18.738  33.108  14.969
 3438W        W64859  38.853  13.183   3.243
 3439W        W64860  25.139  16.204  11.919
 3440W        W64861  16.164   7.673   1.291
 3441W        W64862  41.839  19.619  13.795
 3442W        W64863  17.589   9.172   4.177
 3443W        W64864  24.119  26.196   1.902
 3444W        W64865  19.633  13.260  12.880
 3445W        W64866  44.423   4.800  12.999
 3446W        W64867   4.811  35.895   1.932
 3447W        W64868   5.769  26.580  14.420
 3448W        W64869  30.956  23.006   4.283
 3449W        W64870  28.617   3.903  12.961
 3450W        W64871  30.582  29.502   5.168
 3451W        W64872  31.421  39.504   0.450
 3452W        W64873  41.448  13.794   0.288
 3453W        W64874   4.834   5.803  10.042
 3454W        W64875   4.868  13.821   3.670
 3455W        W64876  23.529   8.871   1.396
 3456W        W64877  31.440   4.857  10.643
 3457W        W64878  40.036   1.869   4.703
 3458W        W64879  37.385  25.697  14.503
 3459W        W64880   9.691  16.292   0.473
 3460W        W64881  15.268  31.114  14.443
 3461W        W64882   7.359  21.159  13.027
 3462W        W64883  31.904  22.570  14.508
 3463W        W64884  36.945   7.315  11.938
 3464W        W64885  18.559  26.552  14.900
 3465W        W64886  42.884  29.090   0.738
 3466W        W64887  11.708  40.481  12.880
 3467W        W64888  12.189  17.768  11.939
 3468W        W64889  38.482  43.793   0.318
 3469W        W64890  14.288   7.309  10.533
 3470W        W64891  33.103   1.757  13.370
 3471W        W64892  30.584   9.727  11.970
 3472W        W64893  39.357  34.017   1.231
 3473W        W64894  17.682   2.237  10.461
 3474W        W64895  12.855  40.010   4.627
 3475W        W64896  34.576  35.452  11.924
 3476W        W64897  18.237  14.693  13.897
 3477W        W64898  37.959  33.029  14.325
 3478W        W64899  42.318  37.020  12.916
 3479W        W64900   7.780  33.887  14.292
 3480W        W64901  38.450  21.059   1.826
 3481W        W64902  38.836  25.670   3.828
 3482W        W64903  33.617  20.638  14.418
 3483W        W64904  33.519  33.460  12.068
 3484W        W64905   6.897  44.375  11.887
 3485W        W64906  20.530  23.587   2.829
 3486W        W64907  41.812  24.176   3.213
 3487W        W64908   6.815  11.732  12.043
 3488W        W64909  39.525  39.482  13.872
 3489W        W64910  30.040  44.369   3.249
 3490W        W64911  36.096  28.551  12.346
 3491W        W64912  17.150  18.096   4.143
 3492W        W64913  12.832  23.186   1.399
 3493W        W64914  15.097  34.425   3.344
 3494W        W64915  19.730   7.682  14.297
 3495W        W64916  38.563  33.021   0.401
 3496W        W64917  22.036  32.097   0.426
 3497W        W64918  11.632  30.602   3.645
 3498W        W64919  17.624  20.713   3.183
 3499W        W64920  14.663   2.895  11.977
 3500W        W64921  25.497  34.513  13.452
 3501W        W64922  22.208  43.958  13.047
 3502W        W64923   7.199  27.181  13.830
 3503W        W64924  34.547  39.945   3.681
 3504W        W64925  37.006   2.916  12.430
 3505W        W64926  14.275  44.279  13.855
 3506W        W64927   3.807  20.225  13.373
 3507W        W64928   4.819  18.064  11.906
 3508W        W64929  36.933  36.923  14.953
 3509W        W64930   6.681  26.651  13.417
 3510W        W64931  38.953  28.990  12.959
 3511W        W64932  25.550  23.672   1.724
 3512W        W64933  16.734  29.926   4.344
 3513W        W64934  36.588  11.171  14.501
 3514W        W64935  26.631  29.081   3.766
 3515W        W64936  31.135  34.394  11.534
 3516W        W64937  16.201  26.580  13.844
 3517W        W64938  31.048  11.699  10.147
 3518W        W64939  37.906  17.175  11.570
 3519W        W64940  14.707  29.013   3.289
 3520W        W64941  42.512  24.499  10.644
 3521W        W64942  21.693  30.555   4.628
 3522W        W64943  33.888  38.538  13.341
 3523W        W64944   4.382  40.848  10.975
 3524W        W64945  44.813  33.566   0.904
 3525W        W64946   3.798   2.793   1.395
 3526W        W64947  29.641  38.821  13.949
 3527W        W64948   9.301  35.900  13.497
 3528W        W64949  11.704  38.909  10.615
 3529W        W64950   4.359  35.856  13.852
 3530W        W64951  31.454  34.900   0.452
 3531W        W64952   0.771  25.504   2.233
 3532W        W64953  40.536  17.182   1.852
 3533W        W64954   4.918   5.872  11.937
 3534W        W64955  42.981  24.183  14.849
 3535W        W64956  25.174  31.053   2.380
 3536W        W64957  44.877  25.061  12.080
 3537W        W64958   9.373  27.509  14.986
 3538W        W64959  28.446  37.400   3.799
 3539W        W64960  43.891  27.185   0.911
 3540W        W64961  34.386  24.657   2.830
 3541W        W64962  30.643  24.691  13.795
 3542W        W64963  37.386  28.615  12.001
 3543W        W64964  41.789  39.853  12.965
 3544W        W64965  31.058   1.352   2.774
 3545W        W64966  14.162   5.201   2.822
 3546W        W64967  40.439  10.692   1.861
 3547W        W64968  19.151  32.590   3.146
 3548W        W64969  20.269  24.994   2.668
 3549W        W64970  14.757  26.135   2.185
 3550W        W64971  37.000   0.427   2.418
 3551W        W64972   3.788  17.074  14.927
 3552W        W64973  42.331  18.561  11.092
 3553W        W64974   6.743  38.030   0.464
 3554W        W64975  29.083  44.305   0.449
 3555W        W64976   6.913   1.463  14.331
 3556W        W64977  19.723  41.319   2.742
 3557W        W64978   8.654  44.929   0.475
 3558W        W64979  35.513  36.586  13.901
 3559W        W64980  27.140  12.788   3.764
 3560W        W64981  25.212  15.235  13.845
 3561W        W64982  40.802  41.298   1.446
 3562W        W64983  22.188  15.272   0.946
 3563W        W64984  31.967   7.818   5.129
 3564W        W64985   3.256  39.946  11.406
 3565W        W64986  24.178   7.374  14.341
 3566W        W64987   2.430   8.202  12.550
 3567W        W64988  40.448  11.771   0.395
 3568W        W64989  19.757   5.763  10.892
 3569W        W64990  44.269  11.228   0.869
 3570W        W64991  17.249  20.663   4.620
 3571W        W64992   6.359   1.913   3.360
 3572W        W64993  11.221  27.557  12.386
 3573W        W64994  17.111   3.938  13.894
 3574W        W64995  27.450  17.287  14.930
 3575W        W64996  27.597  43.844   3.829
 3576W        W64997  21.629  41.313  14.840
 3577W        W64998  34.462  20.147   4.781
 3578W        W64999  11.361  29.165  14.802
 3579W        W65000  39.912  14.618  14.969
 3580W        W65001  13.150  31.997   0.740
 3581W        W65002   7.417  31.113  13.399
 3582W        W65003  32.964  18.660   2.773
 3583W        W65004  27.123   9.274  11.097
 3584W        W65005  30.532  35.965  12.512
 3585W        W65006   5.817  35.882   0.952
 3586W        W65007  40.931  22.113   2.228
 3587W        W65008  43.864   8.166   4.824
 3588W        W65009  25.576  43.811   0.303
 3589W        W65010  24.075  42.835   4.353
 3590W        W65011  20.066   0.789   2.252
 3591W        W65012  33.939  44.912   2.801
 3592W        W65013  14.594  36.966  14.277
 3593W        W65014  17.245  21.054   2.850
 3594W        W65015  38.436  26.198   4.812
 3595W        W65016   7.366   8.328  13.339
 3596W        W65017   8.837  15.705   0.342
 3597W        W65018  42.031  16.742  12.567
 3598W        W65019  10.337  12.142  11.874
 3599W        W65020  21.700   9.803   0.735
 3600W        W65021  23.031   7.306  11.089
 3601W        W65022  14.133  28.582  14.967
 3602W        W65023  15.753   4.252   0.418
 3603W        W65024  22.632   7.394   2.838
 3604W        W65025  23.024  17.669   2.888
 3605W        W65026  39.920  31.907   4.747
 3606W        W65027  22.066   8.874   2.186
 3607W        W65028  33.578  28.498   4.712
 3608W        W65029  43.792   6.325  14.813
 3609W        W65030  31.497  11.713   3.303
 3610W        W65031  22.197  41.397   4.670
 3611W        W65032  38.919  31.495  10.633
 3612W        W65033  28.463  32.899   1.347
 3613W        W65034  24.627  28.931   1.896
 3614W        W65035  43.782  29.964  14.385
 3615W        W65036  37.391  32.996  10.975
 3616W        W65037  16.232   0.938   0.249
 3617W        W65038  35.405   5.320   2.194
 3618W        W65039  13.109  37.430  11.389
 3619W        W65040  20.034  33.623  10.426
 3620W        W65041  15.691  18.166   4.125
 3621W        W65042   0.289  29.137  10.424
 3622W        W65043   8.365   6.732  12.078
 3623W        W65044  13.749   6.720  11.102
 3624W        W65045  35.996  36.011  12.437
 3625W        W65046   3.389  11.723   4.787
 3626W        W65047  37.026  43.376  10.530
 3627W        W65048  43.309  44.908   3.710
 3628W        W65049  44.811  33.995   2.200
 3629W        W65050  32.400   4.299  12.409
 3630W        W65051  44.851  35.895  14.326
 3631W        W65052  27.988   7.289  11.488
 3632W        W65053  24.070  27.596  13.486
 3633W        W65054   8.819  12.677  11.426
 3634W        W65055  25.546  40.405  14.992
 3635W        W65056  11.299  17.688  13.883
 3636W        W65057   7.717  18.786   0.782
 3637W        W65058  33.036  28.955  10.926
 3638W        W65059  31.615  14.157  12.985
 3639W        W65060   4.790  36.878  14.839
 3640W        W65061  29.501  21.018   4.666
 3641W        W65062  44.792  29.045   4.770
 3642W        W65063   7.263  38.003  11.023
 3643W        W65064  25.510  11.816   2.383
 3644W        W65065  17.686  16.173  11.528
 3645W        W65066  11.336  25.538  11.882
 3646W        W65067  38.466  14.698   3.167
 3647W        W65068  11.309  29.434   3.169
 3648W        W65069  31.506  15.693   4.609
 3649W        W65070  37.500  15.101  13.892
 3650W        W65071  25.189  26.679   0.879
 3651W        W65072  16.261  15.142   1.334
 3652W        W65073   3.267  40.322  11.983
 3653W        W65074  40.410  42.031  11.079
 3654W        W65075   0.778  10.823   1.932
 3655W        W65076   7.191   1.337  11.002
 3656W        W65077  17.654  12.644   4.776
 3657W        W65078  42.430   2.932  13.817
 3658W        W65079   3.297  23.522   2.378
 3659W        W65080  37.938  14.643   4.270
 3660W        W65081  11.808  44.418  14.762
 3661W        W65082  41.890   2.899   2.270
 3662W        W65083   1.346   9.389  14.422
 3663W        W65084  21.242  28.463  11.062
 3664W        W65085  37.460  43.358  14.382
 3665W        W65086  29.030  37.390  12.056
 3666W        W65087  24.181  38.823   4.800
 3667W        W65088  23.221  35.477   3.828
 3668W        W65089  26.066  35.512   1.346
 3669W        W65090   7.185  17.719  12.436
 3670W        W65091   3.335  36.865  12.063
 3671W        W65092   5.319   3.711  12.075
 3672W        W65093  41.944  26.207  14.460
 3673W        W65094  42.821  31.949  12.567
 3674W        W65095  27.154  22.604   3.185
 3675W        W65096  27.047   5.748  14.400
 3676W        W65097  27.637  17.717   2.803
 3677W        W65098   6.397   0.388   2.289
 3678W        W65099  18.625  42.437   1.224
 3679W        W65100   8.375  25.650   0.321
 3680W        W65101   0.951   5.378   2.822
 3681W        W65102  10.783  19.087  10.984
 3682W        W65103  16.132   9.683  10.938
 3683W        W65104   3.424  19.766   1.307
 3684W        W65105  43.414  30.100  13.891
 3685W        W65106  10.794  17.137   3.182
 3686W        W65107   7.215  11.157   1.248
 3687W        W65108  25.472  10.355   1.850
 3688W        W65109  23.054  11.779  14.811
 3689W        W65110  17.247   0.825   1.789
 3690W        W65111  18.107  44.335  13.329
 3691W        W65112  10.770  27.181  11.495
 3692W        W65113  27.061  41.865   3.169
 3693W        W65114  37.033   8.404  10.437
 3694W        W65115  36.943  15.084   1.758
 3695W        W65116  41.962  43.291  13.032
 3696W        W65117  42.425  12.838   0.967
 3697W        W65118  42.880  42.406   2.276
 3698W        W65119   4.297  31.631  13.410
 3699W        W65120  21.681  24.558  14.860
 3700W        W65121   2.723  34.453   2.217
 3701W        W65122   7.838  20.058   0.950
 3702W        W65123  25.175  32.908  12.348
 3703W        W65124  18.736  36.484   1.433
 3704W        W65125  30.413  17.134   1.258
 3705W        W65126  42.354   9.195   1.846
 3706W        W65127  29.043  16.684   0.793
 3707W        W65128   1.267  35.940  10.612
 3708W        W65129  26.155  33.467   2.889
 3709W        W65130   9.334  33.985  11.041
 3710W        W65131  15.100  22.600  12.061
 3711W        W65132  15.255   5.200  13.310
 3712W        W65133  19.714  29.477   3.766
 3713W        W65134  33.993  27.030   0.374
 3714W        W65135  37.025  10.359  10.441
 3715W        W65136  44.433  18.645  11.498
 3716W        W65137  43.403  16.643   1.906
 3717W        W65138  30.928  39.904  12.829
 3718W        W65139  40.547  39.033   3.322
 3719W        W65140  44.420  39.492   1.286
 3720W        W65141   0.886  10.263  11.008
 3721W        W65142  13.700   5.904   0.421
 3722W        W65143   0.407  40.495   4.143
 3723W        W65144  17.725  24.607   4.214
 3724W        W65145  36.945  29.014  10.571
 3725W        W65146   9.249  16.734  13.945
 3726W        W65147  22.168  30.454   4.299
 3727W        W65148  33.036  24.123   1.747
 3728W        W65149  44.957  24.663   0.399
 3729W        W65150  26.082  12.785   4.628
 3730W        W65151  28.484  42.399   1.855
 3731W        W65152   5.264  31.079   0.798
 3732W        W65153  13.279  25.062   3.225
 3733W        W65154  19.772  28.035  13.905
 3734W        W65155  34.576  35.577  14.908
 3735W        W65156   2.790   6.918  14.429
 3736W        W65157   3.446  32.949  13.936
 3737W        W65158   7.894  13.721   3.343
 3738W        W65159  43.451   2.369   1.829
 3739W        W65160  21.521  13.681  14.809
 3740W        W65161   9.157   4.396  14.958
 3741W        W65162  21.074  22.116  11.019
 3742W        W65163  34.393  21.186   0.445
 3743W        W65164   4.430  34.524  12.468
 3744W        W65165  11.677  23.575  10.100
 3745W        W65166  14.687  10.332  11.547
 3746W        W65167  43.308  32.929   1.924
 3747W        W65168  41.935  20.635   3.338
 3748W        W65169  44.471  17.299   0.287
 3749W        W65170  19.108  27.132   2.366
 3750W        W65171  25.571  27.016  14.382
 3751W        W65172  18.576   2.310   3.815
 3752W        W65173  10.830  43.009   0.947
 3753W        W65174   3.339  23.548   3.190
 3754W        W65175  17.656  33.466   5.234
 3755W        W65176  28.538   4.877   3.800
 3756W        W65177  43.853  10.743  14.855
 3757W        W65178  30.104  16.129  12.516
 3758W        W65179  23.017  27.142   3.304
 3759W        W65180  12.179  36.406  13.864
 3760W        W65181  28.645  16.782  14.463
 3761W        W65182  18.783  41.028   2.816
 3762W        W65183  28.544   6.281   4.183
 3763W        W65184  40.947  29.657  13.437
 3764W        W65185   6.296  30.943   0.825
 3765W        W65186  10.700  13.713   2.294
 3766W        W65187  21.564  20.184   4.192
 3767W        W65188  26.513   2.798  14.341
 3768W        W65189  31.621  39.885   0.844
 3769W        W65190  32.904   5.244  11.867
 3770W        W65191   3.323  37.437   9.951
 3771W        W65192   7.676  15.329   3.666
 3772W        W65193   4.319  16.289   3.801
 3773W        W65194   9.208  41.487  11.462
 3774W        W65195  23.596  32.136   0.895
 3775W        W65196  26.487  29.998   1.266
 3776W        W65197  23.986  28.074  12.866
 3777W        W65198  19.615  29.079   3.180
 3778W        W65199  28.443  12.722   1.865
 3779W        W65200  30.936  44.483  11.940
 3780W        W65201   9.725  43.795  14.830
 3781W        W65202   8.740  23.627  12.384
 3782W        W65203  13.605  32.550   2.802
 3783W        W65204  20.663  41.490   3.697
 3784W        W65205  13.795   2.871   0.860
 3785W        W65206  11.700  11.687  10.415
 3786W        W65207  39.480  38.445  13.409
 3787W        W65208  15.240  25.120  14.387
 3788W        W65209  44.915  34.403  12.505
 3789W        W65210  15.823  11.790   3.303
 3790W        W65211  31.015  19.633  10.557
 3791W        W65212   1.281  35.491  14.498
 3792W        W65213  40.995   1.347  11.092
 3793W        W65214   5.855  28.648  12.852
 3794W        W65215  27.172  40.358  10.056
 3795W        W65216  28.541   1.293  11.916
 3796W        W65217   4.299  28.634  13.836
 3797W        W65218  39.938  16.646  12.845
 3798W        W65219   6.208  30.492  12.428
 3799W        W65220  37.980  26.009   3.814
 3800W        W65221   6.704   6.718  14.009
 3801W        W65222  42.370  10.266   2.268
 3802W        W65223   1.422  30.132   0.927
 3803W        W65224  38.426  44.435   2.722
 3804W        W65225  10.360  43.291   3.377
 3805W        W65226   4.821  43.889  13.950
 3806W        W65227  39.317  32.934  12.960
 3807W        W65228   3.285   9.771   0.296
 3808W        W65229  14.600  42.953  13.453
 3809W        W65230  39.503  13.170  12.939
 3810W        W65231   1.408  20.556  11.546
 3811W        W65232  32.502  25.990   4.337
 3812W        W65233   4.922  31.509  11.561
 3813W        W65234  29.093   2.284   3.705
 3814W        W65235  23.706   8.664   5.770
 3815W        W65236  16.294  29.062   3.167
 3816W        W65237  36.406  32.131  12.368
 3817W        W65238  44.271  13.791   3.187
 3818W        W65239   9.360   6.320   0.358
 3819W        W65240   1.731  33.538  13.059
 3820W        W65241   9.876  24.496   1.358
 3821W        W65242   6.381  40.834  11.047
 3822W        W65243  30.082   4.739  13.443
 3823W        W65244  25.648  14.210  12.458
 3824W        W65245   6.900   4.836   0.427
 3825W        W65246  19.759  24.009   2.360
 3826W        W65247  10.713  30.644  14.908
 3827W        W65248   7.212   0.746  10.462
 3828W        W65249   4.927  29.658   2.345
 3829W        W65250  23.730  41.486   0.268
 3830W        W65251  40.516  20.615  11.428
 3831W        W65252  42.382   7.836  11.874
 3832W        W65253   4.338  23.584  11.417
 3833W        W65254  16.218  18.544  11.496
 3834W        W65255   2.822  43.361  10.519
 3835W        W65256   0.744  40.947  12.938
 3836W        W65257  12.795  37.950  14.947
 3837W        W65258  27.457  21.587   0.262
 3838W        W65259  22.123  11.371   3.810
 3839W        W65260  27.104   7.757   0.356
 3840W        W65261  17.672  35.463  12.580
 3841W        W65262  33.128  21.516  12.051
 3842W        W65263  14.337  25.094  13.930
 3843W        W65264  35.455  35.394   0.421
 3844W        W65265   3.279  25.502  13.833
 3845W        W65266   0.828   3.328  11.910
 3846W        W65267  12.616  21.170  10.530
 3847W        W65268  25.656   8.208  11.893
 3848W        W65269  33.026  17.709  12.971
 3849W        W65270   2.883  33.979   0.913
 3850W        W65271   7.797  30.931  11.877
 3851W        W65272  15.661  37.964  11.482
 3852W        W65273  44.494  42.292  11.459
 3853W        W65274  27.549  10.662  12.086
 3854W        W65275   2.361  38.358   2.259
 3855W        W65276  13.249  11.288  11.503
 3856W        W65277  18.607  15.581  11.513
 3857W        W65278  42.801  40.906   1.242
 3858W        W65279  43.325  10.645  13.912
 3859W        W65280  20.680   3.794  12.852
 3860W        W65281   2.350  19.101   2.277
 3861W        W65282   5.277  35.469  10.925
 3862W        W65283  31.947   3.879  13.892
 3863W        W65284  19.164  11.726  12.461
 3864W        W65285   9.713   4.729   0.483
 3865W        W65286   8.868  40.824  14.317
 3866W        W65287  34.586  20.540   0.392
 3867W        W65288  11.163  21.548  12.438
 3868W        W65289   1.309  19.681   4.271
 3869W        W65290  14.813  44.846  11.567
 3870W        W65291  19.602  43.774   1.844
 3871W        W65292  41.013   9.252   4.177
 3872W        W65293  10.217  20.639  12.029
 3873W        W65294  18.118  38.945   1.435
 3874W        W65295  37.490  19.763   2.207
 3875W        W65296  22.178  43.490  12.034
 3876W        W65297  20.066   4.323   3.179
 3877W        W65298  43.504  44.299   4.778
 3878W        W65299  22.565  25.669  10.004
 3879W        W65300  38.546  43.445   4.699
 3880W        W65301   8.726  21.523   4.646
 3881W        W65302  29.143   3.243   1.248
 3882W        W65303  30.939  19.199  10.502
 3883W        W65304  18.568   5.193  14.306
 3884W        W65305  42.970  43.465   1.704
 3885W        W65306  43.904  43.355   0.338
 3886W        W65307  13.213  15.175   3.691
 3887W        W65308   5.816  24.703   2.251
 3888W        W65309  22.216  29.174   4.141
 3889W        W65310  37.500  32.017  10.032
 3890W        W65311   7.349  23.147  14.325
 3891W        W65312  11.838  23.111  10.605
 3892W        W65313  15.734  15.184   3.765
 3893W        W65314  25.667  31.086  14.785
 3894W        W65315  30.446  16.148   3.275
 3895W        W65316  21.666  34.588   1.349
 3896W        W65317   5.895  22.651  11.524
 3897W        W65318  15.700  20.710  10.082
 3898W        W65319  43.490  24.978  10.559
 3899W        W65320  44.759  40.460   4.820
 3900W        W65321  32.904  31.552   0.445
 3901W        W65322  20.128  26.964   4.117
 3902W        W65323   8.839  18.738  11.538
 3903W        W65324  28.487  23.618   2.267
 3904W        W65325  32.516  41.341   1.409
 3905W        W65326  44.422  37.053   4.206
 3906W        W65327  15.274  32.529   9.933
 3907W        W65328  35.950  33.399   2.207
 3908W        W65329  36.368  10.163   2.235
 3909W        W65330   6.193  28.970  12.396
 3910W        W65331  20.103  35.063  10.495
 3911W        W65332  38.968   8.682   2.759
 3912W        W65333  29.594   8.242   1.380
 3913W        W65334  39.002  11.655  14.948
 3914W        W65335  29.543  26.194   0.296
 3915W        W65336  27.134  34.438   0.283
 3916W        W65337  39.529  35.045  11.950
 3917W        W65338   1.432  31.612  14.955
 3918W        W65339  44.862  37.917  11.937
 3919W        W65340  23.721  19.766   4.236
 3920W        W65341  23.628  25.108   4.188
 3921W        W65342  40.966  23.991  13.331
 3922W        W65343  40.506  27.971  11.911
 3923W        W65344  17.125  18.682   2.233
 3924W        W65345   4.900  39.940  10.506
 3925W        W65346  41.868  28.610   1.753
 3926W        W65347  13.323  29.666   0.828
 3927W        W65348  44.457  17.091   0.899
 3928W        W65349   5.838  25.097  14.425
 3929W        W65350  38.382   0.758  13.995
 3930W        W65351  10.764  37.957   4.621
 3931W        W65352  25.001  17.780  13.397
 3932W        W65353  12.689   9.672   4.700
 3933W        W65354  32.559  11.770   1.818
 3934W        W65355  36.431  44.401   3.330
 3935W        W65356  39.006  19.203  13.016
 3936W        W65357  10.319   1.282  11.459
 3937W        W65358  29.529  40.440   5.288
 3938W        W65359  36.845  23.619  12.358
 3939W        W65360  17.097   5.796   4.128
 3940W        W65361   3.313   2.904  12.065
 3941W        W65362  38.937  24.568  12.943
 3942W        W65363  21.017  16.675   0.362
 3943W        W65364  26.032  15.693   2.761
 3944W        W65365   6.228  25.541   9.478
 3945W        W65366  10.371  44.812  14.473
 3946W        W65367  34.461  28.630   4.336
 3947W        W65368   0.368  43.831  12.394
 3948W        W65369   4.738  29.046  10.988
 3949W        W65370  20.065   7.225   0.387
 3950W        W65371  43.491  31.431   4.669
 3951W        W65372   9.262  28.162   2.242
 3952W        W65373   6.751  32.993  10.973
 3953W        W65374  35.908  30.635  10.929
 3954W        W65375  18.655  11.710  10.457
 3955W        W65376  33.091  38.369  10.928
 3956W        W65377  15.291  27.976   1.329
 3957W        W65378  31.075  15.583  13.960
 3958W        W65379  37.935  33.004  14.024
 3959W        W65380  31.574  41.374   4.834
 3960W        W65381  29.481  33.904  14.025
 3961W        W65382  14.339  20.680   2.870
 3962W        W65383  39.872  27.529   2.418
 3963W        W65384  42.459  43.380   4.814
 3964W        W65385  33.889   2.236  11.858
 3965W        W65386   2.392  37.424  14.429
 3966W        W65387   3.226  22.220  13.909
 3967W        W65388  31.540  40.543  13.337
 3968W        W65389  29.999   5.707  10.599
 3969W        W65390   2.921   2.336  11.981
 3970W        W65391  18.281  36.383  14.381
 3971W        W65392  41.802  24.056   0.392
 3972W        W65393  40.944  14.306   0.792
 3973W        W65394  36.044  41.497   4.633
 3974W        W65395  17.144  13.326  13.354
 3975W        W65396  34.402   7.399   4.210
 3976W        W65397  29.945  23.534  12.545
 3977W        W65398  12.291  19.077   2.695
 3978W        W65399  18.750  37.574  10.024
 3979W        W65400  12.791  27.666   1.894
 3980W        W65401  27.606  32.495  13.362
 3981W        W65402   8.846   1.465   1.287
 3982W        W65403  26.699  39.416   4.138
 3983W        W65404  17.793  14.834  11.877
 3984W        W65405  36.444  11.696   2.856
 3985W        W65406  35.040  26.069   4.702
 3986W        W65407  29.951  42.387   0.424
 3987W        W65408  29.630   6.193  12.464
 3988W        W65409  44.926  13.163  11.393
 3989W        W65410   3.808  32.029   1.285
 3990W        W65411  15.762  36.886  10.931
 3991W        W65412   4.296  44.485   4.268
 3992W        W65413   5.410  22.112  13.990
 3993W        W65414  18.291  10.687   1.319
 3994W        W65415  26.460  31.085  11.374
 3995W        W65416   2.399   6.894  14.498
 3996W        W65417  29.493  35.458   4.171
 3997W        W65418   9.861  27.552  11.417
 3998W        W65419  19.263  42.902   4.704
 3999W        W65420  18.086   7.178  14.503
 4000W        W65421   9.363  38.432  14.395
 4001W        W65422   2.735  16.698  14.424
 4002W        W65423  27.503  16.768  13.977
 4003W        W65424   3.922  34.065  11.485
 4004W        W65425   1.429   8.326   3.376
 4005W        W65426  32.512  18.609   0.774
 4006W        W65427  18.169   5.774  11.091
 4007W        W65428   6.855  24.646  11.447
 4008W        W65429  34.476   4.367   0.858
 4009W        W65430  44.795   8.251  12.352
 4010W        W65431  37.930  29.040  12.351
 4011W        W65432  38.027  13.313   1.386
 4012W        W65433  26.507   6.733   0.472
 4013W        W65434  14.758  32.628   4.275
 4014W        W65435  42.441  43.308  12.916
 4015W        W65436  37.853  34.540  10.642
 4016W        W65437   5.932  36.479   0.875
 4017W        W65438  34.483   2.245   1.753
 4018W        W65439  11.828   0.914   4.696
 4019W        W65440  18.560  30.580  11.902
 4020W        W65441  39.875  11.672   5.798
 4021W        W65442   8.295   4.234  12.836
 4022W        W65443   9.681  29.528  12.576
 4023W        W65444  42.436  20.552   3.227
 4024W        W65445  42.917  30.502  13.931
 4025W        W65446   3.944  32.561  14.005
 4026W        W65447  28.527  36.416  11.475
 4027W        W65448   7.880  36.567   1.798
 4028W        W65449  42.283  14.685   1.889
 4029W        W65450   2.466  26.131  13.839
 4030W        W65451  44.803  31.526  14.861
 4031W        W65452  30.972  18.295   1.911
 4032W        W65453  20.129  24.588   3.174
 4033W        W65454   8.369  44.912   1.415
 4034W        W65455  34.107  29.136   4.341
 4035W        W65456  18.279  33.492   9.994
 4036W        W65457   7.201   8.750  13.358
 4037W        W65458  17.227  43.436   3.747
 4038W        W65459  22.592  40.446  14.963
 4039W        W65460  30.487  21.115   3.759
 4040W        W65461  21.203  19.052   3.341
 4041W        W65462  13.113  37.926   2.227
 4042W        W65463  12.350  19.249   3.147
 4043W        W65464   5.880  21.183  14.387
 4044W        W65465   7.775  24.060   4.740
 4045W        W65466  38.464  20.536  13.855
 4046W        W65467  35.503  38.988  14.378
 4047W        W65468  21.735   6.353  13.874
 4048W        W65469  10.752  43.809   1.858
 4049W        W65470   9.789  16.811  11.893
 4050W        W65471  41.859  22.610  12.470
 4051W        W65472  24.153  44.362   2.792
 4052W        W65473  30.998   1.976   3.332
 4053W        W65474  28.526   3.751  11.534
 4054W        W65475  27.593   6.364  13.394
 4055W        W65476   7.199  42.493  13.889
 4056W        W65477  13.145  42.898   1.358
 4057W        W65478  37.566  15.600  13.461
 4058W        W65479  33.048  28.480   2.799
 4059W        W65480  39.542   8.186   0.355
 4060W        W65481  24.526  21.059   4.816
 4061W        W65482  37.078  28.592   0.461
 4062W        W65483  35.571  37.542   4.313
 4063W        W65484   3.795  26.581  12.870
 4064W        W65485   2.457   3.272   0.410
 4065W        W65486  32.624  17.675   0.307
 4066W        W65487  36.069  42.841  14.032
 4067W        W65488  18.182  10.784  10.959
 4068W        W65489  42.360   2.297  12.437
 4069W        W65490  44.280  26.699  11.918
 4070W        W65491  19.610  37.365   0.849
 4071W        W65492  10.382   0.363   1.726
 4072W        W65493  32.413  10.692   0.919
 4073W        W65494   9.692  40.370   9.944
 4074W        W65495   1.886  39.383  13.943
 4075W        W65496  18.732  38.927  10.991
 4076W        W65497  29.102   2.755   3.769
 4077W        W65498  14.331  38.915   2.896
 4078W        W65499  12.323   4.223   4.643
 4079W        W65500  34.921  42.937  13.418
 4080W        W65501  27.055  10.323  13.548
 4081W        W65502  12.122  44.362  13.876
 4082W        W65503  23.537  14.590   1.434
 4083W        W65504  17.243  32.012   3.193
 4084W        W65505  26.113  10.740   2.886
 4085W        W65506   3.897  18.241   5.091
 4086W        W65507  35.537   5.327  14.429
 4087W        W65508  40.445  15.760  10.148
 4088W        W65509  23.011  18.632  12.529
 4089W        W65510   5.270  33.434  12.061
 4090W        W65511   4.209  25.127   2.236
 4091W        W65512  23.542  29.666   3.338
 4092W        W65513  35.956  14.783   5.190
 4093W        W65514   1.251  25.153   2.322
 4094W        W65515  42.455  24.002  13.454
 4095W        W65516  33.514  24.058   0.305
 4096W        W65517  34.968  40.945  10.447
 4097W        W65518  17.691  28.543  14.856
 4098W        W65519  35.960  17.133  14.420
 4099W        W65520   3.779  35.391  13.473
 4100W        W65521   1.338  35.416   3.821
 4101W        W65522  24.229  19.140  13.436
 4102W        W65523   1.311  42.008   0.336
 4103W        W65524  36.575  34.476  11.602
 4104W        W65525  35.853  19.213   3.233
 4105W        W65526  18.781  23.050   2.191
 4106W        W65527   3.814  20.223  10.440
 4107W        W65528   7.254  19.259   1.327
 4108W        W65529  21.123  20.600   1.437
 4109W        W65530  38.375  33.388   4.629
 4110W        W65531   2.327  30.160   2.345
 4111W        W65532  32.563   9.856  11.973
 4112W        W65533  33.384  25.696  14.432
 4113W        W65534  37.458  37.440  14.398
 4114W        W65535  26.675  42.377   3.681
 4115W        W65536  43.306  31.647   1.451
 4116W        W65537  43.439   6.374  13.528
 4117W        W65538  35.041  11.150  13.453
 4118W        W65539  23.040  22.686  12.828
 4119W        W65540   0.839  37.015   0.836
 4120W        W65541   9.169  38.987   3.353
 4121W        W65542  21.601   3.926   3.300
 4122W        W65543  26.512   1.859  14.361
 4123W        W65544   7.844  26.103  14.004
 4124W        W65545  12.290   2.964  13.539
 4125W        W65546   3.923  35.969   4.241
 4126W        W65547  36.859  33.072   4.329
 4127W        W65548   4.786   1.392  12.038
 4128W        W65549  28.669   1.813  11.375
 4129W        W65550   7.207   2.226  14.504
 4130W        W65551  39.531  39.053  12.034
 4131W        W65552  23.598  39.874  12.910
 4132W        W65553  24.577  37.912   4.600
 4133W        W65554  23.586   7.173  12.382
 4134W        W65555  15.172  40.955   2.211
 4135W        W65556  15.107  28.508   2.796
 4136W        W65557  29.936  27.013   0.420
 4137W        W65558   1.760  37.451  11.088
 4138W        W65559  18.258  36.503   0.407
 4139W        W65560  31.467  11.156   5.159
 4140W        W65561  22.728  21.160   0.440
 4141W        W65562  15.178  34.418   1.254
 4142W        W65563  37.376  11.812   3.631
 4143W        W65564   3.286  10.785  11.085
 4144W        W65565  25.709  39.551   3.222
 4145W        W65566  20.624  21.037  10.038
 4146W        W65567  33.589  40.313   2.338
 4147W        W65568  39.473   8.315  10.470
 4148W        W65569  38.066  11.664   4.691
 4149W        W65570  25.152  22.178  12.473
 4150W        W65571  18.267  34.035  13.964
 4151W        W65572  20.639   6.879  12.567
 4152W        W65573  33.897  27.193  10.933
 4153W        W65574  36.975   6.313   4.660
 4154W        W65575   1.894  17.634   1.253
 4155W        W65576  44.397   7.895   0.253
 4156W        W65577   6.866  30.152   1.899
 4157W        W65578  14.184  40.391  14.487
 4158W        W65579  20.254  16.581   1.290
 4159W        W65580   2.430  17.589  10.426
 4160W        W65581  13.200   3.955   4.170
 4161W        W65582  42.883  21.755  11.956
 4162W        W65583  44.279  38.002  12.987
 4163W        W65584  26.142  21.052   1.372
 4164W        W65585  41.532  34.590   1.440
 4165W        W65586   4.269   7.851  13.497
 4166W        W65587  32.417   0.759   2.384
 4167W        W65588  13.257   2.364  12.886
 4168W        W65589  34.518  37.944   1.834
 4169W        W65590   8.274  34.588   2.844
 4170W        W65591  35.432   0.846  11.087
 4171W        W65592  10.338  21.211  11.450
 4172W        W65593  42.413   2.267   2.347
 4173W        W65594  13.323  16.299   4.606
 4174W        W65595  26.582  37.058  10.568
 4175W        W65596  25.552  30.621  10.409
 4176W        W65597  39.543  24.582   3.848
 4177W        W65598  44.407  26.575   5.092
 4178W        W65599  21.220  12.713  10.507
 4179W        W65600  42.333  17.748  14.504
 4180W        W65601   6.186  41.351   1.835
 4181W        W65602  25.010   0.911   3.188
 4182W        W65603   9.254  38.541  14.890
 4183W        W65604  35.588  14.319   4.711
 4184W        W65605  39.014  26.642   0.886
 4185W        W65606  25.680   5.431   9.971
 4186W        W65607  11.190  27.016   0.254
 4187W        W65608  13.799  16.154  11.568
 4188W        W65609  37.481   4.732  13.981
 4189W        W65610   1.456  22.124   0.250
 4190W        W65611  41.822  20.184   4.737
 4191W        W65612   2.259   7.212  13.958
 4192W        W65613  26.093  42.400  14.446
 4193W        W65614  34.445  44.297  12.890
 4194W        W65615  44.956   7.836  11.102
 4195W        W65616  22.591  21.557  11.563
 4196W        W65617  18.627  13.208   2.273
 4197W        W65618  44.007  39.924   1.825
 4198W        W65619  31.026  35.853  12.913
 4199W        W65620   6.216  23.674  14.869
 4200W        W65621   3.315  24.709  14.487
 4201W        W65622  30.540  18.690  12.568
 4202W        W65623  39.027   2.449  10.115
 4203W        W65624  43.410  25.566  13.392
 4204W        W65625  43.448   5.389   3.714
 4205W        W65626   6.726  24.519  14.433
 4206W        W65627   1.976  35.999  10.992
 4207W        W65628  30.995   8.381  14.468
 4208W        W65629  15.295  34.464  14.497
 4209W        W65630   0.960  27.957  13.903
 4210W        W65631   5.431  23.202  14.316
 4211W        W65632   3.891  28.557  10.634
 4212W        W65633   1.885  31.069  10.087
 4213W        W65634  26.074  42.338  12.412
 4214W        W65635  35.535   1.320   4.172
 4215W        W65636   6.205   8.252  14.879
 4216W        W65637  21.611   3.375   4.828
 4217W        W65638  44.870   9.835   2.251
 4218W        W65639   1.746  22.632   2.225
 4219W        W65640  32.528  37.999   1.351
 4220W        W65641  36.584   3.778   2.366
 4221W        W65642  38.963   6.206   2.401
 4222W        W65643  19.766  12.361  13.907
 4223W        W65644  18.656   2.288   3.277
 4224W        W65645   8.688  19.629   3.770
 4225W        W65646   4.733  11.741   1.781
 4226W        W65647  14.302  27.991   4.624
 4227W        W65648  23.518  13.142   1.868
 4228W        W65649  25.164  21.035   2.693
 4229W        W65650   7.858  40.316   1.387
 4230W        W65651  35.542  18.551  12.849
 4231W        W65652  11.236  14.204   0.292
 4232W        W65653  40.037  26.029   3.167
 4233W        W65654  22.709   7.868   0.273
 4234W        W65655   7.205  41.796  10.641
 4235W        W65656  27.197  10.315  12.507
 4236W        W65657  33.608  17.140  12.878
 4237W        W65658  12.241  14.171  12.842
 4238W        W65659  10.207  42.889  11.511
 4239W        W65660  43.367  37.479  10.146
 4240W        W65661   2.265  39.823   1.364
 4241W        W65662  15.670  37.439  13.991
 4242W        W65663  40.469  36.410   4.340
 4243W        W65664  20.651  13.233  10.409
 4244W        W65665  23.622  14.231  13.927
 4245W        W65666   6.763  29.030  10.515
 4246W        W65667  31.562   8.780  13.376
 4247W        W65668  13.346  42.408  11.488
 4248W        W65669  19.545  19.729   4.289
 4249W        W65670  44.763  43.291  13.010
 4250W        W65671  37.844  17.294  12.398
 4251W        W65672  28.113  32.107   5.087
 4252W        W65673  42.522  11.136  12.450
 4253W        W65674  25.675   1.477   4.316
 4254W        W65675  19.161   2.286  14.880
 4255W        W65676  34.513  35.986   2.902
 4256W        W65677   3.308  33.904  11.374
 4257W        W65678  11.847  32.447   0.318
 4258W        W65679   0.424  24.666   4.262
 4259W        W65680  21.261  15.597   4.228
 4260W        W65681  42.932  24.610   2.182
 4261W        W65682   0.429  29.992  12.977
 4262W        W65683  22.732  30.133  11.858
 4263W        W65684  25.022   8.901   1.448
 4264W        W65685   2.767  20.643   0.941
 4265W        W65686  30.602  41.389   2.714
 4266W        W65687   9.684   8.712   1.430
 4267W        W65688  17.274  12.653   2.410
 4268W        W65689  13.626  10.675  10.443
 4269W        W65690  21.640  20.185   4.758
 4270W        W65691  24.102  18.574   0.854
 4271W        W65692  32.991  11.143   2.192
 4272W        W65693  32.940  40.840  13.362
 4273W        W65694  30.048   8.696  11.532
 4274W        W65695   7.813   3.219  14.989
 4275W        W65696   3.287  23.522   1.236
 4276W        W65697   4.240   0.362   4.294
 4277W        W65698  16.781   1.308   2.726
 4278W        W65699  41.015  40.459  12.904
 4279W        W65700  44.361  44.428  14.967
 4280W        W65701  21.614  27.954   3.183
 4281W        W65702  32.116  35.956  11.385
 4282W        W65703  25.668   8.659  14.837
 4283W        W65704  27.103  34.870   0.913
 4284W        W65705   3.799  14.233   0.791
 4285W        W65706   2.750  27.623  11.092
 4286W        W65707  14.257  22.068  12.499
 4287W        W65708  23.010   2.379  11.373
 4288W        W65709  18.646  28.627  12.456
 4289W        W65710  26.617  26.983  10.505
 4290W        W65711  23.683  19.169   3.831
 4291W        W65712  36.961   5.905   1.427
 4292W        W65713  44.443  22.616  11.127
 4293W        W65714  20.110  40.331  11.503
 4294W        W65715  31.081  37.021  10.411
 4295W        W65716  37.474  14.652  12.515
 4296W        W65717  11.370   0.747   4.345
 4297W        W65718  23.987   2.862  11.124
 4298W        W65719   5.419  36.425  11.586
 4299W        W65720  21.024   1.839  14.489
 4300W        W65721  24.028  17.598  12.381
 4301W        W65722  34.087  43.953   1.843
 4302W        W65723  28.006   6.776   0.922
 4303W        W65724  13.256   0.469  13.391
 4304W        W65725  27.959  28.496  11.565
 4305W        W65726  39.318  18.161   1.354
 4306W        W65727   1.257  41.997  11.034
 4307W        W65728  42.018  27.666   3.214
 4308W        W65729  42.388   6.388  11.560
 4309W        W65730  34.384  15.107   0.425
 4310W        W65731   5.419  32.598   2.828
 4311W        W65732  12.329  29.154   2.334
 4312W        W65733   4.247  27.627  12.350
 4313W        W65734   1.282  18.595  13.905
 4314W        W65735   5.876   2.260   1.769
 4315W        W65736  13.143  41.007  12.934
 4316W        W65737   7.319  34.373  12.905
 4317W        W65738  15.088  40.542  14.380
 4318W        W65739  28.656  16.116  12.401
 4319W        W65740  17.215  22.167   0.309
 4320W        W65741  36.043  22.232  12.037
 4321W        W65742  17.290  15.772  14.372
 4322W        W65743  28.678  42.830   4.322
 4323W        W65744  22.088  24.120   4.782
 4324W        W65745  18.072  27.513   1.252
 4325W        W65746   5.770  26.535   3.295
 4326W        W65747   4.373  17.268  12.983
 4327W        W65748  44.968  30.512   1.356
 4328W        W65749   0.982  44.786   4.328
 4329W        W65750  25.111  44.403   3.298
 4330W        W65751  12.145  27.976   3.709
 4331W        W65752   4.760  22.080  13.991
 4332W        W65753  38.452   5.439   0.798
 4333W        W65754  21.105  40.999   0.759
 4334W        W65755  15.300   4.266   3.681
 4335W        W65756  31.533  13.168  11.026
 4336W        W65757  33.971  43.390  12.893
 4337W        W65758  39.515  40.829  14.446
 4338W        W65759   4.204  32.972  12.449
 4339W        W65760  33.028  32.980   0.460
 4340W        W65761  44.973  35.050   2.340
 4341W        W65762   1.359  19.696  11.859
 4342W        W65763  16.263  43.908   3.658
 4343W        W65764   7.682  22.502   5.309
 4344W        W65765  43.287  33.888  10.534
 4345W        W65766  19.747  33.010   4.813
 4346W        W65767  14.195  41.924   0.430
 4347W        W65768   9.240  17.152   4.635
 4348W        W65769  22.650   2.953   1.318
 4349W        W65770  27.196  19.147  10.930
 4350W        W65771   8.214  43.948  12.425
 4351W        W65772  32.413  13.666  14.964
 4352W        W65773   8.701  10.863   2.714
 4353W        W65774   0.837   0.917  11.075
 4354W        W65775  11.248  38.035  14.929
 4355W        W65776  12.700  16.756   0.243
 4356W        W65777  40.028  43.357   4.212
 4357W        W65778  40.036   0.262   2.803
 4358W        W65779   3.931  15.780  11.476
 4359W        W65780  32.037  30.479   1.915
 4360W        W65781  13.258   6.307  12.839
 4361W        W65782  25.213   0.409  13.974
 4362W        W65783  41.844   5.897   0.903
 4363W        W65784  13.342  32.597  12.828
 4364W        W65785  28.018  43.354   3.314
 4365W        W65786   5.284  20.738  13.453
 4366W        W65787  23.641  44.354   2.841
 4367W        W65788  16.319  37.981  14.021
 4368W        W65789   3.800  29.631   0.437
 4369W        W65790  25.175  20.066  14.302
 4370W        W65791  43.954  38.493   4.307
 4371W        W65792  22.076  39.025  12.357
 4372W        W65793  18.730  43.999   0.419
 4373W        W65794   1.442  37.086  12.070
 4374W        W65795  22.144   5.757   3.682
 4375W        W65796  32.051  12.345  11.426
 4376W        W65797  20.215  33.458  12.077
 4377W        W65798  38.361  16.710   0.338
 4378W        W65799  28.666  42.008   3.275
 4379W        W65800  16.777  22.249   0.869
 4380W        W65801  38.432   4.241  14.945
 4381W        W65802  25.631  44.361   0.890
 4382W        W65803  10.317  15.764   4.237
 4383W        W65804  11.838   3.412   3.643
 4384W        W65805   9.394  36.365  11.877
 4385W        W65806  13.755  21.526  10.566
 4386W        W65807  23.128   7.266   1.389
 4387W        W65808  43.305   4.914  11.071
 4388W        W65809  17.777  13.608   3.847
 4389W        W65810  44.931  19.273   2.662
 4390W        W65811   0.406  18.260   4.239
 4391W        W65812  20.656  38.838  13.857
 4392W        W65813   7.682   8.655   2.730
 4393W        W65814  37.359  12.691  10.545
 4394W        W65815  32.072  39.862  11.570
 4395W        W65816  37.559  24.221   3.165
 4396W        W65817  18.652  16.318  14.772
 4397W        W65818  36.349  27.972   1.871
 4398W        W65819  31.054  36.048  13.392
 4399W        W65820  19.254   5.787  11.451
 4400W        W65821   6.220  29.052   2.400
 4401W        W65822  27.639  10.842  12.472
 4402W        W65823  43.424  31.501   3.230
 4403W        W65824  31.522   0.747  13.392
 4404W        W65825  32.458  31.456   1.283
 4405W        W65826   5.722  17.715  10.921
 4406W        W65827  20.057  28.023   4.609
 4407W        W65828   1.264  22.577   4.325
 4408W        W65829  19.192   7.240   1.849
 4409W        W65830  40.482   6.333  12.419
 4410W        W65831  33.568  41.459  12.968
 4411W        W65832   6.758  26.530   1.737
 4412W        W65833  34.415  12.258   3.633
 4413W        W65834  32.509  41.401   2.201
 4414W        W65835  26.663  43.500   2.714
 4415W        W65836  39.977  37.014  14.784
 4416W        W65837  20.703  42.428   3.697
 4417W        W65838  16.652   3.262   2.708
 4418W        W65839  25.531  16.680  14.434
 4419W        W65840  12.351   0.884  14.827
 4420W        W65841  25.166  10.315   0.913
 4421W        W65842  39.349  10.656   2.718
 4422W        W65843  38.940  30.463   4.193
 4423W        W65844  14.250   0.778   3.324
 4424W        W65845  25.491  40.882  13.462
 4425W        W65846  41.853  27.162  11.045
 4426W        W65847   4.923  29.455   4.800
 4427W        W65848  13.616  13.770   1.862
 4428W        W65849  18.644  35.537  13.795
 4429W        W65850  32.406   5.252   3.668
 4430W        W65851  18.655  15.197   3.229
 4431W        W65852  34.566  13.648   1.935
 4432W        W65853  25.669   7.320   0.914
 4433W        W65854  11.330   4.819   2.850
 4434W        W65855   2.959  28.080  12.377
 4435W        W65856  16.649  38.060  14.925
 4436W        W65857  41.831  15.282   3.796
 4437W        W65858   4.388   8.781  11.965
 4438W        W65859  25.686   8.674   4.353
 4439W        W65860  35.933  28.656  13.363
 4440W        W65861  41.470  33.110  11.957
 4441W        W65862   6.366  13.790   1.807
 4442W        W65863  12.850  26.087  13.480
 4443W        W65864  19.189  23.661  12.911
 4444W        W65865  33.047   5.307   0.445
 4445W        W65866  16.747  25.640  12.531
 4446W        W65867  21.128   3.454   0.964
 4447W        W65868  16.236   0.923   4.344
 4448W        W65869  10.169   6.322   0.362
 4449W        W65870  44.477  33.029  10.914
 4450W        W65871   3.722   4.817  13.051
 4451W        W65872  40.421  35.506  12.835
 4452W        W65873   9.311   8.794   5.103
 4453W        W65874  37.007   4.878   0.792
 4454W        W65875  37.500  32.015   0.821
 4455W        W65876  21.720   8.749   2.685
 4456W        W65877  30.916  33.060  14.760
 4457W        W65878  22.539  33.494   1.855
 4458W        W65879   9.702   6.408  13.819
 4459W        W65880  28.617  20.625   3.737
 4460W        W65881  33.599   5.392  12.958
 4461W        W65882  12.178  24.697   2.389
 4462W        W65883  25.614  12.646   4.666
 4463W        W65884  29.451  38.350   1.795
 4464W        W65885  39.552  23.209  11.866
 4465W        W65886  16.279  34.933  11.566
 4466W        W65887  24.090   1.241   0.355
 4467W        W65888  18.261   0.933   4.302
 4468W        W65889  12.185  12.200   0.935
 4469W        W65890   7.381   9.709   3.375
 4470W        W65891  36.013   1.776  13.318
 4471W        W65892  14.188  22.539  11.065
 4472W        W65893  17.112  37.888   2.792
 4473W        W65894  10.865   3.433  14.936
 4474W        W65895  14.212  33.948  12.845
 4475W        W65896  44.303  41.923  11.403
 4476W        W65897  13.264   8.704  14.889
 4477W        W65898  37.838  36.080   4.171
 4478W        W65899  18.245   1.828  11.999
 4479W        W65900  23.163  40.894  13.984
 4480W        W65901   7.335  43.958   2.231
 4481W        W65902  39.985  44.385   2.335
 4482W        W65903   9.703   5.916  12.829
 4483W        W65904  28.146  40.014  11.048
 4484W        W65905  43.892  30.466   0.907
 4485W        W65906  22.164   5.287  12.982
 4486W        W65907  21.211  32.975  10.142
 4487W        W65908  35.058  21.164   2.309
 4488W        W65909  44.001  20.207   0.765
 4489W        W65910   8.805   7.666   1.780
 4490W        W65911  21.731  26.160  13.857
 4491W        W65912  34.977  42.298   4.124
 4492W        W65913  38.911   3.403  13.804
 4493W        W65914   8.375  25.674  10.890
 4494W        W65915  44.788   3.330  10.567
 4495W        W65916  39.318  19.574   4.307
 4496W        W65917  31.046   0.833   3.699
 4497W        W65918  35.521  28.654  14.786
 4498W        W65919  25.627   6.723  11.469
 4499W        W65920  34.589  41.330  14.836
 4500W        W65921  38.432  10.873  14.853
 4501W        W65922  39.468   7.355  14.484
 4502W        W65923  42.525  11.370  13.518
 4503W        W65924  15.646  15.692  10.921
 4504W        W65925  34.457  24.151  11.537
 4505W        W65926  17.725  41.990   0.782
 4506W        W65927   0.380  29.140  12.540
 4507W        W65928  40.816  33.454   4.339
 4508W        W65929  25.606   2.460   4.606
 4509W        W65930  37.881  27.604  11.926
 4510W        W65931   5.329  24.527  11.536
 4511W        W65932  23.514  23.624   0.913
 4512W        W65933  16.763   3.389  13.801
 4513W        W65934  20.541  24.014  10.634
 4514W        W65935  41.866   6.923  14.426
 4515W        W65936  30.029  36.559  13.400
 4516W        W65937  20.675  17.257  14.025
 4517W        W65938   8.679  37.041  11.437
 4518W        W65939  26.555  26.540   5.279
 4519W        W65940  32.957  24.483  14.942
 4520W        W65941  20.045   9.211   0.746
 4521W        W65942   0.464  25.021  13.506
 4522W        W65943  24.212   3.411   4.176
 4523W        W65944  36.938   0.939   3.687
 4524W        W65945   1.874  25.656  11.383
 4525W        W65946  44.408  16.805   3.248
 4526W        W65947   5.921  11.664   4.642
 4527W        W65948  18.728  33.086   4.185
 4528W        W65949  22.650   4.772   5.705
 4529W        W65950  25.189   6.351   9.998
 4530W        W65951  18.730  33.956   4.252
 4531W        W65952  27.145  30.115  14.891
 4532W        W65953   7.249   9.827   4.627
 4533W        W65954  44.915  24.980  11.534
 4534W        W65955  11.845  30.950  12.919
 4535W        W65956  14.337  41.924  11.055
 4536W        W65957  13.778  26.164   4.779
 4537W        W65958  26.051  31.640   3.631
 4538W        W65959  24.009  15.320   2.736
 4539W        W65960  28.674   3.230  10.581
 4540W        W65961   5.728  37.830  13.437
 4541W        W65962  28.616   5.216   2.805
 4542W        W65963  35.951  10.778  13.885
 4543W        W65964  38.828  31.072   4.197
 4544W        W65965  40.998  16.093  10.158
 4545W        W65966  21.200   7.684   3.848
 4546W        W65967  26.046   8.845  11.605
 4547W        W65968   5.786  20.256  12.884
 4548W        W65969  24.175  35.055   0.812
 4549W        W65970  43.385  42.394   3.770
 4550W        W65971  41.805  35.045   4.215
 4551W        W65972   1.874  22.736  12.556
 4552W        W65973  28.185  34.431  11.474
 4553W        W65974  40.935  14.661  14.844
 4554W        W65975  41.507  16.252   3.834
 4555W        W65976  20.184  30.616   0.285
 4556W        W65977  28.606  22.722   2.221
 4557W        W65978  25.176  16.672   0.412
 4558W        W65979  29.937  39.857   0.465
 4559W        W65980  42.503  14.639  13.977
 4560W        W65981  33.517  15.282  11.451
 4561W        W65982  34.414   2.349   1.370
 4562W        W65983  14.179  39.988   0.881
 4563W        W65984  12.699  18.261   4.658
 4564W        W65985  22.074   7.318   1.227
 4565W        W65986  27.461  18.652  10.912
 4566W        W65987  13.804  12.813   0.305
 4567W        W65988  12.705  44.491  10.993
 4568W        W65989  15.768  29.939   4.606
 4569W        W65990   9.318  14.161  12.090
 4570W        W65991  17.286  30.003  11.439
 4571W        W65992  40.980   3.370  13.362
 4572W        W65993  20.628   6.200  10.119
 4573W        W65994  31.095  30.520   4.344
 4574W        W65995   2.772  42.328  12.016
 4575W        W65996  13.236  28.046  10.157
 4576W        W65997  13.694   4.918  13.375
 4577W        W65998  34.886  44.808  14.292
 4578W        W65999  23.630  27.980   1.442
 4579W        W66000  37.522  44.795   2.328
 4580W        W66001  18.263   3.361   3.283
 4581W        W66002   5.889  14.119  14.831
 4582W        W66003  14.122   2.948   4.683
 4583W        W66004  18.211  17.199   2.779
 4584W        W66005  35.086  34.001   4.329
 4585W        W66006  38.459  23.533  13.449
 4586W        W66007   1.444  19.632  11.047
 4587W        W66008  25.594   6.412   2.196
 4588W        W66009   6.894   8.286  11.907
 4589W        W66010  35.410   5.424   9.953
 4590W        W66011  11.230  31.142  14.949
 4591W        W66012   4.883   7.278   1.736
 4592W        W66013  44.489  37.522   3.836
 4593W        W66014  19.542  11.835  11.029
 4594W        W66015   4.874  23.206   0.955
 4595W        W66016  18.113  11.358  10.104
 4596W        W66017  19.744  20.530   3.352
 4597W        W66018   2.868  14.192   4.663
 4598W        W66019   1.969  10.239   3.743
 4599W        W66020  37.497  36.572  14.320
 4600W        W66021  41.892  42.912  14.994
 4601W        W66022   1.313  16.167  12.900
 4602W        W66023  41.035  36.538  13.809
 4603W        W66024   5.386  32.047   1.228
 4604W        W66025  36.865  10.187  12.043
 4605W        W66026   7.790  25.204   2.800
 4606W        W66027  15.781  21.081  12.339
 4607W        W66028  11.244  26.615  14.009
 4608W        W66029  11.750   4.329  11.426
 4609W        W66030  26.553  24.083   3.706
 4610W        W66031  10.776   3.446   3.272
 4611W        W66032   5.296  15.100  10.559
 4612W        W66033  26.678  27.102   2.364
 4613W        W66034  31.045  21.152  13.884
 4614W        W66035  21.574   2.285   2.687
 4615W        W66036  31.036   9.149   4.785
 4616W        W66037  36.436  39.027   3.326
 4617W        W66038  35.038   7.821   2.751
 4618W        W66039  38.472  36.402  12.447
 4619W        W66040  15.650  44.837   3.741
 4620W        W66041  26.621  31.618  13.958
 4621W        W66042   5.256   2.763  13.792
 4622W        W66043  33.587   4.728  13.059
 4623W        W66044  35.963  42.016  10.903
 4624W        W66045  23.545   9.302   0.446
 4625W        W66046  10.196   4.747   4.605
 4626W        W66047   4.334  27.973  11.093
 4627W        W66048  10.262  34.006  11.046
 4628W        W66049  26.973   2.256  11.425
 4629W        W66050   6.341  18.607  14.414
 4630W        W66051  42.399  29.498   3.318
 4631W        W66052  37.431   3.738  13.855
 4632W        W66053  40.327  35.047  11.969
 4633W        W66054  20.256   6.343   0.858
 4634W        W66055  43.498  43.984   0.355
 4635W        W66056   5.728  33.935  11.446
 4636W        W66057  35.406   0.852  13.982
 4637W        W66058  23.044  20.603   1.322
 4638W        W66059   7.694  23.733   0.278
 4639W        W66060  10.277   6.210  12.546
 4640W        W66061  29.161  15.274   3.366
 4641W        W66062  41.809  18.098   2.410
 4642W        W66063  11.160   5.930   0.895
 4643W        W66064  30.137   2.293   0.283
 4644W        W66065   6.203  36.002   0.862
 4645W        W66066  21.646  41.880   1.232
 4646W        W66067   1.909   9.189   3.229
 4647W        W66068  16.145   6.339  10.456
 4648W        W66069  12.680  40.415   1.237
 4649W        W66070  21.727  22.737   1.794
 4650W        W66071  22.702  37.032  10.586
 4651W        W66072  16.186   7.739   2.365
 4652W        W66073  28.536  36.845   1.924
 4653W        W66074   7.292   6.305  13.345
 4654W        W66075   5.420  40.023  12.973
 4655W        W66076  26.069  17.661   3.193
 4656W        W66077  43.280  21.668  11.862
 4657W        W66078  20.246  33.969  13.856
 4658W        W66079  23.654  19.189   0.956
 4659W        W66080  12.124  13.139  14.357
 4660W        W66081  25.694   8.776  14.450
 4661W        W66082  43.017  14.339  10.978
 4662W        W66083  19.687  25.036   1.395
 4663W        W66084  36.375  36.051  14.871
 4664W        W66085  40.521  13.779  11.561
 4665W        W66086  31.026   8.376   0.832
 4666W        W66087  22.540  31.068   2.272
 4667W        W66088  30.553   3.863  14.841
 4668W        W66089  33.416  32.635   4.265
 4669W        W66090  33.906  34.002  12.539
 4670W        W66091  35.925  18.711   1.756
 4671W        W66092  14.303  39.542   1.349
 4672W        W66093  15.312  24.202  12.886
 4673W        W66094  43.402  40.522  11.388
 4674W        W66095  16.673  42.407  11.510
 4675W        W66096  18.721  21.046   4.290
 4676W        W66097   1.851  14.591  10.526
 4677W        W66098  13.281  30.059   0.251
 4678W        W66099  43.367   7.732  12.913
 4679W        W66100  42.895  35.901  13.949
 4680W        W66101  13.749  28.153  14.852
 4681W        W66102  19.092   8.898   3.343
 4682W        W66103  23.201  13.791  12.094
 4683W        W66104  43.476   4.443   4.312
 4684W        W66105  27.947  44.996   1.318
 4685W        W66106  19.118  13.343   5.086
 4686W        W66107  43.890  12.212  14.996
 4687W        W66108  38.560  22.683   4.294
 4688W        W66109  37.516  12.307   1.214
 4689W        W66110  29.466  14.603   0.425
 4690W        W66111  29.104  18.741  12.518
 4691W        W66112  40.952   6.251   1.916
 4692W        W66113  20.592  12.248  11.582
 4693W        W66114  40.980  29.528   0.274
 4694W        W66115  29.429  42.381  11.918
 4695W        W66116   7.899   0.770   0.461
 4696W        W66117  20.039  11.234  14.827
 4697W        W66118   9.725   9.388  10.532
 4698W        W66119  15.183  36.974   1.433
 4699W        W66120  27.092  23.572   5.263
 4700W        W66121  24.645   5.241   0.878
 4701W        W66122  24.114  36.894  10.546
 4702W        W66123  42.453  44.328   0.821
 4703W        W66124   7.322  25.678  14.010
 4704W        W66125  24.630  20.079   2.366
 4705W        W66126   0.926   8.681   3.323
 4706W        W66127  36.904  39.425   2.198
 4707W        W66128  30.012  33.937  10.634
 4708W        W66129  32.934  44.358  14.919
 4709W        W66130   6.294  37.883  13.393
 4710W        W66131   0.978   5.798  14.377
 4711W        W66132  32.956  37.021   3.380
 4712W        W66133  10.357  34.590   4.311
 4713W        W66134  20.565  19.048  11.880
 4714W        W66135   3.429   8.296   1.784
 4715W        W66136   1.482  32.047  14.842
 4716W        W66137   3.903   7.826   0.393
 4717W        W66138   0.317  39.000  10.533
 4718W        W66139  35.930   6.228   2.805
 4719W        W66140  19.050  16.186   9.646
 4720W        W66141  38.515  41.900   1.707
 4721W        W66142   0.890   5.748  10.631
 4722W        W66143  27.087  17.113  10.538
 4723W        W66144  15.118   8.719   4.812
 4724W        W66145  26.031  36.567  13.437
 4725W        W66146  44.760  13.173   1.878
 4726W        W66147  43.977  14.178   0.268
 4727W        W66148  23.568   7.241   4.722
 4728W        W66149  16.714  35.092   4.311
 4729W        W66150  33.625  29.493  10.461
 4730W        W66151  42.283  19.638   2.838
 4731W        W66152  34.393   7.358  13.400
 4732W        W66153   8.219  19.762  12.381
 4733W        W66154  35.927   1.342   0.921
 4734W        W66155  11.291  15.178   0.273
 4735W        W66156   3.441  10.143  13.799
 4736W        W66157  43.798  35.897  12.853
 4737W        W66158  32.075  42.467   4.342
 4738W        W66159  41.914   2.426  12.960
 4739W        W66160  16.743  14.671  11.453
 4740W        W66161  20.534   1.441  10.416
 4741W        W66162  44.876  24.987   2.215
 4742W        W66163  38.503  14.754  14.018
 4743W        W66164  12.316  33.097   4.822
 4744W        W66165  33.098  15.690   1.738
 4745W        W66166   0.871  16.773   3.643
 4746W        W66167   4.893   1.802  14.778
 4747W        W66168  25.587  37.027  10.514
 4748W        W66169  12.626  37.928   4.203
 4749W        W66170  21.677  21.253  14.809
 4750W        W66171   8.403   0.477   4.137
 4751W        W66172   5.786  30.471   1.294
 4752W        W66173  15.247  15.319  14.989
 4753W        W66174  41.398  14.697  13.903
 4754W        W66175  13.236   8.314  13.896
 4755W        W66176   4.354  19.622   2.374
 4756W        W66177  13.333  40.858   3.855
 4757W        W66178  31.551  13.701  13.345
 4758W        W66179  16.078  13.708  11.460
 4759W        W66180  37.003  21.732  12.507
 4760W        W66181  23.648  21.557  13.503
 4761W        W66182  39.379  19.587  11.017
 4762W        W66183  17.127   6.823   2.317
 4763W        W66184  37.438  29.472   1.372
 4764W        W66185  16.108  28.486  13.412
 4765W        W66186  37.933  24.161  14.024
 4766W        W66187  24.118  44.946  11.953
 4767W        W66188  30.519  24.167  10.528
 4768W        W66189  27.518  14.608   3.708
 4769W        W66190  42.960   7.231  14.498
 4770W        W66191   8.379  36.592   3.287
 4771W        W66192  44.319  18.104  10.892
 4772W        W66193  18.277   1.257  10.582
 4773W        W66194  24.099  14.180  12.450
 4774W        W66195  36.585  31.547  11.873
 4775W        W66196  29.988  23.569  13.946
 4776W        W66197  23.628   0.972  11.391
 4777W        W66198  43.806  28.463  11.566
 4778W        W66199  10.762  17.608   1.449
 4779W        W66200   1.738   3.326   1.259
 4780W        W66201  36.963  30.421   4.698
 4781W        W66202  22.090   8.402   0.412
 4782W        W66203  43.841  22.218   2.867
 4783W        W66204  15.270  27.658   2.300
 4784W        W66205  25.599  44.341   0.353
 4785W        W66206  20.073  22.194  14.319
 4786W        W66207  27.472  38.011  12.021
 4787W        W66208  37.410  44.922   3.713
 4788W        W66209   3.447   0.950   3.294
 4789W        W66210  39.021  12.703  11.489
 4790W        W66211  12.725  27.069  14.910
 4791W        W66212  16.777   7.669   2.228
 4792W        W66213  42.519  13.727  11.509
 4793W        W66214   1.350  34.530  14.770
 4794W        W66215  17.576  22.211  14.509
 4795W        W66216  33.532  39.877   0.865
 4796W        W66217  43.452  24.626  14.304
 4797W        W66218  26.110  22.540  13.467
 4798W        W66219   3.443  22.700  13.400
 4799W        W66220  32.484  36.471   4.129
 4800W        W66221  27.176  18.582  13.003
 4801W        W66222   2.813  28.049  10.119
 4802W        W66223  23.524   9.668  14.488
 4803W        W66224  34.953  20.069  12.043
 4804W        W66225  19.112  17.674   4.188
 4805W        W66226   8.377   5.836  14.282
 4806W        W66227  21.204  14.267  13.509
 4807W        W66228  41.490  18.784  14.779
 4808W        W66229   2.343  21.256   2.386
 4809W        W66230  28.099  21.625   2.757
 4810W        W66231  35.086  44.371  13.916
 4811W        W66232   5.894  27.167  13.979
 4812W        W66233  19.063  11.794  13.815
 4813W        W66234  23.495   4.311   1.723
 4814W        W66235  25.642   0.888   4.238
 4815W        W66236  19.118  23.036  10.611
 4816W        W66237  32.133  13.730   1.798
 4817W        W66238   6.707  25.123   0.308
 4818W        W66239  34.460  21.728   0.913
 4819W        W66240   7.278   8.785  14.782
 4820W        W66241  35.475  23.537  14.319
 4821W        W66242  35.968  25.493   2.662
 4822W        W66243  44.869  25.514   2.673
 4823W        W66244   8.770   5.210   2.355
 4824W        W66245   9.229  42.017  10.570
 4825W        W66246  13.262  19.248  13.408
 4826W        W66247  27.050   8.842   0.413
 4827W        W66248  21.635  36.416  10.962
 4828W        W66249  15.274   7.786  13.013
 4829W        W66250   5.774  10.788  13.317
 4830W        W66251  18.628  27.158   0.387
 4831W        W66252  25.162  24.717   3.670
 4832W        W66253  25.626  31.141   0.826
 4833W        W66254  25.122  36.894  11.022
 4834W        W66255  29.515  29.160  10.121
 4835W        W66256  17.136   7.300   4.316
 4836W        W66257  13.312  26.052   0.935
 4837W        W66258  20.751  15.183   1.930
 4838W        W66259  42.383  25.085   1.368
 4839W        W66260  21.228  25.995   1.307
 4840W        W66261  25.173  21.136   0.287
 4841W        W66262  13.810  21.513  11.461
 4842W        W66263   5.352  39.428  11.937
 4843W        W66264   3.737  31.020  14.502
 4844W        W66265   4.850  37.868  10.474
 4845W        W66266  29.572  25.622   3.351
 4846W        W66267  10.835   0.312  11.867
 4847W        W66268  19.249  41.407  14.331
 4848W        W66269   5.885  17.254  11.603
 4849W        W66270   2.464  24.521   0.930
 4850W        W66271  18.090  21.258  11.863
 4851W        W66272  13.622  38.936   0.277
 4852W        W66273  22.233  38.879   4.243
 4853W        W66274   1.281  33.976   4.267
 4854W        W66275  34.452   3.320  10.951
 4855W        W66276  19.736  39.035  14.850
 4856W        W66277   9.367  33.034  14.366
 4857W        W66278  29.441  34.562   0.825
 4858W        W66279  11.259   7.200   1.715
 4859W        W66280  41.853  15.661   2.248
 4860W        W66281   8.311   8.313   0.900
 4861W        W66282  32.082  10.671   1.746
 4862W        W66283  43.882  22.188   3.770
 4863W        W66284  16.216  18.177   2.825
 4864W        W66285  21.181  16.182  11.995
 4865W        W66286  11.728  16.262  12.082
 4866W        W66287  26.607  21.713   3.762
 4867W        W66288  24.663  11.266  14.887
 4868W        W66289   7.899  28.448   1.722
 4869W        W66290   0.771  33.081   0.821
 4870W        W66291  44.305  22.559   5.110
 4871W        W66292  19.040   0.812  11.376
 4872W        W66293  26.484  16.072   1.281
 4873W        W66294  42.812   3.919   1.723
 4874W        W66295  36.398   1.301   0.427
 4875W        W66296   7.678   3.228  10.413
 4876W        W66297  41.478  21.162  13.806
 4877W        W66298  37.483  26.159   3.267
 4878W        W66299  43.392  16.310  12.553
 4879W        W66300  14.230  13.301   1.696
 4880W        W66301   0.825  30.038  10.435
 4881W        W66302  35.540   3.302   9.511
 4882W        W66303  19.237  28.067  13.487
 4883W        W66304   4.292  38.066   2.232
 4884W        W66305  37.842  13.832  10.494
 4885W        W66306   8.749  44.983  14.413
 4886W        W66307   6.428   1.966   2.884
 4887W        W66308  44.430  35.424  11.400
 4888W        W66309  27.076  36.367   2.212
 4889W        W66310  44.889  33.026  14.908
 4890W        W66311  41.870   0.431  10.444
 4891W        W66312   1.944   8.238   2.325
 4892W        W66313  17.135   0.298  14.842
 4893W        W66314  34.113  41.042   3.733
 4894W        W66315   5.337  39.361  12.369
 4895W        W66316   1.968  13.666   2.805
 4896W        W66317  35.359  10.165   3.659
 4897W        W66318   0.795  11.657  12.482
 4898W        W66319  36.438  23.546  11.394
 4899W        W66320  29.062  29.544   3.163
 4900W        W66321  22.518  44.976  12.840
 4901W        W66322  44.974  29.607   0.380
 4902W        W66323  36.488  33.567   0.967
 4903W        W66324  21.042  38.881   1.756
 4904W        W66325  13.344  41.475  11.884
 4905W        W66326   5.768   9.724  12.075
 4906W        W66327  26.119   9.301   1.795
 4907W        W66328  13.336   4.732  13.046
 4908W        W66329  15.191  43.271  11.528
 4909W        W66330   7.714  11.330  14.805
 4910W        W66331  39.367  27.127  13.947
 4911W        W66332  34.506  22.198   0.748
 4912W        W66333  23.680  15.214   2.782
 4913W        W66334  22.177  44.823   0.853
 4914W        W66335   7.396   0.808   0.744
 4915W        W66336  24.092   8.848  12.951
 4916W        W66337   9.330  18.051   1.784
 4917W        W66338  21.587  17.595   0.377
 4918W        W66339  29.613  13.839  10.036
 4919W        W66340  21.155  33.041  14.961
 4920W        W66341  31.087  19.562  12.834
 4921W        W66342  42.436   4.700   1.354
 4922W        W66343   0.349  38.023  12.474
 4923W        W66344  41.474  35.360  10.994
 4924W        W66345  39.490  35.573  10.555
 4925W        W66346  41.011  32.064   2.280
 4926W        W66347  14.744  36.394  13.523
 4927W        W66348  20.544   9.274  11.871
 4928W        W66349  22.214   9.752   3.295
 4929W        W66350  13.616   3.906   1.836
 4930W        W66351  16.738  14.716  12.348
 4931W        W66352  17.229  11.144  13.498
 4932W        W66353  15.134  24.526   1.212
 4933W        W66354  17.151  16.229  14.286
 4934W        W66355  38.467   4.708   3.376
 4935W        W66356   4.403   8.853   3.731
 4936W        W66357   5.210  42.445  14.767
 4937W        W66358  18.771  41.949  12.406
 4938W        W66359  30.631  19.693   5.207
 4939W        W66360   8.806  31.954  11.478
 4940W        W66361  38.960  29.622   2.797
 4941W        W66362  36.533  23.031   4.144
 4942W        W66363  33.515  21.710   3.356
 4943W        W66364  11.767  34.413   0.952
 4944W        W66365  34.072  44.888   3.646
 4945W        W66366  12.216  21.633   2.192
 4946W        W66367  26.126   8.371   1.341
 4947W        W66368  27.603  26.457   3.224
 4948W        W66369  35.481  29.581   3.867
 4949W        W66370  12.816   6.697   3.633
 4950W        W66371  41.331  11.289  13.350
 4951W        W66372  16.085  21.737  13.473
 4952W        W66373  30.486   5.755   4.194
 4953W        W66374   8.376  24.078   2.388
 4954W        W66375  41.941  17.111  14.024
 4955W        W66376   3.370  20.740   0.423
 4956W        W66377  22.175  39.460  10.593
 4957W        W66378  32.523  18.660   1.275
 4958W        W66379  16.582  35.999   4.119
 4959W        W66380  29.110  38.915  12.397
 4960W        W66381  38.859  18.184   3.347
 4961W        W66382  28.562   8.208   0.468
 4962W        W66383  13.267  28.530   1.332
 4963W        W66384  31.405  12.753   0.906
 4964W        W66385  10.834  20.035   4.349
 4965W        W66386  38.443  37.885   3.216
 4966W        W66387  34.114  27.650  11.506
 4967W        W66388   5.831  20.059   3.858
 4968W        W66389  21.134  38.447  13.898
 4969W        W66390   5.759  12.751   3.313
 4970W        W66391  30.007   4.934   1.338
 4971W        W66392   3.874  31.557  12.425
 4972W        W66393  11.639  15.150  11.537
 4973W        W66394  37.020  18.264   3.256
 4974W        W66395  34.979  16.212   1.734
 4975W        W66396   1.972  20.217  11.115
 4976W        W66397  34.920   1.868  13.060
 4977W        W66398  38.546  28.021   3.335
 4978W        W66399  29.638   2.318  14.506
 4979W        W66400  42.938  21.062  10.597
 4980W        W66401  36.385  25.073   0.955
 4981W        W66402   8.834  29.006  11.393
 4982W        W66403  26.113  32.507   4.263
 4983W        W66404  44.487   0.909  14.780
 4984W        W66405  21.115  29.573  14.466
 4985W        W66406  26.960  13.244   2.681
 4986W        W66407  42.414  36.420   0.481
 4987W        W66408   9.692  41.454  14.442
 4988W        W66409  28.584  19.774  11.510
 4989W        W66410  13.228  28.452   4.669
 4990W        W66411  40.988  35.540   3.749
 4991W        W66412   6.905  25.999   3.259
 4992W        W66413  15.708   4.726   2.178
 4993W        W66414  13.279  22.584   1.323
 4994W        W66415   3.367  14.229   0.466
 4995W        W66416  27.151  35.021  14.493
 4996W        W66417  23.206   1.828   3.271
 4997W        W66418   6.739  28.004   5.116
 4998W        W66419   6.723  18.232   3.656
 4999W        W66420   1.900  31.961  13.933
 5000W        W66421  43.508  35.899  14.307
 5001W        W66422  42.398  39.338   4.706
 5002W        W66423   4.381  12.630  13.463
 5003W        W66424  18.729  17.802   4.293
 5004W        W66425  34.606  14.253   1.419
 5005W        W66426  39.998  15.276   3.280
 5006W        W66427   9.357  34.397   0.804
 5007W        W66428  14.772  25.129   5.260
 5008W        W66429  27.136  20.656  14.288
 5009W        W66430  25.609  41.850   0.288
 5010W        W66431  11.639  28.437  11.488
 5011W        W66432   4.361  27.141  14.979
 5012W        W66433  39.016  44.844   4.347
 5013W        W66434  25.132  26.957  11.525
 5014W        W66435   5.754  34.092  12.361
 5015W        W66436  18.071  15.223   3.297
 5016W        W66437  27.445  36.009   3.768
 5017W        W66438   0.744   6.370  14.301
 5018W        W66439  22.050  38.927  13.384
 5019W        W66440   2.891  44.942   1.767
 5020W        W66441  12.300  44.987   3.865
 5021W        W66442  28.532  36.462  10.601
 5022W        W66443  39.835  43.453  13.017
 5023W        W66444   7.730  27.941  12.518
 5024W        W66445  10.326  42.356   3.733
 5025W        W66446   6.769   5.789  13.463
 5026W        W66447  22.181  29.526  12.829
 5027W        W66448  32.475  27.118  13.307
 5028W        W66449  16.640  21.702   2.694
 5029W        W66450  35.885  19.703  14.913
 5030W        W66451  18.141  18.660   4.172
 5031W        W66452   4.917  28.507   2.406
 5032W        W66453  40.458   1.778   0.477
 5033W        W66454  16.287  21.238   2.803
 5034W        W66455  28.975   9.721  12.950
 5035W        W66456   6.773  12.633  13.995
 5036W        W66457  25.066   9.205  12.830
 5037W        W66458   8.828  32.994  13.025
 5038W        W66459  14.804  32.616   1.709
 5039W        W66460  31.426  21.096   1.337
 5040W        W66461   1.926  16.656   2.252
 5041W        W66462  37.367   0.747   0.813
 5042W        W66463  10.243   8.803  13.994
 5043W        W66464  34.534  12.781   0.726
 5044W        W66465  27.582  16.713   4.224
 5045W        W66466  17.061  39.860   4.295
 5046W        W66467  23.593  29.452  14.841
 5047W        W66468  27.047  37.936  13.997
 5048W        W66469   6.423  21.133   2.263
 5049W        W66470  14.764  14.135   1.290
 5050W        W66471  36.361  12.856  13.459
 5051W        W66472  37.902  39.413   1.259
 5052W        W66473  18.610  15.132   0.964
 5053W        W66474   9.765  42.925  12.503
 5054W        W66475  14.289  37.460   3.274
 5055W        W66476   8.353  21.153  13.444
 5056W        W66477  27.535  19.543   0.321
 5057W        W66478  27.156  23.166  13.524
 5058W        W66479  14.774  27.575  12.924
 5059W        W66480  19.141  31.023   1.345
 5060W        W66481  42.453   0.399   4.253
 5061W        W66482  15.617  11.138  13.433
 5062W        W66483  13.154   3.954  13.438
 5063W        W66484  10.297   1.843  12.834
 5064W        W66485  21.150  32.083  14.992
 5065W        W66486  41.522  21.223  11.428
 5066W        W66487  16.715  28.018   0.739
 5067W        W66488   8.781  25.161  12.420
 5068W        W66489  24.695  18.627  14.503
 5069W        W66490  20.154  14.762  11.583
 5070W        W66491  22.244  33.900  13.346
 5071W        W66492  33.009  39.991  10.581
 5072W        W66493  16.688   1.477   4.707
 5073W        W66494   8.260  25.054  14.460
 5074W        W66495  36.519   9.238   4.789
 5075W        W66496  13.841   8.744  13.989
 5076W        W66497   6.361  42.450   0.420
 5077W        W66498   1.475  23.693   0.853
 5078W        W66499   8.388  31.144   1.897
 5079W        W66500  31.097  20.574   1.423
 5080W        W66501  39.994   1.863   1.877
 5081W        W66502  14.146  29.992   5.129
 5082W        W66503  14.623  17.155  13.337
 5083W        W66504   2.807  44.494   4.274
 5084W        W66505   5.327   0.794  11.999
 5085W        W66506  27.564  19.065   2.196
 5086W        W66507  22.528  26.472  10.980
 5087W        W66508  22.170  41.802  12.055
 5088W        W66509  35.593  28.134   3.704
 5089W        W66510  29.449  11.637  11.892
 5090W        W66511  10.233  41.907   1.259
 5091W        W66512  20.204  37.533   3.245
 5092W        W66513  14.733  10.247   3.160
 5093W        W66514   9.880   5.804   0.482
 5094W        W66515   0.889  24.631   4.298
 5095W        W66516  35.542  33.028  12.473
 5096W        W66517   7.856   6.306   0.276
 5097W        W66518  42.988  32.027  10.954
 5098W        W66519  30.590  13.118   0.366
 5099W        W66520  13.267  23.624  14.279
 5100W        W66521   0.794  11.799   3.278
 5101W        W66522  11.216  16.096  10.609
 5102W        W66523   5.909  20.049   0.423
 5103W        W66524  44.374  32.535  14.018
 5104W        W66525  42.028  16.743  13.037
 5105W        W66526   2.227  34.467  10.431
 5106W        W66527  10.180  19.556   1.918
 5107W        W66528  16.601   7.367  11.006
 5108W        W66529  30.163   9.743   3.769
 5109W        W66530  35.499  24.713  10.611
 5110W        W66531  19.744  23.587   2.288
 5111W        W66532  33.115  13.268   3.320
 5112W        W66533   1.885  29.504   3.760
 5113W        W66534  42.455  34.460   4.245
 5114W        W66535  29.994   3.367  13.791
 5115W        W66536  43.313  10.350  11.425
 5116W        W66537  27.587  38.501   0.835
 5117W        W66538  32.551  38.886   3.254
 5118W        W66539  28.452  30.525   2.811
 5119W        W66540  17.738  23.193  14.399
 5120W        W66541  25.036  38.910   4.672
 5121W        W66542   0.778   1.787   1.276
 5122W        W66543   2.805  18.755   3.361
 5123W        W66544  33.609  29.624   4.812
 5124W        W66545  44.491  13.632   1.226
 5125W        W66546  39.541   0.967  14.785
 5126W        W66547  20.252  35.085   4.658
 5127W        W66548  41.484  40.046   0.885
 5128W        W66549  34.524  32.503  10.892
 5129W        W66550  28.461   9.832   4.149
 5130W        W66551  27.590   3.458  13.813
 5131W        W66552  44.861   2.396  12.486
 5132W        W66553  26.519  24.023   0.951
 5133W        W66554  22.689   1.893  11.932
 5134W        W66555   9.260  26.094   4.723
 5135W        W66556  18.184  31.117  14.789
 5136W        W66557  22.131  13.333   4.131
 5137W        W66558  43.474  44.271  10.440
 5138W        W66559  35.084  43.397  13.504
 5139W        W66560   7.769   0.746  10.427
 5140W        W66561  42.951  14.316   1.784
 5141W        W66562  26.666  41.435   9.946
 5142W        W66563  43.998  22.020   1.780
 5143W        W66564  27.046  19.722  13.985
 5144W        W66565   8.707  34.496   3.643
 5145W        W66566   2.380  29.980   9.477
 5146W        W66567  39.004  22.999   0.309
 5147W        W66568  26.090  27.571  13.968
 5148W        W66569  24.149  29.544  13.419
 5149W        W66570  38.388  28.014  13.898
 5150W        W66571  23.493  14.159   2.859
 5151W        W66572  27.634  14.228  13.345
 5152W        W66573  19.083  16.622   1.427
 5153W        W66574   7.760  33.395   4.609
 5154W        W66575  17.797  15.658   3.692
 5155W        W66576  27.953  25.993   1.322
 5156W        W66577   9.772  38.437   4.649
 5157W        W66578  39.429  27.020   1.242
 5158W        W66579  36.085  20.744  12.974
 5159W        W66580  39.368  20.205  10.495
 5160W        W66581   3.746   6.824  13.316
 5161W        W66582  29.446  42.947  12.400
 5162W        W66583  13.237   2.806   2.210
 5163W        W66584  43.814   1.371   0.878
 5164W        W66585   6.908  19.235  10.956
 5165W        W66586   2.782  39.842  13.059
 5166W        W66587  43.890  37.450   1.919
 5167W        W66588  20.720  44.785   3.688
 5168W        W66589  43.895  29.437  13.792
 5169W        W66590   4.772  34.889   5.261
 5170W        W66591  16.765  40.331  13.934
 5171W        W66592   7.684  14.774  13.414
 5172W        W66593  38.026  27.560  13.478
 5173W        W66594   7.806   3.897   4.825
 5174W        W66595  44.296   7.224   0.915
 5175W        W66596  40.329  25.486  10.511
 5176W        W66597  18.706  29.125   4.268
 5177W        W66598  42.868  30.562   2.681
 5178W        W66599   6.793   6.343  13.963
 5179W        W66600  30.920  22.591   1.736
 5180W        W66601  38.964  23.000   2.320
 5181W        W66602   4.864   1.958   1.342
 5182W        W66603  44.938  44.446   0.890
 5183W        W66604  44.349   5.259   2.354
 5184W        W66605   3.815  17.687   3.781
 5185W        W66606  33.456  29.134   3.371
 5186W        W66607  44.947  36.533  11.989
 5187W        W66608  38.393  39.840   0.426
 5188W        W66609   5.433   4.267   0.481
 5189W        W66610   7.190   8.703   4.618
 5190W        W66611   4.814  13.301  11.519
 5191W        W66612   5.756   7.265  11.120
 5192W        W66613   4.736  38.014   0.398
 5193W        W66614  35.479  28.959   2.406
 5194W        W66615  11.201   4.392   0.786
 5195W        W66616  27.171  10.796  11.546
 5196W        W66617  33.117  36.447   1.356
 5197W        W66618   3.803   4.781   3.248
 5198W        W66619  39.328  11.645   4.193
 5199W        W66620  12.658  27.184   2.272
 5200W        W66621  10.690  19.753   4.234
 5201W        W66622  22.553  31.495  13.891
 5202W        W66623  18.777  20.540  12.075
 5203W        W66624  22.648  31.061  14.425
 5204W        W66625  16.183  17.172   1.239
 5205W        W66626  12.744  26.471  14.336
 5206W        W66627  15.715  10.230   4.655
 5207W        W66628  38.492  37.932   0.800
 5208W        W66629  32.084  31.532  13.949
 5209W        W66630  33.609  22.666  13.050
 5210W        W66631  21.196  30.518   2.206
 5211W        W66632   9.287   6.900  11.017
 5212W        W66633  41.516  25.984   4.728
 5213W        W66634  17.606  36.081   4.818
 5214W        W66635  23.538  40.480  12.568
 5215W        W66636  32.034  35.945  12.935
 5216W        W66637  32.459  25.615   3.365
 5217W        W66638  35.045   0.781  11.040
 5218W        W66639  43.477  21.649   4.696
 5219W        W66640   5.758  36.528  10.551
 5220W        W66641  24.023   2.816   3.377
 5221W        W66642  10.282  17.236  14.005
 5222W        W66643  15.259  44.766   1.250
 5223W        W66644  24.601  27.158   2.737
 5224W        W66645  39.905  36.550   3.688
 5225W        W66646  16.167  15.585   1.861
 5226W        W66647  34.012  38.930   1.308
 5227W        W66648  25.023  11.741  13.927
 5228W        W66649  24.163   0.867   2.727
 5229W        W66650  21.601  37.487  12.034
 5230W        W66651   3.823  41.294  14.360
 5231W        W66652   6.799  36.039  14.319
 5232W        W66653  36.022  35.061  13.324
 5233W        W66654  11.212  44.974  10.598
 5234W        W66655  12.769  12.340   4.244
 5235W        W66656  10.839   9.886  11.018
 5236W        W66657   8.376  13.796  14.970
 5237W        W66658   9.344  14.663  14.009
 5238W        W66659  19.598  40.991  11.584
 5239W        W66660  10.376  23.675  12.091
 5240W        W66661   3.398  36.975   3.744
 5241W        W66662  35.911  36.013   4.799
 5242W        W66663  12.839  15.747   2.829
 5243W        W66664   0.377  15.158   4.683
 5244W        W66665  35.420  35.536  14.978
 5245W        W66666  11.187  13.160  11.942
 5246W        W66667  32.044  12.178   1.782
 5247W        W66668   8.176   6.269  13.355
 5248W        W66669   8.756  33.403   2.874
 5249W        W66670  41.009   5.293   4.702
 5250W        W66671  38.070  11.665  14.992
 5251W        W66672  25.093  22.110  14.310
 5252W        W66673  20.106  25.216   5.227
 5253W        W66674  10.241   7.800  10.941
 5254W        W66675  19.092  44.289   2.406
 5255W        W66676  35.042  21.549   0.469
 5256W        W66677  36.934   8.222  11.117
 5257W        W66678  38.414  38.468  11.426
 5258W        W66679  25.073   9.323  12.082
 5259W        W66680   4.330  33.381  11.429
 5260W        W66681  42.845  44.888  11.904
 5261W        W66682   4.908  11.219  10.948
 5262W        W66683   5.809  15.780   3.693
 5263W        W66684  35.521  23.680  10.979
 5264W        W66685   4.354   7.360  12.980
 5265W        W66686  17.063  31.008  12.377
 5266W        W66687  38.019  14.830  12.373
 5267W        W66688  30.551   8.256  13.529
 5268W        W66689  13.748  38.396   1.754
 5269W        W66690  18.689  30.956   5.298
 5270W        W66691  21.259  13.629  14.872
 5271W        W66692  37.440  36.906   2.383
 5272W        W66693  21.713  28.081  10.926
 5273W        W66694  12.175  39.928   4.130
 5274W        W66695   0.939   2.358   2.192
 5275W        W66696  26.035   0.408   2.248
 5276W        W66697  24.149  19.612   2.888
 5277W        W66698  14.247  42.862  11.059
 5278W        W66699  29.091  16.202  12.428
 5279W        W66700  27.975  26.474   2.259
 5280W        W66701   0.770   2.763   1.214
 5281W        W66702  26.090  42.997  11.611
 5282W        W66703  19.230   0.400  13.987
 5283W        W66704  28.550  14.615   2.346
 5284W        W66705  17.779  30.565  13.504
 5285W        W66706  40.411   6.787   1.874
 5286W        W66707   4.205  18.079  14.772
 5287W        W66708  41.903  28.067  13.012
 5288W        W66709  37.346   5.806  13.480
 5289W        W66710  39.844  17.659  14.325
 5290W        W66711   6.241  39.519  11.416
 5291W        W66712  43.911  10.875   4.277
 5292W        W66713  32.462   8.321   4.806
 5293W        W66714  31.126  35.933  11.522
 5294W        W66715  25.628  11.860   3.656
 5295W        W66716  32.900  44.385  11.588
 5296W        W66717  30.416  37.399   5.151
 5297W        W66718  10.241  15.095  14.307
 5298W        W66719   9.153  32.094  13.003
 5299W        W66720  28.942  28.000   4.151
 5300W        W66721   1.767  16.674  11.553
 5301W        W66722  28.457  22.210   4.168
 5302W        W66723  22.599  21.084  14.028
 5303W        W66724  32.091  42.382  13.970
 5304W        W66725  10.317  33.882  10.024
 5305W        W66726  29.947   6.220  10.563
 5306W        W66727  44.498  31.956   5.271
 5307W        W66728   5.884  42.819  11.985
 5308W        W66729  14.731  25.216   1.806
 5309W        W66730  44.963   4.357  12.993
 5310W        W66731   7.254  18.727   1.777
 5311W        W66732   0.840  26.951  13.902
 5312W        W66733   8.831  23.016   3.267
 5313W        W66734  21.111  25.963   4.766
 5314W        W66735  24.064   7.666   0.818
 5315W        W66736   6.186  39.859   2.790
 5316W        W66737  28.498  35.402  11.432
 5317W        W66738  37.014  15.246   4.352
 5318W        W66739   6.873  11.247  13.862
 5319W        W66740   4.805  19.590  12.547
 5320W        W66741  39.012  37.501   3.206
 5321W        W66742   0.352  15.605   0.921
 5322W        W66743  30.538  26.085   2.721
 5323W        W66744  12.190  18.558   4.812
 5324W        W66745  13.148  27.074   3.853
 5325W        W66746  40.882  32.409  13.443
 5326W        W66747  25.202  29.063   4.310
 5327W        W66748   2.275  21.088   1.775
 5328W        W66749  30.584  15.211  11.596
 5329W        W66750  16.207  32.086  11.862
 5330W        W66751  40.898  26.011  11.377
 5331W        W66752   3.367   1.395  11.406
 5332W        W66753  28.497  26.180  10.496
 5333W        W66754   4.373  42.511   2.876
 5334W        W66755   8.816  25.116  10.634
 5335W        W66756  42.917  40.434  11.522
 5336W        W66757  13.239  34.918   1.451
 5337W        W66758  11.187  43.939   1.834
 5338W        W66759  39.857  33.897   4.700
 5339W        W66760  24.154  42.776   5.282
 5340W        W66761  28.125  35.922  13.866
 5341W        W66762  11.173  10.746   0.802
 5342W        W66763  20.050   4.334  11.918
 5343W        W66764  20.537   5.812   0.361
 5344W        W66765  40.353  32.080  12.409
 5345W        W66766   0.896  25.684   4.341
 5346W        W66767  32.444  32.450   3.695
 5347W        W66768  22.148  42.365  10.476
 5348W        W66769   4.742  29.964   0.400
 5349W        W66770   0.407  14.316   3.799
 5350W        W66771  34.546  44.264   4.650
 5351W        W66772  11.149  43.304  12.556
 5352W        W66773   4.846  13.771   2.890
 5353W        W66774   2.358   5.788  13.543
 5354W        W66775   5.809  28.633  11.522
 5355W        W66776  17.585   7.274   3.184
 5356W        W66777  35.585  29.502   3.215
 5357W        W66778  30.048   3.778  14.844
 5358W        W66779  30.545  38.973  12.004
 5359W        W66780  37.889  19.127   2.353
 5360W        W66781   7.709  44.765   4.339
 5361W        W66782  35.973  10.376   2.850
 5362W        W66783   0.324  32.485   4.320
 5363W        W66784   7.234  35.489   2.704
 5364W        W66785  40.841  10.247  11.543
 5365W        W66786  19.057  11.306   4.282
 5366W        W66787   0.887  20.599   0.841
 5367W        W66788  43.909  43.378   0.862
 5368W        W66789  35.928  37.539   1.750
 5369W        W66790  34.895  23.076   3.716
 5370W        W66791  11.789   7.759  14.983
 5371W        W66792  22.245   7.853   3.845
 5372W        W66793  11.253  44.452   3.749
 5373W        W66794  21.611  41.506   3.779
 5374W        W66795  22.651  31.448  10.963
 5375W        W66796  17.117  30.157   0.344
 5376W        W66797   8.678  39.371  11.085
 5377W        W66798  41.922  11.355  11.096
 5378W        W66799  27.167  20.129   3.334
 5379W        W66800   0.424   0.746   4.670
 5380W        W66801   9.309  22.525  10.595
 5381W        W66802  14.136  16.197   4.269
 5382W        W66803  11.659  19.668   0.323
 5383W        W66804   0.482  19.707   1.911
 5384W        W66805  17.210  14.221  13.503
 5385W        W66806  41.887  14.813  13.445
 5386W        W66807  33.433  42.372  12.556
 5387W        W66808  26.568  38.564  13.491
 5388W        W66809  16.117  18.727  12.845
 5389W        W66810   1.756  41.519   2.318
 5390W        W66811  28.003   4.726  14.932
 5391W        W66812   8.337  30.542  11.939
 5392W        W66813  18.557  42.007   1.928
 5393W        W66814  11.260  17.091  13.952
 5394W        W66815  19.123  30.488   4.634
 5395W        W66816   7.874  14.330   9.960
 5396W        W66817  10.875  27.156  13.359
 5397W        W66818  21.077   5.918   1.908
 5398W        W66819  23.181  42.438  13.850
 5399W        W66820   6.219  11.686  11.597
 5400W        W66821  10.781  10.358  13.791
 5401W        W66822  33.878   4.893   4.614
 5402W        W66823  10.327  13.800   4.278
 5403W        W66824  16.668  25.660   3.256
 5404W        W66825   1.950  41.867   2.737
 5405W        W66826  18.292  28.444  12.459
 5406W        W66827  36.859  20.665   1.814
 5407W        W66828  21.547  12.812   1.215
 5408W        W66829  18.094   4.723  14.978
 5409W        W66830   1.785  21.718  14.863
 5410W        W66831   3.244   4.780   5.784
 5411W        W66832  31.633  16.587   2.668
 5412W        W66833  11.363  37.957  13.014
 5413W        W66834  38.343   5.717  11.010
 5414W        W66835  40.029  30.446  13.805
 5415W        W66836  20.684  20.073   2.299
 5416W        W66837  34.919  12.639  10.528
 5417W        W66838  20.090  22.028   0.736
 5418W        W66839  11.201   0.383   1.285
 5419W        W66840   1.454  29.128  11.938
 5420W        W66841  31.454  24.145   0.381
 5421W        W66842  41.014   0.836  13.920
 5422W        W66843   7.312  41.934   4.638
 5423W        W66844  21.574  29.631  12.405
 5424W        W66845   9.228   7.371  11.376
 5425W        W66846  30.967  42.359   4.161
 5426W        W66847  16.278  26.571   4.742
 5427W        W66848  26.507  44.378  12.000
 5428W        W66849   7.847  31.441   3.777
 5429W        W66850  27.664  34.577  12.872
 5430W        W66851   0.311  21.704  13.004
 5431W        W66852  25.039  31.923  14.462
 5432W        W66853  35.876  22.505  11.089
 5433W        W66854   2.338  44.935  12.569
 5434W        W66855  36.500  40.341   0.834
 5435W        W66856   4.772  10.317  12.851
 5436W        W66857  25.203  31.914   9.972
 5437W        W66858  15.321  43.977  12.378
 5438W        W66859  22.528   8.694  13.875
 5439W        W66860  44.418   5.210  10.959
 5440W        W66861  19.118  39.506   1.212
 5441W        W66862  26.972  34.030  14.004
 5442W        W66863  23.719  22.504   3.324
 5443W        W66864  20.527  12.154  12.521
 5444W        W66865  22.674   0.896  11.019
 5445W        W66866  31.108   4.891  13.541
 5446W        W66867  15.608   9.191  13.874
 5447W        W66868  17.160  17.703  10.423
 5448W        W66869  15.637  14.304  11.462
 5449W        W66870  26.208  16.128   0.950
 5450W        W66871  25.694  17.601   3.651
 5451W        W66872  14.824  22.155   2.208
 5452W        W66873  41.331   6.358   4.235
 5453W        W66874  36.533  33.043  10.488
 5454W        W66875  42.294  42.443   0.868
 5455W        W66876  14.695  11.725   3.824
 5456W        W66877  34.895  23.014  12.944
 5457W        W66878  27.027   6.698  14.446
 5458W        W66879  23.597  34.586  14.451
 5459W        W66880  18.258  35.961  13.361
 5460W        W66881  16.632  15.328   3.271
 5461W        W66882  11.676  16.732   4.193
 5462W        W66883  34.591  33.406  13.903
 5463W        W66884  21.075   6.834  14.338
 5464W        W66885  22.229  24.585  13.869
 5465W        W66886  13.338   6.836   3.852
 5466W        W66887  13.837  36.058   4.183
 5467W        W66888  40.477  21.695  13.527
 5468W        W66889  17.103  21.155  13.020
 5469W        W66890   9.823  44.968  14.952
 5470W        W66891  40.907  33.913  10.898
 5471W        W66892  12.143  15.799   2.182
 5472W        W66893  42.507  17.166  10.067
 5473W        W66894  44.989  14.313  12.379
 5474W        W66895  10.375  12.701  13.530
 5475W        W66896  23.688  36.060   3.277
 5476W        W66897  37.005  30.950   3.324
 5477W        W66898  22.024  18.564   2.362
 5478W        W66899   3.882   3.331  10.545
 5479W        W66900  23.522   9.734   0.449
 5480W        W66901  38.840   3.332  11.592
 5481W        W66902  14.722  17.598   0.745
 5482W        W66903  23.666  33.609   4.745
 5483W        W66904  28.501  41.884   2.372
 5484W        W66905  27.194  35.027  14.833
 5485W        W66906  32.916   9.798   1.717
 5486W        W66907  36.396  14.153   4.210
 5487W        W66908   0.798   7.316   2.679
 5488W        W66909   2.339  40.923  11.560
 5489W        W66910  16.761   5.275  11.541
 5490W        W66911   6.265   8.193   2.890
 5491W        W66912  44.938  43.005   1.313
 5492W        W66913  22.018  39.355  12.370
 5493W        W66914  34.886  42.285   0.773
 5494W        W66915  24.076  14.600   2.386
 5495W        W66916  20.128  10.174  13.828
 5496W        W66917  31.979  17.285  10.971
 5497W        W66918  27.971  42.502   1.908
 5498W        W66919  20.165  19.656   0.481
 5499W        W66920  22.206  27.025   0.877
 5500W        W66921  31.138  31.630  13.885
 5501W        W66922   6.764  35.056  12.369
 5502W        W66923   5.706  11.858  12.914
 5503W        W66924  32.486  13.281  12.432
 5504W        W66925   9.724   4.887  10.537
 5505W        W66926   1.352  20.242  11.509
 5506W        W66927  41.999  35.531   0.417
 5507W        W66928  15.208   9.807  11.521
 5508W        W66929  19.246  30.070   3.663
 5509W        W66930  34.091  11.309  10.968
 5510W        W66931  30.082  15.757   0.820
 5511W        W66932  24.573  13.660  13.401
 5512W        W66933  43.453  41.470  11.021
 5513W        W66934  29.570   5.865   3.844
 5514W        W66935  32.392  34.001  11.498
 5515W        W66936  44.505  34.431  10.529
 5516W        W66937  37.881  26.072  13.315
 5517W        W66938  23.116  35.425   1.805
 5518W        W66939  11.717  33.072   0.903
 5519W        W66940  23.229  28.934  14.857
 5520W        W66941  40.414  21.678   4.756
 5521W        W66942  44.841  28.180  11.481
 5522W        W66943   5.299  40.964   2.312
 5523W        W66944  39.808  22.151   1.432
 5524W        W66945  35.422  24.219  11.583
 5525W        W66946   1.956  32.550  11.406
 5526W        W66947  18.262  24.506  10.566
 5527W        W66948  26.092  30.440  14.859
 5528W        W66949  39.361  37.870   0.847
 5529W        W66950  20.035  36.920  14.466
 5530W        W66951  41.841  12.830   4.184
 5531W        W66952  11.326  14.198   1.405
 5532W        W66953   0.848  33.041  11.486
 5533W        W66954  30.499   1.344  14.933
 5534W        W66955  16.219  37.059   1.239
 5535W        W66956  31.933  31.461  13.011
 5536W        W66957   5.739  30.025  10.932
 5537W        W66958  32.486  32.926  13.893
 5538W        W66959   6.850   3.440  11.071
 5539W        W66960  22.685  15.711   2.711
 5540W        W66961  10.236  41.495   2.712
 5541W        W66962  25.632  16.249   3.324
 5542W        W66963  10.360  26.123   0.879
 5543W        W66964  31.091  12.216  14.767
 5544W        W66965   0.434  33.080  10.536
 5545W        W66966  42.889  10.829   1.407
 5546W        W66967  17.242   6.915  14.423
 5547W        W66968  25.642   5.201   2.867
 5548W        W66969  30.045  37.049  12.041
 5549W        W66970  36.483  20.109   3.341
 5550W        W66971  18.064   6.243   0.912
 5551W        W66972  31.589  10.638   3.806
 5552W        W66973   5.856  43.309   1.815
 5553W        W66974  26.145  11.669  14.453
 5554W        W66975  13.651   5.698  13.052
 5555W        W66976  44.451  23.727  10.610
 5556W        W66977  41.314   4.421  11.097
 5557W        W66978  38.937  14.631   3.147
 5558W        W66979   9.306  35.588   0.795
 5559W        W66980  33.380  28.640  11.470
 5560W        W66981  16.671  44.829  14.508
 5561W        W66982  40.362  33.603   3.847
 5562W        W66983  12.742  25.704   4.331
 5563W        W66984  10.743  26.109  12.945
 5564W        W66985  28.549   8.861  11.541
 5565W        W66986  33.910  13.256  14.990
 5566W        W66987   0.410  18.141   0.789
 5567W        W66988  18.723  22.676   0.325
 5568W        W66989   5.250  14.738  12.414
 5569W        W66990  18.180   2.232  12.914
 5570W        W66991  37.043  34.029   2.334
 5571W        W66992   6.917  39.531  14.341
 5572W        W66993  25.540  14.251   4.768
 5573W        W66994   4.296  13.623   4.602
 5574W        W66995  20.230  32.889  13.310
 5575W        W66996  33.542  32.068  11.581
 5576W        W66997  21.107  41.935  12.530
 5577W        W66998  14.774  32.421   2.338
 5578W        W66999  29.118  37.069   4.670
 5579W        W67000   9.725  33.086  11.399
 5580W        W67001  39.862   6.716   1.245
 5581W        W67002  35.477  22.229   0.482
 5582W        W67003   5.741  20.163   3.295
 5583W        W67004  32.441  39.346  14.511
 5584W        W67005  30.505  20.098  13.508
 5585W        W67006   8.837  39.398   2.229
 5586W        W67007   2.745  35.047   2.284
 5587W        W67008  30.460  32.400  14.825
 5588W        W67009  37.940  25.637  13.908
 5589W        W67010  16.160   2.721   4.200
 5590W        W67011  17.154  12.293   0.482
 5591W        W67012  39.440   7.301   0.950
 5592W        W67013   6.418  18.602  11.894
 5593W        W67014  27.673   4.313   2.200
 5594W        W67015  41.292  26.581  12.402
 5595W        W67016  36.497  33.535   4.310
 5596W        W67017  35.910  21.205   3.854
 5597W        W67018   4.846  17.759   1.322
 5598W        W67019  34.422   4.386   2.291
 5599W        W67020  37.478   3.223   4.312
 5600W        W67021  21.097  17.776   5.306
 5601W        W67022  27.021  25.122   1.714
 5602W        W67023  12.855  23.715   3.184
 5603W        W67024   6.841  39.015  12.557
 5604W        W67025   8.836  34.887  14.297
 5605W        W67026  43.413   5.798   0.335
 5606W        W67027  13.653  28.482  14.496
 5607W        W67028  29.642  18.567   1.915
 5608W        W67029  32.398   0.921  10.945
 5609W        W67030  39.360  30.540   1.731
 5610W        W67031  36.358   4.733   1.807
 5611W        W67032   4.211  44.908   5.084
 5612W        W67033   2.742  44.805  14.862
 5613W        W67034  20.644  44.441  14.972
 5614W        W67035   7.781  10.636   1.865
 5615W        W67036  16.722  20.264  10.404
 5616W        W67037   1.335  26.054   2.788
 5617W        W67038  39.943  16.078  13.941
 5618W        W67039   6.693  11.654  13.996
 5619W        W67040  29.973  19.743   1.289
 5620W        W67041  10.704  33.526  10.645
 5621W        W67042  31.079   1.442  11.004
 5622W        W67043   8.884  33.991   1.256
 5623W        W67044  23.202  21.531   3.822
 5624W        W67045  23.065  27.498  13.000
 5625W        W67046   2.934  39.494   2.784
 5626W        W67047  27.991  41.978  14.818
 5627W        W67048   3.326  21.146  14.408
 5628W        W67049  44.355  14.611  14.461
 5629W        W67050  38.490  11.814   4.336
 5630W        W67051   0.865   4.843  10.976
 5631W        W67052  26.686  43.801   2.378
 5632W        W67053   1.319  41.368   4.313
 5633W        W67054  18.218  15.172  13.994
 5634W        W67055   2.232  30.041  14.511
 5635W        W67056   4.268  28.152  11.375
 5636W        W67057  34.872  44.843  12.917
 5637W        W67058  10.864  17.157   1.433
 5638W        W67059   8.896   2.765   0.944
 5639W        W67060  23.601  33.624   2.356
 5640W        W67061  11.819  44.999   3.161
 5641W        W67062  43.022   4.263  11.466
 5642W        W67063  11.759   2.927  10.409
 5643W        W67064  18.099  24.661   2.274
 5644W        W67065   5.814  29.935   3.333
 5645W        W67066  18.051  34.527  12.497
 5646W        W67067  32.045  25.691   1.418
 5647W        W67068  24.001  26.039   3.239
 5648W        W67069  40.506  24.485  10.514
 5649W        W67070   9.731  19.627  14.995
 5650W        W67071   7.811  23.728  11.039
 5651W        W67072   1.804  19.172   0.848
 5652W        W67073  39.960  29.597   2.894
 5653W        W67074  25.015  24.200  12.023
 5654W        W67075  20.723  39.061  13.042
 5655W        W67076   2.891  30.936   2.712
 5656W        W67077  40.529  37.370  12.906
 5657W        W67078  23.160  30.581   1.711
 5658W        W67079   7.348  15.780   0.835
 5659W        W67080  25.080   5.842   1.727
 5660W        W67081   6.367  38.012  12.389
 5661W        W67082  26.015   8.360  14.897
 5662W        W67083  33.621   7.290   1.790
 5663W        W67084  37.021   8.764  13.881
 5664W        W67085  37.910  19.276  12.369
 5665W        W67086  12.611  31.020  11.424
 5666W        W67087   1.284  26.085   3.647
 5667W        W67088  24.104   4.775   0.436
 5668W        W67089  15.810  13.211  11.956
 5669W        W67090  19.052  44.999  13.969
 5670W        W67091   2.347   6.216   3.378
 5671W        W67092  31.417   6.835  10.891
 5672W        W67093  32.541  43.424   4.198
 5673W        W67094  32.030  31.528   0.275
 5674W        W67095  29.021  39.060  11.938
 5675W        W67096  40.011  16.571   1.376
 5676W        W67097  27.622  25.981   3.781
 5677W        W67098  17.717  11.842   0.886
 5678W        W67099  15.254   8.760   0.928
 5679W        W67100  36.429  20.522   2.271
 5680W        W67101  24.535  12.295  14.303
 5681W        W67102  32.465  42.889  14.361
 5682W        W67103  30.508   7.712  13.494
 5683W        W67104  16.296  13.840   5.188
 5684W        W67105  33.911  11.789   4.663
 5685W        W67106  40.888  37.490  12.351
 5686W        W67107  32.477  43.987  11.938
 5687W        W67108  14.809   5.320   4.346
 5688W        W67109  14.258  26.467  13.959
 5689W        W67110  24.082   5.349  14.887
 5690W        W67111   2.445  38.527   0.346
 5691W        W67112  11.220  31.105   1.754
 5692W        W67113   0.272  34.981  12.479
 5693W        W67114  11.690  22.252  10.901
 5694W        W67115  18.790  40.868  12.039
 5695W        W67116  12.354   4.303   2.806
 5696W        W67117  30.913  14.213  11.576
 5697W        W67118  41.426  24.034   4.724
 5698W        W67119  23.713  30.944   1.314
 5699W        W67120  42.335  17.200  10.941
 5700W        W67121  43.009  39.005   2.692
 5701W        W67122   4.270   4.857  12.842
 5702W        W67123   7.813  26.596   0.966
 5703W        W67124  41.029  43.393  10.597
 5704W        W67125   6.847   2.907  11.397
 5705W        W67126  11.288   3.735  12.991
 5706W        W67127  44.823  31.632   1.336
 5707W        W67128  42.472  38.523   1.745
 5708W        W67129  43.440  14.648  13.493
 5709W        W67130  29.463  29.925  11.390
 5710W        W67131   9.343  16.658   0.447
 5711W        W67132  37.000   2.462  13.056
 5712W        W67133  40.319  12.168   1.399
 5713W        W67134   5.239  35.888   1.915
 5714W        W67135  15.222   7.309   0.441
 5715W        W67136  42.844  23.709  11.463
 5716W        W67137  18.107  10.212   0.370
 5717W        W67138  16.648  32.126   0.387
 5718W        W67139  40.835   0.942  14.774
 5719W        W67140  14.291  20.662   0.796
 5720W        W67141  16.264  29.482   0.860
 5721W        W67142  33.977  43.377  12.024
 5722W        W67143  35.993  12.820   3.248
 5723W        W67144  44.436  19.048   3.630
 5724W        W67145  41.902  17.148   3.315
 5725W        W67146  30.542  18.064  11.899
 5726W        W67147  44.795  21.584  14.370
 5727W        W67148   1.788  26.172  10.544
 5728W        W67149  34.570  29.629   1.729
 5729W        W67150  36.032  23.566   3.237
 5730W        W67151  36.403  31.539   2.307
 5731W        W67152  39.508  12.338  12.516
 5732W        W67153  41.906  14.806  10.952
 5733W        W67154  20.245   2.728   4.757
 5734W        W67155  30.571   8.288  12.935
 5735W        W67156  25.138   8.849   2.330
 5736W        W67157  38.528  31.044   1.349
 5737W        W67158   8.375  31.045  11.986
 5738W        W67159  37.488  31.121  13.327
 5739W        W67160  20.579  40.899  13.501
 5740W        W67161   2.895  44.880  10.632
 5741W        W67162  27.536   4.254  11.961
 5742W        W67163   7.849  29.993   4.135
 5743W        W67164  35.898   2.914  13.431
 5744W        W67165  29.007  30.030  11.496
 5745W        W67166  40.311  39.466   1.734
 5746W        W67167   3.753  23.158   9.609
 5747W        W67168  13.758  20.149   0.771
 5748W        W67169  15.619  20.185   0.856
 5749W        W67170  16.750  24.998  10.604
 5750W        W67171   1.750  14.262   3.163
 5751W        W67172  21.117  44.322  11.971
 5752W        W67173  24.545  21.517  13.846
 5753W        W67174   9.198   8.165  14.393
 5754W        W67175   3.754  11.150  14.806
 5755W        W67176  28.095  20.739   4.711
 5756W        W67177  35.935  29.940  12.919
 5757W        W67178  19.619  24.658   3.632
 5758W        W67179  21.029  11.281  11.942
 5759W        W67180  22.543   1.348  14.806
 5760W        W67181  25.657  26.984   2.217
 5761W        W67182   9.716  43.863   1.764
 5762W        W67183  29.918  35.933   0.332
 5763W        W67184  35.445  10.677  12.412
 5764W        W67185  27.489  12.779   1.884
 5765W        W67186  30.556  43.999  10.575
 5766W        W67187   9.393  23.723   0.780
 5767W        W67188  11.178  17.589   4.681
 5768W        W67189  37.943  22.589   4.191
 5769W        W67190   8.253  42.389  14.460
 5770W        W67191   4.732  15.290  11.485
 5771W        W67192  27.496  33.587   4.817
 5772W        W67193  13.179   3.323  11.916
 5773W        W67194  19.094  38.051  13.336
 5774W        W67195  31.470  43.934  11.576
 5775W        W67196  15.601  43.457  14.830
 5776W        W67197  23.676  21.605   1.706
 5777W        W67198  12.346  15.163   1.724
 5778W        W67199  19.535  26.193  13.014
 5779W        W67200  33.458  24.160   3.233
 5780W        W67201  15.594  23.993  12.391
 5781W        W67202  16.180  21.739  11.061
 5782W        W67203  20.188  14.119   0.476
 5783W        W67204   2.391   6.790   1.378
 5784W        W67205  19.046  14.662  14.965
 5785W        W67206  30.940  21.139   0.306
 5786W        W67207  24.504  14.790  12.883
 5787W        W67208  17.084  20.766  11.044
 5788W        W67209   8.779   8.868  10.554
 5789W        W67210  33.467   6.753   3.804
 5790W        W67211  33.131  12.757   2.733
 5791W        W67212  28.507  11.312   3.165
 5792W        W67213  16.723   1.771   1.709
 5793W        W67214  31.534  43.773   3.227
 5794W        W67215  20.211  37.830  11.107
 5795W        W67216   3.336  44.347   2.831
 5796W        W67217  35.877  27.541  12.935
 5797W        W67218  44.844  19.700  12.535
 5798W        W67219  41.314  22.066  13.837
 5799W        W67220  19.275  14.764  10.598
 5800W        W67221   7.678  16.100  11.953
 5801W        W67222   6.895  41.875   2.212
 5802W        W67223  11.868  19.196   3.695
 5803W        W67224   0.836  20.150  12.045
 5804W        W67225  12.336  15.110  10.429
 5805W        W67226  22.556  32.965   4.281
 5806W        W67227  26.589  41.041  11.485
 5807W        W67228   6.184  42.377  10.465
 5808W        W67229  23.227  21.128   3.822
 5809W        W67230  21.085  19.625   1.325
 5810W        W67231   1.451  24.138   3.764
 5811W        W67232  23.540  36.487  11.577
 5812W        W67233  36.001   1.761  11.472
 5813W        W67234  40.007  40.313   4.241
 5814W        W67235   1.956  23.576  13.502
 5815W        W67236   2.853  35.419  13.860
 5816W        W67237   0.491  39.045   4.668
 5817W        W67238  14.195   7.755  13.827
 5818W        W67239  29.661  19.210  13.907
 5819W        W67240  31.014  12.720  11.442
 5820W        W67241   4.220   0.780   2.365
 5821W        W67242  30.963  32.092   3.337
 5822W        W67243   6.807  23.991  12.084
 5823W        W67244  17.787  15.182   9.505
 5824W        W67245  33.433  39.822   4.631
 5825W        W67246   0.754  30.533   0.427
 5826W        W67247  35.535  24.550   4.115
 5827W        W67248  28.452  32.567   4.613
 5828W        W67249   8.237  39.419  13.982
 5829W        W67250  37.337  34.444   2.285
 5830W        W67251  22.658  31.479   0.452
 5831W        W67252   1.257  20.625   3.799
 5832W        W67253   0.326  26.516   4.182
 5833W        W67254  30.560  43.841   4.327
 5834W        W67255  31.502   6.869  12.343
 5835W        W67256  12.317  16.660  12.048
 5836W        W67257  34.614   4.422  12.430
 5837W        W67258   6.332  33.093   1.233
 5838W        W67259  33.461  17.706  13.035
 5839W        W67260   0.396  39.421   3.222
 5840W        W67261  23.016   4.379  11.549
 5841W        W67262  38.529  42.524   2.728
 5842W        W67263  43.442  30.582   2.274
 5843W        W67264  21.522  12.787   3.747
 5844W        W67265   9.350  32.106   5.290
 5845W        W67266  18.722   2.436   0.292
 5846W        W67267  20.266  42.326  12.454
 5847W        W67268  40.976  23.125  11.401
 5848W        W67269   6.688  30.537  11.550
 5849W        W67270  13.696  19.157   3.372
 5850W        W67271   3.378  16.160  11.500
 5851W        W67272   5.748  24.712  14.383
 5852W        W67273  22.631  17.164  12.369
 5853W        W67274  21.179   9.393   4.339
 5854W        W67275  34.972   9.850  13.440
 5855W        W67276  29.552  44.974   4.287
 5856W        W67277  22.139  16.256   1.754
 5857W        W67278  17.769  43.818   1.235
 5858W        W67279   4.732  41.971  11.959
 5859W        W67280   4.842  30.508   4.296
 5860W        W67281  44.384   5.800  12.837
 5861W        W67282  29.446  33.603  12.030
 5862W        W67283  38.940  18.698  12.852
 5863W        W67284  21.038  42.342   3.176
 5864W        W67285  13.713  19.219   0.810
 5865W        W67286  29.938  23.589   0.382
 5866W        W67287   1.923  13.833   1.396
 5867W        W67288   2.887  39.914   1.708
 5868W        W67289  14.283   6.867  11.124
 5869W        W67290  29.941  27.539  13.966
 5870W        W67291  30.949  29.597  13.438
 5871W        W67292   4.895  15.797   4.141
 5872W        W67293   5.888  30.621  10.417
 5873W        W67294  14.750  12.214   3.795
 5874W        W67295  20.551  12.144   1.306
 5875W        W67296  14.116  39.348   4.224
 5876W        W67297  20.082  35.405  11.548
 5877W        W67298  40.518  14.151  11.122
 5878W        W67299   2.964  43.336   4.837
 5879W        W67300  28.979  18.052  14.028
 5880W        W67301  21.046  40.925  14.443
 5881W        W67302  25.667  27.195  10.578
 5882W        W67303   6.765   3.321   2.257
 5883W        W67304   9.870  31.630  13.024
 5884W        W67305  28.579   4.369  11.416
 5885W        W67306  35.052  33.055  11.553
 5886W        W67307  17.589  38.876  10.962
 5887W        W67308   7.278  41.325  10.932
 5888W        W67309  36.361  24.622  12.984
 5889W        W67310  16.124  14.270   5.576
 5890W        W67311  31.495  35.545   1.293
 5891W        W67312   2.931  12.823  11.081
 5892W        W67313  26.556  29.474  14.482
 5893W        W67314  42.977  20.529  12.414
 5894W        W67315  27.966  30.532  12.495
 5895W        W67316  36.860  25.578  10.504
 5896W        W67317  15.151   4.806  11.492
 5897W        W67318   5.402  17.136   3.383
 5898W        W67319  36.516   6.285  14.459
 5899W        W67320  31.940  22.179   3.734
 5900W        W67321  11.830   2.906   4.345
 5901W        W67322  17.265  24.625   3.378
 5902W        W67323  27.098  19.757   3.193
 5903W        W67324   3.945  20.217   3.633
 5904W        W67325  33.974  30.986   0.468
 5905W        W67326  31.064  40.428   3.215
 5906W        W67327  43.946  34.598   0.954
 5907W        W67328  28.959  17.556   4.831
 5908W        W67329  16.307  24.528   2.405
 5909W        W67330  20.666  23.183   2.789
 5910W        W67331  14.300  34.012   0.254
 5911W        W67332  23.531  30.491  11.069
 5912W        W67333  21.645  26.697   0.842
 5913W        W67334  17.100  10.269   2.889
 5914W        W67335  40.336  41.910   1.358
 5915W        W67336  44.828  22.997   2.759
 5916W        W67337  42.930  33.875   2.876
 5917W        W67338  36.370  25.505   3.834
 5918W        W67339  16.108  12.630   0.283
 5919W        W67340   1.856  16.247   1.732
 5920W        W67341   5.813  13.322  14.758
 5921W        W67342  43.011  17.124   2.281
 5922W        W67343   9.827  27.009  12.439
 5923W        W67344  41.313  19.078  14.468
 5924W        W67345  37.560  43.351   0.829
 5925W        W67346   1.783   5.873  13.460
 5926W        W67347   0.863  40.845  13.323
 5927W        W67348  20.142   2.946  11.481
 5928W        W67349   6.680  44.790   1.231
 5929W        W67350  34.602  34.032  14.793
 5930W        W67351  12.808  17.559   1.932
 5931W        W67352  19.705   4.790  11.089
 5932W        W67353  36.900  31.530   1.267
 5933W        W67354  40.360  26.971  13.543
 5934W        W67355  39.953   4.254   2.797
 5935W        W67356  28.021  30.536  11.498
 5936W        W67357   3.347  13.698  10.921
 5937W        W67358  17.251   1.273  11.502
 5938W        W67359   0.880  13.120  12.038
 5939W        W67360   6.919  26.081  11.567
 5940W        W67361  27.013   0.794   3.222
 5941W        W67362   2.947  33.121   5.173
 5942W        W67363  16.136  26.070  11.426
 5943W        W67364  13.830  12.741  11.064
 5944W        W67365  22.727   7.669   1.922
 5945W        W67366  13.174  12.198   2.758
 5946W        W67367   5.429  23.071  10.942
 5947W        W67368   1.482  12.227  14.461
 5948W        W67369  36.954   6.400  14.343
 5949W        W67370  44.759  24.216   3.752
 5950W        W67371   2.249  29.125   1.249
 5951W        W67372  29.052   5.284   1.320
 5952W        W67373  22.129  36.357  14.781
 5953W        W67374   5.783   9.294   3.331
 5954W        W67375  31.949  18.245  13.495
 5955W        W67376  27.176  11.151   4.801
 5956W        W67377  18.601  19.728  14.440
 5957W        W67378  40.821  22.040  12.490
 5958W        W67379  25.098  22.218  12.998
 5959W        W67380  21.204  42.441   0.885
 5960W        W67381  43.372  41.535   3.797
 5961W        W67382   8.344  32.493  12.365
 5962W        W67383  21.081  42.846   4.141
 5963W        W67384  20.668  10.197  14.385
 5964W        W67385   9.242  19.147  12.433
 5965W        W67386  24.711  27.605   1.250
 5966W        W67387  27.482  40.832  11.591
 5967W        W67388  31.990  26.566  11.971
 5968W        W67389  23.016  10.770  14.866
 5969W        W67390  39.878  43.792   2.287
 5970W        W67391  29.170   8.310   3.188
 5971W        W67392  42.397  23.593  13.439
 5972W        W67393  37.053   8.274  12.913
 5973W        W67394  29.927   5.417  13.511
 5974W        W67395  20.118  28.032  14.946
 5975W        W67396  40.382  18.763  10.909
 5976W        W67397  11.861  25.665  13.400
 5977W        W67398  24.689  38.827   2.198
 5978W        W67399  34.018  23.627  10.526
 5979W        W67400  38.458  38.558  13.850
 5980W        W67401  14.674  23.179   1.923
 5981W        W67402  29.591  35.424  11.902
 5982W        W67403  39.340  44.816   2.311
 5983W        W67404   7.741   1.897  11.061
 5984W        W67405  22.152  40.320  13.942
 5985W        W67406  12.201   5.722  12.002
 5986W        W67407   8.272   8.753   0.299
 5987W        W67408  37.056  28.168  11.050
 5988W        W67409   1.264  16.268   2.891
 5989W        W67410  19.235  20.098  14.021
 5990W        W67411   4.849  23.594   9.534
 5991W        W67412  37.980   0.901  14.402
 5992W        W67413  22.228   6.768   2.330
 5993W        W67414  33.000   3.909   5.147
 5994W        W67415  38.052  11.836   9.922
 5995W        W67416  13.827  24.534  11.902
 5996W        W67417   6.328  10.652   0.844
 5997W        W67418  41.426   7.720   3.346
 5998W        W67419  32.948  34.484   0.283
 5999W        W67420  13.166  41.005   1.266
 6000W        W67421  41.042   0.929  10.518
 6001W        W67422  21.104  33.398   1.250
 6002W        W67423  12.260  29.017  11.086
 6003W        W67424  36.459  34.013  13.048
 6004W        W67425   9.650  39.429   3.332
 6005W        W67426  25.014  18.280  10.924
 6006W        W67427  41.396  23.196   3.155
 6007W        W67428  27.019  15.747   0.358
 6008W        W67429  19.183  16.173   4.147
 6009W        W67430   5.820  35.017   2.317
 6010W        W67431  42.972   2.258  13.032
 6011W        W67432  40.407  12.842   5.724
 6012W        W67433   0.283  33.886  12.379
 6013W        W67434  25.587   8.877   2.669
 6014W        W67435  21.533  11.223   0.825
 6015W        W67436  14.312   8.834   3.790
 6016W        W67437  11.828   2.289   3.212
 6017W        W67438   8.740  44.762  12.010
 6018W        W67439  10.778  36.850   4.673
 6019W        W67440  20.673  36.349   1.326
 6020W        W67441   5.913  15.251   2.392
 6021W        W67442  10.821  43.340   2.874
 6022W        W67443  38.509  12.119   4.278
 6023W        W67444  26.059  14.590   4.230
 6024W        W67445  23.996   9.778  12.040
 6025W        W67446  27.075  12.709   2.897
 6026W        W67447   2.403  10.142  10.524
 6027W        W67448  22.580  17.223  10.547
 6028W        W67449  21.513   2.241   2.184
 6029W        W67450   7.386   4.307  11.110
 6030W        W67451  41.992   1.332   4.266
 6031W        W67452  18.216  26.190   0.741
 6032W        W67453  39.878  28.003   1.267
 6033W        W67454   3.433  34.543  13.974
 6034W        W67455  42.030   8.794  10.564
 6035W        W67456  12.670  12.630   1.731
 6036W        W67457  42.781   4.730   2.749
 6037W        W67458  28.044  43.936   3.716
 6038W        W67459   2.316   5.921  10.999
 6039W        W67460  15.797  25.170  14.410
 6040W        W67461   8.796  39.880  13.415
 6041W        W67462  34.609  32.119   0.793
 6042W        W67463  10.843   1.345  10.893
 6043W        W67464  15.134  18.701  11.909
 6044W        W67465  34.900  34.506  14.821
 6045W        W67466   5.304  10.677  14.433
 6046W        W67467  22.053  11.150  11.478
 6047W        W67468  42.516   2.820   1.775
 6048W        W67469  22.140  33.071  14.903
 6049W        W67470  40.808  27.127   4.320
 6050W        W67471   1.788  12.172  12.579
 6051W        W67472  12.639  17.160  12.461
 6052W        W67473   0.392  33.914  14.820
 6053W        W67474  13.800  13.805   2.715
 6054W        W67475  44.443  17.760   4.280
 6055W        W67476  16.663  37.960   0.732
 6056W        W67477  24.522  37.078   3.742
 6057W        W67478   0.434  20.268   1.294
 6058W        W67479  38.934  30.444  13.801
 6059W        W67480  37.881  14.330   5.221
 6060W        W67481  14.319  40.005   3.839
 6061W        W67482  36.929  24.144   2.799
 6062W        W67483  22.587  31.926  13.322
 6063W        W67484  18.768  43.422   2.412
 6064W        W67485  27.186  12.744  12.071
 6065W        W67486  44.291   5.926  11.396
 6066W        W67487  34.998  15.722   2.259
 6067W        W67488   3.900  28.117   3.827
 6068W        W67489  32.025   9.226  11.038
 6069W        W67490   5.707  44.282   2.207
 6070W        W67491  29.516  21.572  14.405
 6071W        W67492  42.464  21.738   2.321
 6072W        W67493  10.233  12.211  12.902
 6073W        W67494  40.831  31.128  12.004
 6074W        W67495  27.976  22.677  14.459
 6075W        W67496  31.438  14.332  12.515
 6076W        W67497  31.143  25.553  14.275
 6077W        W67498   4.748   3.324   1.752
 6078W        W67499  16.611  43.484  12.048
 6079W        W67500  18.284  34.587  13.802
 6080W        W67501  21.027   3.439  11.466
 6081W        W67502  36.892   2.848  14.351
 6082W        W67503   5.776   6.301  10.548
 6083W        W67504   4.425  42.310   3.852
 6084W        W67505   8.374  41.836  10.917
 6085W        W67506   0.284  41.474  13.476
 6086W        W67507  27.997  35.384  13.052
 6087W        W67508  34.915  22.025   0.730
 6088W        W67509  41.499  23.019  11.059
 6089W        W67510  36.448  24.506   2.851
 6090W        W67511  15.206  24.221   1.710
 6091W        W67512  17.126  10.857   4.123
 6092W        W67513   6.213  19.180   4.350
 6093W        W67514  37.569  24.073  10.995
 6094W        W67515  41.814   1.867  11.039
 6095W        W67516  42.991  13.197  14.378
 6096W        W67517  30.035  21.552  10.994
 6097W        W67518  33.975  39.912   3.752
 6098W        W67519  19.762  40.847  13.347
 6099W        W67520   0.396  40.036   4.769
 6100W        W67521  29.536  34.894   5.113
 6101W        W67522  36.418   4.443   4.764
 6102W        W67523  41.324  29.584  13.890
 6103W        W67524  42.779  20.582   2.184
 6104W        W67525   2.778   5.816  11.035
 6105W        W67526  44.367  27.676   0.780
 6106W        W67527   0.393  28.936   2.881
 6107W        W67528  17.637  26.646   4.832
 6108W        W67529  37.392   7.263   4.232
 6109W        W67530   1.458   1.897  12.374
 6110W        W67531  42.484  27.630  12.075
 6111W        W67532  11.154  20.670  10.938
 6112W        W67533  11.210   9.888   4.624
 6113W        W67534   9.359   6.359   3.801
 6114W        W67535  31.490   7.891  11.075
 6115W        W67536   1.785  23.639  11.601
 6116W        W67537  15.180  17.241   2.320
 6117W        W67538  11.139  38.551  13.904
 6118W        W67539  43.282  15.138  11.042
 6119W        W67540   3.861  14.186   2.352
 6120W        W67541  43.333   8.270   3.649
 6121W        W67542  33.020   4.387   0.736
 6122W        W67543  14.645  16.782   0.420
 6123W        W67544  25.152  14.132  10.641
 6124W        W67545  20.706  23.659   0.757
 6125W        W67546  13.123  26.470   3.321
 6126W        W67547   5.235  13.640  13.878
 6127W        W67548  23.995  31.028  11.532
 6128W        W67549  27.559  18.731  12.572
 6129W        W67550  12.732   7.248   4.742
 6130W        W67551  35.367   8.879   4.276
 6131W        W67552  28.008  44.937  10.543
 6132W        W67553  39.955  28.148  13.815
 6133W        W67554  40.339  20.252  13.054
 6134W        W67555  27.044   1.403  12.027
 6135W        W67556   7.344  29.056   2.205
 6136W        W67557  39.402   6.811  14.488
 6137W        W67558  19.696  29.926   0.328
 6138W        W67559  15.313  17.170   3.269
 6139W        W67560  40.400   1.259   1.351
 6140W        W67561  20.175  35.076  13.474
 6141W        W67562  11.622  39.937   0.884
 6142W        W67563   7.286  13.302   1.775
 6143W        W67564  23.062  32.139   9.928
 6144W        W67565  42.795  15.691  14.399
 6145W        W67566   5.919  34.463   0.409
 6146W        W67567  20.665  18.283  10.440
 6147W        W67568  25.983  40.323   0.897
 6148W        W67569   2.942  39.985   0.929
 6149W        W67570  30.461  38.396   4.628
 6150W        W67571  13.722  16.787   4.682
 6151W        W67572   1.871  23.013   1.752
 6152W        W67573  19.598   4.715   0.357
 6153W        W67574  15.742  13.665   3.248
 6154W        W67575   0.320  17.167  12.064
 6155W        W67576  43.431  42.945   2.792
 6156W        W67577   5.229   2.945   3.777
 6157W        W67578  12.847  22.573  13.913
 6158W        W67579  10.821  41.472   3.357
 6159W        W67580  17.647   7.229   1.442
 6160W        W67581  12.200  29.065   3.226
 6161W        W67582  25.566  41.811  14.291
 6162W        W67583  35.961  27.643  14.484
 6163W        W67584  14.713  26.184  12.465
 6164W        W67585  21.053  38.954   0.868
 6165W        W67586  27.632  24.055  12.030
 6166W        W67587  20.660  39.979   1.317
 6167W        W67588   9.217  17.673   3.774
 6168W        W67589  17.792  15.714   3.250
 6169W        W67590  29.114  24.593   4.147
 6170W        W67591  37.473  26.185   0.460
 6171W        W67592  37.841  12.123  13.018
 6172W        W67593  21.047  31.504   2.362
 6173W        W67594  44.384  38.426   3.336
 6174W        W67595  28.952   3.934   0.913
 6175W        W67596  28.560  21.665  12.409
 6176W        W67597  33.391   3.370   2.215
 6177W        W67598  23.027  39.547   2.822
 6178W        W67599   7.310  32.494   2.807
 6179W        W67600  43.782  18.716   2.667
 6180W        W67601  23.506  43.375  12.898
 6181W        W67602  34.043  44.344  14.333
 6182W        W67603  32.089  11.168   2.226
 6183W        W67604  11.676  10.301   0.967
 6184W        W67605  24.599  30.055   4.736
 6185W        W67606  12.329  39.930   1.796
 6186W        W67607  19.076   1.435  14.336
 6187W        W67608  33.611  17.096   5.135
 6188W        W67609  29.460  14.742  12.488
 6189W        W67610   4.807  40.907   4.335
 6190W        W67611   2.395  11.761  13.424
 6191W        W67612   2.759  23.677  12.450
 6192W        W67613  17.768  39.410  10.431
 6193W        W67614  28.009  29.569   0.296
 6194W        W67615   7.816   1.246  10.911
 6195W        W67616  25.608   6.236  14.802
 6196W        W67617  13.738  34.573   2.344
 6197W        W67618  17.254   6.777  10.919
 6198W        W67619   7.757   4.902  11.934
 6199W        W67620  41.990  30.458  13.356
 6200W        W67621   8.289  24.574   2.704
 6201W        W67622  42.465  13.719   3.148
 6202W        W67623  31.966   0.754  11.931
 6203W        W67624   7.763  27.574  11.882
 6204W        W67625  18.243  26.981   2.315
 6205W        W67626  33.972  13.133   4.634
 6206W        W67627   0.859  10.680   3.286
 6207W        W67628  12.678  22.107  14.423
 6208W        W67629  23.197  18.627   1.404
 6209W        W67630  24.218   8.241   1.342
 6210W        W67631   8.853  18.691   3.271
 6211W        W67632  12.281  43.825  13.923
 6212W        W67633  14.723  34.954  14.816
 6213W        W67634  31.621  38.352  12.036
 6214W        W67635  37.021   6.273   0.270
 6215W        W67636  35.436  38.880   2.804
 6216W        W67637  25.157   4.789   3.862
 6217W        W67638  22.636  24.608   4.192
 6218W        W67639   0.984  13.661   4.714
 6219W        W67640  15.142  34.594  12.956
 6220W        W67641  35.863  18.670  12.503
 6221W        W67642  17.565  19.047  11.515
 6222W        W67643  40.380  26.153   3.213
 6223W        W67644  32.483   9.361   0.855
 6224W        W67645  17.221  12.726  13.887
 6225W        W67646   3.215  22.104   3.327
 6226W        W67647  42.320  27.583  13.925
 6227W        W67648  21.603  29.016   0.276
 6228W        W67649   3.461  30.030   4.723
 6229W        W67650  18.734  10.760   4.227
 6230W        W67651   7.692  34.439   3.215
 6231W        W67652  25.978  37.355   3.760
 6232W        W67653  43.914  14.703   0.893
 6233W        W67654  29.607  39.526   4.129
 6234W        W67655  41.841  16.173  13.431
 6235W        W67656   7.723  17.112  14.989
 6236W        W67657   8.331   6.216   4.646
 6237W        W67658   6.855  21.051   0.442
 6238W        W67659  33.016  41.936   2.848
 6239W        W67660  20.703  20.119   3.317
 6240W        W67661   8.659  27.495  14.828
 6241W        W67662  44.395   4.724   3.375
 6242W        W67663  38.047   1.863   4.119
 6243W        W67664   2.740   7.816  13.997
 6244W        W67665  31.606  36.463   2.812
 6245W        W67666  22.660  20.036   3.772
 6246W        W67667  20.558  11.152   4.803
 6247W        W67668  19.159   5.782  10.583
 6248W        W67669  15.235  30.453  10.029
 6249W        W67670  31.579  24.221   2.824
 6250W        W67671  35.438  30.016  13.364
 6251W        W67672  24.122  13.195   4.209
 6252W        W67673  44.473  13.248   2.681
 6253W        W67674  35.477  29.656  14.006
 6254W        W67675  42.337  37.849  12.347
 6255W        W67676  20.137  38.862  14.361
 6256W        W67677  28.155  41.041   4.142
 6257W        W67678  41.460  44.914  12.006
 6258W        W67679   2.741  40.902  10.975
 6259W        W67680  19.043  13.351  11.128
 6260W        W67681  27.045  34.033  10.944
 6261W        W67682   3.761  25.621   3.241
 6262W        W67683  28.576  17.739  10.484
 6263W        W67684  37.080   6.746  14.976
 6264W        W67685   7.763  34.894   4.824
 6265W        W67686  32.518  43.851  10.585
 6266W        W67687  15.300  13.618  14.790
 6267W        W67688   2.924  32.054  12.958
 6268W        W67689  13.623   5.406  12.975
 6269W        W67690   8.781  39.532  13.857
 6270W        W67691  41.881  12.754   3.636
 6271W        W67692  23.560   9.250   4.302
 6272W        W67693   7.172   4.206  13.909
 6273W        W67694   2.868  34.408   1.856
 6274W        W67695  42.519  30.590   1.757
 6275W        W67696  44.313  23.552  13.040
 6276W        W67697  13.647  32.003   4.186
 6277W        W67698  13.619  10.347  12.532
 6278W        W67699  17.788  31.052  11.486
 6279W        W67700  43.772   4.422  11.964
 6280W        W67701  31.405  25.033   1.822
 6281W        W67702  25.634  28.634  14.296
 6282W        W67703  37.077   8.804   3.867
 6283W        W67704  27.972  22.599   5.269
 6284W        W67705  44.960   1.272  12.029
 6285W        W67706   2.325   9.370  10.481
 6286W        W67707  23.194  29.562  14.028
 6287W        W67708  24.148  28.978   0.427
 6288W        W67709  20.555  17.218  14.959
 6289W        W67710  13.795  32.956   4.230
 6290W        W67711  32.456  23.680  11.461
 6291W        W67712  20.658   2.450  11.899
 6292W        W67713   1.286  28.566  11.389
 6293W        W67714  21.560  27.579   4.745
 6294W        W67715  36.086  36.039  14.385
 6295W        W67716  16.800  13.741   3.349
 6296W        W67717  31.530  15.238  14.936
 6297W        W67718   3.426  16.097  14.388
 6298W        W67719   3.433   1.343   0.380
 6299W        W67720  15.309  24.483  11.115
 6300W        W67721  44.442  21.052   3.151
 6301W        W67722  43.940  38.540  14.350
 6302W        W67723   5.306  23.985  12.543
 6303W        W67724   5.229  27.548   2.672
 6304W        W67725  12.775  29.474  12.087
 6305W        W67726  11.159  37.508   3.775
 6306W        W67727  24.645  44.980   0.778
 6307W        W67728  15.176  28.108   1.908
 6308W        W67729  26.047  21.583   1.351
 6309W        W67730  13.255   3.910  10.555
 6310W        W67731  10.342   3.725  12.054
 6311W        W67732   9.255  23.715   2.734
 6312W        W67733   1.368  39.486  11.109
 6313W        W67734  37.391  30.060   4.207
 6314W        W67735  16.259  12.168   0.453
 6315W        W67736  40.443   4.306   1.793
 6316W        W67737  44.880   2.290  13.535
 6317W        W67738  20.207  40.501   2.836
 6318W        W67739  43.449   4.259   4.630
 6319W        W67740  23.120  36.563  11.469
 6320W        W67741  44.862  30.511   0.929
 6321W        W67742  19.062   2.782  12.443
 6322W        W67743  21.102  19.158   1.437
 6323W        W67744  15.691   0.921  14.943
 6324W        W67745  30.142  35.897   3.675
 6325W        W67746   0.762  10.323  12.477
 6326W        W67747  17.220  30.126  14.954
 6327W        W67748  25.051  44.802  13.403
 6328W        W67749  29.078  26.509   4.308
 6329W        W67750  41.947  31.937   3.236
 6330W        W67751  33.598  18.568   1.859
 6331W        W67752  24.179  29.128   3.286
 6332W        W67753  20.240  23.646   4.324
 6333W        W67754  30.534  10.713   3.749
 6334W        W67755  19.042  33.062  13.793
 6335W        W67756  17.249  10.822  12.022
 6336W        W67757  30.487  38.857   1.289
 6337W        W67758   6.257  41.920   0.468
 6338W        W67759  12.744  11.722   4.787
 6339W        W67760   7.249   7.666  13.527
 6340W        W67761  40.523  31.000   0.432
 6341W        W67762  16.200   5.242   4.163
 6342W        W67763  34.887  37.087  12.579
 6343W        W67764  26.651  20.568   2.777
 6344W        W67765  29.499   2.391   2.817
 6345W        W67766  41.440  14.229  13.336
 6346W        W67767  28.670   1.445  11.569
 6347W        W67768  18.545  13.277   9.933
 6348W        W67769  19.054   4.798  14.018
 6349W        W67770  34.589  24.688   1.362
 6350W        W67771  29.630  35.551   1.794
 6351W        W67772  17.703   0.261  11.876
 6352W        W67773  15.712   2.415   1.906
 6353W        W67774  10.798   7.329  10.467
 6354W        W67775  36.893  17.068   2.781
 6355W        W67776  34.061  15.602  14.969
 6356W        W67777  13.746   8.744  13.481
 6357W        W67778  43.486  36.593   1.704
 6358W        W67779  31.546  22.115  12.093
 6359W        W67780  20.568   6.916   1.839
 6360W        W67781   1.908   0.954   3.245
 6361W        W67782  24.028  22.133   0.278
 6362W        W67783  14.271  38.923   1.785
 6363W        W67784  42.506   8.253  10.430
 6364W        W67785   2.925  28.672  12.561
 6365W        W67786  31.065  38.455   1.268
 6366W        W67787  12.744  26.550  14.896
 6367W        W67788  36.851  36.372   4.147
 6368W        W67789  20.179  15.132   2.703
 6369W        W67790  20.265   9.286  11.065
 6370W        W67791  18.086  44.405   0.732
 6371W        W67792  41.451  12.342  13.499
 6372W        W67793  22.704   4.823   4.603
 6373W        W67794  43.349  12.703  13.428
 6374W        W67795  21.577   2.796  12.867
 6375W        W67796   1.447  29.594  14.512
 6376W        W67797  21.697  16.257  14.307
 6377W        W67798   2.967   4.358  11.485
 6378W        W67799  38.516  10.831   4.687
 6379W        W67800   0.275  13.273   2.357
 6380W        W67801  31.928  12.336  13.505
 6381W        W67802  10.668  35.997  14.888
 6382W        W67803  35.378   1.889  12.544
 6383W        W67804  40.448  21.043   0.448
 6384W        W67805  34.968  22.017  13.326
 6385W        W67806  35.094  31.605  13.915
 6386W        W67807  10.184   3.343  10.983
 6387W        W67808  44.951  29.068  14.826
 6388W        W67809  35.461   5.914  12.561
 6389W        W67810  29.145  17.103   2.326
 6390W        W67811  17.089  23.028   3.177
 6391W        W67812   2.740  12.614  14.290
 6392W        W67813  38.434  13.682   5.655
 6393W        W67814  25.038  15.760   0.765
 6394W        W67815  28.977  38.400   3.670
 6395W        W67816  14.720  28.532   1.801
 6396W        W67817  16.698  24.556   4.274
 6397W        W67818  22.189  27.112   3.731
 6398W        W67819  18.771   4.829  14.953
 6399W        W67820  38.365   1.411  12.451
 6400W        W67821  18.747  10.357  14.835
 6401W        W67822  16.711   7.207  12.990
 6402W        W67823  17.093  34.927  14.416
 6403W        W67824  22.704   2.807  12.470
 6404W        W67825  20.186  21.584  12.378
 6405W        W67826  23.013  19.724   4.354
 6406W        W67827  27.119  42.306  11.116
 6407W        W67828  13.839   4.300   3.792
 6408W        W67829  10.806  16.152   0.333
 6409W        W67830  30.981  41.805  14.917
 6410W        W67831   2.957  37.935   3.747
 6411W        W67832   7.788  42.292  12.825
 6412W        W67833  20.028   7.795   5.153
 6413W        W67834  12.663  41.981   3.773
 6414W        W67835  36.084  40.971   2.220
 6415W        W67836  36.002  39.344  10.409
 6416W        W67837   0.427  10.643  12.556
 6417W        W67838  28.582  41.970   4.116
 6418W        W67839  27.030  44.311   0.793
 6419W        W67840  31.008  20.634   2.279
 6420W        W67841  10.258  18.263  10.970
 6421W        W67842  36.459   5.193  10.105
 6422W        W67843  35.003  29.113  10.634
 6423W        W67844  29.007   1.790  12.971
 6424W        W67845  29.494  43.918   3.778
 6425W        W67846  29.118  42.819  10.913
 6426W        W67847  44.462  23.622   0.258
 6427W        W67848  42.795  26.662  11.082
 6428W        W67849  26.502   0.819  13.958
 6429W        W67850  16.719  22.067   1.402
 6430W        W67851  31.431   0.804   4.197
 6431W        W67852   4.403  10.660   2.218
 6432W        W67853  15.624   6.896   2.316
 6433W        W67854  12.222  11.136  12.558
 6434W        W67855   6.365  36.472  14.439
 6435W        W67856  13.606  11.718  13.902
 6436W        W67857  25.696   3.878   4.133
 6437W        W67858  36.034   2.958  11.878
 6438W        W67859   0.296  42.846  12.392
 6439W        W67860  14.733  23.492  10.574
 6440W        W67861   0.370  30.498   3.732
 6441W        W67862  25.705   8.694   0.782
 6442W        W67863  38.050  44.761   2.860
 6443W        W67864  33.968  40.509   0.854
 6444W        W67865  26.702  39.545  12.891
 6445W        W67866  24.110   1.455   3.364
 6446W        W67867  36.896  27.474  12.342
 6447W        W67868  15.169  13.341  14.811
 6448W        W67869  22.683   1.276   1.406
 6449W        W67870  30.132  38.373  12.507
 6450W        W67871   7.340   6.363  10.941
 6451W        W67872   5.233  17.702   3.257
 6452W        W67873  41.346   7.208  13.401
 6453W        W67874  28.466  17.123   4.313
 6454W        W67875  13.622  20.167   1.857
 6455W        W67876   2.453  18.199  13.856
 6456W        W67877  37.994   9.796  14.508
 6457W        W67878  33.909  11.809   2.700
 6458W        W67879   5.377  31.083  14.381
 6459W        W67880   5.233  18.602   3.239
 6460W        W67881  32.957  22.170   4.213
 6461W        W67882  13.610  17.631  12.483
 6462W        W67883   0.883  17.778   3.649
 6463W        W67884  13.281  26.565   1.250
 6464W        W67885   4.829  11.127  13.977
 6465W        W67886  29.524   2.950   1.758
 6466W        W67887  18.108   4.245  14.415
 6467W        W67888  22.043  32.091  13.845
 6468W        W67889  31.107  17.228  14.915
 6469W        W67890  39.857  42.863  12.903
 6470W        W67891  42.941  15.185  10.523
 6471W        W67892   6.687  31.434   1.926
 6472W        W67893  35.947  22.623   4.291
 6473W        W67894   5.869   9.684   3.744
 6474W        W67895  29.586  34.613  12.344
 6475W        W67896  34.545  22.549  10.616
 6476W        W67897  15.112  11.324  11.984
 6477W        W67898  23.025   7.363   1.763
 6478W        W67899  11.134  24.681   1.239
 6479W        W67900  21.651  15.741  11.392
 6480W        W67901  37.019   2.258   1.275
 6481W        W67902   9.694  24.014   4.161
 6482W        W67903  40.424  33.426   1.369
 6483W        W67904   0.480  32.517   1.865
 6484W        W67905  29.442  37.992   3.386
 6485W        W67906   0.925  10.226   1.738
 6486W        W67907  31.149  17.632   3.662
 6487W        W67908  43.493  14.605  10.953
 6488W        W67909   4.764  40.393  14.321
 6489W        W67910  11.757  14.763  10.983
 6490W        W67911   3.872  28.999  10.920
 6491W        W67912   4.384   3.715   2.346
 6492W        W67913   1.363  27.535   9.931
 6493W        W67914  44.992  11.750  13.878
 6494W        W67915  24.715  34.396   0.878
 6495W        W67916  24.521  37.337  10.518
 6496W        W67917  10.302  29.658   2.241
 6497W        W67918  42.775  40.519  10.617
 6498W        W67919  38.453   5.416   4.311
 6499W        W67920   8.252   4.239   3.305
 6500W        W67921  22.212  14.265  11.592
 6501W        W67922  20.180  24.031  11.572
 6502W        W67923  38.527  12.143   3.633
 6503W        W67924  21.195  29.026  13.322
 6504W        W67925  11.764  41.926   3.752
 6505W        W67926   9.809  18.065  10.492
 6506W        W67927  13.730  22.032   4.608
 6507W        W67928   8.702   9.770   4.177
 6508W        W67929  20.652  10.810  13.011
 6509W        W67930  42.525  39.990   1.237
 6510W        W67931  14.710   8.272  10.907
 6511W        W67932  17.092  19.045   1.881
 6512W        W67933  38.515  24.088   2.181
 6513W        W67934   9.869  39.320   1.328
 6514W        W67935  40.047  22.520  13.942
 6515W        W67936  39.500  17.247  10.927
 6516W        W67937  32.491  39.362   2.667
 6517W        W67938  19.737   0.846   0.276
 6518W        W67939  19.177   1.926   3.769
 6519W        W67940  17.581  25.655   3.197
 6520W        W67941  43.283  37.004   0.459
 6521W        W67942  36.364   3.345   1.352
 6522W        W67943  18.570  34.986   4.722
 6523W        W67944   3.353   9.781   0.793
 6524W        W67945  30.146   9.693  14.399
 6525W        W67946  19.582  18.117   0.848
 6526W        W67947   2.781  10.822   2.220
 6527W        W67948  17.578  13.664  10.105
 6528W        W67949  27.006  16.571   0.273
 6529W        W67950  33.613  24.139  14.334
 6530W        W67951  13.276  37.353  12.019
 6531W        W67952  10.725   3.790  11.101
 6532W        W67953  34.105  28.667   2.409
 6533W        W67954  41.509  44.864  12.963
 6534W        W67955  26.668  10.255   1.772
 6535W        W67956  44.338  17.289  12.498
 6536W        W67957   2.430  39.425   4.285
 6537W        W67958   0.850   3.956  11.942
 6538W        W67959   3.256  24.996   3.310
 6539W        W67960  38.881  20.718  12.024
 6540W        W67961  22.096  31.602   3.236
 6541W        W67962  31.552  34.923   3.220
 6542W        W67963  38.009   4.393   1.239
 6543W        W67964  41.847  21.043   4.243
 6544W        W67965  24.704  27.585  11.421
 6545W        W67966  17.798   7.785   0.293
 6546W        W67967  40.468  17.626  10.632
 6547W        W67968  14.665  26.567  13.809
 6548W        W67969   9.349  38.983  13.968
 6549W        W67970  44.384  23.014  11.441
 6550W        W67971  11.707   3.284  12.440
 6551W        W67972  36.500  19.725  13.523
 6552W        W67973  25.175  23.615   3.185
 6553W        W67974   6.706  12.628  12.083
 6554W        W67975  15.193  25.165   1.821
 6555W        W67976  40.457  39.850  11.450
 6556W        W67977  35.597  21.147   3.220
 6557W        W67978  40.840  12.154  11.000
 6558W        W67979  39.478  20.591   2.213
 6559W        W67980  10.330  18.720   4.232
 6560W        W67981  36.946  27.531   4.772
 6561W        W67982  43.884  39.893   1.379
 6562W        W67983   6.420   6.739  14.874
 6563W        W67984  13.695  21.176   1.732
 6564W        W67985  43.773  38.987   2.229
 6565W        W67986  32.053  42.308  12.468
 6566W        W67987   7.397  41.316   2.192
 6567W        W67988  14.252   0.464  11.509
 6568W        W67989  36.893   8.186  14.383
 6569W        W67990   7.737  38.019  14.463
 6570W        W67991   0.308   4.348  11.945
 6571W        W67992  37.481  14.645   4.163
 6572W        W67993  44.872   9.835   1.830
 6573W        W67994  20.666   3.319  11.452
 6574W        W67995  43.315  32.977   0.306
 6575W        W67996  35.882  13.820   0.965
 6576W        W67997  31.512  26.530   4.299
 6577W        W67998   5.410  34.535   4.821
 6578W        W67999  37.895   7.854   4.706
 6579W        W68000  15.645  12.129  11.525
 6580W        W68001  34.933  30.157   1.797
 6581W        W68002  44.956  13.732   4.296
 6582W        W68003   3.310  13.778   1.872
 6583W        W68004  29.131   5.776  13.434
 6584W        W68005  22.561   6.890   9.638
 6585W        W68006  30.570  16.797   4.253
 6586W        W68007  36.525  18.774  10.524
 6587W        W68008  15.791  18.651  13.328
 6588W        W68009  10.155  20.229   1.778
 6589W        W68010   1.907  39.032   4.760
 6590W        W68011  30.505  20.612   3.671
 6591W        W68012   0.817  12.179   2.385
 6592W        W68013   0.929  16.700   2.253
 6593W        W68014  19.196   5.923   0.308
 6594W        W68015  11.301   8.669   4.119
 6595W        W68016  16.167   5.335   0.913
 6596W        W68017  38.441  24.106   0.832
 6597W        W68018  42.992   1.426  12.544
 6598W        W68019  27.521  43.779  11.082
 6599W        W68020  28.987  40.945   4.822
 6600W        W68021  30.967  35.503   1.333
 6601W        W68022  44.825   8.387  14.446
 6602W        W68023  24.055  31.631  14.780
 6603W        W68024  43.493  19.283   4.818
 6604W        W68025  20.170  10.158   5.112
 6605W        W68026   7.197  17.205   4.228
 6606W        W68027  18.567  32.399  10.947
 6607W        W68028  34.570  41.446   4.755
 6608W        W68029  31.953  38.900   2.382
 6609W        W68030  20.524  24.984   2.813
 6610W        W68031  25.097   1.856   4.306
 6611W        W68032   4.408  41.952  13.358
 6612W        W68033  29.578  18.247   2.180
 6613W        W68034  29.564  17.734   4.716
 6614W        W68035  42.487  17.105  10.591
 6615W        W68036   1.250   1.907  10.127
 6616W        W68037  24.974  15.822   2.736
 6617W        W68038  37.553  29.534  12.027
 6618W        W68039  39.023  13.297   2.832
 6619W        W68040   2.723   0.984  14.783
 6620W        W68041   6.809   4.878  13.532
 6621W        W68042  32.478  44.368   2.668
 6622W        W68043  42.363  36.875   4.327
 6623W        W68044  22.096  18.544  10.622
 6624W        W68045  30.042  26.958  14.347
 6625W        W68046  14.822  23.989  14.791
 6626W        W68047   3.837  28.094  11.406
 6627W        W68048  17.673  11.791  14.007
 6628W        W68049  10.798  36.912   3.752
 6629W        W68050  10.221  41.003   4.761
 6630W        W68051  25.559  17.169  14.873
 6631W        W68052  42.464   8.212   0.879
 6632W        W68053  29.610  26.178  11.570
 6633W        W68054  33.052  23.657   1.871
 6634W        W68055  34.091   5.362   0.795
 6635W        W68056  33.917  24.174  14.997
 6636W        W68057  40.021  32.549  14.337
 6637W        W68058  34.497   3.460   3.662
 6638W        W68059  40.805  29.035   1.346
 6639W        W68060   5.833   7.393  14.458
 6640W        W68061  26.026  10.240  13.954
 6641W        W68062  24.544   9.813   1.235
 6642W        W68063  18.224  24.630  13.328
 6643W        W68064   0.409  43.353  11.102
 6644W        W68065  30.495  29.601   1.309
 6645W        W68066  35.593   0.911  11.884
 6646W        W68067  36.450  14.341  14.437
 6647W        W68068  25.468  36.408  13.480
 6648W        W68069  16.722  35.498  10.567
 6649W        W68070  10.292   5.869   1.239
 6650W        W68071   3.951  20.733  11.938
 6651W        W68072  15.091  44.496   3.188
 6652W        W68073   3.382  31.062   3.724
 6653W        W68074   9.205  25.499  10.524
 6654W        W68075  35.528  23.106   1.778
 6655W        W68076  42.317  38.928  13.817
 6656W        W68077  13.739   7.815   0.373
 6657W        W68078  12.826  23.692  11.946
 6658W        W68079  36.862  35.102   4.778
 6659W        W68080  38.006   3.327   4.751
 6660W        W68081  31.498   8.899  14.767
 6661W        W68082  37.832  38.072   3.811
 6662W        W68083  14.294  41.028  13.827
 6663W        W68084  25.987   7.344   3.633
 6664W        W68085  42.319  41.862  14.419
 6665W        W68086  33.463  17.734   4.323
 6666W        W68087   2.756  25.646  14.287
 6667W        W68088  11.266   5.303   3.824
 6668W        W68089  36.581   9.757  11.481
 6669W        W68090   9.666  11.666   3.275
 6670W        W68091  19.751  26.054   0.898
 6671W        W68092  19.629  41.800  11.505
 6672W        W68093   4.359  20.597   2.783
 6673W        W68094  29.029  15.315   4.245
 6674W        W68095  24.681   5.749   1.319
 6675W        W68096  23.547   9.820  13.977
 6676W        W68097  32.565  33.451   0.313
 6677W        W68098  20.219  27.505  11.585
 6678W        W68099   4.239  29.149  12.492
 6679W        W68100  37.557  18.133  10.938
 6680W        W68101  31.946  14.804   2.693
 6681W        W68102   5.374  26.482  13.791
 6682W        W68103  16.567  31.972  10.476
 6683W        W68104  32.616  43.816   3.297
 6684W        W68105  26.010   5.748  13.017
 6685W        W68106  14.746   6.251  11.469
 6686W        W68107  23.070   0.900  13.916
 6687W        W68108  33.882  27.096   3.707
 6688W        W68109  15.272   3.359  12.960
 6689W        W68110  23.108  34.394  14.493
 6690W        W68111   7.226  38.553   0.826
 6691W        W68112   8.899  11.242  11.067
 6692W        W68113  40.428   8.665   5.150
 6693W        W68114  20.253  15.088   0.462
 6694W        W68115  38.843   2.817  11.942
 6695W        W68116  40.895  37.894   3.785
 6696W        W68117  44.292  36.854   1.220
 6697W        W68118  17.229  33.397   3.352
 6698W        W68119   3.344  12.614   3.376
 6699W        W68120  11.334  24.600   3.177
 6700W        W68121  11.237  25.141  10.577
 6701W        W68122  20.567  22.080   0.417
 6702W        W68123  24.535  44.387  12.911
 6703W        W68124  32.458  33.439  14.832
 6704W        W68125   2.272   4.899  14.336
 6705W        W68126  30.486  39.921  13.467
 6706W        W68127  23.693  20.033   1.907
 6707W        W68128  23.102   5.909   3.745
 6708W        W68129  23.608  25.126   1.810
 6709W        W68130  44.408   0.762   1.279
 6710W        W68131   1.296  38.374   0.299
 6711W        W68132   8.819   0.280  12.861
 6712W        W68133  41.293  25.147  11.542
 6713W        W68134  40.877  11.341  13.460
 6714W        W68135  34.877  34.907   1.885
 6715W        W68136  27.467  13.343  10.506
 6716W        W68137  39.854  44.815   0.278
 6717W        W68138   8.212  44.926  11.976
 6718W        W68139  32.559  33.529  10.100
 6719W        W68140  22.607  15.661  13.320
 6720W        W68141  17.624  41.469  13.024
 6721W        W68142   6.923  13.109   0.349
 6722W        W68143  36.900  31.956  14.853
 6723W        W68144   7.185  15.164  14.822
 6724W        W68145   0.861  40.411   0.779
 6725W        W68146  42.821  43.931  10.501
 6726W        W68147  37.934   5.930  11.533
 6727W        W68148  16.789  14.140  10.999
 6728W        W68149  34.442  23.128  12.431
 6729W        W68150  44.979  22.082  13.912
 6730W        W68151  41.863  34.545   0.758
 6731W        W68152  13.787  42.985  11.585
 6732W        W68153  27.157  42.814   5.269
 6733W        W68154  20.709  27.662   4.348
 6734W        W68155  42.836  31.548  13.908
 6735W        W68156  20.608   0.870   2.854
 6736W        W68157  36.943  21.097   4.141
 6737W        W68158   2.870  33.393   4.353
 6738W        W68159  36.959  14.742   2.285
 6739W        W68160  25.618   0.767   5.176
 6740W        W68161  12.684  24.562   1.854
 6741W        W68162   4.223  36.533   1.294
 6742W        W68163  18.158   2.396   3.823
 6743W        W68164  19.063  37.436   0.313
 6744W        W68165  18.657   5.704   1.863
 6745W        W68166  15.098  17.562   0.370
 6746W        W68167  31.043  15.684   3.263
 6747W        W68168   2.282  36.973   0.263
 6748W        W68169  29.998  25.079  10.990
 6749W        W68170   9.838  17.780   4.787
 6750W        W68171  36.460  16.096   3.196
 6751W        W68172  30.619   0.764   2.225
 6752W        W68173  19.084  22.591   3.222
 6753W        W68174  24.668  36.472   2.396
 6754W        W68175  31.032   5.428   1.775
 6755W        W68176  37.363  29.524  14.853
 6756W        W68177  39.539  11.747  12.432
 6757W        W68178  16.157  40.948  12.986
 6758W        W68179  11.700  29.597   2.258
 6759W        W68180  11.293  20.092   3.313
 6760W        W68181  23.731  43.778   1.788
 6761W        W68182  21.624  14.704   1.317
 6762W        W68183  15.781  15.281  13.006
 6763W        W68184  23.100   3.333   2.190
 6764W        W68185  14.643  14.235  10.927
 6765W        W68186  14.333  42.283   4.252
 6766W        W68187  33.052  15.770  12.560
 6767W        W68188  32.124  30.569  12.918
 6768W        W68189   9.693  31.937  13.034
 6769W        W68190  31.972   4.410   4.789
 6770W        W68191  39.975   7.346  12.392
 6771W        W68192  10.807   1.433   0.287
 6772W        W68193  36.568  39.393  11.383
 6773W        W68194  43.832  10.251  14.898
 6774W        W68195  37.980  33.039   1.259
 6775W        W68196  36.410  27.524   4.717
 6776W        W68197  27.480   6.866  11.035
 6777W        W68198  38.429   7.174  10.975
 6778W        W68199  42.321  21.562  12.415
 6779W        W68200  39.389  26.006  11.989
 6780W        W68201  37.055  34.948  11.507
 6781W        W68202  30.553  20.537  11.407
 6782W        W68203  42.306  24.998   2.351
 6783W        W68204  22.223  16.661   1.753
 6784W        W68205  36.930   5.700   3.291
 6785W        W68206   0.782  14.824   1.433
 6786W        W68207  13.834  26.136  11.112
 6787W        W68208  39.883  10.301  11.877
 6788W        W68209  29.974  17.749  13.979
 6789W        W68210  31.412  40.899   0.811
 6790W        W68211  38.501   9.232   0.372
 6791W        W68212  32.532   5.393   2.845
 6792W        W68213  25.001  21.105   3.818
 6793W        W68214  16.304  14.311  11.093
 6794W        W68215  43.968  20.673   2.672
 6795W        W68216  39.514  24.605   1.311
 6796W        W68217  20.257  14.750   0.841
 6797W        W68218  13.252   9.802   1.774
 6798W        W68219  30.960  24.639  12.013
 6799W        W68220  28.017  30.418   1.366
 6800W        W68221   0.861  31.580  12.521
 6801W        W68222   3.430  37.477   2.793
 6802W        W68223  11.151  36.352   1.257
 6803W        W68224  15.322  17.708   4.795
 6804W        W68225  18.727   1.400  11.419
 6805W        W68226   2.828  43.440   2.701
 6806W        W68227   8.368  10.794   0.403
 6807W        W68228   9.331  31.145   1.275
 6808W        W68229  26.991  33.406  12.435
 6809W        W68230  16.746  26.640  13.499
 6810W        W68231   1.797  20.604  11.029
 6811W        W68232  43.850  38.494  13.331
 6812W        W68233  32.952  40.332  13.951
 6813W        W68234  35.499   9.680  11.861
 6814W        W68235  15.629   9.704  12.910
 6815W        W68236   2.938   7.709   4.160
 6816W        W68237  38.877  44.933  10.080
 6817W        W68238  24.661  25.587  13.434
 6818W        W68239  23.490   8.738  12.475
 6819W        W68240  21.669  40.872   0.958
 6820W        W68241   7.186   4.847   3.727
 6821W        W68242  24.583  41.882  14.352
 6822W        W68243  10.678  16.618  12.829
 6823W        W68244  41.899  21.210  14.864
 6824W        W68245   2.276  38.423   2.726
 6825W        W68246  30.933  25.979   4.338
 6826W        W68247  41.787  18.190  11.586
 6827W        W68248   6.829  15.693  11.612
 6828W        W68249  30.555  11.159  14.496
 6829W        W68250  36.473  30.052  13.383
 6830W        W68251   4.938  32.021  13.950
 6831W        W68252  21.646  11.860  11.381
 6832W        W68253  40.946  38.548  11.426
 6833W        W68254  18.555  11.145   0.454
 6834W        W68255  44.314  27.628   0.379
 6835W        W68256  20.733  18.594   1.223
 6836W        W68257  38.505  44.842   2.355
 6837W        W68258  42.483  40.884   2.215
 6838W        W68259  27.683  44.371   0.872
 6839W        W68260  21.682  21.095   1.767
 6840W        W68261   9.729  25.039   0.280
 6841W        W68262  18.618  40.023  12.933
 6842W        W68263  23.592  10.825  10.612
 6843W        W68264  18.075  42.461  10.636
 6844W        W68265  10.374  11.765   5.231
 6845W        W68266  22.220  36.590  10.991
 6846W        W68267  22.696   1.963  12.555
 6847W        W68268   9.356  15.240  14.479
 6848W        W68269  16.244  39.522  12.837
 6849W        W68270  12.243  30.109  12.059
 6850W        W68271  31.445  12.129  11.557
 6851W        W68272  15.587  26.126  12.883
 6852W        W68273  31.126  39.480  14.762
 6853W        W68274  36.869  38.402   0.900
 6854W        W68275  26.645   4.726  10.989
 6855W        W68276  28.550   0.280  11.115
 6856W        W68277  39.065   8.186   3.802
 6857W        W68278  26.613  18.137   4.197
 6858W        W68279   8.895  34.577   4.272
 6859W        W68280  15.688  27.052  12.575
 6860W        W68281  24.645  23.996   4.141
 6861W        W68282  24.723   4.919   1.253
 6862W        W68283  44.426  32.594  14.867
 6863W        W68284  13.686   1.788  12.564
 6864W        W68285  21.542  30.961  13.887
 6865W        W68286  43.769  11.819  10.414
 6866W        W68287  27.106  27.494  11.487
 6867W        W68288   0.785  44.399   4.206
 6868W        W68289  27.174  17.582  12.892
 6869W        W68290   1.312  15.803  13.445
 6870W        W68291  27.508  12.273  11.525
 6871W        W68292  29.617  25.512  13.348
 6872W        W68293  31.111  26.694  11.488
 6873W        W68294   9.300  29.083   3.333
 6874W        W68295  21.155  15.202  13.013
 6875W        W68296  43.990  34.961  10.494
 6876W        W68297  37.370  41.340  13.541
 6877W        W68298   0.752  18.612  12.554
 6878W        W68299  32.464   8.177  10.459
 6879W        W68300  40.958  10.795   5.151
 6880W        W68301   9.265  39.871   1.450
 6881W        W68302  34.463  34.119  10.517
 6882W        W68303   5.721  34.524   3.834
 6883W        W68304   0.466  17.085   3.648
 6884W        W68305   2.249  10.182   2.368
 6885W        W68306  36.397   0.963   4.122
 6886W        W68307  10.241  18.158   4.708
 6887W        W68308  38.955  21.102  14.495
 6888W        W68309  20.526  17.566  12.879
 6889W        W68310  31.471  35.459   0.303
 6890W        W68311  39.357  18.167  10.446
 6891W        W68312  42.461  36.468  12.981
 6892W        W68313  39.350  42.385   4.738
 6893W        W68314   7.277  26.482  14.339
 6894W        W68315  13.726  13.334  10.564
 6895W        W68316  29.567  39.859   1.314
 6896W        W68317  25.145  33.932   3.384
 6897W        W68318  18.108  13.718  12.375
 6898W        W68319  35.506  22.145   4.330
 6899W        W68320  27.962  15.650   3.784
 6900W        W68321  44.479  37.381  14.800
 6901W        W68322  44.823   2.906   0.890
 6902W        W68323  12.693  19.550   3.737
 6903W        W68324  31.909  28.946  14.896
 6904W        W68325  34.441  19.780   1.282
 6905W        W68326  19.274  35.929   4.219
 6906W        W68327  35.589   5.758  14.416
 6907W        W68328  33.441   6.292  13.934
 6908W        W68329  44.501   0.466  10.960
 6909W        W68330  37.938  34.608   0.316
 6910W        W68331  10.767  32.903  10.533
 6911W        W68332  22.716  12.327   4.299
 6912W        W68333   7.328  31.541   4.691
 6913W        W68334   0.290  34.613  13.805
 6914W        W68335  42.406   2.803   1.377
 6915W        W68336  10.384   4.258  13.318
 6916W        W68337  40.903  36.855   1.923
 6917W        W68338  26.668  32.987   1.734
 6918W        W68339  24.046  44.321   4.789
 6919W        W68340  22.110  16.759   9.524
 6920W        W68341  17.790  23.648   3.284
 6921W        W68342   3.881   6.738  13.835
 6922W        W68343  43.905  32.446  13.010
 6923W        W68344  35.106  32.029  11.577
 6924W        W68345  41.883   4.733   4.757
 6925W        W68346  34.538  34.992  14.381
 6926W        W68347  41.350  44.351  12.400
 6927W        W68348  14.144  15.274  10.484
 6928W        W68349  34.909  40.933   0.788
 6929W        W68350   1.300  38.530   0.770
 6930W        W68351  44.355  39.517   4.747
 6931W        W68352  22.601  27.602   0.908
 6932W        W68353  19.076  16.110  12.519
 6933W        W68354  30.415  44.862  13.020
 6934W        W68355  23.511   5.279  14.007
 6935W        W68356  16.081  41.889  13.454
 6936W        W68357   9.321  19.277   4.238
 6937W        W68358  43.843  19.252  14.428
 6938W        W68359   7.329  33.590   4.194
 6939W        W68360  21.173  35.505  11.872
 6940W        W68361   1.396  42.391  11.934
 6941W        W68362   9.186   7.853  10.611
 6942W        W68363  20.092   5.404   9.593
 6943W        W68364  31.647   8.875  10.961
 6944W        W68365   4.257  41.964   1.319
 6945W        W68366  12.773  20.748   2.245
 6946W        W68367  42.287  43.768   0.851
 6947W        W68368  41.354   6.185  13.377
 6948W        W68369  24.213  43.397  12.342
 6949W        W68370   7.204  29.941   2.690
 6950W        W68371   6.408  37.835   4.259
 6951W        W68372  10.184   6.913   4.326
 6952W        W68373  29.602  41.822   4.124
 6953W        W68374  33.616   4.390  14.787
 6954W        W68375  10.381   9.845   1.761
 6955W        W68376  23.094  39.361  14.322
 6956W        W68377  10.747  18.145  11.426
 6957W        W68378  40.827  18.085   4.265
 6958W        W68379  28.178  10.262  12.574
 6959W        W68380  44.830  28.152   3.346
 6960W        W68381  43.928  32.467  11.593
 6961W        W68382  29.619  35.918   1.710
 6962W        W68383  40.331  17.728   5.141
 6963W        W68384  34.056   4.724   4.289
 6964W        W68385   8.384  39.007  12.050
 6965W        W68386   9.842  39.440  13.051
 6966W        W68387  11.226   3.322   1.825
 6967W        W68388  18.134  36.509  10.930
 6968W        W68389  30.990  15.184   0.449
 6969W        W68390  37.951   5.252   2.824
 6970W        W68391  34.455  38.556  12.030
 6971W        W68392  20.187  11.859   3.305
 6972W        W68393   7.287  41.950  14.290
 6973W        W68394  43.928   0.866   1.397
 6974W        W68395  11.207  24.005  13.843
 6975W        W68396  25.560  11.322   1.349
 6976W        W68397  20.728   8.846  14.481
 6977W        W68398  28.627  34.067  13.364
 6978W        W68399  34.498  26.035  10.557
 6979W        W68400  32.599  18.218  10.890
 6980W        W68401  20.701  14.597   3.633
 6981W        W68402   2.950  17.620   0.848
 6982W        W68403  44.998  31.603   3.221
 6983W        W68404  31.978   0.822  13.794
 6984W        W68405  41.904  25.191  14.872
 6985W        W68406  11.625  12.307  11.569
 6986W        W68407  36.405  14.662  12.914
 6987W        W68408  19.254  29.424  11.117
 6988W        W68409  25.048  37.081   3.730
 6989W        W68410  38.924  12.165  14.370
 6990W        W68411  11.743  12.675   1.728
 6991W        W68412  44.286   7.266  13.507
 6992W        W68413   5.734   6.260  14.498
 6993W        W68414  16.600   9.874   4.691
 6994W        W68415  28.539  19.542   4.738
 6995W        W68416  17.127  23.677   2.216
 6996W        W68417   5.829  39.527  13.438
 6997W        W68418   9.853  17.598   3.765
 6998W        W68419  22.737  16.627  13.498
 6999W        W68420  33.962   4.363   3.354
 7000W        W68421  28.941  30.154   1.805
 7001W        W68422  25.977  26.113  11.472
 7002W        W68423  43.506   8.723   0.292
 7003W        W68424  32.020  18.121  14.008
 7004W        W68425  27.656  22.590  14.817
 7005W        W68426  44.914  11.141   1.256
 7006W        W68427  41.938  40.437   0.885
 7007W        W68428  22.235  15.582  12.503
 7008W        W68429   5.206  29.665   0.864
 7009W        W68430  10.648   4.370  14.337
 7010W        W68431  39.385  23.496  11.960
 7011W        W68432  40.929  27.118   1.929
 7012W        W68433  19.180  41.407   4.257
 7013W        W68434   8.747  13.317  14.868
 7014W        W68435  19.042  24.694   1.390
 7015W        W68436  17.257  33.398  12.956
 7016W        W68437  15.667  43.826  11.381
 7017W        W68438   5.320   4.780   0.345
 7018W        W68439  13.130  17.073   0.929
 7019W        W68440   5.794   9.253  12.424
 7020W        W68441  24.653   7.299  11.894
 7021W        W68442  41.825  41.998  11.126
 7022W        W68443  36.953  17.649  14.379
 7023W        W68444  34.880  18.059   4.816
 7024W        W68445   0.853  17.194  13.441
 7025W        W68446  32.596  26.132  14.959
 7026W        W68447  19.226  33.910   0.884
 7027W        W68448  22.043  28.175  11.108
 7028W        W68449  12.258  16.314   4.309
 7029W        W68450  13.775  29.591  13.799
 7030W        W68451  21.564   1.468  12.034
 7031W        W68452  32.049   5.293   5.219
 7032W        W68453  17.278  40.401   2.189
 7033W        W68454   7.669  30.643  11.089
 7034W        W68455  38.924  20.155  10.537
 7035W        W68456  32.137   2.797   3.253
 7036W        W68457   1.954  38.365  11.997
 7037W        W68458  21.549   5.290  14.784
 7038W        W68459  39.908   5.323   4.775
 7039W        W68460  24.111  36.393   1.828
 7040W        W68461  17.184  43.900  12.491
 7041W        W68462  37.512  42.023  11.382
 7042W        W68463  22.153   1.874   1.251
 7043W        W68464   4.387  29.433  10.500
 7044W        W68465  18.789  31.998  13.523
 7045W        W68466  19.194   1.956  14.466
 7046W        W68467   3.244  32.575   1.359
 7047W        W68468   9.741  28.469   1.212
 7048W        W68469   7.793  38.354  14.388
 7049W        W68470  10.702  22.552  12.976
 7050W        W68471  33.050  40.522   2.231
 7051W        W68472  36.088  42.904   2.771
 7052W        W68473  17.123   1.907   4.831
 7053W        W68474   6.899  34.559  11.048
 7054W        W68475  29.528  15.226   2.388
 7055W        W68476  25.006  44.815   3.798
 7056W        W68477  21.593  17.768   1.697
 7057W        W68478  33.573   9.288  14.824
 7058W        W68479   6.728  16.697  11.539
 7059W        W68480  23.700  41.997   4.820
 7060W        W68481   4.874  19.680  10.157
 7061W        W68482   9.649  10.867  14.307
 7062W        W68483  40.798  21.549   0.942
 7063W        W68484  12.726  30.595   1.873
 7064W        W68485  17.179  26.674   3.745
 7065W        W68486   9.749  21.606   2.206
 7066W        W68487   6.217  39.845   3.738
 7067W        W68488  37.483   6.379  13.821
 7068W        W68489  28.034  43.397   5.105
 7069W        W68490   5.273  24.579  13.391
 7070W        W68491  38.411   6.761  12.068
 7071W        W68492  19.045  17.288   5.307
 7072W        W68493  41.823  38.006   0.760
 7073W        W68494   5.879  44.847   5.241
 7074W        W68495  23.069  39.537  12.880
 7075W        W68496  20.538   9.753  10.584
 7076W        W68497  37.871  31.596  12.002
 7077W        W68498   1.893  13.705  11.857
 7078W        W68499   0.870  15.773   3.830
 7079W        W68500  37.489  34.372   1.830
 7080W        W68501   2.421  10.789  10.454
 7081W        W68502  25.640  31.974  11.536
 7082W        W68503  19.714  29.153   4.187
 7083W        W68504  13.843  25.063  12.381
 7084W        W68505  21.154  13.675  10.502
 7085W        W68506  21.749  43.839   0.760
 7086W        W68507  18.268  19.680   3.313
 7087W        W68508  39.017  21.513   4.812
 7088W        W68509  24.693  13.679   1.914
 7089W        W68510   3.337  30.481  11.020
 7090W        W68511  23.643   4.816  12.388
 7091W        W68512  22.015  33.510  14.426
 7092W        W68513   5.784  15.648  12.459
 7093W        W68514   0.791   3.281  14.889
 7094W        W68515  10.694  18.558   1.909
 7095W        W68516   5.897  10.323   1.376
 7096W        W68517   5.216  25.105   1.275
 7097W        W68518  24.134  42.934   2.890
 7098W        W68519  20.674  13.263   2.348
 7099W        W68520  12.791   4.706   0.813
 7100W        W68521  29.972  10.733   4.341
 7101W        W68522   3.797  20.124   4.794
 7102W        W68523   6.912   9.685  11.475
 7103W        W68524  42.806  36.475  14.508
 7104W        W68525   5.784  28.656  10.479
 7105W        W68526  36.491  12.286   1.782
 7106W        W68527  18.233   9.268  11.874
 7107W        W68528   9.756   1.827  12.923
 7108W        W68529   7.415  14.200   1.830
 7109W        W68530  38.063  28.551  12.562
 7110W        W68531  40.488  19.137   0.277
 7111W        W68532  38.883  15.196   3.347
 7112W        W68533  32.545   0.378   1.902
 7113W        W68534   1.909  10.286  13.453
 7114W        W68535  44.284  12.182   0.481
 7115W        W68536  29.630  22.018  11.122
 7116W        W68537   0.882  26.005   4.792
 7117W        W68538  20.708  29.481  12.932
 7118W        W68539   7.884  28.113   1.876
 7119W        W68540  16.304  25.969  13.365
 7120W        W68541  13.270   6.297  14.008
 7121W        W68542   0.303  32.580   3.706
 7122W        W68543   4.752  25.470  10.123
 7123W        W68544   0.774  27.568  13.327
 7124W        W68545   2.794  24.636   2.261
 7125W        W68546  35.001   1.880   3.658
 7126W        W68547  11.777  21.244   4.819
 7127W        W68548  20.055   0.893   1.935
 7128W        W68549  35.073  21.708   1.783
 7129W        W68550  32.034   8.399  13.879
 7130W        W68551  38.047  24.513  10.988
 7131W        W68552  33.938  29.066  10.948
 7132W        W68553  30.093  18.093  10.577
 7133W        W68554  19.639  35.016   3.640
 7134W        W68555  13.109  26.642  14.911
 7135W        W68556  30.579  26.980  11.390
 7136W        W68557  40.525  28.666  14.859
 7137W        W68558  26.183  12.261  14.982
 7138W        W68559  30.425  24.203   3.746
 7139W        W68560   9.675  41.927   1.431
 7140W        W68561   0.271   3.293  10.412
 7141W        W68562  21.671  27.663  11.011
 7142W        W68563  29.034  29.979   4.225
 7143W        W68564   5.200  25.511  14.507
 7144W        W68565  11.674   4.386   0.800
 7145W        W68566  44.877  13.344  14.789
 7146W        W68567  18.718  30.466  14.947
 7147W        W68568  40.380  27.124   2.341
 7148W        W68569  36.347  19.657   3.844
 7149W        W68570  31.639  13.262   3.162
 7150W        W68571  32.096   8.178   0.867
 7151W        W68572  23.185  26.067  11.100
 7152W        W68573  18.592  12.838   9.484
 7153W        W68574  38.486  16.737  13.032
 7154W        W68575  25.570   5.893   5.231
 7155W        W68576  28.513  41.444  11.481
 7156W        W68577  32.122  42.922  13.354
 7157W        W68578  21.517   8.289  12.489
 7158W        W68579   3.765  40.503   1.854
 7159W        W68580  35.911   0.869  13.961
 7160W        W68581  29.995  19.628  13.377
 7161W        W68582   7.711  29.044  14.447
 7162W        W68583  43.916  40.809   3.741
 7163W        W68584  44.992   7.313   0.384
 7164W        W68585   3.271  12.142  11.573
 7165W        W68586  43.939  28.459  14.386
 7166W        W68587   7.330  30.431  13.032
 7167W        W68588   2.957  11.137  12.340
 7168W        W68589   6.823   0.946   3.851
 7169W        W68590  11.697   0.474   1.397
 7170W        W68591  38.903  33.558  14.758
 7171W        W68592  11.188  20.666  13.028
 7172W        W68593  26.033  26.170  14.994
 7173W        W68594  16.123  26.143  10.518
 7174W        W68595  35.459   9.688  10.892
 7175W        W68596  31.425  26.961  13.393
 7176W        W68597  18.640  36.381  13.501
 7177W        W68598  15.784  36.501  14.920
 7178W        W68599  37.050  13.626   3.784
 7179W        W68600  13.217  33.608   4.128
 7180W        W68601   8.302  31.113  10.644
 7181W        W68602  34.965  36.393  12.528
 7182W        W68603  13.752  28.478  13.051
 7183W        W68604  36.937  25.540   0.444
 7184W        W68605  21.654  29.111   3.728
 7185W        W68606  31.447  22.035   3.239
 7186W        W68607  16.585  31.933   3.177
 7187W        W68608  14.588  33.405   4.245
 7188W        W68609  32.403  35.000   1.779
 7189W        W68610  15.298  33.050  11.886
 7190W        W68611  36.532  14.315   2.662
 7191W        W68612   3.846   6.391  11.412
 7192W        W68613  26.991  10.205   1.864
 7193W        W68614   9.204  38.932  11.891
 7194W        W68615   0.274  27.506   3.707
 7195W        W68616  13.816   3.229  11.042
 7196W        W68617  30.078  17.218   4.340
 7197W        W68618  13.170  33.624  13.430
 7198W        W68619  14.706  40.327  12.058
 7199W        W68620  10.850  37.962  12.363
 7200W        W68621  12.810  19.633  13.442
 7201W        W68622   4.869  43.457  12.909
 7202W        W68623  24.653  13.242   2.274
 7203W        W68624   9.645  23.626   3.785
 7204W        W68625  26.006  19.126   4.210
 7205W        W68626  37.550   8.715  11.966
 7206W        W68627  18.249  18.083   2.740
 7207W        W68628  40.858  25.066   3.215
 7208W        W68629   5.393   1.749   0.368
 7209W        W68630   7.267  37.030   0.455
 7210W        W68631   0.454   9.848  12.517
 7211W        W68632  32.965  39.041   1.847
 7212W        W68633  21.065  44.458  12.878
 7213W        W68634  32.633  25.168   1.765
 7214W        W68635  27.175  31.458  11.918
 7215W        W68636   8.716  42.358   1.899
 7216W        W68637  17.598  28.931   1.880
 7217W        W68638   2.954  16.629   1.308
 7218W        W68639  25.581  43.334  14.423
 7219W        W68640  34.066  25.619  12.048
 7220W        W68641  17.251   2.390  11.962
 7221W        W68642  22.671  43.834  11.112
 7222W        W68643   2.722  37.874  12.526
 7223W        W68644  29.520  40.997  12.421
 7224W        W68645  38.829  22.528   0.746
 7225W        W68646   5.193  16.749   0.921
 7226W        W68647  38.073  41.392   1.893
 7227W        W68648  38.918  12.362   1.875
 7228W        W68649  27.180  31.019  13.812
 7229W        W68650   2.276  10.704  13.062
 7230W        W68651  25.080   8.759  11.507
 7231W        W68652  19.154  34.046   3.756
 7232W        W68653  17.702  20.622   4.186
 7233W        W68654  41.529   4.833  14.784
 7234W        W68655  10.724  30.072   0.412
 7235W        W68656  27.157   0.312   4.303
 7236W        W68657   9.350  21.604   2.347
 7237W        W68658  31.622  43.514   3.840
 7238W        W68659  16.220  42.996   4.641
 7239W        W68660  24.113  21.075   1.815
 7240W        W68661  11.170   3.264  13.547
 7241W        W68662  15.236  37.061   1.889
 7242W        W68663  11.771  11.680   3.845
 7243W        W68664  32.904  26.555  14.813
 7244W        W68665  10.185  24.067  12.097
 7245W        W68666  17.278  22.643   4.685
 7246W        W68667  43.320  44.443   0.916
 7247W        W68668   0.309  26.981   3.756
 7248W        W68669  26.468  30.005  11.112
 7249W        W68670  23.050   0.878   2.402
 7250W        W68671  10.174  25.599   5.185
 7251W        W68672   5.860  24.577   3.312
 7252W        W68673  31.123  14.306  12.536
 7253W        W68674  12.749  18.081   2.690
 7254W        W68675  26.681  43.510   2.308
 7255W        W68676  13.664   2.724  14.497
 7256W        W68677  16.705   7.354  13.502
 7257W        W68678  31.435  18.642  11.943
 7258W        W68679  26.010  23.604  13.349
 7259W        W68680  39.508  24.978   2.765
 7260W        W68681  34.095  22.522  13.949
 7261W        W68682  11.819   9.187  12.473
 7262W        W68683  40.405  40.327  10.119
 7263W        W68684  25.017   9.755  11.603
 7264W        W68685  13.619  28.457   2.306
 7265W        W68686  37.923  25.537   2.393
 7266W        W68687  16.098  20.181   3.248
 7267W        W68688  14.778  22.150   0.767
 7268W        W68689  29.155   0.769   3.182
 7269W        W68690   5.327  19.098   1.419
 7270W        W68691  32.530  30.494   3.230
 7271W        W68692  30.555   7.410   2.265
 7272W        W68693  42.836  18.108  14.973
 7273W        W68694  33.400  28.520  14.772
 7274W        W68695  29.083  18.120  10.508
 7275W        W68696   8.705   5.712  14.888
 7276W        W68697  13.328  16.583   4.258
 7277W        W68698  13.802   9.882   1.257
 7278W        W68699  41.448  44.807  10.514
 7279W        W68700  19.534  21.536  13.492
 7280W        W68701  23.645  29.168  12.550
 7281W        W68702  13.650  26.148  12.050
 7282W        W68703  20.651  35.480  11.446
 7283W        W68704  28.032  20.627   0.814
 7284W        W68705  19.611  15.751  14.812
 7285W        W68706  29.922   6.740  11.106
 7286W        W68707  12.170  17.640  12.939
 7287W        W68708  31.427  20.226  14.389
 7288W        W68709  30.975  35.598   3.179
 7289W        W68710   8.872   7.825   1.401
 7290W        W68711  22.184  23.639  10.583
 7291W        W68712  27.624  28.678  11.442
 7292W        W68713  25.140   4.811  13.796
 7293W        W68714   7.384  43.867   0.431
 7294W        W68715  28.655  18.587   4.291
 7295W        W68716  19.184   1.778   0.861
 7296W        W68717  27.023  17.591  11.992
 7297W        W68718  43.331  37.865  13.842
 7298W        W68719  28.143   2.376   0.332
 7299W        W68720  31.421  35.928   0.932
 7300W        W68721  26.702  27.169   2.795
 7301W        W68722   1.391  25.556  11.128
 7302W        W68723   1.431  40.351  12.981
 7303W        W68724  36.088  23.513  14.489
 7304W        W68725  18.102  21.134  13.403
 7305W        W68726  10.144  36.979  12.931
 7306W        W68727  11.329  24.628  14.945
 7307W        W68728  12.769  11.740  12.906
 7308W        W68729  19.626  39.011  13.369
 7309W        W68730   0.448  38.866   1.812
 7310W        W68731   3.729  37.923   0.306
 7311W        W68732  20.525   4.812   4.749
 7312W        W68733  31.016   2.393   3.755
 7313W        W68734  14.833   3.385  12.924
 7314W        W68735  23.102  12.269  12.390
 7315W        W68736  10.179   2.246   0.273
 7316W        W68737   4.426  43.418   0.892
 7317W        W68738  22.701   6.282  13.894
 7318W        W68739  36.994  32.018   0.771
 7319W        W68740  21.717  24.651   3.277
 7320W        W68741   5.381   6.812   3.671
 7321W        W68742  43.997  29.582   1.794
 7322W        W68743  24.186  25.543   3.179
 7323W        W68744   6.750  22.631   2.720
 7324W        W68745  39.892  10.362   2.395
 7325W        W68746   7.826  24.723  11.540
 7326W        W68747  21.639   4.846  12.530
 7327W        W68748  38.021  39.386  14.011
 7328W        W68749  24.549  28.056  14.971
 7329W        W68750  19.233  14.812   2.752
 7330W        W68751  13.119  23.033   3.766
 7331W        W68752  27.611  37.922   3.358
 7332W        W68753  42.465  17.647  13.971
 7333W        W68754  27.126  33.516  10.056
 7334W        W68755  33.996   0.935  11.457
 7335W        W68756  14.339  32.542  11.126
 7336W        W68757  33.596  16.272   3.297
 7337W        W68758  44.499   3.856  10.486
 7338W        W68759   9.328  17.303   1.708
 7339W        W68760  39.921  29.136   1.269
 7340W        W68761  28.586  23.669  13.326
 7341W        W68762  19.700  31.595  12.503
 7342W        W68763  17.128   2.940  10.464
 7343W        W68764  15.588  39.371  10.612
 7344W        W68765  44.832  23.643   0.738
 7345W        W68766   4.349  33.496   4.766
 7346W        W68767  24.642  26.580   1.711
 7347W        W68768   1.950  24.230   2.749
 7348W        W68769  13.697   6.236   0.768
 7349W        W68770  43.994  16.670   1.695
 7350W        W68771  24.496  22.076   1.891
 7351W        W68772  44.896  22.663   3.735
 7352W        W68773  13.234  24.701  13.048
 7353W        W68774  29.539   5.923  11.866
 7354W        W68775  36.561  36.048  14.306
 7355W        W68776  39.022  17.128  12.873
 7356W        W68777  16.616  42.901   0.428
 7357W        W68778   3.945  30.919  10.465
 7358W        W68779  21.715  20.141  10.574
 7359W        W68780  39.396  21.720   3.861
 7360W        W68781  39.882   6.791  13.794
 7361W        W68782  38.340  15.634   4.814
 7362W        W68783  10.329   4.266  14.342
 7363W        W68784  12.753  10.357  12.036
 7364W        W68785  27.984   4.231   1.408
 7365W        W68786  21.671  31.521   1.864
 7366W        W68787   1.348  40.840   3.742
 7367W        W68788  26.119   9.279  13.530
 7368W        W68789  14.291   8.813  13.344
 7369W        W68790  38.823  26.697  14.327
 7370W        W68791   7.717  41.010   4.598
 7371W        W68792  41.988   5.757  10.932
 7372W        W68793  36.062   7.224  13.395
 7373W        W68794  34.533   6.747  10.456
 7374W        W68795  28.665  35.592  10.410
 7375W        W68796  42.994  14.179  13.450
 7376W        W68797  43.310  22.564   1.704
 7377W        W68798  12.754   2.919  11.577
 7378W        W68799  24.149  22.584   1.707
 7379W        W68800  39.518  44.459  11.081
 7380W        W68801  42.421  39.534  14.385
 7381W        W68802  18.704   8.798   3.773
 7382W        W68803   9.866   2.310  14.312
 7383W        W68804  15.662   2.235  12.970
 7384W        W68805  12.306  37.038   0.875
 7385W        W68806  33.087  32.972  12.514
 7386W        W68807  15.225  12.142   0.465
 7387W        W68808  38.489  18.587  14.389
 7388W        W68809  28.105  32.992  12.401
 7389W        W68810  25.472  17.113  13.514
 7390W        W68811  21.753  42.524   2.284
 7391W        W68812  34.971   9.800  12.495
 7392W        W68813  39.911  26.480   2.227
 7393W        W68814   5.248  38.945  12.019
 7394W        W68815  34.599  32.474   4.162
 7395W        W68816  41.493  20.242  11.558
 7396W        W68817  43.771  20.651  11.112
 7397W        W68818  10.786   3.831   0.438
 7398W        W68819  18.058  44.892  14.326
 7399W        W68820   8.798   2.756  14.854
 7400W        W68821   2.341  37.034  14.826
 7401W        W68822  35.854  31.900  10.475
 7402W        W68823  43.933  44.299  11.946
 7403W        W68824  32.606  18.593  14.328
 7404W        W68825  14.747  25.556   0.379
 7405W        W68826   8.749  24.222  12.025
 7406W        W68827  43.863  11.650  14.944
 7407W        W68828  34.087  28.056   1.860
 7408W        W68829  25.164  23.074  12.504
 7409W        W68830  33.045  26.021   1.289
 7410W        W68831  19.756  11.777   5.133
 7411W        W68832  41.838   0.910  13.416
 7412W        W68833   6.711  40.847   4.335
 7413W        W68834  19.738  20.676   2.223
 7414W        W68835  33.070   3.739  13.904
 7415W        W68836  37.011  33.501   4.818
 7416W        W68837  27.608  20.655   4.312
 7417W        W68838   4.312  34.510   5.227
 7418W        W68839  29.018  24.053   4.802
 7419W        W68840  20.055  28.514   4.322
 7420W        W68841  28.967  31.619  12.059
 7421W        W68842  14.629  26.959   4.796
 7422W        W68843  16.098  37.396   1.718
 7423W        W68844   0.368   8.852  10.407
 7424W        W68845  16.788  11.151  11.904
 7425W        W68846  29.999   9.156   3.318
 7426W        W68847  13.226  23.695   2.876
 7427W        W68848   9.201   6.290  13.828
 7428W        W68849  41.854  32.442  13.378
 7429W        W68850   4.787  34.058  12.012
 7430W        W68851  17.732  18.663  14.981
 7431W        W68852  17.287  29.119  12.833
 7432W        W68853  29.642  28.016   2.685
 7433W        W68854  32.136  14.147   0.961
 7434W        W68855  27.678  29.635  11.533
 7435W        W68856   7.215  21.087   0.308
 7436W        W68857  30.021  19.596  11.980
 7437W        W68858  42.368  33.480  12.567
 7438W        W68859  37.911  23.072  13.803
 7439W        W68860  10.303  13.209  11.961
 7440W        W68861  20.199  41.321   0.881
 7441W        W68862  16.569  37.011  14.774
 7442W        W68863   4.259   0.967  13.316
 7443W        W68864  15.655   8.887  13.798
 7444W        W68865  40.472  27.957   1.794
 7445W        W68866  23.631  43.978   3.346
 7446W        W68867  28.108  42.026  13.359
 7447W        W68868  26.634  26.998   1.810
 7448W        W68869   6.284  36.497  13.016
 7449W        W68870   4.733  35.422  13.489
 7450W        W68871  32.079  15.682   2.279
 7451W        W68872  26.609  30.945   0.338
 7452W        W68873   4.872  33.408  11.955
 7453W        W68874  33.506   5.746  13.428
 7454W        W68875  30.564  41.293  13.367
 7455W        W68876   1.739  16.630  13.511
 7456W        W68877   9.305  16.690   2.295
 7457W        W68878  27.645  25.603   2.747
 7458W        W68879  16.754  28.494   1.821
 7459W        W68880  28.525  43.437   3.232
 7460W        W68881   9.870   4.921  11.434
 7461W        W68882  38.411  44.333   0.284
 7462W        W68883   2.467  44.864   3.824
 7463W        W68884  23.139   2.722  14.028
 7464W        W68885  29.050  28.675   3.712
 7465W        W68886  36.370  24.547  11.012
 7466W        W68887  22.009  19.642   3.755
 7467W        W68888  36.858   9.365   0.895
 7468W        W68889  30.590   9.241   2.875
 7469W        W68890  34.046  31.582  12.490
 7470W        W68891  26.627  19.669   4.225
 7471W        W68892  26.100   1.421   1.277
 7472W        W68893   1.391   1.816   5.314
 7473W        W68894   2.789  28.557   3.151
 7474W        W68895   1.291  40.031  13.051
 7475W        W68896  43.498  33.060   3.660
 7476W        W68897  28.167  32.620  12.350
 7477W        W68898  37.965  17.072  10.508
 7478W        W68899  11.204   9.277  11.921
 7479W        W68900  23.596  15.303  14.345
 7480W        W68901  32.509  16.776  14.943
 7481W        W68902   8.683  31.986   4.159
 7482W        W68903   9.879  16.572  12.509
 7483W        W68904  12.783   4.417  11.487
 7484W        W68905  15.151  24.496  11.974
 7485W        W68906  21.581  31.127  14.991
 7486W        W68907  39.352  15.155  12.857
 7487W        W68908   4.775  14.294   3.826
 7488W        W68909  32.441  43.940  14.829
 7489W        W68910   3.293  43.919  10.981
 7490W        W68911  33.880  19.186  13.459
 7491W        W68912  12.785   7.894   2.876
 7492W        W68913   2.270  10.688   1.905
 7493W        W68914  29.947  11.140  13.478
 7494W        W68915  32.587   4.322   4.133
 7495W        W68916  10.194  42.346  14.837
 7496W        W68917  42.429  22.661   1.811
 7497W        W68918   0.446  33.532  12.379
 7498W        W68919  41.322  39.913   4.216
 7499W        W68920  11.127  35.978  11.591
 7500W        W68921  16.224  19.699   1.294
 7501W        W68922  23.512  32.120  10.430
 7502W        W68923  18.580  39.415  12.014
 7503W        W68924  31.050  30.442  13.857
 7504W        W68925   7.737  35.471   0.788
 7505W        W68926  39.462  43.334   1.765
 7506W        W68927  37.047   0.941   4.163
 7507W        W68928  36.434  43.282   0.411
 7508W        W68929  34.608   2.882  14.784
 7509W        W68930  11.218  44.364   0.474
 7510W        W68931  10.322  18.072  14.924
 7511W        W68932   1.393   0.948   3.798
 7512W        W68933  18.156  23.045  11.934
 7513W        W68934  37.884  19.087  10.979
 7514W        W68935   5.889  23.157   0.368
 7515W        W68936  11.313  30.506   1.699
 7516W        W68937  44.926  42.991  10.915
 7517W        W68938  37.466  35.090  12.876
 7518W        W68939  11.788   9.247   3.316
 7519W        W68940  42.438  19.088  14.834
 7520W        W68941  24.177   2.911  11.956
 7521W        W68942  37.513  30.467  11.941
 7522W        W68943  17.262  19.273  13.458
 7523W        W68944   6.408  36.955  13.508
 7524W        W68945  32.124  38.917  12.500
 7525W        W68946  26.588   6.788   3.283
 7526W        W68947  44.496  43.286   4.206
 7527W        W68948  26.487  43.277   4.808
 7528W        W68949  26.987   5.401  14.854
 7529W        W68950  42.009  19.705  13.467
 7530W        W68951  11.711  16.212   0.745
 7531W        W68952  16.759   6.221   4.600
 7532W        W68953  37.891  39.031   2.377
 7533W        W68954  41.385  11.669   1.785
 7534W        W68955  25.555  25.532   1.281
 7535W        W68956  36.067   0.425   3.769
 7536W        W68957  27.595   2.462  13.853
 7537W        W68958  39.926  22.520   3.772
 7538W        W68959  41.892  34.041  10.588
 7539W        W68960  36.969  36.562  13.019
 7540W        W68961   2.453   0.386   1.355
 7541W        W68962  31.040  33.932   0.904
 7542W        W68963   9.780  32.889   3.674
 7543W        W68964  37.525   6.881  10.955
 7544W        W68965  39.958  16.172   2.687
 7545W        W68966  15.734  38.049  10.404
 7546W        W68967  36.524  38.047   2.815
 7547W        W68968  34.532  33.917   1.425
 7548W        W68969   4.406   4.332  12.472
 7549W        W68970  34.921  12.687  13.807
 7550W        W68971   4.349  34.388  10.069
 7551W        W68972  34.902   0.965  14.887
 7552W        W68973  26.073  41.035   2.855
 7553W        W68974  36.014  23.023  13.509
 7554W        W68975  27.042  20.052   0.282
 7555W        W68976  40.021  17.103  11.093
 7556W        W68977  26.116   9.291  14.389
 7557W        W68978  17.102  14.115   4.804
 7558W        W68979  35.544  30.060   4.684
 7559W        W68980  10.328   3.279   5.094
 7560W        W68981  37.461  16.611   3.193
 7561W        W68982  29.143  41.380   3.785
 7562W        W68983  20.099  41.292   2.762
 7563W        W68984  24.596  31.439   4.337
 7564W        W68985  27.519  30.105  11.006
 7565W        W68986  32.581  44.403  14.490
 7566W        W68987   9.265  23.017   2.673
 7567W        W68988  26.694   6.286   5.299
 7568W        W68989  32.590  24.016   4.738
 7569W        W68990  40.312  29.943   3.324
 7570W        W68991  27.176   8.814  14.800
 7571W        W68992  25.676  40.349  10.614
 7572W        W68993   3.884  12.817  11.535
 7573W        W68994  37.882   2.314  14.499
 7574W        W68995  13.811   0.936  12.491
 7575W        W68996  19.281  31.972   4.775
 7576W        W68997  30.556  11.778   3.198
 7577W        W68998  19.081   8.827   0.862
 7578W        W68999  20.540   9.724   1.926
 7579W        W69000  14.112  25.206  12.980
 7580W        W69001  28.453  33.532  13.824
 7581W        W69002   4.217  38.336  11.576
 7582W        W69003  27.037  40.926   2.331
 7583W        W69004  13.768  35.882   4.773
 7584W        W69005  29.515   5.395   3.666
 7585W        W69006  35.576  34.002  14.479
 7586W        W69007  43.835  39.819  12.395
 7587W        W69008  26.663  24.531  13.319
 7588W        W69009  24.550  34.379   3.785
 7589W        W69010  13.749  23.718  13.945
 7590W        W69011   7.405   3.383   4.165
 7591W        W69012   4.774  38.414   1.928
 7592W        W69013  17.200   9.833   1.788
 7593W        W69014   2.304  44.916   1.274
 7594W        W69015  39.974  24.722  11.067
 7595W        W69016   9.810  43.967   4.262
 7596W        W69017  27.617  38.326  14.800
 7597W        W69018  19.611  16.737   9.997
 7598W        W69019  15.666  20.661   3.826
 7599W        W69020  29.006  17.629   3.809
 7600W        W69021  22.057  36.515   2.316
 7601W        W69022  37.988  17.704  13.434
 7602W        W69023  30.160  11.170   2.723
 7603W        W69024   1.276  44.424  14.416
 7604W        W69025  20.172   5.894   4.776
 7605W        W69026  40.822  12.627   4.326
 7606W        W69027  14.336   0.421   2.774
 7607W        W69028  44.884   0.290   2.781
 7608W        W69029  40.995   3.439  10.988
 7609W        W69030  16.151  25.093   4.718
 7610W        W69031   1.346  12.773   1.922
 7611W        W69032  20.762  39.548  14.948
 7612W        W69033   5.216   6.302   0.373
 7613W        W69034  19.694  12.757   2.824
 7614W        W69035   7.776  35.069   3.686
 7615W        W69036   6.216  37.518  14.901
 7616W        W69037  28.664   1.292   2.230
 7617W        W69038  32.395  20.063  11.528
 7618W        W69039   3.808  37.979  11.888
 7619W        W69040  35.982   8.830  10.903
 7620W        W69041  37.498  32.071  13.446
 7621W        W69042   1.937  35.493   1.303
 7622W        W69043   5.368  44.978  11.860
 7623W        W69044   7.230  20.575   4.219
 7624W        W69045  21.533   1.833  12.966
 7625W        W69046  30.607  17.760   3.811
 7626W        W69047  36.875  43.455   3.287
 7627W        W69048  28.604   8.302  11.110
 7628W        W69049   8.698  21.691  11.557
 7629W        W69050  33.411   3.906   4.170
 7630W        W69051  44.496  43.513  11.063
 7631W        W69052   6.252  25.070   1.758
 7632W        W69053  28.472  30.019  12.479
 7633W        W69054   7.207  31.524   4.251
 7634W        W69055   8.670  12.775  12.520
 7635W        W69056   9.859  38.853   3.272
 7636W        W69057  14.760  24.674   4.820
 7637W        W69058  16.609  30.059  13.487
 7638W        W69059  27.682  33.018   4.781
 7639W        W69060  19.543  37.411  13.803
 7640W        W69061  31.055   3.728   3.776
 7641W        W69062  36.514  35.037   0.728
 7642W        W69063  43.992  17.737  14.426
 7643W        W69064  21.708   8.838   2.321
 7644W        W69065  44.996  38.366  10.526
 7645W        W69066  24.678  25.057  12.917
 7646W        W69067  20.127   6.744  13.886
 7647W        W69068  38.969  22.219  11.066
 7648W        W69069   2.458   6.398  13.390
 7649W        W69070   5.836   8.831  14.829
 7650W        W69071  13.776  29.545  14.769
 7651W        W69072  14.213  31.457   0.405
 7652W        W69073  34.429   6.277   0.392
 7653W        W69074   7.273  10.255   0.242
 7654W        W69075  41.836  29.122   3.743
 7655W        W69076  14.095  32.539  13.973
 7656W        W69077  42.509  11.863   5.229
 7657W        W69078  36.891   2.760  13.920
 7658W        W69079  17.129  35.598   0.293
 7659W        W69080  44.005  18.551   3.291
 7660W        W69081  38.397   7.253  11.463
 7661W        W69082  40.989  11.186  11.972
 7662W        W69083  21.230  12.148  12.073
 7663W        W69084  41.884  20.048   1.697
 7664W        W69085   2.281  36.430  12.428
 7665W        W69086   5.338  34.566  13.518
 7666W        W69087  11.303   8.273  13.888
 7667W        W69088  40.980  12.319   5.299
 7668W        W69089  29.450  32.946   0.945
 7669W        W69090   0.761   1.450  11.882
 7670W        W69091   5.900   2.942   2.179
 7671W        W69092  29.022  44.858  14.789
 7672W        W69093  28.679  31.547   2.402
 7673W        W69094   9.781   2.777  12.027
 7674W        W69095  29.430   3.844   1.273
 7675W        W69096  11.811  44.407  13.504
 7676W        W69097   9.710  43.869  11.929
 7677W        W69098   7.386   0.786   2.765
 7678W        W69099  14.303  19.175  11.003
 7679W        W69100  24.090   6.252   9.649
 7680W        W69101  27.130   1.764   3.763
 7681W        W69102  42.933  15.182  11.863
 7682W        W69103  43.320  40.438   2.751
 7683W        W69104   4.307  19.673   2.808
 7684W        W69105  16.700  30.983   2.817
 7685W        W69106   8.331   3.433   3.356
 7686W        W69107  16.590  26.642   0.272
 7687W        W69108  25.062   5.829  12.444
 7688W        W69109  19.095  26.568   0.388
 7689W        W69110  36.084  29.579   3.749
 7690W        W69111  34.913  30.071   3.273
 7691W        W69112   3.272  12.120   4.237
 7692W        W69113  20.198  11.625  10.114
 7693W        W69114  25.153   7.309   2.664
 7694W        W69115  31.403  16.243  10.128
 7695W        W69116  11.263  33.041  14.414
 7696W        W69117  37.922  44.809   0.439
 7697W        W69118  21.154  30.480  10.030
 7698W        W69119  37.962  18.695  12.849
 7699W        W69120  18.240  44.783   1.241
 7700W        W69121  26.179  29.154   4.269
 7701W        W69122  25.589  10.663  11.039
 7702W        W69123  32.597  13.740  10.058
 7703W        W69124  20.207  33.543  13.046
 7704W        W69125  14.682  26.489   4.682
 7705W        W69126  42.477   8.742   4.282
 7706W        W69127  10.166  32.620  12.039
 7707W        W69128  31.449   3.283   3.695
 7708W        W69129   0.840   3.274   4.117
 7709W        W69130  12.618   0.872   4.261
 7710W        W69131  10.297  24.048  11.518
 7711W        W69132  21.242  19.732  12.432
 7712W        W69133   5.747  25.185   1.770
 7713W        W69134  10.365  29.082   4.231
 7714W        W69135  36.848  44.802   4.195
 7715W        W69136  13.188  35.506  12.348
 7716W        W69137  29.959  10.377  14.983
 7717W        W69138  18.111  42.938   1.270
 7718W        W69139  39.505   0.274  13.041
 7719W        W69140  35.949  42.464   2.406
 7720W        W69141  30.655  17.225   0.819
 7721W        W69142  21.616  40.829  14.800
 7722W        W69143  43.928   1.959   2.874
 7723W        W69144  15.590   5.259   0.932
 7724W        W69145  29.004  41.040  14.785
 7725W        W69146  31.527   2.822   2.199
 7726W        W69147  16.635  18.256   3.173
 7727W        W69148   9.157   8.290  11.964
 7728W        W69149   4.934  24.154  10.621
 7729W        W69150   2.356  31.032   0.735
 7730W        W69151   8.717  11.324   1.435
 7731W        W69152  43.836   1.434   4.811
 7732W        W69153  42.281   4.322   4.753
 7733W        W69154  20.692   8.798   4.332
 7734W        W69155  11.718  30.550   2.700
 7735W        W69156  27.588  39.481   4.672
 7736W        W69157  12.809  14.260  12.919
 7737W        W69158  43.844  19.750  12.498
 7738W        W69159  16.258   5.928   1.340
 7739W        W69160  41.328  32.923  13.861
 7740W        W69161  17.131  23.988   9.948
 7741W        W69162   6.796  12.849   4.757
 7742W        W69163  16.162  16.146  11.030
 7743W        W69164   0.472  40.523   1.733
 7744W        W69165  44.873   1.947  10.612
 7745W        W69166  27.088  24.668  13.973
 7746W        W69167   6.717  31.107  14.928
 7747W        W69168  35.945  21.137  11.926
 7748W        W69169  36.459  28.034  13.483
 7749W        W69170  19.579   9.285   3.216
 7750W        W69171  36.348  31.629  11.116
 7751W        W69172  13.795  11.361  13.319
 7752W        W69173  30.032  29.586  12.006
 7753W        W69174  41.827  17.772  12.023
 7754W        W69175  28.951   6.823   0.842
 7755W        W69176  32.439   1.878   4.754
 7756W        W69177  36.994  22.133   0.256
 7757W        W69178  21.546   6.682  13.546
 7758W        W69179   2.763  24.144   1.897
 7759W        W69180  37.060  11.329   1.396
 7760W        W69181  10.838   3.766  10.592
 7761W        W69182  37.953  10.865   0.369
 7762W        W69183  12.802  34.014  13.474
 7763W        W69184  43.892  18.067  11.562
 7764W        W69185   8.170  15.111  14.320
 7765W        W69186  19.721   8.775   3.700
 7766W        W69187  12.192  37.986   4.618
 7767W        W69188   5.423   0.921   3.357
 7768W        W69189  17.217  31.913  13.321
 7769W        W69190  26.164  20.599   2.350
 7770W        W69191  12.693   2.947  12.452
 7771W        W69192  11.251   5.400   4.314
 7772W        W69193  30.464  39.892   0.820
 7773W        W69194  42.910  26.642   4.245
 7774W        W69195  34.036  39.948  11.414
 7775W        W69196  42.417  29.638  12.991
 7776W        W69197  35.387  13.278   0.262
 7777W        W69198   7.361  26.135   4.208
 7778W        W69199  38.014  16.780  10.604
 7779W        W69200   7.332  19.580   4.159
 7780W        W69201   1.965  10.800  10.938
 7781W        W69202   6.370  38.064   3.352
 7782W        W69203   4.295   7.853   1.730
 7783W        W69204  22.607  25.096  11.095
 7784W        W69205   7.310  30.628   0.412
 7785W        W69206  27.482  13.309  12.548
 7786W        W69207  40.337  27.610  11.953
 7787W        W69208  11.173  22.214  10.463
 7788W        W69209  35.448  15.137   1.891
 7789W        W69210   4.352  28.020  14.983
 7790W        W69211   6.803  30.951   0.813
 7791W        W69212  24.197   8.370  12.406
 7792W        W69213   1.946  15.141   2.836
 7793W        W69214  26.972  18.771  12.401
 7794W        W69215  17.618  36.018  12.965
 7795W        W69216  38.069  24.708  10.625
 7796W        W69217  15.759  27.589  10.011
 7797W        W69218  36.353   7.308  14.358
 7798W        W69219  44.819  19.122  13.484
 7799W        W69220   5.767  41.903   1.285
 7800W        W69221   0.828  31.028   2.873
 7801W        W69222   4.275  13.720  12.448
 7802W        W69223  35.047  22.553   4.179
 7803W        W69224  16.295  40.478   1.905
 7804W        W69225  18.562  26.529   4.243
 7805W        W69226   9.810   5.273  11.855
 7806W        W69227  23.632   9.295   1.918
 7807W        W69228  19.243  33.057  14.317
 7808W        W69229  28.508  30.046   0.293
 7809W        W69230  16.739   4.900  10.464
 7810W        W69231  38.874  21.561  14.786
 7811W        W69232  29.978  32.399  10.908
 7812W        W69233   6.188   8.806   4.151
 7813W        W69234  19.238  42.995  13.449
 7814W        W69235  13.188  44.381   3.839
 7815W        W69236   9.262  28.173  14.983
 7816W        W69237  12.807  30.535   4.163
 7817W        W69238  20.575  25.095   3.371
 7818W        W69239  42.315  44.489  12.936
 7819W        W69240  17.297  26.984   1.784
 7820W        W69241  32.525  32.433   1.865
 7821W        W69242  24.131  42.337   3.172
 7822W        W69243  34.594  35.062   4.747
 7823W        W69244   0.438   4.249  11.444
 7824W        W69245  13.623  39.910  13.019
 7825W        W69246   0.252  19.062   3.792
 7826W        W69247  27.496  28.012   0.877
 7827W        W69248  17.739  18.721   3.710
 7828W        W69249  43.798  12.809   2.381
 7829W        W69250  21.039  20.732   4.306
 7830W        W69251  32.468  39.836   3.665
 7831W        W69252  23.016  38.870   2.179
 7832W        W69253  29.160   0.844  13.518
 7833W        W69254   6.746   7.783  11.487
 7834W        W69255  18.640  38.392  11.062
 7835W        W69256  20.643  10.233  10.970
 7836W        W69257   0.384  35.361  11.938
 7837W        W69258  31.459   8.241   0.942
 7838W        W69259  13.309   7.251  14.824
 7839W        W69260  27.022  37.044  10.410
 7840W        W69261  43.483  24.128   3.702
 7841W        W69262  43.491   4.772  12.962
 7842W        W69263   5.228  38.989  12.924
 7843W        W69264  18.760  32.587  12.541
 7844W        W69265   8.208  15.262   1.373
 7845W        W69266   7.769  26.656   4.724
 7846W        W69267  29.143  24.611  11.530
 7847W        W69268  15.710  28.045   0.753
 7848W        W69269  10.648  24.189  13.522
 7849W        W69270  29.951  23.669  11.399
 7850W        W69271  21.644  43.272  13.867
 7851W        W69272   1.393  36.505  14.349
 7852W        W69273   1.919  25.008   3.254
 7853W        W69274  16.807  22.563  10.952
 7854W        W69275  15.617   7.875  14.788
 7855W        W69276  40.501   1.933  14.357
 7856W        W69277  24.168  20.059   2.242
 7857W        W69278   3.836  28.932  12.388
 7858W        W69279   0.300  23.105   3.752
 7859W        W69280  30.626  39.969   1.811
 7860W        W69281  37.963   3.390   0.428
 7861W        W69282  19.183  39.043   0.379
 7862W        W69283   4.810  20.055   0.811
 7863W        W69284  28.031  43.849   3.207
 7864W        W69285  28.460  12.749   2.736
 7865W        W69286  14.303  19.597   2.879
 7866W        W69287   9.275  18.627   4.601
 7867W        W69288   7.835  36.073   0.738
 7868W        W69289   9.371  25.966   3.778
 7869W        W69290  13.678   3.255  14.001
 7870W        W69291  40.878   3.434  13.822
 7871W        W69292  28.462  30.126   4.811
 7872W        W69293  27.650   2.319   3.728
 7873W        W69294   1.810  34.098   5.711
 7874W        W69295  19.716   7.863  12.984
 7875W        W69296  30.985  16.699  14.907
 7876W        W69297   4.799  39.020  14.004
 7877W        W69298  43.280  26.577  11.538
 7878W        W69299   2.801  25.197   3.234
 7879W        W69300  22.121  36.527  11.589
 7880W        W69301  43.475   1.766  14.837
 7881W        W69302  38.026   8.890   0.881
 7882W        W69303  16.085  14.146   0.479
 7883W        W69304  33.938   4.908  14.842
 7884W        W69305  36.584   8.877   4.227
 7885W        W69306  10.178  32.906  10.608
 7886W        W69307   4.299   9.750  10.607
 7887W        W69308  23.630  24.692  11.014
 7888W        W69309   0.977  20.594  14.460
 7889W        W69310  44.985  25.609  13.511
 7890W        W69311   4.937  28.151   1.310
 7891W        W69312  42.780  24.007  13.940
 7892W        W69313  39.418   2.771   4.803
 7893W        W69314  22.118   3.332   3.705
 7894W        W69315   1.302   4.856  11.857
 7895W        W69316  40.521  44.484   2.393
 7896W        W69317  30.949  26.177  14.452
 7897W        W69318  20.256  22.597   4.178
 7898W        W69319   0.347  37.994   2.793
 7899W        W69320  14.306  13.288   4.272
 7900W        W69321  38.971   8.769  11.874
 7901W        W69322   8.754  44.948   4.277
 7902W        W69323   1.309  40.343  11.079
 7903W        W69324  38.877  24.558   4.239
 7904W        W69325  12.716   6.195   2.211
 7905W        W69326  16.108  21.530  10.627
 7906W        W69327  14.126   4.352   3.724
 7907W        W69328  18.293  30.971  11.551
 7908W        W69329  15.233  42.427  14.950
 7909W        W69330  37.352  11.782   5.306
 7910W        W69331  31.064  13.622  13.991
 7911W        W69332  24.630  34.091   1.313
 7912W        W69333  43.807  30.651   3.648
 7913W        W69334  29.930  33.544  12.885
 7914W        W69335  27.040  32.520  11.548
 7915W        W69336  33.403  21.732  14.516
 7916W        W69337  15.676   0.942   0.302
 7917W        W69338  34.078  31.508  13.865
 7918W        W69339  16.792   9.270   3.216
 7919W        W69340  41.886  44.295   2.261
 7920W        W69341  14.760  15.096   4.660
 7921W        W69342  42.817  21.739   2.373
 7922W        W69343  33.506  41.910   0.950
 7923W        W69344  39.448   3.773  10.969
 7924W        W69345  32.440  10.252  11.601
 7925W        W69346  26.998  29.611   4.217
 7926W        W69347  23.198   2.386  12.930
 7927W        W69348  14.754  27.185   2.854
 7928W        W69349  17.068  35.589  13.955
 7929W        W69350  16.739  14.613   3.172
 7930W        W69351  20.271  42.878   2.866
 7931W        W69352   1.760  37.952  14.840
 7932W        W69353  29.153   4.724  12.913
 7933W        W69354  42.805  10.872  13.412
 7934W        W69355  42.806  17.680   2.395
 7935W        W69356   6.879  37.071   1.267
 7936W        W69357  30.075  11.631   4.601
 7937W        W69358  35.584  38.892  11.944
 7938W        W69359   0.402  26.469  14.032
 7939W        W69360   2.920  24.154   2.870
 7940W        W69361  39.024  15.601   0.475
 7941W        W69362  13.624  36.413  13.487
 7942W        W69363  30.923  28.007  11.014
 7943W        W69364  25.140  18.609  13.930
 7944W        W69365   0.469  36.563   3.193
 7945W        W69366  28.522   0.392  12.056
 7946W        W69367   9.259  42.520   9.565
 7947W        W69368  29.978  36.445  12.524
 7948W        W69369   6.728  36.409   0.941
 7949W        W69370  29.996   6.858  14.287
 7950W        W69371   7.791  19.235   4.144
 7951W        W69372  15.634   4.220  11.995
 7952W        W69373  26.009  15.140   4.293
 7953W        W69374  14.256  37.867   1.347
 7954W        W69375   1.736  34.505  13.326
 7955W        W69376  27.554   3.718   3.776
 7956W        W69377   1.790  17.184   0.432
 7957W        W69378  39.314  37.948   3.853
 7958W        W69379  32.993  17.646  11.106
 7959W        W69380  21.241   1.748   4.676
 7960W        W69381  11.841   5.707  12.938
 7961W        W69382  24.520   4.352  11.528
 7962W        W69383  30.512   1.856   1.821
 7963W        W69384  37.023  35.530  14.857
 7964W        W69385  38.879  29.565  11.519
 7965W        W69386  16.192  20.535  11.092
 7966W        W69387   9.243  12.240   0.861
 7967W        W69388   1.822  42.448   4.790
 7968W        W69389  36.025  42.792   9.928
 7969W        W69390  22.038  16.592   0.248
 7970W        W69391  40.331  15.602   0.908
 7971W        W69392  40.853  44.904  12.929
 7972W        W69393  31.900  12.197  12.010
 7973W        W69394  24.724  16.752   2.265
 7974W        W69395  16.143  30.125  14.422
 7975W        W69396  10.690  39.810  11.074
 7976W        W69397  39.364   6.860   1.272
 7977W        W69398   5.751  36.415  13.444
 7978W        W69399  21.053  24.173   0.736
 7979W        W69400  21.708  19.742   1.272
 7980W        W69401  44.400  39.871  10.028
 7981W        W69402   9.179   4.733   4.232
 7982W        W69403  19.087   2.935  10.409
 7983W        W69404  14.273   2.938  10.988
 7984W        W69405  42.390  24.213   2.223
 7985W        W69406  13.803  41.412   0.735
 7986W        W69407  35.060   4.330  12.389
 7987W        W69408  34.102  35.415  13.492
 7988W        W69409  21.634  25.651  12.853
 7989W        W69410  34.118   8.681   0.868
 7990W        W69411   4.283  30.975   4.303
 7991W        W69412   9.370  39.393  10.601
 7992W        W69413  42.848   9.225   0.737
 7993W        W69414  10.813  16.784   0.812
 7994W        W69415  14.271  29.939   4.660
 7995W        W69416  15.288   2.377  10.895
 7996W        W69417  25.038  29.629   2.896
 7997W        W69418  21.237   8.666   4.156
 7998W        W69419   5.907  14.736  12.372
 7999W        W69420  17.735   1.403   1.716
 8000W        W69421  20.587  26.565  13.029
 8001W        W69422  12.667  39.010  14.373
 8002W        W69423  11.246  36.026   1.314
 8003W        W69424  25.118   8.383   1.935
 8004W        W69425   4.747  27.506  13.362
 8005W        W69426  11.231  25.519   3.799
 8006W        W69427  44.260  18.732  11.006
 8007W        W69428   8.257   7.365   2.250
 8008W        W69429  38.029  10.811  12.096
 8009W        W69430  40.319  10.148   1.733
 8010W        W69431   6.267  24.065  12.946
 8011W        W69432   4.841   3.848  12.981
 8012W        W69433  13.612  23.705   3.855
 8013W        W69434   8.349  40.875  14.293
 8014W        W69435  36.925  41.490   4.611
 8015W        W69436  14.622   5.202  14.821
 8016W        W69437  21.631  29.646  12.093
 8017W        W69438  27.646  28.522  14.356
 8018W        W69439  15.729  29.998   2.887
 8019W        W69440  30.126  35.981   4.657
 8020W        W69441  36.413  27.555   4.344
 8021W        W69442  30.552  23.064  11.905
 8022W        W69443  43.495  39.815  10.523
 8023W        W69444  28.071  18.624  13.382
 8024W        W69445  28.129  15.247  10.908
 8025W        W69446   6.411  21.039   0.838
 8026W        W69447  44.978   7.229  14.442
 8027W        W69448  40.945  42.509   0.841
 8028W        W69449  28.646  22.132  14.999
 8029W        W69450  42.033   9.815  12.406
 8030W        W69451  24.715  39.378  12.429
 8031W        W69452  37.443  12.614  13.540
 8032W        W69453   1.795   4.818  14.831
 8033W        W69454  11.827   2.852  13.948
 8034W        W69455  12.299  29.622  10.970
 8035W        W69456  26.079   8.180   1.827
 8036W        W69457  28.022  25.201   2.282
 8037W        W69458  11.706  23.571  10.413
 8038W        W69459  13.308  29.450   2.210
 8039W        W69460  28.630  10.854   1.373
 8040W        W69461   2.249   0.969   4.648
 8041W        W69462   9.374  15.581  12.458
 8042W        W69463   4.267  27.683   3.296
 8043W        W69464   8.747  40.319  14.873
 8044W        W69465   0.784  20.599   2.767
 8045W        W69466  38.408  12.136  14.511
 8046W        W69467  18.233  39.033  14.495
 8047W        W69468  17.694  33.413   1.906
 8048W        W69469   5.752  10.213  12.573
 8049W        W69470   4.289  18.050  11.538
 8050W        W69471  33.551  23.230  11.030
 8051W        W69472  43.952  37.506   3.774
 8052W        W69473  14.809   3.454   1.338
 8053W        W69474  40.929   7.247  11.501
 8054W        W69475  44.874  22.561  12.490
 8055W        W69476  24.551  15.654  10.922
 8056W        W69477  36.037  13.304   2.785
 8057W        W69478  23.496  21.553  13.888
 8058W        W69479  18.564   9.307  10.479
 8059W        W69480  27.455   6.703   0.768
 8060W        W69481  24.590  19.112  10.459
 8061W        W69482  14.326   0.349  10.571
 8062W        W69483   3.433  14.664   3.353
 8063W        W69484  30.022  13.223   0.926
 8064W        W69485  39.861  19.215  12.430
 8065W        W69486  17.097  43.994   4.276
 8066W        W69487  36.987  34.492  12.890
 8067W        W69488   4.291  42.970  11.078
 8068W        W69489  31.051   4.882  11.978
 8069W        W69490  12.275   7.717   1.881
 8070W        W69491  29.482  22.097  13.504
 8071W        W69492  19.179  29.626   4.204
 8072W        W69493  36.452   7.380  11.497
 8073W        W69494  17.687  31.436  11.868
 8074W        W69495  23.998  25.088  10.573
 8075W        W69496  12.787   1.333  11.494
 8076W        W69497  11.245  31.097  12.521
 8077W        W69498   5.692  25.580  11.548
 8078W        W69499  34.989  24.715  12.443
 8079W        W69500  33.396  39.930  13.857
 8080W        W69501   4.940  28.985  14.357
 8081W        W69502   0.448   4.802   0.963
 8082W        W69503  23.731  33.514  10.420
 8083W        W69504  23.236  22.089  14.842
 8084W        W69505  43.455  14.178   2.256
 8085W        W69506  16.805  21.236  11.559
 8086W        W69507  20.222   5.312   4.706
 8087W        W69508   1.411  17.781  14.773
 8088W        W69509  21.147   5.824  11.424
 8089W        W69510  32.930  33.916  10.463
 8090W        W69511   3.774  14.829  11.390
 8091W        W69512  27.092  15.790  10.488
 8092W        W69513  42.894   4.803  11.962
 8093W        W69514  40.836  26.656   0.919
 8094W        W69515   2.329   2.721   4.180
 8095W        W69516  10.832  39.998  14.327
 8096W        W69517  10.821  29.011   2.249
 8097W        W69518  37.071  19.047   0.343
 8098W        W69519  44.404  14.818   2.248
 8099W        W69520   7.787  34.886   0.275
 8100W        W69521  43.286   1.732   1.885
 8101W        W69522  27.984  11.659   0.264
 8102W        W69523  39.484  25.680  12.495
 8103W        W69524  19.664  17.637   2.882
 8104W        W69525  14.198  18.571  12.408
 8105W        W69526  29.965  44.265   3.844
 8106W        W69527   3.820  20.096  12.485
 8107W        W69528  38.346  43.379  12.824
 8108W        W69529  43.868  39.896   3.222
 8109W        W69530  23.575  35.078   3.832
 8110W        W69531  11.170  40.050   4.167
 8111W        W69532  23.181  36.475  14.911
 8112W        W69533  40.369  42.027   0.429
 8113W        W69534   4.435  42.991   1.696
 8114W        W69535  15.299  28.107   3.324
 8115W        W69536  19.276  26.582  13.902
 8116W        W69537  20.036  30.457  11.993
 8117W        W69538  31.975  18.705  12.876
 8118W        W69539  16.297  27.530   0.820
 8119W        W69540  10.710  25.120   0.405
 8120W        W69541  24.194   6.254  13.510
 8121W        W69542  28.479  16.156   4.217
 8122W        W69543  41.409   1.245  13.885
 8123W        W69544   5.228  30.607  10.944
 8124W        W69545  35.023   3.370  13.805
 8125W        W69546  36.351  23.004  14.434
 8126W        W69547  21.589  42.454  14.508
 8127W        W69548  33.500  43.288   2.824
 8128W        W69549  27.460  15.085   3.372
 8129W        W69550  23.643   8.756   3.746
 8130W        W69551  27.568  30.021   4.177
 8131W        W69552  23.652  39.502   3.811
 8132W        W69553  13.834   1.741  11.471
 8133W        W69554  17.150   8.164   2.276
 8134W        W69555  21.513  22.046   2.379
 8135W        W69556  29.986   1.272  13.976
 8136W        W69557   1.904  41.888  10.540
 8137W        W69558  19.156   8.685   1.359
 8138W        W69559  37.944  28.532  10.480
 8139W        W69560  21.717  35.994  11.407
 8140W        W69561  42.458  15.140   1.385
 8141W        W69562  39.524  23.144  13.429
 8142W        W69563  31.992  34.398   3.384
 8143W        W69564  27.661  44.925  14.408
 8144W        W69565  14.595  14.782  11.939
 8145W        W69566  26.085  22.183   3.222
 8146W        W69567  22.175  21.128  13.022
 8147W        W69568  32.033   2.317  14.300
 8148W        W69569  37.909  18.634   0.292
 8149W        W69570   9.313  26.024   0.912
 8150W        W69571  29.054  29.571  13.311
 8151W        W69572  16.216  10.144  14.340
 8152W        W69573  37.456  40.363  14.994
 8153W        W69574  11.624   4.932  13.982
 8154W        W69575   2.951   9.789  10.544
 8155W        W69576  19.056  10.291  10.093
 8156W        W69577  36.465  25.591  14.407
 8157W        W69578  43.385  21.719  12.965
 8158W        W69579  38.003  36.024  10.566
 8159W        W69580  19.698  10.197  12.952
 8160W        W69581  26.121  18.074  13.880
 8161W        W69582   1.907  39.419   4.129
 8162W        W69583  28.550  31.906   3.234
 8163W        W69584  26.490   0.331  13.432
 8164W        W69585   0.823   3.940   3.366
 8165W        W69586  17.713  32.028   1.771
 8166W        W69587  16.098  24.139  10.430
 8167W        W69588  27.445  41.400  11.923
 8168W        W69589  33.883  16.270  14.901
 8169W        W69590  25.554  16.792   2.701
 8170W        W69591   9.644  23.132  11.464
 8171W        W69592  29.657  31.638  12.093
 8172W        W69593  16.635   4.357   1.265
 8173W        W69594  37.371  17.303   5.259
 8174W        W69595   1.384   7.402   2.355
 8175W        W69596  25.964  32.998  14.483
 8176W        W69597  14.671  29.634  11.103
 8177W        W69598  10.367  20.759  12.993
 8178W        W69599  35.556  21.148   2.797
 8179W        W69600  24.717  29.937  14.999
 8180W        W69601  31.083  19.236   1.302
 8181W        W69602  34.381  28.094  12.410
 8182W        W69603   8.290  34.003   0.343
 8183W        W69604  13.132  30.155  10.076
 8184W        W69605  34.420  12.794  12.540
 8185W        W69606  20.677  38.902  14.307
 8186W        W69607  34.118  30.129  12.932
 8187W        W69608  16.768   4.348  14.824
 8188W        W69609  29.988  24.102  14.282
 8189W        W69610  27.100  38.514   2.779
 8190W        W69611  24.629  33.059  12.445
 8191W        W69612  39.549  41.002  13.841
 8192W        W69613  26.570  28.054   2.746
 8193W        W69614  16.138  40.516   3.194
 8194W        W69615  18.141  11.136  10.935
 8195W        W69616   7.788  18.601   1.705
 8196W        W69617  10.766   4.754  14.352
 8197W        W69618  32.092  10.383   4.181
 8198W        W69619  16.292  21.217  11.989
 8199W        W69620  12.165  15.760   3.688
 8200W        W69621  26.191  44.831  11.069
 8201W        W69622   3.915   7.845  13.437
 8202W        W69623  27.506  33.386   4.294
 8203W        W69624  41.514  34.386  12.553
 8204W        W69625   9.741  26.465  11.118
 8205W        W69626  14.725   7.315  10.484
 8206W        W69627  26.702  25.656  12.352
 8207W        W69628   6.193  40.509  10.421
 8208W        W69629  29.113   9.852   3.817
 8209W        W69630  21.178  13.226  14.775
 8210W        W69631   3.869  25.115  11.882
 8211W        W69632  22.603  19.688  13.808
 8212W        W69633  37.924  43.986   2.859
 8213W        W69634  32.438  24.228   3.808
 8214W        W69635  41.970  25.112  12.567
 8215W        W69636  32.400  21.699   0.380
 8216W        W69637  20.185  30.500   3.316
 8217W        W69638  32.442  40.951   3.791
 8218W        W69639   2.343  23.541  10.064
 8219W        W69640  18.093  36.464  13.901
 8220W        W69641  19.264  39.870  12.350
 8221W        W69642  15.268  40.913  12.417
 8222W        W69643  30.645  12.321  13.492
 8223W        W69644  34.877   3.879   4.776
 8224W        W69645  42.464  36.571  10.620
 8225W        W69646  12.708  25.972   1.379
 8226W        W69647  17.564  10.764   0.771
 8227W        W69648  10.286  22.698  10.427
 8228W        W69649  38.519  25.679  13.407
 8229W        W69650  13.345  26.105  13.009
 8230W        W69651  29.565  18.049  10.472
 8231W        W69652  29.465  41.433   4.612
 8232W        W69653   9.805  36.036   1.247
 8233W        W69654  20.231  21.210  11.078
 8234W        W69655  30.647  11.364   9.651
 8235W        W69656  36.993  23.650   4.319
 8236W        W69657  34.026  14.616  13.879
 8237W        W69658  10.658   0.366  10.482
 8238W        W69659  33.932  38.331  11.895
 8239W        W69660   8.405  34.392  11.894
 8240W        W69661  18.700  37.976   1.871
 8241W        W69662  16.092  26.112  12.086
 8242W        W69663  36.896  14.291   4.741
 8243W        W69664  30.912  41.486  11.970
 8244W        W69665   2.300  33.985  10.458
 8245W        W69666  43.002   4.206   3.249
 8246W        W69667  27.175  31.616  12.378
 8247W        W69668  41.831   2.910  11.493
 8248W        W69669   4.305  27.599  10.510
 8249W        W69670  17.154  42.840  12.987
 8250W        W69671  34.007  32.418  13.337
 8251W        W69672  14.669   5.741  11.098
 8252W        W69673  40.356  26.567   1.748
 8253W        W69674   9.888   1.854  13.855
 8254W        W69675   9.699   0.885  12.875
 8255W        W69676  18.717  44.311   2.393
 8256W        W69677   0.378  12.810  11.416
 8257W        W69678  11.841  12.174  14.988
 8258W        W69679  21.210  29.131  14.321
 8259W        W69680   7.258  10.227  14.963
 8260W        W69681  44.989  13.603  10.480
 8261W        W69682   7.326   6.915  12.924
 8262W        W69683  27.045  35.920   0.892
 8263W        W69684   1.895  10.730  11.449
 8264W        W69685  33.885  21.521   0.372
 8265W        W69686  33.123  43.434  13.389
 8266W        W69687   4.792   2.418   1.748
 8267W        W69688  40.405  13.602  10.929
 8268W        W69689  28.515   6.777   1.861
 8269W        W69690  26.060  43.414   3.312
 8270W        W69691  15.715  40.814   4.288
 8271W        W69692  27.474  34.931  12.925
 8272W        W69693  33.555  13.773  14.027
 8273W        W69694  23.731  33.590  11.934
 8274W        W69695  31.993  22.055   4.353
 8275W        W69696  25.995  18.647  14.821
 8276W        W69697  36.943   6.692  14.418
 8277W        W69698  27.104  34.422   2.196
 8278W        W69699  14.718  26.058  11.569
 8279W        W69700  26.014   3.235   2.191
 8280W        W69701  18.551  35.871  12.487
 8281W        W69702  42.804  18.187  12.048
 8282W        W69703  28.586  14.334   1.223
 8283W        W69704  27.950  27.021   2.185
 8284W        W69705   6.211  26.562   0.928
 8285W        W69706  18.123  17.792   3.335
 8286W        W69707  29.562   9.749  11.554
 8287W        W69708  33.461  28.098  11.875
 8288W        W69709  23.655  19.277   2.304
 8289W        W69710  42.820  34.469  12.835
 8290W        W69711  35.507  15.765  12.840
 8291W        W69712   8.403  38.946  12.356
 8292W        W69713  37.880  37.536  10.993
 8293W        W69714  33.407  20.641   3.802
 8294W        W69715  30.969  24.099   1.852
 8295W        W69716  12.772  10.354  13.465
 8296W        W69717  14.210   3.322   4.820
 8297W        W69718  21.102  41.826   4.655
 8298W        W69719  33.009  15.237  10.892
 8299W        W69720  13.776  17.564  12.935
 8300W        W69721  23.547   6.421  13.532
 8301W        W69722  16.228   2.452  13.828
 8302W        W69723  24.156  41.946   3.274
 8303W        W69724  30.028  37.865  11.096
 8304W        W69725  41.510  15.739  10.943
 8305W        W69726  34.871  41.025  14.462
 8306W        W69727  27.053  37.565   3.687
 8307W        W69728  27.981  32.065  12.870
 8308W        W69729   6.417  28.572   1.312
 8309W        W69730  15.128  27.545   0.943
 8310W        W69731  13.772  30.603  10.060
 8311W        W69732  10.383  23.680  14.287
 8312W        W69733   5.800  34.530   2.805
 8313W        W69734  30.515  43.859   0.449
 8314W        W69735   3.868  43.866  13.312
 8315W        W69736  21.560  17.256  13.948
 8316W        W69737  17.266  29.161  13.487
 8317W        W69738  18.205  18.620  12.521
 8318W        W69739  43.803  20.612  12.836
 8319W        W69740  22.663  16.232  12.412
 8320W        W69741  22.176  24.696  10.538
 8321W        W69742  12.647  43.373  11.096
 8322W        W69743   9.228  11.370   2.204
 8323W        W69744   5.914   2.745   9.999
 8324W        W69745  41.833   0.288   3.773
 8325W        W69746  20.038  24.661  12.059
 8326W        W69747  22.049   9.321  10.065
 8327W        W69748   5.319  14.336  10.947
 8328W        W69749   2.304  31.141   3.366
 8329W        W69750  11.777  11.648   2.295
 8330W        W69751   1.814  36.446   0.395
 8331W        W69752  15.275  33.109  10.110
 8332W        W69753  27.533  44.369  11.488
 8333W        W69754  23.215  30.911  10.435
 8334W        W69755  25.560  35.937  11.865
 8335W        W69756  23.577  39.388   2.883
 8336W        W69757  41.953   8.351   1.281
 8337W        W69758  17.262  38.482   2.865
 8338W        W69759  16.608  44.887  12.545
 8339W        W69760  44.845  20.252  14.997
 8340W        W69761  34.950  33.947  14.275
 8341W        W69762  27.627  14.813   0.289
 8342W        W69763  10.843   8.209  14.840
 8343W        W69764  40.848   2.727  14.903
 8344W        W69765  32.919  36.508  14.421
 8345W        W69766   6.341  44.389   4.700
 8346W        W69767  40.018   8.844  12.921
 8347W        W69768   6.776   0.829   1.395
 8348W        W69769   2.934  29.661   1.365
 8349W        W69770  12.821  31.446   0.810
 8350W        W69771  22.112  26.081  11.965
 8351W        W69772   2.855   4.400  12.477
 8352W        W69773  26.136  18.687  12.973
 8353W        W69774  19.082  19.180  14.909
 8354W        W69775  36.527   3.304  11.428
 8355W        W69776  37.396  16.714   4.782
 8356W        W69777   6.724  20.262   2.205
 8357W        W69778  13.665  29.511  10.490
 8358W        W69779  29.627  39.476  14.848
 8359W        W69780   1.309  40.801  12.031
 8360W        W69781  37.856  20.096  12.983
 8361W        W69782  27.536  11.289  14.992
 8362W        W69783  39.393  18.784  10.599
 8363W        W69784  21.585  22.200   4.689
 8364W        W69785   1.455  11.753  12.089
 8365W        W69786   1.448  20.105  11.999
 8366W        W69787  18.104  24.679  12.010
 8367W        W69788  16.126  22.533   9.920
 8368W        W69789  25.142  31.946   3.370
 8369W        W69790   8.198  39.937  14.778
 8370W        W69791  15.138  38.934   0.305
 8371W        W69792  18.070   3.796   1.319
 8372W        W69793  30.161   3.457  10.999
 8373W        W69794  13.308   8.833   1.883
 8374W        W69795  30.949  17.225   3.738
 8375W        W69796  19.656  31.454  12.992
 8376W        W69797  24.088  28.596  14.374
 8377W        W69798  31.103  43.914  14.502
 8378W        W69799  42.475  13.724   1.419
 8379W        W69800  32.451  24.092  11.381
 8380W        W69801  40.867  24.525  11.494
 8381W        W69802  29.011  43.415   0.814
 8382W        W69803   0.387  19.688  13.381
 8383W        W69804  25.525  10.358  12.482
 8384W        W69805  27.610  26.972   4.827
 8385W        W69806  32.897  14.272  11.510
 8386W        W69807  41.936  31.562   4.162
 8387W        W69808   3.264  42.449  12.051
 8388W        W69809  12.293  30.004   0.447
 8389W        W69810  14.663  28.658   3.835
 8390W        W69811  10.354  12.293   1.392
 8391W        W69812  27.980  14.123   1.897
 8392W        W69813  44.897  23.135   4.126
 8393W        W69814  18.650  40.385  11.519
 8394W        W69815  36.574   5.762  14.873
 8395W        W69816  32.587  15.763  12.024
 8396W        W69817   0.856  15.265  11.855
 8397W        W69818   8.310  15.185  10.591
 8398W        W69819  11.653   5.394  12.895
 8399W        W69820  27.607  22.550  14.012
 8400W        W69821  21.673  42.375  12.502
 8401W        W69822  25.543  44.305  11.482
 8402W        W69823   2.256  14.687  11.021
 8403W        W69824  23.237  24.646  14.983
 8404W        W69825  15.292  32.443  10.531
 8405W        W69826  36.351  10.355  13.954
 8406W        W69827  10.306  27.110   2.336
 8407W        W69828  21.757  40.821   3.680
 8408W        W69829   8.312   6.277   1.418
 8409W        W69830  23.506  41.516   3.771
 8410W        W69831  23.658   3.750   4.207
 8411W        W69832   2.859  25.978  14.950
 8412W        W69833  32.087   8.746  14.461
 8413W        W69834   2.341  24.995  13.471
 8414W        W69835   2.857  23.591   4.601
 8415W        W69836   1.852  15.176   1.883
 8416W        W69837   3.761   7.903   3.333
 8417W        W69838  16.285   6.872   0.334
 8418W        W69839  16.118  41.993  14.778
 8419W        W69840   5.364  31.113  10.941
 8420W        W69841  18.103  21.635  13.374
 8421W        W69842   6.898  16.152  13.837
 8422W        W69843   0.382  37.996   3.859
 8423W        W69844  43.778  36.571  13.317
 8424W        W69845   7.806  11.660  12.943
 8425W        W69846   4.860  27.093  13.317
 8426W        W69847  24.644  27.031  13.547
 8427W        W69848   6.878   0.420  11.453
 8428W        W69849   6.408   2.782  14.790
 8429W        W69850  12.131  33.463  10.481
 8430W        W69851  31.120  10.338  12.832
 8431W        W69852  43.963  41.861  13.937
 8432W        W69853   6.425  38.839  13.845
 8433W        W69854   6.773  13.606   3.662
 8434W        W69855  41.372  11.796   4.633
 8435W        W69856  29.634  26.654  14.783
 8436W        W69857  43.859  42.022  11.907
 8437W        W69858  27.472   4.796  14.029
 8438W        W69859   7.721  22.045   4.155
 8439W        W69860  28.155  41.468   0.797
 8440W        W69861  19.112  35.514   4.735
 8441W        W69862  13.231  23.719   3.733
 8442W        W69863  38.847  27.586  13.378
 8443W        W69864  19.105  26.613   2.893
 8444W        W69865  32.901  43.912  13.016
 8445W        W69866  40.395   5.199  12.544
 8446W        W69867  40.310   0.388  12.972
 8447W        W69868   2.332  43.860   3.177
 8448W        W69869  25.131  34.902   4.732
 8449W        W69870  32.977  39.892   0.902
 8450W        W69871  35.575  15.312   0.782
 8451W        W69872  27.155  24.636  14.513
 8452W        W69873  10.855  21.730  11.483
 8453W        W69874  24.575  40.005   2.865
 8454W        W69875   8.677  38.915   2.394
 8455W        W69876  17.782  33.496  14.768
 8456W        W69877  21.227  20.748   0.778
 8457W        W69878  37.447  29.479  13.429
 8458W        W69879   9.196  18.790  13.318
 8459W        W69880  35.468  21.048  10.488
 8460W        W69881  24.614  41.386   3.684
 8461W        W69882   1.275  12.628  13.883
 8462W        W69883  13.321  24.131  11.545
 8463W        W69884  17.628  27.189  12.527
 8464W        W69885   0.290  16.787   2.668
 8465W        W69886  22.608  44.763   3.655
 8466W        W69887  39.021  11.694   3.646
 8467W        W69888   8.341   8.242   4.346
 8468W        W69889  34.888  27.097  11.094
 8469W        W69890  43.836  14.804   3.368
 8470W        W69891  18.108  11.307  11.889
 8471W        W69892  24.130  28.984  14.901
 8472W        W69893  44.352  24.489  13.501
 8473W        W69894  15.113   1.734   1.721
 8474W        W69895  43.859   9.839  11.430
 8475W        W69896   7.202  28.640  13.837
 8476W        W69897   0.834  41.907   3.275
 8477W        W69898  10.151   1.339  12.039
 8478W        W69899  31.411  24.124  12.972
 8479W        W69900  39.058  37.936   3.699
 8480W        W69901  40.368  42.387   3.653
 8481W        W69902   5.352  40.885  13.805
 8482W        W69903  18.720   2.742   0.438
 8483W        W69904   1.269  22.615   0.790
 8484W        W69905   9.674   8.302  11.947
 8485W        W69906  20.646  26.587  10.564
 8486W        W69907  37.482  40.988   3.312
 8487W        W69908  32.949  36.581  10.606
 8488W        W69909  24.150  32.614  11.547
 8489W        W69910   3.298  32.887  12.086
 8490W        W69911  16.598  43.944  14.356
 8491W        W69912  14.785  14.160   0.764
 8492W        W69913   1.913  44.960  12.086
 8493W        W69914  18.181  26.598   3.745
 8494W        W69915   5.223  28.074   9.639
 8495W        W69916  32.947   1.829   0.365
 8496W        W69917   0.929  14.812  11.125
 8497W        W69918   6.716  24.668   1.435
 8498W        W69919  15.257  42.880   3.277
 8499W        W69920  25.042  20.536   1.930
 8500W        W69921  29.560  30.027   2.676
 8501W        W69922  10.747  35.479   3.747
 8502W        W69923  13.217  40.503   1.294
 8503W        W69924  22.006  37.963   1.795
 8504W        W69925  41.919  24.075   0.897
 8505W        W69926  43.855  43.368  14.965
 8506W        W69927  42.796  26.498   2.409
 8507W        W69928  17.144  41.832   4.240
 8508W        W69929   0.275   3.865   2.747
 8509W        W69930  41.839  19.747  14.471
 8510W        W69931  44.399  22.218  11.861
 8511W        W69932  29.456  40.539  11.430
 8512W        W69933  29.079   4.289   4.296
 8513W        W69934  32.607  43.973   0.782
 8514W        W69935  29.638  40.907  12.010
 8515W        W69936  36.084  11.309   0.963
 8516W        W69937  39.389   1.768  12.078
 8517W        W69938  23.239  44.967   3.710
 8518W        W69939  27.500  39.966   2.669
 8519W        W69940  39.444  37.981  12.825
 8520W        W69941  36.380   8.673   9.967
 8521W        W69942  25.173  23.127  11.413
 8522W        W69943  13.803  31.619   3.295
 8523W        W69944   2.321  24.082  14.781
 8524W        W69945  33.919   2.271   4.795
 8525W        W69946  31.935  27.074   3.674
 8526W        W69947  35.434  30.553  11.882
 8527W        W69948  18.183  20.028  11.998
 8528W        W69949  14.728  13.757  14.512
 8529W        W69950  12.285   8.700  11.448
 8530W        W69951  22.672  25.087  11.611
 8531W        W69952  36.869  15.655   0.751
 8532W        W69953  24.217  17.640  14.861
 8533W        W69954  23.190  34.399   1.212
 8534W        W69955  43.979  40.333   3.177
 8535W        W69956  22.732  27.593   2.386
 8536W        W69957  14.706  29.105   0.285
 8537W        W69958   9.222  12.245   0.276
 8538W        W69959  12.773  29.588   3.718
 8539W        W69960  34.881  43.883  13.838
 8540W        W69961  24.615  27.083   0.290
 8541W        W69962  12.142  10.182   1.228
 8542W        W69963  39.941  37.515  13.380
 8543W        W69964  27.115  43.012   1.285
 8544W        W69965  23.158   7.811  11.865
 8545W        W69966   6.757  14.231   1.357
 8546W        W69967  14.216   7.789   3.687
 8547W        W69968  32.433  15.230  14.464
 8548W        W69969  13.285  43.425   4.748
 8549W        W69970  43.479  26.129  13.806
 8550W        W69971   8.760  40.942   1.792
 8551W        W69972  41.466   3.746  11.932
 8552W        W69973  28.587  14.632   2.835
 8553W        W69974  27.084  26.584  14.875
 8554W        W69975  31.562  21.179   3.166
 8555W        W69976  42.474  36.034   0.779
 8556W        W69977  16.302  18.714  12.367
 8557W        W69978  37.486  36.007  11.414
 8558W        W69979  22.537  32.027   1.346
 8559W        W69980  22.581  22.189   4.720
 8560W        W69981  42.439  24.520   4.772
 8561W        W69982  18.181  31.060   2.844
 8562W        W69983  25.133  11.168   3.352
 8563W        W69984  13.193   4.381  13.405
 8564W        W69985  44.945  16.096  11.927
 8565W        W69986   0.262  21.624  10.973
 8566W        W69987  10.760   6.774  14.920
 8567W        W69988  34.897  43.270  10.942
 8568W        W69989  31.096  18.680   2.799
 8569W        W69990  11.772  37.048   3.204
 8570W        W69991  37.452  13.687   0.363
 8571W        W69992  32.986  23.611  14.324
 8572W        W69993  37.348  42.431  13.911
 8573W        W69994  10.816  29.444   3.234
 8574W        W69995  13.663  30.648   1.782
 8575W        W69996  44.279  21.157   1.804
 8576W        W69997  33.559   8.716  14.031
 8577W        W69998  14.314  25.649  11.013
 8578W        W69999  13.644  39.427   0.828
 8579W        W70000  21.036  21.137   0.753
 8580W        W70001  23.079  13.199   4.797
 8581W        W70002  11.268  17.687   1.236
 8582W        W70003  23.142  20.667  11.450
 8583W        W70004  14.275  27.557  10.101
 8584W        W70005   5.781   3.232  14.862
 8585W        W70006   9.789  37.856  11.042
 8586W        W70007   3.385  37.911   1.741
 8587W        W70008  33.557   5.374  11.951
 8588W        W70009  35.466  37.866  10.904
 8589W        W70010  27.469  16.701  12.997
 8590W        W70011  37.844   7.359   0.335
 8591W        W70012  40.818  36.861  14.914
 8592W        W70013  10.180  27.554  11.970
 8593W        W70014   6.210  11.263  11.395
 8594W        W70015  24.668  35.005  10.602
 8595W        W70016  41.497  15.802   0.765
 8596W        W70017  11.812   9.674   1.708
 8597W        W70018   6.301  12.259  14.384
 8598W        W70019  24.138  42.458   4.635
 8599W        W70020   2.335  18.093  11.959
 8600W        W70021  25.205  13.640  12.568
 8601W        W70022   6.384  37.032   1.257
 8602W        W70023  25.687  39.527  13.018
 8603W        W70024  13.156  29.614   0.445
 8604W        W70025   6.297  39.856  13.861
 8605W        W70026   3.341  23.593  14.900
 8606W        W70027  18.069  43.412   4.820
 8607W        W70028  44.981  31.538  12.457
 8608W        W70029  25.018  35.394   3.703
 8609W        W70030   1.263   9.273  14.849
 8610W        W70031  44.913  22.017  11.893
 8611W        W70032  27.996  13.736  13.418
 8612W        W70033  42.469  37.543   3.759
 8613W        W70034  30.618   1.481  10.596
 8614W        W70035  37.934  17.784   4.279
 8615W        W70036   9.171  24.050  12.094
 8616W        W70037  40.396  26.577  13.010
 8617W        W70038  43.308  28.969   3.698
 8618W        W70039  40.844   8.731   2.812
 8619W        W70040  43.484  41.328   3.315
 8620W        W70041   6.268   5.267  10.439
 8621W        W70042  43.396   0.282   3.151
 8622W        W70043  16.581   5.752   4.669
 8623W        W70044  19.245   1.808  10.521
 8624W        W70045  37.411   6.852  14.278
 8625W        W70046  36.571  29.642   1.837
 8626W        W70047   7.366   5.696   4.794
 8627W        W70048  21.121  12.245  12.934
 8628W        W70049  40.334  10.171  10.157
 8629W        W70050  40.980  20.081  12.985
 8630W        W70051   1.354   8.665  10.895
 8631W        W70052  20.203  27.536  13.839
 8632W        W70053  14.174   1.949   0.758
 8633W        W70054  44.898  10.643   2.415
 8634W        W70055  39.404  37.060   1.246
 8635W        W70056  41.520  26.138  10.451
 8636W        W70057  29.163  31.928  14.961
 8637W        W70058  40.382   4.744  12.987
 8638W        W70059  10.261  30.564  10.160
 8639W        W70060  29.032  34.000  13.548
 8640W        W70061  33.489  17.200  11.559
 8641W        W70062  30.447  14.609  13.523
 8642W        W70063  29.002  25.120  14.030
 8643W        W70064   6.685  17.605  10.914
 8644W        W70065  29.125  11.252  12.496
 8645W        W70066  17.213  40.542  10.441
 8646W        W70067   1.792  24.596  11.015
 8647W        W70068  15.148  17.752  13.484
 8648W        W70069  12.812  40.987  14.809
 8649W        W70070  22.587  34.999  12.877
 8650W        W70071  14.796  28.477   2.296
 8651W        W70072  20.213  36.544  12.965
 8652W        W70073  35.971  22.539  10.470
 8653W        W70074  33.605  13.831  13.498
 8654W        W70075  35.071  30.505  12.929
 8655W        W70076  31.005   9.870   4.748
 8656W        W70077  32.584   1.377  11.546
 8657W        W70078  14.268  21.040   4.332
 8658W        W70079  36.059  29.617  11.528
 8659W        W70080  30.097  37.003  10.991
 8660W        W70081   7.775  35.542  11.490
 8661W        W70082  13.783  13.622   4.170
 8662W        W70083  29.503   5.230   1.851
 8663W        W70084  42.421  15.254   4.176
 8664W        W70085  14.230  26.041  14.882
 8665W        W70086  14.729  25.994  13.989
 8666W        W70087  36.412  37.413   0.961
 8667W        W70088  38.559  17.136  12.035
 8668W        W70089   3.735  21.126  14.010
 8669W        W70090   0.381  37.537   3.778
 8670W        W70091  18.151  28.115   3.192
 8671W        W70092  18.787  40.996  14.025
 8672W        W70093   7.380  25.185   3.219
 8673W        W70094  16.119  36.966   4.764
 8674W        W70095   1.916  28.592  12.413
 8675W        W70096   8.339  41.846   3.236
 8676W        W70097  27.645  25.528   3.257
 8677W        W70098  31.406  26.499  13.021
 8678W        W70099  39.559  31.569  14.300
 8679W        W70100  12.729  43.898   4.271
 8680W        W70101   3.391   8.256  14.362
 8681W        W70102   3.740  43.322  14.280
 8682W        W70103   5.339  26.561   5.309
 8683W        W70104   5.765   1.788   0.417
 8684W        W70105  30.985  16.794   9.999
 8685W        W70106  29.500  10.671  10.451
 8686W        W70107  21.258   9.795   3.307
 8687W        W70108   6.273  12.670   3.684
 8688W        W70109   5.363  40.822  12.981
 8689W        W70110   7.178  16.707   1.882
 8690W        W70111   0.311  36.436  14.832
 8691W        W70112   5.283   5.260   2.340
 8692W        W70113  22.057   0.919  11.930
 8693W        W70114  28.086  22.057  12.573
 8694W        W70115  11.666  18.276  14.480
 8695W        W70116  23.736  12.168   0.356
 8696W        W70117   7.289  38.468   1.390
 8697W        W70118   9.290  30.040   4.271
 8698W        W70119   6.678  41.790   0.419
 8699W        W70120  44.430   5.431   0.470
 8700W        W70121  21.172   4.907   3.761
 8701W        W70122  21.054  10.673  11.081
 8702W        W70123  24.485  11.853   2.219
 8703W        W70124  23.596  20.068  12.855
 8704W        W70125  15.323   2.404  12.037
 8705W        W70126  30.019  14.795   3.170
 8706W        W70127   5.206  22.086   1.388
 8707W        W70128  20.105  11.632   2.332
 8708W        W70129  26.108  16.776   2.399
 8709W        W70130  44.328  12.275  11.964
 8710W        W70131  21.192  25.659   2.891
 8711W        W70132  17.782  44.279   0.821
 8712W        W70133  19.079  16.146   3.203
 8713W        W70134  42.407  10.238  12.489
 8714W        W70135  28.181  42.513  12.908
 8715W        W70136   6.746   3.897   4.217
 8716W        W70137  34.988   9.310  10.587
 8717W        W70138  24.175  42.459  14.963
 8718W        W70139  44.860   7.832  13.460
 8719W        W70140  42.926  32.592   0.351
 8720W        W70141  12.312   1.458   0.336
 8721W        W70142  16.225  31.478  10.404
 8722W        W70143  19.574  25.647  13.343
 8723W        W70144  43.893   4.725   3.742
 8724W        W70145  17.565  34.065  11.102
 8725W        W70146  32.407   2.729   3.815
 8726W        W70147  33.885  15.815   0.751
 8727W        W70148  31.016  41.888  11.572
 8728W        W70149  23.525  30.563  13.352
 8729W        W70150  16.284  24.696   2.718
 8730W        W70151   8.834  26.058  14.961
 8731W        W70152  19.691  32.077   0.930
 8732W        W70153  13.834  14.668   2.300
 8733W        W70154  24.526  43.504   0.412
 8734W        W70155  43.291   1.940   4.155
 8735W        W70156  32.939   9.801   1.361
 8736W        W70157  11.670  43.916  10.407
 8737W        W70158  43.323   2.265  14.317
 8738W        W70159  29.570   7.300   4.134
 8739W        W70160   1.439  30.065  11.014
 8740W        W70161   1.937  11.175   2.387
 8741W        W70162  17.571  44.498   3.841
 8742W        W70163  30.041  16.226  12.851
 8743W        W70164  38.869  35.571   2.782
 8744W        W70165  42.024  36.094   0.866
 8745W        W70166  19.124  40.439   1.788
 8746W        W70167   2.953  14.756  12.542
 8747W        W70168  44.418  40.816   2.788
 8748W        W70169  10.226  42.891  11.898
 8749W        W70170  29.488  32.011   0.303
 8750W        W70171  36.361  26.501  13.845
 8751W        W70172  14.713  12.284  11.544
 8752W        W70173  30.095  11.666   2.673
 8753W        W70174  29.649  25.971  13.985
 8754W        W70175  37.423  28.167  12.398
 8755W        W70176  15.170  35.583   4.688
 8756W        W70177   0.796  16.178   4.827
 8757W        W70178  27.557  13.290   0.296
 8758W        W70179   5.436  41.371  12.523
 8759W        W70180  43.932   4.733   0.361
 8760W        W70181   3.904  37.399  12.858
 8761W        W70182  42.453  32.462   1.225
 8762W        W70183  13.757   8.173  13.855
 8763W        W70184   9.364  23.019  11.471
 8764W        W70185  23.148  17.173   0.265
 8765W        W70186  20.127  38.913  12.077
 8766W        W70187   7.767  20.681   0.286
 8767W        W70188  43.009   9.166  14.478
 8768W        W70189  20.251  22.176  13.812
 8769W        W70190  39.959  38.486   3.799
 8770W        W70191  38.000  21.122  12.850
 8771W        W70192   3.726  39.999  10.956
 8772W        W70193   0.942   6.695   4.618
 8773W        W70194  44.282  36.881   5.089
 8774W        W70195  22.567  18.170   3.231
 8775W        W70196  23.224  29.079   3.241
 8776W        W70197  34.891   0.900  13.013
 8777W        W70198   9.241  32.520   3.373
 8778W        W70199   5.849  20.064   2.291
 8779W        W70200  44.832  35.538   3.816
 8780W        W70201  26.080   4.941   0.841
 8781W        W70202  39.524   7.250   0.286
 8782W        W70203  11.185   0.845   1.421
 8783W        W70204  41.832  19.656  12.836
 8784W        W70205  20.113  40.370   3.814
 8785W        W70206  40.001  39.542   0.464
 8786W        W70207  23.691   5.393   1.885
 8787W        W70208  36.890  11.329   3.825
 8788W        W70209  22.733  12.663  11.501
 8789W        W70210   8.181  18.566   1.237
 8790W        W70211   4.778  14.195   4.611
 8791W        W70212  25.611   2.466  11.610
 8792W        W70213   0.751  40.447  14.775
 8793W        W70214  21.542   5.760   0.761
 8794W        W70215  25.012  12.798   1.927
 8795W        W70216  23.002  21.711  13.900
 8796W        W70217   5.691  14.638   3.687
 8797W        W70218  21.524  18.130   3.376
 8798W        W70219  32.609  14.664   0.741
 8799W        W70220  44.418   2.360  10.947
 8800W        W70221  22.090  11.368  12.555
 8801W        W70222  44.857  10.290   0.937
 8802W        W70223   0.905  20.154  10.522
 8803W        W70224  28.997   1.462  11.893
 8804W        W70225  43.336  36.913  12.419
 8805W        W70226   9.724  44.348   1.827
 8806W        W70227  26.159  34.999   3.333
 8807W        W70228  21.576   2.266   3.289
 8808W        W70229  19.641  21.222   4.200
 8809W        W70230   2.374  44.340  12.096
 8810W        W70231   6.747  14.112  14.859
 8811W        W70232  24.974  28.131  11.952
 8812W        W70233   8.698  15.128  11.050
 8813W        W70234  43.469  24.529  10.572
 8814W        W70235  34.019  23.635   0.841
 8815W        W70236  14.271  24.081   4.114
 8816W        W70237  13.770  24.562   2.677
 8817W        W70238  44.795  41.819  12.560
 8818W        W70239  27.066  22.665   0.366
 8819W        W70240  20.084  34.574  14.919
 8820W        W70241  43.900  23.663  12.538
 8821W        W70242  36.348   6.269   0.351
 8822W        W70243  26.643  36.923  13.912
 8823W        W70244  11.250   2.749   1.421
 8824W        W70245   1.319  20.622   4.700
 8825W        W70246   4.876  13.269  10.517
 8826W        W70247  43.776   9.185   2.808
 8827W        W70248   8.280  40.522   1.903
 8828W        W70249   2.282  25.626  13.340
 8829W        W70250  33.390  28.531  14.482
 8830W        W70251   1.464  24.691   4.310
 8831W        W70252  19.127  12.844  13.310
 8832W        W70253  15.722  34.078   1.358
 8833W        W70254  15.591  16.276  12.085
 8834W        W70255  14.325  15.643   1.269
 8835W        W70256  28.510  26.179   2.878
 8836W        W70257  24.049  27.470   3.150
 8837W        W70258  15.805  30.097   1.737
 8838W        W70259   4.830  22.520   2.775
 8839W        W70260   3.879  39.418  14.405
 8840W        W70261  37.851  22.206  12.074
 8841W        W70262  23.003  16.616  14.402
 8842W        W70263  17.266   6.340   2.380
 8843W        W70264  26.692  27.108  12.450
 8844W        W70265  19.200  42.451   3.707
 8845W        W70266  21.227  30.908   3.754
 8846W        W70267  21.134  16.714  12.344
 8847W        W70268  19.052   5.822  13.969
 8848W        W70269  35.054  14.185  13.434
 8849W        W70270   2.302   9.251   0.797
 8850W        W70271  33.987  33.419  11.482
 8851W        W70272  22.714   0.370  12.066
 8852W        W70273  11.810  33.510   4.661
 8853W        W70274  34.414  21.584   0.459
 8854W        W70275  11.684  28.628   4.174
 8855W        W70276  25.966  36.013   0.383
 8856W        W70277   3.825   6.241  10.478
 8857W        W70278  25.557  10.284  14.956
 8858W        W70279  30.508  43.385  13.323
 8859W        W70280  36.870   3.749  12.452
 8860W        W70281  37.839  35.888   3.862
 8861W        W70282  28.595  36.351   2.257
 8862W        W70283  28.962   9.360   1.844
 8863W        W70284  33.433   8.870   4.236
 8864W        W70285  16.765   9.309  13.865
 8865W        W70286  41.516  38.036   4.344
 8866W        W70287  14.298  39.519  12.025
 8867W        W70288  23.209   4.321  13.341
 8868W        W70289   6.349  30.118   3.299
 8869W        W70290   7.857  20.694  12.017
 8870W        W70291  19.555  42.804   0.473
 8871W        W70292  44.946  19.142   4.683
 8872W        W70293  11.656  30.064   4.251
 8873W        W70294  42.521  19.089   0.276
 8874W        W70295  17.204  37.449   1.921
 8875W        W70296  30.024   7.406   4.823
 8876W        W70297  15.133  33.980  12.077
 8877W        W70298   4.283  19.169   0.424
 8878W        W70299   1.750  28.498   3.721
 8879W        W70300   8.663  15.714   1.379
 8880W        W70301  19.235  25.997   4.351
 8881W        W70302  12.814  13.827   1.315
 8882W        W70303  27.529  43.794  14.472
 8883W        W70304  41.026  13.725  13.462
 8884W        W70305  21.263   6.733   0.296
 8885W        W70306  27.636  31.403   0.901
 8886W        W70307  44.986  23.574   3.869
 8887W        W70308  30.161   1.924  11.603
 8888W        W70309  18.676  19.648  11.040
 8889W        W70310   1.341  25.976   5.270
 8890W        W70311  40.912  33.602   0.456
 8891W        W70312  44.962  30.140  13.018
 8892W        W70313  24.001  24.995   3.200
 8893W        W70314  11.842   6.694  10.443
 8894W        W70315   4.227  25.069  11.018
 8895W        W70316  37.546  44.784  12.503
 8896W        W70317  13.153  33.457  10.474
 8897W        W70318  30.959   7.188   4.738
 8898W        W70319   8.175  32.903  12.493
 8899W        W70320  29.956   8.686  13.891
 8900W        W70321  35.441   1.777  13.054
 8901W        W70322  40.949  15.224   5.708
 8902W        W70323  32.142  34.406  11.518
 8903W        W70324  30.072  19.738   3.217
 8904W        W70325  40.332  32.910   3.153
 8905W        W70326  19.144  43.860  13.474
 8906W        W70327  33.914  33.878  14.903
 8907W        W70328  44.818  27.479   4.290
 8908W        W70329  42.392  22.542  14.350
 8909W        W70330  16.754   3.256   3.689
 8910W        W70331   7.880  24.120   0.910
 8911W        W70332  41.903  23.992  13.396
 8912W        W70333  44.320  29.927  11.036
 8913W        W70334  24.574  30.943   2.271
 8914W        W70335  33.393   3.842  13.855
 8915W        W70336  24.146  15.739  11.897
 8916W        W70337  28.599  26.683  13.397
 8917W        W70338  43.925  41.904  10.972
 8918W        W70339  26.998  28.999   0.259
 8919W        W70340   4.780  22.716   1.408
 8920W        W70341  43.349  36.502   4.280
 8921W        W70342  20.567  40.339  11.074
 8922W        W70343  36.992  11.733  12.842
 8923W        W70344   3.741   6.300  12.966
 8924W        W70345   4.401   8.332  14.928
 8925W        W70346  25.558   4.919   2.819
 8926W        W70347  40.974   1.437   1.701
 8927W        W70348  28.074  26.486   2.799
 8928W        W70349  34.395  39.866  10.462
 8929W        W70350  29.090   5.431   4.146
 8930W        W70351  31.044  34.894   9.945
 8931W        W70352  43.972  36.370  11.599
 8932W        W70353   9.710  33.900   1.317
 8933W        W70354  24.672   0.818  13.521
 8934W        W70355   5.862  37.060   3.254
 8935W        W70356  14.259   3.280   3.773
 8936W        W70357  38.374  32.110   4.354
 8937W        W70358   5.204  19.235   3.768
 8938W        W70359  21.513  35.009   2.190
 8939W        W70360   5.301  27.636   5.801
 8940W        W70361  26.043  12.339  13.451
 8941W        W70362  23.619  27.624  14.420
 8942W        W70363  41.962  14.160   1.279
 8943W        W70364  32.530  33.084   2.289
 8944W        W70365  41.484  41.967  14.988
 8945W        W70366  41.496  32.598   2.408
 8946W        W70367  20.751  15.634  14.441
 8947W        W70368   5.696  18.174   0.275
 8948W        W70369  15.683  25.655   3.703
 8949W        W70370  39.500   2.825   2.364
 8950W        W70371  13.117  18.145   2.365
 8951W        W70372  25.714  24.184  13.472
 8952W        W70373  33.987  28.564  11.384
 8953W        W70374  12.846   0.350  14.971
 8954W        W70375   4.292   7.222   2.683
 8955W        W70376  40.821  37.978  13.003
 8956W        W70377   8.243  23.149  14.286
 8957W        W70378  23.116  41.996  10.898
 8958W        W70379  21.172  43.362   1.263
 8959W        W70380  36.081  40.899   1.370
 8960W        W70381   4.380  34.404  12.937
 8961W        W70382  16.254  15.323  14.385
 8962W        W70383  40.860  33.953  10.471
 8963W        W70384  13.302  12.338   1.842
 8964W        W70385  16.660   1.328   4.321
 8965W        W70386   7.350  18.270   2.192
 8966W        W70387  22.579   9.329  12.040
 8967W        W70388  42.939  22.159   0.881
 8968W        W70389  29.129  27.641  13.797
 8969W        W70390   8.193  42.969  14.359
 8970W        W70391   2.896  27.073   2.338
 8971W        W70392  21.716   7.809   1.232
 8972W        W70393  12.257   8.677  10.626
 8973W        W70394  31.149  29.953  14.852
 8974W        W70395  13.146  42.433   3.188
 8975W        W70396  35.037  13.135   0.313
 8976W        W70397  39.814  20.627  11.401
 8977W        W70398  39.006   2.808  11.472
 8978W        W70399  38.486  29.920   4.735
 8979W        W70400   8.376   3.881   4.197
 8980W        W70401  32.551   3.732   2.679
 8981W        W70402  17.625  20.051  13.476
 8982W        W70403  28.161   6.343   4.654
 8983W        W70404  11.204  43.879   3.658
 8984W        W70405   4.423  39.851   3.730
 8985W        W70406   4.928  19.231   3.359
 8986W        W70407  10.853   1.365  13.966
 8987W        W70408   6.249   5.368  13.518
 8988W        W70409   7.277  29.125  10.592
 8989W        W70410  29.571  21.088   1.879
 8990W        W70411  35.444  29.057   1.340
 8991W        W70412  24.545  43.454  11.570
 8992W        W70413  44.926  12.663  14.465
 8993W        W70414  21.181  27.474   4.180
 8994W        W70415  15.284  25.654   2.858
 8995W        W70416  13.121   8.869  14.294
 8996W        W70417   9.366  34.992  14.499
 8997W        W70418  14.617  30.969  11.439
 8998W        W70419  33.492  24.122   1.841
 8999W        W70420  17.147   3.738   0.814
 9000W        W70421  29.980  22.519  13.961
 9001W        W70422  19.633  21.117  10.050
 9002W        W70423  30.068  21.581   0.793
 9003W        W70424   0.378  11.648  13.045
 9004W        W70425  37.831  22.128   0.877
 9005W        W70426   4.867  33.064  13.863
 9006W        W70427   6.288   2.442  11.128
 9007W        W70428  18.260  10.156  10.576
 9008W        W70429   0.278  43.922  11.056
 9009W        W70430  38.884  36.928  11.074
 9010W        W70431  35.524  36.410   1.832
 9011W        W70432   5.206  24.686   0.378
 9012W        W70433  32.941  30.930   0.934
 9013W        W70434   5.329  22.676  10.031
 9014W        W70435   9.717  44.964  10.463
 9015W        W70436  14.714  21.098   1.787
 9016W        W70437  36.411   5.894  11.374
 9017W        W70438  44.441  24.567  10.561
 9018W        W70439  37.566   5.298   1.211
 9019W        W70440   0.281   2.936   4.220
 9020W        W70441  21.731  15.778   5.257
 9021W        W70442  35.504  22.706  13.846
 9022W        W70443   3.736   1.922   2.824
 9023W        W70444  19.200  34.898   3.703
 9024W        W70445  34.474  17.303   1.844
 9025W        W70446   2.892  30.032   3.170
 9026W        W70447  20.624  33.434  13.039
 9027W        W70448   5.321   4.712  11.059
 9028W        W70449  30.561   7.291  10.965
 9029W        W70450  30.575  23.045   2.352
 9030W        W70451  22.526  16.279  14.481
 9031W        W70452  14.294  23.087  13.955
 9032W        W70453  23.200  12.281  13.036
 9033W        W70454  26.481  38.012  10.561
 9034W        W70455   9.320  14.823  11.071
 9035W        W70456  21.661  42.995   4.824
 9036W        W70457  40.540   2.810  11.116
 9037W        W70458   6.184  27.595  14.514
 9038W        W70459  43.370  32.984  11.540
 9039W        W70460  26.540  18.131  12.521
 9040W        W70461  21.085   0.473  13.484
 9041W        W70462   6.913   6.741   0.424
 9042W        W70463   3.365   7.347  11.450
 9043W        W70464  13.235  12.343   4.676
 9044W        W70465  12.176  41.024   3.156
 9045W        W70466  10.237  24.629   1.370
 9046W        W70467  39.872  27.534  12.906
 9047W        W70468   7.238  20.065   3.280
 9048W        W70469  32.006  23.037   3.220
 9049W        W70470  20.204  15.177   0.924
 9050W        W70471   6.819  17.067  14.948
 9051W        W70472  11.356  26.519  13.499
 9052W        W70473  41.813  28.521   0.923
 9053W        W70474  15.166  25.706  10.441
 9054W        W70475  26.599   1.808   4.159
 9055W        W70476  42.954  12.854  13.816
 9056W        W70477  36.969  29.514  10.932
 9057W        W70478  25.995  36.048  13.336
 9058W        W70479   0.471  20.576   4.312
 9059W        W70480  12.695  33.389  12.473
 9060W        W70481  12.252  15.699  10.922
 9061W        W70482  12.783  21.055   0.865
 9062W        W70483  25.603   5.815  11.054
 9063W        W70484  31.469  13.759  12.473
 9064W        W70485  42.934   5.730   1.780
 9065W        W70486  20.529  37.568   1.744
 9066W        W70487  12.766  20.273  14.794
 9067W        W70488  36.452  24.206  13.861
 9068W        W70489  41.893  25.698  13.031
 9069W        W70490  29.595  24.581   3.383
 9070W        W70491   9.393  36.394  11.611
 9071W        W70492  12.154  38.415  10.434
 9072W        W70493  30.478  19.149   2.410
 9073W        W70494   8.829  22.565   3.721
 9074W        W70495  28.022   7.182   0.734
 9075W        W70496  44.269  14.698  11.452
 9076W        W70497  40.414  10.696   0.861
 9077W        W70498  14.659  42.940   5.281
 9078W        W70499  41.879  15.662  11.096
 9079W        W70500  20.577  44.460  13.981
 9080W        W70501  25.619  44.272   2.890
 9081W        W70502  34.452  22.188  11.020
 9082W        W70503  42.931  22.998   2.872
 9083W        W70504  41.868   0.323  14.839
 9084W        W70505  28.653  13.706  14.508
 9085W        W70506   7.232  37.517   9.669
 9086W        W70507  27.020   2.721   2.260
 9087W        W70508  26.037  43.355  10.500
 9088W        W70509  44.426  42.469   3.301
 9089W        W70510  40.330   6.917   0.352
 9090W        W70511  24.659  26.021   0.414
 9091W        W70512  26.684  33.496  10.515
 9092W        W70513  41.351   1.323   1.930
 9093W        W70514  32.949  19.198   2.362
 9094W        W70515  43.929   6.319   2.719
 9095W        W70516  28.669  43.992  14.418
 9096W        W70517  26.953  11.776   3.754
 9097W        W70518   5.738  10.798  11.080
 9098W        W70519  36.956   3.868   0.371
 9099W        W70520  37.950  20.643  10.900
 9100W        W70521  13.344   3.932   2.262
 9101W        W70522   1.960  18.587  14.409
 9102W        W70523   6.183   8.222   3.654
 9103W        W70524  37.954  31.576  11.026
 9104W        W70525  24.657  36.057  11.443
 9105W        W70526  23.568  44.990   1.341
 9106W        W70527  10.147   9.388  11.110
 9107W        W70528  16.727  23.701  13.053
 9108W        W70529  11.741  25.064  11.530
 9109W        W70530  44.394   2.879   2.819
 9110W        W70531  39.901  15.824  14.403
 9111W        W70532  23.512  37.830  10.489
 9112W        W70533  44.264   0.283   3.725
 9113W        W70534  11.784  25.589   0.736
 9114W        W70535  18.622  27.627   0.287
 9115W        W70536  24.072  36.378  12.084
 9116W        W70537  39.554  15.277  11.581
 9117W        W70538  37.004  43.895  14.960
 9118W        W70539  25.504  17.190  14.312
 9119W        W70540  24.663  25.691  12.885
 9120W        W70541  40.916  12.856   3.197
 9121W        W70542  24.069  43.915  13.391
 9122W        W70543  12.853  14.615  12.842
 9123W        W70544  18.704   7.264   3.246
 9124W        W70545   8.184  37.391  12.084
 9125W        W70546  18.235  30.566   5.626
 9126W        W70547  24.479  44.866  11.438
 9127W        W70548  25.678  17.777  11.488
 9128W        W70549  36.502  38.003  10.990
 9129W        W70550  21.705   0.326  13.812
 9130W        W70551  24.575   2.921  10.420
 9131W        W70552  16.780  29.542  12.348
 9132W        W70553  41.993  37.029  14.847
 9133W        W70554   0.287   5.799  11.598
 9134W        W70555  14.250  35.056   3.695
 9135W        W70556  35.971   5.232   1.734
 9136W        W70557   8.776   9.291  11.489
 9137W        W70558  43.452  34.411  13.495
 9138W        W70559   1.770   8.891   4.191
 9139W        W70560  13.338  40.965  11.956
 9140W        W70561  39.496  44.838  10.515
 9141W        W70562  38.006   9.332  13.814
 9142W        W70563  30.607  25.029   3.243
 9143W        W70564  44.957   3.301   4.264
 9144W        W70565  25.601   1.938   0.378
 9145W        W70566  27.127  33.129   4.215
 9146W        W70567  22.998  13.162   3.809
 9147W        W70568  26.548  34.921  10.937
 9148W        W70569   4.940  17.687  14.882
 9149W        W70570   5.874   9.704  10.935
 9150W        W70571  33.993  28.475   3.292
 9151W        W70572  24.558  33.563  14.940
 9152W        W70573  33.891  38.991   0.811
 9153W        W70574  29.484  23.710   3.652
 9154W        W70575  12.838   8.729  12.845
 9155W        W70576  22.739  24.044   0.325
 9156W        W70577  20.673  30.470  10.964
 9157W        W70578  10.810   2.735   3.868
 9158W        W70579   6.197  18.056   3.815
 9159W        W70580  35.433   0.967   1.890
 9160W        W70581  16.804  26.462  14.487
 9161W        W70582  15.639  19.105   0.868
 9162W        W70583  40.841  17.649  13.473
 9163W        W70584   6.680  42.346   2.279
 9164W        W70585  42.884  19.555  14.959
 9165W        W70586   6.820  30.003   3.734
 9166W        W70587   3.781  12.750  10.569
 9167W        W70588  19.722   9.680   0.805
 9168W        W70589   9.294  12.200   1.316
 9169W        W70590  43.326  41.292   2.751
 9170W        W70591  21.549   8.310   4.673
 9171W        W70592   7.224   7.199   3.189
 9172W        W70593  33.888  38.931  14.000
 9173W        W70594   0.982  18.134  13.456
 9174W        W70595  16.640  12.317   1.909
 9175W        W70596  13.173  13.144   1.728
 9176W        W70597  40.308  38.911   9.938
 9177W        W70598  14.612  41.983  12.924
 9178W        W70599  11.186  34.077  11.553
 9179W        W70600  38.337  18.062  10.601
 9180W        W70601  15.178  18.747   0.815
 9181W        W70602  34.542  16.299  12.018
 9182W        W70603   8.728  29.508  14.411
 9183W        W70604  37.054  21.145   1.407
 9184W        W70605   2.909  21.252  10.619
 9185W        W70606  28.454  23.084  12.432
 9186W        W70607  41.908  11.722  14.859
 9187W        W70608  44.795  25.490   1.909
 9188W        W70609  14.825   2.391  12.906
 9189W        W70610  34.454   0.490  10.609
 9190W        W70611  37.572  10.220  13.909
 9191W        W70612  39.019  12.150   3.279
 9192W        W70613  39.938  35.895   4.821
 9193W        W70614  35.582  26.631   1.278
 9194W        W70615  38.982  37.444  12.512
 9195W        W70616  11.643  24.632   4.279
 9196W        W70617   9.833  14.632   3.380
 9197W        W70618   8.872  22.082  12.974
 9198W        W70619   5.847  40.044   0.827
 9199W        W70620  34.942  19.719  13.059
 9200W        W70621   6.189   5.437   0.920
 9201W        W70622  40.478  38.065  14.827
 9202W        W70623  24.082  25.083  10.126
 9203W        W70624  36.564   7.207   2.241
 9204W        W70625  29.999  41.988  12.867
 9205W        W70626  14.191  32.505   1.279
 9206W        W70627  22.544  43.804  14.875
 9207W        W70628  38.451  27.070  14.428
 9208W        W70629   1.359   1.971   5.568
 9209W        W70630  39.529  39.859  13.980
 9210W        W70631  27.644   8.817  11.511
 9211W        W70632  16.742  43.883  11.953
 9212W        W70633  43.369  40.801  12.843
 9213W        W70634  38.072   4.798  13.034
 9214W        W70635  10.266  17.702   1.422
 9215W        W70636  29.142  31.611   2.875
 9216W        W70637  16.110  19.239  14.495
 9217W        W70638  35.080  13.161  13.363
 9218W        W70639  32.459  32.454   4.329
 9219W        W70640  13.816  41.976  12.073
 9220W        W70641  27.967  22.590  13.350
 9221W        W70642   1.253  27.447   4.152
 9222W        W70643   1.311  34.372   2.802
 9223W        W70644  25.533  14.601   3.362
 9224W        W70645   1.876  37.363  14.379
 9225W        W70646   5.336  28.614   0.830
 9226W        W70647  24.053  26.542   1.272
 9227W        W70648  10.257  23.008  10.997
 9228W        W70649   7.417  41.803  11.059
 9229W        W70650  39.809  36.446   2.818
 9230W        W70651  29.175   3.917  11.057
 9231W        W70652  35.074  17.219   4.238
 9232W        W70653  40.932  10.807   2.360
 9233W        W70654   6.820  34.559   2.847
 9234W        W70655   4.903  22.686   0.810
 9235W        W70656  40.418   4.338  13.334
 9236W        W70657   8.899  43.487   3.781
 9237W        W70658   2.891   0.449  10.634
 9238W        W70659  35.958  19.543   4.698
 9239W        W70660  34.469  37.008   3.312
 9240W        W70661  23.190   8.685  12.578
 9241W        W70662  36.928  16.184  11.580
 9242W        W70663  32.634  30.584  10.893
 9243W        W70664  24.674  25.035  13.954
 9244W        W70665  23.679   1.461  10.623
 9245W        W70666  31.044  11.755   9.512
 9246W        W70667   6.780   4.442  10.919
 9247W        W70668  30.508  41.925  12.574
 9248W        W70669  33.397  12.343  12.090
 9249W        W70670  44.411  17.790   2.350
 9250W        W70671  22.729  27.629  13.424
 9251W        W70672  26.960  12.801   0.850
 9252W        W70673  30.942  42.518  12.371
 9253W        W70674  31.507  10.748   4.231
 9254W        W70675  26.172  21.610   1.872
 9255W        W70676  11.858  32.443   4.689
 9256W        W70677  22.158  38.571   3.331
 9257W        W70678  14.810  43.982  12.881
 9258W        W70679  24.122  28.079  14.337
 9259W        W70680  43.364   9.702  11.440
 9260W        W70681  39.820  44.355  14.436
 9261W        W70682  35.055  22.675   5.193
 9262W        W70683  19.586   8.757   1.888
 9263W        W70684   2.447  23.727  14.905
 9264W        W70685   8.226  21.671  11.907
 9265W        W70686  15.732  17.195  11.902
 9266W        W70687   7.877  18.054  14.415
 9267W        W70688  18.069  15.779  12.565
 9268W        W70689  32.903   5.236  14.815
 9269W        W70690  16.602   6.696  12.498
 9270W        W70691  20.189  36.023  13.419
 9271W        W70692  26.482  37.481  12.339
 9272W        W70693  39.385  31.484   3.865
 9273W        W70694   2.329  10.215  10.151
 9274W        W70695  33.413  30.104   2.794
 9275W        W70696  44.447  23.667   3.761
 9276W        W70697  26.119  26.579   2.677
 9277W        W70698  19.050  27.198   3.817
 9278W        W70699  27.450  23.239  13.469
 9279W        W70700  31.505  16.578  11.506
 9280W        W70701  38.343  17.149  10.971
 9281W        W70702  25.703  24.031   3.281
 9282W        W70703  37.577  12.248  14.478
 9283W        W70704  27.689  21.559   3.163
 9284W        W70705  36.871  39.816   2.320
 9285W        W70706  23.228  18.280   4.148
 9286W        W70707  33.967   8.886   4.654
 9287W        W70708  19.166  14.746   4.718
 9288W        W70709  38.996  20.611   0.771
 9289W        W70710   5.405  35.965   4.229
 9290W        W70711  30.021  35.412   4.149
 9291W        W70712   2.472   3.732  13.419
 9292W        W70713  21.670  25.215  12.984
 9293W        W70714  18.645  37.875  13.532
 9294W        W70715  10.343  32.430   4.722
 9295W        W70716  36.540  42.394  12.909
 9296W        W70717  37.517  21.020  10.913
 9297W        W70718  25.533  31.902  10.933
 9298W        W70719   7.353   2.770   2.410
 9299W        W70720  25.114   2.261  10.496
 9300W        W70721  37.437   4.210  14.282
 9301W        W70722   2.845   6.217  14.894
 9302W        W70723  30.658  32.900   0.320
 9303W        W70724  12.235  34.987   4.236
 9304W        W70725   4.310   4.300  11.468
 9305W        W70726  38.392  29.973   2.875
 9306W        W70727  24.112  39.937   3.697
 9307W        W70728  32.973  36.589  11.919
 9308W        W70729   3.427  28.648   0.949
 9309W        W70730  11.698  42.954   2.884
 9310W        W70731  17.226  25.712   4.162
 9311W        W70732  36.910  15.615  10.614
 9312W        W70733  37.988   4.210   2.663
 9313W        W70734  24.028  37.013   0.338
 9314W        W70735   0.324  16.284  13.959
 9315W        W70736  44.776  31.042  11.432
 9316W        W70737  21.574  24.108   4.799
 9317W        W70738   0.276  43.465   3.631
 9318W        W70739  44.896  21.580  12.364
 9319W        W70740  22.569   4.308  14.960
 9320W        W70741  14.125  17.777   1.360
 9321W        W70742  19.266  24.988   1.769
 9322W        W70743  41.428  24.720   4.187
 9323W        W70744  34.449  21.565  10.644
 9324W        W70745  41.011  42.377  11.486
 9325W        W70746  20.070  39.528  13.012
 9326W        W70747  44.870   3.845   3.344
 9327W        W70748   3.227  27.681  12.019
 9328W        W70749   2.884  29.524   3.376
 9329W        W70750   6.857  23.207  11.909
 9330W        W70751   2.948  30.534  12.567
 9331W        W70752  26.526  26.654   2.340
 9332W        W70753   6.272  35.534  11.010
 9333W        W70754  41.959   4.755   0.734
 9334W        W70755  44.767  38.569   0.319
 9335W        W70756  28.013  10.738  13.343
 9336W        W70757  38.961   5.404   2.182
 9337W        W70758  25.097  41.911   2.878
 9338W        W70759  41.890  36.934   0.436
 9339W        W70760  17.654   3.730   2.708
 9340W        W70761  11.636  18.250  14.774
 9341W        W70762  16.720  22.085  11.033
 9342W        W70763  21.628   3.401  10.991
 9343W        W70764  42.317  22.560   3.215
 9344W        W70765  36.849  44.417   2.838
 9345W        W70766   2.795  27.576   4.249
 9346W        W70767  26.036   8.714   1.309
 9347W        W70768  30.930   5.716   3.291
 9348W        W70769  44.393   8.314  14.810
 9349W        W70770  10.702   5.384  11.970
 9350W        W70771  36.945  36.452  12.476
 9351W        W70772  16.194  30.437   2.694
 9352W        W70773   4.332  16.796   2.892
 9353W        W70774  33.036  32.958  12.070
 9354W        W70775  16.306  22.687   3.307
 9355W        W70776  35.028  36.885  10.639
 9356W        W70777  35.978  34.560   4.277
 9357W        W70778   0.840  27.168  12.526
 9358W        W70779   6.783  41.956   1.709
 9359W        W70780  42.432  22.624   4.315
 9360W        W70781  10.795  27.670   0.434
 9361W        W70782  30.512  15.659  14.279
 9362W        W70783   8.789  23.502  11.451
 9363W        W70784  37.568  14.598  11.055
 9364W        W70785  27.530   1.312   4.196
 9365W        W70786  38.371   0.480   2.692
 9366W        W70787  13.800  16.569   3.326
 9367W        W70788  22.626   2.403   1.443
 9368W        W70789  11.245  24.098  14.288
 9369W        W70790   9.374  34.000   0.473
 9370W        W70791   6.693   2.885  12.043
 9371W        W70792  44.367  39.870   0.267
 9372W        W70793  33.958  43.970   0.341
 9373W        W70794   8.267  34.539   2.273
 9374W        W70795  37.942  23.666  10.475
 9375W        W70796  39.503   6.720  12.024
 9376W        W70797  28.576  44.803  13.871
 9377W        W70798  14.610  42.491   0.280
 9378W        W70799  21.601  22.118  13.478
 9379W        W70800  29.593   6.774   3.794
 9380W        W70801  11.137  23.593   4.204
 9381W        W70802  15.156   6.391  13.383
 9382W        W70803  22.177  19.280  13.431
 9383W        W70804   1.757  39.384   4.655
 9384W        W70805  14.226  31.474   1.695
 9385W        W70806  26.463  30.597  13.942
 9386W        W70807  20.033   7.781  12.852
 9387W        W70808  23.106  17.575  13.797
 9388W        W70809  36.095  33.934  11.030
 9389W        W70810   0.962  34.983   0.258
 9390W        W70811  41.353  13.623   1.897
 9391W        W70812  31.596  33.917  14.968
 9392W        W70813   5.799  14.805   4.830
 9393W        W70814  13.606  43.364  11.028
 9394W        W70815  33.439  11.702  13.320
 9395W        W70816  17.062   2.445   1.752
 9396W        W70817  38.034  25.018   5.164
 9397W        W70818   5.926  29.604  12.994
 9398W        W70819  40.385   2.418   4.672
 9399W        W70820  39.903  42.296  13.522
 9400W        W70821  33.519   7.259   3.241
 9401W        W70822  32.476  43.444  14.896
 9402W        W70823  11.668   3.854  12.067
 9403W        W70824  31.404  16.612  12.037
 9404W        W70825  35.603  31.589   1.344
 9405W        W70826  13.198  19.588  13.354
 9406W        W70827   7.885   5.859   0.276
 9407W        W70828  27.520  13.659  10.500
 9408W        W70829  32.606  40.843   4.699
 9409W        W70830  25.023   8.396  12.473
 9410W        W70831  26.088  19.233  11.433
 9411W        W70832  33.992  28.565   4.208
 9412W        W70833  27.534  35.926  12.578
 9413W        W70834  14.635  13.217  12.487
 9414W        W70835  19.564  40.341  12.478
 9415W        W70836  36.386  17.098   3.850
 9416W        W70837  22.646   4.287   1.426
 9417W        W70838   6.185  41.347  12.503
 9418W        W70839  37.852  40.856  11.943
 9419W        W70840  40.045  16.157  10.944
 9420W        W70841  15.663  20.580  13.890
 9421W        W70842  10.217   5.759   2.707
 9422W        W70843  28.605  39.932  13.874
 9423W        W70844  37.528  38.495   0.821
 9424W        W70845   8.250  41.433  10.463
 9425W        W70846  42.836   3.348   4.349
 9426W        W70847  20.187  34.988   4.224
 9427W        W70848  34.395  30.447   0.263
 9428W        W70849   1.846   9.820  14.971
 9429W        W70850  25.528  43.458   2.776
 9430W        W70851  23.156  37.857   3.336
 9431W        W70852  31.621  27.557  10.566
 9432W        W70853   9.344   4.832  10.423
 9433W        W70854   7.817  34.435  10.458
 9434W        W70855  18.225  25.999   2.890
 9435W        W70856  41.977  37.456   3.826
 9436W        W70857  40.871  30.016   2.882
 9437W        W70858   8.713   7.852   0.958
 9438W        W70859  30.935  25.066  14.930
 9439W        W70860  32.404   0.287   0.860
 9440W        W70861  13.791   6.399  12.947
 9441W        W70862   0.421  28.066  12.087
 9442W        W70863  16.699  33.379  12.883
 9443W        W70864  20.746  23.052   2.255
 9444W        W70865  33.564  37.378   1.318
 9445W        W70866   2.961  40.381  12.868
 9446W        W70867  22.672  15.284   3.190
 9447W        W70868  11.129  29.983  11.984
 9448W        W70869  37.866   9.251   0.928
 9449W        W70870  40.334  16.793   5.081
 9450W        W70871  38.061  31.591   0.920
 9451W        W70872  25.497  28.572   3.257
 9452W        W70873  28.165  34.095   1.313
 9453W        W70874  42.946  36.909   1.927
 9454W        W70875  17.123  23.219   2.246
 9455W        W70876  29.131  26.460   0.330
 9456W        W70877  20.765  33.070   0.360
 9457W        W70878  10.213  35.876   2.757
 9458W        W70879  11.329  25.048   0.472
 9459W        W70880  13.803  29.628  11.448
 9460W        W70881  42.361  11.630   3.293
 9461W        W70882  16.610  35.465  12.885
 9462W        W70883  28.114  24.536   3.701
 9463W        W70884   5.807  29.171   3.242
 9464W        W70885  12.628  29.440  10.130
 9465W        W70886   4.340   8.833  10.935
 9466W        W70887  38.917  17.093   1.354
 9467W        W70888  30.955  24.513  12.396
 9468W        W70889  32.626  29.589   2.210
 9469W        W70890  39.811  14.759   2.413
 9470W        W70891   8.172  41.038  10.572
 9471W        W70892   0.407  33.432   2.313
 9472W        W70893   2.807   3.713   3.291
 9473W        W70894  36.472  35.019  10.952
 9474W        W70895   3.261  12.636  14.777
 9475W        W70896  12.271   6.775   3.187
 9476W        W70897  13.117  14.178  11.389
 9477W        W70898   4.757  22.252   3.647
 9478W        W70899  10.159  29.979   0.843
 9479W        W70900  33.887   9.369   4.335
 9480W        W70901  20.556   7.343  14.768
 9481W        W70902   0.797   7.875   4.644
 9482W        W70903  20.165  30.099  13.884
 9483W        W70904   7.845  21.653   2.758
 9484W        W70905  37.991  27.577  10.968
 9485W        W70906   4.885  25.011  14.338
 9486W        W70907  19.686   3.323   4.734
 9487W        W70908  18.547  29.428   0.317
 9488W        W70909   4.350   4.844   9.950
 9489W        W70910  38.072  20.707  10.584
 9490W        W70911   8.743  20.639   3.173
 9491W        W70912  17.730  15.155   5.775
 9492W        W70913   0.762   3.722   1.381
 9493W        W70914  43.301  30.948  13.824
 9494W        W70915  32.931   3.952  11.401
 9495W        W70916  10.826  42.927   0.435
 9496W        W70917  25.181   9.859   0.362
 9497W        W70918  35.575   2.739   1.259
 9498W        W70919  39.420  30.962  11.553
 9499W        W70920  18.145  38.555   1.889
 9500W        W70921  35.008   7.715   3.279
 9501W        W70922  36.566   5.374   4.185
 9502W        W70923  19.668  16.165  14.850
 9503W        W70924  23.521  35.858   4.334
 9504W        W70925   7.762  17.689   1.890
 9505W        W70926  38.919  33.007  14.468
 9506W        W70927  26.041  14.102   4.261
 9507W        W70928  40.496   3.900   0.774
 9508W        W70929  28.632  26.082  14.493
 9509W        W70930   1.867  44.341  14.404
 9510W        W70931  28.027  12.239   0.290
 9511W        W70932  34.538  26.592  13.889
 9512W        W70933  11.833  20.722   3.348
 9513W        W70934   3.307   7.890  13.792
 9514W        W70935   8.848  24.073   1.847
 9515W        W70936   2.916   2.923   3.224
 9516W        W70937  41.888   3.863  14.502
 9517W        W70938  18.580  16.617   2.799
 9518W        W70939  24.681   1.959   2.324
 9519W        W70940   6.302  34.606  13.374
 9520W        W70941  33.130  14.813   0.379
 9521W        W70942  32.476  33.539  12.526
 9522W        W70943  44.260   9.350  14.003
 9523W        W70944   9.278  13.162   3.344
 9524W        W70945   9.712   3.729   1.308
 9525W        W70946  32.071   1.809  14.944
 9526W        W70947   4.263  19.198  14.503
 9527W        W70948  30.655  43.985  14.374
 9528W        W70949   4.447   0.360  12.579
 9529W        W70950   6.682  42.304  12.394
 9530W        W70951  24.635  34.382  10.457
 9531W        W70952  44.859  28.594   2.900
 9532W        W70953   5.835   8.334   4.249
 9533W        W70954   0.780   1.448   4.623
 9534W        W70955   0.855  42.363   4.260
 9535W        W70956  35.574  40.308   2.898
 9536W        W70957  16.576  34.598  13.367
 9537W        W70958   9.800  34.069  11.388
 9538W        W70959  17.764  12.779   3.225
 9539W        W70960  26.558  21.210   3.223
 9540W        W70961  30.950  19.663   0.798
 9541W        W70962  35.086  37.412   2.374
 9542W        W70963  30.097  38.457   4.258
 9543W        W70964   4.780   0.323  13.934
 9544W        W70965  43.342  11.786  12.926
 9545W        W70966  38.346  21.580  11.420
 9546W        W70967  16.797  44.007  12.371
 9547W        W70968  22.028  33.508   2.285
 9548W        W70969   9.719  33.385  11.910
 9549W        W70970   4.305  26.142  10.890
 9550W        W70971  10.825  32.992   2.239
 9551W        W70972  28.676  39.853  12.971
 9552W        W70973  18.064  24.125   1.310
 9553W        W70974  43.914  41.504  12.010
 9554W        W70975  20.760  37.013   2.803
 9555W        W70976  11.300  38.489   3.832
 9556W        W70977   0.966  40.526  12.493
 9557W        W70978  11.165  23.157   3.358
 9558W        W70979  44.803  15.676  14.293
 9559W        W70980   1.353  44.902  12.346
 9560W        W70981  16.611  33.999  14.768
 9561W        W70982  36.407  30.010   1.247
 9562W        W70983  35.374  25.123   0.867
 9563W        W70984  44.325  34.109  11.041
 9564W        W70985  36.957   5.410  12.530
 9565W        W70986  40.872  25.588  11.502
 9566W        W70987   5.200  21.117   3.823
 9567W        W70988  22.230  13.180  14.895
 9568W        W70989   6.393   0.830   4.261
 9569W        W70990  23.622   7.695  10.633
 9570W        W70991   1.321  30.045   5.237
 9571W        W70992  32.063  19.195   4.608
 9572W        W70993  19.630  17.772  13.449
 9573W        W70994  19.175  35.884   1.769
 9574W        W70995  19.583   2.870   1.873
 9575W        W70996  18.234  10.147   0.812
 9576W        W70997   6.831  27.101  14.013
 9577W        W70998  25.672  10.780   4.174
 9578W        W70999   2.252   7.414   3.713
 9579W        W71000   3.949   6.917  14.389
 9580W        W71001  14.704  18.764   0.751
 9581W        W71002  29.543  41.039  10.562
 9582W        W71003   8.291  26.503   1.212
 9583W        W71004   4.840  10.803  10.625
 9584W        W71005  15.143  13.714  14.384
 9585W        W71006  33.094   8.205  13.356
 9586W        W71007  27.964  27.610  14.785
 9587W        W71008  20.174   0.968  12.007
 9588W        W71009  25.041  18.131  13.823
 9589W        W71010  12.857   5.785  13.406
 9590W        W71011   1.936   9.870   4.687
 9591W        W71012   8.662  14.809  14.429
 9592W        W71013   5.803   4.426  14.342
 9593W        W71014  37.485  16.147   3.716
 9594W        W71015  41.353   1.814   1.283
 9595W        W71016  32.988  32.617   4.798
 9596W        W71017   7.375  13.168  13.476
 9597W        W71018  26.703   3.334   4.724
 9598W        W71019  13.601   6.893  12.513
 9599W        W71020  28.665  31.642   0.945
 9600W        W71021  25.541  21.641  12.948
 9601W        W71022  14.628   5.391   3.304
 9602W        W71023  17.681  13.635  11.075
 9603W        W71024  22.168   5.280   1.284
 9604W        W71025   0.884  30.032   0.320
 9605W        W71026  28.506   1.274  12.540
 9606W        W71027   3.329  39.946  13.959
 9607W        W71028  12.242  18.745  14.960
 9608W        W71029  30.434  31.490  10.552
 9609W        W71030   1.320  19.223   1.805
 9610W        W71031  13.285  22.249  14.997
 9611W        W71032  14.249  41.527   2.680
 9612W        W71033  24.008  36.865  13.792
 9613W        W71034  42.857  39.005   0.779
 9614W        W71035  15.595  25.475   2.749
 9615W        W71036   4.367  13.162  14.421
 9616W        W71037  20.668  39.351   3.172
 9617W        W71038  43.857  32.001   3.261
 9618W        W71039   3.255  23.185   1.919
 9619W        W71040   9.809   7.297  11.456
 9620W        W71041  11.226   2.309   4.213
 9621W        W71042  33.404  29.604   5.229
 9622W        W71043  30.161  28.139   0.830
 9623W        W71044   4.308   8.870   4.312
 9624W        W71045  31.621   3.404  12.543
 9625W        W71046  20.761  36.099  14.872
 9626W        W71047  30.085  41.495  12.884
 9627W        W71048  29.995  24.151   2.373
 9628W        W71049  19.224  33.920  10.509
 9629W        W71050  16.703  16.681  11.884
 9630W        W71051   4.722  10.305  10.936
 9631W        W71052  39.878  18.259  11.120
 9632W        W71053  23.631  36.096   4.702
 9633W        W71054  21.212  26.479  12.858
 9634W        W71055   1.262  27.524   2.409
 9635W        W71056  15.157  17.590   4.124
 9636W        W71057   1.850  42.917  12.845
 9637W        W71058  35.540  35.090  10.623
 9638W        W71059  18.552  35.899  11.996
 9639W        W71060  12.121  22.512  10.009
 9640W        W71061  37.029  31.449  12.506
 9641W        W71062  24.605  19.543   1.446
 9642W        W71063   9.179  42.466  12.464
 9643W        W71064   7.853  27.973   4.121
 9644W        W71065   2.799   8.818  14.486
 9645W        W71066  32.608  39.033  13.893
 9646W        W71067   3.715   5.265  12.829
 9647W        W71068  15.214  32.403   5.227
 9648W        W71069   0.425  22.017  12.365
 9649W        W71070  25.161   8.342  11.998
 9650W        W71071  43.315   1.775   4.768
 9651W        W71072   7.280  22.168   4.249
 9652W        W71073  21.590  42.812  14.437
 9653W        W71074   6.885   3.337  14.500
 9654W        W71075   6.853  21.214   3.814
 9655W        W71076   7.336  32.938   1.766
 9656W        W71077  28.952  10.747  10.567
 9657W        W71078  20.738  10.742   3.199
 9658W        W71079  31.404  16.640  14.307
 9659W        W71080  40.906  30.595   3.163
 9660W        W71081   8.770  18.155   2.284
 9661W        W71082  44.267  27.585   2.853
 9662W        W71083  16.268  33.876   3.749
 9663W        W71084   8.393  10.236   1.249
 9664W        W71085   4.859  41.451  14.845
 9665W        W71086  24.078  36.996  11.080
 9666W        W71087  25.472  42.877  13.365
 9667W        W71088  43.303  15.727   9.473
 9668W        W71089  41.525  20.709   1.342
 9669W        W71090   5.361  38.851  13.384
 9670W        W71091   7.853  26.596  11.073
 9671W        W71092  29.923  37.004  10.420
 9672W        W71093  29.022  20.654  14.839
 9673W        W71094  25.627  40.884   2.750
 9674W        W71095  39.821  28.436   3.782
 9675W        W71096   2.231  38.465   4.279
 9676W        W71097  34.489  33.523   4.606
 9677W        W71098  15.097  27.606  13.388
 9678W        W71099  27.013  22.056  13.000
 9679W        W71100  10.848  33.980   0.453
 9680W        W71101  28.149  27.614   2.243
 9681W        W71102  38.432  25.697   4.155
 9682W        W71103  34.392   9.154  14.429
 9683W        W71104  13.175  31.929   2.310
 9684W        W71105  24.095  33.093  10.426
 9685W        W71106  35.542  29.941  10.961
 9686W        W71107  32.123  25.151  10.533
 9687W        W71108  26.578  20.734  11.964
 9688W        W71109   3.928   5.427   3.279
 9689W        W71110   7.191  23.578   0.466
 9690W        W71111  43.882  16.656  13.061
 9691W        W71112  38.395   6.376  13.331
 9692W        W71113  18.637  10.222   5.124
 9693W        W71114  13.719   2.430  13.914
 9694W        W71115   6.701  41.945   2.860
 9695W        W71116  26.558  40.039  12.840
 9696W        W71117  29.150  32.401  13.339
 9697W        W71118  13.133  20.205   1.327
 9698W        W71119  32.104   6.235   5.152
 9699W        W71120  43.417  12.176  14.812
 9700W        W71121  38.422  21.219  11.065
 9701W        W71122  41.379  18.685  12.458
 9702W        W71123  28.033  20.725   4.329
 9703W        W71124  25.662  22.092   3.265
 9704W        W71125   2.388  42.930  12.985
 9705W        W71126  30.156  16.693  10.422
 9706W        W71127  15.630  23.134   1.709
 9707W        W71128   4.710   4.855  12.932
 9708W        W71129  34.460  10.812   2.704
 9709W        W71130  20.769  22.695  12.520
 9710W        W71131  12.257  36.587  13.402
 9711W        W71132  15.815  44.455   4.830
 9712W        W71133   0.905  42.491   3.837
 9713W        W71134  12.275  37.344  13.948
 9714W        W71135   5.737   4.345  10.965
 9715W        W71136  16.670  37.568   4.670
 9716W        W71137   9.861   0.475  13.327
 9717W        W71138  43.986  42.512  14.804
 9718W        W71139   0.836  21.673   1.902
 9719W        W71140  14.262  19.202  10.455
 9720W        W71141  16.726  37.384  14.994
 9721W        W71142   2.768   5.201  10.599
 9722W        W71143  26.579  18.131  11.930
 9723W        W71144  27.026   2.432   4.725
 9724W        W71145  36.857   4.249  13.466
 9725W        W71146  24.591  42.492  11.983
 9726W        W71147  27.967   6.874   0.255
 9727W        W71148  25.984  43.002  11.893
 9728W        W71149  37.045  19.538  12.404
 9729W        W71150   6.314  33.922  11.545
 9730W        W71151  11.222  15.577   2.217
 9731W        W71152  16.648  32.953   2.695
 9732W        W71153   1.822   1.863   9.477
 9733W        W71154  42.482   3.770  14.865
 9734W        W71155  22.126  40.493  11.977
 9735W        W71156  20.635   2.771  12.925
 9736W        W71157  42.392   6.192  14.978
 9737W        W71158   6.268  34.115  11.094
 9738W        W71159  14.718   8.264  12.919
 9739W        W71160  10.721  24.015  12.865
 9740W        W71161  40.951  37.499  14.324
 9741W        W71162  16.792   2.855  11.582
 9742W        W71163  12.359   5.782  11.551
 9743W        W71164   8.796  27.620  12.565
 9744W        W71165  40.400  35.950   1.711
 9745W        W71166  42.014  19.712  10.466
 9746W        W71167  18.674  42.032   2.198
 9747W        W71168   5.269  44.762   2.230
 9748W        W71169   7.831  38.006  12.574
 9749W        W71170   8.717  23.064   2.712
 9750W        W71171  37.964  41.531   2.192
 9751W        W71172   8.702  12.659   2.776
 9752W        W71173  35.936  15.277   0.377
 9753W        W71174  40.364   2.360  10.416
 9754W        W71175  39.443  14.807   2.245
 9755W        W71176  29.977  12.775   1.280
 9756W        W71177  14.238  32.066   0.833
 9757W        W71178  14.807   1.804  13.023
 9758W        W71179  20.763   3.425  13.862
 9759W        W71180  32.432  35.480  12.983
 9760W        W71181  40.349  20.089   4.631
 9761W        W71182  11.225   0.394  11.395
 9762W        W71183  34.041  20.072  11.933
 9763W        W71184  35.040   9.791   3.683
 9764W        W71185   0.328  25.593   3.849
 9765W        W71186  35.029  12.279  14.929
 9766W        W71187   7.250   7.758   4.159
 9767W        W71188  40.419  43.885  14.945
 9768W        W71189  20.707  11.153  14.846
 9769W        W71190  35.359  34.088   4.801
 9770W        W71191  12.335  30.529   1.734
 9771W        W71192  13.808   5.825   4.745
 9772W        W71193   6.889  29.484  12.970
 9773W        W71194  35.601  28.938  13.379
 9774W        W71195  40.910   2.254  13.406
 9775W        W71196   2.450  30.419   4.739
 9776W        W71197  36.092   2.818   2.312
 9777W        W71198  20.734  12.736  12.904
 9778W        W71199   1.441  20.594   4.154
 9779W        W71200  25.538  23.040  10.403
 9780W        W71201   6.391  12.798  10.472
 9781W        W71202  18.616  20.567   4.182
 9782W        W71203   0.880  19.117   3.855
 9783W        W71204  27.097  11.787  13.842
 9784W        W71205  27.644  42.952   3.296
 9785W        W71206  26.464  30.013  12.030
 9786W        W71207  18.712  12.157  14.886
 9787W        W71208  28.438  27.016  10.468
 9788W        W71209  22.231  22.693   2.349
 9789W        W71210  11.654  38.389  14.932
 9790W        W71211   5.835  17.768   2.305
 9791W        W71212  32.487  12.124   3.747
 9792W        W71213  28.576  38.420   3.243
 9793W        W71214  18.256  22.217   2.312
 9794W        W71215  43.008  13.811   1.747
 9795W        W71216   5.924   4.309   1.293
 9796W        W71217  11.179  23.580   0.798
 9797W        W71218   4.220  43.360   2.407
 9798W        W71219  36.484  44.773   2.681
 9799W        W71220  28.013  10.648  12.552
 9800W        W71221  39.995  38.910   1.872
 9801W        W71222   9.676   9.184   3.720
 9802W        W71223   5.387  42.369   0.901
 9803W        W71224   9.679  38.351   1.871
 9804W        W71225  27.016  37.930   2.226
 9805W        W71226  35.995   3.830   0.357
 9806W        W71227  42.850  44.484   5.254
 9807W        W71228  39.427  22.037  10.438
 9808W        W71229  23.205  15.613  11.920
 9809W        W71230  43.334  13.260   0.442
 9810W        W71231  17.106  35.503   3.269
 9811W        W71232  11.305  36.430   2.272
 9812W        W71233  11.841  10.684  10.473
 9813W        W71234   3.299  35.946  13.375
 9814W        W71235  11.339   2.835  12.350
 9815W        W71236   6.428  19.044  14.403
 9816W        W71237  29.528  44.792   1.261
 9817W        W71238  30.433   5.926   1.884
 9818W        W71239   8.731  33.975  14.897
 9819W        W71240  13.299  22.683   2.783
 9820W        W71241  44.388  32.007  11.518
 9821W        W71242  12.252  37.343   4.787
 9822W        W71243   5.367  33.617   2.181
 9823W        W71244  14.628  32.000   0.424
 9824W        W71245  40.495  11.162  13.495
 9825W        W71246  13.794   8.244  12.341
 9826W        W71247  24.107  27.500  12.066
 9827W        W71248  39.027  21.693  13.045
 9828W        W71249  36.468  13.146   2.705
 9829W        W71250  27.480  12.328   2.732
 9830W        W71251   4.408  13.218   3.227
 9831W        W71252  28.037  25.571  10.105
 9832W        W71253  24.570  38.501  13.938
 9833W        W71254   3.366  20.568   1.254
 9834W        W71255  19.740   6.893   2.401
 9835W        W71256  42.347  43.324  12.360
 9836W        W71257  25.555   5.702   4.319
 9837W        W71258  32.624  44.333   4.135
 9838W        W71259   7.715  44.467   5.132
 9839W        W71260  28.944  14.711  14.333
 9840W        W71261   8.307  19.568  13.959
 9841W        W71262   3.354  32.500   3.369
 9842W        W71263  14.631  43.829   1.225
 9843W        W71264  30.041  18.227   2.679
 9844W        W71265  13.175  38.512   4.803
 9845W        W71266  17.098  38.338   9.947
 9846W        W71267  10.326  28.092  14.485
 9847W        W71268  22.022  17.629   3.770
 9848W        W71269  37.337  32.080   1.304
 9849W        W71270   9.871  18.779  10.569
 9850W        W71271  39.939  26.477  13.945
 9851W        W71272  19.064  10.237  13.442
 9852W        W71273  21.561  15.795   2.362
 9853W        W71274  34.960  13.695   4.642
 9854W        W71275  34.436  42.408  10.506
 9855W        W71276  18.697  23.708   4.319
 9856W        W71277   6.299  35.457   0.953
 9857W        W71278  36.049  31.556  10.641
 9858W        W71279  27.164  27.543   1.750
 9859W        W71280  40.927  31.011  11.589
 9860W        W71281  33.076  42.843   0.416
 9861W        W71282  19.665  30.076  11.592
 9862W        W71283  37.989  24.144  11.562
 9863W        W71284   6.335  12.253  10.979
 9864W        W71285  12.254   9.328   2.322
 9865W        W71286  10.332  11.191   2.294
 9866W        W71287  30.954  35.101   2.707
 9867W        W71288  25.606   1.403  10.551
 9868W        W71289  38.929  24.714   2.759
 9869W        W71290  18.148  19.747  10.945
 9870W        W71291   3.276   8.846   4.818
 9871W        W71292  31.001  16.283   0.484
 9872W        W71293  23.511  37.880  13.962
 9873W        W71294  15.600  39.469   1.429
 9874W        W71295  19.260  18.207   4.304
 9875W        W71296  37.388  41.848   4.706
 9876W        W71297   4.410  12.839   1.325
 9877W        W71298  26.560  12.812  13.903
 9878W        W71299  12.619   4.306  12.574
 9879W        W71300   1.859  25.073  10.578
 9880W        W71301  32.014  10.696   4.783
 9881W        W71302   7.815  20.571  11.095
 9882W        W71303   8.397  35.435  13.877
 9883W        W71304  20.037   1.806  10.510
 9884W        W71305  30.590  36.024  14.806
 9885W        W71306  44.498  38.400  14.893
 9886W        W71307   2.378  20.179   0.289
 9887W        W71308  17.286  36.377  11.532
 9888W        W71309   7.855  32.512   2.182
 9889W        W71310  14.119  22.553  13.527
 9890W        W71311  19.056  30.458  14.383
 9891W        W71312  19.754  23.540   3.296
 9892W        W71313  16.761  15.176  11.502
 9893W        W71314   2.356  33.571   9.667
 9894W        W71315  24.046  14.232   4.813
 9895W        W71316   0.376  24.482   3.191
 9896W        W71317  36.566   3.860  13.962
 9897W        W71318  40.990  43.827   1.224
 9898W        W71319  23.589  21.212  13.961
 9899W        W71320  23.593   4.842  12.908
 9900W        W71321  44.288  34.944  10.594
 9901W        W71322  20.750  13.322   4.196
 9902W        W71323   7.733  19.706  14.791
 9903W        W71324  39.041  19.646  12.900
 9904W        W71325  35.011  14.669   0.382
 9905W        W71326  28.171  42.905   0.364
 9906W        W71327  41.008   3.847  14.459
 9907W        W71328   2.868   7.906   3.315
 9908W        W71329  26.208  28.073   4.301
 9909W        W71330  35.006   8.234  11.945
 9910W        W71331  34.922  40.415   3.663
 9911W        W71332  16.108  39.547   2.332
 9912W        W71333  18.614  39.827  11.521
 9913W        W71334   8.876  12.320   1.837
 9914W        W71335  30.963  40.426  12.552
 9915W        W71336   4.944  30.911  10.151
 9916W        W71337  42.026  27.995  14.365
 9917W        W71338   2.838  38.501   4.833
 9918W        W71339  10.199  11.707  12.401
 9919W        W71340  37.498  39.849   2.837
 9920W        W71341  11.661  34.008  14.966
 9921W        W71342  15.137   2.380   0.856
 9922W        W71343  15.203  36.534  14.417
 9923W        W71344  29.439  32.622   3.671
 9924W        W71345  24.093  32.579   3.286
 9925W        W71346   7.820  17.303   5.283
 9926W        W71347   6.874   5.406   3.343
 9927W        W71348  22.079  25.608   0.318
 9928W        W71349  32.101  26.047  13.001
 9929W        W71350   3.912  22.253   2.282
 9930W        W71351  43.326  17.118  14.914
 9931W        W71352  44.307  19.779  14.348
 9932W        W71353  25.203  36.380  12.444
 9933W        W71354  19.169  35.104   4.173
 9934W        W71355  15.751  27.542   1.357
 9935W        W71356  43.823   1.313   2.386
 9936W        W71357   5.845  35.913   3.308
 9937W        W71358  29.654   3.276   9.987
 9938W        W71359  20.224  41.522  10.598
 9939W        W71360  32.451  44.860  14.284
 9940W        W71361  39.840  20.730  13.531
 9941W        W71362   1.975  32.998   2.755
 9942W        W71363  27.165  29.536  11.563
 9943W        W71364   2.803  17.627   1.428
 9944W        W71365  41.877  29.504   0.874
 9945W        W71366  40.414  39.838   1.846
 9946W        W71367  37.849  40.418  13.364
 9947W        W71368  43.971  42.357  11.545
 9948W        W71369   7.328  33.453   0.245
 9949W        W71370   9.169  14.688  12.517
 9950W        W71371  14.790   6.684   0.251
 9951W        W71372   6.239   5.258  14.767
 9952W        W71373  12.672  10.362   3.348
 9953W        W71374  16.634  38.458   3.817
 9954W        W71375  33.900  44.921  12.968
 9955W        W71376  24.593  27.092   3.663
 9956W        W71377  42.436  37.047   0.937
 9957W        W71378  22.604  27.498   1.438
 9958W        W71379  10.329  32.523   2.716
 9959W        W71380  19.695  42.872  12.887
 9960W        W71381  15.273  30.026  14.490
 9961W        W71382   4.815  37.535  13.012
 9962W        W71383  14.200   4.437  11.946
 9963W        W71384  32.418  20.207  11.987
 9964W        W71385   5.744  21.093   3.338
 9965W        W71386  14.102  40.906  14.801
 9966W        W71387   2.299   6.769  13.368
 9967W        W71388  16.173  23.992  11.121
 9968W        W71389  42.294  12.715   2.269
 9969W        W71390  42.023   1.294  13.992
 9970W        W71391  13.173  17.777   2.331
 9971W        W71392   0.287  11.172  11.517
 9972W        W71393  28.996   9.705   3.205
 9973W        W71394   9.709  32.999   4.628
 9974W        W71395  14.693  26.501   9.946
 9975W        W71396   1.952  35.922   4.218
 9976W        W71397   1.879  44.887   4.612
 9977W        W71398  41.932  28.091  11.449
 9978W        W71399  20.745  18.248  12.523
 9979W        W71400  41.882  39.044   2.813
 9980W        W71401  10.732  24.564   4.207
 9981W        W71402  16.595  32.401   1.362
 9982W        W71403  12.185  31.438  12.446
 9983W        W71404  26.648  40.353   1.767
 9984W        W71405   8.250  16.310   4.307
 9985W        W71406  44.006  10.251   4.712
 9986W        W71407   7.808  19.545  10.090
 9987W        W71408  22.740  28.987  11.004
 9988W        W71409  34.480   0.980   3.285
 9989W        W71410  18.582  13.639  11.005
 9990W        W71411  22.729   9.341  14.926
 9991W        W71412  28.480  31.140   0.343
 9992W        W71413  12.700   4.935   2.272
 9993W        W71414  30.657   5.794   0.933
 9994W        W71415   9.789  24.230  10.949
 9995W        W71416  32.123   1.395  14.312
 9996W        W71417   2.324  33.513   2.195
 9997W        W71418   6.427  21.065  14.410
 9998W        W71419  41.827  18.249  14.762
 9999W        W71420  11.737  28.028   4.308
10000W        W71421  26.693  15.712   0.336
10001W        W71422   5.202  30.424   0.741
10002W        W71423  23.119  31.439   3.752
10003W        W71424   7.269  39.938  13.834
10004W        W71425  28.472   5.925  14.770
10005W        W71426   1.950  29.075  11.433
10006W        W71427  32.579  21.079   4.260
10007W        W71428   7.384   3.216  11.903
10008W        W71429   4.212  32.999  14.282
10009W        W71430  32.436  29.560   3.670
10010W        W71431  17.641  39.027  11.404
10011W        W71432  13.341  39.820  12.518
10012W        W71433  13.291  22.742  12.840
10013W        W71434  10.179   9.650   4.158
10014W        W71435   1.918  16.235   4.703
10015W        W71436   7.728  43.324   1.786
10016W        W71437  34.500  32.449  12.868
10017W        W71438  25.603  32.916  13.525
10018W        W71439  36.942  19.280   2.198
10019W        W71440  26.109  26.191   0.435
10020W        W71441  25.528  15.618  13.852
10021W        W71442  37.061  41.926  11.560
10022W        W71443  39.866  37.529  14.329
10023W        W71444  21.157  44.457  14.957
10024W        W71445  36.062  20.685   1.333
10025W        W71446  36.876  40.410  14.472
10026W        W71447  37.842  25.483  12.869
10027W        W71448  34.022  38.899   1.850
10028W        W71449  18.547  37.937   3.226
10029W        W71450   2.945  29.168  10.626
10030W        W71451  20.117  42.493   4.602
10031W        W71452  22.116  44.952   4.131
10032W        W71453  44.331  21.610   0.845
10033W        W71454   3.771  14.629   3.200
10034W        W71455   9.720   9.675  11.100
10035W        W71456  22.675  16.613  14.357
10036W        W71457  15.227   7.316  13.966
10037W        W71458   4.855  31.065   2.713
10038W        W71459  23.126  27.041   4.632
10039W        W71460  30.497  38.456   1.820
10040W        W71461  32.912   6.819  14.789
10041W        W71462  37.394  13.625   3.149
10042W        W71463  13.823  19.610   3.287
10043W        W71464  24.137  27.544   3.816
10044W        W71465  12.616   7.370  14.873
10045W        W71466  43.475  32.013   4.832
10046W        W71467  30.421  39.359   1.400
10047W        W71468  25.059  21.209  11.017
10048W        W71469   6.905  29.994   0.836
10049W        W71470   9.381   7.272   0.345
10050W        W71471  10.370  15.179  10.478
10051W        W71472  13.747  15.654  12.012
10052W        W71473  40.381   6.273  14.911
10053W        W71474   3.338   2.748  13.791
10054W        W71475  14.099   2.741  10.637
10055W        W71476  25.547  28.073  13.519
10056W        W71477  30.592  38.499  12.851
10057W        W71478  43.779   7.203   4.722
10058W        W71479   1.889  12.335  13.948
10059W        W71480  11.688  34.524  13.913
10060W        W71481  28.182  32.050  11.873
10061W        W71482   1.326  23.561  11.929
10062W        W71483  37.087  28.588  10.594
10063W        W71484  38.485  40.980   2.371
10064W        W71485  32.397  30.067   1.417
10065W        W71486   5.768   3.940   2.737
10066W        W71487   5.709  15.153  10.595
10067W        W71488  20.167  34.512   3.310
10068W        W71489  40.818  30.997   4.253
10069W        W71490  44.985   9.374  10.917
10070W        W71491  23.622   9.201  12.401
10071W        W71492  23.579   2.372  10.582
10072W        W71493  18.284   6.872  12.532
10073W        W71494  28.664  16.732  11.382
10074W        W71495  10.657   8.842  13.812
10075W        W71496   8.816  35.434  13.432
10076W        W71497  10.765  36.080   1.245
10077W        W71498  24.178  30.429   4.321
10078W        W71499  31.957   3.358  14.015
10079W        W71500  31.099  34.447   0.302
10080W        W71501  29.481   3.421   1.409
10081W        W71502   2.906  32.892   2.852
10082W        W71503  14.240   2.414  13.544
10083W        W71504   6.779  30.589   3.655
10084W        W71505  15.319  33.460   0.843
10085W        W71506  18.615  24.099  14.823
10086W        W71507  42.807  25.542  14.017
10087W        W71508  39.876  34.487  13.546
10088W        W71509  31.567   4.744  10.916
10089W        W71510  31.095  34.074   4.836
10090W        W71511  38.521  41.850   2.271
10091W        W71512  33.459  42.300  14.789
10092W        W71513  37.483  27.009  13.909
10093W        W71514  31.514  31.615  13.845
10094W        W71515  24.612  26.587  10.941
10095W        W71516  40.979  25.197  10.423
10096W        W71517   3.331  20.201   2.733
10097W        W71518  10.634  25.020  14.411
10098W        W71519   4.316  29.437  10.891
10099W        W71520  36.090   4.351  11.601
10100W        W71521  25.977  29.528   0.430
10101W        W71522  38.377  36.936   3.787
10102W        W71523  31.455  14.637   0.358
10103W        W71524  34.560  43.878  11.536
10104W        W71525  44.280  20.681   3.701
10105W        W71526  33.428   2.891   1.211
10106W        W71527  44.343  16.295   9.987
10107W        W71528  25.999  13.662   3.644
10108W        W71529   3.253  33.502  11.573
10109W        W71530  21.756  42.425   4.324
10110W        W71531  43.014   4.718  11.039
10111W        W71532  24.207  12.262  13.975
10112W        W71533   0.774  30.506   4.192
10113W        W71534  31.985  42.361   1.741
10114W        W71535  32.959  17.259   0.254
10115W        W71536   9.261  37.870  13.546
10116W        W71537  25.493  32.988  10.521
10117W        W71538  34.425  19.260   0.309
10118W        W71539  13.267  21.230  11.027
10119W        W71540  21.659  19.172  11.081
10120W        W71541  30.976  19.138  13.934
10121W        W71542  36.533  19.115  10.496
10122W        W71543  13.224  14.751  12.476
10123W        W71544  12.206  34.951  13.884
10124W        W71545  26.527  36.002   1.797
10125W        W71546  19.243  18.127   1.329
10126W        W71547  31.909  31.420  14.283
10127W        W71548   0.855  16.704  13.883
10128W        W71549  15.226   0.909   3.833
10129W        W71550  24.158  31.985  14.845
10130W        W71551  38.351   5.699  10.631
10131W        W71552  15.254  40.534  14.760
10132W        W71553   7.808  32.030   4.703
10133W        W71554  32.486  41.866   1.710
10134W        W71555  39.906  30.431   0.751
10135W        W71556  28.107   1.799   0.392
10136W        W71557  28.963   7.280   0.824
10137W        W71558  10.153  40.469   0.733
10138W        W71559  40.832  19.254  14.380
10139W        W71560  37.362  36.927   2.759
10140W        W71561  35.029  22.106   4.349
10141W        W71562   7.354   9.370  10.577
10142W        W71563  16.580  43.272  13.426
10143W        W71564  28.117  11.644   4.836
10144W        W71565  22.995  42.002   1.244
10145W        W71566  32.633  23.151  12.519
10146W        W71567  20.129   5.881   1.718
10147W        W71568   4.836  42.785   0.936
10148W        W71569  16.784   3.909   1.843
10149W        W71570  17.124  36.076   5.273
10150W        W71571   5.808   0.310  14.838
10151W        W71572  24.563   8.198  11.898
10152W        W71573  32.428   1.436   0.902
10153W        W71574  35.008  26.203  12.019
10154W        W71575  16.102  33.567   0.784
10155W        W71576  34.945  29.923   0.759
10156W        W71577  25.175  16.756   2.723
10157W        W71578  26.637  44.818   4.152
10158W        W71579  25.109  44.337  12.922
10159W        W71580   9.830  34.386   2.393
10160W        W71581  38.370  40.444   2.302
10161W        W71582  33.984  19.774   1.214
10162W        W71583   1.938  32.475  11.957
10163W        W71584  25.966  26.522   0.285
10164W        W71585  16.765  26.006  11.123
10165W        W71586  16.174  36.051  11.001
10166W        W71587   5.794   5.353   3.369
10167W        W71588  13.724  20.641  12.473
10168W        W71589  26.578   9.181   4.130
10169W        W71590  38.883   4.442  11.046
10170W        W71591  34.977  16.157  11.089
10171W        W71592   6.880  36.407  10.471
10172W        W71593   5.914   8.276   3.717
10173W        W71594  44.388  20.207   4.655
10174W        W71595  25.166  26.036   2.338
10175W        W71596  15.706  19.700   1.923
10176W        W71597   6.719  14.720   4.693
10177W        W71598  38.974  18.124   4.168
10178W        W71599  11.243  44.864   0.398
10179W        W71600  31.513  35.017  11.930
10180W        W71601  20.246  23.090   1.750
10181W        W71602  24.495  20.673  11.414
10182W        W71603  28.516  22.601   0.317
10183W        W71604  40.353  13.831  13.448
10184W        W71605  13.299  30.466  12.049
10185W        W71606  44.357  21.226  12.419
10186W        W71607  16.712  26.144   4.793
10187W        W71608  22.663   3.233   4.295
10188W        W71609  24.115  27.945  10.474
10189W        W71610  29.100  41.824  13.516
10190W        W71611  16.672  44.920  11.527
10191W        W71612  38.491  19.656   3.180
10192W        W71613  43.427  39.458   1.934
10193W        W71614  33.043  21.685   3.650
10194W        W71615  28.113   3.419  14.935
10195W        W71616  30.082   3.871   2.777
10196W        W71617  21.208  10.147  12.906
10197W        W71618  16.223  29.448   0.406
10198W        W71619  39.894  41.840  11.077
10199W        W71620  19.691  25.968   3.243
10200W        W71621  15.796  30.540   0.417
10201W        W71622  37.073  11.670   2.188
10202W        W71623  12.273  39.878  12.923
10203W        W71624  21.148  30.451   0.824
10204W        W71625  13.670  34.543  12.357
10205W        W71626  35.990  16.735   3.289
10206W        W71627  15.713   9.797  14.498
10207W        W71628  15.249  44.771   0.242
10208W        W71629  26.677  14.776   0.775
10209W        W71630  23.119  20.163   4.266
10210W        W71631  38.929  10.672  14.809
10211W        W71632  29.575  17.197   3.670
10212W        W71633   6.759   0.382  12.911
10213W        W71634  37.967  39.504   3.349
10214W        W71635  29.152  16.803  10.466
10215W        W71636  20.629  14.241   2.275
10216W        W71637  21.244  11.291  13.458
10217W        W71638  24.008  42.423  11.005
10218W        W71639  18.556   6.910  13.885
10219W        W71640  20.642  25.606   3.224
10220W        W71641  27.597  21.638  14.922
10221W        W71642  22.565   0.479  11.491
10222W        W71643  35.067  28.059  12.416
10223W        W71644   6.345  15.668   0.907
10224W        W71645  12.778  33.514   1.924
10225W        W71646  11.218  14.613   4.125
10226W        W71647  44.263  15.205  14.435
10227W        W71648   2.760  13.230   4.152
10228W        W71649   4.810  16.731  12.882
10229W        W71650  12.780   5.322   4.193
10230W        W71651  33.395  34.923   4.804
10231W        W71652  39.347   1.300  10.953
10232W        W71653  32.613   6.196   1.866
10233W        W71654  31.121  16.089   1.873
10234W        W71655   9.296  25.473   1.226
10235W        W71656  20.741  17.298   1.241
10236W        W71657   7.194  36.492   1.843
10237W        W71658  35.599  30.577  11.491
10238W        W71659  14.202  23.201   4.207
10239W        W71660  38.435   1.237   4.740
10240W        W71661  44.859  10.264  14.939
10241W        W71662  28.932  24.187  14.865
10242W        W71663  38.394  39.506   4.640
10243W        W71664  15.673  27.165  11.420
10244W        W71665  28.997  23.076  14.375
10245W        W71666  20.100   1.835   2.815
10246W        W71667   4.864  18.080  13.348
10247W        W71668  31.924  44.438  14.471
10248W        W71669  13.109  17.184   3.366
10249W        W71670  34.995   8.662  11.572
10250W        W71671  33.508   0.866   2.890
10251W        W71672  32.979  20.238  12.071
10252W        W71673  37.897  12.622  11.566
10253W        W71674  24.990  33.591  12.375
10254W        W71675  28.558   7.677  13.907
10255W        W71676  26.565  25.556   2.280
10256W        W71677  10.231   0.453  12.076
10257W        W71678  36.959  40.999  12.458
10258W        W71679   5.709  30.158  13.895
10259W        W71680  33.122  38.015   4.330
10260W        W71681  11.625   3.818  12.902
10261W        W71682  40.892  42.366   4.710
10262W        W71683  40.974   7.210  10.643
10263W        W71684  26.124  22.623  14.030
10264W        W71685  39.893   1.384   4.691
10265W        W71686  21.140  37.002  13.420
10266W        W71687  36.932  28.677  12.006
10267W        W71688  40.472  11.129   9.995
10268W        W71689  14.333  12.762   0.375
10269W        W71690   7.364  39.875   0.954
10270W        W71691  37.524  19.172  10.531
10271W        W71692  24.020  34.516  10.972
10272W        W71693   9.230  30.469   5.213
10273W        W71694  42.488  41.975  13.955
10274W        W71695  20.720  11.301   0.793
10275W        W71696  13.319  44.883   4.808
10276W        W71697   3.906  43.382  11.005
10277W        W71698  36.971  17.187   3.244
10278W        W71699  36.917   2.389  12.466
10279W        W71700  21.689  35.061   0.831
10280W        W71701  22.094  43.770  11.036
10281W        W71702  32.391  22.520  12.484
10282W        W71703  31.524   0.462   3.305
10283W        W71704  32.507   6.182   0.317
10284W        W71705   6.787  13.164   4.230
10285W        W71706  11.722  34.967  11.910
10286W        W71707  30.145   0.410  11.507
10287W        W71708  38.382   8.877   1.905
10288W        W71709  33.624  30.591  11.116
10289W        W71710  18.622  33.540  14.926
10290W        W71711  22.682  17.072  13.406
10291W        W71712  11.299  38.843   2.326
10292W        W71713  15.672   9.347  13.465
10293W        W71714  43.973  34.557  12.343
10294W        W71715  33.414  15.723  13.863
10295W        W71716  31.468  25.997  10.587
10296W        W71717   6.740   0.805  11.560
10297W        W71718   0.908  41.888   0.943
10298W        W71719  36.924  35.970  11.974
10299W        W71720   4.858  41.897  10.912
10300W        W71721  37.960   3.219  14.026
10301W        W71722  35.863   9.208   1.283
10302W        W71723  19.062  40.336  13.920
10303W        W71724  21.577  13.805   0.945
10304W        W71725  38.891  11.133  12.381
10305W        W71726  43.463  17.156  10.429
10306W        W71727   6.293  40.925  13.038
10307W        W71728   9.868  25.539   2.373
10308W        W71729   8.312  24.666   2.244
10309W        W71730  17.246   2.841   1.417
10310W        W71731   0.363  39.324  11.605
10311W        W71732   5.342  20.166   3.814
10312W        W71733  20.084  40.053   1.723
10313W        W71734   3.864  42.448   2.889
10314W        W71735  37.966   5.756   3.652
10315W        W71736  21.636   8.864   3.711
10316W        W71737  33.385  38.983  11.889
10317W        W71738  39.512  36.585  11.402
10318W        W71739  10.792  37.972  13.383
10319W        W71740  24.056  10.277   0.829
10320W        W71741  44.459  38.861   2.897
10321W        W71742   1.955  10.703  13.972
10322W        W71743   3.377  14.257  11.495
10323W        W71744  25.215  22.701   4.321
10324W        W71745  17.291  38.899  12.427
10325W        W71746  40.905  22.069   3.282
10326W        W71747  23.055   7.265   3.295
10327W        W71748   0.829  15.814  14.797
10328W        W71749  28.588  15.741   4.275
10329W        W71750  34.489  42.806  13.375
10330W        W71751  11.795  27.556   0.959
10331W        W71752  35.955  15.313  14.827
10332W        W71753  28.037  41.395  11.610
10333W        W71754  24.602  43.491   2.873
10334W        W71755  36.047  38.523  14.799
10335W        W71756   6.825  28.103  13.363
10336W        W71757  24.720  17.740  13.437
10337W        W71758   5.872   8.208   1.449
10338W        W71759   5.232  39.551  13.927
10339W        W71760  27.597  25.627   0.418
10340W        W71761  21.739   8.274   3.728
10341W        W71762  39.342  44.883  14.938
10342W        W71763  17.755  12.225   2.179
10343W        W71764  37.037  29.153  11.385
10344W        W71765   0.789   1.767  14.327
10345W        W71766  34.022  22.049  12.526
10346W        W71767   4.310  25.128  12.408
10347W        W71768  36.962  10.216  12.888
10348W        W71769  28.597  44.932   0.416
10349W        W71770  27.605   0.779  10.939
10350W        W71771  20.607  36.959   1.290
10351W        W71772  12.704  15.327   3.249
10352W        W71773  30.136  41.001   1.327
10353W        W71774  22.052  37.431   1.854
10354W        W71775  26.071  32.983   0.296
10355W        W71776   0.894   9.258   3.662
10356W        W71777   6.891  41.524   3.712
10357W        W71778  36.856  26.673   1.900
10358W        W71779  32.909  14.689  14.297
10359W        W71780   3.798  27.477   3.633
10360W        W71781  38.864  22.724  14.314
10361W        W71782  27.026  25.999   3.184
10362W        W71783  27.569   3.885  10.970
10363W        W71784  43.274  27.621  14.280
10364W        W71785   8.396  41.531   2.733
10365W        W71786  36.074  19.718   2.259
10366W        W71787  14.099  11.169  11.025
10367W        W71788  34.010  16.666   1.254
10368W        W71789   9.288  17.570  13.027
10369W        W71790  22.702  43.340   2.347
10370W        W71791   1.317   2.330  11.585
10371W        W71792  28.678  43.511   0.800
10372W        W71793  32.559  36.886  11.100
10373W        W71794  23.172  33.615  10.918
10374W        W71795  30.552  37.421   0.395
10375W        W71796   2.963  18.760  14.363
10376W        W71797   4.736   3.398   5.114
10377W        W71798  15.703  20.622   2.355
10378W        W71799  25.200  40.418  10.894
10379W        W71800  12.710  38.547   0.377
10380W        W71801  38.463  14.626   0.410
10381W        W71802  32.030  18.626  14.445
10382W        W71803  37.899   7.397  13.860
10383W        W71804  37.561  39.010  12.361
10384W        W71805   3.282  21.661   3.309
10385W        W71806  34.966  28.657   1.399
10386W        W71807   4.276  33.444   2.297
10387W        W71808   2.447  27.142  14.009
10388W        W71809  23.987  42.282   1.907
10389W        W71810   3.431  10.300  12.345
10390W        W71811   2.928  11.158   2.308
10391W        W71812  18.688  12.763   4.614
10392W        W71813  44.375  30.523  13.424
10393W        W71814   1.324  18.252  14.427
10394W        W71815   6.700  13.160  12.870
10395W        W71816  17.166  17.798  12.060
10396W        W71817   5.864  41.042   2.869
10397W        W71818  41.314  24.670  14.867
10398W        W71819  30.958  11.167   5.129
10399W        W71820  43.956  25.576  13.451
10400W        W71821   0.776  26.020   2.413
10401W        W71822   2.410  27.580   3.308
10402W        W71823  38.966  10.365  13.309
10403W        W71824   7.741  34.075  10.950
10404W        W71825  21.570  14.673   3.238
10405W        W71826   4.926  39.998  13.854
10406W        W71827  24.602  32.471  14.979
10407W        W71828  40.362  19.764  14.767
10408W        W71829  41.315  37.385  12.368
10409W        W71830   9.685  17.098   1.230
10410W        W71831  28.585  29.638   0.369
10411W        W71832  13.742   5.400  10.951
10412W        W71833  30.658  19.702   3.713
10413W        W71834  12.725  19.702  10.945
10414W        W71835  40.364  30.048  14.822
10415W        W71836  24.539  13.126  12.551
10416W        W71837  20.097  34.090   4.807
10417W        W71838  34.084   4.305   2.839
10418W        W71839  16.257   5.245  12.513
10419W        W71840  13.188  24.001   4.655
10420W        W71841  43.816  31.078   4.188
10421W        W71842  43.479  36.506  12.384
10422W        W71843   4.324  21.739   3.796
10423W        W71844  34.552  34.010  11.575
10424W        W71845  15.810  33.005   4.323
10425W        W71846  15.094  20.239   2.342
10426W        W71847  14.261   5.230  14.913
10427W        W71848  31.066  20.174   1.317
10428W        W71849  10.767   0.306  10.897
10429W        W71850  15.679   8.346   3.205
10430W        W71851   4.845  15.656  14.803
10431W        W71852  43.770  16.099   4.615
10432W        W71853  22.569  44.788   2.220
10433W        W71854   0.752  21.256  14.311
10434W        W71855   9.811  14.651  12.093
10435W        W71856  17.083  41.794   2.183
10436W        W71857   7.332   8.702   1.785
10437W        W71858   8.746  20.526   1.354
10438W        W71859  16.080  30.643  11.445
10439W        W71860  22.198   5.251   2.331
10440W        W71861  30.145   6.799   2.324
10441W        W71862  44.952  34.508   1.917
10442W        W71863  10.766  40.022   5.609
10443W        W71864  31.496  14.337   0.837
10444W        W71865  13.347  24.173  10.974
10445W        W71866  23.049  20.573  10.888
10446W        W71867  44.298  16.100  13.464
10447W        W71868  40.949  16.285  12.463
10448W        W71869   6.688   0.273  11.919
10449W        W71870  13.163  19.593   1.704
10450W        W71871  18.224  26.457  13.954
10451W        W71872  36.423  33.119  12.946
10452W        W71873   9.806   6.756   4.807
10453W        W71874  39.374   4.921  13.005
10454W        W71875   2.379  18.171   4.658
10455W        W71876  28.186  23.041  13.391
10456W        W71877  30.989  27.595  13.466
10457W        W71878  33.114  17.642  11.510
10458W        W71879  10.676  23.148  13.531
10459W        W71880  40.472  23.996  10.512
10460W        W71881  30.622  40.364   3.822
10461W        W71882   1.299  14.226  10.413
10462W        W71883  15.655   3.383   0.287
10463W        W71884  42.524  25.531  10.998
10464W        W71885  14.160   4.856  11.938
10465W        W71886  25.528  13.311   2.833
10466W        W71887  41.484  38.016   1.740
10467W        W71888   1.971  40.317   2.286
10468W        W71889  27.515  40.323  11.913
10469W        W71890  43.924  39.412   2.233
10470W        W71891  32.522  20.177   0.304
10471W        W71892   4.752  42.391   3.287
10472W        W71893  43.507  18.167   2.261
10473W        W71894  19.180   0.456   2.239
10474W        W71895  15.820  36.927  13.835
10475W        W71896  30.937   8.405   3.182
10476W        W71897  30.967  42.457   1.343
10477W        W71898  41.952  36.073  13.974
10478W        W71899  23.560  25.124   3.674
10479W        W71900   8.818  16.291   1.390
10480W        W71901  23.592   5.706   0.446
10481W        W71902  24.720   5.359   0.392
10482W        W71903   6.374  34.465   2.386
10483W        W71904  14.285  24.527  12.559
10484W        W71905  27.490   8.840  13.002
10485W        W71906  36.016  34.456   1.802
10486W        W71907  36.532  19.277  12.981
10487W        W71908  11.791  39.355   1.868
10488W        W71909  35.604  27.632  14.387
10489W        W71910  17.736   7.877  14.433
10490W        W71911  22.660  23.033   2.269
10491W        W71912  36.878  18.175  12.074
10492W        W71913  38.427  20.602   4.224
10493W        W71914  41.423  19.227  12.826
10494W        W71915  11.762   4.242   2.253
10495W        W71916   8.375   6.828   3.209
10496W        W71917  42.989   2.315  14.432
10497W        W71918  17.583   5.849  14.879
10498W        W71919   5.853   5.801   2.716
10499W        W71920  31.588  16.705   3.766
10500W        W71921  32.121   8.305   3.354
10501W        W71922  41.527  30.537  14.953
10502W        W71923  33.582  23.712  14.780
10503W        W71924  13.229  42.862   2.352
10504W        W71925   8.226  30.967  13.390
10505W        W71926  23.139  21.199   0.800
10506W        W71927  32.467  37.567  11.594
10507W        W71928  38.344  23.994  11.924
10508W        W71929  29.939   1.856  10.615
10509W        W71930  35.581  41.435   1.222
10510W        W71931  37.835   9.298   3.147
10511W        W71932  29.566   0.373   5.105
10512W        W71933   4.827   9.162   9.973
10513W        W71934  24.710  38.379  10.481
10514W        W71935  17.730  30.565  10.925
10515W        W71936   7.265  39.371   3.235
10516W        W71937  30.549  14.641   0.761
10517W        W71938  27.464  33.902   1.433
10518W        W71939  36.947  10.860  14.770
10519W        W71940  26.958   1.318  13.455
10520W        W71941  26.984   8.763   2.413
10521W        W71942   2.314  32.108  10.543
10522W        W71943  40.010  44.885   3.746
10523W        W71944  38.499  25.614   0.915
10524W        W71945  32.907  36.982   0.397
10525W        W71946  44.373  24.073  14.457
10526W        W71947  25.714  26.488   2.323
10527W        W71948  12.173  27.520  10.467
10528W        W71949  42.467  30.433  13.422
10529W        W71950   8.209  32.906   4.349
10530W        W71951  31.003  14.809  13.847
10531W        W71952  28.546   9.802   0.939
10532W        W71953  10.859  25.118  12.954
10533W        W71954  10.836   5.836   2.812
10534W        W71955  11.234   4.771   4.778
10535W        W71956  27.453  32.528   3.317
10536W        W71957  10.763   9.864   3.837
10537W        W71958  40.413   7.334   0.419
10538W        W71959  36.988  43.800   3.807
10539W        W71960  26.208  25.529   1.283
10540W        W71961  13.246   2.965   4.765
10541W        W71962  40.993  29.941   2.315
10542W        W71963  15.322  36.022   2.249
10543W        W71964  25.644  19.686   1.284
10544W        W71965  31.456   5.405   3.363
10545W        W71966   0.416  16.121  14.327
10546W        W71967   0.250  43.285   0.254
10547W        W71968   3.888  39.457  11.972
10548W        W71969   9.889   5.358  14.865
10549W        W71970  20.230  14.095   3.750
10550W        W71971  25.009   2.832   3.719
10551W        W71972   7.247  34.936  14.858
10552W        W71973  33.936  39.990  13.392
10553W        W71974   7.679  21.256  10.029
10554W        W71975  44.297   6.911   3.786
10555W        W71976   7.795  40.390   9.927
10556W        W71977   2.270  24.180   3.830
10557W        W71978  15.114  36.979   4.192
10558W        W71979  22.679  34.505  10.606
10559W        W71980  14.799  38.065  12.850
10560W        W71981  11.270  30.007  13.321
10561W        W71982  14.713  35.924  10.156
10562W        W71983   0.873   1.845   2.406
10563W        W71984  10.705  26.688   3.644
10564W        W71985  21.607  27.962   1.248
10565W        W71986  16.644   5.332   2.334
10566W        W71987  39.463  16.583  11.432
10567W        W71988  42.514   1.739   0.937
10568W        W71989  26.657  34.097  11.917
10569W        W71990   9.689  42.836  11.514
10570W        W71991   2.440  16.688   3.748
10571W        W71992   3.365  30.024   3.311
10572W        W71993  15.763  18.239  11.109
10573W        W71994  19.693  12.268   4.631
10574W        W71995  34.947  33.454   3.835
10575W        W71996  20.094  38.985   2.293
10576W        W71997  18.647  33.413  12.370
10577W        W71998  37.443  26.979   5.246
10578W        W71999  37.860  20.699   4.781
10579W        W72000  41.517  32.042   2.872
10580W        W72001  21.257  19.624   2.358
10581W        W72002  28.439  35.102  12.376
10582W        W72003  43.978   3.799  13.940
10583W        W72004  43.412  11.827  14.290
10584W        W72005  24.215  19.612   0.924
10585W        W72006  28.990  14.764  13.455
10586W        W72007   0.927   3.716  10.903
10587W        W72008  38.901  41.486   3.164
10588W        W72009  30.039  37.916   4.216
10589W        W72010   2.852   9.783  13.845
10590W        W72011  32.089   9.822  10.626
10591W        W72012  11.650  12.203   2.299
10592W        W72013  43.461  43.871  13.933
10593W        W72014  40.398  40.496   2.248
10594W        W72015  16.240  27.183   2.901
10595W        W72016  36.962  25.057  10.583
10596W        W72017  33.059  30.148  14.026
10597W        W72018  22.209  44.453   3.352
10598W        W72019  35.533   0.463   4.701
10599W        W72020   9.833  18.606  11.496
10600W        W72021  14.611   5.743  14.491
10601W        W72022  14.589  31.562  14.883
10602W        W72023  37.890  28.654  11.982
10603W        W72024  15.291  41.829  13.351
10604W        W72025   9.878  26.067  13.827
10605W        W72026  40.312  33.582  13.059
10606W        W72027   8.257   4.381  12.450
10607W        W72028   8.176  32.060  12.908
10608W        W72029  34.460  13.807  14.942
10609W        W72030  24.678  34.559  12.511
10610W        W72031  16.746   8.721  12.539
10611W        W72032  40.365  16.794   9.985
10612W        W72033  38.332  21.205  10.525
10613W        W72034  30.513  25.508   4.706
10614W        W72035  42.290   2.864   2.286
10615W        W72036  17.223  31.549   5.749
10616W        W72037  12.794  11.127   1.796
10617W        W72038  37.055   1.766  12.934
10618W        W72039  33.405  10.351  12.432
10619W        W72040  27.113  18.657  13.469
10620W        W72041  36.416  33.608  13.869
10621W        W72042  37.403   8.355  14.405
10622W        W72043  42.848  12.178  14.814
10623W        W72044  41.394  38.355  11.955
10624W        W72045   3.346  39.886   3.384
10625W        W72046  44.355   2.272   1.835
10626W        W72047  18.253  27.133   3.846
10627W        W72048  30.610  20.593   2.208
10628W        W72049  18.725   1.825   0.350
10629W        W72050   2.288   8.375  10.898
10630W        W72051  24.211   9.170  14.843
10631W        W72052  39.858  35.358   3.342
10632W        W72053   2.411  22.502   1.265
10633W        W72054   7.666   9.384  14.932
10634W        W72055  14.335  12.628   1.783
10635W        W72056  43.924  12.163  12.044
10636W        W72057  12.790  35.870   3.264
10637W        W72058   0.297   8.791  13.845
10638W        W72059   1.408  24.716   2.379
10639W        W72060  19.042  39.444   2.315
10640W        W72061  32.019   3.764   1.220
10641W        W72062  41.834  10.238   2.686
10642W        W72063  13.175  42.501   1.794
10643W        W72064  19.583  18.083  12.382
10644W        W72065  39.528   2.373   2.898
10645W        W72066  34.940  24.479   4.655
10646W        W72067   4.829  18.588   1.738
10647W        W72068  26.590  37.484  13.356
10648W        W72069  22.577  13.259   3.864
10649W        W72070   3.229  16.638   3.307
10650W        W72071  16.227  18.060  14.339
10651W        W72072  31.445   9.218   3.243
10652W        W72073  39.475  13.295  14.415
10653W        W72074   1.783   8.661  10.917
10654W        W72075  44.318  31.418   4.676
10655W        W72076  21.589   5.914  14.867
10656W        W72077  20.142  17.112  12.533
10657W        W72078  37.988  36.069  13.986
10658W        W72079  15.714   0.480  10.990
10659W        W72080  17.734  25.040   1.829
10660W        W72081  13.796   5.322   3.797
10661W        W72082  18.210   7.783  14.402
10662W        W72083  44.004  16.196   3.345
10663W        W72084  17.793  37.512  12.392
10664W        W72085  26.592  12.229  13.379
10665W        W72086  38.384   0.460  11.864
10666W        W72087   0.260  26.624  12.852
10667W        W72088   0.372  42.324  10.976
10668W        W72089  13.627  17.715   4.164
10669W        W72090  10.809  35.483  12.509
10670W        W72091  26.565  22.698   2.204
10671W        W72092  16.219  30.002   4.775
10672W        W72093  38.820  31.019  14.472
10673W        W72094  41.449   8.302   2.677
10674W        W72095   0.921  22.194  14.515
10675W        W72096  29.621   7.245   0.381
10676W        W72097  18.728  33.923   4.752
10677W        W72098   9.775  34.007  14.017
10678W        W72099  39.915  19.284  11.586
10679W        W72100  10.704  37.453  10.890
10680W        W72101  10.655  23.159   2.382
10681W        W72102  33.984   5.251   4.188
10682W        W72103  10.730  31.501   0.329
10683W        W72104   2.725  38.446  14.489
10684W        W72105  20.161  15.684  13.384
10685W        W72106   1.242  38.520   3.724
10686W        W72107   7.231  16.771  11.516
10687W        W72108  20.553  35.928   1.403
10688W        W72109  35.513  12.785   2.258
10689W        W72110  38.871  42.416  12.500
10690W        W72111  26.203  37.840  12.931
10691W        W72112  29.164   5.296  14.973
10692W        W72113  12.262  42.854  12.982
10693W        W72114  20.768  19.152  11.570
10694W        W72115  18.685   1.328  12.485
10695W        W72116  20.169  12.788  12.469
10696W        W72117  39.466   9.230  12.385
10697W        W72118   4.862   2.424   1.399
10698W        W72119  44.001  17.159  10.435
10699W        W72120   5.773  26.088   2.677
10700W        W72121   2.952  44.453   2.665
10701W        W72122   0.895   7.294  13.392
10702W        W72123  39.324  24.650  10.427
10703W        W72124  44.285  25.551   3.255
10704W        W72125  37.867  30.422   1.298
10705W        W72126  25.036  34.047   1.772
10706W        W72127   6.743   9.392   2.357
10707W        W72128  35.600  13.743  14.858
10708W        W72129  40.457  35.365  12.353
10709W        W72130  29.001   1.972   0.337
10710W        W72131   7.204  25.498  12.019
10711W        W72132  39.330  17.706   4.198
10712W        W72133  33.471   5.426   2.675
10713W        W72134  37.479  35.388   1.338
10714W        W72135   8.281  23.048  12.010
10715W        W72136  36.440  21.730  10.430
10716W        W72137  43.425  12.196   3.653
10717W        W72138  16.783  15.085   0.372
10718W        W72139  19.161   2.745  14.826
10719W        W72140  15.596  15.113   4.128
10720W        W72141  34.959  17.691  12.520
10721W        W72142   3.907  35.959  14.911
10722W        W72143  17.115  15.705   2.898
10723W        W72144  30.101  28.471  13.540
10724W        W72145  42.287  37.464  14.281
10725W        W72146   8.880  35.570  14.933
10726W        W72147  11.817   6.857   0.831
10727W        W72148  21.086  19.764  11.990
10728W        W72149  44.937  19.615  10.645
10729W        W72150   0.305  36.358   2.806
10730W        W72151  40.491   6.699   0.734
10731W        W72152  17.068  29.659  14.020
10732W        W72153   3.231  24.073   2.854
10733W        W72154  23.125  28.138   1.294
10734W        W72155   1.299  36.085  14.461
10735W        W72156  33.601  22.539   1.854
10736W        W72157  35.500  32.038   3.221
10737W        W72158  27.168  32.111   2.857
10738W        W72159  33.539  35.413  10.570
10739W        W72160   3.711  16.242   0.783
10740W        W72161  37.893  22.721   2.403
10741W        W72162  14.145  12.241   4.283
10742W        W72163  16.594   7.834   3.695
10743W        W72164   0.840  37.410  14.996
10744W        W72165  41.343  31.900   2.264
10745W        W72166   1.342  20.578  13.804
10746W        W72167  17.739  28.932  10.559
10747W        W72168  29.034  17.163   0.445
10748W        W72169  31.402  44.358   4.276
10749W        W72170  37.906   6.320   3.246
10750W        W72171   6.822  40.372   0.899
10751W        W72172  12.682   4.785  10.986
10752W        W72173  24.118  25.638  12.018
10753W        W72174  28.538  41.293  10.504
10754W        W72175  16.191  17.147  12.835
10755W        W72176  19.201   6.182   3.859
10756W        W72177  37.529  25.606  13.872
10757W        W72178  19.689  31.557  13.842
10758W        W72179   7.684  34.020  12.049
10759W        W72180  37.984   5.207   2.283
10760W        W72181  23.107  34.582  11.994
10761W        W72182   6.892  38.068   4.311
10762W        W72183  37.539  11.748  12.401
10763W        W72184  43.846  24.221  14.356
10764W        W72185  29.048   5.764   1.320
10765W        W72186  23.591  39.857  13.798
10766W        W72187   5.426  41.999  12.558
10767W        W72188   2.782  19.116  14.808
10768W        W72189  44.284   5.241  11.962
10769W        W72190  36.568  28.941  13.897
10770W        W72191  44.301  39.436   2.807
10771W        W72192  24.014  42.281  11.576
10772W        W72193  26.565  29.521   0.802
10773W        W72194  21.651  25.546  12.037
10774W        W72195  17.236  36.366  13.913
10775W        W72196   7.224  21.148  12.432
10776W        W72197  41.509  43.818  14.476
10777W        W72198  20.184  29.638   1.229
10778W        W72199  13.706  26.668  14.931
10779W        W72200  10.341   5.227   3.834
10780W        W72201  24.116  31.463   3.158
10781W        W72202  24.111   8.852   3.684
10782W        W72203  41.788   1.946  12.516
10783W        W72204  15.595   4.414   1.373
10784W        W72205   6.233  18.611  14.765
10785W        W72206  28.672  40.004   0.755
10786W        W72207  10.819   3.845   2.887
10787W        W72208  38.030   1.894  10.950
10788W        W72209  44.828  40.423   3.347
10789W        W72210  32.124   0.351   2.326
10790W        W72211  20.052   4.262  14.932
10791W        W72212   3.226  22.147   5.233
10792W        W72213  25.169  18.258   0.406
10793W        W72214  28.613  10.732   1.911
10794W        W72215  32.010  22.041   3.242
10795W        W72216  33.067  36.052   3.809
10796W        W72217  11.181  43.869  12.407
10797W        W72218  17.752  23.672   4.183
10798W        W72219  22.069   9.274   9.513
10799W        W72220  26.587  22.086  14.827
10800W        W72221  14.243   0.878  13.469
10801W        W72222  17.260  12.635  13.452
10802W        W72223  41.036  29.058   0.817
10803W        W72224  15.791   8.853   2.835
10804W        W72225  12.839  32.496   2.681
10805W        W72226   5.719  43.908  12.899
10806W        W72227  33.548  19.197   1.346
10807W        W72228  37.904   3.281   3.780
10808W        W72229  21.146  44.306  11.383
10809W        W72230  14.097  41.343  11.961
10810W        W72231  28.446  17.773   1.442
10811W        W72232  44.360  22.020   2.816
10812W        W72233  25.039  38.977   0.837
10813W        W72234   5.360   9.169  14.799
10814W        W72235  20.735  22.539   0.295
10815W        W72236  12.212  12.841  14.456
10816W        W72237  37.499  17.796  10.444
10817W        W72238  30.086  30.620  14.317
10818W        W72239   8.402  41.525   0.329
10819W        W72240  26.651  38.463   0.417
10820W        W72241  33.999  43.364  11.006
10821W        W72242  15.579  26.481  10.940
10822W        W72243   6.690   6.775  12.052
10823W        W72244  11.197   6.802  10.992
10824W        W72245  23.184  19.171   4.838
10825W        W72246  12.625   5.437  12.508
10826W        W72247   8.335  21.225  13.033
10827W        W72248  11.369   3.723   3.360
10828W        W72249  23.239  42.293   3.341
10829W        W72250  20.641  15.701  10.085
10830W        W72251  14.176  25.633   2.315
10831W        W72252   6.687  13.312   1.294
10832W        W72253   0.797  27.559   3.372
10833W        W72254   3.830  11.249  12.017
10834W        W72255  35.472  17.797   3.286
10835W        W72256  43.355   6.900  13.976
10836W        W72257   8.354  32.618   4.309
10837W        W72258  11.855   8.897  11.858
10838W        W72259   4.944  34.445   0.396
10839W        W72260   5.262  16.123  12.369
10840W        W72261  18.133  23.713   3.818
10841W        W72262  18.090  23.237   3.214
10842W        W72263  20.651  34.497  11.881
10843W        W72264   6.745  24.139   2.771
10844W        W72265   6.903  21.222   4.638
10845W        W72266  31.930  17.097  10.403
10846W        W72267  23.708  38.464  10.902
10847W        W72268  30.163  13.268   0.320
10848W        W72269  24.640  42.395   1.743
10849W        W72270  10.206  25.040   3.861
10850W        W72271  31.979  15.650  11.407
10851W        W72272  36.361  17.068   1.430
10852W        W72273  16.226  11.661   1.359
10853W        W72274   1.963  33.990   1.715
10854W        W72275  18.083  14.129   1.705
10855W        W72276  41.468   0.762   4.237
10856W        W72277  34.377  18.682  14.868
10857W        W72278   7.840  34.564  14.977
10858W        W72279  34.551   3.745   3.765
10859W        W72280  39.343  17.217   0.747
10860W        W72281   9.388   0.926  12.054
10861W        W72282   0.823  39.883   3.242
10862W        W72283  28.065  39.912   3.796
10863W        W72284  31.125  41.304   2.739
10864W        W72285   5.838  25.079  13.027
10865W        W72286  39.392  12.767   4.328
10866W        W72287  19.607   0.338   1.317
10867W        W72288  33.605   3.428  14.324
10868W        W72289  42.782  16.741   0.850
10869W        W72290  44.402  36.567   1.407
10870W        W72291  36.488  27.617  12.545
10871W        W72292  27.044  14.130  14.981
10872W        W72293  33.965  18.704  14.998
10873W        W72294  43.811  28.653   2.868
10874W        W72295  25.586  12.277   2.377
10875W        W72296   6.296  36.004  13.312
10876W        W72297  41.396  21.618   4.795
10877W        W72298  17.678   8.680   2.733
10878W        W72299  15.795  18.586   0.459
10879W        W72300  23.107  33.879   0.799
10880W        W72301   2.777  26.493   4.303
10881W        W72302  15.653  27.581  11.949
10882W        W72303  24.209  44.930   3.802
10883W        W72304  13.662  16.629  11.520
10884W        W72305  20.134  39.839  10.485
10885W        W72306  19.279  24.229   2.234
10886W        W72307   4.775  20.274  14.515
10887W        W72308  22.010  37.411   3.222
10888W        W72309  29.062  29.076  10.604
10889W        W72310  17.115  20.128   3.201
10890W        W72311  39.407  23.727   1.294
10891W        W72312  38.895  26.049  11.910
10892W        W72313   8.759  19.577   0.452
10893W        W72314   2.347  15.702  11.478
10894W        W72315  35.870  26.460   0.436
10895W        W72316  34.551  26.613  10.940
10896W        W72317  12.614  34.039   0.875
10897W        W72318  30.018  29.978   2.193
10898W        W72319  25.562  42.905  14.905
10899W        W72320  35.022  42.508   2.181
10900W        W72321  42.937   9.183  14.860
10901W        W72322   6.883  29.592  14.425
10902W        W72323  42.389  10.848   4.820
10903W        W72324   5.266  13.638   3.273
10904W        W72325  20.711  40.357  10.439
10905W        W72326   4.916  39.534   1.785
10906W        W72327   3.922   8.896  13.841
10907W        W72328  32.087  44.391  13.897
10908W        W72329  38.008  41.851   1.412
10909W        W72330  28.087   6.764  14.303
10910W        W72331  35.037   4.323  11.475
10911W        W72332  16.692  38.045   2.187
10912W        W72333  25.087  12.841  10.932
10913W        W72334  35.389  38.989   3.867
10914W        W72335   6.730  38.400  11.508
10915W        W72336  33.891  13.820   5.263
10916W        W72337  37.850  15.721   3.331
10917W        W72338   0.938  39.409   4.650
10918W        W72339  11.186  40.315  14.374
10919W        W72340  22.135  21.183   2.192
10920W        W72341  27.180  38.990   1.751
10921W        W72342  42.323  20.036  10.898
10922W        W72343  26.055  28.573   1.393
10923W        W72344   2.966  35.899  10.572
10924W        W72345  16.203  42.335   2.194
10925W        W72346  26.148  27.973   0.847
10926W        W72347  10.741  31.517  11.863
10927W        W72348  18.764   8.253   4.754
10928W        W72349   2.844  25.606  13.443
10929W        W72350   4.803  43.337  14.962
10930W        W72351  13.197   9.359   2.281
10931W        W72352   6.800  41.920  12.895
10932W        W72353   8.406  34.614  13.000
10933W        W72354  28.479   1.392  14.871
10934W        W72355  10.635  10.703   1.899
10935W        W72356  12.683  43.428  12.941
10936W        W72357  42.865  25.692   0.284
10937W        W72358  23.142  40.821  11.865
10938W        W72359  27.990  32.594  10.405
10939W        W72360   8.657  30.053   2.232
10940W        W72361  15.598  20.605   4.679
10941W        W72362  17.154  25.132  12.937
10942W        W72363   1.289   7.688   4.734
10943W        W72364  13.641  26.011   3.821
10944W        W72365  23.061  12.638  14.375
10945W        W72366  43.347  39.920   4.764
10946W        W72367  10.723  33.555  10.019
10947W        W72368  11.243   9.339   1.727
10948W        W72369  20.723  40.348   0.925
10949W        W72370   5.248  11.373  12.866
10950W        W72371  15.652   5.745  11.992
10951W        W72372  44.284  41.330   2.279
10952W        W72373  15.757  31.534  12.957
10953W        W72374   3.217  10.735  13.905
10954W        W72375  37.575  19.541  11.483
10955W        W72376  23.235  24.695  12.066
10956W        W72377  35.569  33.510   3.725
10957W        W72378   4.270  37.511   4.644
10958W        W72379   1.745  14.648   5.237
10959W        W72380  40.852  19.180   3.669
10960W        W72381  37.337  25.677   0.942
10961W        W72382  42.367  22.124   2.780
10962W        W72383  31.552   6.390   4.271
10963W        W72384   6.339  41.940   4.250
10964W        W72385  15.116  12.643   0.281
10965W        W72386  10.784  22.221   1.831
10966W        W72387  30.068   6.757   3.859
10967W        W72388  35.524  23.105   0.787
10968W        W72389  24.579  41.359  12.081
10969W        W72390  19.084  25.200  14.413
10970W        W72391  43.999   9.362   1.289
10971W        W72392  36.432  36.861  11.035
10972W        W72393  34.502  44.311   2.677
10973W        W72394  13.203  41.971   4.351
10974W        W72395  40.902   6.726  10.406
10975W        W72396  22.082  27.547  14.334
10976W        W72397  15.303  26.538  14.836
10977W        W72398  11.258  11.774  13.893
10978W        W72399   5.713  44.933  10.481
10979W        W72400  20.578  30.130   2.873
10980W        W72401  26.544  18.274  10.071
10981W        W72402  14.589  22.098  10.428
10982W        W72403   3.906  16.147  14.415
10983W        W72404  23.669  21.044   0.776
10984W        W72405  21.596  42.797   4.306
10985W        W72406   9.873  34.892  12.403
10986W        W72407  21.728  35.931  10.620
10987W        W72408  34.975  17.744  10.924
10988W        W72409  44.469  23.058   0.887
10989W        W72410  35.546  22.233   4.783
10990W        W72411  24.656  25.510  11.909
10991W        W72412  28.150  36.453  13.427
10992W        W72413  43.928  32.056  13.015
10993W        W72414  18.598   2.374   1.927
10994W        W72415  43.992  39.414   3.800
10995W        W72416  31.001   5.209   3.169
10996W        W72417   5.899  27.077  14.808
10997W        W72418  13.735  43.381   0.865
10998W        W72419  20.246  21.541  14.370
10999W        W72420   7.385   1.266   3.705
11000W        W72421  36.577  11.689  14.474
11001W        W72422  36.887  22.130  13.436
11002W        W72423  25.507   1.751   5.179
11003W        W72424  23.064  33.412  12.987
11004W        W72425  13.126  20.039   2.319
11005W        W72426   9.353  15.789   9.989
11006W        W72427  24.146  40.804  13.901
11007W        W72428   9.860  34.557   2.791
11008W        W72429  21.210   7.846  14.879
11009W        W72430   4.755   1.766   3.335
11010W        W72431  15.613  25.540  11.500
11011W        W72432   0.934  44.753   3.804
11012W        W72433  18.555  44.461  14.971
11013W        W72434  33.617   2.750  13.322
11014W        W72435  36.431  17.062   4.238
11015W        W72436  22.660  12.153   3.222
11016W        W72437  28.632  41.965   4.693
11017W        W72438  31.447  42.288  10.540
11018W        W72439  17.225   0.988  13.938
11019W        W72440   8.895   1.402  11.926
11020W        W72441   7.689  35.993   4.640
11021W        W72442   1.791  36.885  11.871
11022W        W72443  19.213  40.802   1.933
11023W        W72444  38.547  19.233  13.889
11024W        W72445  26.693  38.534   3.846
11025W        W72446   1.978  31.998  14.477
11026W        W72447  17.159  19.048  14.907
11027W        W72448  31.479  40.961   0.326
11028W        W72449  21.127  22.689   2.381
11029W        W72450  29.109  27.579   0.775
11030W        W72451  13.671   2.259   3.265
11031W        W72452  23.208  13.249  12.469
11032W        W72453  17.128   5.306   2.824
11033W        W72454  24.150   4.700   5.575
11034W        W72455  28.585   8.659  13.312
11035W        W72456  29.537   0.911   2.290
11036W        W72457  36.565  11.767   1.782
11037W        W72458  11.266   0.299   4.637
11038W        W72459   6.364  44.386   0.356
11039W        W72460   8.717  21.732   2.881
11040W        W72461   0.751   8.674   4.198
11041W        W72462   5.802  37.569  11.426
11042W        W72463   4.916  27.983   3.645
11043W        W72464  20.177  24.703  12.900
11044W        W72465   6.405   1.265  13.511
11045W        W72466  13.257  34.951   4.244
11046W        W72467   1.483  16.314   3.368
11047W        W72468  42.370  10.267  13.529
11048W        W72469   8.679  34.459  13.342
11049W        W72470   7.803  24.533   2.192
11050W        W72471  41.323  17.673   1.324
11051W        W72472  39.526  36.469  10.475
11052W        W72473  43.461   8.803   0.792
11053W        W72474  43.422   7.857   0.905
11054W        W72475   6.798  10.295   4.274
11055W        W72476  17.709  32.622  10.916
11056W        W72477   4.930   4.427   4.670
11057W        W72478  22.022   2.966   4.219
11058W        W72479   7.396  11.721   1.883
11059W        W72480  40.911  13.299   1.795
11060W        W72481  41.872  33.982   3.361
11061W        W72482  31.438  10.875   0.344
11062W        W72483  41.804  39.465  14.846
11063W        W72484  25.686  44.450  14.307
11064W        W72485  31.019  33.104  13.533
11065W        W72486   5.361  28.062  10.983
11066W        W72487  23.642  41.025  12.474
11067W        W72488  34.510  44.260  11.977
11068W        W72489  10.161   7.816  10.609
11069W        W72490  28.130  39.831  14.323
11070W        W72491  31.640  21.144  12.051
11071W        W72492  42.959  28.475  11.609
11072W        W72493  38.496  25.602  11.517
11073W        W72494  24.121  20.116  14.030
11074W        W72495  19.700  11.691  14.913
11075W        W72496  32.427   1.744   0.308
11076W        W72497  35.952  22.221   4.228
11077W        W72498  34.105  19.203  12.974
11078W        W72499  36.537  22.663  13.935
11079W        W72500  23.509   0.861   2.401
11080W        W72501   5.861  15.226   3.836
11081W        W72502  20.597   3.450   0.936
11082W        W72503   9.888  43.955   2.746
11083W        W72504  17.611   3.273  12.097
11084W        W72505  37.079  33.510   4.239
11085W        W72506  18.061  44.491  13.043
11086W        W72507  40.342  14.758   4.237
11087W        W72508  38.020  44.465   3.674
11088W        W72509  32.974  23.543  14.843
11089W        W72510   1.737  12.838  13.510
11090W        W72511   4.743  12.615   0.276
11091W        W72512   0.420  29.563   3.647
11092W        W72513  27.554  13.260   4.786
11093W        W72514  10.301  24.986   0.821
11094W        W72515  30.986  28.078  14.495
11095W        W72516  36.897  20.047   4.175
11096W        W72517  40.919  16.103  11.562
11097W        W72518  35.080   8.290   3.288
11098W        W72519  10.745  24.704  14.779
11099W        W72520  26.531  33.969   2.356
11100W        W72521  33.063  40.996  14.796
11101W        W72522  27.024  34.865  13.398
11102W        W72523  28.971  14.157  12.546
11103W        W72524  37.963  26.651   3.768
11104W        W72525  40.055   0.406   4.131
11105W        W72526  16.715  41.537   4.762
11106W        W72527  33.602  43.805  12.353
11107W        W72528  14.598   9.695  10.560
11108W        W72529   4.849  31.150   1.319
11109W        W72530   7.294  13.316  11.445
11110W        W72531  14.759  25.217   1.256
11111W        W72532  35.941   1.895  11.054
11112W        W72533  39.439  37.839  14.421
11113W        W72534  33.927   8.323   2.404
11114W        W72535  24.173  12.316  14.883
11115W        W72536  32.028  34.503  13.000
11116W        W72537  40.407  42.288   1.262
11117W        W72538   4.435  37.938   3.844
11118W        W72539   2.930  27.021   2.727
11119W        W72540  27.664   5.710   1.265
11120W        W72541  12.287  40.456  14.464
11121W        W72542  44.894   9.815  14.939
11122W        W72543  40.345  35.458   3.348
11123W        W72544  27.687  32.049  11.127
11124W        W72545   2.448  36.092  14.357
11125W        W72546  23.636  37.538  13.509
11126W        W72547   4.295  40.955  13.908
11127W        W72548   3.938   9.264   2.376
11128W        W72549   0.759  31.528   2.843
11129W        W72550   1.260   4.226   2.702
11130W        W72551   5.407  30.492   1.335
11131W        W72552   9.808  39.956  13.821
11132W        W72553   5.388  37.484  12.077
11133W        W72554   8.820  16.718   2.772
11134W        W72555   5.361  11.776   2.840
11135W        W72556  17.710  42.816   1.824
11136W        W72557  44.323  25.044  14.026
11137W        W72558  33.074  34.383  11.544
11138W        W72559  39.453  11.240  12.068
11139W        W72560  42.824  35.472  11.597
11140W        W72561   5.818  18.619   0.342
11141W        W72562  29.459  24.993  13.362
11142W        W72563  29.474  22.220  12.027
11143W        W72564  37.517  44.418   3.681
11144W        W72565  25.559  23.994   3.691
11145W        W72566   7.244  31.449   0.762
11146W        W72567   8.186  29.622   1.289
11147W        W72568   2.352  20.525  12.070
11148W        W72569  32.964   0.811   3.150
11149W        W72570  20.192   4.388   1.286
11150W        W72571  28.022  15.663  12.890
11151W        W72572  16.176   4.848  11.591
11152W        W72573  19.217  25.557   4.627
11153W        W72574   4.233   7.171   4.262
11154W        W72575  36.487  36.930  11.943
11155W        W72576  27.970  43.999   4.225
11156W        W72577  23.524  32.403  13.828
11157W        W72578  25.969   5.321  11.863
11158W        W72579  29.073   6.358   2.370
11159W        W72580  23.623  42.332  13.390
11160W        W72581  22.067  36.883  14.435
11161W        W72582  11.720  31.465   3.306
11162W        W72583   0.255  23.545   2.290
11163W        W72584  20.556  35.878   2.193
11164W        W72585  25.516   7.865   3.785
11165W        W72586  11.372   3.306   1.242
11166W        W72587   7.860  19.194  12.503
11167W        W72588  36.963   2.327   5.318
11168W        W72589  21.122  13.677   1.711
11169W        W72590  26.498   9.654   4.776
11170W        W72591   9.715   5.711   2.375
11171W        W72592  36.552  44.963  12.426
11172W        W72593   8.201  37.444   1.298
11173W        W72594  12.175  15.219   0.909
11174W        W72595   0.349  22.020   2.327
11175W        W72596  20.744  30.046   1.376
11176W        W72597  10.732  40.958   1.865
11177W        W72598  33.894  27.144   2.682
11178W        W72599  33.904  30.063   0.834
11179W        W72600  27.554  33.915  11.573
11180W        W72601  14.673   3.222   3.341
11181W        W72602  18.595  27.946  10.153
11182W        W72603   6.775  30.014  14.782
11183W        W72604  29.666   1.240   4.688
11184W        W72605  32.450  36.483   0.941
11185W        W72606  11.312  31.489  11.922
11186W        W72607  27.541  26.668  11.003
11187W        W72608  27.083  43.797  12.891
11188W        W72609  11.711   5.771   0.811
11189W        W72610  36.420  26.978  10.420
11190W        W72611  25.494  23.024   0.853
11191W        W72612  42.456  24.014  14.793
11192W        W72613  31.996  44.378  12.470
11193W        W72614  37.544  13.182   4.159
11194W        W72615  14.768  16.596   4.306
11195W        W72616  13.239  41.962  14.860
11196W        W72617  24.522  36.946   4.606
11197W        W72618  23.502  27.140  14.948
11198W        W72619  21.079  32.974  11.599
11199W        W72620  19.690  36.396   4.696
11200W        W72621  34.487  33.046  14.858
11201W        W72622  36.880  10.287   4.747
11202W        W72623  41.342   9.386  12.841
11203W        W72624  16.230  43.973   4.318
11204W        W72625  27.663  36.881   2.752
11205W        W72626  17.796  44.307  14.497
11206W        W72627  17.626  41.911   0.443
11207W        W72628  30.039  33.951   1.857
11208W        W72629   0.291  29.087  11.602
11209W        W72630  35.518  35.476   2.232
11210W        W72631  39.922  30.528   1.756
11211W        W72632  41.017  25.133  14.993
11212W        W72633   0.825   9.817  12.041
11213W        W72634  40.409  15.819   4.222
11214W        W72635  31.618  23.183   0.794
11215W        W72636  34.936  28.516  10.962
11216W        W72637   7.187   9.291  10.961
11217W        W72638  34.027  33.976  13.367
11218W        W72639  31.590  39.386  11.024
11219W        W72640  44.845  30.565  14.278
11220W        W72641  39.904  38.386   0.257
11221W        W72642  27.025   8.752  10.959
11222W        W72643   6.365   4.420   1.798
11223W        W72644   1.276  31.443   2.782
11224W        W72645  36.416  13.797   3.737
11225W        W72646  38.395  11.200  14.371
11226W        W72647   6.818  36.431   3.311
11227W        W72648   7.782  39.946  11.922
11228W        W72649  33.444  23.686  13.907
11229W        W72650  20.760  28.666   3.822
11230W        W72651  41.305  44.761   0.910
11231W        W72652  24.147  34.604  11.482
11232W        W72653  11.319   8.347   2.859
11233W        W72654  44.463  23.663   4.830
11234W        W72655  21.140  16.124   2.720
11235W        W72656   1.974  30.416   9.603
11236W        W72657  33.075  17.652   3.842
11237W        W72658  24.622  22.716   3.173
11238W        W72659   1.826  42.487   1.777
11239W        W72660  33.430  30.527  10.457
11240W        W72661  13.291   6.892   1.313
11241W        W72662  17.109   2.892   0.929
11242W        W72663  26.117  33.943  13.390
11243W        W72664   9.317   0.272   1.741
11244W        W72665  42.015  27.626  11.525
11245W        W72666  33.938  31.090   1.695
11246W        W72667  27.446   1.770   0.285
11247W        W72668  40.978   0.965   3.213
11248W        W72669  12.360  12.687   4.267
11249W        W72670  36.870  13.654   5.115
11250W        W72671  28.440  22.655   0.822
11251W        W72672  16.190   3.228  12.091
11252W        W72673   7.903  20.150   1.888
11253W        W72674  19.192  11.313   0.318
11254W        W72675  10.197  22.171   2.409
11255W        W72676  24.684  19.666   3.829
11256W        W72677  17.069   1.453  12.538
11257W        W72678  18.052  27.622   3.206
11258W        W72679  44.925  29.443  11.932
11259W        W72680   1.819  18.605   1.391
11260W        W72681  12.683  13.606  14.895
11261W        W72682  11.817  20.763  11.461
11262W        W72683  29.447  27.977   1.728
11263W        W72684  32.930  43.814   0.820
11264W        W72685   1.762  33.973   3.835
11265W        W72686  21.247  40.030   9.932
11266W        W72687  38.851  39.473   0.942
11267W        W72688  35.007  34.574   4.161
11268W        W72689  24.719  39.348  10.640
11269W        W72690  28.678   5.728   2.417
11270W        W72691  15.670  33.907  12.388
11271W        W72692  33.943  36.070   4.130
11272W        W72693  24.705  43.931  11.422
11273W        W72694  17.722   0.311   2.357
11274W        W72695   3.418  19.249  14.426
11275W        W72696  19.138   2.832   0.734
11276W        W72697  34.093  44.503   4.293
11277W        W72698  25.632  10.214   2.744
11278W        W72699  29.624  40.905   0.272
11279W        W72700   8.225  18.758  13.874
11280W        W72701  31.450   5.839  12.475
11281W        W72702  18.288  25.140  13.416
11282W        W72703  38.948  25.542   2.341
11283W        W72704  35.534  31.149   2.736
11284W        W72705  22.234  12.701   4.299
11285W        W72706  22.668  13.108  13.381
11286W        W72707  10.761  35.563   4.718
11287W        W72708  26.094  23.166   3.336
11288W        W72709   8.211  33.891   1.326
11289W        W72710  25.980   4.721  14.954
11290W        W72711   0.316  26.094  12.080
11291W        W72712   0.860  39.066  13.039
11292W        W72713  24.512  33.877   2.213
11293W        W72714  32.942   8.270   0.728
11294W        W72715  17.754  14.314   0.912
11295W        W72716  20.715  15.751  13.975
11296W        W72717  12.727  29.123   5.246
11297W        W72718   5.290  19.154   2.244
11298W        W72719  39.318  24.086   1.358
11299W        W72720  44.950  28.595  14.915
11300W        W72721  36.573  35.535   3.813
11301W        W72722   4.755  29.425   2.885
11302W        W72723  41.333  30.149   3.796
11303W        W72724  28.620  35.020   4.302
11304W        W72725  13.833  43.866   2.836
11305W        W72726  26.172  36.922   0.875
11306W        W72727  42.942  32.505  11.558
11307W        W72728  29.620  10.292   1.804
11308W        W72729  31.552  41.002  11.068
11309W        W72730  44.283   7.722  10.532
11310W        W72731  18.148  28.967   3.661
11311W        W72732  18.150  33.916   4.797
11312W        W72733  36.591  23.666   2.778
11313W        W72734  19.628  31.595   2.317
11314W        W72735  37.340  32.532   3.260
11315W        W72736  44.393  17.284  10.067
11316W        W72737  21.054  31.419   4.264
11317W        W72738  25.986  35.522   4.313
11318W        W72739  28.113  44.272  13.814
11319W        W72740  28.566  14.704  10.411
11320W        W72741  13.644  29.588   3.803
11321W        W72742  17.663   4.441   1.851
11322W        W72743  36.099  30.613   0.374
11323W        W72744  21.057  27.099  14.815
11324W        W72745  25.532   4.715   1.760
11325W        W72746   4.444  36.026   0.847
11326W        W72747  24.667  24.163   0.956
11327W        W72748  42.494  30.050   3.232
11328W        W72749  28.111  37.866   3.863
11329W        W72750  39.542   0.351   2.680
11330W        W72751  42.468  26.689  13.319
11331W        W72752  15.130  35.597   2.212
11332W        W72753  30.564  38.020   1.297
11333W        W72754   3.399   1.430   3.215
11334W        W72755  21.755  40.848  12.967
11335W        W72756  16.688  30.082   0.475
11336W        W72757  27.046  13.257  13.524
11337W        W72758  10.310   4.921  13.384
11338W        W72759  39.064  26.150  14.907
11339W        W72760  26.676  12.763   3.733
11340W        W72761  38.014  22.141   0.265
11341W        W72762  13.127  39.994  10.048
11342W        W72763  30.603  32.411   0.287
11343W        W72764  18.561   6.762   0.281
11344W        W72765  15.815  18.058  14.999
11345W        W72766  44.265  21.186  10.096
11346W        W72767  34.601  20.716   4.701
11347W        W72768  31.976  12.354  12.936
11348W        W72769  27.943  28.027   3.295
11349W        W72770  27.497  22.093   2.217
11350W        W72771  26.652  10.682  12.067
11351W        W72772   1.301  21.581   2.262
11352W        W72773  29.941   4.424  13.837
11353W        W72774  13.160   3.237   2.258
11354W        W72775  33.931  22.635  13.525
11355W        W72776   5.269  37.942  10.019
11356W        W72777  23.625  18.247   2.870
11357W        W72778  37.573  33.057  12.833
11358W        W72779  17.121  27.994  10.478
11359W        W72780  28.084  33.096   2.415
11360W        W72781  14.329  29.438   0.375
11361W        W72782  17.131  14.831   3.239
11362W        W72783  27.686  43.861   2.794
11363W        W72784  27.646   1.282  14.962
11364W        W72785  20.086  10.310   4.326
11365W        W72786  35.952  37.085  14.417
11366W        W72787   4.427  10.177  11.958
11367W        W72788  28.622  32.059   0.404
11368W        W72789  11.827  11.646   1.876
11369W        W72790  40.864  11.757  13.511
11370W        W72791   5.771   3.317   5.179
11371W        W72792  16.295  41.824   4.698
11372W        W72793  42.477  15.613   2.418
11373W        W72794  22.517  26.991   2.690
11374W        W72795  27.557  23.214   1.914
11375W        W72796  43.363  16.168  10.070
11376W        W72797  21.112  33.901   4.283
11377W        W72798  32.511   3.452   2.746
11378W        W72799   4.705   9.257  14.506
11379W        W72800  37.847  25.102  13.442
11380W        W72801   0.454  15.731   2.842
11381W        W72802  17.260   7.682   4.625
11382W        W72803  33.929  20.101  13.351
11383W        W72804  26.044  21.246  10.008
11384W        W72805  34.970  25.591  14.839
11385W        W72806  39.550  11.782  11.591
11386W        W72807  22.719   4.921  13.423
11387W        W72808  29.430   7.841   4.765
11388W        W72809  40.870  38.989   2.270
11389W        W72810  43.982  15.282   4.632
11390W        W72811   6.766  43.924   3.829
11391W        W72812   2.818  34.886   3.360
11392W        W72813  16.113  26.096  13.795
11393W        W72814  12.729  18.120  11.411
11394W        W72815   8.847  38.905  14.373
11395W        W72816   9.356   1.275  14.395
11396W        W72817  17.570  31.075   5.217
11397W        W72818  26.087  30.620   2.216
11398W        W72819   1.829  35.065   3.349
11399W        W72820   5.366  18.262  13.510
11400W        W72821  34.078  39.555  10.577
11401W        W72822  13.214   7.812   2.735
11402W        W72823   8.840  30.497  14.783
11403W        W72824   0.981  25.507   1.382
11404W        W72825  34.429   2.437  14.283
11405W        W72826  20.696   6.860  13.960
11406W        W72827  39.966  41.321  12.444
11407W        W72828  18.288  12.156   3.223
11408W        W72829  38.851  41.499   2.290
11409W        W72830  27.192  10.194   0.808
11410W        W72831  23.696  17.103  11.046
11411W        W72832  36.400  25.678   2.329
11412W        W72833  43.807  23.602  12.050
11413W        W72834  34.988  25.595   4.743
11414W        W72835  14.828  13.337  13.013
11415W        W72836  24.086   2.375   4.630
11416W        W72837   7.353   2.817   0.740
11417W        W72838  15.292  41.822   1.427
11418W        W72839  39.953  14.717   3.631
11419W        W72840  30.995  26.492  12.028
11420W        W72841  26.116   0.932   1.387
11421W        W72842   3.944  42.315  12.394
11422W        W72843  17.265  26.698   4.813
11423W        W72844   4.247  23.204   2.851
11424W        W72845  15.129  12.165  12.831
11425W        W72846   7.409  32.541   2.226
11426W        W72847  33.090  25.532  12.083
11427W        W72848   3.237  19.246   0.790
11428W        W72849   9.288  20.535   1.396
11429W        W72850   2.849   8.163   2.254
11430W        W72851   9.328  32.500  13.919
11431W        W72852  33.457  33.392  13.048
11432W        W72853  29.919  34.613   1.742
11433W        W72854  37.372   7.670   5.162
11434W        W72855  13.108  12.310  12.935
11435W        W72856   2.948   0.790   4.172
11436W        W72857  27.186   3.775   3.174
11437W        W72858  26.136  31.974  10.507
11438W        W72859   7.740   3.879  13.425
11439W        W72860   5.320  17.752  12.575
11440W        W72861  17.749  10.209  12.825
11441W        W72862  23.698  27.668  11.991
11442W        W72863  18.199  26.106   2.298
11443W        W72864  33.063  37.516  12.041
11444W        W72865  34.873  38.417   3.859
11445W        W72866  25.045  42.890   2.289
11446W        W72867  25.711   5.920  11.424
11447W        W72868  37.087  13.768  11.493
11448W        W72869   6.299   9.705  11.078
11449W        W72870  17.564  31.461   0.732
11450W        W72871   4.737  42.836  14.958
11451W        W72872  36.082  16.638  10.443
11452W        W72873  15.691  17.722   3.773
11453W        W72874  35.523  31.506  13.902
11454W        W72875  10.190   1.354   2.416
11455W        W72876   3.315  35.968   0.478
11456W        W72877  12.610   7.836  11.444
11457W        W72878   4.239  42.809  13.994
11458W        W72879   2.276  31.525   0.966
11459W        W72880  30.530  34.441   0.882
11460W        W72881   9.875  22.609   3.361
11461W        W72882   3.825   5.709   1.716
11462W        W72883  31.919  18.161   1.334
11463W        W72884  18.058  10.839  14.809
11464W        W72885  29.092  17.661  14.888
11465W        W72886   0.876  16.809  12.468
11466W        W72887   3.941  33.568   4.688
11467W        W72888  26.155   8.890  11.929
11468W        W72889  43.318   9.665  13.964
11469W        W72890  25.039  37.070  13.393
11470W        W72891  13.235  43.439   0.315
11471W        W72892  18.748  12.227  11.409
11472W        W72893  43.929  24.041  13.999
11473W        W72894  36.396  12.283   4.831
11474W        W72895   4.852  10.656   3.296
11475W        W72896  41.381   5.287  14.863
11476W        W72897  37.504   9.226  10.514
11477W        W72898   8.745  26.535  13.813
11478W        W72899  37.382   8.872   0.749
11479W        W72900  14.222  10.354   5.172
11480W        W72901  35.555  36.843  14.879
11481W        W72902   6.766   5.795  10.478
11482W        W72903  41.437  28.112  13.502
11483W        W72904  41.519  43.313  13.937
11484W        W72905  37.017   0.803  11.395
11485W        W72906  34.555  13.828   2.252
11486W        W72907  32.618  37.429   0.760
11487W        W72908   7.746  16.589  14.857
11488W        W72909  18.186  22.699  14.876
11489W        W72910  24.618  24.722  10.972
11490W        W72911  26.693  17.616   3.756
11491W        W72912   1.320  22.094   4.324
11492W        W72913   9.202  44.414  14.815
11493W        W72914  34.963  39.933  10.451
11494W        W72915  30.633  27.579  11.010
11495W        W72916  23.634  41.846   0.892
11496W        W72917  29.070  23.639  14.030
11497W        W72918  40.918  34.991   3.170
11498W        W72919  15.778  34.080  12.023
11499W        W72920   6.344  27.067  11.445
11500W        W72921  38.508   4.926   1.403
11501W        W72922   7.841  13.834  10.519
11502W        W72923  11.300  16.072   1.848
11503W        W72924  21.720  42.526   4.776
11504W        W72925  39.390  12.278  12.969
11505W        W72926  34.078   6.902  13.413
11506W        W72927  29.514   9.772   0.467
11507W        W72928  21.239  23.555   2.686
11508W        W72929  12.132  18.187  12.829
11509W        W72930  13.614  28.474  11.527
11510W        W72931  39.444   2.372  14.802
11511W        W72932  30.907  39.422   4.277
11512W        W72933   9.321  13.795  11.489
11513W        W72934  11.265   0.751   0.288
11514W        W72935  17.241  25.201   0.751
11515W        W72936  31.947  32.093   2.186
11516W        W72937  14.184  27.127  11.588
11517W        W72938  14.651  16.082   4.182
11518W        W72939   6.755  22.020  10.937
11519W        W72940  36.995   8.814   1.728
11520W        W72941  13.658  36.519  11.575
11521W        W72942  35.894   7.692   4.773
11522W        W72943  31.648   7.775   4.694
11523W        W72944  18.240   6.761   2.871
11524W        W72945   7.329   7.201  13.792
11525W        W72946  25.965  42.345  14.996
11526W        W72947  29.169  32.602   2.250
11527W        W72948  30.422  34.564   0.470
11528W        W72949  38.923   4.444  11.433
11529W        W72950  29.066  22.709  12.851
11530W        W72951  39.001  15.811   3.184
11531W        W72952  23.148  33.491   0.253
11532W        W72953  29.538  12.791   1.214
11533W        W72954  41.534  37.391   1.854
11534W        W72955  36.414   6.792  13.325
11535W        W72956  27.469   0.288   4.299
11536W        W72957  32.573  36.979  13.473
11537W        W72958  11.369  16.286   4.329
11538W        W72959   5.281  11.729   3.255
11539W        W72960  16.649  25.103   0.467
11540W        W72961  44.339  14.597  14.774
11541W        W72962  16.769   2.825   4.655
11542W        W72963  11.245  27.992   1.344
11543W        W72964   8.727  33.925   2.763
11544W        W72965  43.386  10.224   4.167
11545W        W72966  25.142  31.037  10.419
11546W        W72967  44.761   3.948  11.442
11547W        W72968   4.779  35.086   3.240
11548W        W72969  38.514  14.184   2.196
11549W        W72970  20.641  10.667  12.446
11550W        W72971  21.511  44.875  13.484
11551W        W72972  14.675   1.302   3.791
11552W        W72973  18.174  36.517   4.723
11553W        W72974   0.850   3.299  10.101
11554W        W72975  22.086  26.487   2.757
11555W        W72976  13.746  39.917  11.587
11556W        W72977  15.597   6.898   2.856
11557W        W72978  18.199   8.401  14.838
11558W        W72979  19.074   3.456  13.466
11559W        W72980  21.724  39.462  11.901
11560W        W72981  12.820  40.348  10.567
11561W        W72982   1.300  24.042  11.881
11562W        W72983  41.003  42.854  14.863
11563W        W72984  19.630  33.506   3.277
11564W        W72985   8.276  27.996  13.504
11565W        W72986  40.549   1.813   3.640
11566W        W72987  14.817  37.550   2.309
11567W        W72988  34.968  24.094  14.849
11568W        W72989  36.370  39.436   1.230
11569W        W72990  16.718   3.806  11.124
11570W        W72991  10.761   3.732  14.424
11571W        W72992  23.575   3.899   1.839
11572W        W72993  26.012  20.074   0.399
11573W        W72994  28.944  38.009   4.646
11574W        W72995  13.159  10.676   1.828
11575W        W72996  14.594   3.299  10.639
11576W        W72997  17.270  29.462   0.847
11577W        W72998  19.100  35.079   1.842
11578W        W72999   8.317  15.722   5.300
11579W        W73000  10.674   4.821   1.874
11580W        W73001  33.515  20.557   2.257
11581W        W73002  42.400  29.611   0.887
11582W        W73003  14.168   8.684  10.455
11583W        W73004  35.411  28.081  14.885
11584W        W73005  39.456  22.111   2.737
11585W        W73006   7.850   3.264  14.405
11586W        W73007  16.313  19.121   3.656
11587W        W73008   0.415  23.072   4.781
11588W        W73009   7.893  11.315   3.325
11589W        W73010  26.980   6.369   1.931
11590W        W73011   5.831  36.552   0.306
11591W        W73012  40.306  29.476   1.346
11592W        W73013  16.276  31.601   3.284
11593W        W73014  24.638  21.670   2.887
11594W        W73015  27.532   5.297  13.454
11595W        W73016  14.756   2.470   0.961
11596W        W73017   0.929   6.797  12.838
11597W        W73018  17.795  12.739  14.326
11598W        W73019  30.439  19.592  13.391
11599W        W73020  20.203  12.657   3.793
11600W        W73021  11.747  12.124  10.607
11601W        W73022  38.942  35.986  10.609
11602W        W73023   2.733  25.667  12.023
11603W        W73024   6.415  36.352  12.002
11604W        W73025  18.640  25.596  12.840
11605W        W73026  26.684  29.508  11.988
11606W        W73027   4.705  13.110   0.914
11607W        W73028   8.800  34.012  10.611
11608W        W73029  29.622  16.657   2.894
11609W        W73030  23.724  28.053  14.301
11610W        W73031  39.456  18.256  10.949
11611W        W73032   9.297   6.840   2.715
11612W        W73033  25.086  29.602  11.974
11613W        W73034  41.002  17.235   1.847
11614W        W73035  32.976  44.310  10.436
11615W        W73036   8.734  17.777   1.320
11616W        W73037  33.079  42.922  11.092
11617W        W73038  37.536  25.178   2.307
11618W        W73039  15.134  38.956   4.270
11619W        W73040  37.927  41.451  12.491
11620W        W73041  38.066   2.847  11.481
11621W        W73042  16.099  41.829   3.640
11622W        W73043  20.708  38.954  10.433
11623W        W73044  19.602  31.622   3.844
11624W        W73045  23.716  23.589  12.825
11625W        W73046  14.775   1.816  10.971
11626W        W73047   9.702  38.916  14.299
11627W        W73048  27.981  16.649   1.436
11628W        W73049  40.862  16.090   2.264
11629W        W73050  23.099   8.879   3.675
11630W        W73051  34.893  32.896   0.940
11631W        W73052  16.168   4.363   1.906
11632W        W73053  22.058  21.739   1.719
11633W        W73054  38.015  30.595   2.661
11634W        W73055  37.964  16.740   0.380
11635W        W73056  11.186  38.053  10.420
11636W        W73057   2.404  32.526   0.758
11637W        W73058  14.209  27.071  11.886
11638W        W73059  26.052  36.387   4.775
11639W        W73060  17.288  24.128   4.248
11640W        W73061  40.433   4.449  11.395
11641W        W73062  41.030  10.203  12.530
11642W        W73063  38.820  24.006   0.769
11643W        W73064  38.545  39.857   4.685
11644W        W73065   1.937  17.801  14.276
11645W        W73066   2.721  15.590   0.434
11646W        W73067  26.076  11.250   0.357
11647W        W73068  33.995  28.486  11.877
11648W        W73069  27.582  28.991  14.992
11649W        W73070  25.060  44.500  11.879
11650W        W73071  39.835  27.479   1.825
11651W        W73072  35.437  42.363   0.968
11652W        W73073  15.216  40.020   4.790
11653W        W73074  29.663  40.487  14.291
11654W        W73075   2.777  24.145  11.479
11655W        W73076   0.422  38.343  12.512
11656W        W73077  41.494  41.875  13.960
11657W        W73078   3.926  32.506   5.235
11658W        W73079  23.502  29.974   0.398
11659W        W73080  22.626  44.771  13.906
11660W        W73081  16.664   0.260   4.292
11661W        W73082  39.407   8.382  11.467
11662W        W73083  29.950  25.962  13.044
11663W        W73084   9.284   4.846  12.033
11664W        W73085  15.793  25.084  14.903
11665W        W73086   7.382  25.186   0.447
11666W        W73087   2.268  43.932   0.771
11667W        W73088  31.096  21.211  12.832
11668W        W73089  14.677  20.752   2.219
11669W        W73090  37.990  37.490   0.420
11670W        W73091   9.179  42.962   4.703
11671W        W73092  34.096   6.732  12.885
11672W        W73093   5.847  15.276   1.706
11673W        W73094  39.979  10.161  14.337
11674W        W73095  16.721  35.949  13.062
11675W        W73096  33.127  12.855  13.526
11676W        W73097  20.696  44.491   0.256
11677W        W73098  34.103  42.015  13.355
11678W        W73099  31.079  24.067   0.777
11679W        W73100   3.795  36.010  10.020
11680W        W73101  25.199  14.818  12.951
11681W        W73102   3.918  38.850  13.948
11682W        W73103  12.711  29.073  12.496
11683W        W73104   1.394  44.348  13.038
11684W        W73105   3.236   1.826  12.840
11685W        W73106  23.180  25.571  13.313
11686W        W73107  25.129  39.393  11.902
11687W        W73108  28.176  17.783  11.106
11688W        W73109  30.626  21.226  12.857
11689W        W73110  20.194  17.207   0.818
11690W        W73111  35.417  33.513   3.305
11691W        W73112  42.316  11.866  13.424
11692W        W73113  17.245  34.031  12.387
11693W        W73114  43.421  10.221   1.737
11694W        W73115  28.012  39.965   0.884
11695W        W73116  17.781   0.322  10.428
11696W        W73117  24.064   4.330  12.923
11697W        W73118   2.349  29.037   2.689
11698W        W73119  38.552  31.429  12.979
11699W        W73120  15.769  14.744   2.765
11700W        W73121  20.097  21.138   1.872
11701W        W73122  39.998  26.163  14.904
11702W        W73123  28.159  18.785  10.419
11703W        W73124  41.533  40.420  14.511
11704W        W73125  25.064  33.558   3.254
11705W        W73126   7.717   5.205   2.719
11706W        W73127  29.542   2.857   4.823
11707W        W73128  42.939  29.539  11.534
11708W        W73129  26.474  20.172   1.439
11709W        W73130   3.717   1.409  12.469
11710W        W73131  21.222  42.916  11.121
11711W        W73132  14.328  14.646  10.436
11712W        W73133  25.133  26.578  11.430
11713W        W73134  12.298  28.141   0.482
11714W        W73135  10.707  31.497   3.769
11715W        W73136  36.853  27.051   1.852
11716W        W73137   5.745  43.804   1.708
11717W        W73138  34.528   6.906   3.756
11718W        W73139  11.845  16.254  10.151
11719W        W73140  38.367  31.639   2.189
11720W        W73141  30.068   7.827   4.674
11721W        W73142  18.748   0.249   4.718
11722W        W73143  43.283  42.017  11.529
11723W        W73144  34.016  22.014   1.768
11724W        W73145  41.906  22.198   1.387
11725W        W73146  28.436   0.442   4.338
11726W        W73147  37.074   9.821  10.429
11727W        W73148  23.676  42.526   0.839
11728W        W73149  38.406  14.639   4.228
11729W        W73150  28.164  34.474  12.388
11730W        W73151  16.252   0.444  11.976
11731W        W73152  38.047   7.809   0.476
11732W        W73153  20.759  31.479  11.968
11733W        W73154  19.665  38.515  12.825
11734W        W73155   0.479  11.703  11.566
11735W        W73156   2.758  14.717   3.227
11736W        W73157  22.094   7.181   3.685
11737W        W73158  24.615   1.890   1.876
11738W        W73159  24.702  26.138   2.340
11739W        W73160   2.301   5.345  13.516
11740W        W73161  29.989   5.396   2.365
11741W        W73162  28.027  11.818  12.096
11742W        W73163  27.513  24.077   4.597
11743W        W73164  21.556  44.469  12.473
11744W        W73165  33.499   3.808  11.085
11745W        W73166  43.355  41.517  11.420
11746W        W73167   8.199  37.363   5.763
11747W        W73168   6.794  16.097  11.485
11748W        W73169  41.403   0.947  11.415
11749W        W73170  40.032  11.127   3.781
11750W        W73171   5.825  22.731   1.747
11751W        W73172  23.197   8.840   3.355
11752W        W73173  44.006   0.395  10.636
11753W        W73174  37.502   1.481  13.352
11754W        W73175  15.115  30.027  12.999
11755W        W73176   0.410  19.142  12.883
11756W        W73177  31.933  13.775   3.225
11757W        W73178   4.367  23.688  10.516
11758W        W73179  29.547  42.402   2.816
11759W        W73180   6.760  30.028   3.289
11760W        W73181  36.040  40.988  12.572
11761W        W73182   6.874  43.356   0.759
11762W        W73183  40.453  22.592   0.458
11763W        W73184   6.888   7.728   4.675
11764W        W73185  27.683   5.745   0.293
11765W        W73186   5.913   3.257   1.234
11766W        W73187   0.751  24.557  12.350
11767W        W73188  34.869  32.403  14.342
11768W        W73189  40.893   3.385   0.266
11769W        W73190  34.954  39.959  14.485
11770W        W73191  40.827  44.367   0.357
11771W        W73192  43.329  28.045  14.380
11772W        W73193  21.081   2.342  11.934
11773W        W73194  26.198  22.530   3.834
11774W        W73195  38.430  27.127   1.762
11775W        W73196  36.424  32.947   4.667
11776W        W73197   7.836  20.126  13.528
11777W        W73198  37.353   0.271  10.437
11778W        W73199   7.800  37.543  11.891
11779W        W73200  18.572   0.836  10.041
11780W        W73201   5.913  41.409   0.871
11781W        W73202  36.542  26.492  10.497
11782W        W73203  17.095   6.394  11.110
11783W        W73204   0.407  42.965  10.470
11784W        W73205  35.481  27.066  14.890
11785W        W73206  21.736  25.006   0.902
11786W        W73207  12.324   9.374   4.689
11787W        W73208  42.857  35.940  13.346
11788W        W73209  23.138  37.421  14.516
11789W        W73210   4.790  31.911  14.866
11790W        W73211  10.704  38.976   4.136
11791W        W73212  20.590   4.364  12.844
11792W        W73213  13.845  34.118   1.703
11793W        W73214   6.679  25.496   3.169
11794W        W73215   1.933  30.510   2.871
11795W        W73216  13.721  34.536  14.998
11796W        W73217  17.581   9.314  10.547
11797W        W73218  12.681  15.225   3.773
11798W        W73219   7.263  12.337  11.393
11799W        W73220  13.679  40.485   1.440
11800W        W73221  18.579  28.043   5.091
11801W        W73222  15.158  26.655   0.840
11802W        W73223   2.720  33.452  13.943
11803W        W73224  43.429  18.662   2.218
11804W        W73225   8.255  10.173   2.823
11805W        W73226  33.072  23.600   3.662
11806W        W73227  11.278  24.635   4.128
11807W        W73228  31.450  14.610   1.322
11808W        W73229  23.190   7.833   0.856
11809W        W73230  34.115  11.177   1.775
11810W        W73231  13.279  44.954   0.893
11811W        W73232  21.138  27.560  11.431
11812W        W73233  19.188  38.026  14.848
11813W        W73234  40.411  35.584   2.689
11814W        W73235  17.621  12.324   1.886
11815W        W73236  34.057  39.877  10.560
11816W        W73237  27.043  41.840  12.438
11817W        W73238  24.638  35.984   2.417
11818W        W73239  18.771  17.658   0.878
11819W        W73240  11.161  37.849   4.160
11820W        W73241  40.948  32.583  14.294
11821W        W73242  22.078  22.012   2.730
11822W        W73243  31.933  41.995   0.478
11823W        W73244  11.756  26.507  10.119
11824W        W73245   8.198   1.330   1.772
11825W        W73246  11.141   2.405   0.427
11826W        W73247  28.540  13.217  11.452
11827W        W73248  23.153  25.042   3.714
11828W        W73249  39.888   1.927   3.267
11829W        W73250  34.035  19.222  14.976
11830W        W73251   6.294   8.254   1.735
11831W        W73252  10.326   8.170   4.208
11832W        W73253  22.238  30.575   3.242
11833W        W73254  34.466  21.616   4.825
11834W        W73255   3.800  30.575   1.283
11835W        W73256  37.923  36.043  12.458
11836W        W73257  24.496  16.629   0.277
11837W        W73258   0.814   5.416  14.912
11838W        W73259  17.642  37.439   3.867
11839W        W73260  30.994  22.623  10.602
11840W        W73261  17.653   1.968  14.486
11841W        W73262  28.047   1.968  10.432
11842W        W73263  26.177  43.458  14.880
11843W        W73264  38.875  31.484   3.763
11844W        W73265  39.948   5.812  14.867
11845W        W73266  43.447  43.853   3.221
11846W        W73267  44.989  22.662   2.329
11847W        W73268  25.124  11.628   4.290
11848W        W73269   5.788  17.712   3.386
11849W        W73270  17.264  32.085   2.418
11850W        W73271   0.461  43.363  14.412
11851W        W73272   2.310  16.687   9.955
11852W        W73273  20.700  34.020   4.192
11853W        W73274  10.698   6.290   4.628
11854W        W73275  11.715   6.910   4.343
11855W        W73276  35.594  33.945   0.259
11856W        W73277  25.574  22.095   0.479
11857W        W73278  20.626  29.575  11.874
11858W        W73279  10.285  32.994  12.397
11859W        W73280   9.347   5.855  14.841
11860W        W73281  24.981  19.254   1.878
11861W        W73282  19.668  36.508   0.920
11862W        W73283  40.386  15.297   2.229
11863W        W73284  34.930  29.624  11.431
11864W        W73285  36.872  33.625   3.154
11865W        W73286  40.898  36.455   4.826
11866W        W73287  33.113  44.820   4.822
11867W        W73288   7.190  41.038  14.907
11868W        W73289  23.712  15.098  13.996
11869W        W73290  27.532  10.200  14.926
11870W        W73291  34.931  16.282  12.824
11871W        W73292  21.558  27.631   2.844
11872W        W73293  39.944  22.674  10.915
11873W        W73294  34.943  36.402  14.994
11874W        W73295  15.676  33.618  14.290
11875W        W73296  40.490  15.594  14.370
11876W        W73297  38.828   1.481  14.808
11877W        W73298  43.271  35.553  12.897
11878W        W73299  32.965  31.477  11.518
11879W        W73300   4.860  18.073  14.825
11880W        W73301  13.274  16.585   0.834
11881W        W73302  23.603  17.175   1.694
11882W        W73303  44.002  13.314  11.556
11883W        W73304  26.012  13.620  12.887
11884W        W73305  23.238  18.717  13.863
11885W        W73306  17.773  14.216  12.557
11886W        W73307  28.565  25.710  11.479
11887W        W73308  29.620  26.651  11.081
11888W        W73309  21.170  16.618  10.508
11889W        W73310   5.853  13.159   4.267
11890W        W73311   6.881  40.375  12.063
11891W        W73312  24.074  28.033  11.892
11892W        W73313  27.520   8.254   0.916
11893W        W73314  36.478  14.810   0.250
11894W        W73315  16.249  23.670   2.320
11895W        W73316   6.341  34.898   1.224
11896W        W73317  25.636  10.274  13.526
11897W        W73318   8.749  25.691   4.599
11898W        W73319  11.277  27.021  11.100
11899W        W73320  27.078  26.001   1.374
11900W        W73321   3.221   4.810   2.256
11901W        W73322  20.206  12.243  14.867
11902W        W73323  39.911  37.919   3.659
11903W        W73324   1.733  32.570   2.865
11904W        W73325  16.084  34.925   1.731
11905W        W73326  22.631  24.502   3.683
11906W        W73327  22.575   5.848   3.814
11907W        W73328  16.141   9.274  13.940
11908W        W73329  34.993  30.115  12.932
11909W        W73330  38.987   9.675   2.821
11910W        W73331  44.301  44.963   2.349
11911W        W73332   5.874  13.240   2.829
11912W        W73333  32.520  22.561  11.899
11913W        W73334  40.311   9.305  12.576
11914W        W73335  41.315  37.463   4.195
11915W        W73336  20.617   8.198   5.183
11916W        W73337  30.986  43.793   4.120
11917W        W73338  39.492   7.778  14.764
11918W        W73339  37.576   6.268  10.894
11919W        W73340  37.992   6.408  11.452
11920W        W73341  11.847  37.038  11.086
11921W        W73342   5.774   7.707   3.865
11922W        W73343  39.512  22.027  14.006
11923W        W73344  40.020  25.131   0.264
11924W        W73345   1.432  33.595   1.228
11925W        W73346  42.394  15.139   3.325
11926W        W73347  24.183  19.656  10.997
11927W        W73348  31.562   3.804   2.853
11928W        W73349  36.585  42.424  14.775
11929W        W73350  26.012  44.293   3.257
11930W        W73351   0.796  27.603   4.127
11931W        W73352  17.716  35.082   2.234
11932W        W73353  39.532  27.988  11.887
11933W        W73354  15.803  29.005   3.806
11934W        W73355  18.281  15.239   0.912
11935W        W73356  18.609  22.569  13.539
11936W        W73357  37.474   8.302  10.929
11937W        W73358  42.928  20.039  13.049
11938W        W73359   7.184   8.668  10.932
11939W        W73360  38.469  43.018  13.426
11940W        W73361  29.446  15.207   4.231
11941W        W73362   0.461  37.481  12.369
11942W        W73363  38.925  37.071  12.969
11943W        W73364  22.084  41.487  14.997
11944W        W73365   7.416  23.608  11.466
11945W        W73366  14.254  10.153  13.324
11946W        W73367  12.217  22.662  12.062
11947W        W73368   4.792  14.768   1.763
11948W        W73369  10.673   2.344   3.251
11949W        W73370  36.066   1.395   1.424
11950W        W73371  23.063  30.630  12.948
11951W        W73372  34.445  14.764   2.298
11952W        W73373   7.794  24.973  11.597
11953W        W73374  20.613  23.627  12.525
11954W        W73375  30.633  30.114  14.013
11955W        W73376  18.578  12.628   2.243
11956W        W73377  24.065  22.605   2.774
11957W        W73378   3.216  16.099  11.935
11958W        W73379  11.204  27.961  11.538
11959W        W73380  27.116  38.563  13.888
11960W        W73381  22.042   5.756  11.877
11961W        W73382  44.808  33.875   3.383
11962W        W73383  36.950  11.233   1.810
11963W        W73384  31.549   9.779   2.223
11964W        W73385  12.818  27.603   1.291
11965W        W73386  17.751   3.225  13.030
11966W        W73387   4.369  22.230   3.739
11967W        W73388  30.654   3.875   0.321
11968W        W73389  39.026   0.893  10.630
11969W        W73390  13.107  12.805   4.680
11970W        W73391  32.931  16.742   3.311
11971W        W73392   6.392  32.972   4.643
11972W        W73393  39.468  44.493  10.481
11973W        W73394  17.626  10.281   2.862
11974W        W73395  38.373  14.657   1.821
11975W        W73396  28.471   0.440  13.033
11976W        W73397   1.480  32.401   0.749
11977W        W73398  36.013   5.357  11.405
11978W        W73399  35.579  42.286   3.679
11979W        W73400  20.730   8.190   2.682
11980W        W73401  14.649  17.684  14.980
11981W        W73402  43.881   8.768  13.003
11982W        W73403  19.743  24.703  10.577
11983W        W73404   6.915  17.566   3.286
11984W        W73405  28.977  25.654   4.648
11985W        W73406  24.620  32.530  14.440
11986W        W73407   3.899  28.512   0.898
11987W        W73408  38.378  17.724   0.904
11988W        W73409   8.197  39.810   0.308
11989W        W73410  28.440   7.293  11.502
11990W        W73411  43.441  37.973   1.889
11991W        W73412  20.657  16.597  10.911
11992W        W73413   4.858  42.963   2.661
11993W        W73414   6.314  40.818   3.738
11994W        W73415   5.223  41.823  13.846
11995W        W73416   2.324  22.586  13.465
11996W        W73417  27.446  17.573   3.214
11997W        W73418  22.518  17.723   1.741
11998W        W73419  23.618  31.947  12.421
11999W        W73420  30.118  24.564   0.290
12000W        W73421   9.840  27.972   3.709
12001W        W73422   9.681  24.040  12.407
12002W        W73423  17.268  44.291  10.938
12003W        W73424  26.580  19.664  11.558
12004W        W73425  29.426   1.297   1.857
12005W        W73426  29.631   4.781   9.960
12006W        W73427  25.705  44.903  13.507
12007W        W73428  27.092  41.928  13.462
12008W        W73429   9.180  31.466  13.518
12009W        W73430  44.446   3.878   3.361
12010W        W73431  34.934  11.134   2.407
12011W        W73432  11.816  26.068  14.792
12012W        W73433  25.976   2.751  13.320
12013W        W73434  10.671  40.843   2.375
12014W        W73435   8.389  41.312  12.868
12015W        W73436  10.734  17.740   4.346
12016W        W73437   2.731  39.352  12.344
12017W        W73438  30.047  10.384   0.868
12018W        W73439   0.317  38.524  12.965
12019W        W73440   9.808  24.001  12.058
12020W        W73441  20.248  18.728   2.409
12021W        W73442  44.983   7.224   3.364
12022W        W73443  10.696   4.442  11.917
12023W        W73444  11.355   0.872  11.993
12024W        W73445   5.237  18.294  12.884
12025W        W73446  35.956   0.256  10.971
12026W        W73447  41.952  40.374  10.476
12027W        W73448  27.050  34.371  12.970
12028W        W73449  35.481  17.764   0.423
12029W        W73450  23.658   3.308  12.579
12030W        W73451  32.449  32.411  11.380
12031W        W73452  37.410  12.701  12.398
12032W        W73453  44.475  11.701   2.756
12033W        W73454  18.649  35.860   2.771
12034W        W73455  29.469  22.030  14.827
12035W        W73456  17.612  16.648  13.334
12036W        W73457   7.906  34.369   1.413
12037W        W73458  38.014  16.285  10.051
12038W        W73459  20.107  29.042  10.001
12039W        W73460   7.264   3.925   5.126
12040W        W73461  31.451   4.737   9.967
12041W        W73462   6.898  22.572  10.987
12042W        W73463  38.545  40.830  14.801
12043W        W73464  29.079   9.212   0.337
12044W        W73465   6.301   8.308  13.497
12045W        W73466  19.538  10.329   3.818
12046W        W73467  12.695  29.585   2.344
12047W        W73468  33.525  12.348  12.900
12048W        W73469   8.840  42.800  10.025
12049W        W73470  42.910  44.990  11.083
12050W        W73471  22.503  13.264  11.973
12051W        W73472   2.722  25.476   0.279
12052W        W73473  17.576  37.409   0.361
12053W        W73474   5.814   2.864   0.767
12054W        W73475  34.009   6.355   3.385
12055W        W73476  19.196  27.514  13.482
12056W        W73477  10.724   2.949  14.772
12057W        W73478  20.659   5.833   3.802
12058W        W73479   4.915   7.316  12.409
12059W        W73480  36.869   0.956   0.752
12060W        W73481  37.541   4.432  11.993
12061W        W73482  14.596  37.520   4.152
12062W        W73483   7.856   7.206  14.875
12063W        W73484  28.085  41.493  13.427
12064W        W73485  42.932  18.759  11.548
12065W        W73486  29.548  29.155  13.458
12066W        W73487  15.700  40.388  14.472
12067W        W73488   7.893   7.285   2.673
12068W        W73489  20.684  24.717   0.750
12069W        W73490   1.791  37.569   1.338
12070W        W73491  29.133  34.459  12.503
12071W        W73492  37.438  12.729  10.909
12072W        W73493  11.157  27.185   1.837
12073W        W73494  43.383   1.252   2.825
12074W        W73495  20.745   6.346   2.852
12075W        W73496  24.050  40.034  11.933
12076W        W73497  19.581  16.108   5.133
12077W        W73498  23.027  31.058   1.784
12078W        W73499  13.773  12.147   3.810
12079W        W73500  41.923   2.283   3.176
12080W        W73501   9.171  11.182  12.087
12081W        W73502   8.749   9.853   3.204
12082W        W73503  40.804  43.785   3.857
12083W        W73504  30.451  20.137  14.830
12084W        W73505  33.981   5.415  12.016
12085W        W73506   6.285  28.672  13.871
12086W        W73507   6.902  33.605   0.451
12087W        W73508  14.818  33.572  11.954
12088W        W73509  37.007  14.807  10.542
12089W        W73510  41.511  43.878   1.423
12090W        W73511  12.646  18.590   0.376
12091W        W73512   0.474   4.286   3.845
12092W        W73513  23.119  36.861  10.488
12093W        W73514  31.151  18.563   4.154
12094W        W73515  30.928   0.744   1.716
12095W        W73516  40.884   5.893   1.867
12096W        W73517  12.228  44.262   4.116
12097W        W73518  26.028  29.617  12.827
12098W        W73519  34.037  18.604  12.447
12099W        W73520  22.031  27.015  13.382
12100W        W73521  28.986  12.235  12.919
12101W        W73522   0.920  18.118   2.811
12102W        W73523  44.918  29.026  11.483
12103W        W73524  44.998   5.208   0.340
12104W        W73525   0.941  15.591   1.929
12105W        W73526  31.453   8.694   2.233
12106W        W73527  23.516  19.224  12.007
12107W        W73528  43.791  44.375   4.159
12108W        W73529  31.461  18.750   4.269
12109W        W73530   9.690  27.555  14.980
12110W        W73531  32.982  19.280   4.255
12111W        W73532  27.542  41.800   1.902
12112W        W73533  42.858  15.260   2.383
12113W        W73534  16.662  28.068  14.837
12114W        W73535  22.708  16.137   2.398
12115W        W73536  23.675  42.291  14.808
12116W        W73537  36.086  18.582   5.128
12117W        W73538  33.955  14.257   9.525
12118W        W73539  40.514   3.381  11.065
12119W        W73540  28.503  30.160   1.898
12120W        W73541   2.725   0.935  13.427
12121W        W73542   9.865  16.751  13.011
12122W        W73543  35.982   8.225   4.126
12123W        W73544   8.659  38.397  14.772
12124W        W73545  43.395   0.396   2.880
12125W        W73546  40.388   5.724  12.578
12126W        W73547  43.282   8.848  14.410
12127W        W73548  26.149  33.044  12.841
12128W        W73549  10.845  11.214   2.859
12129W        W73550  31.904   3.764   1.826
12130W        W73551  34.471  10.823  11.396
12131W        W73552  16.794  42.282   3.268
12132W        W73553  38.020  29.108  14.818
12133W        W73554  11.762  34.588   0.294
12134W        W73555  27.095  21.170   0.317
12135W        W73556  19.196  22.571  11.086
12136W        W73557  36.003  23.549   2.232
12137W        W73558   4.921  15.095  13.806
12138W        W73559  44.430  42.933   0.789
12139W        W73560  36.897   3.873  11.550
12140W        W73561  37.980  27.463   3.636
12141W        W73562  38.402  35.577   2.686
12142W        W73563  15.663  13.259   0.255
12143W        W73564   3.831  31.046   3.223
12144W        W73565  12.696  21.655  11.514
12145W        W73566  35.081   5.414  10.572
12146W        W73567  27.188  13.208   1.433
12147W        W73568  38.068   7.677   3.711
12148W        W73569  24.697  13.714   0.887
12149W        W73570  23.522  40.842  13.338
12150W        W73571  32.618   2.847   9.636
12151W        W73572  25.690   8.666   1.246
12152W        W73573  40.310  13.336  10.960
12153W        W73574  12.143   5.346  12.438
12154W        W73575  32.071   2.776   2.770
12155W        W73576  32.013  19.595  13.919
12156W        W73577  11.832  21.568   4.728
12157W        W73578  17.596  30.911   4.184
12158W        W73579  27.103  34.882  12.423
12159W        W73580   7.411  34.971   3.284
12160W        W73581   8.877  39.958   0.282
12161W        W73582  36.857  20.592   1.229
12162W        W73583   5.884  37.020  12.431
12163W        W73584   7.312  10.659   4.171
12164W        W73585  31.542  21.106  10.560
12165W        W73586  20.690  28.165   0.413
12166W        W73587  37.947  30.500  10.494
12167W        W73588  39.360  16.258   1.381
12168W        W73589  30.996  41.892  14.013
12169W        W73590  35.060  10.717   2.411
12170W        W73591  37.439   3.284  12.509
12171W        W73592  30.527   3.921  14.421
12172W        W73593  21.705  38.439  11.490
12173W        W73594  24.074  29.625   0.868
12174W        W73595  21.544  11.202  13.863
12175W        W73596  24.153  18.764   2.409
12176W        W73597  26.628  17.129  13.806
12177W        W73598  42.510  30.164   2.372
12178W        W73599   9.340  24.138   4.314
12179W        W73600  31.437   5.243   4.702
12180W        W73601  42.802  43.378  12.927
12181W        W73602  14.748  29.039   4.156
12182W        W73603  34.001  43.486   0.460
12183W        W73604  32.497  30.001   1.910
12184W        W73605  21.151  15.708  10.409
12185W        W73606  33.934  22.702   2.799
12186W        W73607  16.144  14.299  12.845
12187W        W73608  42.837  42.864   0.900
12188W        W73609   4.322  11.147   1.437
12189W        W73610  10.141  19.646   1.393
12190W        W73611  22.662  13.282  12.414
12191W        W73612  14.300   0.768   3.630
12192W        W73613  23.163   1.402  11.981
12193W        W73614  25.675  27.943  12.873
12194W        W73615  22.655  42.525  13.997
12195W        W73616  18.571  40.345  14.786
12196W        W73617  10.280   4.308   2.314
12197W        W73618  28.025   1.339   4.239
12198W        W73619  32.012  27.057  11.932
12199W        W73620  19.544  27.648  11.078
12200W        W73621  12.126  20.133  12.022
12201W        W73622  21.748  14.099  13.824
12202W        W73623  44.298  21.743  11.866
12203W        W73624  30.079  27.065   2.666
12204W        W73625  39.416  35.537   3.279
12205W        W73626  17.593  23.567   2.803
12206W        W73627   4.222  26.159  10.059
12207W        W73628   1.890  18.090   2.825
12208W        W73629   8.778  43.349   4.716
12209W        W73630   4.705  42.367  11.921
12210W        W73631   6.231  44.266   9.979
12211W        W73632  18.096  32.434   0.775
12212W        W73633  21.252  40.891   0.298
12213W        W73634   9.724  19.057   2.890
12214W        W73635  40.881  11.798   4.157
12215W        W73636  37.481   5.204   2.728
12216W        W73637  41.850  43.837   3.819
12217W        W73638  12.732   0.858  11.518
12218W        W73639  22.610  23.095   2.844
12219W        W73640  29.594  31.056   3.803
12220W        W73641   9.714  24.606   4.324
12221W        W73642  32.118  16.755  11.121
12222W        W73643  32.064   1.465   1.221
12223W        W73644   9.795  36.095  10.601
12224W        W73645   2.788  33.435  13.480
12225W        W73646  43.769  17.746   2.842
12226W        W73647  18.173  16.259   3.204
12227W        W73648   9.324  44.410   2.737
12228W        W73649  26.619   3.915   3.703
12229W        W73650  22.144  27.067  13.864
12230W        W73651  17.600  29.120  11.557
12231W        W73652  40.993  15.172  11.422
12232W        W73653   5.695  27.673   4.784
12233W        W73654  32.442   0.459   3.786
12234W        W73655  43.009  39.442  11.609
12235W        W73656  41.362  18.760   2.735
12236W        W73657  27.556  28.127  11.040
12237W        W73658  18.728   5.403   0.399
12238W        W73659   3.438  35.603  14.354
12239W        W73660  23.612  23.237  10.599
12240W        W73661   9.260   9.679   0.916
12241W        W73662  44.951  17.238  10.896
12242W        W73663   3.917  36.457   3.712
12243W        W73664  41.817   2.865   3.288
12244W        W73665  29.101  12.671  13.855
12245W        W73666  10.234   5.860  11.516
12246W        W73667  26.530   2.866   2.254
12247W        W73668  37.380   6.343   3.678
12248W        W73669  40.386   9.850   4.313
12249W        W73670   2.309  37.556  13.411
12250W        W73671  35.891   8.793  12.966
12251W        W73672  36.939   7.195   4.333
12252W        W73673  17.126  29.459  12.827
12253W        W73674  21.722  26.629  14.374
12254W        W73675  17.234  15.809   1.723
12255W        W73676  18.670  31.142  13.969
12256W        W73677  40.549   0.349   2.249
12257W        W73678  39.028   3.890   2.803
12258W        W73679  18.088  31.992   4.630
12259W        W73680  44.999  18.774  14.990
12260W        W73681  23.150  41.320  12.938
12261W        W73682  12.693  15.766  14.815
12262W        W73683   0.904   1.925   3.385
12263W        W73684  30.149  11.797   5.195
12264W        W73685  19.578  26.002  13.469
12265W        W73686   6.867  15.650   4.836
12266W        W73687  20.613  31.535   0.427
12267W        W73688  13.320  19.544  12.408
12268W        W73689  15.628   6.847  12.997
12269W        W73690  17.621  34.954  11.914
12270W        W73691  37.081   5.784   1.837
12271W        W73692  33.113  20.631  13.504
12272W        W73693  26.026  37.903   3.258
12273W        W73694   5.196  24.973   3.237
12274W        W73695  23.989  29.959   4.679
12275W        W73696  16.296  15.254   1.757
12276W        W73697  23.566  22.548   2.327
12277W        W73698  26.102  41.949  12.015
12278W        W73699   1.244   2.726   4.254
12279W        W73700   7.227   5.836  11.074
12280W        W73701   9.864  36.027  13.042
12281W        W73702  37.951  21.618   4.742
12282W        W73703  44.388   4.212   1.889
12283W        W73704   2.726  19.674  14.378
12284W        W73705   5.909   4.313   3.696
12285W        W73706  21.575  10.750  14.863
12286W        W73707  41.038  10.730   9.590
12287W        W73708  31.415  40.517   1.247
12288W        W73709   7.194  30.590  11.946
12289W        W73710  33.473   4.391  11.488
12290W        W73711  37.845  32.441  12.095
12291W        W73712  22.645  20.101  10.422
12292W        W73713   7.292  38.442  14.922
12293W        W73714  33.008  13.277  12.047
12294W        W73715  25.217   6.356  13.869
12295W        W73716   1.936  39.345   2.372
12296W        W73717  13.295  20.183   0.962
12297W        W73718  38.068   2.749   3.319
12298W        W73719   7.348  12.715   4.664
12299W        W73720  32.496   3.888  12.043
12300W        W73721  27.958  17.160  14.461
12301W        W73722  19.655  16.724  12.041
12302W        W73723  26.116   1.237  13.906
12303W        W73724  37.403  41.470  12.970
12304W        W73725  19.200  19.058  11.079
12305W        W73726  39.388  29.639  13.025
12306W        W73727  18.763  21.142  10.499
12307W        W73728  14.105   3.437  11.877
12308W        W73729  20.556   0.482   0.391
12309W        W73730   6.802  14.200   4.166
12310W        W73731   7.868  26.508  12.068
12311W        W73732  18.559  24.574   3.234
12312W        W73733  24.025  39.000  13.499
12313W        W73734  23.518  34.024   3.680
12314W        W73735   9.663  32.128  12.030
12315W        W73736  40.844  26.127  12.886
12316W        W73737  29.987   2.827  12.490
12317W        W73738  14.804   0.321   4.332
12318W        W73739  30.521  26.634  11.444
12319W        W73740  43.767  11.791  11.555
12320W        W73741  10.234   7.862   2.358
12321W        W73742  17.725   5.893   2.827
12322W        W73743  15.675   1.961  11.857
12323W        W73744  31.537  32.535   0.295
12324W        W73745  33.492  24.489   4.613
12325W        W73746  41.445  38.451  10.563
12326W        W73747   4.809  23.546   1.382
12327W        W73748   9.217  19.246  11.093
12328W        W73749   4.826  30.477  13.479
12329W        W73750  35.910  15.612   2.742
12330W        W73751  10.765   4.396   2.178
12331W        W73752  21.670   4.205  11.976
12332W        W73753   9.861  40.444   0.907
12333W        W73754  23.136  28.176   4.320
12334W        W73755  12.220  22.081  12.938
12335W        W73756  10.757  10.263   1.373
12336W        W73757  40.320  30.081   1.301
12337W        W73758  19.577   4.435  12.478
12338W        W73759  27.473  44.897  12.500
12339W        W73760  24.610  43.487   0.905
12340W        W73761  36.085   1.296   2.681
12341W        W73762  22.242   0.441  14.916
12342W        W73763  23.095  13.661  14.443
12343W        W73764  43.984  26.583  14.421
12344W        W73765  34.943  10.808   3.859
12345W        W73766  42.978  34.030  14.983
12346W        W73767  12.732   9.761   2.283
12347W        W73768  15.718  37.461   1.850
12348W        W73769  13.685  34.935   2.721
12349W        W73770  22.582  18.251  10.545
12350W        W73771   3.431  33.533   4.608
12351W        W73772   6.731   7.307  13.959
12352W        W73773  44.502  29.642  11.498
12353W        W73774  39.445   2.731  11.471
12354W        W73775  38.952  24.070  14.974
12355W        W73776  22.225  22.195  13.973
12356W        W73777  29.425  21.112  10.017
12357W        W73778  20.084  11.867  12.483
12358W        W73779  12.245  16.610   1.224
12359W        W73780  14.121  17.677   4.137
12360W        W73781  36.540  15.663   3.834
12361W        W73782  18.747  36.425   2.192
12362W        W73783  15.121   2.730  11.921
12363W        W73784  41.031  12.709   4.795
12364W        W73785  37.041  18.211  11.071
12365W        W73786  12.717  24.037   4.683
12366W        W73787  34.579  32.537   3.255
12367W        W73788  15.121  34.921   3.647
12368W        W73789  43.435   3.934  10.472
12369W        W73790   3.815  11.285  12.530
12370W        W73791  32.447  24.518  11.095
12371W        W73792   8.330   3.881  13.448
12372W        W73793  14.235  37.436   4.208
12373W        W73794  31.034  13.322   9.503
12374W        W73795  15.315  44.463   4.781
12375W        W73796  34.390   1.467  12.351
12376W        W73797   7.885  11.732   3.269
12377W        W73798  38.362  43.910  14.510
12378W        W73799  31.053   2.842   2.400
12379W        W73800  13.643  14.602   4.275
12380W        W73801  44.424  13.182  10.081
12381W        W73802   1.862  11.648  10.553
12382W        W73803   7.670   8.793  11.022
12383W        W73804  36.899  34.422  11.998
12384W        W73805   5.872  30.926  12.552
12385W        W73806  23.673  33.982   1.210
12386W        W73807  33.587  22.170   4.744
12387W        W73808   9.246  36.578   0.925
12388W        W73809   4.311  24.622   1.891
12389W        W73810  36.855  24.695  14.332
12390W        W73811  12.754  41.482   1.369
12391W        W73812  21.551  33.036  11.433
12392W        W73813  35.029  20.248  12.430
12393W        W73814   8.350  11.167  10.487
12394W        W73815  31.471  40.541  12.459
12395W        W73816  44.814   5.875  10.911
12396W        W73817  10.174  11.301   1.446
12397W        W73818  18.279  11.287   5.596
12398W        W73819  40.393  41.530   3.746
12399W        W73820   6.398  22.089  14.854
12400W        W73821   7.878   8.207  14.898
12401W        W73822  18.685  42.499  11.417
12402W        W73823   1.911  41.920  13.932
12403W        W73824  19.139   4.308  13.998
12404W        W73825   5.708  31.945   1.216
12405W        W73826  30.489   6.868  11.039
12406W        W73827  32.593  34.541  12.965
12407W        W73828  36.031  11.762   1.329
12408W        W73829   9.701  23.499   1.233
12409W        W73830   2.384  34.501  14.968
12410W        W73831  20.135  42.829  13.405
12411W        W73832  29.594   6.293   4.720
12412W        W73833   2.907  11.691  11.542
12413W        W73834  15.599  36.518  12.543
12414W        W73835  13.741  32.466  12.504
12415W        W73836  24.652  12.333  13.368
12416W        W73837  34.588  28.649  14.827
12417W        W73838  44.780  44.313   2.698
12418W        W73839  33.999  19.134  12.073
12419W        W73840  34.571   5.753  11.080
12420W        W73841  11.626  35.458   0.296
12421W        W73842  13.722   0.442   4.141
12422W        W73843  18.685  29.560  11.051
12423W        W73844  12.648  25.045  11.096
12424W        W73845  37.833  29.033  10.561
12425W        W73846  29.090  33.050   0.478
12426W        W73847  21.754  35.577   4.271
12427W        W73848   3.268  10.329  11.983
12428W        W73849   4.708  43.828   4.128
12429W        W73850  41.868  36.503   4.610
12430W        W73851  32.892  31.409   3.246
12431W        W73852  27.135  35.941  11.925
12432W        W73853  16.183  29.162  12.511
12433W        W73854  21.644  18.690   1.718
12434W        W73855   0.744  11.246  13.037
12435W        W73856  23.095  23.527  10.464
12436W        W73857  28.032  15.109   0.242
12437W        W73858  12.233  36.869   4.674
12438W        W73859  44.355  20.122  14.836
12439W        W73860   9.804  44.936   4.728
12440W        W73861  31.522  37.511  13.310
12441W        W73862  28.452  41.504  11.035
12442W        W73863  26.638  26.062  14.939
12443W        W73864  15.701  15.735  14.427
12444W        W73865  38.994  36.479  14.487
12445W        W73866  27.086  31.147   0.826
12446W        W73867   0.967  23.117   1.844
12447W        W73868  32.566  39.846  12.849
12448W        W73869   7.345  16.170   1.812
12449W        W73870  14.146   7.865  12.559
12450W        W73871   9.728  22.203  10.594
12451W        W73872  16.638   8.878  13.878
12452W        W73873  12.189  30.539  14.025
12453W        W73874  21.577  33.553   1.439
12454W        W73875  35.917  31.401  11.428
12455W        W73876  13.185  10.837  13.475
12456W        W73877  26.200   2.367  10.519
12457W        W73878  32.962  20.269   1.703
12458W        W73879  20.221   9.751  11.564
12459W        W73880  25.520  24.139   4.763
12460W        W73881   9.289  24.062  13.443
12461W        W73882  30.481   4.856   4.749
12462W        W73883   4.426  14.318  12.989
12463W        W73884  39.818  42.492  12.832
12464W        W73885  36.893  43.378  11.408
12465W        W73886  24.080  13.128  10.502
12466W        W73887  31.614  28.052  10.437
12467W        W73888  10.693  33.422   2.221
12468W        W73889   4.869   7.768   0.276
12469W        W73890  44.376  13.826   1.758
12470W        W73891  27.063  43.819   4.605
12471W        W73892  38.412  39.818  13.366
12472W        W73893  29.429   1.298  10.439
12473W        W73894  35.527  11.202  13.830
12474W        W73895  43.302  34.473   0.731
12475W        W73896   2.923  10.736   0.357
12476W        W73897  28.445  32.464  13.367
12477W        W73898  33.104  17.675  10.587
12478W        W73899  40.985  35.938   3.859
12479W        W73900   5.347  29.642  11.375
12480W        W73901  21.154  13.787   0.476
12481W        W73902   5.846  16.080  11.880
12482W        W73903  43.344  42.807  12.573
12483W        W73904  36.445   2.860  14.368
12484W        W73905  36.081  25.599   1.373
12485W        W73906   5.292  35.860  12.468
12486W        W73907  21.031  43.378  10.951
12487W        W73908  19.069  31.511  13.878
12488W        W73909  20.745  39.520  14.367
12489W        W73910  29.647  35.455   3.195
12490W        W73911  31.492   6.425  12.039
12491W        W73912   8.374   8.862   0.788
12492W        W73913   6.253  28.584  11.952
12493W        W73914  28.586  14.199  11.037
12494W        W73915  13.672  26.535   2.686
12495W        W73916   1.934  23.716  12.024
12496W        W73917  33.407   2.922  13.847
12497W        W73918   8.369   2.270  14.341
12498W        W73919  35.922  44.387   0.353
12499W        W73920  32.572  14.311  14.365
12500W        W73921  36.859  39.949  12.409
12501W        W73922  35.523  30.527   3.733
12502W        W73923  41.930  28.089  12.386
12503W        W73924  31.624   3.296  10.070
12504W        W73925  44.366  15.319  12.914
12505W        W73926  41.389   6.401   0.417
12506W        W73927   7.291  26.020  13.535
12507W        W73928   7.245   8.160   1.279
12508W        W73929  33.909  29.629   9.952
12509W        W73930  24.595  13.764   3.338
12510W        W73931  22.169  27.961  12.490
12511W        W73932   1.775   0.404   0.325
12512W        W73933  36.367   2.721  12.987
12513W        W73934  43.806  33.552  13.542
12514W        W73935  27.579  39.560   0.861
12515W        W73936   8.299  29.525  13.939
12516W        W73937  11.694  27.455   1.305
12517W        W73938  12.345   6.345   0.384
12518W        W73939   4.359  15.628  11.419
12519W        W73940  38.996   3.432   4.717
12520W        W73941   0.881  22.640   0.748
12521W        W73942  28.971  16.178   4.724
12522W        W73943  13.119   4.904   2.335
12523W        W73944   5.837  13.199  12.881
12524W        W73945  37.494  40.459   2.250
12525W        W73946  37.030  31.908   1.412
12526W        W73947  17.610   5.921  11.430
12527W        W73948  18.601  16.084   3.213
12528W        W73949   8.331  19.719  11.434
12529W        W73950  25.570   5.289   1.796
12530W        W73951  22.517  20.034  11.492
12531W        W73952  11.340  40.832   2.248
12532W        W73953  32.596  44.962  11.426
12533W        W73954  15.732   8.227   1.792
12534W        W73955  10.725  44.778  12.409
12535W        W73956  39.029  25.509   3.258
12536W        W73957  35.559  11.367   3.285
12537W        W73958  27.191   6.691  13.932
12538W        W73959  24.169  11.176  13.319
12539W        W73960  21.585   3.767  10.643
12540W        W73961  26.654   9.804  13.038
12541W        W73962  17.691  31.416   2.269
12542W        W73963  26.110  28.954  11.946
12543W        W73964  41.422   5.377   3.840
12544W        W73965   8.340  22.726  14.944
12545W        W73966  27.060  18.714  11.013
12546W        W73967  39.410  31.011   3.383
12547W        W73968   6.209   2.750   2.700
12548W        W73969  29.028  26.188   3.361
12549W        W73970  13.128   4.346  10.563
12550W        W73971   6.182  42.383   0.772
12551W        W73972  43.275   6.208   4.783
12552W        W73973  34.383   0.982   4.608
12553W        W73974  43.788   4.272   4.264
12554W        W73975   0.285  38.075   0.763
12555W        W73976  41.389  27.066  13.440
12556W        W73977  29.991  23.212   1.818
12557W        W73978  15.805  19.202   2.404
12558W        W73979  10.351  34.374  12.371
12559W        W73980  39.494  19.729  12.386
12560W        W73981   7.274  42.009   1.899
12561W        W73982   1.901  11.321  12.351
12562W        W73983  42.457  14.340   3.326
12563W        W73984   3.307   8.395  13.895
12564W        W73985  30.067  32.393   4.256
12565W        W73986  35.940  37.469   3.858
12566W        W73987  19.206  33.896  10.900
12567W        W73988  39.887  30.642  12.960
12568W        W73989  40.508  11.256   2.343
12569W        W73990  43.323  42.965  14.847
12570W        W73991  18.205  30.517   4.157
12571W        W73992   7.758  38.982   2.284
12572W        W73993  27.016  34.049   2.714
12573W        W73994   8.711  23.070  12.951
12574W        W73995  21.259  17.164   1.852
12575W        W73996  28.594   7.761   1.826
12576W        W73997   5.426   1.890   1.757
12577W        W73998   4.242   9.688   0.932
12578W        W73999  25.125  26.537   4.335
12579W        W74000   8.343  37.383   2.365
12580W        W74001  23.710  26.046  12.460
12581W        W74002  43.482  22.178   0.944
12582W        W74003   5.275  12.189   1.700
12583W        W74004  16.638  35.463   0.822
12584W        W74005  43.873  29.432   0.397
12585W        W74006   1.271   2.282   2.868
12586W        W74007  19.172  34.036  11.374
12587W        W74008   0.794  30.086   2.772
12588W        W74009  25.163  42.340   1.409
12589W        W74010  26.540  13.348   0.325
12590W        W74011   4.737  29.173  13.483
12591W        W74012   4.297  11.272   0.873
12592W        W74013   5.744   4.807  12.377
12593W        W74014  10.719  32.886  12.041
12594W        W74015  31.037  22.232  11.080
12595W        W74016   1.827  20.119   1.365
12596W        W74017  38.891  35.952   5.176
12597W        W74018   4.936  19.205   0.482
12598W        W74019  35.596  14.689   2.383
12599W        W74020  43.892  37.557  11.873
12600W        W74021  25.639  29.150  13.485
12601W        W74022  16.304  29.502   4.776
12602W        W74023  38.868  14.132  13.534
12603W        W74024  44.953  16.584  11.052
12604W        W74025   9.373  28.612  14.449
12605W        W74026  32.903  25.483   1.366
12606W        W74027  31.561  20.274   4.715
12607W        W74028  18.224  30.025   3.637
12608W        W74029  30.969   2.402  11.858
12609W        W74030  13.721  12.147   1.766
12610W        W74031  22.643   8.206   0.884
12611W        W74032   9.298   7.765   1.855
12612W        W74033  34.557  19.177   3.223
12613W        W74034   4.211  20.057  14.994
12614W        W74035   5.813  12.651  12.515
12615W        W74036  39.964  13.702  13.991
12616W        W74037   8.686  17.749  14.885
12617W        W74038  11.731  27.129  14.376
12618W        W74039  36.005   9.798  12.058
12619W        W74040   0.307  22.588   3.184
12620W        W74041  26.660  26.043  14.319
12621W        W74042  34.937   4.866   5.266
12622W        W74043   0.803  12.661   1.754
12623W        W74044  29.117  18.660   3.678
12624W        W74045  11.214   8.282  14.339
12625W        W74046  38.885   7.307   1.405
12626W        W74047  16.580  29.037   1.771
12627W        W74048  17.745  26.472   1.359
12628W        W74049  14.647   5.211   4.620
12629W        W74050   2.735  13.631  14.473
12630W        W74051   0.288  43.792  14.391
12631W        W74052  35.994  22.181  12.983
12632W        W74053  37.503   5.694  10.549
12633W        W74054  28.097  23.235  13.009
12634W        W74055   5.785  39.413   9.956
12635W        W74056  14.783  29.628  13.487
12636W        W74057  17.618  35.584  12.062
12637W        W74058   4.240  32.027   4.312
12638W        W74059  28.533  18.155  10.423
12639W        W74060  31.006  33.480   2.741
12640W        W74061   4.917  40.931   4.719
12641W        W74062  32.476  19.700   2.722
12642W        W74063  15.275  43.477  13.797
12643W        W74064  44.000  22.668  12.539
12644W        W74065   0.817   9.753   3.170
12645W        W74066  43.340  37.351   5.095
12646W        W74067  13.294  43.784   2.225
12647W        W74068  19.165  15.667   1.303
12648W        W74069   0.808  26.630   0.937
12649W        W74070  39.845  27.690  14.821
12650W        W74071  29.094   4.777  10.923
12651W        W74072  19.172  22.537  13.389
12652W        W74073   8.255  39.001   0.415
12653W        W74074  11.352  27.145   2.336
12654W        W74075  35.874  27.631   1.319
12655W        W74076  42.281   1.320   1.918
12656W        W74077   5.208  15.236   2.767
12657W        W74078   8.766   0.851   0.367
12658W        W74079  33.130  14.209  14.906
12659W        W74080   8.177  43.315   2.355
12660W        W74081  32.477  36.551  11.939
12661W        W74082  19.676  38.951   3.773
12662W        W74083  22.648  33.106  12.857
12663W        W74084  15.604  15.222  14.351
12664W        W74085  39.468  29.590  14.768
12665W        W74086  32.079  36.845  13.795
12666W        W74087  42.488  15.741   1.840
12667W        W74088  36.095  17.284   4.331
12668W        W74089   9.367  39.433  13.795
12669W        W74090  40.492  18.274  14.282
12670W        W74091  33.926  13.671  14.981
12671W        W74092  30.127  22.745   3.834
12672W        W74093  39.552  17.670   3.740
12673W        W74094  26.031   8.320  11.518
12674W        W74095  21.160  14.676   2.328
12675W        W74096  26.172   3.884   2.767
12676W        W74097  19.618  16.752  13.027
12677W        W74098   6.693  21.589  13.378
12678W        W74099   4.363   7.724   4.700
12679W        W74100  22.015  44.782  14.989
12680W        W74101  17.143   1.259  10.060
12681W        W74102  31.589   5.434  12.091
12682W        W74103  30.458  16.181  14.341
12683W        W74104   0.845  27.618   0.829
12684W        W74105  29.991   9.831   4.263
12685W        W74106   4.933  15.204   1.748
12686W        W74107   4.712  31.467  13.354
12687W        W74108  11.844  28.528  14.863
12688W        W74109  21.251  27.534   1.369
12689W        W74110  44.445  19.579  12.830
12690W        W74111  34.877  43.371  12.887
12691W        W74112  12.756  44.365  14.826
12692W        W74113  31.459   1.461  13.440
12693W        W74114  41.870   4.722  13.509
12694W        W74115  28.045  11.794  12.828
12695W        W74116   8.359  36.933  10.588
12696W        W74117  37.553  27.655   1.862
12697W        W74118  31.967  25.595   3.794
12698W        W74119  20.674  21.741  13.013
12699W        W74120  34.538  34.012   3.653
12700W        W74121  13.785  21.628   4.674
12701W        W74122  39.029  36.539  12.366
12702W        W74123   7.674  19.228   0.848
12703W        W74124   7.722  31.065   0.293
12704W        W74125  33.474  42.284  10.971
12705W        W74126  44.836  42.521  14.946
12706W        W74127  15.756  11.308   1.403
12707W        W74128  19.773  13.135  13.816
12708W        W74129  40.379  32.462   3.172
12709W        W74130   1.313  25.090  14.327
12710W        W74131  38.069   7.376   5.212
12711W        W74132   5.700   7.369   4.718
12712W        W74133  41.378  33.077  12.355
12713W        W74134  44.973   4.299   4.203
12714W        W74135  34.000  23.091  12.989
12715W        W74136  28.172  40.932  14.932
12716W        W74137  21.221  36.033   4.769
12717W        W74138  38.865  16.165   1.743
12718W        W74139  33.592  35.952  11.082
12719W        W74140  37.003   6.812  11.977
12720W        W74141  12.672  23.989   4.242
12721W        W74142  30.597  35.406   4.324
12722W        W74143  37.841  32.440  11.042
12723W        W74144  17.762  11.712   4.708
12724W        W74145  36.004  41.877  12.353
12725W        W74146  41.317   4.915  13.363
12726W        W74147  23.582  20.662  12.947
12727W        W74148  12.289  34.460   3.707
12728W        W74149  42.027  17.062  14.946
12729W        W74150  14.170  39.420   3.734
12730W        W74151  28.021   0.436  13.873
12731W        W74152  41.384  23.063  12.499
12732W        W74153  27.573  11.855  11.101
12733W        W74154  37.927  26.575  10.095
12734W        W74155  16.237   0.294   0.466
12735W        W74156  23.621  10.873  14.388
12736W        W74157  35.474  12.121  12.471
12737W        W74158  16.264  21.088  13.537
12738W        W74159  11.207   5.272   3.200
12739W        W74160  15.206  27.477   3.775
12740W        W74161  14.620   1.458   0.841
12741W        W74162  44.995  16.242  10.640
12742W        W74163   2.457  44.891   3.350
12743W        W74164  14.155  35.595   2.390
12744W        W74165  15.289  21.044   5.176
12745W        W74166  32.581  29.078   3.708
12746W        W74167  23.111  13.610   1.310
12747W        W74168  24.640  13.252   4.158
12748W        W74169  14.337  10.714   4.615
12749W        W74170  17.245  12.251   3.742
12750W        W74171   6.725  25.025  14.397
12751W        W74172   9.239  34.410  14.884
12752W        W74173  39.494   9.888  11.427
12753W        W74174  10.337  38.961  12.076
12754W        W74175   0.375  16.279  10.625
12755W        W74176  40.317  11.188  12.919
12756W        W74177   4.743  43.833  11.939
12757W        W74178  35.107  33.601  11.472
12758W        W74179  38.336  26.049  11.907
12759W        W74180  20.717  24.544   1.393
12760W        W74181  43.404  28.651   3.844
12761W        W74182  26.498  34.515   2.329
12762W        W74183   2.870  43.787  13.925
12763W        W74184  43.489  37.831   2.394
12764W        W74185  26.132  21.094  11.023
12765W        W74186  32.477  38.908   2.277
12766W        W74187   0.867  19.557   5.211
12767W        W74188  37.995  32.519   0.307
12768W        W74189   9.285  12.805   2.706
12769W        W74190   2.284  17.559  13.540
12770W        W74191  33.043  40.324   1.367
12771W        W74192  10.839   9.255   3.273
12772W        W74193  25.062   4.215  11.519
12773W        W74194  34.396   5.691   4.774
12774W        W74195  26.015   0.286  11.029
12775W        W74196  38.047  23.706   4.285
12776W        W74197  12.207   8.776   2.201
12777W        W74198  31.493  37.362  12.064
12778W        W74199   7.671  44.334  14.871
12779W        W74200  37.087  36.993  11.439
12780W        W74201  30.966   2.358  14.485
12781W        W74202  18.730   0.787  12.875
12782W        W74203  31.924  36.870  11.109
12783W        W74204  10.169  30.506   3.756
12784W        W74205  42.854   7.378  11.953
12785W        W74206  43.277   4.817  12.379
12786W        W74207  44.839  41.538   3.691
12787W        W74208   8.341  43.867  13.457
12788W        W74209  29.922   5.423   4.339
12789W        W74210  19.272  36.576   0.424
12790W        W74211  17.138  44.407  14.974
12791W        W74212  42.873  19.210  12.029
12792W        W74213  39.329  22.136   2.248
12793W        W74214  40.304  16.630   4.217
12794W        W74215  13.128  35.857   1.894
12795W        W74216  17.234   0.250  14.428
12796W        W74217  29.121  11.748  11.437
12797W        W74218   6.713  22.631   3.823
12798W        W74219  16.612  36.030   1.297
12799W        W74220   6.809   4.916  14.989
12800W        W74221  35.601  21.232  12.865
12801W        W74222  37.060  24.998  13.419
12802W        W74223  18.292  39.423   1.296
12803W        W74224  15.258  22.207   1.294
12804W        W74225  28.574  28.461  14.861
12805W        W74226  19.082  42.896  11.974
12806W        W74227  21.059  42.799   2.803
12807W        W74228  42.474  37.003   3.701
12808W        W74229  36.975  14.192  10.420
12809W        W74230   1.354  36.065  13.547
12810W        W74231  12.611  18.164  12.891
12811W        W74232  27.007  26.474  12.419
12812W        W74233   2.292   1.454   2.810
12813W        W74234  42.826   6.374  14.512
12814W        W74235  25.657   4.361  14.854
12815W        W74236   2.766  30.574   1.376
12816W        W74237  29.487  44.938  10.892
12817W        W74238  13.165   4.936  11.940
12818W        W74239  14.628  27.063   2.350
12819W        W74240  32.943  17.736  12.550
12820W        W74241  16.588  33.479  14.848
12821W        W74242   2.878  12.242   0.478
12822W        W74243  35.101  12.209   3.752
12823W        W74244   0.784   5.857   3.858
12824W        W74245  37.850  18.173  14.831
12825W        W74246  36.511   5.407   3.707
12826W        W74247  19.687  24.131  12.982
12827W        W74248  32.048   9.789   3.807
12828W        W74249  41.872  22.542   3.671
12829W        W74250  16.567  15.601  11.452
12830W        W74251  41.345   9.277  10.910
12831W        W74252  12.738  35.109   4.603
12832W        W74253  16.080  20.211   2.762
12833W        W74254  30.428  30.051   1.436
12834W        W74255  34.973  17.144  11.944
12835W        W74256  28.679   1.300   2.867
12836W        W74257   3.291  24.589  13.028
12837W        W74258  13.719  27.984  13.961
12838W        W74259  30.499  36.996  14.771
12839W        W74260  41.858  16.794  10.632
12840W        W74261   6.889  41.359  14.484
12841W        W74262   6.789  29.445   0.343
12842W        W74263  13.272  33.577   1.444
12843W        W74264  42.007  23.545  14.009
12844W        W74265  32.006  14.629   2.206
12845W        W74266   1.446  28.063  13.515
12846W        W74267   8.851   9.243   4.329
12847W        W74268  31.079  22.627  11.051
12848W        W74269  40.962   0.453  14.857
12849W        W74270  12.260  30.590   4.186
12850W        W74271  37.497  44.925  14.924
12851W        W74272   8.378  38.051   0.385
12852W        W74273  20.067  12.330  11.129
12853W        W74274  24.699  36.410  10.491
12854W        W74275  44.914  41.436  11.492
12855W        W74276  41.031  29.468  11.515
12856W        W74277  32.634  30.008  13.405
12857W        W74278   9.381  32.137  10.512
12858W        W74279  11.160  27.955   0.928
12859W        W74280  43.915  44.965  12.491
12860W        W74281   4.705  19.156   4.353
12861W        W74282   2.229  13.235  11.960
12862W        W74283  43.323  42.850   3.195
12863W        W74284  31.024  15.200   2.363
12864W        W74285  34.918   0.335   3.188
12865W        W74286   6.892  31.001  12.886
12866W        W74287  43.794   7.367   2.376
12867W        W74288  10.265  32.054   3.364
12868W        W74289  44.919  32.997   0.295
12869W        W74290  17.264  39.934   0.483
12870W        W74291  32.004   3.912   4.643
12871W        W74292  29.490  25.544  11.403
12872W        W74293  13.272   1.250   4.176
12873W        W74294  23.515   2.272  14.943
12874W        W74295   6.389   7.889  11.503
12875W        W74296  22.586  24.156   3.272
12876W        W74297  17.742  23.030   0.427
12877W        W74298  16.803  32.957  14.307
12878W        W74299  32.524   0.771  13.353
12879W        W74300  39.831  36.498   0.761
12880W        W74301  29.076  13.294  14.478
12881W        W74302  19.238  15.581  11.407
12882W        W74303  11.721  19.243  10.434
12883W        W74304  20.638   8.405  14.448
12884W        W74305  29.559  27.186   4.709
12885W        W74306  22.600  21.701   2.880
12886W        W74307  42.902  37.497  14.404
12887W        W74308  11.131  16.643  12.516
12888W        W74309   0.986  14.646   4.160
12889W        W74310  20.222  37.037   2.411
12890W        W74311   1.314  24.011  11.416
12891W        W74312   3.851  18.066   3.746
12892W        W74313  42.018   6.246  12.871
12893W        W74314  21.643  31.539  12.520
12894W        W74315  34.370  39.463   1.898
12895W        W74316  42.516  12.262  11.039
12896W        W74317   4.798  25.082   2.278
12897W        W74318  39.052  16.609  14.336
12898W        W74319  18.170   7.849  10.979
12899W        W74320  15.711   3.441   9.988
12900W        W74321  38.979  37.842   4.240
12901W        W74322  27.459  30.130   1.335
12902W        W74323  39.939  16.088   9.615
12903W        W74324  17.115   3.951  11.929
12904W        W74325  21.094  38.006   1.779
12905W        W74326  12.184  16.698   3.170
12906W        W74327   8.184  32.055   3.361
12907W        W74328  10.187  29.946  14.373
12908W        W74329  17.171  15.084   0.949
12909W        W74330  33.973  32.418   4.742
12910W        W74331  20.082  24.014  14.850
12911W        W74332  37.980  27.972  14.369
12912W        W74333   9.659  42.474   4.267
12913W        W74334  40.914  24.690   0.382
12914W        W74335  11.227  19.730  11.996
12915W        W74336  40.349  28.123  11.599
12916W        W74337  16.799  23.097   3.151
12917W        W74338  20.643   2.954   0.401
12918W        W74339  20.228   0.915  10.598
12919W        W74340  15.773  40.403  11.041
12920W        W74341  36.865  16.313  14.408
12921W        W74342   5.891  28.057  10.907
12922W        W74343  15.702  20.689   1.900
12923W        W74344  25.657  13.169   3.655
12924W        W74345   1.855  38.441   4.208
12925W        W74346  28.460  36.476  14.444
12926W        W74347  29.438  27.637   1.348
12927W        W74348   7.838  42.358   2.854
12928W        W74349  29.937  10.294  13.516
12929W        W74350  44.829  43.855  13.511
12930W        W74351  42.449  20.121  10.590
12931W        W74352  44.918  14.664  11.527
12932W        W74353  14.699   8.710  12.579
12933W        W74354  24.602  31.499   2.348
12934W        W74355  32.593  29.018   4.218
12935W        W74356   4.351  35.471  11.589
12936W        W74357  18.265  23.160   2.894
12937W        W74358  32.915  43.336  10.501
12938W        W74359  18.593  44.777   0.811
12939W        W74360  20.526  28.461  10.566
12940W        W74361   1.370   2.355  10.047
12941W        W74362  36.869  44.356  10.458
12942W        W74363   9.394  41.507   4.633
12943W        W74364   1.404  18.760  12.472
12944W        W74365  19.740  10.808   1.708
12945W        W74366  40.040  41.415   3.865
12946W        W74367  44.888  22.621   3.193
12947W        W74368  43.369  23.106   3.377
12948W        W74369  18.737  29.018  11.878
12949W        W74370   6.782  12.254  12.016
12950W        W74371  27.450   7.756   1.835
12951W        W74372  40.479   3.867  13.013
12952W        W74373  23.124  30.559   2.361
12953W        W74374   3.411  29.137  12.415
12954W        W74375  41.487   8.792   3.844
12955W        W74376  43.507  37.910   3.758
12956W        W74377  17.757  15.802  11.446
12957W        W74378  40.432  44.313  11.052
12958W        W74379  28.599  32.496  11.875
12959W        W74380  10.252  18.689  13.423
12960W        W74381  43.422  34.410  12.840
12961W        W74382  36.559  43.927   3.309
12962W        W74383  32.498  20.214  14.940
12963W        W74384  15.111  23.492   1.261
12964W        W74385  16.676  30.970  11.420
12965W        W74386  43.905  33.460   4.213
12966W        W74387  27.037  13.815  10.894
12967W        W74388  15.192  13.290  13.410
12968W        W74389  21.066   5.224  12.340
12969W        W74390  31.075  12.246   2.847
12970W        W74391  25.042  35.376  10.539
12971W        W74392  22.624  17.207  11.122
12972W        W74393  26.143  19.598   4.221
12973W        W74394   7.823  12.239   3.359
12974W        W74395  43.478  22.638   3.351
12975W        W74396  10.827  42.352   3.269
12976W        W74397  44.767   5.396   2.249
12977W        W74398  10.363  26.141   3.230
12978W        W74399  39.905  16.147  12.422
12979W        W74400   9.816   3.876   4.716
12980W        W74401  28.471   1.428  13.474
12981W        W74402  37.528  21.106  12.339
12982W        W74403  20.553  41.363   4.230
12983W        W74404  44.765  28.660  11.060
12984W        W74405  20.151  28.571  14.995
12985W        W74406   7.399  27.017   1.254
12986W        W74407   0.976   5.791   0.400
12987W        W74408  16.639   1.809   0.802
12988W        W74409   3.945  37.513   0.965
12989W        W74410  16.175  22.714   1.221
12990W        W74411  17.715   7.315  10.468
12991W        W74412  38.007   1.850  14.795
12992W        W74413  14.640  34.479   1.231
12993W        W74414   4.833  29.953  12.004
12994W        W74415   5.866  31.466  11.878
12995W        W74416   4.212  28.930  13.315
12996W        W74417  23.524   2.771  11.941
12997W        W74418  38.823  37.355   1.308
12998W        W74419  29.520  13.729  13.349
12999W        W74420  41.914  40.050  12.347
13000W        W74421  11.222  22.537  11.610
13001W        W74422   5.282  27.074  13.519
13002W        W74423  11.842  37.066  10.503
13003W        W74424  18.146  35.879  11.060
13004W        W74425  14.244  12.348   2.800
13005W        W74426  44.326  22.122  14.011
13006W        W74427  35.997   2.466  13.987
13007W        W74428  37.407   3.916   2.893
13008W        W74429  24.044  13.759  12.003
13009W        W74430  28.017  41.388   3.334
13010W        W74431   6.199  29.490   1.346
13011W        W74432  34.468  37.035  12.510
13012W        W74433  14.156  22.163   4.288
13013W        W74434  29.477  32.927   4.778
13014W        W74435  43.974  43.973  12.532
13015W        W74436  29.034  41.313  13.523
13016W        W74437  38.008   7.839  11.897
13017W        W74438  29.483  28.051   5.153
13018W        W74439  15.161  24.527   0.857
13019W        W74440  31.424  30.094  14.397
13020W        W74441   9.726   4.860   2.277
13021W        W74442  22.250   4.243  12.384
13022W        W74443  32.482  28.596  13.797
13023W        W74444   6.215  11.319   2.335
13024W        W74445   5.195  22.613  12.859
13025W        W74446  17.113  23.552  10.058
13026W        W74447  16.205  21.695   3.325
13027W        W74448  27.576   0.421  12.089
13028W        W74449  10.632  27.943  14.331
13029W        W74450   0.746  26.589   0.309
13030W        W74451   5.869  36.549   1.810
13031W        W74452  28.105  20.064   0.258
13032W        W74453  27.569   6.785   1.366
13033W        W74454  11.244   1.338   3.817
13034W        W74455   5.690  30.656   3.784
13035W        W74456  33.602   0.407   4.710
13036W        W74457  26.638  33.128  14.928
13037W        W74458  22.189  37.354   1.314
13038W        W74459  40.412  24.529  11.422
13039W        W74460   1.434  26.024  11.585
13040W        W74461   1.457  27.003  11.533
13041W        W74462   6.294  35.895   2.250
13042W        W74463  37.933  36.455   1.296
13043W        W74464  21.047  18.222   1.774
13044W        W74465  42.002  15.196  10.493
13045W        W74466  17.290  36.932  12.531
13046W        W74467  32.100   7.831  14.404
13047W        W74468  14.263  11.334   3.251
13048W        W74469   0.907  26.078  14.979
13049W        W74470  15.100  28.016  13.870
13050W        W74471  19.535  36.471   3.324
13051W        W74472  36.962  21.669  11.000
13052W        W74473  41.819  25.109   9.995
13053W        W74474  34.373  37.874   2.887
13054W        W74475  14.226   2.930   1.363
13055W        W74476  22.602  37.989   9.980
13056W        W74477   2.914  24.203   1.296
13057W        W74478  21.066  12.290   4.138
13058W        W74479  38.922  30.472   1.935
13059W        W74480  16.776  25.537   0.820
13060W        W74481  30.131  17.252  11.460
13061W        W74482  26.129  40.999  14.970
13062W        W74483   4.844  15.775   1.377
13063W        W74484   8.852  10.700  11.597
13064W        W74485   5.334  36.519  14.391
13065W        W74486  37.361  39.895   4.790
13066W        W74487   2.747  23.629   3.863
13067W        W74488  36.493   7.823   4.736
13068W        W74489   4.343   6.915  12.411
13069W        W74490   1.890  42.998  14.006
13070W        W74491   5.231  25.066  13.440
13071W        W74492  16.277  42.418   0.362
13072W        W74493  29.140  19.104  10.518
13073W        W74494  32.888  29.626   0.452
13074W        W74495  19.631  27.449  13.457
13075W        W74496  43.881  15.659   5.176
13076W        W74497   9.855  30.565   1.721
13077W        W74498  15.122   4.700  12.973
13078W        W74499  39.323  39.517  13.535
13079W        W74500  11.173  41.932  10.585
13080W        W74501   2.268  25.510   0.430
13081W        W74502  16.313  38.852   1.341
13082W        W74503  32.508  34.989  13.406
13083W        W74504  24.553  34.108  14.902
13084W        W74505  29.507  43.009   2.416
13085W        W74506  29.139  40.461   0.406
13086W        W74507  36.504  25.681  12.440
13087W        W74508  31.055  30.963   2.353
13088W        W74509  29.102  34.935  13.010
13089W        W74510   5.271  28.045  13.495
13090W        W74511   6.821   8.813   1.352
13091W        W74512  14.622  10.648   2.316
13092W        W74513  33.475  22.591   3.277
13093W        W74514  27.995  20.608   2.734
13094W        W74515  26.987   9.844   3.375
13095W        W74516  19.610   6.904   4.674
13096W        W74517  21.623  21.586  11.609
13097W        W74518  20.621  17.799  11.090
13098W        W74519  25.520  21.258   2.812
13099W        W74520  14.123  41.959   2.269
13100W        W74521  23.523  14.307  12.867
13101W        W74522  23.716  39.005   4.273
13102W        W74523  15.677  30.455  11.398
13103W        W74524   1.938  16.648   1.288
13104W        W74525  15.153  12.661  14.962
13105W        W74526  20.742  33.121  12.413
13106W        W74527   6.405  24.996   2.726
13107W        W74528  25.607  14.595  10.496
13108W        W74529   7.853  16.767   0.298
13109W        W74530   5.437  43.989   4.724
13110W        W74531  21.034  23.511  13.480
13111W        W74532   5.772  43.852  13.968
13112W        W74533  24.178   6.922  12.503
13113W        W74534  30.447   8.339   2.388
13114W        W74535  15.625  26.531   0.877
13115W        W74536  14.690  43.436   2.257
13116W        W74537   5.391  34.026   3.695
13117W        W74538  29.660   9.713   3.363
13118W        W74539  41.330  24.526   1.822
13119W        W74540  14.184  33.521   2.664
13120W        W74541  37.069  38.363  11.578
13121W        W74542  17.757  19.692   1.294
13122W        W74543  29.622  15.106   1.316
13123W        W74544  13.342   6.812  10.594
13124W        W74545  22.222  15.193   4.274
13125W        W74546  23.010   5.239  13.478
13126W        W74547  29.938   7.247   1.752
13127W        W74548  16.233  41.354   3.156
13128W        W74549  15.109  31.133   3.703
13129W        W74550  43.848  30.157  12.967
13130W        W74551  24.666  44.414  14.924
13131W        W74552  28.120   5.731   1.265
13132W        W74553  26.571  44.404   0.313
13133W        W74554  37.513  25.068  10.144
13134W        W74555  19.686  35.062  12.929
13135W        W74556  29.608   8.828   5.268
13136W        W74557  28.089  36.990   1.214
13137W        W74558  37.502  38.486  14.383
13138W        W74559  26.198  33.934   1.413
13139W        W74560   4.816  26.186   5.251
13140W        W74561  38.415   8.826   2.256
13141W        W74562  36.957  12.192   3.637
13142W        W74563  33.416  28.445   3.287
13143W        W74564  15.119  14.279   0.442
13144W        W74565  31.411  15.593  14.966
13145W        W74566  13.676  24.181   0.341
13146W        W74567   4.874  32.065   2.227
13147W        W74568  12.328  20.167   3.331
13148W        W74569  30.088  11.622  13.008
13149W        W74570  23.035  32.446   3.282
13150W        W74571   3.447  20.047  13.946
13151W        W74572  32.037  37.857   3.762
13152W        W74573  17.658   5.206   0.396
13153W        W74574  25.024  31.604   1.336
13154W        W74575  20.147   9.322   2.888
13155W        W74576   9.187  25.046  13.838
13156W        W74577  13.345  16.681  12.062
13157W        W74578  41.918   6.326  14.320
13158W        W74579   5.773  32.619   2.415
13159W        W74580   6.417   4.710   4.326
13160W        W74581  17.700   5.735   4.767
13161W        W74582  18.170  11.647  10.550
13162W        W74583  38.449  23.595  11.071
13163W        W74584  31.474   1.249   0.753
13164W        W74585  40.396  24.125   0.961
13165W        W74586  18.266  13.661   9.564
13166W        W74587  16.702  27.078   1.817
13167W        W74588  33.485   9.787   3.870
13168W        W74589  18.699  28.676  14.011
13169W        W74590  24.612   2.922   3.718
13170W        W74591  38.492  32.404  13.895
13171W        W74592  22.607  27.511  11.600
13172W        W74593  27.970  19.735  13.875
13173W        W74594  21.085   7.836  10.969
13174W        W74595  44.407  41.521  13.360
13175W        W74596  19.149  42.360   2.355
13176W        W74597  21.229   0.786   1.340
13177W        W74598  30.563  37.512   2.326
13178W        W74599  13.706   3.912   3.261
13179W        W74600  36.869   5.434   0.780
13180W        W74601  32.925   1.282  14.502
13181W        W74602  31.084  21.154  10.971
13182W        W74603   9.754  17.621  12.043
13183W        W74604  44.283  16.197   4.208
13184W        W74605  10.335  25.574  11.063
13185W        W74606   1.868  18.127   4.786
13186W        W74607   0.953  11.315   4.703
13187W        W74608  44.777  37.381  10.495
13188W        W74609  33.888   1.370  12.512
13189W        W74610  30.069  34.033  11.497
13190W        W74611  36.000  36.573   0.880
13191W        W74612  29.629  13.253  13.880
13192W        W74613  20.524  22.234   3.380
13193W        W74614  44.329  38.457   0.956
13194W        W74615   6.353  24.646  10.535
13195W        W74616   2.382  43.419   3.215
13196W        W74617  25.498  22.219  13.370
13197W        W74618   4.229  19.557  12.481
13198W        W74619  14.689  24.692   1.241
13199W        W74620  15.289   1.380  12.002
13200W        W74621  22.633  19.549   3.192
13201W        W74622  23.661  42.432  12.355
13202W        W74623  23.621  26.470  14.801
13203W        W74624  10.360   7.909   2.793
13204W        W74625  33.982  36.434  14.464
13205W        W74626  20.157  40.404   1.340
13206W        W74627  29.998  41.359   3.673
13207W        W74628  11.366  10.290  10.101
13208W        W74629   0.933  31.950   1.381
13209W        W74630  41.900  10.864   4.710
13210W        W74631  27.007  21.116   2.754
13211W        W74632  36.027   0.278   4.736
13212W        W74633   4.350  38.341   3.349
13213W        W74634  32.899  39.420  11.384
13214W        W74635  27.674  34.615   2.328
13215W        W74636  44.335  41.943  13.318
13216W        W74637  15.749  38.450  10.996
13217W        W74638  20.616  34.567  12.365
13218W        W74639  25.122  16.118  11.434
13219W        W74640  15.313  37.029  14.811
13220W        W74641  17.101  38.898   1.233
13221W        W74642   1.969   1.923  10.896
13222W        W74643  31.990   5.882  12.051
13223W        W74644   2.727  39.338   3.808
13224W        W74645  16.712  38.466   2.213
13225W        W74646  23.693   7.365  11.989
13226W        W74647   3.874  33.380   0.805
13227W        W74648  29.014   2.342  13.852
13228W        W74649  13.623   3.930   0.372
13229W        W74650  23.727  12.313  11.412
13230W        W74651  31.409  11.725   1.840
13231W        W74652  38.341  15.296  13.955
13232W        W74653  11.818  10.316  10.491
13233W        W74654   2.334  38.025  12.362
13234W        W74655  30.573  28.469   4.354
13235W        W74656   7.780  43.353   2.314
13236W        W74657  11.338   5.293  13.901
13237W        W74658  24.006  36.923   2.242
13238W        W74659  11.811  23.514   4.188
13239W        W74660  42.479  12.843  11.973
13240W        W74661  31.507   7.307   4.292
13241W        W74662   1.444  28.512   9.507
13242W        W74663   9.287   2.276  13.372
13243W        W74664  19.560  11.723   3.201
13244W        W74665  17.743  40.392   2.822
13245W        W74666  31.483  10.870  10.446
13246W        W74667  35.920  34.013  11.583
13247W        W74668  39.977   5.355  13.490
13248W        W74669   8.372   4.215   2.810
13249W        W74670  30.046  32.035   4.167
13250W        W74671  12.842  18.263  11.881
13251W        W74672  34.445   4.812  13.439
13252W        W74673  40.991  32.128  11.944
13253W        W74674  13.328  18.743  11.515
13254W        W74675   4.286  35.906   4.336
13255W        W74676  18.186  30.462   1.285
13256W        W74677  40.435   0.911  14.958
13257W        W74678   2.367  34.974  11.485
13258W        W74679  17.685  20.636  15.000
13259W        W74680   7.746  31.144  10.969
13260W        W74681  40.534  13.316  10.531
13261W        W74682  14.136  10.257   4.831
13262W        W74683  30.558  14.768  10.009
13263W        W74684  42.519   2.462  11.602
13264W        W74685  35.894   4.842   0.824
13265W        W74686  32.467  25.572  11.577
13266W        W74687  34.442   0.493   1.728
13267W        W74688  18.761  43.951   1.226
13268W        W74689   6.190   2.758   5.652
13269W        W74690   9.315  43.397  11.464
13270W        W74691  18.736  41.490   4.732
13271W        W74692   0.493  28.567  11.903
13272W        W74693  41.495  18.225  14.884
13273W        W74694  32.511  21.671  11.564
13274W        W74695  11.799  12.724  11.569
13275W        W74696  10.174  20.717   3.182
13276W        W74697  18.591   7.820  10.407
13277W        W74698  17.699  20.672  12.962
13278W        W74699  28.462  15.103  13.979
13279W        W74700  38.887  38.993  10.487
13280W        W74701  36.849  29.991   4.717
13281W        W74702  24.541  35.057   2.314
13282W        W74703  35.408  30.132   2.256
13283W        W74704   9.182  36.040  12.549
13284W        W74705  30.105  15.822  11.439
13285W        W74706  30.440  24.522   2.777
13286W        W74707   9.222   2.363   1.928
13287W        W74708  37.341  14.754   0.268
13288W        W74709  34.092  30.126   1.861
13289W        W74710  23.105   7.324  10.034
13290W        W74711  32.421  40.392   0.267
13291W        W74712  17.296   3.945  14.839
13292W        W74713  13.687   1.854   2.264
13293W        W74714  22.031   7.774   4.354
13294W        W74715  41.949   3.785   0.348
13295W        W74716   7.286  37.395   5.270
13296W        W74717  40.954  23.584  13.858
13297W        W74718  14.112  33.876   1.811
13298W        W74719  15.265  24.513  14.904
13299W        W74720  15.813   0.339  14.931
13300W        W74721  26.086  37.912  12.072
13301W        W74722   4.928  35.439   4.253
13302W        W74723  44.455  17.699  14.815
13303W        W74724  19.747  27.624  12.062
13304W        W74725  12.827   7.817  14.367
13305W        W74726  41.422  37.463  10.538
13306W        W74727  41.017  32.017  14.884
13307W        W74728   3.446  25.659   2.418
13308W        W74729  21.184  32.425   1.377
13309W        W74730  32.079  19.066  14.827
13310W        W74731   3.779  40.486   4.618
13311W        W74732  22.636   5.854   1.382
13312W        W74733  22.035  42.318  14.387
13313W        W74734   8.263  32.922   2.892
13314W        W74735   8.724  37.387   4.143
13315W        W74736  37.851  37.349  13.965
13316W        W74737  23.704  17.696   4.788
13317W        W74738  27.170  25.500  11.602
13318W        W74739  25.965   0.965   4.313
13319W        W74740  30.968  10.695   1.756
13320W        W74741  41.473  29.515   3.354
13321W        W74742  21.252  16.093   4.213
13322W        W74743   5.404   0.494   0.745
13323W        W74744  44.299  41.037   3.358
13324W        W74745  14.272  42.872  13.977
13325W        W74746  36.070  26.171   1.880
13326W        W74747   2.811   5.278  12.874
13327W        W74748  25.624   6.918  11.044
13328W        W74749  11.681  10.713   4.652
13329W        W74750  26.039  17.626   2.377
13330W        W74751  30.112  27.692  12.061
13331W        W74752  30.567  42.777   2.758
13332W        W74753   0.781  37.403   1.845
13333W        W74754  15.211  28.639   0.255
13334W        W74755  16.294   1.360  13.487
13335W        W74756   0.394  21.220  14.506
13336W        W74757  43.958  43.399  12.949
13337W        W74758  36.843  30.026  12.456
13338W        W74759  28.524  32.075   3.647
13339W        W74760   5.280   1.364  13.059
13340W        W74761  42.335  21.581  14.326
13341W        W74762  33.050  24.112   1.273
13342W        W74763  19.717  43.909  11.106
13343W        W74764  12.670  17.292   1.307
13344W        W74765  12.746  41.299  11.905
13345W        W74766  23.695  12.741   4.158
13346W        W74767  10.378  41.401   1.400
13347W        W74768   5.398  30.440  10.532
13348W        W74769  38.032  10.278  14.853
13349W        W74770  41.863  28.071   1.902
13350W        W74771  16.157  15.698   2.840
13351W        W74772  33.036   9.851   3.724
13352W        W74773  31.637  29.066   0.731
13353W        W74774   8.212  40.933  11.016
13354W        W74775   9.885  14.104  12.477
13355W        W74776  21.725   8.859   1.863
13356W        W74777  27.047  29.948   4.350
13357W        W74778   7.720   4.403  14.376
13358W        W74779  31.078   5.689  13.979
13359W        W74780  30.082   8.401  13.064
13360W        W74781  41.304  20.144  12.927
13361W        W74782  22.113  44.997  13.994
13362W        W74783  21.114  27.565   3.314
13363W        W74784  35.520  19.752   3.864
13364W        W74785  38.353  42.399   4.244
13365W        W74786  34.027  18.746   3.313
13366W        W74787  14.611  26.085  10.512
13367W        W74788   3.907   7.326   4.702
13368W        W74789  19.622   9.689  10.609
13369W        W74790  15.125  23.223  14.828
13370W        W74791  31.420  35.921   1.816
13371W        W74792  43.977  11.247   3.806
13372W        W74793  23.533  36.035  13.951
13373W        W74794  12.132  43.322   2.805
13374W        W74795  24.483  10.207   0.927
13375W        W74796  42.347  39.447   0.480
13376W        W74797  34.867  28.504   4.128
13377W        W74798  23.585   0.775  13.431
13378W        W74799  34.603  31.449   3.746
13379W        W74800  28.045   8.782   2.826
13380W        W74801  21.586  24.533   1.366
13381W        W74802  33.430  21.217   4.132
13382W        W74803  27.959  39.891   2.364
13383W        W74804  34.048  17.666  14.816
13384W        W74805  43.848  27.684   4.302
13385W        W74806  10.770  29.061   4.282
13386W        W74807  36.572  34.877  13.950
13387W        W74808  35.366  26.502   2.298
13388W        W74809  30.085  21.090  14.857
13389W        W74810  40.361  22.503   1.843
13390W        W74811  19.262  14.262   3.703
13391W        W74812  34.991  38.869   1.342
13392W        W74813  21.123  43.863   3.644
13393W        W74814  32.637  28.067   3.159
13394W        W74815  18.245   7.354   4.665
13395W        W74816  23.241   7.826   1.416
13396W        W74817  29.458  30.435  14.009
13397W        W74818  15.129  39.966  10.624
13398W        W74819  13.162  21.755  10.432
13399W        W74820  22.680  23.236  14.289
13400W        W74821  36.483  44.816   1.314
13401W        W74822  41.984  26.952  11.458
13402W        W74823  32.085  22.602   1.373
13403W        W74824   0.984  41.421   4.761
13404W        W74825  24.693  24.224   1.927
13405W        W74826  39.968  41.353   4.749
13406W        W74827  35.411  29.992   1.839
13407W        W74828  31.415  39.343  14.762
13408W        W74829  10.329  18.192   1.298
13409W        W74830  18.579  18.241   2.722
13410W        W74831   9.654  41.445   4.330
13411W        W74832  23.636  21.627   4.736
13412W        W74833  33.115  40.826   4.151
13413W        W74834  42.026   2.420   1.834
13414W        W74835   1.394  32.557  13.333
13415W        W74836   9.167  37.954   0.897
13416W        W74837  13.618  35.389  10.989
13417W        W74838  37.528  41.884  10.571
13418W        W74839  37.866  16.218   2.239
13419W        W74840  13.292  23.596  13.497
13420W        W74841  16.297  33.907  12.571
13421W        W74842  31.144  22.088  13.040
13422W        W74843  27.089  18.600  14.780
13423W        W74844  36.488   7.687  13.059
13424W        W74845  36.872  32.953  13.492
13425W        W74846  40.026  34.098  14.303
13426W        W74847  19.580  33.074  12.920
13427W        W74848   4.792  11.357  14.904
13428W        W74849  21.596  14.167  14.859
13429W        W74850  35.440  41.827   3.308
13430W        W74851  42.354  24.060  14.397
13431W        W74852   9.391   9.288   3.361
13432W        W74853   6.818  31.151  11.558
13433W        W74854  25.630  42.456  10.983
13434W        W74855  41.004   5.341   1.811
13435W        W74856  39.405  37.986   4.693
13436W        W74857  44.378  32.470   3.644
13437W        W74858   6.422  23.184  14.299
13438W        W74859  39.441  19.693  11.462
13439W        W74860   7.850  35.110  13.444
13440W        W74861  28.602  32.992  10.586
13441W        W74862   7.718  43.821   4.202
13442W        W74863  25.573  43.939   2.765
13443W        W74864  24.031  35.979  11.862
13444W        W74865  39.857  19.619  10.958
13445W        W74866  26.988   5.322  13.376
13446W        W74867  26.573   1.325   3.185
13447W        W74868  19.116  29.116   1.697
13448W        W74869  23.991  34.475  12.897
13449W        W74870   7.323   8.264  11.078
13450W        W74871  40.466  42.475  12.073
13451W        W74872  23.639  29.170  14.852
13452W        W74873  29.519  11.366   0.871
13453W        W74874  24.627  11.843  12.912
13454W        W74875  23.504  40.404   0.773
13455W        W74876  41.368  12.205  14.807
13456W        W74877  22.552  32.908  10.501
13457W        W74878  32.476  13.801   0.390
13458W        W74879  27.557   2.869   1.250
13459W        W74880   7.741  25.546   1.767
13460W        W74881  30.414   3.413   1.705
13461W        W74882  43.910  13.162   1.834
13462W        W74883  29.000  10.376  13.358
13463W        W74884   4.429   0.287  11.483
13464W        W74885  10.879  39.552   9.641
13465W        W74886   7.226  13.233   0.944
13466W        W74887  20.768  14.218   0.884
13467W        W74888  42.896  36.904  12.567
13468W        W74889  18.210   1.316  10.981
13469W        W74890  11.282  28.518  11.857
13470W        W74891  23.733  28.982  11.043
13471W        W74892   9.810   3.216  11.087
13472W        W74893  37.869  33.989   2.857
13473W        W74894  34.475  42.522  11.476
13474W        W74895  44.504  38.385  13.857
13475W        W74896  24.053   6.683   1.292
13476W        W74897  32.993  28.145  12.004
13477W        W74898  11.365  37.537   0.358
13478W        W74899  43.392  37.571  13.952
13479W        W74900  17.634  25.550   2.789
13480W        W74901  25.172   8.803   4.699
13481W        W74902  41.898  25.685  14.360
13482W        W74903  14.335  14.621   4.719
13483W        W74904   8.199   8.758  11.090
13484W        W74905   8.711  26.678   2.763
13485W        W74906  24.555  21.691   4.247
13486W        W74907  38.836  43.014  11.013
13487W        W74908  23.171   2.416   2.733
13488W        W74909   8.727   0.411   3.293
13489W        W74910   9.332  40.331   3.350
13490W        W74911  12.755  42.445  13.486
13491W        W74912   7.844  37.083  13.403
13492W        W74913  29.553  11.262   2.719
13493W        W74914  44.451   2.314   0.369
13494W        W74915  24.635  30.061   1.764
13495W        W74916   7.846  11.865   2.743
13496W        W74917  16.087  11.681   0.850
13497W        W74918  14.641  10.663  12.412
13498W        W74919  39.462  13.246   2.846
13499W        W74920   3.788  42.321   4.121
13500W        W74921  34.408   5.398   2.201
13501W        W74922  30.061  43.828   2.392
13502W        W74923   0.375  18.193   3.246
13503W        W74924   8.754  43.809  14.909
13504W        W74925   8.238  17.656   1.828
13505W        W74926  21.522  44.454   2.668
13506W        W74927   4.700   7.251   0.310
13507W        W74928  27.988  42.458   4.321
13508W        W74929   4.384  43.890   9.497
13509W        W74930  26.051  20.073   2.261
13510W        W74931  29.104   5.372  12.036
13511W        W74932   5.204   4.821  13.016
13512W        W74933   4.388  22.206   3.328
13513W        W74934  37.931  28.027  13.487
13514W        W74935  19.069  34.578   1.210
13515W        W74936  40.425  13.605   2.839
13516W        W74937  43.483  27.114   4.307
13517W        W74938  33.878  27.967   1.326
13518W        W74939  25.540  40.883   4.235
13519W        W74940  21.757   3.249  14.490
13520W        W74941  33.912  40.929   4.640
13521W        W74942  25.611  13.654   3.170
13522W        W74943  30.647  41.870   3.190
13523W        W74944  38.889  19.569   5.116
13524W        W74945  16.130  34.996  14.845
13525W        W74946  39.361  20.684  10.419
13526W        W74947  31.954  23.656   3.195
13527W        W74948   3.839  35.431   4.738
13528W        W74949  27.542  27.612   2.311
13529W        W74950  40.417  21.153   3.210
13530W        W74951  30.138  13.768  12.883
13531W        W74952   9.207  14.142   1.831
13532W        W74953  22.217  24.057  11.548
13533W        W74954  19.760  42.992   3.817
13534W        W74955  11.364   3.729   1.290
13535W        W74956  10.281  27.476  13.975
13536W        W74957  23.725   2.270  11.906
13537W        W74958  35.012   1.366  10.125
13538W        W74959   6.686   5.193  12.465
13539W        W74960  12.855  29.638   1.248
13540W        W74961  40.022  21.112   1.264
13541W        W74962  26.656  27.604  13.323
13542W        W74963  23.079  41.515  13.913
13543W        W74964  15.604  35.968   0.442
13544W        W74965  24.518   1.344  12.909
13545W        W74966   3.753  44.368  13.920
13546W        W74967  26.066  17.104  11.025
13547W        W74968   3.247  18.648  12.023
13548W        W74969   8.880  44.828   0.754
13549W        W74970  24.551  14.712  14.365
13550W        W74971  12.835   5.760  12.064
13551W        W74972  23.712  30.996  14.471
13552W        W74973  18.553  14.799  14.013
13553W        W74974  27.447  35.447  13.969
13554W        W74975   7.738  36.427  12.526
13555W        W74976  32.394  11.281  14.951
13556W        W74977   2.965  36.559  13.856
13557W        W74978  21.753  33.462  10.598
13558W        W74979  40.446  14.814   1.262
13559W        W74980  11.719   1.776   0.857
13560W        W74981  18.707  38.891   2.880
13561W        W74982  28.615   8.361   3.189
13562W        W74983  44.358  26.523  10.404
13563W        W74984   3.758  39.513  13.965
13564W        W74985  12.124  42.320   1.345
13565W        W74986  11.736  25.476  14.969
13566W        W74987  24.106   2.373   0.327
13567W        W74988  43.305  28.604  11.965
13568W        W74989  28.668  24.567   1.408
13569W        W74990  23.158  26.544   2.870
13570W        W74991  12.202  29.550  11.914
13571W        W74992  17.300   5.799  14.323
13572W        W74993   9.352  30.606  11.420
13573W        W74994  14.675  42.911  12.922
13574W        W74995  20.648  13.838  14.454
13575W        W74996  37.950  38.394  13.388
13576W        W74997  36.432  17.204  10.082
13577W        W74998   3.941  33.531   0.439
13578W        W74999  14.783   8.859   3.648
13579W        W75000   2.895  39.983   1.305
13580W        W75001  16.655   1.465  14.288
13581W        W75002  11.318  11.323  14.884
13582W        W75003  31.484  32.901   2.796
13583W        W75004  21.634   2.847  13.920
13584W        W75005  39.876  36.485  11.592
13585W        W75006  10.726   5.844   0.872
13586W        W75007  39.448  20.263   2.775
13587W        W75008  28.122  27.451  14.357
13588W        W75009  24.637  38.076   1.775
13589W        W75010  34.409  34.010  12.991
13590W        W75011  40.439  21.139  11.416
13591W        W75012  17.599   8.262   2.264
13592W        W75013   3.766   9.149   1.231
13593W        W75014  43.885   3.838  10.984
13594W        W75015  25.675  35.381  11.558
13595W        W75016  33.085  10.160  14.434
13596W        W75017  27.480  33.980   0.402
13597W        W75018  36.043  23.657   1.447
13598W        W75019  42.920  17.242   0.450
13599W        W75020  27.016  40.977  14.807
13600W        W75021  28.647  24.577   1.876
13601W        W75022   0.952  41.423  13.348
13602W        W75023  38.409  17.643  11.389
13603W        W75024  36.971  26.955  12.836
13604W        W75025  26.080  36.376  14.327
13605W        W75026  43.777   8.661  10.564
13606W        W75027  28.521  19.057   2.400
13607W        W75028  30.567  44.416   2.735
13608W        W75029  22.628  38.489  14.928
13609W        W75030  15.324   6.705   0.354
13610W        W75031  10.732   9.207   4.600
13611W        W75032  22.676   3.750   4.743
13612W        W75033  38.997  34.051  13.463
13613W        W75034  25.973   9.862  10.565
13614W        W75035   7.375   7.856  11.052
13615W        W75036  17.066  23.587   1.892
13616W        W75037  11.628  17.571   4.326
13617W        W75038  16.145  41.822  11.562
13618W        W75039   8.862  25.635  11.055
13619W        W75040  24.085  29.950   0.931
13620W        W75041   6.426  24.711  10.936
13621W        W75042  24.035  39.516  14.388
13622W        W75043  25.575  35.100   2.376
13623W        W75044   1.365   8.363  10.955
13624W        W75045  16.813  41.487  11.922
13625W        W75046   9.746  12.214   2.789
13626W        W75047  20.734  13.783  14.858
13627W        W75048   5.415   7.848  14.851
13628W        W75049   1.972  35.003   1.789
13629W        W75050   1.905  38.393   1.390
13630W        W75051  22.017  20.739   0.781
13631W        W75052  39.043  39.364  12.081
13632W        W75053  30.990   3.902  10.595
13633W        W75054  41.804   2.252  14.422
13634W        W75055  27.002  25.020   2.197
13635W        W75056  24.195   9.834  14.346
13636W        W75057   0.876  23.219  14.419
13637W        W75058  35.452  37.014  11.038
13638W        W75059   4.230  39.411   3.214
13639W        W75060  32.995  28.449   3.682
13640W        W75061  13.628  11.248  11.582
13641W        W75062  12.306  17.129   4.247
13642W        W75063  27.168   3.429   2.406
13643W        W75064  12.344  15.287   4.680
13644W        W75065   9.300  41.526   3.155
13645W        W75066  16.096   6.692   0.852
13646W        W75067  31.478  18.197   4.326
13647W        W75068  12.750  33.000  14.487
13648W        W75069  27.589   4.786   1.272
13649W        W75070   0.808   7.862   4.224
13650W        W75071  44.307  41.478  14.913
13651W        W75072   7.856   9.212   1.754
13652W        W75073  19.158  17.611  14.925
13653W        W75074   2.727  34.075   0.313
13654W        W75075  17.585  12.241  10.625
13655W        W75076  19.279  43.297   3.863
13656W        W75077  12.148  18.728   2.356
13657W        W75078  12.623  30.047   3.666
13658W        W75079  29.061   9.787  12.083
13659W        W75080  21.140  15.824  13.326
13660W        W75081  15.303  37.032  12.915
13661W        W75082   3.848  35.065  11.389
13662W        W75083  10.821  18.234   0.925
13663W        W75084  25.966  43.977   1.890
13664W        W75085  23.509  36.531   3.785
13665W        W75086  26.622   8.711   0.915
13666W        W75087  43.348  44.755  12.545
13667W        W75088  36.077   3.335   2.363
13668W        W75089   4.829  28.132  12.343
13669W        W75090  38.057  38.367  14.765
13670W        W75091  42.337  13.277  10.542
13671W        W75092   3.924  22.017  12.526
13672W        W75093  24.501   1.743   3.264
13673W        W75094  32.890   7.260  12.941
13674W        W75095   0.320  24.720   1.857
13675W        W75096  15.317   5.902  11.432
13676W        W75097  44.267  12.820  10.478
13677W        W75098  28.088  40.342   3.762
13678W        W75099  34.068   6.904   3.357
13679W        W75100  31.897  30.579   3.783
13680W        W75101  42.016   9.850   3.835
13681W        W75102  37.471  13.835   3.749
13682W        W75103  37.839   5.869   2.842
13683W        W75104   7.685  21.633  14.919
13684W        W75105  14.163  22.031   1.327
13685W        W75106  19.259  17.142   3.383
13686W        W75107  21.746  15.770  10.969
13687W        W75108  19.259  22.151  13.797
13688W        W75109  42.459  37.848  14.355
13689W        W75110  23.709   6.395  13.998
13690W        W75111  38.073   4.401  13.467
13691W        W75112   5.238   5.408  12.543
13692W        W75113  23.011  36.053   4.124
13693W        W75114  33.916   8.660  14.959
13694W        W75115   0.426  15.284  13.999
13695W        W75116  20.691  17.791   3.294
13696W        W75117  20.177  23.558  12.544
13697W        W75118  17.119  44.484  12.487
13698W        W75119  11.682  26.163   2.419
13699W        W75120  17.239  39.322   4.777
13700W        W75121  29.967  15.138   2.712
13701W        W75122  18.191   9.806   0.783
13702W        W75123  41.994   3.226  13.535
13703W        W75124  37.472   7.197   1.228
13704W        W75125  18.161  16.092   2.213
13705W        W75126   8.289  34.095   2.796
13706W        W75127  37.833  26.482   3.204
13707W        W75128  27.551  15.675   4.627
13708W        W75129  13.185  29.436   4.332
13709W        W75130   5.322   0.930   1.334
13710W        W75131   3.711   9.728  10.494
13711W        W75132  36.848  43.505  11.864
13712W        W75133  20.191  44.803  11.965
13713W        W75134   8.275  22.690   0.471
13714W        W75135  42.398  21.625  10.977
13715W        W75136  18.057  12.281   0.277
13716W        W75137  10.700  28.454  13.060
13717W        W75138  12.143   1.866   1.377
13718W        W75139   2.394  15.109   0.358
13719W        W75140   8.832  33.102   4.142
13720W        W75141  38.906  20.734  13.423
13721W        W75142  13.767  12.640  12.356
13722W        W75143  37.879  39.533  14.426
13723W        W75144  25.072  13.804  14.431
13724W        W75145  12.276  24.997  10.517
13725W        W75146   4.221  26.172  12.043
13726W        W75147  27.572  33.597  13.356
13727W        W75148   6.803  32.392   3.372
13728W        W75149  15.781  36.549  10.023
13729W        W75150  19.196  34.922  13.908
13730W        W75151  37.086   1.790   0.896
13731W        W75152   0.283  31.940  13.829
13732W        W75153  34.422  20.182  13.398
13733W        W75154   7.304  23.218   1.866
13734W        W75155  38.040  30.615  12.463
13735W        W75156  33.424  30.108  14.817
13736W        W75157   6.893   8.775   5.182
13737W        W75158   7.393  22.517  14.462
13738W        W75159  28.561  29.428  13.491
13739W        W75160  28.646  36.537   3.632
13740W        W75161  17.639   2.311  11.946
13741W        W75162   9.394  43.774  13.875
13742W        W75163   3.907  30.054  12.434
13743W        W75164  30.644  22.678  12.515
13744W        W75165  10.861  36.020  10.928
13745W        W75166   7.271  36.891   2.840
13746W        W75167  22.244  19.140  14.925
13747W        W75168  38.006   6.213   1.350
13748W        W75169  26.181   1.367  13.349
13749W        W75170   0.830  30.152   4.287
13750W        W75171  25.186   5.856   0.808
13751W        W75172  21.264  39.357   2.331
13752W        W75173  35.434  28.534  13.877
13753W        W75174  29.661  19.689   3.217
13754W        W75175  39.885   9.663  12.377
13755W        W75176  32.405  18.235   4.752
13756W        W75177  24.693  18.261   3.293
13757W        W75178  18.565  42.818   0.914
13758W        W75179  35.562  14.099   3.332
13759W        W75180  33.497  16.614  10.982
13760W        W75181   3.889  36.984  13.801
13761W        W75182  43.898  13.221  12.859
13762W        W75183   0.269   0.342   0.366
13763W        W75184  38.564  27.575   2.769
13764W        W75185  27.197  33.000   4.635
13765W        W75186   7.278  32.076   3.722
13766W        W75187   4.698  27.687  12.432
13767W        W75188   4.894  20.626   1.870
13768W        W75189   4.839  41.032   1.911
13769W        W75190  15.736   5.229  12.554
13770W        W75191  42.375  15.137   1.928
13771W        W75192  25.988  37.943   0.444
13772W        W75193  15.279  26.638  13.021
13773W        W75194  38.556   0.858   0.789
13774W        W75195  31.152   6.244  12.029
13775W        W75196  14.267  20.045  13.974
13776W        W75197  40.884  39.039   0.853
13777W        W75198   2.854  28.952   0.251
13778W        W75199   7.341  33.533  11.477
13779W        W75200  37.968  41.303   5.090
13780W        W75201  16.127  43.386  14.877
13781W        W75202  32.621  28.978   0.894
13782W        W75203   6.317  37.395   4.144
13783W        W75204  38.957   7.845   2.334
13784W        W75205  35.891  28.531  14.508
13785W        W75206   1.840  29.523   1.425
13786W        W75207   4.276  30.976  14.834
13787W        W75208  23.046  38.496  13.027
13788W        W75209  43.448  10.846   1.696
13789W        W75210   0.354  42.022  11.532
13790W        W75211   0.441  26.023   0.373
13791W        W75212  36.519   5.714  14.405
13792W        W75213  12.835  16.141  13.442
13793W        W75214  35.542   5.260   1.250
13794W        W75215  27.681  30.998   2.334
13795W        W75216   7.256   9.724  14.798
13796W        W75217  10.181  18.102  10.032
13797W        W75218   6.382  21.211  14.792
13798W        W75219  27.524  29.485  14.337
13799W        W75220  43.974  30.534  13.522
13800W        W75221  31.987  16.078   0.913
13801W        W75222  21.536  23.686   0.377
13802W        W75223  12.707  38.076   2.673
13803W        W75224  34.535  17.170  10.434
13804W        W75225  41.434  14.207   3.259
13805W        W75226  16.192  20.224  13.417
13806W        W75227  28.050   1.930  12.848
13807W        W75228  16.088  19.244   1.735
13808W        W75229  18.559   7.303  10.606
13809W        W75230  16.237  16.074   4.831
13810W        W75231   4.450  11.837  10.434
13811W        W75232  20.759  24.514  13.042
13812W        W75233   5.850  17.678   4.606
13813W        W75234   8.885  23.988  10.920
13814W        W75235  34.950   9.865  14.516
13815W        W75236  21.719  25.041  10.563
13816W        W75237  34.598  26.460  14.902
13817W        W75238  34.489   7.846  13.514
13818W        W75239  16.741  15.695  12.995
13819W        W75240  39.955  12.786  10.004
13820W        W75241  35.383  27.485  13.344
13821W        W75242   1.738  40.014   3.637
13822W        W75243  15.814  36.424  14.276
13823W        W75244  42.380  16.185   1.731
13824W        W75245   6.712   5.394  11.375
13825W        W75246  19.047  30.444   3.258
13826W        W75247  33.002  27.513  10.624
13827W        W75248   4.737  28.986  10.479
13828W        W75249   4.788   9.723   4.730
13829W        W75250  25.072  43.942  11.456
13830W        W75251   4.250  34.547  13.417
13831W        W75252  26.517  29.605  12.448
13832W        W75253   2.851  33.588   4.629
13833W        W75254  15.792  43.003   2.735
13834W        W75255  37.356  29.164   3.197
13835W        W75256  28.045  16.640  10.458
13836W        W75257   9.350  32.442   4.166
13837W        W75258  30.148   6.917  12.554
13838W        W75259   6.861  42.401  14.859
13839W        W75260  20.186   1.812  12.482
13840W        W75261  26.089  13.343   0.262
13841W        W75262   0.868  39.998  13.879
13842W        W75263  12.281  44.982  14.496
13843W        W75264  22.743  32.895   1.390
13844W        W75265  41.912  28.511  11.403
13845W        W75266   4.356   5.739  12.385
13846W        W75267   8.234  36.481  14.412
13847W        W75268  21.226  21.517   0.766
13848W        W75269   8.380  29.072  13.013
13849W        W75270   6.354  34.109   0.848
13850W        W75271  10.712  25.031  10.889
13851W        W75272  12.685  43.770  13.937
13852W        W75273  23.716  11.636   0.316
13853W        W75274  12.362  17.791   2.357
13854W        W75275   9.710  40.016  12.495
13855W        W75276  28.973  14.098  12.857
13856W        W75277   6.422  19.639   1.241
13857W        W75278   0.815  41.345   4.307
13858W        W75279  16.577  41.468   4.173
13859W        W75280  11.645  44.810   4.814
13860W        W75281  27.129   7.901   1.393
13861W        W75282  20.703   2.398  10.956
13862W        W75283   7.687   4.416   1.723
13863W        W75284  26.464  15.678   2.750
13864W        W75285  36.575  22.999  13.059
13865W        W75286  11.829  11.166   0.292
13866W        W75287  22.141   0.760   0.838
13867W        W75288  40.529  40.851  13.328
13868W        W75289  38.394  13.618  12.492
13869W        W75290  24.036  35.998   5.298
13870W        W75291  28.960  18.742  11.518
13871W        W75292   5.929   6.697  13.009
13872W        W75293  11.790   2.418  12.366
13873W        W75294   8.747  35.006   3.368
13874W        W75295  16.667  32.511  13.341
13875W        W75296   5.803   2.246  14.758
13876W        W75297  38.049  16.747  13.865
13877W        W75298   9.706  39.929   5.221
13878W        W75299  18.573  37.558  10.515
13879W        W75300  41.400   0.491  12.836
13880W        W75301  28.139   8.674   1.759
13881W        W75302  30.507   7.717   3.356
13882W        W75303  39.991  28.657   0.445
13883W        W75304   5.394   6.218   2.239
13884W        W75305   4.775  28.974  12.052
13885W        W75306  43.363   3.801  12.056
13886W        W75307  30.064   4.937   2.389
13887W        W75308   7.825  21.206   3.714
13888W        W75309   5.774   3.282  13.051
13889W        W75310   8.760   0.880  13.985
13890W        W75311  26.695  16.649   1.440
13891W        W75312  23.102   7.723  11.548
13892W        W75313   9.866   8.797   3.201
13893W        W75314   1.951  40.018  12.022
13894W        W75315   4.360  15.255  11.858
13895W        W75316  35.011  34.383  12.517
13896W        W75317   1.311   5.785   4.826
13897W        W75318  21.031  32.048  10.896
13898W        W75319  12.818  25.098  11.873
13899W        W75320  25.652   8.264   2.820
13900W        W75321  21.182   1.732  11.396
13901W        W75322  15.634   3.785  14.888
13902W        W75323   5.874   2.781   3.742
13903W        W75324  20.527   1.766  11.526
13904W        W75325  21.081   0.337   2.250
13905W        W75326   0.281  43.396  13.460
13906W        W75327  34.416  32.052   0.394
13907W        W75328  25.579  35.863  10.966
13908W        W75329  32.405  22.074   4.682
13909W        W75330  16.672  31.433  12.367
13910W        W75331   7.784  23.724  10.562
13911W        W75332  12.694  39.330  13.462
13912W        W75333  17.755  36.957   0.448
13913W        W75334  31.596  30.102  13.976
13914W        W75335  41.420  37.416  11.468
13915W        W75336  25.559   2.846  14.489
13916W        W75337   0.987  20.703   0.432
13917W        W75338  11.667   8.884  14.406
13918W        W75339  34.950  10.324  13.886
13919W        W75340  26.085   9.206  14.870
13920W        W75341   5.847  32.538  14.459
13921W        W75342  19.207  15.762  11.097
13922W        W75343  35.041  11.332  14.866
13923W        W75344  26.119  14.114   0.326
13924W        W75345  29.146  27.676   1.865
13925W        W75346   0.929   8.200   4.823
13926W        W75347  10.235   2.427   3.307
13927W        W75348  43.830  31.599  11.468
13928W        W75349  35.444  23.996  11.997
13929W        W75350   9.729  29.997   0.881
13930W        W75351  41.303  22.196  13.058
13931W        W75352  13.317  19.245  11.899
13932W        W75353  14.320  16.079   4.663
13933W        W75354  36.478  23.152   4.716
13934W        W75355  35.897  37.858   3.740
13935W        W75356  43.767  22.530   4.666
13936W        W75357  23.494  21.668  10.943
13937W        W75358  24.601   5.195  11.438
13938W        W75359  28.548  34.519   1.246
13939W        W75360   8.767  31.988   4.697
13940W        W75361   6.843   5.689   3.824
13941W        W75362   4.263  30.054  12.960
13942W        W75363   3.298   3.276   2.257
13943W        W75364   0.473  29.445   4.283
13944W        W75365  30.150   8.325  13.883
13945W        W75366  22.555  11.696  11.882
13946W        W75367   8.254  20.073   1.393
13947W        W75368  15.289  11.229   2.278
13948W        W75369  19.218  22.576   1.711
13949W        W75370  25.109  21.108  13.005
13950W        W75371  22.027  40.867   3.793
13951W        W75372  42.422  42.978  14.015
13952W        W75373  10.227  38.060   3.274
13953W        W75374  24.225  18.145  14.775
13954W        W75375  33.954  38.404   2.708
13955W        W75376  41.009  13.760   0.398
13956W        W75377   1.321  10.823  14.016
13957W        W75378  14.681  24.640  11.094
13958W        W75379   6.359  31.403  10.530
13959W        W75380   8.694   0.265   4.195
13960W        W75381  20.066  40.006   4.226
13961W        W75382  39.015  21.200   5.113
13962W        W75383   9.739  19.110  13.546
13963W        W75384  28.078  44.958  11.512
13964W        W75385  29.105  28.972   2.379
13965W        W75386  27.498  32.094  13.836
13966W        W75387  43.507  14.264   0.299
13967W        W75388  37.472  31.586   4.321
13968W        W75389  12.350  27.655   3.666
13969W        W75390  30.490  33.976  11.083
13970W        W75391  24.064  31.955  11.870
13971W        W75392  38.051  37.071   2.678
13972W        W75393  42.458  27.095   2.236
13973W        W75394  30.110  42.878   2.180
13974W        W75395   5.776  22.059   0.357
13975W        W75396  14.653  33.397  11.592
13976W        W75397  18.605  33.497   2.812
13977W        W75398  27.464  12.124   3.700
13978W        W75399  21.103  24.105   1.876
13979W        W75400  25.496  30.982  12.002
13980W        W75401   1.379   0.909  11.104
13981W        W75402  27.151  29.994  10.947
13982W        W75403  32.099  31.984  12.507
13983W        W75404  27.512  28.569  12.935
13984W        W75405  18.742  11.236  13.541
13985W        W75406  19.643  24.724  11.032
13986W        W75407  24.016   2.850   2.262
13987W        W75408  20.693  42.882  11.543
13988W        W75409   4.412   0.296  11.030
13989W        W75410  29.465   2.791  10.939
13990W        W75411  24.630   0.348  13.350
13991W        W75412  18.241   3.279  14.017
13992W        W75413  44.487  35.517   2.201
13993W        W75414  20.753   9.327  11.537
13994W        W75415   1.816  40.335   2.720
13995W        W75416  17.278   0.393  13.548
13996W        W75417  36.998   4.421   4.137
13997W        W75418  28.676  39.446  12.922
13998W        W75419  44.473   6.240   1.834
13999W        W75420  13.625  30.925   1.292
14000W        W75421   7.294  31.464   2.830
14001W        W75422  15.704   7.327   1.259
14002W        W75423  10.229  33.594  14.817
14003W        W75424  15.148  25.211  12.521
14004W        W75425  19.123   6.871   0.803
14005W        W75426  44.836  28.057   3.757
14006W        W75427   9.377  11.273  14.863
14007W        W75428  40.824  39.396  12.419
14008W        W75429  37.927  24.662  12.025
14009W        W75430   4.383  33.945  14.988
14010W        W75431   2.443  40.900  10.958
14011W        W75432  41.021  44.867   2.358
14012W        W75433  23.104  10.814  11.895
14013W        W75434   8.708  23.085  11.385
14014W        W75435  34.050  31.406  14.308
14015W        W75436  28.588  38.422  12.839
14016W        W75437   9.688  16.638  13.809
14017W        W75438  12.647  42.993  11.440
14018W        W75439  32.035   2.307   3.683
14019W        W75440  21.097   4.929  14.457
14020W        W75441  44.474  25.043  11.908
14021W        W75442   0.812  23.017   4.662
14022W        W75443  11.155  17.285  10.602
14023W        W75444  15.250  17.670  14.469
14024W        W75445  25.680   8.667   3.841
14025W        W75446  14.705   8.760   0.748
14026W        W75447  42.354  38.889  10.963
14027W        W75448  28.937   3.948   1.246
14028W        W75449  22.213  42.468  14.777
14029W        W75450   8.807  38.895  13.426
14030W        W75451  44.299   7.790   2.241
14031W        W75452   2.918  43.892  12.479
14032W        W75453  37.961  20.169  12.547
14033W        W75454   2.751  44.899  11.857
14034W        W75455  43.017  36.061  11.385
14035W        W75456  40.396  15.203  13.863
14036W        W75457  24.613  23.596  11.545
14037W        W75458  18.776  30.143  13.890
14038W        W75459  29.102  18.056   0.310
14039W        W75460  22.562   0.765  13.451
14040W        W75461  13.727  16.778  11.980
14041W        W75462  33.941  33.435   2.286
14042W        W75463  28.119  18.079  12.923
14043W        W75464  19.767  32.029   4.759
14044W        W75465   8.815  39.060  14.967
14045W        W75466  40.311  21.202   0.930
14046W        W75467  10.671   9.875   3.215
14047W        W75468   1.907   6.376  13.388
14048W        W75469  17.711  27.970   1.358
14049W        W75470   1.299  35.554  10.477
14050W        W75471  28.976  33.129   1.296
14051W        W75472  25.690  29.628   2.258
14052W        W75473  20.247  22.183   1.286
14053W        W75474   6.341  27.579   0.299
14054W        W75475  29.063   0.852  10.888
14055W        W75476  36.000  43.389  14.976
14056W        W75477  25.631  10.750  10.521
14057W        W75478  15.616  23.553   4.642
14058W        W75479  10.235  21.578  11.869
14059W        W75480  30.469  44.759  13.831
14060W        W75481  42.865  19.253   0.740
14061W        W75482  27.685  39.863   4.344
14062W        W75483  11.830  36.891   1.367
14063W        W75484  23.680  19.145   4.737
14064W        W75485   3.784  41.499   5.178
14065W        W75486   0.363  21.163  11.482
14066W        W75487   8.206  13.164  11.524
14067W        W75488   0.374   0.789   1.427
14068W        W75489  11.138  24.994   2.353
14069W        W75490  41.466  43.454  13.332
14070W        W75491  36.053   6.400   3.150
14071W        W75492  43.940  44.493  13.819
14072W        W75493  39.066   7.666  10.567
14073W        W75494  17.262  33.052   0.344
14074W        W75495  30.970  40.549   3.870
14075W        W75496   4.389  21.152  11.110
14076W        W75497  33.899   3.792   0.356
14077W        W75498  18.246  35.049  14.297
14078W        W75499  31.634  39.448  12.354
14079W        W75500  29.066  40.394  10.978
14080W        W75501  19.534   2.863   3.288
14081W        W75502  29.580  14.159  13.796
14082W        W75503   2.387  13.115  11.058
14083W        W75504  12.766   3.900  13.828
14084W        W75505   2.760  29.481   1.696
14085W        W75506  36.402  44.418   5.309
14086W        W75507  41.392  21.041  12.926
14087W        W75508  27.592  40.477  14.345
14088W        W75509   3.443  19.145  10.414
14089W        W75510  13.229  37.872  13.348
14090W        W75511  26.121  12.319   2.745
14091W        W75512  18.546  33.069   2.357
14092W        W75513  24.689  35.374  14.832
14093W        W75514  10.185  10.791  14.300
14094W        W75515  27.485   8.715  14.029
14095W        W75516  43.826  11.626   3.731
14096W        W75517   6.715  40.032   0.252
14097W        W75518  36.032   3.349   3.841
14098W        W75519  11.815  22.705  14.916
14099W        W75520   7.846   3.373   5.271
14100W        W75521  13.820  15.286  14.031
14101W        W75522  16.592  23.166  14.497
14102W        W75523  44.794  21.017  13.339
14103W        W75524  12.326   2.366  13.332
14104W        W75525  12.674   2.755   1.351
14105W        W75526  16.757  30.424  10.959
14106W        W75527   7.897  26.121  14.451
14107W        W75528   9.221  22.195   0.954
14108W        W75529  28.005  19.561   0.860
14109W        W75530  28.979  17.642  13.864
14110W        W75531  10.315  39.956   1.701
14111W        W75532  29.984  30.592  10.946
14112W        W75533  29.045  26.678   0.817
14113W        W75534  35.108  13.794  12.833
14114W        W75535  36.551  18.660   0.772
14115W        W75536  40.388  27.953  14.939
14116W        W75537  11.696  41.479  14.819
14117W        W75538  26.208  41.877   2.312
14118W        W75539  12.735   7.730   4.651
14119W        W75540  29.570  33.020   2.342
14120W        W75541  16.145  25.706  12.067
14121W        W75542  10.238   8.330  10.955
14122W        W75543  29.508  33.955   0.918
14123W        W75544  36.062  23.989   0.906
14124W        W75545  40.419  11.185   2.734
14125W        W75546  26.053  16.602   1.352
14126W        W75547  22.100  43.854  12.386
14127W        W75548  25.491  20.273   3.191
14128W        W75549  33.597  18.173   5.231
14129W        W75550  25.028  31.471  11.920
14130W        W75551  38.554  39.510   3.800
14131W        W75552  41.318  44.306   4.240
14132W        W75553  38.477  43.944  13.397
14133W        W75554   7.173  39.989  13.046
14134W        W75555  16.641   1.974   4.779
14135W        W75556   2.751  43.783  14.779
14136W        W75557  36.866  29.443   2.348
14137W        W75558  44.296  41.878  14.808
14138W        W75559  40.497  11.373   5.220
14139W        W75560  19.157  35.403   2.873
14140W        W75561   5.779   5.876   3.839
14141W        W75562  26.121  14.238  13.497
14142W        W75563  40.343  12.339  12.364
14143W        W75564  10.339  25.589  12.953
14144W        W75565   0.379   7.842   3.233
14145W        W75566  15.279  16.610  14.384
14146W        W75567  37.582  14.117   3.789
14147W        W75568  36.088   2.954  12.518
14148W        W75569  19.071  43.809  12.880
14149W        W75570  28.570   5.265  10.444
14150W        W75571  30.029  44.871  13.548
14151W        W75572  36.907   1.436  11.505
14152W        W75573  25.138  16.715   2.408
14153W        W75574   2.418  21.712  11.933
14154W        W75575  25.504  22.667   4.258
14155W        W75576  31.129  22.704  11.602
14156W        W75577  27.538  27.560  11.537
14157W        W75578   5.788  43.406   2.850
14158W        W75579  44.007  29.479  11.487
14159W        W75580  12.335  41.487  14.810
14160W        W75581  37.370  10.851   2.788
14161W        W75582  16.745  42.881  14.290
14162W        W75583  37.378  32.994   0.242
14163W        W75584   1.927  14.325   4.150
14164W        W75585  38.884  33.061   1.438
14165W        W75586  36.436  41.861  11.953
14166W        W75587  38.827  23.100   4.682
14167W        W75588  17.669  36.590   2.718
14168W        W75589  26.687  42.329  11.455
14169W        W75590   6.797  32.920  10.476
14170W        W75591   5.356  26.010  13.951
14171W        W75592   0.961  42.888  13.500
14172W        W75593  29.435   5.335  11.485
14173W        W75594  42.776  42.851  11.379
14174W        W75595  25.620  16.307   4.328
14175W        W75596  26.187   2.784  14.882
14176W        W75597  18.669   5.803  13.989
14177W        W75598  42.469  25.032  13.832
14178W        W75599  21.091   1.331   0.382
14179W        W75600  18.729  43.815   3.728
14180W        W75601  26.505  22.155  10.457
14181W        W75602   1.363  25.153  13.330
14182W        W75603  24.614   0.842   1.861
14183W        W75604   0.919  18.769   0.397
14184W        W75605  12.738  10.867   4.309
14185W        W75606  17.583  18.604   2.709
14186W        W75607   3.417  40.324  11.012
14187W        W75608  16.617   9.813   1.320
14188W        W75609  41.341  24.500   3.847
14189W        W75610  39.527   6.218  12.418
14190W        W75611  12.794  38.403  13.427
14191W        W75612  15.581  35.411   5.190
14192W        W75613  32.056   1.449   1.781
14193W        W75614  16.573   0.767  13.854
14194W        W75615  22.048   7.805   4.731
14195W        W75616  17.222  44.902   1.363
14196W        W75617  35.528  13.636  11.439
14197W        W75618  25.104   2.956   1.879
14198W        W75619  33.067  29.036   1.299
14199W        W75620  34.866  14.309   3.719
14200W        W75621   5.216  18.153  10.424
14201W        W75622  40.343  36.521   1.426
14202W        W75623  12.825  30.027  14.766
14203W        W75624  33.081  21.189   0.458
14204W        W75625  24.527  41.808   0.358
14205W        W75626  22.586  40.853  14.984
14206W        W75627  44.414  41.340   4.705
14207W        W75628  25.186  22.644  12.888
14208W        W75629  32.477   2.380   1.315
14209W        W75630  38.824  12.737  11.951
14210W        W75631  32.440  14.137   0.839
14211W        W75632   8.856  36.510  14.506
14212W        W75633  23.209   1.368   0.452
14213W        W75634  23.636  40.911   0.784
14214W        W75635   2.343  17.128   2.363
14215W        W75636   0.744  11.867   1.906
14216W        W75637  27.978  23.601   3.797
14217W        W75638  35.901  43.961   3.698
14218W        W75639  41.015   0.422  12.057
14219W        W75640  34.556   6.846   2.694
14220W        W75641  19.227  27.454   4.173
14221W        W75642  30.020  19.565  11.069
14222W        W75643  17.666  41.891   1.849
14223W        W75644  21.113  33.055  12.922
14224W        W75645  26.155  23.217   3.634
14225W        W75646  39.489  18.731   3.242
14226W        W75647  10.790  33.502  11.961
14227W        W75648  35.036  26.501  11.498
14228W        W75649  18.257  35.044  12.913
14229W        W75650  30.030   6.894  11.860
14230W        W75651  26.064   7.327  14.897
14231W        W75652   8.826  38.000  14.022
14232W        W75653  44.265  42.848   0.279
14233W        W75654  21.730  33.027   1.827
14234W        W75655   4.253   4.779   4.147
14235W        W75656  32.082  26.134   2.282
14236W        W75657  34.900  23.613   0.930
14237W        W75658  28.474  43.334  12.460
14238W        W75659  31.084   8.338   1.849
14239W        W75660   8.321  14.204   0.901
14240W        W75661  37.404   0.759  10.573
14241W        W75662  28.517  25.089  14.788
14242W        W75663  34.970  10.371   5.111
14243W        W75664  44.438   2.458   1.323
14244W        W75665   7.666   8.234   3.188
14245W        W75666   8.823   1.868   3.750
14246W        W75667  11.267  41.996   4.257
14247W        W75668  16.716  42.810  11.923
14248W        W75669   0.380  24.579  11.577
14249W        W75670  32.997  34.475  14.780
14250W        W75671  36.452   4.343  14.473
14251W        W75672  16.763  28.930   2.248
14252W        W75673  27.594   1.348   0.306
14253W        W75674   2.857  24.044  13.496
14254W        W75675  12.300  25.190   2.240
14255W        W75676   2.729  14.690  10.501
14256W        W75677  41.498  33.125  11.513
14257W        W75678  24.155  42.975   3.654
14258W        W75679  18.717  42.911   2.734
14259W        W75680  34.418  32.994  11.876
14260W        W75681  18.686   6.840   2.280
14261W        W75682  43.961  11.729   2.827
14262W        W75683  28.163  23.191  11.418
14263W        W75684  28.152  29.940   4.685
14264W        W75685  44.459  37.006   0.383
14265W        W75686  13.681  41.352   4.824
14266W        W75687  17.256  12.798   3.285
14267W        W75688  36.041  26.050  11.089
14268W        W75689   7.688  30.508   0.413
14269W        W75690   9.323  21.065   3.346
14270W        W75691  13.650  10.639   3.701
14271W        W75692  38.408  34.545   0.431
14272W        W75693  16.710  44.386  13.923
14273W        W75694  31.478  35.023   1.883
14274W        W75695  12.622  23.610  12.883
14275W        W75696  15.320  35.441  11.952
14276W        W75697  40.033   1.400  11.412
14277W        W75698  36.589  17.573   4.117
14278W        W75699  41.039   7.270  14.819
14279W        W75700  32.478   2.405  14.790
14280W        W75701   5.847  16.222   0.923
14281W        W75702   7.353  31.909   4.745
14282W        W75703  25.024  21.582   0.463
14283W        W75704  28.471  18.234  12.069
14284W        W75705  27.464  16.293  11.474
14285W        W75706   4.341  42.791  11.543
14286W        W75707  23.669  31.473   0.357
14287W        W75708  24.060   4.877   3.356
14288W        W75709  29.521  23.018   4.239
14289W        W75710  17.140  18.268  10.492
14290W        W75711   2.264  36.894   4.681
14291W        W75712  33.957  26.180   3.834
14292W        W75713   9.324  11.147   0.937
14293W        W75714  13.702  30.640   2.763
14294W        W75715  13.147  22.229   2.362
14295W        W75716  23.533  29.424   1.238
14296W        W75717  30.602   3.436   2.259
14297W        W75718  43.293  40.876   3.186
14298W        W75719  26.584  31.520  10.592
14299W        W75720  12.731  25.478   0.301
14300W        W75721  39.968  36.442   2.275
14301W        W75722  39.336  29.962   1.382
14302W        W75723  38.071   7.831   4.205
14303W        W75724  42.439  21.196   1.883
14304W        W75725   2.416  22.083  12.517
14305W        W75726  10.263  32.396  11.001
14306W        W75727   8.165  13.763   2.297
14307W        W75728   4.922   7.871   5.114
14308W        W75729  22.739  30.460   1.811
14309W        W75730  40.430   5.327  11.487
14310W        W75731  37.922  27.198  12.829
14311W        W75732  42.937  32.030   4.760
14312W        W75733  44.803  44.826   1.766
14313W        W75734  28.117  39.418  11.995
14314W        W75735  27.493  22.066   3.341
14315W        W75736  33.032  29.510  12.924
14316W        W75737  32.449  14.312  10.429
14317W        W75738  35.592  30.034  11.440
14318W        W75739  22.643  13.668   0.791
14319W        W75740  39.546  12.822  11.595
14320W        W75741  31.496   2.436   2.837
14321W        W75742  21.583  43.818   2.393
14322W        W75743  36.910   3.381   9.675
14323W        W75744  12.221   8.740  13.964
14324W        W75745   0.754  35.940  13.391
14325W        W75746   9.728  35.896  12.031
14326W        W75747  40.451  43.810   1.699
14327W        W75748  16.153  12.292  10.908
14328W        W75749   6.240   6.318  13.865
14329W        W75750  15.098   7.329   1.228
14330W        W75751  39.809  11.175  13.531
14331W        W75752  19.697   6.390   1.341
14332W        W75753  33.075  15.804  13.540
14333W        W75754   4.241  33.446   1.313
14334W        W75755  38.391  22.673  11.037
14335W        W75756  25.530  18.783   2.861
14336W        W75757  37.561  33.126   3.181
14337W        W75758  34.498   0.775  12.400
14338W        W75759  29.532  19.145   0.885
14339W        W75760  34.890  26.667   0.729
14340W        W75761  30.036   8.296  10.535
14341W        W75762  19.271   2.902   3.184
14342W        W75763  10.180  24.163  14.450
14343W        W75764   5.210  27.618   4.681
14344W        W75765  33.412  29.060  14.380
14345W        W75766  29.449  19.168  12.955
14346W        W75767   1.462  26.701  10.555
14347W        W75768  20.746  31.446  13.898
14348W        W75769  36.497  26.165  13.022
14349W        W75770  24.208  21.162   2.897
14350W        W75771  10.717   9.274   1.875
14351W        W75772   6.728  31.014   3.858
14352W        W75773  20.534  27.093  11.498
14353W        W75774  20.155  36.378  12.004
14354W        W75775  31.141   7.845  12.015
14355W        W75776  13.307  22.095  13.477
14356W        W75777  11.771  35.369  12.369
14357W        W75778  42.799   4.272  12.351
14358W        W75779  31.511  27.095   1.355
14359W        W75780  27.944  33.512   3.743
14360W        W75781  11.782  33.515   2.808
14361W        W75782   4.806   8.292   0.268
14362W        W75783  43.840  10.726   0.872
14363W        W75784  32.580  37.343   3.698
14364W        W75785   4.318  13.168  10.956
14365W        W75786  10.642  13.329   2.400
14366W        W75787  39.494  29.067  13.866
14367W        W75788  44.857  32.446  11.459
14368W        W75789   4.729  27.659   3.382
14369W        W75790   4.789  30.629   2.401
14370W        W75791   3.918  14.822   0.430
14371W        W75792   1.415  38.857  11.075
14372W        W75793  21.583  41.796   2.357
14373W        W75794  35.072  27.626   0.936
14374W        W75795  22.086  29.122  10.517
14375W        W75796  36.990  29.432   0.944
14376W        W75797  10.747   7.193  10.911
14377W        W75798   9.381  20.630   4.838
14378W        W75799  42.901  44.427  10.523
14379W        W75800   4.213  16.236   1.397
14380W        W75801  36.076  31.033  13.309
14381W        W75802  27.057  30.626   1.888
14382W        W75803  31.093   1.818  11.452
14383W        W75804  31.605   2.964  14.446
14384W        W75805  43.832  25.994  14.961
14385W        W75806  43.826  41.979  13.472
14386W        W75807  37.463  10.227   4.649
14387W        W75808  33.006  42.487   1.287
14388W        W75809  44.799  24.051  12.949
14389W        W75810  43.917  22.514  11.547
14390W        W75811  36.504   8.270   4.278
14391W        W75812   6.838  36.842  10.987
14392W        W75813   5.220  33.551   0.306
14393W        W75814  28.131  40.857   3.702
14394W        W75815  14.612  24.701  12.972
14395W        W75816  11.175   3.310  14.843
14396W        W75817  44.868   2.790  14.369
14397W        W75818  34.938  17.715  14.764
14398W        W75819  10.727  19.642   2.384
14399W        W75820   4.385  31.075  10.979
14400W        W75821  12.317  18.149   4.281
14401W        W75822  33.934  15.779   4.267
14402W        W75823  13.685  32.062   3.162
14403W        W75824  24.649  11.694   3.637
14404W        W75825   6.423  30.067  10.891
14405W        W75826  12.137  44.357  10.942
14406W        W75827  44.775  17.100   0.808
14407W        W75828  40.805  12.352  14.411
14408W        W75829   8.681  39.339  13.469
14409W        W75830  26.179  41.445   3.783
14410W        W75831  41.318  13.118  12.461
14411W        W75832  25.551  40.891   2.365
14412W        W75833  22.240  30.445   0.303
14413W        W75834  18.256  20.072   0.259
14414W        W75835  26.959  17.203  12.961
14415W        W75836  39.984  39.361  10.615
14416W        W75837  43.386   7.873  11.044
14417W        W75838  10.351  38.059   1.323
14418W        W75839   5.269  26.701  12.859
14419W        W75840  41.297  27.650   2.778
14420W        W75841  24.045  44.896  12.510
14421W        W75842  41.509   3.866  13.474
14422W        W75843  21.546  39.884  14.468
14423W        W75844  39.845   8.368  13.844
14424W        W75845   3.768  24.050   2.743
14425W        W75846  12.163   3.860  13.398
14426W        W75847  28.556  39.388  11.549
14427W        W75848  24.998  30.006  14.961
14428W        W75849  20.525  18.265  14.473
14429W        W75850  27.994  36.403   3.211
14430W        W75851  13.758  10.205  13.024
14431W        W75852   3.348  40.499   3.818
14432W        W75853  37.574  23.630  12.512
14433W        W75854   5.910  14.108  14.277
14434W        W75855   5.389  10.382  13.411
14435W        W75856   0.492  10.640   3.666
14436W        W75857  24.643  29.099   0.412
14437W        W75858  29.056  13.750  13.521
14438W        W75859  16.233  17.663   2.358
14439W        W75860  14.264  22.661   3.821
14440W        W75861  37.560  27.574  12.050
14441W        W75862  37.891   8.229   2.230
14442W        W75863  22.089  42.343  13.979
14443W        W75864   0.487  14.813  10.950
14444W        W75865  43.467  19.046   4.276
14445W        W75866  17.608   6.253   4.806
14446W        W75867  12.266  32.923  14.815
14447W        W75868   3.460  33.997   1.903
14448W        W75869   3.763  35.525   1.253
14449W        W75870  16.741  30.486  13.378
14450W        W75871   5.752  13.635  12.996
14451W        W75872   4.372  37.398  11.113
14452W        W75873  33.946   3.952  14.359
14453W        W75874  22.744   5.242  12.864
14454W        W75875  44.803  43.803   0.836
14455W        W75876  15.767  32.400   5.775
14456W        W75877  19.551  24.043  11.407
14457W        W75878   8.734  38.055   0.448
14458W        W75879  28.024  38.372   4.739
14459W        W75880  42.979  36.354  11.603
14460W        W75881   5.313   0.313   4.770
14461W        W75882  40.836  22.733   2.889
14462W        W75883  42.805  21.167  11.053
14463W        W75884  19.270  26.000   4.675
14464W        W75885   7.386  15.233  12.943
14465W        W75886  39.008  19.648  11.866
14466W        W75887   0.485  41.792  10.597
14467W        W75888  36.841  31.026  14.454
14468W        W75889   8.307  43.932   0.273
14469W        W75890  10.749   6.866  13.957
14470W        W75891  24.021  29.516  14.972
14471W        W75892  30.542  26.657  14.958
14472W        W75893  18.732   3.808  14.937
14473W        W75894   8.323  43.899   0.796
14474W        W75895   9.221  20.735   2.389
14475W        W75896  16.136  41.386  13.824
14476W        W75897   4.381  28.119   4.838
14477W        W75898  16.260   5.695   3.239
14478W        W75899  38.036  15.296  13.936
14479W        W75900  18.230   4.257   0.777
14480W        W75901  34.459  37.975  12.844
14481W        W75902  44.450  25.061   5.102
14482W        W75903  21.150  13.692  14.356
14483W        W75904   3.392  32.509   5.702
14484W        W75905  26.479   0.405   2.776
14485W        W75906   1.804  31.429  14.827
14486W        W75907  39.329  29.141  14.505
14487W        W75908  17.297  39.881  11.439
14488W        W75909  44.898  22.587   4.825
14489W        W75910  12.722  18.188   4.130
14490W        W75911  27.632  25.102   0.477
14491W        W75912   8.862   0.465  12.418
14492W        W75913  38.983  30.000  12.556
14493W        W75914  28.127   9.675  14.436
14494W        W75915  42.955  35.594   1.759
14495W        W75916  14.786   0.253  12.938
14496W        W75917  30.532   3.286  13.461
14497W        W75918  43.875  30.027  11.882
14498W        W75919   7.841  19.191  13.370
14499W        W75920  29.468  38.856   2.823
14500W        W75921  22.746  17.669   1.429
14501W        W75922  39.974  29.642  12.895
14502W        W75923  44.889  16.085  12.864
14503W        W75924  12.229  28.106  14.960
14504W        W75925   8.874   4.886  12.833
14505W        W75926  36.997  28.664   4.252
14506W        W75927   5.741  21.720   1.378
14507W        W75928   8.713  20.550   4.176
14508W        W75929   2.282  35.033  13.475
14509W        W75930   6.779  31.932  13.455
14510W        W75931  27.508  19.622  14.378
14511W        W75932   6.337  25.110  13.396
14512W        W75933  27.678   9.728  12.021
14513W        W75934  42.815  44.375   0.933
14514W        W75935   9.252  10.281   1.386
14515W        W75936  19.195  43.455  14.349
14516W        W75937  14.703  19.764   4.294
14517W        W75938  23.023  13.822   4.793
14518W        W75939  10.328  36.889  11.057
14519W        W75940  27.580  33.996   2.376
14520W        W75941  23.606   3.858  10.409
14521W        W75942  25.637  43.391   2.360
14522W        W75943   6.871  28.959   0.774
14523W        W75944  28.681  36.072   4.621
14524W        W75945  22.659  19.283  11.061
14525W        W75946   9.271  40.522  13.400
14526W        W75947  42.510  32.095   0.764
14527W        W75948  11.666  29.152  11.021
14528W        W75949   7.706  37.830   5.181
14529W        W75950   7.803  29.968  14.813
14530W        W75951  41.986  39.921  11.921
14531W        W75952  10.717  29.027  14.890
14532W        W75953  39.055  31.417  11.438
14533W        W75954  17.685  33.076  13.834
14534W        W75955  44.942  38.943  14.891
14535W        W75956  28.667   0.425  12.355
14536W        W75957  34.488  14.252  10.933
14537W        W75958  41.465  42.931   0.467
14538W        W75959  20.595  30.469   4.795
14539W        W75960  19.624  12.779   9.583
14540W        W75961  14.178   7.900  11.899
14541W        W75962  38.456   1.745   1.756
14542W        W75963  11.192  38.847   1.910
14543W        W75964  38.523  26.153  12.411
14544W        W75965  31.645   7.780   2.287
14545W        W75966  30.941  33.596   2.259
14546W        W75967  36.046  23.032   4.301
14547W        W75968  16.254  18.552   0.876
14548W        W75969  28.987  16.631  11.113
14549W        W75970   3.216  41.321   2.342
14550W        W75971   0.952   8.185   2.413
14551W        W75972   0.309   2.407  12.936
14552W        W75973  17.217   2.319   3.266
14553W        W75974  14.210   8.887  13.873
14554W        W75975  11.367  27.027   0.953
14555W        W75976  20.703  26.578   0.441
14556W        W75977  21.601  42.370  11.013
14557W        W75978   6.240  14.215  10.113
14558W        W75979  10.788  32.572  10.959
14559W        W75980  17.201  28.990   3.770
14560W        W75981  42.904  41.840   1.391
14561W        W75982  15.131   9.786  11.995
14562W        W75983  11.279  12.202  12.411
14563W        W75984  40.871  15.701  10.641
14564W        W75985  18.631  30.159   3.343
14565W        W75986  23.195  21.224  14.421
14566W        W75987  22.202  24.523  12.962
14567W        W75988  12.799  24.108  13.367
14568W        W75989  21.528  41.441   1.309
14569W        W75990   1.961   5.267  11.016
14570W        W75991   5.776  38.463  13.943
14571W        W75992   2.854  35.590   1.283
14572W        W75993  39.817  36.571   1.447
14573W        W75994  35.556  31.566  14.795
14574W        W75995  30.471   8.207   1.868
14575W        W75996  30.034  10.745  11.913
14576W        W75997  24.565   2.924  13.797
14577W        W75998  18.119  26.517  13.333
14578W        W75999  36.996   6.861  13.911
14579W        W76000  25.167  44.419   1.757
14580W        W76001   9.311  17.184   0.961
14581W        W76002  37.972  13.725  14.933
14582W        W76003   1.246  27.042  10.565
14583W        W76004  25.202  12.669   2.276
14584W        W76005  27.161   6.867   1.292
14585W        W76006   8.748  34.421  14.899
14586W        W76007   0.358  11.339   4.116
14587W        W76008  24.116  41.520  12.072
14588W        W76009  19.112  21.672   0.288
14589W        W76010  39.066  13.600   2.855
14590W        W76011  19.265  12.157  13.518
14591W        W76012  26.607  32.434  11.904
14592W        W76013   3.827  11.133   1.231
14593W        W76014  13.343   2.819   3.352
14594W        W76015  32.947  30.065   2.199
14595W        W76016  17.223  25.091   0.324
14596W        W76017  11.160   3.413  11.913
14597W        W76018   1.880  13.170  12.569
14598W        W76019  44.930  32.530   2.301
14599W        W76020  43.899  32.117   3.679
14600W        W76021  25.054  14.718   5.119
14601W        W76022  22.512  22.584  13.800
14602W        W76023  39.914   1.789   4.258
14603W        W76024   7.843  35.364   2.287
14604W        W76025   4.928   4.742   9.575
14605W        W76026  22.664  40.336   0.888
14606W        W76027  41.809  23.193  11.953
14607W        W76028  11.293   1.925   4.609
14608W        W76029  30.912  44.407  11.445
14609W        W76030  31.915  35.029  14.281
14610W        W76031  38.985  23.609  12.037
14611W        W76032  31.996  19.536  14.891
14612W        W76033  12.284  37.989   2.376
14613W        W76034  36.953   9.733   1.345
14614W        W76035   2.736  22.640  10.985
14615W        W76036  27.627  37.407  13.340
14616W        W76037  35.436  37.948   4.685
14617W        W76038  43.498   4.378  12.368
14618W        W76039  13.289  43.833   1.326
14619W        W76040   8.217  33.398   0.938
14620W        W76041  44.881   4.241  12.568
14621W        W76042   5.196  12.156  12.484
14622W        W76043   2.734  30.018  14.773
14623W        W76044  24.193  23.640  10.526
14624W        W76045  38.380  30.088  11.373
14625W        W76046  43.876  38.013   1.871
14626W        W76047   9.215  41.353   0.778
14627W        W76048  26.092  12.769   0.742
14628W        W76049  15.786  43.938  13.388
14629W        W76050  34.399  23.678  13.841
14630W        W76051  19.716  29.079   0.853
14631W        W76052  44.778  43.285  13.904
14632W        W76053  15.275  43.817  13.991
14633W        W76054  20.637  37.918  14.908
14634W        W76055  33.578  26.124   0.397
14635W        W76056  10.643  14.649  13.451
14636W        W76057  33.417   7.225  10.073
14637W        W76058   4.939   3.785  12.379
14638W        W76059  11.756  31.996   4.303
14639W        W76060  16.724  24.127  12.383
14640W        W76061   0.422   0.385   4.188
14641W        W76062  12.665  20.146  10.583
14642W        W76063  27.094  44.337  13.399
14643W        W76064   4.276  26.985   3.870
14644W        W76065  33.394  11.844  10.445
14645W        W76066  23.055  33.055  14.844
14646W        W76067   0.796  15.645  13.361
14647W        W76068  36.586   9.834  10.627
14648W        W76069  29.497  34.042  12.902
14649W        W76070  18.056   9.184  10.938
14650W        W76071  30.485  22.215  10.135
14651W        W76072  26.565  31.929   2.802
14652W        W76073  36.440  19.576   1.235
14653W        W76074  30.924  10.212   1.337
14654W        W76075  31.916  18.630   3.705
14655W        W76076   4.414  28.060  12.429
14656W        W76077  18.789   8.852  13.427
14657W        W76078   9.878   8.833  11.034
14658W        W76079  16.610  10.732   4.757
14659W        W76080  28.518  38.032  14.503
14660W        W76081  18.777  30.499   1.915
14661W        W76082   2.324  43.480  13.420
14662W        W76083   2.943  11.152   3.782
14663W        W76084  26.986   0.371  11.381
14664W        W76085  35.413  29.151  11.028
14665W        W76086  10.339  39.489   3.731
14666W        W76087   7.816   3.299  13.394
14667W        W76088  40.305   1.925  13.807
14668W        W76089  10.265  40.039  10.019
14669W        W76090  15.232   6.872  14.840
14670W        W76091   5.689  44.903   1.254
14671W        W76092  14.241  18.647   0.264
14672W        W76093  13.610  36.352   2.885
14673W        W76094   8.844  22.645  13.503
14674W        W76095  28.646   1.872  12.359
14675W        W76096  12.765  31.126  14.388
14676W        W76097  10.793  16.795   4.182
14677W        W76098   9.288  17.097  12.504
14678W        W76099  39.535   3.711   2.396
14679W        W76100  20.655  39.412  13.795
14680W        W76101  34.614  42.010   2.891
14681W        W76102   2.468  39.963   4.806
14682W        W76103  19.056  14.601  13.904
14683W        W76104  31.988  22.648   3.656
14684W        W76105  41.892  22.133  14.294
14685W        W76106  27.034  31.932   3.637
14686W        W76107   3.933  29.114   1.854
14687W        W76108   7.780   5.331  12.888
14688W        W76109   2.382   7.911   1.362
14689W        W76110  23.069  33.929   4.340
14690W        W76111  26.614  11.667  14.369
14691W        W76112   3.298  43.449  12.495
14692W        W76113  15.669  28.167   4.235
14693W        W76114  28.112   4.725   4.683
14694W        W76115   3.845   4.324   4.796
14695W        W76116  30.013  26.981  11.400
14696W        W76117  42.844  20.543  11.529
14697W        W76118  42.424  19.685   2.235
14698W        W76119   0.356  26.063   3.630
14699W        W76120   2.229  10.288   1.744
14700W        W76121  13.181  15.280  11.522
14701W        W76122  14.270  25.219  14.833
14702W        W76123  29.631  24.043  11.538
14703W        W76124  23.106  24.667   1.774
14704W        W76125   2.962  22.157   2.272
14705W        W76126  33.109  42.887   9.967
14706W        W76127  30.053  33.540  10.968
14707W        W76128  21.681  35.454  13.454
14708W        W76129  40.000  22.081  13.891
14709W        W76130  31.466  26.561  14.428
14710W        W76131  17.245  35.079  10.536
14711W        W76132  36.367   3.921  14.938
14712W        W76133  26.003  21.685   4.338
14713W        W76134  18.771  32.618   5.082
14714W        W76135  30.926  11.245   1.863
14715W        W76136   8.289   2.839  13.966
14716W        W76137  30.556  27.619  10.588
14717W        W76138  13.728  24.195  13.820
14718W        W76139  11.839   1.975   1.696
14719W        W76140  10.848  35.011  14.954
14720W        W76141   3.226  34.979  13.525
14721W        W76142  27.140  14.257   1.269
14722W        W76143   0.346  20.643  14.462
14723W        W76144  12.177   2.355  11.067
14724W        W76145   1.305  42.295  14.465
14725W        W76146  38.050  40.994  14.946
14726W        W76147   6.283  36.357   2.831
14727W        W76148  17.762  11.760  11.036
14728W        W76149  23.075  41.495  12.562
14729W        W76150  39.969  22.091  13.346
14730W        W76151  25.531  36.348  11.394
14731W        W76152  13.818   6.345  10.630
14732W        W76153  44.287  13.770  11.558
14733W        W76154  19.683  18.702  12.578
14734W        W76155  34.512  40.451  10.909
14735W        W76156  37.081  16.087  12.537
14736W        W76157  12.300   0.435   3.829
14737W        W76158   3.244   5.787   3.252
14738W        W76159  33.509  33.553  11.459
14739W        W76160  15.260  29.645  11.384
14740W        W76161  29.493   0.335   2.281
14741W        W76162  36.973  14.171  14.965
14742W        W76163  40.352   0.485  14.922
14743W        W76164  30.131  34.566  11.855
14744W        W76165   8.326  23.587  13.366
14745W        W76166  15.143  30.150  12.558
14746W        W76167  13.233  39.926  14.414
14747W        W76168  40.960  27.176   3.630
14748W        W76169  32.581  10.794  14.306
14749W        W76170  23.717  33.558  14.479
14750W        W76171  26.534  39.905   0.817
14751W        W76172   5.813  43.360   3.275
14752W        W76173  18.632  34.543   0.903
14753W        W76174  25.011   3.882  13.423
14754W        W76175  34.457  31.114  12.542
14755W        W76176  18.749   9.297  12.852
14756W        W76177   1.373  24.106  14.389
14757W        W76178  43.431  18.677  11.948
14758W        W76179  33.897  42.934   1.311
14759W        W76180  37.915  11.290   3.737
14760W        W76181  39.813  36.575   4.120
14761W        W76182   3.732  38.552  13.951
14762W        W76183  26.200  37.568   0.394
14763W        W76184   7.183  24.503   2.215
14764W        W76185   8.811  18.232   1.809
14765W        W76186  44.795   6.363   1.344
14766W        W76187  33.904   1.382  11.509
14767W        W76188   3.826  11.650  10.515
14768W        W76189  12.311  31.999   0.873
14769W        W76190  27.077  37.409  14.431
14770W        W76191  41.942   3.883   3.279
14771W        W76192  40.512  40.950  12.420
14772W        W76193  44.297  34.521  11.061
14773W        W76194  17.565  17.102   2.711
14774W        W76195  28.565  41.994  14.502
14775W        W76196  24.224  44.380  10.582
14776W        W76197  21.590  13.758  13.882
14777W        W76198   7.820  40.926  13.026
14778W        W76199  13.763   2.743  12.981
14779W        W76200  43.488  40.451   1.227
14780W        W76201  14.833  25.658  10.562
14781W        W76202  24.724  18.083   3.655
14782W        W76203  28.635   0.750  14.991
14783W        W76204   7.324  24.677   2.879
14784W        W76205  29.980  33.626   4.222
14785W        W76206  17.126  35.010   1.294
14786W        W76207  10.273   6.801  11.006
14787W        W76208  23.636   9.718  12.451
14788W        W76209   6.332  27.522  14.839
14789W        W76210   7.347  38.488  12.009
14790W        W76211  41.857  18.607  14.759
14791W        W76212  20.694  36.898  14.394
14792W        W76213   5.755  39.349  11.031
14793W        W76214  18.108  38.449  13.031
14794W        W76215  17.250   3.390  13.872
14795W        W76216   6.833  35.987   3.272
14796W        W76217  31.911  38.501   1.800
14797W        W76218   4.870  27.068  12.473
14798W        W76219  29.944   5.331  10.424
14799W        W76220   9.324   5.416   2.730
14800W        W76221  18.744  20.580  14.376
14801W        W76222   5.742  30.913   1.240
14802W        W76223  31.482  18.624  12.872
14803W        W76224   2.433  38.836   2.713
14804W        W76225  11.293  38.451  12.373
14805W        W76226  17.139  39.456  13.470
14806W        W76227  41.824  29.921  11.380
14807W        W76228  33.564  26.515   2.201
14808W        W76229  41.425  38.336  14.870
14809W        W76230   8.295  31.959  14.396
14810W        W76231  35.867  11.636   0.384
14811W        W76232   7.353  25.167   1.402
14812W        W76233  41.472   8.818   1.356
14813W        W76234   5.428  43.332   0.297
14814W        W76235   0.471  40.906  14.773
14815W        W76236   9.386   2.811  14.935
14816W        W76237  22.147  34.985   2.819
14817W        W76238  14.330  18.655  13.490
14818W        W76239  16.111  29.994  14.773
14819W        W76240  38.068   1.947  13.502
14820W        W76241  41.839  37.958  14.914
14821W        W76242  18.249   6.799   2.292
14822W        W76243  23.566   4.740   0.401
14823W        W76244  33.561   3.747  11.478
14824W        W76245  20.087  42.345  13.548
14825W        W76246  22.247  27.141   4.747
14826W        W76247  26.648  43.833  14.407
14827W        W76248  28.507  24.576  12.902
14828W        W76249  33.998  19.756   5.174
14829W        W76250  20.650  35.541  10.917
14830W        W76251  31.055  18.216  14.960
14831W        W76252   2.303  24.641  10.427
14832W        W76253  36.930  12.711   1.342
14833W        W76254  37.509   7.669  14.284
14834W        W76255   2.235  11.200   1.888
14835W        W76256  26.460   8.819  13.956
14836W        W76257  26.678   4.923   1.248
14837W        W76258   7.832   1.739   0.289
14838W        W76259  15.597   3.900   1.414
14839W        W76260  17.134  12.757  14.393
14840W        W76261   6.790   2.771   5.152
14841W        W76262   8.860  11.740   3.726
14842W        W76263  21.572   1.803   3.230
14843W        W76264  32.483  44.782   0.910
14844W        W76265  33.541  39.318  13.486
14845W        W76266   4.709   6.921   3.381
14846W        W76267  35.409  30.521   2.805
14847W        W76268  23.587  39.383   4.787
14848W        W76269  23.231  17.696  12.041
14849W        W76270  19.542   7.224  14.396
14850W        W76271  39.511  44.875  14.357
14851W        W76272  31.915  36.453  10.536
14852W        W76273  17.082  19.561   1.785
14853W        W76274  20.545  34.369   1.791
14854W        W76275   8.330  44.816   4.615
14855W        W76276  39.955   1.331  14.956
14856W        W76277  12.303  27.533  11.571
14857W        W76278  14.604  32.598   3.820
14858W        W76279  24.094  38.424  13.001
14859W        W76280   1.418  37.999  10.499
14860W        W76281   2.905  24.143  10.158
14861W        W76282  18.269  39.808   3.292
14862W        W76283  20.548  21.235   1.852
14863W        W76284  39.833  39.811  11.608
14864W        W76285  22.615  18.131   2.280
14865W        W76286  14.757  15.271  14.371
14866W        W76287  24.108  31.136   4.124
14867W        W76288  28.020   8.840  11.091
14868W        W76289  13.298  11.279   1.413
14869W        W76290  28.953  37.018   0.908
14870W        W76291  15.248  22.590  14.432
14871W        W76292   9.858   7.774   1.314
14872W        W76293  29.634  30.510   0.824
14873W        W76294  20.159  26.474  13.838
14874W        W76295   2.875  43.999  10.109
14875W        W76296  42.975  21.244   0.938
14876W        W76297  10.778  40.499   0.817
14877W        W76298   6.919  24.637   2.773
14878W        W76299  19.564   1.452   1.430
14879W        W76300   5.733  42.405   4.254
14880W        W76301  31.998  15.584   0.940
14881W        W76302  40.304   5.925  13.803
14882W        W76303  16.199  30.957  13.497
14883W        W76304  13.714  11.229  11.996
14884W        W76305   9.309  40.972   0.305
14885W        W76306  28.998  25.979  14.347
14886W        W76307   2.882  12.764   3.782
14887W        W76308  32.891   1.255  11.395
14888W        W76309   9.789  42.406   0.860
14889W        W76310  40.304   9.382   2.328
14890W        W76311   5.270  30.586   0.262
14891W        W76312  29.625  19.107   2.387
14892W        W76313  24.583  24.719   2.209
14893W        W76314  34.090  10.863   3.153
14894W        W76315   4.447   6.315   4.826
14895W        W76316  26.980   9.231   1.349
14896W        W76317  17.656  27.477   0.481
14897W        W76318  22.093  21.648  12.361
14898W        W76319  31.068   3.314   2.816
14899W        W76320  28.934   3.301  13.916
14900W        W76321   1.320  21.018   0.454
14901W        W76322  18.650  33.394   0.749
14902W        W76323  39.831   8.396   3.304
14903W        W76324   2.422  34.429   3.382
14904W        W76325  29.012   8.672  14.796
14905W        W76326  22.193  11.624   2.259
14906W        W76327  42.460  29.465   4.153
14907W        W76328  31.625   9.752  14.876
14908W        W76329  39.407  19.184  13.318
14909W        W76330  43.814  34.552  11.000
14910W        W76331  37.870  10.287  13.859
14911W        W76332  41.947   4.335  14.450
14912W        W76333   1.742   6.309   1.273
14913W        W76334   3.889  17.574   2.322
14914W        W76335  10.705  30.159   1.715
14915W        W76336  17.728  43.405  11.906
14916W        W76337  33.425  43.364  12.926
14917W        W76338   3.222  17.562  14.878
14918W        W76339   6.360  26.108  13.493
14919W        W76340  19.278  10.341  11.006
14920W        W76341   8.719   8.873   4.197
14921W        W76342  14.675  14.629  12.839
14922W        W76343  35.574  34.378  11.494
14923W        W76344  11.840  12.804   3.714
14924W        W76345  27.151  30.098   2.730
14925W        W76346  20.148  35.971   2.291
14926W        W76347  10.150   0.894   3.664
14927W        W76348  39.421  40.042   0.308
14928W        W76349   7.306  29.449   3.149
14929W        W76350  34.011  34.991   1.864
14930W        W76351  42.982  34.548   2.730
14931W        W76352  28.078  27.658  12.570
14932W        W76353  12.244   7.772   4.765
14933W        W76354  26.462  28.018   3.794
14934W        W76355  33.117   7.210  11.514
14935W        W76356  32.626  30.039  10.986
14936W        W76357  34.984  23.157  14.326
14937W        W76358   7.357  15.635  13.327
14938W        W76359  43.952  34.118  11.559
14939W        W76360  18.188  22.616   1.912
14940W        W76361  39.417  15.812   0.413
14941W        W76362  19.675  10.826   0.263
14942W        W76363  40.953  22.151  11.966
14943W        W76364   4.424  20.263   3.841
14944W        W76365  37.065  11.148  13.791
14945W        W76366  25.142  14.208  13.855
14946W        W76367  39.916   7.376   2.309
14947W        W76368  25.192  35.044  11.378
14948W        W76369  19.641  26.032  11.487
14949W        W76370   9.704  40.964   2.313
14950W        W76371  37.444   8.341  12.379
14951W        W76372  40.521  16.116  10.569
14952W        W76373  20.094  11.232  13.365
14953W        W76374  43.948  28.981   1.316
14954W        W76375   4.699  34.497   4.299
14955W        W76376   5.900  41.958   5.265
14956W        W76377   2.241  22.044  13.450
14957W        W76378  22.203  12.142   0.923
14958W        W76379  42.900  10.373   3.674
14959W        W76380  43.936  17.781  11.996
14960W        W76381   8.669  28.650  12.966
14961W        W76382  37.069  35.413   2.783
14962W        W76383  40.471  26.543  13.987
14963W        W76384  22.205  41.032   4.167
14964W        W76385  25.093  13.322  14.875
14965W        W76386  15.322  29.563  12.951
14966W        W76387  35.543  28.489   0.242
14967W        W76388  30.934  42.029  13.371
14968W        W76389  18.758   6.216  10.912
14969W        W76390  42.307   6.267   4.741
14970W        W76391  22.571  42.507  11.492
14971W        W76392  19.590  16.251  10.956
14972W        W76393  13.661   5.344   0.381
14973W        W76394  30.914  13.612  14.333
14974W        W76395  37.466  16.676   1.268
14975W        W76396  41.851  12.670  14.489
14976W        W76397   9.731   3.885  13.340
14977W        W76398  30.493  21.211  13.346
14978W        W76399  20.717  28.131  14.492
14979W        W76400  13.236  12.746   2.869
14980W        W76401  22.558   4.746  10.437
14981W        W76402  33.544   8.673  11.522
14982W        W76403  41.487  31.145   0.918
14983W        W76404   5.242  14.135  11.465
14984W        W76405  22.131  19.693  14.980
14985W        W76406  28.957   3.954  11.487
14986W        W76407  35.937  40.809   0.288
14987W        W76408   4.886  20.743   4.336
14988W        W76409  30.421  44.470  14.363
14989W        W76410   7.365  35.017  12.047
14990W        W76411  28.119  11.361   9.972
14991W        W76412   4.796   4.316   1.284
14992W        W76413  26.560  33.436   1.411
14993W        W76414  38.329  16.215   1.779
14994W        W76415  16.717  42.306  13.512
14995W        W76416  24.664  41.316   0.297
14996W        W76417  25.972  27.154  13.384
14997W        W76418  31.601  16.732   5.789
14998W        W76419  15.224  41.383  14.299
14999W        W76420  29.604  18.102   1.911
15000W        W76421  13.797   5.346   1.702
15001W        W76422  42.319  39.855  11.112
15002W        W76423  43.787   4.928  13.450
15003W        W76424  35.045   2.756  12.526
15004W        W76425  43.793  32.474   1.270
15005W        W76426  15.083  39.388   0.318
15006W        W76427  29.439  41.410   2.762
15007W        W76428  21.619   0.400   0.727
15008W        W76429  19.198   8.210  14.326
15009W        W76430  13.323  31.494   0.735
15010W        W76431   3.392  36.982   4.149
15011W        W76432  40.865  38.909   3.730
15012W        W76433  38.904  27.059  10.099
15013W        W76434  20.634  27.662   2.181
15014W        W76435  21.533  41.007   4.813
15015W        W76436  16.752  43.825  11.577
15016W        W76437   8.398   8.394   1.719
15017W        W76438  11.220  38.547   0.471
15018W        W76439  34.567  40.534   4.181
15019W        W76440  22.172  34.465   0.361
15020W        W76441  21.083  11.156   0.463
15021W        W76442  12.637  44.800  12.536
15022W        W76443  22.117   4.341   9.920
15023W        W76444  10.362  36.452  14.839
15024W        W76445  37.917  31.643   3.379
15025W        W76446  36.056   3.858  13.861
15026W        W76447  23.636  23.180   2.729
15027W        W76448  30.054   1.377  10.572
15028W        W76449  14.788  39.984   4.774
15029W        W76450  42.388  44.903   3.762
15030W        W76451  41.465  21.632  11.545
15031W        W76452  12.240  36.456   4.625
15032W        W76453  14.098  17.098  10.897
15033W        W76454  19.600  20.723  10.532
15034W        W76455  33.446  43.947  11.017
15035W        W76456  18.233   4.811  13.312
15036W        W76457  13.350   1.931  13.488
15037W        W76458  23.108  39.009   9.978
15038W        W76459  43.937  17.776   3.824
15039W        W76460  15.684  23.204   1.380
15040W        W76461   4.710  16.280   5.111
15041W        W76462  14.232  39.012   0.346
15042W        W76463  12.340  43.427   3.833
15043W        W76464  23.622  40.897  11.398
15044W        W76465  34.997  39.327   4.128
15045W        W76466  43.816  42.347  12.919
15046W        W76467   0.479  20.181   4.781
15047W        W76468  40.334   1.273   2.374
15048W        W76469  38.387  38.416   3.714
15049W        W76470   6.769  41.379  11.088
15050W        W76471  25.704  23.236   2.727
15051W        W76472  16.590  40.311   3.281
15052W        W76473  34.370  11.196   4.342
15053W        W76474  36.919  28.056  11.493
15054W        W76475  38.840  15.762  14.814
15055W        W76476  42.440  44.983   0.473
15056W        W76477   9.273   3.369   0.331
15057W        W76478  23.542  36.046   0.836
15058W        W76479   2.416  24.110   4.249
15059W        W76480  16.166  21.242   2.246
15060W        W76481  31.454  21.647   3.333
15061W        W76482   3.768  38.483   4.348
15062W        W76483  14.831  19.190   0.385
15063W        W76484  28.477  42.318   4.692
15064W        W76485  33.129  13.207   3.748
15065W        W76486   7.742  34.999  11.419
15066W        W76487  38.900  21.654  10.534
15067W        W76488  44.322   3.447  12.519
15068W        W76489   8.377  43.298   1.895
15069W        W76490  37.009  13.195  11.077
15070W        W76491  37.518  17.180   2.896
15071W        W76492  18.767  13.215   3.693
15072W        W76493  10.203  21.721   1.810
15073W        W76494  19.255   9.665  13.795
15074W        W76495  39.976   1.765  12.532
15075W        W76496  41.307  32.565  14.454
15076W        W76497   7.803  31.522   1.760
15077W        W76498  37.465  15.285   1.787
15078W        W76499   3.813  44.929   2.404
15079W        W76500  32.118  26.624  11.025
15080W        W76501  30.978  30.015  12.536
15081W        W76502  16.580  18.109  10.995
15082W        W76503  28.092  14.097  10.467
15083W        W76504   6.238  20.105   0.310
15084W        W76505  29.102  40.529   3.190
15085W        W76506  25.691  35.495   0.803
15086W        W76507   1.909  14.101  13.892
15087W        W76508  32.949   4.758  12.380
15088W        W76509  23.591   9.339   1.389
15089W        W76510  34.115   5.215  14.003
15090W        W76511  27.989  13.109   0.283
15091W        W76512  22.247  20.179  13.985
15092W        W76513  12.177  27.531   4.206
15093W        W76514  26.631  28.087   2.210
15094W        W76515   9.191   1.405  12.361
15095W        W76516  25.200   9.277   1.695
15096W        W76517  44.965   2.238   4.709
15097W        W76518  28.179  25.050   4.184
15098W        W76519  12.744  20.705   0.449
15099W        W76520  22.699  28.075  10.584
15100W        W76521  15.626  22.108   3.820
15101W        W76522  41.838   1.474  13.498
15102W        W76523  41.508   6.403  12.992
15103W        W76524  35.090  30.069  14.352
15104W        W76525  37.401  27.157  12.007
15105W        W76526  27.094   4.298   0.827
15106W        W76527  22.738  35.887   4.216
15107W        W76528  11.820  40.459   4.732
15108W        W76529  14.624  10.277  13.029
15109W        W76530  15.317  20.767  10.638
15110W        W76531  25.169  38.854   0.303
15111W        W76532  37.997  42.449  14.463
15112W        W76533  34.609   2.446  12.363
15113W        W76534   4.754  27.616   0.404
15114W        W76535  43.879   5.757   0.762
15115W        W76536  40.054   8.898   0.456
15116W        W76537  25.701  43.432   3.370
15117W        W76538   8.267  28.673   4.339
15118W        W76539  15.683  25.637  11.036
15119W        W76540  30.919  35.886  13.986
15120W        W76541  42.485   3.797   2.767
15121W        W76542  24.993  30.526  10.479
15122W        W76543  39.324   8.357  12.035
15123W        W76544  33.922   8.387  12.960
15124W        W76545  17.588   0.297  14.968
15125W        W76546  17.213  30.020  12.003
15126W        W76547  23.527  19.085   3.379
15127W        W76548  16.216  42.983  13.416
15128W        W76549  30.512  41.888   0.873
15129W        W76550   6.314  35.903   3.171
15130W        W76551  44.503   1.337   4.353
15131W        W76552  18.282   6.880  11.049
15132W        W76553  17.192  21.241   0.282
15133W        W76554   0.909  27.493  14.888
15134W        W76555   2.943  14.678  12.894
15135W        W76556   1.469   6.187  11.405
15136W        W76557  17.229  12.288   2.899
15137W        W76558   4.892  24.180   5.736
15138W        W76559   7.821   2.407   2.366
15139W        W76560   3.899   4.901   4.338
15140W        W76561  18.173  10.705   0.842
15141W        W76562  28.962  20.038  13.916
15142W        W76563  32.534   0.901   0.919
15143W        W76564  23.082   7.825  14.774
15144W        W76565  20.588  29.576   4.297
15145W        W76566  24.538   6.828   3.155
15146W        W76567  21.611  16.637  12.411
15147W        W76568   8.883  38.442   0.826
15148W        W76569  35.596   4.357  14.317
15149W        W76570  31.921  41.411   3.277
15150W        W76571  39.314  10.653  12.389
15151W        W76572   3.733  26.593  12.093
15152W        W76573  33.094  44.822   2.364
15153W        W76574  44.858  20.234   3.259
15154W        W76575  37.983  37.952  11.105
15155W        W76576  38.445  19.667  13.546
15156W        W76577  12.217  16.196   4.838
15157W        W76578  37.402  28.511   1.221
15158W        W76579  36.901   1.943  10.512
15159W        W76580   2.243   0.334  13.880
15160W        W76581  22.009  12.280  10.941
15161W        W76582  11.176  33.391   0.424
15162W        W76583  33.420   9.290   4.149
15163W        W76584  43.994  41.394  13.953
15164W        W76585   1.287   1.405  13.002
15165W        W76586   5.888  13.783   1.259
15166W        W76587  12.650  38.937   3.370
15167W        W76588  36.004   0.892  14.478
15168W        W76589  22.536   4.716  11.466
15169W        W76590  20.593   5.295  11.082
15170W        W76591  42.855   9.679   3.369
15171W        W76592  14.749  17.727   0.336
15172W        W76593  27.509  27.079   0.892
15173W        W76594  23.234  10.280  14.860
15174W        W76595  25.029  32.054  12.536
15175W        W76596   1.482  40.013  13.431
15176W        W76597  27.041  33.035  12.440
15177W        W76598  43.971  39.920  13.328
15178W        W76599  29.075  23.650   0.913
15179W        W76600  39.379  18.722  14.513
15180W        W76601  21.667  40.916  13.431
15181W        W76602  19.194  13.715  13.908
15182W        W76603  38.393  36.905  13.794
15183W        W76604  21.039  41.890   2.212
15184W        W76605  29.099  17.592  10.629
15185W        W76606  11.309  19.134   3.654
15186W        W76607  25.073   9.841   3.638
15187W        W76608   7.360  27.682  13.958
15188W        W76609   8.349  11.827   2.889
15189W        W76610  33.105  32.573  12.824
15190W        W76611  18.544  16.163  12.840
15191W        W76612  41.380  35.465  12.512
15192W        W76613  34.473   7.263   2.234
15193W        W76614  40.866   0.822   4.157
15194W        W76615  33.401   9.220   4.655
15195W        W76616  23.037   0.742   0.300
15196W        W76617  25.101  28.646  13.410
15197W        W76618   1.790  14.299   2.270
15198W        W76619  32.446  21.704  10.420
15199W        W76620  11.824  17.104   3.354
15200W        W76621  39.473  30.594  13.799
15201W        W76622   8.675  26.161   1.307
15202W        W76623  11.680  23.189   1.340
15203W        W76624   9.262  35.879  11.954
15204W        W76625   9.315  21.673   4.118
15205W        W76626   8.735  33.053  11.382
15206W        W76627   9.293  19.541  10.428
15207W        W76628  15.301   9.753   4.327
15208W        W76629  31.132   1.250   0.881
15209W        W76630  18.661  11.208   3.853
15210W        W76631  12.718  22.719   4.117
15211W        W76632  22.047  37.858  10.988
15212W        W76633  41.923  22.110   2.803
15213W        W76634   5.933   9.334  12.907
15214W        W76635  18.582  33.512  12.984
15215W        W76636  13.728  39.029   4.698
15216W        W76637  22.710   3.397   0.915
15217W        W76638  35.913  12.262  12.361
15218W        W76639  33.985  29.532   3.837
15219W        W76640  10.326  21.595   4.198
15220W        W76641  27.637  28.929  11.074
15221W        W76642  18.184  12.817   5.096
15222W        W76643  23.990  17.595  13.019
15223W        W76644  39.991  40.356   2.780
15224W        W76645   8.792  40.984   0.774
15225W        W76646  44.453   2.879   3.284
15226W        W76647  40.350  16.575  13.408
15227W        W76648  13.798  44.301  10.459
15228W        W76649  29.495   6.867   1.338
15229W        W76650  36.373  15.689   1.374
15230W        W76651   7.410  31.598  12.993
15231W        W76652   1.273  42.877  12.449
15232W        W76653  17.718  27.671   2.873
15233W        W76654  15.628  27.621   4.320
15234W        W76655  19.059  14.765   5.187
15235W        W76656   6.760  37.060  11.565
15236W        W76657  29.110  35.449   4.307
15237W        W76658  24.023  10.295  13.014
15238W        W76659  28.604   1.899  13.318
15239W        W76660  38.024  42.830  13.478
15240W        W76661  39.941   4.768   0.953
15241W        W76662  32.428  33.979   3.748
15242W        W76663   8.271  15.232   4.811
15243W        W76664  25.003  42.901  10.480
15244W        W76665   4.262  26.478  11.954
15245W        W76666  33.012  11.807   4.825
15246W        W76667  32.517   4.353   1.274
15247W        W76668  29.176  10.652   0.432
15248W        W76669   7.286  16.081  11.391
15249W        W76670  39.055  32.398  14.975
15250W        W76671  19.628  15.650   1.304
15251W        W76672  17.624   1.249  11.411
15252W        W76673  21.096  42.884   3.332
15253W        W76674  20.628  43.998   1.246
15254W        W76675   8.243  13.160   3.357
15255W        W76676  30.952  29.158   0.301
15256W        W76677   4.701   8.818  11.957
15257W        W76678  30.568  13.307  12.825
15258W        W76679   1.849   8.704   0.415
15259W        W76680  38.484  24.092  11.459
15260W        W76681  19.056  30.128   2.313
15261W        W76682   1.768  41.837   1.908
15262W        W76683   2.850  24.050  14.303
15263W        W76684  33.589  44.295  12.423
15264W        W76685  20.549  44.424   3.806
15265W        W76686  23.063  37.921   3.687
15266W        W76687  36.543  36.369  13.828
15267W        W76688  41.317  41.317  14.340
15268W        W76689   9.675  11.147  14.888
15269W        W76690  12.257  23.101  13.432
15270W        W76691   3.234  41.980   4.246
15271W        W76692  36.943  37.460   0.477
15272W        W76693  44.486  18.768  14.801
15273W        W76694  12.678  33.551  12.973
15274W        W76695  20.620   5.766  13.993
15275W        W76696  22.551   3.321   3.713
15276W        W76697  35.008  19.131   3.712
15277W        W76698  41.880  32.564  12.898
15278W        W76699   8.735   5.329   0.306
15279W        W76700  19.557  12.294  13.394
15280W        W76701  13.696  34.073   4.736
15281W        W76702  13.233   8.321   4.234
15282W        W76703   1.353   1.937  11.036
15283W        W76704  37.433  14.751   3.357
15284W        W76705  36.045  18.546   4.248
15285W        W76706  12.273  39.053  12.552
15286W        W76707  39.487  32.909   1.281
15287W        W76708  17.231  36.057  12.408
15288W        W76709  28.032  39.390   1.882
15289W        W76710  28.945  41.801  12.941
15290W        W76711  27.663  21.745  14.279
15291W        W76712  41.404  10.833   0.895
15292W        W76713  37.475  16.588   2.356
15293W        W76714   7.777  35.899  14.896
15294W        W76715   9.821  38.015  12.443
15295W        W76716  43.418  25.512  10.968
15296W        W76717  18.276  43.277  12.048
15297W        W76718  10.813  18.555  10.405
15298W        W76719  41.303  41.955  13.025
15299W        W76720  39.017   5.834  12.935
15300W        W76721  34.892  24.653  12.017
15301W        W76722  12.751  31.940  12.928
15302W        W76723  31.940  18.554   1.855
15303W        W76724  23.059   6.739  13.377
15304W        W76725  34.011   9.834   3.170
15305W        W76726  36.011  17.198   0.335
15306W        W76727  25.481  28.148  11.892
15307W        W76728  31.059  34.442  13.875
15308W        W76729  22.224  42.968  11.050
15309W        W76730  32.930  38.043  13.820
15310W        W76731  27.509  31.527  11.087
15311W        W76732  20.035  24.486  12.449
15312W        W76733  26.477  43.374   3.215
15313W        W76734  11.790  11.363   1.745
15314W        W76735  31.133  16.665   2.706
15315W        W76736  27.516  25.627  12.476
15316W        W76737  43.383  24.581   4.668
15317W        W76738  33.385  32.453   1.346
15318W        W76739  20.526  23.576  14.325
15319W        W76740  21.521  33.102   1.328
15320W        W76741  21.220  18.290   2.767
15321W        W76742  38.467  30.953  14.821
15322W        W76743   9.183  30.605   0.357
15323W        W76744  28.117   8.849   0.802
15324W        W76745  21.217  18.626   4.598
15325W        W76746  31.014  38.909  10.632
15326W        W76747  40.021  28.953  13.987
15327W        W76748   6.804  23.049   5.097
15328W        W76749  25.635  23.563  12.487
15329W        W76750  20.557  35.994  12.576
15330W        W76751  24.017  19.058   4.298
15331W        W76752   1.924  40.518  10.626
15332W        W76753  38.523  41.016   3.152
15333W        W76754  36.969  35.013  12.394
15334W        W76755  16.688  32.912  13.397
15335W        W76756   5.889  29.440  11.070
15336W        W76757  20.177  38.856  10.938
15337W        W76758  19.650   2.449   1.422
15338W        W76759  38.044  14.134   0.746
15339W        W76760  32.514  43.348  12.895
15340W        W76761  38.535   0.248  14.443
15341W        W76762   1.806  20.593  13.026
15342W        W76763  10.783  18.723  13.900
15343W        W76764  28.183   5.199   1.308
15344W        W76765  43.289  44.437  14.343
15345W        W76766   6.197  41.294   3.826
15346W        W76767  41.370  40.966  10.585
15347W        W76768  22.740  17.061  10.085
15348W        W76769  25.537  29.482  14.436
15349W        W76770   6.880  39.467  11.512
15350W        W76771  11.148  44.900  13.952
15351W        W76772  26.594  22.014   0.963
15352W        W76773  28.653  20.110  14.371
15353W        W76774  23.528  30.607   4.157
15354W        W76775  21.596  28.185  11.449
15355W        W76776   7.189  19.092   4.264
15356W        W76777   9.315  27.956   4.668
15357W        W76778  43.876  20.671   4.307
15358W        W76779  17.223  37.066   0.270
15359W        W76780  16.190  28.620  12.559
15360W        W76781  36.507  21.618  12.949
15361W        W76782   4.444  11.289  13.891
15362W        W76783  11.794  11.772  10.035
15363W        W76784  41.435   0.879   1.286
15364W        W76785  15.708  32.130   5.763
15365W        W76786   2.312   7.874   2.224
15366W        W76787   3.239   2.428  14.963
15367W        W76788  28.053   6.327   0.457
15368W        W76789  28.491  10.766  14.856
15369W        W76790  30.073  13.116  12.419
15370W        W76791  23.600  35.415  10.950
15371W        W76792  32.474  38.925   0.295
15372W        W76793  35.916   9.375   0.325
15373W        W76794  24.535   5.842  11.859
15374W        W76795  17.279  42.398  14.769
15375W        W76796  44.375   6.291   2.237
15376W        W76797  34.384  14.805  10.516
15377W        W76798  30.622  17.649   0.354
15378W        W76799  26.185  20.732  12.874
15379W        W76800  17.668  13.191   2.229
15380W        W76801  30.976  41.335   0.356
15381W        W76802   6.789  44.847  11.985
15382W        W76803  28.577   3.800   3.237
15383W        W76804  19.542   3.953   3.635
15384W        W76805  43.501  30.531   0.474
15385W        W76806  26.121  17.258   2.720
15386W        W76807  35.541   9.735   1.742
15387W        W76808  39.420  31.959  10.150
15388W        W76809  44.274  22.518  13.319
15389W        W76810   9.753  43.859   0.422
15390W        W76811  28.108  12.645  14.865
15391W        W76812  22.078  27.683   3.189
15392W        W76813   6.390  11.800   1.304
15393W        W76814   2.929   0.485  11.080
15394W        W76815   9.298  23.994   2.854
15395W        W76816  44.451  33.530   0.336
15396W        W76817   0.406  16.793   0.750
15397W        W76818  37.403  18.695  14.459
15398W        W76819  42.412  26.665  12.388
15399W        W76820   3.448  18.724   1.298
15400W        W76821  25.697  42.901   0.292
15401W        W76822  23.208  36.982  10.946
15402W        W76823  24.544  18.228   0.316
15403W        W76824  15.305  33.401   2.300
15404W        W76825  35.376   7.391   0.834
15405W        W76826  19.558  29.574  13.511
15406W        W76827  12.792  26.155   3.380
15407W        W76828  29.145  41.805  13.823
15408W        W76829  14.793  12.149  13.869
15409W        W76830  40.324   0.270  13.471
15410W        W76831  30.106  31.447   0.854
15411W        W76832   4.444  16.217  12.380
15412W        W76833  26.492  16.238   4.241
15413W        W76834  30.443  41.407  11.456
15414W        W76835  26.594  25.575   2.879
15415W        W76836  23.193   1.295  13.395
15416W        W76837  24.028  29.658  10.916
15417W        W76838  42.937  44.927  13.863
15418W        W76839  14.210  40.852  12.479
15419W        W76840  41.327  10.708   3.855
15420W        W76841  31.604  24.223  13.937
15421W        W76842  17.655  29.651   2.296
15422W        W76843  35.455  18.570   1.256
15423W        W76844  25.159  42.417   2.701
15424W        W76845   3.275  25.044  13.488
15425W        W76846  20.139   5.736  12.444
15426W        W76847  24.664  42.890   4.740
15427W        W76848  20.542  13.783  10.530
15428W        W76849  43.913  30.504  12.830
15429W        W76850  43.294  37.036   3.272
15430W        W76851  41.934  16.193   4.256
15431W        W76852  28.530  20.109   0.417
15432W        W76853  37.005   5.416  12.088
15433W        W76854  10.746   3.854   0.929
15434W        W76855  10.695   8.364   2.234
15435W        W76856  11.804  38.474   2.210
15436W        W76857   3.373  15.610   4.152
15437W        W76858  23.066  25.102   2.387
15438W        W76859  17.076  30.477   4.301
15439W        W76860   8.807  16.195   2.680
15440W        W76861  13.150  17.078   2.340
15441W        W76862  23.060  16.145  13.821
15442W        W76863  14.613  39.819  14.808
15443W        W76864   8.367  39.973   5.787
15444W        W76865  23.572  40.941   2.344
15445W        W76866  33.934  21.545  14.795
15446W        W76867   7.408   3.895   4.141
15447W        W76868  42.363  34.506  14.852
15448W        W76869  31.946  12.283  12.506
15449W        W76870  28.451  44.453  11.077
15450W        W76871  18.641  35.459   4.690
15451W        W76872  14.749  22.035  14.347
15452W        W76873  26.501  29.597  11.057
15453W        W76874  22.212   0.306   4.307
15454W        W76875  40.415  40.939   4.778
15455W        W76876  20.232  29.454  10.575
15456W        W76877  39.943  42.461  11.940
15457W        W76878  25.062  15.788  14.941
15458W        W76879   0.933   2.833  13.887
15459W        W76880   6.345  22.579   3.149
15460W        W76881   7.266  12.708   2.726
15461W        W76882  42.783  29.607  12.420
15462W        W76883  20.040  32.930  11.913
15463W        W76884   7.805   6.816   2.729
15464W        W76885  22.697   9.670  14.369
15465W        W76886  16.803   9.366   1.866
15466W        W76887  33.087  37.902  14.794
15467W        W76888   2.945  21.147  11.488
15468W        W76889  20.221  32.570  14.361
15469W        W76890  27.974  23.491   5.092
15470W        W76891  33.119  18.659   4.616
15471W        W76892  43.431  15.677  12.472
15472W        W76893  17.593   2.436  12.560
15473W        W76894  13.632  27.947  11.491
15474W        W76895  15.170  35.429  13.340
15475W        W76896  10.713  34.888  13.353
15476W        W76897   8.755  28.558   0.894
15477W        W76898  33.904  18.247  12.498
15478W        W76899  31.524  21.164   0.955
15479W        W76900   6.341  12.803   1.370
15480W        W76901   1.387  25.134  11.613
15481W        W76902  14.126  30.614  14.863
15482W        W76903  26.174   4.768  11.011
15483W        W76904   4.449  24.135  11.119
15484W        W76905   4.911  17.213   4.177
15485W        W76906   3.815  39.325  12.403
15486W        W76907  19.737  17.064  14.404
15487W        W76908  10.321  17.560  14.814
15488W        W76909   8.290  30.931   4.190
15489W        W76910  14.603  20.243  13.371
15490W        W76911  36.947   6.749   3.184
15491W        W76912  35.591  28.463   2.202
15492W        W76913  14.822  42.871  14.968
15493W        W76914  23.108  24.160   2.749
15494W        W76915   2.775  39.889  11.398
15495W        W76916  18.284  22.700   0.339
15496W        W76917  26.689  18.261   2.344
15497W        W76918   5.832  12.248  14.485
15498W        W76919   5.313  16.737  13.851
15499W        W76920  35.494  32.512  10.594
15500W        W76921  23.728  30.027   1.397
15501W        W76922  26.063   7.680   4.354
15502W        W76923  15.232  31.593  11.957
15503W        W76924  31.971  16.730  14.910
15504W        W76925  10.829   6.346  14.279
15505W        W76926  38.357  12.275   0.779
15506W        W76927  40.481  20.151  14.905
15507W        W76928  13.151   6.206  11.590
15508W        W76929  36.936  43.287   0.803
15509W        W76930  12.611  20.054  12.899
15510W        W76931  30.633  11.797  11.124
15511W        W76932  10.269  10.848   1.735
15512W        W76933  25.521  13.668  11.940
15513W        W76934  31.503  22.627  13.954
15514W        W76935  36.397  39.473  11.952
15515W        W76936  30.035  29.015   3.325
15516W        W76937   8.758  24.628   0.336
15517W        W76938  39.430  27.663  10.907
15518W        W76939  28.562  37.919   2.214
15519W        W76940  33.438  11.142   4.786
15520W        W76941  11.814   3.372   5.293
15521W        W76942  39.881  14.195   2.706
15522W        W76943  44.858  30.512  13.922
15523W        W76944  35.453  42.870   0.839
15524W        W76945  16.802   5.300   4.644
15525W        W76946  14.711  29.589  13.064
15526W        W76947  39.430  38.938  11.083
15527W        W76948  27.672  43.294   3.234
15528W        W76949  13.704  44.887   4.198
15529W        W76950  32.956   1.408   4.627
15530W        W76951  11.690  14.808  11.504
15531W        W76952  19.575  20.633   1.439
15532W        W76953  11.809  28.090  10.494
15533W        W76954  32.420  23.674   3.862
15534W        W76955  33.403  41.936  12.473
15535W        W76956  38.976  40.036  13.544
15536W        W76957  37.351   0.837   0.245
15537W        W76958  43.897  12.725   3.705
15538W        W76959  44.266   8.824  12.077
15539W        W76960   4.380  33.898  12.848
15540W        W76961   7.334  16.199  14.887
15541W        W76962  24.518  12.612  10.552
15542W        W76963  34.995  42.949  14.283
15543W        W76964   5.245   0.318  13.424
15544W        W76965  20.762  34.881   4.800
15545W        W76966  11.685  30.614   4.283
15546W        W76967  43.328  29.053  12.006
15547W        W76968  10.866   1.348   4.325
15548W        W76969  35.898  14.616   2.329
15549W        W76970  42.418  24.525  14.931
15550W        W76971  41.988  30.541   1.273
15551W        W76972  40.501  34.507  11.940
15552W        W76973  21.716  39.843  13.956
15553W        W76974  29.082  21.192  11.954
15554W        W76975   1.436  27.620  13.337
15555W        W76976  36.353  15.267  11.532
15556W        W76977  10.716  36.473   0.288
15557W        W76978   2.785  23.042   3.631
15558W        W76979   6.287   0.784   1.298
15559W        W76980  10.744   3.942  11.523
15560W        W76981  23.024  13.302   2.724
15561W        W76982  35.911  31.588   2.415
15562W        W76983  12.734  11.309   3.660
15563W        W76984  39.906  23.029   2.375
15564W        W76985  36.851  11.269   4.175
15565W        W76986  32.057   1.470   2.183
15566W        W76987   3.806  35.997   2.841
15567W        W76988  33.514   0.816   9.619
15568W        W76989  29.606  16.128  10.419
15569W        W76990  39.029  13.632   0.315
15570W        W76991   4.413  14.106  12.489
15571W        W76992  25.592  10.370   1.251
15572W        W76993  39.961  11.344   3.154
15573W        W76994  37.969  42.801  11.610
15574W        W76995  37.941   9.217  14.968
15575W        W76996  22.534  10.692   0.880
15576W        W76997  28.186  23.200   1.892
15577W        W76998  33.033  12.745   4.250
15578W        W76999  13.332  24.583   4.634
15579W        W77000  38.441  20.172   2.842
15580W        W77001  41.894  10.767  13.408
15581W        W77002  44.859   3.286   1.298
15582W        W77003  10.719  38.821  10.941
15583W        W77004  32.069  25.158  13.959
15584W        W77005  25.568  42.009   4.157
15585W        W77006  42.428  11.675   2.729
15586W        W77007  14.760   8.743  11.086
15587W        W77008  35.377  19.226   4.686
15588W        W77009   5.318  18.228  12.473
15589W        W77010  10.635   2.270   4.285
15590W        W77011   1.359  42.985   2.384
15591W        W77012  10.231  42.888   0.921
15592W        W77013  13.326  24.680   4.241
15593W        W77014  38.939  43.460  13.504
15594W        W77015  40.826  27.674   4.796
15595W        W77016  11.845  21.200  11.556
15596W        W77017  14.285  14.112   3.173
15597W        W77018  42.978  31.019  12.937
15598W        W77019  13.275  44.895   2.277
15599W        W77020  16.307   4.712   0.461
15600W        W77021  17.576  16.567  14.769
15601W        W77022  14.722  37.443  12.579
15602W        W77023   3.248   8.206  14.968
15603W        W77024  16.721  41.305  13.827
15604W        W77025  22.517   1.314  13.885
15605W        W77026  36.026  28.933  11.061
15606W        W77027  34.999  38.569  10.619
15607W        W77028   8.175   4.406   1.355
15608W        W77029  22.533  25.129  14.386
15609W        W77030  35.562  10.311   4.688
15610W        W77031  16.177   0.908  11.383
15611W        W77032  21.143  41.823   2.671
15612W        W77033  30.006   7.307  12.452
15613W        W77034  37.469  15.300   3.309
15614W        W77035  26.626  39.361   0.828
15615W        W77036  17.129   1.744  12.371
15616W        W77037  17.240  13.695   1.425
15617W        W77038   5.690  39.041   5.122
15618W        W77039   1.269  44.878  12.041
15619W        W77040  19.136  20.768  13.031
15620W        W77041   7.766   2.410   3.263
15621W        W77042  12.240  27.019  14.286
15622W        W77043  22.550  40.484  13.362
15623W        W77044  21.617  33.048   3.637
15624W        W77045  35.962  27.562   3.843
15625W        W77046  31.525   6.837  14.505
15626W        W77047  31.993   7.305   0.830
15627W        W77048  31.013  43.985  13.936
15628W        W77049  40.534  21.050  12.938
15629W        W77050  43.405  21.148   0.311
15630W        W77051  16.806  14.283   0.461
15631W        W77052   1.339  21.146  12.527
15632W        W77053  27.548  44.444  13.528
15633W        W77054  31.097  33.109  12.083
15634W        W77055   6.821  17.699  14.787
15635W        W77056   3.360  12.206   4.684
15636W        W77057  38.983  27.965   2.762
15637W        W77058  30.970  31.954  14.303
15638W        W77059  25.636  30.448   5.100
15639W        W77060  16.654  16.616  14.402
15640W        W77061   6.740  17.148  13.859
15641W        W77062  10.878  16.104  11.481
15642W        W77063   3.343  10.829   1.353
15643W        W77064   3.869  42.947  13.036
15644W        W77065  33.947  29.988   3.292
15645W        W77066  14.157  35.862  13.483
15646W        W77067  28.178   8.869  13.331
15647W        W77068  43.010  11.816   4.653
15648W        W77069  25.065  18.684   1.242
15649W        W77070  32.910   5.299   5.571
15650W        W77071  29.442  35.059   1.318
15651W        W77072  20.665  35.358   1.908
15652W        W77073   6.898  39.835   0.887
15653W        W77074   1.828   7.688   4.597
15654W        W77075  40.486  41.846  13.897
15655W        W77076   4.378  35.988  12.042
15656W        W77077   4.769   5.915  10.548
15657W        W77078  40.306  40.399  14.433
15658W        W77079  15.095  37.520   1.777
15659W        W77080   3.246  43.791   1.812
15660W        W77081  29.162  19.188   4.231
15661W        W77082  41.981  26.125   3.333
15662W        W77083  11.296  26.048   4.287
15663W        W77084   3.750  21.727   0.412
15664W        W77085  25.617  23.072  12.035
15665W        W77086  16.579  34.494   2.359
15666W        W77087  44.895  24.176   4.799
15667W        W77088  31.539   8.356   4.230
15668W        W77089  10.181  17.682  11.580
15669W        W77090  29.042   7.268   3.813
15670W        W77091  42.444   4.365  13.905
15671W        W77092  10.217  16.594  12.967
15672W        W77093  35.923   9.295  12.950
15673W        W77094  19.090  38.900   3.738
15674W        W77095  10.787  28.020   2.708
15675W        W77096  37.564  18.118   4.602
15676W        W77097  33.060  21.220   1.329
15677W        W77098  36.479   4.935  12.388
15678W        W77099  22.196  38.450   0.823
15679W        W77100  21.035  19.665   3.675
15680W        W77101  14.820  30.961  12.352
15681W        W77102  23.600  37.581  13.832
15682W        W77103  32.046  31.580  11.561
15683W        W77104  24.709  10.858  14.031
15684W        W77105  18.095   5.212  14.996
15685W        W77106  44.400   5.749   1.341
15686W        W77107  24.665  18.182   2.865
15687W        W77108  13.136   8.691   4.791
15688W        W77109  22.682  17.635  14.297
15689W        W77110  31.072  22.026  10.636
15690W        W77111  14.326  39.386  14.931
15691W        W77112  35.911  35.449   4.736
15692W        W77113  31.026  22.231   4.237
15693W        W77114  20.241  20.260   4.797
15694W        W77115  39.056  31.511  12.939
15695W        W77116  29.144  38.438   4.738
15696W        W77117  25.134   9.248  14.988
15697W        W77118  12.222   8.779  12.076
15698W        W77119  39.370  42.805   0.956
15699W        W77120   5.366  39.964  13.359
15700W        W77121  18.268  29.134   2.803
15701W        W77122   5.888  34.455  10.585
15702W        W77123  22.187   7.255   4.294
15703W        W77124  34.446  29.450   3.374
15704W        W77125  19.687  39.011   2.887
15705W        W77126  38.852   5.359  11.580
15706W        W77127  25.477  39.852   0.381
15707W        W77128   2.351  17.682   0.763
15708W        W77129  21.200  10.299  14.944
15709W        W77130  28.942  17.273  10.507
15710W        W77131   1.416  11.336   1.709
15711W        W77132  25.117   4.816  11.971
15712W        W77133  42.837  23.023   1.216
15713W        W77134  23.692  36.062  10.610
15714W        W77135  41.380   5.352  13.966
15715W        W77136   1.891  31.086  13.926
15716W        W77137   5.301  27.026  11.864
15717W        W77138  11.369   4.259  13.508
15718W        W77139   4.445  41.488   3.227
15719W        W77140  17.690   7.820   3.168
15720W        W77141  38.978  35.576   3.806
15721W        W77142  32.582  10.748   4.740
15722W        W77143   6.368  23.627   1.761
15723W        W77144  30.984  13.219  10.016
15724W        W77145  23.009  23.129   0.940
15725W        W77146   9.185  15.245   4.115
15726W        W77147  32.490  43.938  12.542
15727W        W77148  17.102  44.977   4.269
15728W        W77149   5.819  27.587  12.513
15729W        W77150  32.420   5.711   1.708
15730W        W77151  39.407  12.336  10.084
15731W        W77152  33.975  33.435   2.842
15732W        W77153  17.258  41.293   5.226
15733W        W77154   4.926  13.334  12.445
15734W        W77155  18.078   8.770   3.161
15735W        W77156  22.588  38.551  12.440
15736W        W77157   7.208  28.679  13.497
15737W        W77158  36.080  20.035   1.302
15738W        W77159  41.303  39.415   4.723
15739W        W77160  29.480  17.142   2.702
15740W        W77161  11.854  22.092   1.235
15741W        W77162  27.671  41.861   3.658
15742W        W77163  19.059  12.355   1.275
15743W        W77164  29.994  33.088   1.824
15744W        W77165  12.784  22.710   2.895
15745W        W77166  36.081  14.109   0.930
15746W        W77167  27.651  25.667  13.506
15747W        W77168  32.611  24.675  13.411
15748W        W77169  32.469  44.302   0.310
15749W        W77170  21.703  26.133   3.152
15750W        W77171  17.273  27.656  10.614
15751W        W77172  21.512  10.723   0.414
15752W        W77173  39.910  11.662  14.279
15753W        W77174  39.450   8.269  12.401
15754W        W77175  18.066  33.532   2.243
15755W        W77176   9.710  25.990   2.695
15756W        W77177  40.408  38.467  11.426
15757W        W77178  22.051  39.986  13.484
15758W        W77179   5.830   8.278  13.371
15759W        W77180  14.812   0.922   1.707
15760W        W77181  27.648  29.980  12.369
15761W        W77182   1.774  29.117  14.829
15762W        W77183   3.748  28.062  11.100
15763W        W77184  32.552   7.263   1.423
15764W        W77185   5.762  36.953   1.771
15765W        W77186  18.233  40.997   0.384
15766W        W77187  43.781  18.206  13.459
15767W        W77188   1.952  44.992  13.028
15768W        W77189   0.949  36.945   0.418
15769W        W77190  34.593  25.569   0.273
15770W        W77191   2.809  22.558   2.764
15771W        W77192   2.778  17.097   3.273
15772W        W77193  21.172  13.254  10.525
15773W        W77194   2.368  35.400   1.813
15774W        W77195   3.736  43.813  12.413
15775W        W77196  34.071  19.743   2.326
15776W        W77197  44.368  11.734   3.312
15777W        W77198  20.267   0.751  14.941
15778W        W77199   1.343  43.019  11.009
15779W        W77200  31.127   3.888   0.382
15780W        W77201   8.382  39.980   1.284
15781W        W77202  26.568  31.897   4.195
15782W        W77203   1.745   7.828   1.412
15783W        W77204  41.930  42.315   0.476
15784W        W77205  34.923  43.848  10.523
15785W        W77206   4.238  27.058   4.344
15786W        W77207  12.616  23.652  13.880
15787W        W77208  26.575  44.483  10.466
15788W        W77209  33.877  35.372   4.298
15789W        W77210  25.604  30.615  12.576
15790W        W77211  30.999  16.247  10.432
15791W        W77212  10.215  15.167  11.453
15792W        W77213  16.078  39.016  12.500
15793W        W77214  43.947  29.462  14.277
15794W        W77215  33.503  21.652   1.907
15795W        W77216  12.155  30.519  13.429
15796W        W77217  29.490  19.730   5.158
15797W        W77218  23.202   3.712  10.988
15798W        W77219   4.256  44.280  10.614
15799W        W77220   5.818  42.368   2.665
15800W        W77221   8.339  23.697  12.565
15801W        W77222   6.869   8.243  11.037
15802W        W77223  26.634  40.497  11.932
15803W        W77224  22.510  10.855  12.961
15804W        W77225  39.384  35.913   1.397
15805W        W77226  27.608  14.683  11.995
15806W        W77227  35.090  24.644  11.419
15807W        W77228  16.645  37.475  11.081
15808W        W77229   6.687   1.399   0.801
15809W        W77230  37.032  15.229   9.552
15810W        W77231  35.437   7.801   3.206
15811W        W77232  29.093  17.113   1.417
15812W        W77233  28.057  30.046  14.416
15813W        W77234   7.334  36.999   0.861
15814W        W77235  13.769  25.636   3.848
15815W        W77236  39.495   5.233   3.841
15816W        W77237   0.759  42.335  14.385
15817W        W77238  23.490  18.097  11.897
15818W        W77239   0.292   3.846   9.540
15819W        W77240  42.417  28.635  13.967
15820W        W77241  17.172  14.148   0.458
15821W        W77242  28.448  41.365   1.361
15822W        W77243   9.292   5.764   1.822
15823W        W77244  21.060  42.490   3.828
15824W        W77245   7.397  32.904  10.534
15825W        W77246  39.944  32.064  12.543
15826W        W77247  11.631  10.834  13.491
15827W        W77248  18.613   7.861   2.725
15828W        W77249  32.950  20.253   4.615
15829W        W77250   8.320  39.972   2.325
15830W        W77251  25.480  11.858  10.899
15831W        W77252   2.290  44.756  12.905
15832W        W77253  39.548   2.938   1.826
15833W        W77254  19.744  27.146   4.350
15834W        W77255  26.627  20.656  10.961
15835W        W77256  26.564  30.560   4.808
15836W        W77257  32.131  13.332  14.448
15837W        W77258  43.766  33.560  12.529
15838W        W77259  26.200  20.180  13.803
15839W        W77260  31.627  27.669   4.772
15840W        W77261   3.836   4.403   5.302
15841W        W77262  17.087   8.753   0.732
15842W        W77263  37.471  22.643   0.855
15843W        W77264  37.933  33.434   2.267
15844W        W77265  26.104  20.138  14.948
15845W        W77266  43.279  34.092   0.899
15846W        W77267   4.425  22.147  10.570
15847W        W77268   8.260  27.587   2.761
15848W        W77269   6.295   5.412  14.340
15849W        W77270  33.570  32.051   0.479
15850W        W77271  22.085  31.619  14.972
15851W        W77272   9.706  17.157  14.335
15852W        W77273  22.554  19.210  12.429
15853W        W77274  13.112  22.603   1.858
15854W        W77275  23.104  38.404   2.335
15855W        W77276   6.702  24.174  13.797
15856W        W77277   4.877  17.735   4.132
15857W        W77278  15.757  36.063   2.309
15858W        W77279  26.568  23.194  11.048
15859W        W77280  28.587  30.636  13.507
15860W        W77281  43.988  14.705   2.676
15861W        W77282   0.419  22.736   2.769
15862W        W77283   7.351   8.306  14.875
15863W        W77284  19.617  23.578  11.458
15864W        W77285  24.014  25.490  10.640
15865W        W77286  33.985  41.536   4.687
15866W        W77287  24.643  17.256   4.778
15867W        W77288   9.235  41.504   4.231
15868W        W77289  37.398   2.397  13.943
15869W        W77290  16.592  22.156  13.816
15870W        W77291  24.575  42.462   2.218
15871W        W77292  11.229  11.716   2.801
15872W        W77293  22.719  34.115   3.189
15873W        W77294   4.824  40.423   2.249
15874W        W77295  20.761  30.633  10.410
15875W        W77296  12.620  36.495  11.083
15876W        W77297   0.374  20.206  13.874
15877W        W77298  13.245  44.435   3.172
15878W        W77299  16.138  10.777   0.798
15879W        W77300  14.297  19.188   3.744
15880W        W77301  13.690  44.976  11.513
15881W        W77302  20.604  10.859   4.795
15882W        W77303  38.941  39.514   0.340
15883W        W77304  36.459   9.728  11.904
15884W        W77305  42.994  36.093   4.306
15885W        W77306  35.010   8.790  14.357
15886W        W77307   7.763   3.785   2.788
15887W        W77308   1.902  14.722  12.354
15888W        W77309   3.337  26.542  11.447
15889W        W77310  14.674  10.163  12.093
15890W        W77311  22.617  31.590   1.698
15891W        W77312  38.071  27.137  12.486
15892W        W77313  34.909  35.553   3.817
15893W        W77314  27.546   6.233   4.673
15894W        W77315  35.900   9.661   1.404
15895W        W77316  34.071   2.957  13.056
15896W        W77317   8.287   6.750   1.435
15897W        W77318   6.355  33.036  13.363
15898W        W77319  10.740  20.090   2.800
15899W        W77320  25.672  18.165  12.569
15900W        W77321  44.904  26.036   4.828
15901W        W77322  40.895   3.361  12.409
15902W        W77323  16.708  39.814  14.958
15903W        W77324   9.357   8.376  12.554
15904W        W77325  30.945  29.509  11.933
15905W        W77326  44.473   1.732  13.059
15906W        W77327  13.199  19.138   0.452
15907W        W77328  22.069  37.568   4.734
15908W        W77329  35.048  29.533   4.775
15909W        W77330  27.616  17.249   3.306
15910W        W77331  37.868  35.455  12.963
15911W        W77332  39.847  21.518  10.521
15912W        W77333  42.783   8.207   0.462
15913W        W77334  18.682   9.153  11.026
15914W        W77335   4.730  42.878  10.418
15915W        W77336  39.552   5.806  10.968
15916W        W77337  16.180  17.108   2.381
15917W        W77338  28.998   9.213   0.788
15918W        W77339  12.225  12.135   0.252
15919W        W77340  26.492   3.870   0.850
15920W        W77341   7.393  30.141   3.241
15921W        W77342  23.494  25.992   3.656
15922W        W77343  43.898  38.830  14.856
15923W        W77344   3.270  33.094   1.407
15924W        W77345   2.759  13.740  13.935
15925W        W77346  44.814  39.013  13.880
15926W        W77347  11.362  32.043   2.832
15927W        W77348  34.893  19.750  14.325
15928W        W77349   5.337   4.214  13.876
15929W        W77350  35.563  10.848  12.855
15930W        W77351  32.436  39.834   2.330
15931W        W77352  35.923  16.695   1.361
15932W        W77353   0.918   2.340  13.047
15933W        W77354  40.941   7.785  14.341
15934W        W77355   7.195  36.995   2.329
15935W        W77356  40.020  15.105   0.868
15936W        W77357  22.096   3.757  11.009
15937W        W77358  26.966   3.838   0.892
15938W        W77359  42.800   0.917  14.893
15939W        W77360  44.938  22.647   0.300
15940W        W77361  24.118  42.389   4.286
15941W        W77362  41.506  40.313   3.178
15942W        W77363  18.194  35.899  14.491
15943W        W77364  27.484  17.101  11.588
15944W        W77365  36.885  37.014  13.478
15945W        W77366  21.680  17.274   0.782
15946W        W77367  19.048  20.551  14.352
15947W        W77368  32.477  22.115  13.047
15948W        W77369  28.058  26.665  13.980
15949W        W77370  27.661  39.970   0.735
15950W        W77371  10.210   4.246  12.944
15951W        W77372  19.579  15.627   4.803
15952W        W77373   4.379  15.322   1.319
15953W        W77374  30.591  26.042  10.528
15954W        W77375  33.567  36.408   4.317
15955W        W77376  19.122  19.136  11.990
15956W        W77377  35.585  28.649   3.723
15957W        W77378  28.628   4.907   1.770
15958W        W77379  20.565  29.505  14.414
15959W        W77380  14.792  42.383   4.792
15960W        W77381  10.306  26.973  14.289
15961W        W77382  13.264  21.758  14.304
15962W        W77383  36.545  14.108  10.586
15963W        W77384  23.538  42.801   1.448
15964W        W77385  31.436   4.814  12.345
15965W        W77386  24.502  24.192   4.710
15966W        W77387  25.038  11.301   4.132
15967W        W77388  12.612   0.487   1.787
15968W        W77389  16.590  14.183   4.251
15969W        W77390  33.557   1.461  11.940
15970W        W77391   5.825  22.642   4.662
15971W        W77392  33.994   1.272   4.166
15972W        W77393   0.297  19.574  10.590
15973W        W77394   3.358   7.217  12.383
15974W        W77395  16.616  30.630   5.172
15975W        W77396   3.863  19.230   2.675
15976W        W77397  18.209  16.211   0.270
15977W        W77398  37.939  35.519  10.585
15978W        W77399  36.588  36.428  14.918
15979W        W77400  44.759  44.444   0.256
15980W        W77401   2.383  44.317   3.634
15981W        W77402  25.117  18.268  11.906
15982W        W77403  33.386  16.111  13.439
15983W        W77404  43.386  25.099  14.405
15984W        W77405  14.749  16.110   1.435
15985W        W77406  11.298   4.778  12.957
15986W        W77407  34.015  28.614  10.517
15987W        W77408  17.758  43.855  13.433
15988W        W77409  44.335  23.655   1.239
15989W        W77410  30.148  22.046  10.921
15990W        W77411  39.364  20.751   1.704
15991W        W77412   9.320  13.781  12.022
15992W        W77413  29.604  11.315   4.183
15993W        W77414  41.477  41.356   3.658
15994W        W77415   3.453  28.591  14.882
15995W        W77416  42.366  18.121  14.822
15996W        W77417   2.934  41.004  14.868
15997W        W77418  41.374   3.893   4.335
15998W        W77419  14.310  29.003   3.711
15999W        W77420  36.362  18.203   4.712
16000W        W77421  29.433  13.631   2.220
16001W        W77422   2.423   6.688  13.834
16002W        W77423  14.177  13.817  10.503
16003W        W77424  12.124   0.422  12.389
16004W        W77425  17.131   4.911  12.398
16005W        W77426  40.840  19.229   0.253
16006W        W77427  21.613  37.433  14.914
16007W        W77428  33.451   2.433   3.723
16008W        W77429  27.499  14.154  12.939
16009W        W77430   8.197   0.481   2.234
16010W        W77431  32.902  21.570   2.361
16011W        W77432  28.492   9.174  12.452
16012W        W77433  41.935   4.351   4.780
16013W        W77434  14.786  22.659   4.288
16014W        W77435   4.736  18.760   4.635
16015W        W77436  16.257   5.385   3.786
16016W        W77437  35.524  40.513  11.096
16017W        W77438  23.004  15.591   0.842
16018W        W77439  42.988  26.512  11.599
16019W        W77440  40.495   1.862   4.797
16020W        W77441  15.122  38.325   4.273
16021W        W77442  25.705   1.817  11.434
16022W        W77443   8.688  14.216  11.993
16023W        W77444  40.984  39.414   1.263
16024W        W77445  33.478  40.836   3.375
16025W        W77446  15.582  44.362   2.296
16026W        W77447  32.972  41.389  14.889
16027W        W77448  10.878  22.648   0.368
16028W        W77449   1.300   2.944  13.388
16029W        W77450  29.046  17.564  12.074
16030W        W77451   5.737  12.795  10.484
16031W        W77452  19.697  29.597  14.807
16032W        W77453  43.450  18.692  11.054
16033W        W77454  30.000  20.188   0.361
16034W        W77455  30.024  19.093  12.464
16035W        W77456   5.334  32.991  13.796
16036W        W77457  11.327  32.923  12.875
16037W        W77458   7.258  43.413  11.949
16038W        W77459   5.400  39.317   4.283
16039W        W77460   1.370  29.022  14.971
16040W        W77461  19.228  16.667  13.812
16041W        W77462  28.978  39.405   3.667
16042W        W77463  12.276  23.039   3.355
16043W        W77464  11.360  20.647  14.830
16044W        W77465  19.581  31.081  12.464
16045W        W77466  32.967  39.858   1.726
16046W        W77467  19.730  28.485   1.870
16047W        W77468  20.753  36.569  13.888
16048W        W77469  10.200  30.463   2.386
16049W        W77470  25.632   5.923  14.351
16050W        W77471  30.053  41.954   3.210
16051W        W77472  26.677   4.363   1.774
16052W        W77473  43.444   8.900  10.604
16053W        W77474  19.722   3.316   0.785
16054W        W77475  15.631  34.095  10.456
16055W        W77476  39.926  36.588  11.049
16056W        W77477  18.127  10.819  13.315
16057W        W77478  34.090  37.879  13.949
16058W        W77479  34.991  42.811  11.526
16059W        W77480  43.786  39.049   4.302
16060W        W77481  28.638   0.297   3.385
16061W        W77482  21.033  16.115   0.955
16062W        W77483  34.997  19.690   1.214
16063W        W77484  42.335  42.433   1.906
16064W        W77485  29.596   3.352   3.741
16065W        W77486   6.743  26.517   3.329
16066W        W77487   8.384  41.971   5.183
16067W        W77488  40.365  16.221  12.964
16068W        W77489  31.448  26.518   3.839
16069W        W77490  12.691   0.825  12.846
16070W        W77491  29.458  20.110  11.015
16071W        W77492  42.388  15.160   2.684
16072W        W77493   1.275  20.768  10.896
16073W        W77494   9.378   5.398  12.957
16074W        W77495   5.325  28.507   2.365
16075W        W77496  18.211   5.330  12.950
16076W        W77497   3.230  19.259   4.258
16077W        W77498  25.137   7.296   3.860
16078W        W77499  12.136  38.393   3.152
16079W        W77500   7.217  36.972   9.976
16080W        W77501  33.466   8.339   1.393
16081W        W77502  29.950   7.874   4.115
16082W        W77503  43.817   7.392   2.680
16083W        W77504  18.590  33.952  10.577
16084W        W77505   9.798   0.982   4.641
16085W        W77506  34.558  27.510  11.891
16086W        W77507  26.984   8.342   1.395
16087W        W77508  24.667  26.116   1.234
16088W        W77509  42.936  10.185   1.803
16089W        W77510  11.254  20.149  10.433
16090W        W77511  36.944  32.042   4.773
16091W        W77512  25.141  16.599   1.807
16092W        W77513  41.470  43.903   1.816
16093W        W77514  28.938  33.446   4.232
16094W        W77515  29.509  28.451   2.775
16095W        W77516  14.266  26.973   3.750
16096W        W77517   9.823  34.499  12.044
16097W        W77518  25.131  11.658  12.853
16098W        W77519  40.857  34.938   4.640
16099W        W77520   0.953  21.715  14.029
16100W        W77521  14.733  38.560  10.924
16101W        W77522  30.462   2.291  10.584
16102W        W77523  38.909   6.824  11.031
16103W        W77524   7.707  22.051   3.718
16104W        W77525  25.161   4.298   4.170
16105W        W77526  40.444  27.979   1.404
16106W        W77527  33.975  22.204  14.979
16107W        W77528  14.103  16.203   0.934
16108W        W77529  22.588  37.565   4.836
16109W        W77530  35.020  38.833  13.503
16110W        W77531  29.995  34.562  13.851
16111W        W77532  10.183   5.824  14.831
16112W        W77533   8.751  29.088   2.736
16113W        W77534   4.400  18.773   0.957
16114W        W77535  28.669   6.288  11.866
16115W        W77536  35.890  33.911  14.825
16116W        W77537  41.870  40.815   0.829
16117W        W77538  30.953   5.320   2.756
16118W        W77539  43.907  11.213   1.425
16119W        W77540  40.538  38.552   0.302
16120W        W77541  43.007  33.013  14.310
16121W        W77542   8.174  43.353   1.245
16122W        W77543  31.402   4.877  13.323
16123W        W77544  40.504  31.584  11.965
16124W        W77545  21.241  13.139   2.809
16125W        W77546  35.581   1.339  14.471
16126W        W77547  42.362  15.225   0.286
16127W        W77548  41.460  37.573   3.318
16128W        W77549  35.911   3.893  11.933
16129W        W77550  36.062  33.421  14.981
16130W        W77551  39.344  33.463   3.749
16131W        W77552  18.141   0.892   4.753
16132W        W77553  31.437  21.706  11.547
16133W        W77554   0.334  32.454  10.475
16134W        W77555  13.791  32.495   3.178
16135W        W77556   1.393   9.698  13.937
16136W        W77557   2.724  14.329  11.989
16137W        W77558  36.480   3.870  10.572
16138W        W77559  22.041  41.910   4.672
16139W        W77560  38.543   8.388  10.935
16140W        W77561   7.730   7.840  12.527
16141W        W77562  15.232  17.716   1.223
16142W        W77563  14.827  37.009   3.339
16143W        W77564  18.242   5.206   0.420
16144W        W77565  13.324  43.383   2.791
16145W        W77566  31.110   5.878  10.466
16146W        W77567  12.296  11.857   0.776
16147W        W77568   6.336  37.976   1.380
16148W        W77569  27.979  24.517  14.844
16149W        W77570  15.125  29.951   2.369
16150W        W77571  18.051   2.292   2.889
16151W        W77572  36.534  40.906  10.917
16152W        W77573   9.345  14.606   3.797
16153W        W77574   1.387   2.862  11.929
16154W        W77575  26.692   4.705   3.673
16155W        W77576  24.701  33.088   2.364
16156W        W77577  18.196  15.107   2.236
16157W        W77578  38.554  41.932   3.744
16158W        W77579  18.254  28.170  10.590
16159W        W77580  11.282  38.330   3.238
16160W        W77581  27.045  12.253  13.399
16161W        W77582   8.791   5.858  12.869
16162W        W77583  11.685  44.783   1.404
16163W        W77584  31.418  18.267   3.380
16164W        W77585  14.284  39.420  10.606
16165W        W77586  16.102  32.083  12.363
16166W        W77587  19.710   3.774   3.198
16167W        W77588  10.243  38.384  10.022
16168W        W77589  16.140  17.599   1.905
16169W        W77590  41.371  12.127  10.966
16170W        W77591  20.553  22.183  12.857
16171W        W77592   6.374   4.719  13.379
16172W        W77593  11.220  30.559   0.747
16173W        W77594  19.235   5.802  13.349
16174W        W77595   3.881  12.612  12.883
16175W        W77596  41.402  36.989  13.540
16176W        W77597  35.866   8.305   2.353
16177W        W77598   0.282  44.927   1.694
16178W        W77599   7.675  26.996   0.913
16179W        W77600   0.318   2.313   2.717
16180W        W77601  19.081   5.422  14.881
16181W        W77602   6.800  38.494   1.420
16182W        W77603  39.049  38.493  10.116
16183W        W77604  32.556  19.082   2.210
16184W        W77605   9.333  35.888  14.029
16185W        W77606  25.574  20.208  14.815
16186W        W77607  30.526   4.934   3.215
16187W        W77608  10.182   6.190   2.740
16188W        W77609  21.085  35.041  12.515
16189W        W77610  36.075  12.736  10.558
16190W        W77611   5.397  16.221   2.335
16191W        W77612   8.820   5.855   0.947
16192W        W77613  42.991   5.857  12.401
16193W        W77614   2.384   9.369   2.839
16194W        W77615   3.353   0.967   5.126
16195W        W77616  14.228  40.887  13.002
16196W        W77617  32.637   1.836  10.467
16197W        W77618  28.949  39.444   2.824
16198W        W77619  29.165  41.433  10.498
16199W        W77620  43.927  25.678  14.836
16200W        W77621  34.941  41.305   3.236
16201W        W77622  18.672  26.122  11.442
16202W        W77623   9.695   2.812   2.237
16203W        W77624  42.863   0.355  12.909
16204W        W77625  18.140  42.920  12.382
16205W        W77626  28.989   7.183  14.963
16206W        W77627  42.472  32.959  10.410
16207W        W77628   6.778  33.013  13.545
16208W        W77629   2.287  17.134  14.485
16209W        W77630  32.953  35.451   3.375
16210W        W77631  34.898  28.539   2.299
16211W        W77632  39.821   6.378   3.199
16212W        W77633  43.425  44.810  11.962
16213W        W77634  18.282  29.624  14.474
16214W        W77635  11.147  19.098   0.245
16215W        W77636  30.479  32.454  11.413
16216W        W77637  23.200   3.752  10.028
16217W        W77638  18.076   1.436  13.803
16218W        W77639  16.566  31.615  13.889
16219W        W77640  34.868  37.494   9.994
16220W        W77641  34.423  32.549  13.881
16221W        W77642  11.195  41.438  13.023
16222W        W77643  25.653  36.910  11.433
16223W        W77644  32.062  31.943  11.430
16224W        W77645   7.900  15.683   0.896
16225W        W77646  38.556  13.237   3.387
16226W        W77647   5.282   0.485  14.764
16227W        W77648  42.364  29.057  10.485
16228W        W77649  23.647  16.215   2.343
16229W        W77650  31.904  16.762   1.210
16230W        W77651  23.104  31.594  12.471
16231W        W77652  31.484  28.175  13.486
16232W        W77653  43.018  40.911  14.829
16233W        W77654  40.984  20.736  14.514
16234W        W77655  28.965  34.090   0.891
16235W        W77656  44.356  12.645   0.417
16236W        W77657  34.436  28.667   3.345
16237W        W77658   5.311  20.109  13.859
16238W        W77659  11.220  28.132   4.243
16239W        W77660  42.504   4.845  14.980
16240W        W77661  19.667  43.942  11.972
16241W        W77662  25.522  21.184   0.850
16242W        W77663   4.304   0.981  14.972
16243W        W77664  41.311  43.485  10.947
16244W        W77665  14.305   2.423   4.829
16245W        W77666  25.208  30.525   2.756
16246W        W77667  15.274  19.557  10.956
16247W        W77668  17.282  12.296   3.213
16248W        W77669   7.791  22.127   1.261
16249W        W77670  26.182   2.942  12.063
16250W        W77671  26.156  40.807  12.546
16251W        W77672  36.485  42.831  11.579
16252W        W77673  40.812  23.099  14.368
16253W        W77674  18.656  25.513   4.168
16254W        W77675  25.113  32.409   1.843
16255W        W77676  36.083  38.332  14.357
16256W        W77677   1.771   6.853   1.353
16257W        W77678  25.586  36.926   3.164
16258W        W77679  15.733  13.313   2.803
16259W        W77680  14.811  43.903   1.811
16260W        W77681  11.825  10.187  12.921
16261W        W77682  17.737   8.276   3.297
16262W        W77683  40.966  33.501   4.831
16263W        W77684  11.339  29.530  14.425
16264W        W77685  40.848   2.740  12.561
16265W        W77686   8.347   1.454   2.886
16266W        W77687  41.314  12.130   3.217
16267W        W77688  13.331   2.334  12.425
16268W        W77689  25.103   3.348   3.279
16269W        W77690  14.129  35.480  11.068
16270W        W77691  31.580  17.671  14.279
16271W        W77692  29.550  24.154  12.990
16272W        W77693  10.710  19.099   1.796
16273W        W77694   7.299   2.858  10.614
16274W        W77695  37.837   7.345   1.221
16275W        W77696   0.771  43.387   2.264
16276W        W77697  11.226   8.749   3.222
16277W        W77698  20.208  25.492  11.122
16278W        W77699  43.877  35.995   0.312
16279W        W77700  44.832  11.196  13.513
16280W        W77701  43.874  36.998   4.132
16281W        W77702   2.828  33.405  14.297
16282W        W77703  38.007  24.998  12.366
16283W        W77704   6.841  36.080   0.789
16284W        W77705  36.364  17.186   4.626
16285W        W77706   3.788   2.883  12.454
16286W        W77707  27.049   7.252  12.942
16287W        W77708  21.558  26.035  14.761
16288W        W77709  38.525   3.739   3.201
16289W        W77710  13.824  43.368  14.871
16290W        W77711  22.645   8.316   2.837
16291W        W77712  25.561   6.263   4.754
16292W        W77713  41.418  38.888  10.597
16293W        W77714   4.923  40.804  14.982
16294W        W77715  30.013  31.565   0.434
16295W        W77716  21.156  13.641  13.917
16296W        W77717  20.747  21.755   1.737
16297W        W77718  40.799   9.200   0.331
16298W        W77719  22.701  35.979   2.255
16299W        W77720  44.920  15.812   2.850
16300W        W77721   5.896  31.045   4.282
16301W        W77722   2.391  22.191   2.231
16302W        W77723  10.179  35.481   2.322
16303W        W77724  16.145   5.351   2.378
16304W        W77725  13.735  24.648  10.912
16305W        W77726  10.678  42.879   2.749
16306W        W77727  19.096  30.004  11.003
16307W        W77728  19.067  13.262   4.220
16308W        W77729  42.527   4.759  13.900
16309W        W77730  35.901  15.102  11.518
16310W        W77731  40.423  44.867   0.927
16311W        W77732  19.250  12.218  10.617
16312W        W77733  23.613   0.309   0.958
16313W        W77734  28.063   3.412  10.529
16314W        W77735  12.731  14.203   3.172
16315W        W77736  12.668   4.325   3.330
16316W        W77737  35.033  32.570  14.993
16317W        W77738  33.929  17.661   2.671
16318W        W77739  30.545  30.142   0.950
16319W        W77740  16.259  44.266  12.572
16320W        W77741  32.612  34.080  14.328
16321W        W77742  42.944  37.874  12.361
16322W        W77743  18.091  37.922  11.055
16323W        W77744  16.096  25.088  11.540
16324W        W77745  36.097  37.969  13.975
16325W        W77746  36.400  33.988   2.260
16326W        W77747  29.929  42.969   1.238
16327W        W77748  22.082  42.848   1.390
16328W        W77749  23.164   3.378  11.471
16329W        W77750  13.710  38.365   4.159
16330W        W77751  10.807  22.049   1.405
16331W        W77752  37.919  34.529   4.202
16332W        W77753   5.720  20.056   0.800
16333W        W77754   8.794   0.330   2.714
16334W        W77755   5.354  17.605   2.691
16335W        W77756  24.581   5.720   5.678
16336W        W77757  41.977  18.130   4.741
16337W        W77758  13.344  23.126   4.322
16338W        W77759  33.505  23.109   2.249
16339W        W77760  25.516   2.924  11.466
16340W        W77761   1.479  18.643  10.423
16341W        W77762  39.864   0.827  13.507
16342W        W77763  14.737   6.227  11.999
16343W        W77764  19.139   1.256  10.474
16344W        W77765  39.476   2.346  14.461
16345W        W77766  18.265  42.033  12.408
16346W        W77767  11.691  29.548  11.399
16347W        W77768  34.049  31.918   0.766
16348W        W77769  18.602  29.978   1.852
16349W        W77770   9.645  44.872   3.666
16350W        W77771  25.523  34.370   1.780
16351W        W77772  18.594  27.514   2.690
16352W        W77773  22.612   1.949  10.135
16353W        W77774   8.852  35.379  13.863
16354W        W77775  15.711  29.471  12.372
16355W        W77776  35.396  37.426   3.793
16356W        W77777  43.935   1.953   4.777
16357W        W77778  34.372  23.179  11.559
16358W        W77779  22.647  20.194  13.440
16359W        W77780  44.959  20.700  14.362
16360W        W77781  19.682   4.910  10.083
16361W        W77782  12.655  44.328   4.113
16362W        W77783  12.325  14.313   3.661
16363W        W77784  42.021   7.712  10.414
16364W        W77785  19.255  29.153   2.879
16365W        W77786   1.908  36.577  10.635
16366W        W77787  18.084  21.038  12.995
16367W        W77788  15.713  44.806  14.341
16368W        W77789   7.340  40.810  13.499
16369W        W77790  37.031  22.605   0.352
16370W        W77791  17.722  43.456   2.678
16371W        W77792  21.655  13.285   3.698
16372W        W77793   7.805  10.797   0.751
16373W        W77794  12.119  39.001   1.442
16374W        W77795  37.383  28.447  14.364
16375W        W77796  16.594  36.034   1.720
16376W        W77797  15.759   8.181  13.994
16377W        W77798   4.353   4.240   1.267
16378W        W77799  24.119  31.953  13.868
16379W        W77800  13.797  19.619  13.058
16380W        W77801  36.484  18.735   4.749
16381W        W77802   4.311  16.185  13.335
16382W        W77803   6.868  18.159   1.451
16383W        W77804  18.666  10.673  14.476
16384W        W77805  31.135   3.716   5.591
16385W        W77806  17.758   1.965   1.400
16386W        W77807  19.235  41.910   2.869
16387W        W77808  37.021  28.977  11.018
16388W        W77809  13.227   1.419   4.740
16389W        W77810  39.819  29.509  12.032
16390W        W77811  31.143   0.856   1.315
16391W        W77812   9.701  30.127   4.120
16392W        W77813  21.158  30.979   2.857
16393W        W77814  21.180  23.059   1.713
16394W        W77815  17.161  24.086  14.775
16395W        W77816  39.348  15.285  11.917
16396W        W77817  12.190  28.606  14.287
16397W        W77818  18.090  11.136   5.107
16398W        W77819  43.422  13.271   4.217
16399W        W77820  37.538  35.082   3.852
16400W        W77821  43.993   0.290   0.877
16401W        W77822  34.592  16.117   0.889
16402W        W77823  25.166   6.294  14.797
16403W        W77824  16.731  35.940  12.514
16404W        W77825   0.293  30.962   5.261
16405W        W77826  20.730   8.323  10.542
16406W        W77827  37.034  16.110   1.255
16407W        W77828  36.064  22.222  13.916
16408W        W77829  33.899   6.679  14.355
16409W        W77830   6.380  43.821   4.116
16410W        W77831  27.000   0.769   2.864
16411W        W77832  31.095   3.375   1.428
16412W        W77833  31.121   3.715   9.667
16413W        W77834  24.974  40.974  12.839
16414W        W77835   0.372  33.054  11.038
16415W        W77836  37.075  19.643   5.258
16416W        W77837  18.260  34.550  12.027
16417W        W77838  18.558   4.282   0.814
16418W        W77839  41.374  30.591  14.295
16419W        W77840  17.181  42.918  13.440
16420W        W77841  31.992  18.665  14.927
16421W        W77842  22.640  44.988   2.694
16422W        W77843  38.394  16.229  14.510
16423W        W77844  26.135  40.939   0.421
16424W        W77845   8.390  19.666  12.077
16425W        W77846  33.974  26.033  13.357
16426W        W77847  26.155  39.454   1.934
16427W        W77848  39.035  32.101  11.539
16428W        W77849  15.281  26.549  13.818
16429W        W77850   2.468   7.797  12.546
16430W        W77851  26.086   3.923  14.366
16431W        W77852  20.675  26.659   0.734
16432W        W77853  40.527  15.746   5.750
16433W        W77854  23.138  35.877  10.552
16434W        W77855  39.856  28.011   4.795
16435W        W77856   9.680  23.641  14.316
16436W        W77857  32.020  16.671  13.336
16437W        W77858  31.569  42.410  12.521
16438W        W77859  42.778  28.035   0.925
16439W        W77860  32.510  42.961  12.523
16440W        W77861  30.124  42.942  10.448
16441W        W77862  35.934   6.781  11.439
16442W        W77863   7.832  42.817   3.632
16443W        W77864  39.993  41.865  13.808
16444W        W77865  21.139  24.569  14.488
16445W        W77866   8.717  42.417  14.305
16446W        W77867  23.153  39.856  11.989
16447W        W77868  43.475  27.658   1.794
16448W        W77869  16.301  22.250  12.030
16449W        W77870  16.745  25.616   1.860
16450W        W77871   3.940   8.807   1.708
16451W        W77872  35.407  36.000   1.388
16452W        W77873  41.389   9.735  11.939
16453W        W77874  27.602  43.341  11.568
16454W        W77875   1.737  43.803   4.769
16455W        W77876  38.419  19.044  11.874
16456W        W77877  11.310   1.322  10.996
16457W        W77878  25.668  17.698  14.955
16458W        W77879  12.274  37.445   0.282
16459W        W77880  27.480  22.061  12.449
16460W        W77881  18.549  25.600   3.300
16461W        W77882  21.706  32.058  11.448
16462W        W77883   9.337  41.829   2.712
16463W        W77884  36.087  28.648   1.351
16464W        W77885  28.618  40.447   9.968
16465W        W77886  25.207  31.639  13.934
16466W        W77887  36.493  19.078  12.494
16467W        W77888  17.593  26.161  11.386
16468W        W77889  36.389  38.915  14.461
16469W        W77890  43.781  13.810  14.826
16470W        W77891  18.287  13.119   1.301
16471W        W77892  10.792  15.748  11.928
16472W        W77893  19.100  18.634  10.901
16473W        W77894  43.928  25.122   0.737
16474W        W77895  37.868   0.416   3.716
16475W        W77896  19.055  42.962  10.513
16476W        W77897  15.146  38.860  11.066
16477W        W77898  28.579   1.942  10.483
16478W        W77899  32.138  26.463  10.004
16479W        W77900   1.882  31.079  10.999
16480W        W77901  16.804  40.822   1.211
16481W        W77902   5.194  44.807  10.927
16482W        W77903  27.086  37.001   2.712
16483W        W77904   1.315  14.258  11.122
16484W        W77905   0.479  40.961  13.311
16485W        W77906  35.592   3.756   0.869
16486W        W77907  32.481   4.381   4.835
16487W        W77908  40.544  14.762  14.319
16488W        W77909  41.412  33.975  10.484
16489W        W77910  41.825   0.470  13.460
16490W        W77911  29.053  33.115   4.613
16491W        W77912  26.686   5.355   0.423
16492W        W77913  19.268  12.356   0.958
16493W        W77914   0.802  18.552   3.314
16494W        W77915  18.763  41.537  11.861
16495W        W77916   4.280  37.035  12.517
16496W        W77917  30.437   6.309   4.682
16497W        W77918  38.897  38.479  14.335
16498W        W77919  22.059   1.797  14.799
16499W        W77920  27.941  26.142  10.919
16500W        W77921  20.624  26.144   1.777
16501W        W77922  43.353   0.971  11.552
16502W        W77923  37.351   1.816  14.883
16503W        W77924  12.849  37.339   3.639
16504W        W77925  20.072   3.847  14.789
16505W        W77926  26.530   6.289   0.274
16506W        W77927  14.756  23.536  12.952
16507W        W77928  11.184   9.872  13.904
16508W        W77929  42.488  16.667  10.161
16509W        W77930  12.783  39.555  11.412
16510W        W77931  19.266  11.298   4.819
16511W        W77932  25.634  12.218   1.710
16512W        W77933  33.564  43.437  12.371
16513W        W77934  24.146  39.003  11.087
16514W        W77935  31.999  34.601   0.856
16515W        W77936  44.458  21.165   3.864
16516W        W77937  32.515  24.142   1.847
16517W        W77938  34.027  33.120   2.852
16518W        W77939  21.042  44.999  14.769
16519W        W77940   0.261  11.281   2.205
16520W        W77941  44.794  13.697  13.823
16521W        W77942  35.025  40.859   2.191
16522W        W77943  31.571   1.943  13.024
16523W        W77944  22.602   2.925  14.811
16524W        W77945  24.217  33.389   4.153
16525W        W77946  31.140  44.973   0.359
16526W        W77947   7.698   9.678   0.862
16527W        W77948  38.976  28.482  13.990
16528W        W77949  26.517  40.326  11.443
16529W        W77950  24.008   4.747  12.441
16530W        W77951   5.828  28.590   2.781
16531W        W77952  22.137   8.802   3.166
16532W        W77953  41.536  35.981   4.723
16533W        W77954  20.032  42.993  14.849
16534W        W77955  21.541  33.436  10.086
16535W        W77956  31.057  24.077  10.494
16536W        W77957  25.525  10.832  12.514
16537W        W77958  21.632  18.722   4.128
16538W        W77959  19.216   3.924   0.308
16539W        W77960  28.655  20.578  11.889
16540W        W77961  38.328  33.880   2.338
16541W        W77962   8.784  19.600   1.731
16542W        W77963  15.711  21.618   0.761
16543W        W77964   0.439   1.757  13.442
16544W        W77965   2.779  21.525  13.526
16545W        W77966  18.699  29.937  11.402
16546W        W77967  34.497   4.317  10.954
16547W        W77968  35.098  15.704   5.309
16548W        W77969  20.138   9.199  14.827
16549W        W77970  23.074  44.958  11.021
16550W        W77971  30.532  29.451  10.461
16551W        W77972   0.799  16.806  11.461
16552W        W77973  16.695  19.283  13.052
16553W        W77974  21.707  41.360  10.563
16554W        W77975  25.617  17.244   4.198
16555W        W77976   1.376   9.882   0.942
16556W        W77977   3.441  43.804   9.967
16557W        W77978  27.133  43.357  12.035
16558W        W77979  14.295  35.931  14.768
16559W        W77980  42.992  20.550   0.386
16560W        W77981  37.870  40.051  11.506
16561W        W77982  43.011   0.358  13.979
16562W        W77983   9.785  37.936  11.919
16563W        W77984  35.383  23.153  14.475
16564W        W77985  23.041  28.185   4.634
16565W        W77986  16.288  16.313  12.947
16566W        W77987  15.302  14.233  11.046
16567W        W77988  30.459  43.309   2.878
16568W        W77989   1.808  15.754  14.436
16569W        W77990  12.157  35.455   3.816
16570W        W77991  16.281  18.141   3.146
16571W        W77992  11.857  42.375  11.896
16572W        W77993  25.467  37.470  11.516
16573W        W77994  15.799  14.642   4.280
16574W        W77995  19.169  34.026   4.199
16575W        W77996  14.234  44.767   3.831
16576W        W77997   4.705  15.328   1.428
16577W        W77998  21.214  18.614   1.752
16578W        W77999  23.099  16.304   3.720
16579W        W78000  21.758  22.503   3.317
16580W        W78001  18.564  29.453  11.499
16581W        W78002   2.910  33.611  11.576
16582W        W78003   3.285  39.847  14.872
16583W        W78004   2.428  13.230   2.211
16584W        W78005   6.745  34.613   4.642
16585W        W78006  21.650  33.000  10.425
16586W        W78007  44.293  11.707   2.350
16587W        W78008  12.814  22.508   4.697
16588W        W78009   4.280  16.650   1.312
16589W        W78010   1.260  26.092   9.579
16590W        W78011   3.221   4.763  13.844
16591W        W78012  43.469   2.465   4.260
16592W        W78013  34.062  42.872  10.639
16593W        W78014   2.819   9.812  11.453
16594W        W78015  30.471  42.407  13.953
16595W        W78016  16.160  33.093  14.821
16596W        W78017  16.157  40.804  14.430
16597W        W78018  18.620  24.119   1.235
16598W        W78019  44.400  29.584   2.750
16599W        W78020   7.262  22.212   2.347
16600W        W78021  32.633  30.989   1.221
16601W        W78022  18.239   4.868   4.196
16602W        W78023  16.687  35.413  11.909
16603W        W78024   5.361  19.110  14.861
16604W        W78025  17.691  44.354  11.556
16605W        W78026  31.643  32.894  11.016
16606W        W78027  24.184   6.684   2.822
16607W        W78028  38.935  29.140  11.434
16608W        W78029   1.851  12.663  11.372
16609W        W78030  38.374   9.759  10.563
16610W        W78031   3.277   4.293  10.570
16611W        W78032  16.743  11.193   1.226
16612W        W78033   2.234   3.916   0.267
16613W        W78034   4.925  19.658   3.252
16614W        W78035  14.636  30.033  12.966
16615W        W78036   3.795  20.055   0.786
16616W        W78037   5.304  39.015   1.382
16617W        W78038   1.895  24.059  11.010
16618W        W78039  30.426  35.984  12.934
16619W        W78040  19.145  23.704  11.960
16620W        W78041  44.378  25.128   3.256
16621W        W78042   5.219  31.906  11.969
16622W        W78043   4.221  19.708   3.732
16623W        W78044  33.463  32.478   4.643
16624W        W78045  11.865  34.516   3.239
16625W        W78046  14.255  27.510  13.340
16626W        W78047  24.225  22.103   2.682
16627W        W78048  18.133  43.837   3.821
16628W        W78049   5.202  24.611  14.805
16629W        W78050   6.711   0.421   2.690
16630W        W78051  41.955  43.354   1.245
16631W        W78052   9.756  17.752  13.820
16632W        W78053  13.686   4.834  14.359
16633W        W78054   5.273  30.426   3.207
16634W        W78055   5.931  12.853   1.292
16635W        W78056  13.181  10.220  14.924
16636W        W78057  17.715  24.065  12.395
16637W        W78058  19.659   3.921   4.243
16638W        W78059  24.061  44.854   2.841
16639W        W78060  32.531  24.084  14.387
16640W        W78061  17.587  12.358   4.287
16641W        W78062  11.850  40.417   3.244
16642W        W78063  24.614   4.910  13.518
16643W        W78064  27.490  25.074  11.534
16644W        W78065   6.905  11.645  13.021
16645W        W78066  24.094  13.194  11.969
16646W        W78067   3.856  37.573   4.164
16647W        W78068   3.291   5.412   4.814
16648W        W78069  34.592  39.951  13.904
16649W        W78070  16.292  18.110   3.855
16650W        W78071  17.596   2.368   4.122
16651W        W78072   9.383  34.874  11.598
16652W        W78073   6.410  25.636  13.393
16653W        W78074   6.835   5.924   4.622
16654W        W78075  44.770   6.833  14.964
16655W        W78076  25.019  27.176  12.422
16656W        W78077  22.656   5.320   5.216
16657W        W78078  30.073  43.935   0.910
16658W        W78079  27.547  42.017  11.001
16659W        W78080  38.942   5.300   0.749
16660W        W78081   3.326  11.779  13.441
16661W        W78082   1.770   6.858  12.066
16662W        W78083   6.387  21.105  13.534
16663W        W78084   6.307  25.668   3.358
16664W        W78085  16.201   2.426   4.243
16665W        W78086   8.350  40.818   5.093
16666W        W78087  14.662  32.459  10.939
16667W        W78088  44.871  12.637  14.987
16668W        W78089  38.330  21.549  11.060
16669W        W78090  19.211  43.498   3.331
16670W        W78091   4.306  17.251  11.869
16671W        W78092  37.356   4.818  14.877
16672W        W78093  22.500  27.970   4.839
16673W        W78094  24.707   2.742  12.980
16674W        W78095   0.275  44.407  11.973
16675W        W78096  21.670  35.885   1.909
16676W        W78097  36.572  22.023   2.739
16677W        W78098  19.632  35.432   0.943
16678W        W78099  22.602  32.003   5.162
16679W        W78100  19.733  36.034   0.765
16680W        W78101  18.720  32.922   3.657
16681W        W78102   2.748  33.998   2.767
16682W        W78103  33.941  33.528  14.783
16683W        W78104  12.116  40.889   3.688
16684W        W78105  25.215  43.929   0.370
16685W        W78106   1.964   5.422  12.841
16686W        W78107  27.497   6.868   3.318
16687W        W78108   1.797  34.973  14.001
16688W        W78109  15.192   5.332  14.877
16689W        W78110  16.309  23.141  14.331
16690W        W78111  10.806   4.723   2.198
16691W        W78112  33.964  27.027  13.988
16692W        W78113  41.911  34.987  14.428
16693W        W78114  41.524   1.304  14.334
16694W        W78115  27.571   5.334   3.328
16695W        W78116  15.095   7.753   1.925
16696W        W78117  35.358   9.753  14.885
16697W        W78118  40.924  44.757   0.793
16698W        W78119  40.052  10.157  13.349
16699W        W78120   7.676  43.476  11.865
16700W        W78121  15.300  13.622  13.888
16701W        W78122   9.799  15.186  10.982
16702W        W78123  28.642  35.370   4.350
16703W        W78124  33.022  39.841  14.468
16704W        W78125   4.715  16.258   4.335
16705W        W78126  19.059  23.606  11.442
16706W        W78127  33.416  31.587   1.741
16707W        W78128  24.978  20.190  11.094
16708W        W78129  30.594  12.164  14.878
16709W        W78130  20.650  25.620  12.095
16710W        W78131  26.118  34.585   0.481
16711W        W78132  30.146  41.381  14.399
16712W        W78133  39.467  15.287   1.450
16713W        W78134   1.931  24.699  11.928
16714W        W78135  38.998   8.821  11.396
16715W        W78136  20.058  10.259   2.888
16716W        W78137  20.528  31.588  11.021
16717W        W78138  35.523  11.303  10.445
16718W        W78139   7.255   9.801  14.417
16719W        W78140  42.022  12.775   5.310
16720W        W78141   0.988  10.152  13.953
16721W        W78142  25.078  44.828  11.422
16722W        W78143   5.405  21.579   0.740
16723W        W78144   1.873  26.123  10.016
16724W        W78145   3.871   7.676  12.466
16725W        W78146  26.634  27.135  11.587
16726W        W78147  36.908  25.554  11.387
16727W        W78148   8.695  26.173  14.325
16728W        W78149  32.984   4.873  13.995
16729W        W78150  39.061  36.912   4.211
16730W        W78151  38.528  10.779  13.404
16731W        W78152  42.295  43.293  10.633
16732W        W78153  31.138  34.512   4.352
16733W        W78154  44.326  10.753   3.242
16734W        W78155  32.414   8.372   1.420
16735W        W78156  12.259   4.934  12.011
16736W        W78157  15.223  44.908  12.975
16737W        W78158   4.905  36.846   1.697
16738W        W78159  36.024  10.764   3.640
16739W        W78160  34.023  21.714   4.666
16740W        W78161  32.398  27.564  12.450
16741W        W78162  24.179  15.168  11.590
16742W        W78163  14.142  43.004   0.867
16743W        W78164  11.362  13.145   0.836
16744W        W78165  27.991  29.491  13.547
16745W        W78166  35.943  15.802   3.235
16746W        W78167   5.321  33.400   0.868
16747W        W78168  10.232   9.775   3.783
16748W        W78169   3.347  31.143   2.321
16749W        W78170   2.884  37.980   2.733
16750W        W78171  22.515   6.359  12.541
16751W        W78172  22.708   1.359  12.457
16752W        W78173   8.718  25.118   2.321
16753W        W78174  20.649   7.858  14.002
16754W        W78175  14.167  33.564   1.303
16755W        W78176  44.291  44.828   1.823
16756W        W78177  40.988  41.825   3.665
16757W        W78178  24.013  41.919  14.019
16758W        W78179  34.498  28.997  11.062
16759W        W78180  20.638  27.968  11.437
16760W        W78181  29.048  37.979   0.362
16761W        W78182  17.793  23.695  10.516
16762W        W78183  11.313  44.943   3.665
16763W        W78184  38.373  15.707   2.693
16764W        W78185  29.526  12.721   1.746
16765W        W78186   1.842  15.305   4.183
16766W        W78187  15.315  42.817  14.894
16767W        W78188   3.794  31.438   0.924
16768W        W78189  27.520  35.023  14.513
16769W        W78190  25.578  43.923   2.342
16770W        W78191   9.816  13.780  12.083
16771W        W78192  12.120  37.530   3.289
16772W        W78193   2.322  29.631   4.303
16773W        W78194  31.578  17.242   5.188
16774W        W78195   2.936  11.351  10.473
16775W        W78196  19.662  39.354  11.548
16776W        W78197  29.663   4.389   0.274
16777W        W78198   3.845  31.053   4.821
16778W        W78199  17.304   6.738  14.939
16779W        W78200  16.573  36.420   0.869
16780W        W78201  42.430   8.230  14.905
16781W        W78202   1.363  31.138   3.720
16782W        W78203  22.540  43.916   1.243
16783W        W78204   3.379  34.972   5.210
16784W        W78205   0.977  38.416   0.435
16785W        W78206  15.738  24.558   3.759
16786W        W78207  29.540  36.060  14.840
16787W        W78208  40.407   0.850  11.586
16788W        W78209   6.866  18.683   3.207
16789W        W78210  31.974   8.760   0.923
16790W        W78211  30.907  30.985  13.480
16791W        W78212  40.388  13.682   4.652
16792W        W78213  37.952   5.890   3.227
16793W        W78214  10.849  40.543   0.344
16794W        W78215   5.825  21.677  12.835
16795W        W78216  42.465  11.809  13.813
16796W        W78217  42.350  31.553  13.541
16797W        W78218  38.064   2.329  11.877
16798W        W78219   6.865  42.987  13.532
16799W        W78220  32.042  36.355   4.653
16800W        W78221   6.921  40.958   1.259
16801W        W78222  14.338  19.669  14.291
16802W        W78223  10.634   0.433   0.758
16803W        W78224   1.418  29.439   2.758
16804W        W78225  21.212  20.062   2.768
16805W        W78226  36.915   3.734   4.699
16806W        W78227  38.931  10.866  12.533
16807W        W78228   0.819  35.541  14.958
16808W        W78229  30.051  35.423   4.717
16809W        W78230  28.074  17.242  13.968
16810W        W78231   3.254  14.626   1.835
16811W        W78232  18.677  30.528  11.505
16812W        W78233  28.011  18.715  11.456
16813W        W78234  36.429  35.536  11.105
16814W        W78235  28.522  37.564   2.707
16815W        W78236   8.844  31.928   0.248
16816W        W78237  35.075  14.205   2.743
16817W        W78238  25.517   8.264   1.266
16818W        W78239  16.244  37.560  11.878
16819W        W78240  37.347  27.151   3.383
16820W        W78241   5.711  22.064  13.472
16821W        W78242  28.018  12.315  11.587
16822W        W78243  11.341   7.828   2.217
16823W        W78244  24.021  15.582  14.029
16824W        W78245  27.653  19.660   2.812
16825W        W78246  25.073  35.526   4.126
16826W        W78247  43.890  30.064   3.334
16827W        W78248   4.359  12.237  11.412
16828W        W78249  32.612   5.296  12.076
16829W        W78250  29.930  22.673   0.950
16830W        W78251  22.651   7.710   5.590
16831W        W78252  33.955   2.750   0.927
16832W        W78253  14.678  33.121  14.886
16833W        W78254  23.990  19.118   1.824
16834W        W78255  24.111  12.845   4.125
16835W        W78256   5.327  40.921   2.692
16836W        W78257  26.489  38.856  13.404
16837W        W78258   3.324  12.700   1.698
16838W        W78259  36.476  14.665  11.878
16839W        W78260  41.490   8.219  13.476
16840W        W78261  13.189  30.423   0.297
16841W        W78262  22.601  29.104   1.274
16842W        W78263   2.233  30.658  11.490
16843W        W78264   1.885  16.202  12.536
16844W        W78265  25.700  18.163   5.135
16845W        W78266   3.374  31.048   1.372
16846W        W78267  20.745  33.544   3.201
16847W        W78268  26.575   9.279   1.451
16848W        W78269  11.148  31.109   2.677
16849W        W78270  25.125  33.989  13.007
16850W        W78271   6.704  21.120   3.203
16851W        W78272   6.758  34.447  10.633
16852W        W78273  44.861  22.183   2.878
16853W        W78274  29.523  13.628   3.158
16854W        W78275  24.650  26.487  12.573
16855W        W78276  30.916  25.206  11.456
16856W        W78277  26.703   6.735  11.859
16857W        W78278   8.759   5.775  11.495
16858W        W78279  28.111   0.830   1.708
16859W        W78280  43.477  38.072   3.372
16860W        W78281  27.493  21.580   4.727
16861W        W78282  41.964  31.960   4.213
16862W        W78283  31.506  41.789  12.423
16863W        W78284  14.158  20.139   4.753
16864W        W78285   0.845  14.717  14.894
16865W        W78286  17.588  10.366   1.860
16866W        W78287   1.858  11.764   2.842
16867W        W78288   4.266  24.194   5.732
16868W        W78289  34.100  12.842  10.892
16869W        W78290  30.496  28.503  13.332
16870W        W78291  14.111   4.750   1.326
16871W        W78292   2.746  36.364   0.345
16872W        W78293  21.205  31.416   5.295
16873W        W78294  15.738  25.591  13.981
16874W        W78295   3.254  16.093   1.229
16875W        W78296   5.342   5.874   2.728
16876W        W78297  24.486  26.628  11.895
16877W        W78298   0.911  38.856  14.920
16878W        W78299  34.482  35.581  13.432
16879W        W78300  22.589   9.300   3.657
16880W        W78301  24.724  31.448  11.889
16881W        W78302  26.059  42.394   4.683
16882W        W78303  32.116  39.504  13.401
16883W        W78304  27.475  35.024   4.305
16884W        W78305  24.979   7.776   0.288
16885W        W78306  42.374  30.949  13.356
16886W        W78307  42.825   9.812   1.798
16887W        W78308  28.457   3.740  14.900
16888W        W78309   0.405  41.868   1.253
16889W        W78310  13.349   0.791  13.004
16890W        W78311   4.853  35.417   0.963
16891W        W78312  13.832   5.887   2.265
16892W        W78313   2.746  17.242  12.929
16893W        W78314  11.822  39.931   0.436
16894W        W78315  16.162  39.859   0.869
16895W        W78316   6.302  14.216  13.415
16896W        W78317  36.529  27.643   1.789
16897W        W78318   1.733  27.503  14.408
16898W        W78319  10.851  43.297   4.748
16899W        W78320  14.769   3.929   0.940
16900W        W78321  17.233   9.889  11.480
16901W        W78322  22.204  28.584  14.976
16902W        W78323  10.676  21.703   4.838
16903W        W78324   8.849  11.275   1.822
16904W        W78325  26.625   9.246   2.259
16905W        W78326  22.014   0.418  13.407
16906W        W78327  44.349  32.486   0.466
16907W        W78328   5.384  24.507   3.264
16908W        W78329  30.481  26.975   3.646
16909W        W78330   3.311  23.071   4.268
16910W        W78331  22.036  15.684  13.837
16911W        W78332   8.711  22.564  10.635
16912W        W78333   9.705   6.764  13.990
16913W        W78334  22.139  36.898  13.384
16914W        W78335  15.116  20.526   1.782
16915W        W78336  26.468  43.387  13.936
16916W        W78337   2.456  15.794   5.319
16917W        W78338  20.129  31.021   3.642
16918W        W78339   6.267  23.206   2.354
16919W        W78340   4.822  38.523   2.212
16920W        W78341  11.735   3.793   1.222
16921W        W78342  31.078  29.655   0.455
16922W        W78343  12.780  28.014   2.744
16923W        W78344  19.242  21.521   2.310
16924W        W78345   2.291  18.766   0.420
16925W        W78346  40.996  17.162  13.516
16926W        W78347  21.186   9.656  12.863
16927W        W78348  32.021  42.424   0.876
16928W        W78349  19.573  39.411  13.483
16929W        W78350  31.053  28.040  12.898
16930W        W78351  34.920  33.439   3.284
16931W        W78352  17.755   0.943   4.248
16932W        W78353  31.506   6.891   0.745
16933W        W78354   4.367   2.861   2.232
16934W        W78355  35.437  32.431   2.727
16935W        W78356  22.203  37.899  12.961
16936W        W78357  25.702   2.471   0.429
16937W        W78358  29.040  40.513  12.046
16938W        W78359  34.565  28.181   4.744
16939W        W78360  43.955  41.314  14.999
16940W        W78361   9.835  16.288  14.508
16941W        W78362  23.026  28.037   3.252
16942W        W78363  39.864  25.219  14.383
16943W        W78364  16.599  18.737  11.115
16944W        W78365   9.754  32.428   1.738
16945W        W78366  23.175  19.550  13.790
16946W        W78367  33.523   0.404  10.027
16947W        W78368  33.426  30.606   4.170
16948W        W78369  38.429  15.679  10.444
16949W        W78370  25.084   7.790  11.391
16950W        W78371  35.059  24.693   4.116
16951W        W78372  29.126  42.359   1.696
16952W        W78373  35.951   9.778  14.328
16953W        W78374  34.884   1.912   3.312
16954W        W78375  32.532  42.782   4.179
16955W        W78376  11.372  15.775   4.177
16956W        W78377  37.419   4.768   3.317
16957W        W78378  38.866  24.976   0.312
16958W        W78379  12.843   0.315  12.360
16959W        W78380  30.091  20.115  13.899
16960W        W78381  20.547  28.159   2.843
16961W        W78382   1.954  42.903  13.486
16962W        W78383   9.696   6.857   0.743
16963W        W78384  42.010  25.132  12.889
16964W        W78385   3.839  12.169   1.745
16965W        W78386  13.280   4.391  14.889
16966W        W78387  38.819  15.813  12.049
16967W        W78388  35.032  36.031   4.645
16968W        W78389  24.989  27.974   3.796
16969W        W78390   1.418  33.560  12.427
16970W        W78391  28.042  19.087  13.543
16971W        W78392   8.332  20.080   4.757
16972W        W78393  13.644  21.752  11.907
16973W        W78394  42.948  14.185  12.355
16974W        W78395  11.650   5.206   0.812
16975W        W78396   2.293  33.619  10.483
16976W        W78397  17.279  11.310  11.033
16977W        W78398  30.450   7.689  10.446
16978W        W78399  13.779  40.843  11.932
16979W        W78400   0.265  32.063  14.976
16980W        W78401  17.660  18.295   1.874
16981W        W78402  22.234   9.340   5.300
16982W        W78403  41.935  20.706  13.428
16983W        W78404  31.966  38.541   4.208
16984W        W78405  40.379  26.163  11.092
16985W        W78406   4.824  32.432   4.297
16986W        W78407  44.938  27.124   4.238
16987W        W78408  28.178   8.207  10.900
16988W        W78409   2.904  41.400   1.924
16989W        W78410  39.512  41.811  10.608
16990W        W78411  27.542  36.091   3.365
16991W        W78412   5.750  11.177   3.244
16992W        W78413  43.971  20.037   1.807
16993W        W78414  24.163  23.114   1.235
16994W        W78415  26.137  42.783   4.709
16995W        W78416  18.130  38.024   4.644
16996W        W78417  16.165  23.702  11.990
16997W        W78418   6.408  30.031   3.651
16998W        W78419  32.000  13.637  13.501
16999W        W78420  19.580  35.583   1.420
17000W        W78421  38.022  18.112   4.691
17001W        W78422   1.954  25.645   2.749
17002W        W78423  39.532   9.154   3.694
17003W        W78424   0.308  41.005  13.881
17004W        W78425  36.862  17.144  13.423
17005W        W78426  19.662  20.556   1.905
17006W        W78427  21.067   3.460   4.656
17007W        W78428  30.492  41.897  12.068
17008W        W78429  19.109   6.863   5.713
17009W        W78430  19.570  28.165   0.306
17010W        W78431  19.039  33.410  11.093
17011W        W78432  41.309  21.137   2.417
17012W        W78433  29.485  23.168   1.399
17013W        W78434  34.417  25.635   3.299
17014W        W78435  28.550  10.681   5.717
17015W        W78436  28.964  40.434   4.189
17016W        W78437  39.003   6.283  14.310
17017W        W78438  38.998  41.333   4.637
17018W        W78439  24.017  44.782  13.031
17019W        W78440  25.699  19.630   5.227
17020W        W78441  35.923  26.617   4.260
17021W        W78442  37.532   9.753  12.983
17022W        W78443  40.480   5.859  12.987
17023W        W78444  20.525  32.081  14.288
17024W        W78445  21.136  41.300   3.841
17025W        W78446  44.944  32.560  12.074
17026W        W78447  28.958   3.319   0.785
17027W        W78448  44.954  36.070   4.773
17028W        W78449  10.141   0.937   3.237
17029W        W78450  19.658  40.511  14.929
17030W        W78451  43.450  26.631   1.704
17031W        W78452   7.409  44.498  14.904
17032W        W78453  25.487  31.054  13.914
17033W        W78454  24.505  34.977   0.907
17034W        W78455  26.105  19.697   0.890
17035W        W78456   3.893  34.928   0.435
17036W        W78457  20.723  36.452   3.794
17037W        W78458  32.477  37.522   3.180
17038W        W78459  17.270  23.230  13.465
17039W        W78460  13.231  13.668  12.532
17040W        W78461   0.425  19.084  13.955
17041W        W78462  31.611  38.974  10.592
17042W        W78463  24.015  23.574  14.815
17043W        W78464  30.657  36.037  11.416
17044W        W78465  17.690   9.163   2.740
17045W        W78466   6.846  20.263   3.152
17046W        W78467  32.100  34.369  10.544
17047W        W78468  39.025   4.795   4.609
17048W        W78469   8.833  22.618  11.465
17049W        W78470  28.593  21.724  12.827
17050W        W78471   7.758  23.000  10.572
17051W        W78472  43.278  23.068   4.717
17052W        W78473  18.218  37.994   3.351
17053W        W78474  16.145  13.710   4.317
17054W        W78475  17.154   6.415  14.766
17055W        W78476  18.263  15.751   5.244
17056W        W78477  44.480  12.706   2.282
17057W        W78478   6.873   4.923  10.589
17058W        W78479   5.194  31.000  12.984
17059W        W78480   3.737  35.867  12.423
17060W        W78481  11.633   9.788   1.276
17061W        W78482  44.790  43.361   4.341
17062W        W78483  25.582  37.514   0.482
17063W        W78484  29.546  44.977  12.079
17064W        W78485  14.220  25.993   1.234
17065W        W78486  25.603  19.565   3.380
17066W        W78487  38.068  39.917  13.436
17067W        W78488  42.786  29.454   0.259
17068W        W78489  23.730  29.607  13.422
17069W        W78490  40.912   3.795   1.263
17070W        W78491  28.096  30.525   5.172
17071W        W78492   7.330  17.148   2.314
17072W        W78493   6.920  43.465  14.018
17073W        W78494  37.970  44.964  14.007
17074W        W78495  40.891  25.998   3.183
17075W        W78496  42.961  38.338  11.601
17076W        W78497  14.705   8.264  10.604
17077W        W78498   8.191  36.859  10.924
17078W        W78499  40.528   5.430  14.830
17079W        W78500   3.941  36.403  12.520
17080W        W78501  26.194  23.615  10.572
17081W        W78502  32.141  28.151  12.443
17082W        W78503  41.911  43.440   2.695
17083W        W78504  34.873   4.374   4.813
17084W        W78505  31.627  34.393   1.829
17085W        W78506  30.153  30.423  11.595
17086W        W78507   6.289  43.407  13.933
17087W        W78508  44.898  26.996   1.764
17088W        W78509  11.624   4.931   3.683
17089W        W78510  35.588  14.283   0.327
17090W        W78511   2.366   1.785   1.429
17091W        W78512  12.621  37.834   3.232
17092W        W78513  41.338  23.677  11.879
17093W        W78514  20.195  11.327  10.005
17094W        W78515   4.783  16.719   3.639
17095W        W78516  14.145   1.318  14.358
17096W        W78517  24.567  29.935  10.457
17097W        W78518  34.893   5.253  12.383
17098W        W78519   0.917  31.025   3.350
17099W        W78520  17.573  19.760  11.437
17100W        W78521  39.432  40.843  13.422
17101W        W78522  30.967  17.236   0.323
17102W        W78523   5.696  24.189  10.009
17103W        W78524  31.064   9.245   2.779
17104W        W78525   3.897  22.653  14.766
17105W        W78526  40.335   5.340   4.316
17106W        W78527   0.311  22.690  13.493
17107W        W78528  10.765  35.076  10.977
17108W        W78529   0.795  24.085   4.665
17109W        W78530  40.869  12.734  13.427
17110W        W78531  37.038   7.771   3.256
17111W        W78532  33.894  10.684  14.304
17112W        W78533  14.751   2.252   1.223
17113W        W78534  32.934  41.880  11.857
17114W        W78535   1.360  40.895   0.730
17115W        W78536  17.698  37.431  14.982
17116W        W78537   4.865   1.462   1.385
17117W        W78538  10.248  31.488  14.840
17118W        W78539  33.927   7.814  11.869
17119W        W78540  38.497  37.901  11.573
17120W        W78541   6.881  10.353  11.920
17121W        W78542  35.415  18.779  10.627
17122W        W78543  31.539  26.522  13.820
17123W        W78544   8.683  20.527   2.232
17124W        W78545  32.919  28.134   1.931
17125W        W78546  21.706  16.572  10.592
17126W        W78547  16.186  31.035  12.984
17127W        W78548  11.708  27.689  13.828
17128W        W78549  41.847  34.910  12.489
17129W        W78550  39.524  29.169   4.810
17130W        W78551   6.271  43.995   2.664
17131W        W78552   0.876  40.962  10.911
17132W        W78553  20.546   7.310  12.088
17133W        W78554  27.455  44.987   1.368
17134W        W78555  34.579  10.854  12.961
17135W        W78556  24.067  37.860  10.528
17136W        W78557  31.025  16.811   5.150
17137W        W78558  17.170  32.551   4.807
17138W        W78559  37.579  24.025  12.989
17139W        W78560   3.449  11.795  11.073
17140W        W78561  31.617  35.595  10.445
17141W        W78562  23.710  13.845  14.321
17142W        W78563  27.513  24.497   1.754
17143W        W78564  23.599  32.063  13.509
17144W        W78565   5.273   7.911  12.575
17145W        W78566  31.122  43.480  14.893
17146W        W78567   3.418  31.521   2.359
17147W        W78568   5.390  41.040   0.299
17148W        W78569  13.112   7.390   9.978
17149W        W78570   9.220   9.277  12.870
17150W        W78571  34.498  27.003  10.891
17151W        W78572   4.220  11.792  13.461
17152W        W78573  12.790   2.436  14.465
17153W        W78574  44.435   4.404   3.842
17154W        W78575  20.739  20.523   3.316
17155W        W78576  22.522  43.865   3.770
17156W        W78577  18.672  32.624   0.763
17157W        W78578  37.941  21.121   2.692
17158W        W78579  19.159  32.895  10.993
17159W        W78580  38.416  33.581   1.858
17160W        W78581  34.098   4.840  13.974
17161W        W78582   7.685  22.142   0.786
17162W        W78583   3.894  39.423   3.165
17163W        W78584  14.592   0.395   3.828
17164W        W78585  12.309   6.264  10.947
17165W        W78586  32.053  36.981   4.313
17166W        W78587  24.566  13.668  13.844
17167W        W78588   0.967  38.366   1.714
17168W        W78589  20.104  40.944  11.093
17169W        W78590  40.991  17.629   5.221
17170W        W78591  11.846  14.218   1.449
17171W        W78592  30.124   9.810   3.321
17172W        W78593  33.010  34.981   2.776
17173W        W78594  21.250  17.074  11.984
17174W        W78595   7.209  40.899   2.770
17175W        W78596  13.687  38.853  11.963
17176W        W78597  23.182   1.309   4.309
17177W        W78598  18.208  32.629   2.745
17178W        W78599  44.343   1.461  10.443
17179W        W78600  10.661  23.605  11.108
17180W        W78601  17.708   4.763   2.860
17181W        W78602  22.733  24.586   2.320
17182W        W78603  20.630  20.104  12.844
17183W        W78604   8.266  37.880   3.260
17184W        W78605   2.939  38.542  13.382
17185W        W78606  10.183  44.993  12.971
17186W        W78607  41.324  40.921   3.284
17187W        W78608   5.903  40.403   1.855
17188W        W78609  41.367  20.765  12.002
17189W        W78610  12.216   5.373   1.805
17190W        W78611   4.249  44.994  11.018
17191W        W78612  16.608  34.104   2.259
17192W        W78613  15.319  17.223  13.903
17193W        W78614  16.211  27.943   2.876
17194W        W78615  20.039  31.092  13.810
17195W        W78616  28.446   5.414  12.427
17196W        W78617   9.666   6.753   2.888
17197W        W78618  30.017  40.867   0.281
17198W        W78619  41.790  14.166  12.884
17199W        W78620  39.341  26.052  11.008
17200W        W78621  24.998  16.607  12.078
17201W        W78622  29.149  25.481  12.059
17202W        W78623  40.374  17.743   0.874
17203W        W78624  42.500   4.435   2.674
17204W        W78625   4.767  27.132   4.769
17205W        W78626  14.154  24.561  13.958
17206W        W78627  10.715   5.352  14.333
17207W        W78628  24.588  15.659  11.451
17208W        W78629  21.653  36.556  13.505
17209W        W78630  15.682  15.270  13.395
17210W        W78631  37.402  11.262  10.126
17211W        W78632  16.287  28.032   2.290
17212W        W78633  13.631  44.475  14.447
17213W        W78634  42.414  24.218   1.769
17214W        W78635  41.009  11.776   0.396
17215W        W78636  23.175  29.013  13.036
17216W        W78637   6.282  42.868   4.772
17217W        W78638  37.934   9.148  14.295
17218W        W78639  11.670   0.818   3.303
17219W        W78640   5.333  24.193  11.382
17220W        W78641   8.814  35.464  12.364
17221W        W78642  19.183  27.147  10.957
17222W        W78643  10.690  39.970   4.184
17223W        W78644  15.147  25.028  14.871
17224W        W78645  36.438  24.084   1.228
17225W        W78646  10.219  20.106   5.096
17226W        W78647  39.053  30.596  13.453
17227W        W78648  18.595  38.013   0.882
17228W        W78649  17.575  33.581   0.792
17229W        W78650   8.717   7.215  13.840
17230W        W78651  30.472  37.956  13.014
17231W        W78652  35.956  28.942   2.358
17232W        W78653  24.170  44.415  13.372
17233W        W78654  33.045  43.782  12.356
17234W        W78655   4.236  21.156  14.798
17235W        W78656   1.309  27.011  12.873
17236W        W78657   1.910  21.617  12.348
17237W        W78658  33.519  15.661   5.088
17238W        W78659  42.411   8.699  11.878
17239W        W78660  21.226  23.665  11.879
17240W        W78661  35.576  30.067   4.255
17241W        W78662  17.635  18.770   0.782
17242W        W78663  28.144   2.871   1.874
17243W        W78664   8.352  26.512   4.231
17244W        W78665   0.898  10.698  10.550
17245W        W78666  25.006   1.880  14.873
17246W        W78667  40.877   6.801  12.854
17247W        W78668   3.278  31.058   4.794
17248W        W78669  20.663  35.364  13.977
17249W        W78670   4.207  37.424  13.054
17250W        W78671  10.194   8.713   4.787
17251W        W78672  23.144  22.212   1.245
17252W        W78673  12.251   4.328   3.834
17253W        W78674  15.821  34.543  14.477
17254W        W78675  30.639  42.972   1.854
17255W        W78676   4.273  19.656  12.038
17256W        W78677  36.429   4.306  12.466
17257W        W78678  14.188   2.294  10.574
17258W        W78679   9.341   9.657  10.453
17259W        W78680  25.635   5.398  13.436
17260W        W78681   6.354  29.143  11.090
17261W        W78682  27.198  15.668   2.687
17262W        W78683  27.195  11.681   1.715
17263W        W78684  29.968  34.027  14.944
17264W        W78685  23.142   4.889  12.889
17265W        W78686   8.250  16.256  13.922
17266W        W78687  13.280   9.705  12.352
17267W        W78688  20.165  10.237   3.816
17268W        W78689  14.747  26.151  13.358
17269W        W78690  14.110  31.041  13.977
17270W        W78691   7.220  11.631   2.414
17271W        W78692  37.468  12.666  12.922
17272W        W78693   0.294   0.437  12.577
17273W        W78694  27.687  37.066   3.318
17274W        W78695  29.588  36.528  13.950
17275W        W78696  44.810  20.602   3.634
17276W        W78697   2.455  30.032   1.823
17277W        W78698  35.476  20.033   0.943
17278W        W78699  10.273  40.902  14.886
17279W        W78700   8.352   6.739  13.848
17280W        W78701  25.656  41.433   4.280
17281W        W78702  43.503  31.035   4.694
17282W        W78703   2.962  16.092  14.000
17283W        W78704   9.208  22.093  14.779
17284W        W78705  34.594  12.352  12.942
17285W        W78706  16.632  34.466  12.859
17286W        W78707   2.853   0.915  11.085
17287W        W78708   8.331  37.854   5.768
17288W        W78709  25.522   3.378  12.003
17289W        W78710  16.104  28.475   2.277
17290W        W78711  19.090  12.738  12.862
17291W        W78712   8.354  14.285   0.318
17292W        W78713  18.708  19.677   1.222
17293W        W78714  18.738   5.804  10.529
17294W        W78715  34.432  21.237  14.318
17295W        W78716  30.101  41.872   2.763
17296W        W78717  13.219   3.863  12.988
17297W        W78718  41.872  18.097  13.024
17298W        W78719  43.440  10.739  14.488
17299W        W78720  24.723  27.038   1.908
17300W        W78721   6.753  37.363  11.033
17301W        W78722  38.369  43.931  12.459
17302W        W78723  28.037  22.541   4.677
17303W        W78724  27.950  18.777  13.885
17304W        W78725  34.041  18.762  13.900
17305W        W78726  41.491  39.988   0.287
17306W        W78727   4.797  42.440   3.640
17307W        W78728  33.490   0.822  14.281
17308W        W78729  42.382   0.365  10.561
17309W        W78730  22.100  23.040  10.465
17310W        W78731  42.954  44.953  12.940
17311W        W78732  42.801  19.237   1.326
17312W        W78733  41.335  35.362  13.825
17313W        W78734  36.483  23.118  12.366
17314W        W78735  17.754  35.858  13.835
17315W        W78736  30.129  29.986   4.817
17316W        W78737   2.294  11.719  12.921
17317W        W78738  15.093  21.057   3.183
17318W        W78739  24.527  22.588   4.325
17319W        W78740  41.953  41.480   9.929
17320W        W78741   4.725  18.183   1.858
17321W        W78742  12.798  41.384   3.257
17322W        W78743  40.344  38.412  12.577
17323W        W78744  10.724  28.167   4.254
17324W        W78745  25.982   4.446  11.604
17325W        W78746  13.646  35.916  11.510
17326W        W78747  12.612  37.027   3.768
17327W        W78748   9.813   8.311   4.243
17328W        W78749  25.197   9.221  13.509
17329W        W78750  31.071  40.849   4.661
17330W        W78751  16.146   7.221   2.665
17331W        W78752  15.226  35.018   1.290
17332W        W78753  10.645  44.337  11.995
17333W        W78754   8.671  37.834  10.975
17334W        W78755   2.422   5.430   2.745
17335W        W78756  37.891  42.806   1.836
17336W        W78757  41.370  30.507   1.752
17337W        W78758  13.708  42.438   1.801
17338W        W78759  10.793   9.225   0.430
17339W        W78760   2.931   3.928   4.713
17340W        W78761   6.813   9.760  14.385
17341W        W78762   9.758  23.706   1.781
17342W        W78763   3.873  26.587  14.928
17343W        W78764  36.525  39.436   4.716
17344W        W78765  34.078   6.846   3.785
17345W        W78766   8.281  20.683  12.059
17346W        W78767  22.171  12.729   4.748
17347W        W78768  26.005   3.744  11.024
17348W        W78769   9.282  31.634   3.837
17349W        W78770  34.457   7.300  10.498
17350W        W78771  29.046  33.061  14.418
17351W        W78772   0.819  11.841  10.099
17352W        W78773  41.007   2.290  11.552
17353W        W78774   3.429  36.510   3.285
17354W        W78775   9.664  31.088  13.459
17355W        W78776  44.363   0.299  13.972
17356W        W78777  44.382  26.995   2.679
17357W        W78778  20.052  30.969   4.598
17358W        W78779  20.081  17.245   3.815
17359W        W78780   4.253  27.576  13.379
17360W        W78781  37.489  15.228  12.979
17361W        W78782   6.338  23.640  14.430
17362W        W78783  43.013  44.825   3.230
17363W        W78784  20.522  24.049   3.851
17364W        W78785  43.335  22.038   2.716
17365W        W78786  14.118  27.566   2.695
17366W        W78787  32.565  40.521   2.376
17367W        W78788   0.280  22.524   4.623
17368W        W78789  13.823   6.920   0.393
17369W        W78790  25.561  33.096   2.359
17370W        W78791  44.312  30.422  13.911
17371W        W78792  25.192  17.115  11.605
17372W        W78793  40.340  28.629   2.325
17373W        W78794   3.248  37.469   0.826
17374W        W78795  25.621  23.030  12.548
17375W        W78796  26.583  35.985  13.894
17376W        W78797   6.394  44.490  14.404
17377W        W78798  36.403   5.819   3.258
17378W        W78799  36.967   9.858  12.870
17379W        W78800  31.589  27.644   0.780
17380W        W78801  17.246   3.716   3.218
17381W        W78802  24.083  34.413   1.878
17382W        W78803   2.384  25.660   5.741
17383W        W78804  23.544  44.429   4.627
17384W        W78805  14.781  38.409   4.260
17385W        W78806  41.503  18.293   4.614
17386W        W78807  43.492  37.887   0.362
17387W        W78808  38.914  40.416  11.126
17388W        W78809   4.875  25.007   2.759
17389W        W78810  34.090   5.291  14.975
17390W        W78811   4.780  44.392  10.550
17391W        W78812  29.567  30.099   2.202
17392W        W78813  34.905  13.723   1.266
17393W        W78814  15.794  31.647  11.041
17394W        W78815  19.706  24.079   1.702
17395W        W78816   4.793  32.580   1.372
17396W        W78817  40.021  26.667   0.730
17397W        W78818  11.696   0.298   0.740
17398W        W78819  18.633   4.718  13.415
17399W        W78820  39.059  33.927   0.734
17400W        W78821   3.322   7.681  12.428
17401W        W78822  20.240  17.621   0.280
17402W        W78823  22.157   5.292  11.869
17403W        W78824  21.684  42.486   0.362
17404W        W78825  38.386  38.891  13.899
17405W        W78826  32.023  41.881   1.925
17406W        W78827  10.327   1.935  13.488
17407W        W78828  44.904  14.806  13.021
17408W        W78829  24.545  37.060   1.790
17409W        W78830  17.236  32.420   4.303
17410W        W78831  31.040  10.846  13.968
17411W        W78832  14.242  36.904   3.348
17412W        W78833  14.150  17.717  12.544
17413W        W78834  11.821  21.731  13.377
17414W        W78835  43.493  31.010   3.864
17415W        W78836  34.922   2.828  14.465
17416W        W78837  42.497  37.005   0.283
17417W        W78838  22.198  41.796  12.390
17418W        W78839  34.500  35.892  12.504
17419W        W78840  12.800  19.099   4.806
17420W        W78841  21.034  21.553  13.843
17421W        W78842  26.526  43.810   3.374
17422W        W78843  18.234  17.770  13.360
17423W        W78844  12.684  27.480  14.930
17424W        W78845  36.994   9.878   4.220
17425W        W78846  42.293  38.416   3.191
17426W        W78847  11.836   3.286   1.303
17427W        W78848  22.023   4.250   3.704
17428W        W78849   0.435  25.475  12.464
17429W        W78850   0.833  31.495   3.336
17430W        W78851  40.973  32.608  13.884
17431W        W78852  43.281  26.596  10.487
17432W        W78853  10.167  43.277   4.732
17433W        W78854  32.401  40.945   4.235
17434W        W78855  26.472   2.425   2.297
17435W        W78856  33.037   8.317   2.808
17436W        W78857   7.279  17.679   1.352
17437W        W78858  15.301  26.997  14.275
17438W        W78859  35.978  40.878  10.527
17439W        W78860  10.282  31.591   3.329
17440W        W78861  23.642  13.284   0.954
17441W        W78862  34.008   5.832  12.549
17442W        W78863  40.842  40.038   1.708
17443W        W78864   5.225  21.213  12.561
17444W        W78865  18.081  24.083  12.378
17445W        W78866  43.470  37.395   1.329
17446W        W78867   7.324  22.521   2.212
17447W        W78868  39.327  19.039  13.803
17448W        W78869  44.767  37.488  11.953
17449W        W78870  33.926  44.931  14.829
17450W        W78871  19.220  41.010   4.715
17451W        W78872  14.691   5.906   4.622
17452W        W78873  18.701   0.264  13.053
17453W        W78874  33.952  12.793  12.556
17454W        W78875  34.446  29.505  11.085
17455W        W78876   3.739  39.394   3.812
17456W        W78877   8.710  28.128  11.874
17457W        W78878  10.645  12.662  13.816
17458W        W78879  21.706  20.632  12.086
17459W        W78880  17.246  33.017  10.962
17460W        W78881  33.001  25.059   2.806
17461W        W78882  18.697  15.157   1.275
17462W        W78883  21.088  35.103   0.277
17463W        W78884  38.001   2.818  10.541
17464W        W78885  22.036  37.932  10.559
17465W        W78886  19.247  32.020   1.318
17466W        W78887   7.328  39.817   0.316
17467W        W78888  19.181  15.271   3.797
17468W        W78889  43.288  27.636   2.747
17469W        W78890  41.960  34.444  12.409
17470W        W78891  21.175  29.428   1.732
17471W        W78892   7.901  42.942   0.757
17472W        W78893  31.941  26.585   4.750
17473W        W78894  19.077  26.634   4.137
17474W        W78895  13.679  44.320   3.174
17475W        W78896  27.080  44.441   3.148
17476W        W78897  44.909  32.960  11.435
17477W        W78898  13.794  10.141  11.052
17478W        W78899  18.074  43.349  13.876
17479W        W78900  22.540  13.196  12.873
17480W        W78901  20.081  43.398  11.439
17481W        W78902  33.436  35.944   2.359
17482W        W78903  27.072  33.936  10.508
17483W        W78904  26.570  26.074   0.734
17484W        W78905  38.863  24.623   3.774
17485W        W78906  29.481  44.803   2.301
17486W        W78907  42.909  39.382  11.127
17487W        W78908  29.626  34.499  11.120
17488W        W78909  42.815  42.882   2.899
17489W        W78910  33.411  20.587  13.515
17490W        W78911   8.272  12.816  12.000
17491W        W78912   9.846  44.361   0.421
17492W        W78913  31.513  30.474  14.928
17493W        W78914  30.912  40.863   4.214
17494W        W78915  38.349  37.032  12.900
17495W        W78916  23.726  10.656  11.517
17496W        W78917   6.264  35.377  14.440
17497W        W78918  27.509  13.333  13.016
17498W        W78919   7.173  41.344   1.393
17499W        W78920   3.925  17.592   4.675
17500W        W78921  38.931  32.511   3.355
17501W        W78922  27.943  38.501   9.977
17502W        W78923   5.277  12.707   5.246
17503W        W78924  40.021   0.776   1.276
17504W        W78925  33.419  38.554  10.415
17505W        W78926   4.809  28.569   3.805
17506W        W78927   1.856  36.567  14.958
17507W        W78928  26.491  20.714  14.463
17508W        W78929  39.550  29.120  11.382
17509W        W78930  43.847  24.130   2.184
17510W        W78931  19.104  24.049   1.818
17511W        W78932  31.479  26.686  11.437
17512W        W78933  36.508  40.902  12.850
17513W        W78934   4.386  29.145  11.402
17514W        W78935  37.946  41.342  14.293
17515W        W78936  29.992  36.589   4.777
17516W        W78937  44.868  42.325  12.878
17517W        W78938  10.291  19.192   4.297
17518W        W78939  44.296   0.806   3.175
17519W        W78940  24.999  29.976  12.031
17520W        W78941   9.318  17.790   1.371
17521W        W78942   9.703  35.954  14.925
17522W        W78943   6.314  30.114  11.866
17523W        W78944  12.326   9.360   3.159
17524W        W78945  28.943   7.395  10.431
17525W        W78946   7.694  31.619  14.767
17526W        W78947   3.305  28.035  12.394
17527W        W78948  30.448  41.365   4.642
17528W        W78949  37.527   4.246   2.880
17529W        W78950  23.579  43.311  14.420
17530W        W78951  26.667  24.051  13.351
17531W        W78952  39.889  20.067   1.410
17532W        W78953  31.619  39.552   2.738
17533W        W78954  27.190  15.717  11.566
17534W        W78955  43.299  26.673  13.368
17535W        W78956  22.081  26.145   4.706
17536W        W78957  23.132  17.087  12.944
17537W        W78958  35.003   3.741   3.809
17538W        W78959   7.299   4.231  12.997
17539W        W78960   1.800  22.507   1.447
17540W        W78961  22.609   3.715   1.412
17541W        W78962  31.054  15.128   4.270
17542W        W78963  41.381  44.827   2.230
17543W        W78964  32.065   7.304  13.876
17544W        W78965  19.131  42.961  12.473
17545W        W78966  40.006  31.135  13.959
17546W        W78967   2.819  28.483  14.930
17547W        W78968  23.071  36.499  11.914
17548W        W78969   4.365  15.774   0.467
17549W        W78970  29.644  26.536  10.004
17550W        W78971  26.970  15.172   4.753
17551W        W78972   9.193   8.743  14.833
17552W        W78973   7.182  17.273  14.402
17553W        W78974  34.916  38.049   2.692
17554W        W78975   8.833  44.960  12.860
17555W        W78976  20.116  24.137  14.012
17556W        W78977  14.096   9.164   2.754
17557W        W78978  19.275  33.388   4.772
17558W        W78979   2.385   0.837   0.874
17559W        W78980  17.729  24.003  13.064
17560W        W78981  38.412  37.570   1.896
17561W        W78982   8.714  27.585   4.654
17562W        W78983  29.465  20.526  11.063
17563W        W78984  22.522   6.692   4.153
17564W        W78985  28.516  17.677  11.017
17565W        W78986   0.752   2.825   2.357
17566W        W78987  19.060  16.657  10.571
17567W        W78988  18.764  38.380   3.771
17568W        W78989  38.490  33.605  13.946
17569W        W78990  11.780  22.589   2.304
17570W        W78991  19.087  35.566  13.042
17571W        W78992   9.236  34.414   4.246
17572W        W78993  40.833   5.770  14.926
17573W        W78994  26.118  41.482  13.361
17574W        W78995  17.625  18.635   3.253
17575W        W78996  20.725   4.444  11.934
17576W        W78997  24.996  33.055  13.322
17577W        W78998  37.462  23.543   3.164
17578W        W78999  42.797  12.278  11.116
17579W        W79000  19.660  11.284  14.348
17580W        W79001   7.410  36.358  14.397
17581W        W79002  19.049  32.607   1.424
17582W        W79003   8.331  37.508   0.423
17583W        W79004  16.589   6.886   2.671
17584W        W79005  43.392  26.496  12.007
17585W        W79006  37.417  34.433   0.441
17586W        W79007  27.994  24.511  14.496
17587W        W79008  16.194  43.942  12.410
17588W        W79009  32.397  16.146   4.785
17589W        W79010  13.713  29.445   1.822
17590W        W79011  42.829  12.633   1.229
17591W        W79012  23.025  32.095  13.394
17592W        W79013   1.482  39.831   3.323
17593W        W79014   9.890  13.684  12.526
17594W        W79015  23.724  19.687   3.805
17595W        W79016  20.716  16.314   4.825
17596W        W79017  29.629  14.773   2.262
17597W        W79018  40.810  10.694   3.646
17598W        W79019  44.285  17.293  13.317
17599W        W79020  37.498   2.306   0.768
17600W        W79021  20.656   2.952  13.406
17601W        W79022   2.399  34.386  11.554
17602W        W79023  42.315  19.738   0.781
17603W        W79024  35.067  34.002  13.061
17604W        W79025   0.252   8.746   4.815
17605W        W79026  23.653  17.290  13.487
17606W        W79027  32.592  41.951   0.400
17607W        W79028  16.616  36.448  13.894
17608W        W79029   6.266  23.684  13.020
17609W        W79030  35.864  34.003   4.760
17610W        W79031  20.156   3.862  10.934
17611W        W79032  39.928  29.015  11.398
17612W        W79033  23.013  26.459   0.857
17613W        W79034  33.985  43.399   4.352
17614W        W79035  44.837   1.976   2.375
17615W        W79036  10.871  41.337   2.754
17616W        W79037   0.460  23.651  13.902
17617W        W79038  11.178  27.638  12.050
17618W        W79039  13.782   5.372   0.946
17619W        W79040  43.944  42.447  11.962
17620W        W79041   4.248  10.189   2.769
17621W        W79042  27.533   7.318   3.664
17622W        W79043  10.167  10.758  12.052
17623W        W79044  38.406  26.020   0.921
17624W        W79045  44.908  34.418  11.574
17625W        W79046  39.457  24.167  11.590
17626W        W79047  41.821  33.978   2.352
17627W        W79048  10.874  44.780   4.696
17628W        W79049  28.988  15.783   1.421
17629W        W79050  28.588  31.900  11.881
17630W        W79051  19.168  33.962   1.267
17631W        W79052  27.512  36.864  10.434
17632W        W79053  36.488  44.770   4.661
17633W        W79054  32.064  43.917  13.453
17634W        W79055   8.360  22.561   3.735
17635W        W79056  42.357  18.102   2.850
17636W        W79057  25.700  33.563  10.151
17637W        W79058  37.893  30.576  11.031
17638W        W79059  13.220  25.210  11.613
17639W        W79060   2.359   7.242   0.728
17640W        W79061  14.695  10.384   1.927
17641W        W79062  39.038  19.151   0.316
17642W        W79063  29.947   5.836  13.356
17643W        W79064  28.647  10.241  12.974
17644W        W79065  21.027  31.516  13.805
17645W        W79066  19.670  31.568   0.452
17646W        W79067  28.505  10.317  11.452
17647W        W79068  21.717  35.948  13.386
17648W        W79069  36.912  24.212  13.320
17649W        W79070  20.563  22.178  12.344
17650W        W79071  44.367  25.219  14.462
17651W        W79072  33.120   2.322   3.650
17652W        W79073  30.960  16.227  14.856
17653W        W79074  10.385  14.642  12.354
17654W        W79075   9.754   6.317   1.299
17655W        W79076  22.697  36.558   0.308
17656W        W79077  21.169  22.636  12.341
17657W        W79078   1.465   6.803   1.794
17658W        W79079  38.531  42.358   2.374
17659W        W79080   6.395  11.194  12.898
17660W        W79081  19.242  31.118  14.397
17661W        W79082  13.136  25.019   4.614
17662W        W79083  25.100  34.584   2.884
17663W        W79084   9.730  16.084   4.813
17664W        W79085   4.438  14.591   4.711
17665W        W79086   1.287  37.500   4.670
17666W        W79087  34.461  26.101  11.013
17667W        W79088  21.653  20.630   3.380
17668W        W79089   5.379  17.293  14.013
17669W        W79090  16.237  43.910  12.051
17670W        W79091  23.543  16.192  13.360
17671W        W79092  18.638  10.266  14.296
17672W        W79093  11.807  35.890   1.427
17673W        W79094  23.207   4.306  12.039
17674W        W79095   1.435  23.106  14.932
17675W        W79096  10.804  32.004  14.835
17676W        W79097  12.128  35.955  13.517
17677W        W79098  35.873  35.527   0.819
17678W        W79099   4.226  21.677   1.926
17679W        W79100  34.087  43.495   1.297
17680W        W79101  36.551  22.668  10.134
17681W        W79102  26.689   2.386   0.304
17682W        W79103  31.908   0.922   3.741
17683W        W79104  31.424   7.716  10.598
17684W        W79105  27.513  39.348   1.930
17685W        W79106  34.106  18.757  10.520
17686W        W79107  27.608   3.237  10.455
17687W        W79108  43.323   7.690  11.414
17688W        W79109   6.284  34.031   4.645
17689W        W79110   5.339  12.690   0.418
17690W        W79111  13.699  34.536   3.222
17691W        W79112  17.624  42.381  12.856
17692W        W79113  31.562  30.077   2.316
17693W        W79114   3.301  20.256  10.574
17694W        W79115  37.025   8.347   2.330
17695W        W79116  30.608  21.256   4.640
17696W        W79117  43.482  23.547   3.814
17697W        W79118  15.704  15.656   1.906
17698W        W79119   1.745  39.051  13.487
17699W        W79120  10.337  40.392   4.664
17700W        W79121  12.697   1.253  14.995
17701W        W79122   2.248  18.772   1.356
17702W        W79123  15.150  36.055   1.867
17703W        W79124  18.784  37.548   5.242
17704W        W79125  36.529   1.339  11.953
17705W        W79126  12.691  23.665   0.363
17706W        W79127  42.455  21.513  12.906
17707W        W79128  12.819  22.090   2.224
17708W        W79129  24.671  44.774  12.079
17709W        W79130  25.114   7.689  13.042
17710W        W79131  23.134   7.249  14.030
17711W        W79132  13.298  30.632   3.687
17712W        W79133  30.638  21.667   2.401
17713W        W79134  30.073   8.170   3.783
17714W        W79135  31.630   1.270  12.370
17715W        W79136  15.141  29.026  10.081
17716W        W79137  33.566  19.224  11.903
17717W        W79138  21.543  24.028   0.273
17718W        W79139  26.617  26.032   3.665
17719W        W79140   4.766  13.239  13.819
17720W        W79141  27.118  27.134   2.321
17721W        W79142  39.876  32.474   2.684
17722W        W79143  12.745  20.137   1.333
17723W        W79144   9.850  32.579  11.052
17724W        W79145   4.753  11.753  13.473
17725W        W79146  27.486   0.750   0.421
17726W        W79147  31.042  39.825   0.415
17727W        W79148   4.720  15.600   0.476
17728W        W79149  41.410  27.101  11.408
17729W        W79150  19.253  40.894   2.751
17730W        W79151  35.413   1.238   5.271
17731W        W79152  26.456  43.889   4.209
17732W        W79153  40.866  11.158  13.903
17733W        W79154  35.462  44.980  10.906
17734W        W79155  11.850   5.387  12.493
17735W        W79156   1.416  41.996   2.250
17736W        W79157   3.290  13.804   3.179
17737W        W79158  41.866   1.432   1.262
17738W        W79159  11.209  35.490  14.292
17739W        W79160  22.572   0.373  13.370
17740W        W79161  20.251   9.286  12.892
17741W        W79162  26.160   8.832   1.844
17742W        W79163  20.646  28.591   1.365
17743W        W79164  33.970  36.998   2.716
17744W        W79165  27.625  30.433   2.770
17745W        W79166  23.715  21.520   0.317
17746W        W79167   8.394  40.841   2.248
17747W        W79168  39.440  29.636  11.900
17748W        W79169  27.065  28.178  11.425
17749W        W79170  41.037   8.663  11.102
17750W        W79171  17.127  16.191  12.964
17751W        W79172  20.214  44.279  13.351
17752W        W79173  21.233  10.291  11.098
17753W        W79174  34.476  15.206   2.302
17754W        W79175   6.273   4.330  12.522
17755W        W79176  30.960  41.451  12.960
17756W        W79177  26.616  34.871   5.168
17757W        W79178  37.452  27.122   4.237
17758W        W79179  10.677  26.684   2.787
17759W        W79180  12.174  22.055  10.912
17760W        W79181  18.729  18.253   0.856
17761W        W79182  13.274  35.062   3.631
17762W        W79183   5.830  33.120  12.073
17763W        W79184  12.327  10.270  14.438
17764W        W79185  32.944   8.292   3.726
17765W        W79186  22.680  10.256  13.518
17766W        W79187  15.217  19.678  11.558
17767W        W79188  26.525   7.769   1.274
17768W        W79189  25.652   9.341  11.568
17769W        W79190  32.902  33.458   4.131
17770W        W79191  15.737  23.535   1.856
17771W        W79192  17.065   9.798   2.312
17772W        W79193  20.564  12.620  14.499
17773W        W79194  12.276  27.191  12.862
17774W        W79195   1.268  20.621   0.475
17775W        W79196  29.661  11.259   3.178
17776W        W79197   1.957   8.252   3.212
17777W        W79198  15.275   7.713   2.262
17778W        W79199  20.693  30.630  11.493
17779W        W79200  28.993  26.496  14.818
17780W        W79201  31.562  20.569  10.537
17781W        W79202  31.004   3.356   1.797
17782W        W79203   0.934  10.287  14.888
17783W        W79204  39.441  32.567   1.704
17784W        W79205  28.567  38.522  10.608
17785W        W79206  27.093  20.123  14.828
17786W        W79207  18.239  19.216   1.246
17787W        W79208  28.050  18.568   2.701
17788W        W79209  14.263  21.071  10.596
17789W        W79210  38.050   3.906   1.751
17790W        W79211  28.638  36.065   0.846
17791W        W79212  29.568  29.637   2.859
17792W        W79213   0.748  38.497  11.391
17793W        W79214  31.142  39.545  14.477
17794W        W79215  31.093   9.742   0.401
17795W        W79216   5.278   0.332   3.651
17796W        W79217  39.523  32.000  13.443
17797W        W79218   2.745  29.163   2.353
17798W        W79219  30.117  12.242  13.841
17799W        W79220  25.694  18.548   1.736
17800W        W79221  39.852  38.924  13.056
17801W        W79222  25.632  16.123  12.550
17802W        W79223  36.497  16.149  12.384
17803W        W79224  13.758  12.788  14.816
17804W        W79225  42.901  44.853   4.190
17805W        W79226  37.901   7.801  10.944
17806W        W79227  20.736   8.782  11.022
17807W        W79228  30.156  23.510   4.792
17808W        W79229  36.053  16.169  14.895
17809W        W79230   3.395   4.837  12.883
17810W        W79231   3.432  22.217   3.694
17811W        W79232  43.452  35.912   9.938
17812W        W79233  24.125  14.656  10.552
17813W        W79234  10.712  15.153   1.248
17814W        W79235  42.483  16.182  11.958
17815W        W79236  22.564   7.688  11.454
17816W        W79237  20.179  24.042   1.270
17817W        W79238   8.779  27.631   2.821
17818W        W79239  14.310  43.380   3.343
17819W        W79240  31.104   2.753   3.322
17820W        W79241   3.280  22.036  10.903
17821W        W79242  27.462  12.248   0.432
17822W        W79243  41.989  41.476   3.295
17823W        W79244  36.461  17.150  10.637
17824W        W79245  44.302  20.270   4.153
17825W        W79246  23.538  14.736  12.387
17826W        W79247  41.948  27.168  12.552
17827W        W79248   2.899   1.958  11.411
17828W        W79249  17.257  11.635   1.836
17829W        W79250  44.868  11.324   4.824
17830W        W79251  38.021  32.555   4.708
17831W        W79252   7.220  28.063  11.487
17832W        W79253   4.388  41.796  12.841
17833W        W79254  17.140  27.496   3.835
17834W        W79255  17.745  26.056   0.829
17835W        W79256  21.530  36.570  11.583
17836W        W79257   1.305  39.895  10.580
17837W        W79258   8.350  10.369  12.032
17838W        W79259   4.427   6.406  14.335
17839W        W79260   3.798  22.611   3.675
17840W        W79261  35.973   7.382   0.912
17841W        W79262  24.705   4.811  14.842
17842W        W79263   3.251  20.761  13.888
17843W        W79264  14.101   0.327   1.405
17844W        W79265  29.162  29.492   4.319
17845W        W79266  16.589  28.647   0.248
17846W        W79267  23.577  23.563  12.066
17847W        W79268  31.615   2.748  10.488
17848W        W79269   2.471  14.705  11.376
17849W        W79270  31.005  18.751  11.462
17850W        W79271   8.675   0.454  13.860
17851W        W79272  42.316  40.954  12.912
17852W        W79273  30.022  14.211   4.312
17853W        W79274   7.204  15.604  11.991
17854W        W79275  19.594  14.336   0.451
17855W        W79276  42.398   1.865  13.531
17856W        W79277  20.046   1.844   5.189
17857W        W79278  25.479  21.670   4.827
17858W        W79279  38.448  38.041  12.425
17859W        W79280  18.777  20.099   0.735
17860W        W79281  21.145  41.422  14.017
17861W        W79282  10.235  22.191  10.092
17862W        W79283  22.681  36.097   9.987
17863W        W79284   7.276  11.221  12.349
17864W        W79285  18.223  19.640   1.782
17865W        W79286  38.052  34.389  12.000
17866W        W79287  43.788   6.888   2.386
17867W        W79288   6.716  13.674  12.836
17868W        W79289  26.107  22.719  14.934
17869W        W79290  19.199  21.249   0.871
17870W        W79291  43.377  13.301   0.908
17871W        W79292  32.967  17.735  12.039
17872W        W79293   4.237   4.766  12.386
17873W        W79294   3.902  37.033   2.901
17874W        W79295  18.552  43.774  12.834
17875W        W79296  31.447   4.428   4.283
17876W        W79297   4.255  14.741  11.383
17877W        W79298   6.758  22.117   1.428
17878W        W79299  36.947  42.396   1.869
17879W        W79300  24.532  15.590   3.330
17880W        W79301  40.797   8.740   1.728
17881W        W79302   4.821   0.322   3.192
17882W        W79303  13.821  43.927  12.442
17883W        W79304  41.487  10.276  14.765
17884W        W79305  25.149  42.384   4.348
17885W        W79306  29.039  17.740  12.853
17886W        W79307  17.615  12.791  12.355
17887W        W79308  29.667   2.236   4.275
17888W        W79309  44.817   6.426   1.845
17889W        W79310  38.039  20.181   0.377
17890W        W79311  23.672  15.285  10.481
17891W        W79312  23.053   8.705  10.419
17892W        W79313  40.817  41.369   3.303
17893W        W79314   6.713  15.721   1.813
17894W        W79315  27.672  32.539  10.920
17895W        W79316  37.885  11.817  12.519
17896W        W79317   3.436   3.821  13.484
17897W        W79318  28.116  17.266  10.901
17898W        W79319  20.648  41.894  11.881
17899W        W79320   2.376   5.735   4.799
17900W        W79321  25.208  30.421  11.971
17901W        W79322  44.395  11.141  10.627
17902W        W79323  37.087  29.463   3.762
17903W        W79324  10.727  22.196   3.331
17904W        W79325  12.281  26.498   3.654
17905W        W79326  27.104  34.414   3.784
17906W        W79327  33.420  42.326  11.437
17907W        W79328  32.582   6.902   0.337
17908W        W79329  28.140  10.190  12.924
17909W        W79330  24.685  35.046   3.797
17910W        W79331  20.086  16.160  14.313
17911W        W79332  26.036  36.495  14.855
17912W        W79333  34.889  22.606   2.240
17913W        W79334  25.986   3.272  10.628
17914W        W79335  26.536  35.368   4.251
17915W        W79336  37.949  38.414  11.979
17916W        W79337   0.469  43.476  14.960
17917W        W79338  12.738  43.489  10.544
17918W        W79339   6.812  23.625   1.212
17919W        W79340  25.099  15.672  11.016
17920W        W79341  29.004  21.096   2.811
17921W        W79342  31.485  20.181  12.933
17922W        W79343  20.543  19.733  11.411
17923W        W79344  24.660  40.998   3.257
17924W        W79345  16.573  35.438   4.218
17925W        W79346   4.739  43.343  10.004
17926W        W79347  43.363  40.845   0.911
17927W        W79348  25.188   2.833   3.161
17928W        W79349   5.340   5.350   1.282
17929W        W79350  37.576   7.198  11.950
17930W        W79351  44.261   7.218  12.835
17931W        W79352  15.143  29.443  12.497
17932W        W79353  27.589   1.295  12.371
17933W        W79354  31.456   0.982  13.022
17934W        W79355   9.667  43.472  13.482
17935W        W79356  33.457  20.620   1.280
17936W        W79357  25.070  28.481   0.758
17937W        W79358  39.460   5.310  10.896
17938W        W79359  25.675  18.155  13.972
17939W        W79360  19.745  14.593  14.331
17940W        W79361  16.235  43.514  13.387
17941W        W79362  38.414  28.952   1.747
17942W        W79363  27.468  24.647  14.328
17943W        W79364  33.983  20.694   4.732
17944W        W79365  20.146  26.622  11.495
17945W        W79366   6.688  15.263   4.340
17946W        W79367  33.538  31.559  13.506
17947W        W79368  21.149  39.427  12.848
17948W        W79369  23.065  12.784   4.243
17949W        W79370  26.195  26.049  14.315
17950W        W79371  29.477   4.856   0.791
17951W        W79372   3.276   5.420  12.842
17952W        W79373  12.344  38.370   0.256
17953W        W79374  40.933  44.766  10.408
17954W        W79375  25.084  29.062  14.905
17955W        W79376  17.224  15.624  10.630
17956W        W79377  34.038  38.472  12.391
17957W        W79378  20.085  19.550   1.774
17958W        W79379  27.073  27.049  13.980
17959W        W79380  17.191  30.618  10.055
17960W        W79381  13.746  24.171   1.781
17961W        W79382   6.684  17.789   2.667
17962W        W79383  12.320  30.429  14.905
17963W        W79384   0.974  27.545   2.805
17964W        W79385  26.509  37.570  11.541
17965W        W79386  15.655  24.124  13.921
17966W        W79387  40.496  31.924  12.925
17967W        W79388  39.982   2.735  14.954
17968W        W79389  32.070  27.978  14.342
17969W        W79390  40.339  16.660  12.823
17970W        W79391  20.527  17.720   3.821
17971W        W79392   4.401  22.683   5.221
17972W        W79393   3.863  11.636  12.488
17973W        W79394  30.640  31.470   0.932
17974W        W79395  42.508   4.878   0.359
17975W        W79396  11.631  24.610   2.894
17976W        W79397  40.921  39.526  11.568
17977W        W79398   6.700  19.542  10.461
17978W        W79399  12.703  12.706   2.852
17979W        W79400  44.478  11.721  12.934
17980W        W79401  30.154  15.601   4.826
17981W        W79402  27.591  18.224  10.592
17982W        W79403  22.053  36.048  14.777
17983W        W79404  39.392  35.451  10.888
17984W        W79405  25.500  30.971   4.231
17985W        W79406  13.820  24.028   1.256
17986W        W79407  15.708   5.342  14.289
17987W        W79408  42.955  40.887   1.861
17988W        W79409  24.194  25.541   1.258
17989W        W79410   8.183  18.779   1.754
17990W        W79411  30.016  24.599   4.170
17991W        W79412  10.260  34.445   9.953
17992W        W79413  43.921  33.042  14.503
17993W        W79414  10.251  18.144  14.023
17994W        W79415  10.314  34.447   3.161
17995W        W79416   0.788   1.831   0.922
17996W        W79417  11.229  20.693   1.873
17997W        W79418  35.860  35.464   3.807
17998W        W79419  15.192  14.294  14.357
17999W        W79420  28.622  41.489  13.313
18000W        W79421  29.522   9.887  12.339
18001W        W79422  19.589  36.002  11.511
18002W        W79423  29.595  32.572   2.701
18003W        W79424  13.343   7.839  12.350
18004W        W79425  42.784   8.786   1.391
18005W        W79426   3.373  13.680  11.905
18006W        W79427  42.360  16.145  13.000
18007W        W79428   3.899  39.870  14.463
18008W        W79429  23.548   8.235   4.810
18009W        W79430   8.882  42.381   1.226
18010W        W79431  13.329  12.825  12.982
18011W        W79432  27.143   6.918  11.413
18012W        W79433   6.212  10.349   3.760
18013W        W79434  20.253   1.350  11.045
18014W        W79435  12.781  36.562   2.284
18015W        W79436  15.760   7.848  12.491
18016W        W79437   2.946  44.367   4.693
18017W        W79438  29.621  35.989   3.844
18018W        W79439  33.601  19.716   0.303
18019W        W79440  24.132  25.483   2.263
18020W        W79441  33.621  27.079  12.400
18021W        W79442  40.831   0.965  13.380
18022W        W79443  14.635  21.231  12.565
18023W        W79444  42.356  10.721   1.715
18024W        W79445   9.166  37.968   5.168
18025W        W79446  38.962  42.388  12.980
18026W        W79447  33.071  24.636   4.783
18027W        W79448  42.900  20.698  11.080
18028W        W79449  44.756  31.425   3.639
18029W        W79450  16.167  38.457  12.861
18030W        W79451   9.888   0.351  13.897
18031W        W79452  42.290  19.718  10.961
18032W        W79453  43.843  30.653  14.827
18033W        W79454  21.518  28.487  12.966
18034W        W79455  26.978  19.613  13.038
18035W        W79456  14.105  41.991   3.652
18036W        W79457  15.591  34.088  10.047
18037W        W79458   2.961  12.190  12.460
18038W        W79459  37.036  13.347  10.610
18039W        W79460  17.112   7.719  11.590
18040W        W79461   9.676  34.017  14.293
18041W        W79462   2.390  22.218   3.200
18042W        W79463  19.203   9.357  10.461
18043W        W79464  29.474   2.832  13.460
18044W        W79465   0.436  34.407  13.499
18045W        W79466  23.734   0.772  14.446
18046W        W79467  10.683  37.351   0.263
18047W        W79468  24.057   1.742   3.780
18048W        W79469  44.456  25.683  12.416
18049W        W79470  37.006   2.860   2.205
18050W        W79471  16.664   0.492  11.483
18051W        W79472  19.721  29.031   3.652
18052W        W79473  10.308   9.665  14.280
18053W        W79474  33.110  11.252   1.359
18054W        W79475  24.553   8.241  14.844
18055W        W79476   9.883  21.648  11.055
18056W        W79477  19.110   1.923  12.539
18057W        W79478  39.557  29.579   4.802
18058W        W79479  14.168   8.200  14.430
18059W        W79480  19.091  26.480  14.976
18060W        W79481   4.933  38.991   1.828
18061W        W79482  44.404  33.604  13.330
18062W        W79483  22.057  38.325   3.698
18063W        W79484  44.409   7.404   1.359
18064W        W79485  24.723  23.058   4.696
18065W        W79486  24.021  20.663  12.050
18066W        W79487  44.313  40.382  14.866
18067W        W79488  14.216  41.904   4.664
18068W        W79489  22.628   1.479   0.888
18069W        W79490  10.324  17.278   0.832
18070W        W79491  18.289  36.083   4.795
18071W        W79492   9.666   0.287   3.750
18072W        W79493  16.240  26.587  12.862
18073W        W79494   2.748  44.482  12.554
18074W        W79495  34.610  21.050   4.328
18075W        W79496  21.183   2.959  12.986
18076W        W79497   7.330  29.145   1.846
18077W        W79498  19.755  11.624   0.867
18078W        W79499  20.633  28.505  11.123
18079W        W79500  23.050  32.083   3.165
18080W        W79501  23.062  44.834  12.830
18081W        W79502  31.443   3.299   3.187
18082W        W79503  31.409  12.743  14.326
18083W        W79504  11.868  24.176   0.835
18084W        W79505   2.754  14.097  10.438
18085W        W79506  44.934  18.156  10.410
18086W        W79507  26.132  15.099  12.094
18087W        W79508  25.566  34.904  11.984
18088W        W79509  14.750   7.715   2.354
18089W        W79510  43.466  31.528  10.930
18090W        W79511   4.211   3.325   5.706
18091W        W79512  39.923   0.313   3.257
18092W        W79513  18.755   1.902   4.808
18093W        W79514   8.334  36.588  13.517
18094W        W79515  41.522  32.060  10.064
18095W        W79516   5.278  15.786   4.300
18096W        W79517  32.113  40.368  14.827
18097W        W79518   5.307   0.408  14.370
18098W        W79519  19.691  28.173   3.734
18099W        W79520   8.232  12.221   2.865
18100W        W79521   9.214  37.492   1.279
18101W        W79522   9.806  30.912   4.649
18102W        W79523  19.735  26.533  14.310
18103W        W79524  19.767  28.554  12.842
18104W        W79525  17.588  37.986   0.420
18105W        W79526  24.054  14.815   3.658
18106W        W79527  37.495  30.605   0.442
18107W        W79528   7.326  30.417   3.828
18108W        W79529  23.019   8.374  10.470
18109W        W79530  34.108   9.684   0.851
18110W        W79531  32.109  42.795   0.858
18111W        W79532   5.776  32.981   2.212
18112W        W79533   7.905   4.798  13.901
18113W        W79534   6.862  16.255   4.325
18114W        W79535  26.053  26.680  11.891
18115W        W79536  20.145  39.456   0.758
18116W        W79537  36.894  31.074   4.838
18117W        W79538   8.211  22.117  11.948
18118W        W79539  14.296  17.686  13.003
18119W        W79540   9.348   9.307  14.289
18120W        W79541  37.420  10.787   2.278
18121W        W79542  27.077   8.250   2.299
18122W        W79543  28.670   3.941   0.362
18123W        W79544  26.123   1.273   3.795
18124W        W79545  12.118   5.202   2.678
18125W        W79546  41.920  30.567   5.219
18126W        W79547  30.514  29.129  10.571
18127W        W79548  39.840  12.352   5.255
18128W        W79549  22.728  35.948   0.243
18129W        W79550  26.065  40.536   3.321
18130W        W79551  35.405   6.694   3.732
18131W        W79552  21.670  10.870  14.302
18132W        W79553  39.983  10.803  11.102
18133W        W79554  35.420  18.780  11.997
18134W        W79555  24.022  21.251   0.420
18135W        W79556  13.318  35.914  14.359
18136W        W79557  13.261  19.153  12.434
18137W        W79558   8.839  14.794   0.791
18138W        W79559  31.102  35.414  14.949
18139W        W79560  19.237  22.133   1.789
18140W        W79561  43.967  35.401  13.012
18141W        W79562   2.347  14.298  11.602
18142W        W79563  14.609  38.894   4.609
18143W        W79564   9.702  37.017  14.347
18144W        W79565  31.597   4.413   0.841
18145W        W79566  21.072   3.860   4.215
18146W        W79567  31.135   2.448   9.953
18147W        W79568   2.903  40.313   3.837
18148W        W79569  20.705  18.162   2.271
18149W        W79570   8.737  14.684   3.783
18150W        W79571   8.185  44.885   0.800
18151W        W79572  10.285  34.599   0.951
18152W        W79573   3.448  38.537  10.446
18153W        W79574  36.475  19.222  10.914
18154W        W79575  24.496  21.126  12.052
18155W        W79576  11.720   4.772  11.923
18156W        W79577  13.214   2.424   2.408
18157W        W79578  21.186  32.589   2.403
18158W        W79579  10.288   5.225  14.320
18159W        W79580  30.418  14.775   5.101
18160W        W79581  30.011  35.438   2.843
18161W        W79582  11.180  13.785  14.445
18162W        W79583  34.924   8.716   3.298
18163W        W79584  43.341  14.829  14.498
18164W        W79585   5.722  15.775   1.351
18165W        W79586  21.519  32.046  13.023
18166W        W79587  13.780  18.762  13.832
18167W        W79588  16.291  14.633   2.266
18168W        W79589   1.906  18.273  11.920
18169W        W79590  36.939  31.987  11.966
18170W        W79591  30.648   0.489   0.273
18171W        W79592  30.985  20.092   3.811
18172W        W79593  15.136  21.617  12.961
18173W        W79594  35.077  35.388  14.850
18174W        W79595   2.360  23.674  14.469
18175W        W79596  38.944  24.083  12.543
18176W        W79597   1.921  38.850   3.258
18177W        W79598  23.178  32.954   3.687
18178W        W79599  13.138  34.452   2.881
18179W        W79600  21.614  25.598   3.218
18180W        W79601  15.176  43.462   3.295
18181W        W79602  24.124   2.305   3.804
18182W        W79603  18.086  39.498   2.415
18183W        W79604  41.392   3.770  14.854
18184W        W79605  13.722  36.592   4.320
18185W        W79606  35.445  39.019  14.815
18186W        W79607  17.188  37.991   3.153
18187W        W79608  12.325  37.504   0.896
18188W        W79609   1.392  34.491  12.966
18189W        W79610  24.638  37.945  11.455
18190W        W79611  41.435  38.986   3.315
18191W        W79612  11.171  23.064   3.856
18192W        W79613  41.474  27.184  12.413
18193W        W79614  13.725  25.174  14.419
18194W        W79615  31.145  19.564   2.803
18195W        W79616  12.191  21.559  11.949
18196W        W79617  35.388  17.070  12.452
18197W        W79618  16.800  38.068   4.244
18198W        W79619  12.219  29.598   4.292
18199W        W79620   7.301  34.934  10.621
18200W        W79621  37.449  25.558   4.664
18201W        W79622   4.378   2.342  11.122
18202W        W79623  34.885  24.054  13.315
18203W        W79624  22.644  26.182   3.866
18204W        W79625  41.995   3.389   2.241
18205W        W79626  31.112  39.947   2.743
18206W        W79627  44.428   9.182  12.010
18207W        W79628  33.475  29.980   3.255
18208W        W79629  33.399  38.427   2.792
18209W        W79630   2.308  43.000  10.912
18210W        W79631  20.524   9.865   3.322
18211W        W79632  19.736  24.563  14.887
18212W        W79633  17.791  17.676   0.271
18213W        W79634   3.445   9.175  14.487
18214W        W79635   1.414  33.619   0.753
18215W        W79636  25.591  13.278   4.690
18216W        W79637  29.436   7.218   4.664
18217W        W79638  37.532  42.921   1.709
18218W        W79639   9.157   2.918   0.754
18219W        W79640  12.671  33.027  12.407
18220W        W79641  11.800  17.273  12.503
18221W        W79642   0.287   7.380  12.069
18222W        W79643  11.764  43.450  13.449
18223W        W79644  32.999   7.393   1.395
18224W        W79645  41.942  24.982  11.602
18225W        W79646  29.445  28.508   4.198
18226W        W79647  37.873   3.729  14.444
18227W        W79648   8.208  27.671   0.855
18228W        W79649   2.264   1.317  12.922
18229W        W79650  27.044  12.746  13.905
18230W        W79651  13.336  19.144   2.308
18231W        W79652  12.239  18.569  12.066
18232W        W79653   4.276  34.010  13.457
18233W        W79654  11.829  10.231   1.263
18234W        W79655  43.904  33.390  10.063
18235W        W79656  34.076  35.549  10.419
18236W        W79657  36.882  18.286   1.724
18237W        W79658  37.455  41.472   0.900
18238W        W79659  13.838  22.175   3.159
18239W        W79660  41.313  25.640   0.359
18240W        W79661  44.828  33.041   1.375
18241W        W79662  16.155  39.035  13.453
18242W        W79663  30.117   7.293   0.802
18243W        W79664  31.029  19.227   3.364
18244W        W79665  12.850  23.204  14.795
18245W        W79666  31.995  41.852   0.728
18246W        W79667   0.832  39.054  13.402
18247W        W79668  33.084  10.841  12.924
18248W        W79669  30.574  44.339  13.838
18249W        W79670  15.752  41.472  14.510
18250W        W79671  22.507  15.579   4.294
18251W        W79672  25.612  41.940   2.868
18252W        W79673  25.560  17.718  14.491
18253W        W79674  19.728   5.316   4.608
18254W        W79675   2.885  14.332   4.164
18255W        W79676  21.190  31.586   3.337
18256W        W79677   5.738  14.606  11.885
18257W        W79678  11.167  44.762   4.757
18258W        W79679  12.267   4.708   4.609
18259W        W79680  32.987  24.048  14.414
18260W        W79681  12.288  28.968  10.411
18261W        W79682   1.796  30.626   4.187
18262W        W79683   7.909  17.103   3.216
18263W        W79684  44.762   5.347  12.421
18264W        W79685  22.662  31.600  13.371
18265W        W79686  44.769  18.743  11.481
18266W        W79687  38.563  17.698   2.874
18267W        W79688  18.756  23.160  12.921
18268W        W79689  24.040  42.920   3.366
18269W        W79690  41.852  22.149  11.029
18270W        W79691  33.498  30.153  13.926
18271W        W79692  28.018  13.602   2.314
18272W        W79693  40.543   7.288   4.646
18273W        W79694  39.906  44.846   2.374
18274W        W79695  11.243   1.264  14.789
18275W        W79696  42.819  31.071  12.552
18276W        W79697   6.305  30.548  10.574
18277W        W79698  12.325  21.735   4.773
18278W        W79699  10.176  36.904   0.473
18279W        W79700  37.508  31.605   3.364
18280W        W79701  37.937   5.928  10.887
18281W        W79702   4.439  31.952   3.176
18282W        W79703  15.236  21.053   2.812
18283W        W79704   4.846   4.298   4.322
18284W        W79705  24.023  26.619  14.801
18285W        W79706  22.058  43.314  13.903
18286W        W79707  14.283  14.754  12.963
18287W        W79708   0.898   8.671   2.862
18288W        W79709  11.850  27.105  12.376
18289W        W79710   9.314  42.297  12.874
18290W        W79711  10.220  20.740   1.880
18291W        W79712   2.786  10.864   3.319
18292W        W79713  10.232  38.558  11.015
18293W        W79714  32.519  15.131  14.021
18294W        W79715  32.421  20.645  10.909
18295W        W79716  33.995   5.713  10.408
18296W        W79717  33.892   6.385  11.936
18297W        W79718   0.861  16.109   0.474
18298W        W79719  17.240  38.966   1.905
18299W        W79720   6.316  21.208   4.621
18300W        W79721  10.746  22.054  13.988
18301W        W79722  36.925  14.766   1.440
18302W        W79723  20.121  34.090   1.257
18303W        W79724  28.621  23.726  10.511
18304W        W79725  23.666  17.729  14.819
18305W        W79726   8.830  25.212  14.782
18306W        W79727  24.503  31.047  11.907
18307W        W79728   5.243  24.174  10.893
18308W        W79729   5.891  30.006  13.374
18309W        W79730  24.976  41.462  12.418
18310W        W79731  18.665  17.299   1.782
18311W        W79732  34.882  14.275   5.270
18312W        W79733  26.153  24.626   3.344
18313W        W79734  40.456  44.452   0.938
18314W        W79735   1.470  31.427  12.365
18315W        W79736  11.348  34.530   0.289
18316W        W79737  31.408  24.515   0.867
18317W        W79738   5.298  43.335   3.298
18318W        W79739  24.101  26.971  14.460
18319W        W79740   4.942  31.536   1.921
18320W        W79741  35.950  12.671  11.110
18321W        W79742   4.420  24.656   3.854
18322W        W79743  31.418  23.180   0.459
18323W        W79744  24.161  38.870  13.968
18324W        W79745   8.380  11.666  11.469
18325W        W79746  36.437  27.188   0.759
18326W        W79747  15.716  15.269  14.899
18327W        W79748  43.944  27.453  14.893
18328W        W79749   9.731  30.061  13.903
18329W        W79750  24.019  34.083  10.601
18330W        W79751  17.611  10.282   1.344
18331W        W79752  17.642  26.589   2.209
18332W        W79753  11.309  17.762  13.389
18333W        W79754  27.085  33.439   3.697
18334W        W79755  25.567  11.763   1.757
18335W        W79756  11.823  37.870  12.047
18336W        W79757  25.120   4.227  12.912
18337W        W79758   7.405  44.967  11.522
18338W        W79759   8.783  23.570   2.334
18339W        W79760  35.897  30.479   0.853
18340W        W79761  30.525  38.022   4.296
18341W        W79762  31.540   8.325  13.822
18342W        W79763  15.237  33.047  11.549
18343W        W79764  24.577  34.534   1.755
18344W        W79765   3.357  10.359   4.199
18345W        W79766  17.199  40.349   4.632
18346W        W79767  25.612  36.455   3.336
18347W        W79768  30.609  19.122   0.839
18348W        W79769  21.232  22.706   2.866
18349W        W79770  43.482  37.394  13.330
18350W        W79771  22.602  20.051   1.434
18351W        W79772  27.094  12.237  12.970
18352W        W79773  22.081   1.398   4.245
18353W        W79774  31.944   7.268   1.302
18354W        W79775  11.314  30.151   2.289
18355W        W79776   6.879  21.516  14.935
18356W        W79777  10.696  10.817  12.060
18357W        W79778  28.511  13.695  12.363
18358W        W79779  20.195  35.038  12.033
18359W        W79780   3.451  13.337  14.920
18360W        W79781  21.149   6.289   1.253
18361W        W79782  10.190  42.489  12.351
18362W        W79783   7.364  22.709  11.496
18363W        W79784  26.170   7.189   4.325
18364W        W79785   4.343   4.435   0.787
18365W        W79786   1.789  35.484  12.931
18366W        W79787  19.582   2.865   4.668
18367W        W79788  44.979  21.698   3.834
18368W        W79789  39.988   8.828  14.961
18369W        W79790   2.867   7.327   2.346
18370W        W79791   2.343   8.206  13.411
18371W        W79792  35.444   5.738   3.779
18372W        W79793   3.454   0.488  12.413
18373W        W79794   9.840  18.126   0.416
18374W        W79795   2.834   8.344   4.708
18375W        W79796  15.622  17.767  14.838
18376W        W79797   3.266  44.305  11.482
18377W        W79798  18.628   5.322   3.285
18378W        W79799  41.007  22.036   0.871
18379W        W79800  15.696  35.987  14.516
18380W        W79801  44.333  35.871  10.920
18381W        W79802  24.168  36.456  13.375
18382W        W79803   1.873  26.980   2.700
18383W        W79804  16.180  26.486  11.531
18384W        W79805  32.139  26.084   1.315
18385W        W79806  11.180  20.600  13.937
18386W        W79807  26.508  20.085  11.562
18387W        W79808  41.822  32.495   4.748
18388W        W79809  21.579  26.633  12.073
18389W        W79810  15.155  16.231  12.380
18390W        W79811  23.996  35.561  11.599
18391W        W79812  40.404   2.274   2.886
18392W        W79813  35.049  23.086   2.667
18393W        W79814  34.579   0.460   3.629
18394W        W79815  14.589   0.962  12.493
18395W        W79816  12.218  25.178  13.982
18396W        W79817  35.556  39.923  14.817
18397W        W79818  43.470  40.342   3.675
18398W        W79819  25.144   3.898  10.151
18399W        W79820  19.277  34.419  10.614
18400W        W79821  26.004   3.234  13.388
18401W        W79822  20.092   8.660  11.045
18402W        W79823  33.486   2.440   1.241
18403W        W79824  34.450  16.594   3.851
18404W        W79825  43.846  25.204  10.581
18405W        W79826  39.002  19.668   0.260
18406W        W79827   6.380  14.231   5.170
18407W        W79828  16.165   6.335  12.070
18408W        W79829  21.155  30.419  13.488
18409W        W79830  12.318  19.255   0.274
18410W        W79831  18.624  18.279  10.632
18411W        W79832   7.876  38.929  12.527
18412W        W79833  37.361  31.087  13.984
18413W        W79834   7.287  34.594   3.362
18414W        W79835  39.012   1.788   9.919
18415W        W79836  34.466   1.776   2.207
18416W        W79837   9.187  24.510  11.976
18417W        W79838  38.872  29.987   3.777
18418W        W79839  22.215   9.186  11.517
18419W        W79840  21.716  26.558  10.455
18420W        W79841  37.948  37.508   1.238
18421W        W79842   9.333  32.989  12.499
18422W        W79843  10.679  27.503  13.909
18423W        W79844  12.236   4.321  11.485
18424W        W79845  36.078  20.732  11.376
18425W        W79846  30.019  21.612   1.878
18426W        W79847  17.290   2.884  13.534
18427W        W79848  21.113  37.394   3.249
18428W        W79849  20.113   1.258  13.042
18429W        W79850  30.153  29.974   0.849
18430W        W79851  23.231  30.046   1.895
18431W        W79852  36.538  40.357  11.953
18432W        W79853  35.539  31.984   2.682
18433W        W79854   1.802  11.263   0.953
18434W        W79855  28.503  13.212   9.597
18435W        W79856  19.564  23.680  14.312
18436W        W79857  19.123  29.150   4.738
18437W        W79858  10.238  28.524  13.464
18438W        W79859  30.146  38.008  10.533
18439W        W79860  40.993  22.531   3.208
18440W        W79861  26.479  29.948   2.406
18441W        W79862   4.804  43.950   3.174
18442W        W79863   7.295  38.510  12.484
18443W        W79864  24.192  41.431  14.480
18444W        W79865  11.132  12.153  12.913
18445W        W79866  31.596  39.016   2.345
18446W        W79867   2.446  24.636   3.382
18447W        W79868   6.903   9.798  14.941
18448W        W79869   8.867   4.876   0.936
18449W        W79870   5.313   6.354   3.690
18450W        W79871  18.747  13.642   0.453
18451W        W79872   6.282   8.196  11.025
18452W        W79873  28.629  43.998   3.804
18453W        W79874  34.423   7.696  12.488
18454W        W79875   4.850  31.424  14.930
18455W        W79876  43.497  32.431   3.383
18456W        W79877  16.784   2.783  10.489
18457W        W79878  31.004  37.552  14.802
18458W        W79879   9.684  29.667  12.991
18459W        W79880  19.779   9.684   3.339
18460W        W79881  18.699  26.185   3.695
18461W        W79882   7.705  14.095  12.861
18462W        W79883   9.391  38.507  11.878
18463W        W79884  44.353   8.705  14.765
18464W        W79885   3.368  17.637  11.574
18465W        W79886  24.005   9.154   0.393
18466W        W79887   5.253  27.118   5.318
18467W        W79888  37.008  15.689   4.736
18468W        W79889  33.495  32.905   4.659
18469W        W79890  15.162  14.165  10.548
18470W        W79891  44.499  23.590   1.735
18471W        W79892   8.202  19.681   0.348
18472W        W79893  28.090  14.762  10.507
18473W        W79894   1.353  23.560  12.473
18474W        W79895   6.861  41.819   4.683
18475W        W79896  21.235  40.002  12.994
18476W        W79897   6.695  40.887   3.372
18477W        W79898  36.064  13.342  13.010
18478W        W79899  44.261  10.680  13.508
18479W        W79900  26.957   2.744   4.159
18480W        W79901  41.896  20.141   3.781
18481W        W79902  31.107  21.547  10.946
18482W        W79903  44.954   5.282  11.398
18483W        W79904  19.681   9.268  10.506
18484W        W79905  21.593  20.599  12.388
18485W        W79906  25.688  22.999  11.485
18486W        W79907  34.904  13.775   0.797
18487W        W79908  19.537  36.356  14.347
18488W        W79909  12.610  30.042  13.959
18489W        W79910  19.754  19.084   4.685
18490W        W79911   2.847  14.726   0.853
18491W        W79912  40.855  39.444   0.271
18492W        W79913   9.294  30.004  12.874
18493W        W79914  41.944  21.113   3.167
18494W        W79915   8.379  43.936   3.225
18495W        W79916   7.724   7.372  13.843
18496W        W79917  40.548  40.392  14.822
18497W        W79918  25.640  26.141  11.030
18498W        W79919  32.953  44.865   1.413
18499W        W79920  14.603  15.593  13.805
18500W        W79921   2.870   9.165   0.876
18501W        W79922  32.982  28.966  14.354
18502W        W79923  33.970  26.663   0.805
18503W        W79924  29.525  26.038   3.217
18504W        W79925  28.474  25.668   1.233
18505W        W79926  41.925   7.301  14.802
18506W        W79927  12.312  33.986  12.507
18507W        W79928  28.474  43.455  13.458
18508W        W79929   9.696   3.783   0.469
18509W        W79930  25.049  32.022  13.430
18510W        W79931   4.836   1.867   0.958
18511W        W79932  42.286  28.441   4.726
18512W        W79933  20.254  32.394   0.863
18513W        W79934  13.793  30.458   5.261
18514W        W79935  38.963  35.538  14.376
18515W        W79936  21.058  43.281  10.613
18516W        W79937  40.406  34.027   4.343
18517W        W79938   5.923   2.407   3.829
18518W        W79939  41.998  19.617  12.571
18519W        W79940  32.979  28.641   1.351
18520W        W79941  38.353  36.960   0.934
18521W        W79942  12.619  21.173  14.510
18522W        W79943  28.116  44.466   4.632
18523W        W79944  27.953  18.236  14.418
18524W        W79945   4.280  34.076  11.114
18525W        W79946  27.581   3.344   2.268
18526W        W79947  18.677   1.281   4.760
18527W        W79948   2.734  32.947  13.338
18528W        W79949  27.529  34.082  12.492
18529W        W79950  10.744   8.804   4.200
18530W        W79951  23.115   8.266   3.798
18531W        W79952   2.907  14.689  11.977
18532W        W79953  30.644  38.923   4.606
18533W        W79954  33.920   5.337   3.202
18534W        W79955  25.111  38.476   0.762
18535W        W79956  32.438  16.194   3.737
18536W        W79957  38.001  12.772  12.923
18537W        W79958  17.559   7.401  10.917
18538W        W79959  43.301  38.359   1.318
18539W        W79960   6.278  40.804  11.443
18540W        W79961  16.130  15.693   4.171
18541W        W79962  24.544  26.557  10.418
18542W        W79963  17.120  23.677   1.450
18543W        W79964  39.458  30.524  14.801
18544W        W79965  29.981   4.895   4.174
18545W        W79966  33.124   9.378   3.634
18546W        W79967  26.189  21.216   4.116
18547W        W79968  16.096   2.816  11.955
18548W        W79969  13.210  19.080  11.024
18549W        W79970   1.757   7.341  14.344
18550W        W79971  35.085   1.442   0.327
18551W        W79972  21.530   4.858  14.027
18552W        W79973  41.885  41.425   2.736
18553W        W79974   5.729  27.492  13.901
18554W        W79975  34.512   4.751  10.923
18555W        W79976  36.095  34.092  12.964
18556W        W79977   9.175  24.669   0.775
18557W        W79978  35.017  15.219   1.358
18558W        W79979  18.290  35.370  11.067
18559W        W79980  40.988   8.776  12.990
18560W        W79981   9.717  35.093  10.500
18561W        W79982   4.367   5.842   2.278
18562W        W79983  26.119  12.190   3.703
18563W        W79984  22.210  22.996   1.394
18564W        W79985  39.373  22.539  12.523
18565W        W79986  35.424  41.320   4.690
18566W        W79987  31.626   9.829  10.447
18567W        W79988   5.434  39.953  10.126
18568W        W79989   2.410   6.405  14.817
18569W        W79990  25.147   2.360  11.373
18570W        W79991  43.873  44.802   3.288
18571W        W79992  24.067  31.425  11.504
18572W        W79993  23.490  30.054  10.971
18573W        W79994  44.818  32.990  12.904
18574W        W79995  12.791   5.861  13.893
18575W        W79996  25.217  21.097   3.222
18576W        W79997   1.812  32.906   1.923
18577W        W79998  36.505   2.452   3.249
18578W        W79999  30.001  36.359   0.359
18579W        W80000   0.410  12.782  14.761
18580W        W80001  12.260  40.539   0.322
18581W        W80002  25.527  40.342   1.351
18582W        W80003  13.611  21.232  13.463
18583W        W80004  29.453  20.712  13.797
18584W        W80005   7.728  43.474   0.473
18585W        W80006   0.452  43.386   2.858
18586W        W80007  43.486  15.158  14.993
18587W        W80008  35.979  27.451   2.900
18588W        W80009  18.072  40.881  11.423
18589W        W80010   4.376  40.486   0.953
18590W        W80011   9.695  27.646   0.758
18591W        W80012  23.622  34.383  11.394
18592W        W80013  30.620   8.783   4.204
18593W        W80014  11.708  17.098   4.736
18594W        W80015  19.237  18.754   1.835
18595W        W80016  30.658  34.892   2.899
18596W        W80017  27.535  33.571   1.244
18597W        W80018  34.520  24.643  13.021
18598W        W80019  26.534  20.717  14.810
18599W        W80020  11.292  12.840  11.082
18600W        W80021  10.854  41.800   4.276
18601W        W80022  35.956  28.992  13.973
18602W        W80023  33.571  44.818  14.502
18603W        W80024   2.882  27.081   3.864
18604W        W80025  41.981  29.461  12.088
18605W        W80026  36.429   2.256   0.444
18606W        W80027  33.033  16.164   1.833
18607W        W80028  39.354  14.235  14.807
18608W        W80029   8.703   6.888  12.960
18609W        W80030  32.576  41.499  11.932
18610W        W80031  11.763   4.811  10.581
18611W        W80032  36.954   3.271   1.329
18612W        W80033  16.665  34.030   0.920
18613W        W80034  41.948  34.038   3.846
18614W        W80035  36.904  44.433   0.742
18615W        W80036  32.094  11.630   4.304
18616W        W80037  26.144  29.597  12.426
18617W        W80038   6.804  29.430  12.055
18618W        W80039  43.854  33.949  12.835
18619W        W80040   2.882  19.651  12.017
18620W        W80041  25.487  34.995  13.924
18621W        W80042  25.194  29.608   1.791
18622W        W80043  23.029  21.183  13.317
18623W        W80044  22.146   8.214   2.784
18624W        W80045  25.122  23.180   3.658
18625W        W80046  31.617   5.924  14.278
18626W        W80047  19.728  32.944  13.916
18627W        W80048  20.620  35.061  12.983
18628W        W80049  21.188  37.348  12.981
18629W        W80050  30.575  17.086  13.383
18630W        W80051   9.364   8.714  10.514
18631W        W80052  11.696  27.128  11.003
18632W        W80053   1.791  26.701   1.404
18633W        W80054  22.612  28.481   4.219
18634W        W80055  28.507   2.865  11.858
18635W        W80056  22.197  40.965  10.460
18636W        W80057  16.316  17.661   3.158
18637W        W80058  10.171  24.699   4.751
18638W        W80059   8.318  17.770   1.320
18639W        W80060  38.380   2.852   0.385
18640W        W80061  21.117  26.019  11.411
18641W        W80062  44.434   0.393   0.270
18642W        W80063  41.501   3.725   4.741
18643W        W80064  13.836  24.077  14.374
18644W        W80065  22.233  20.740   0.350
18645W        W80066  30.960  10.840  10.992
18646W        W80067  40.379  42.316  14.789
18647W        W80068  36.488  34.989   4.120
18648W        W80069  31.970  42.779   4.256
18649W        W80070   0.486  34.968  13.410
18650W        W80071   4.738   6.818  14.908
18651W        W80072  38.972   9.176  11.046
18652W        W80073  12.348  34.559  14.854
18653W        W80074  38.538  44.755  12.058
18654W        W80075   9.364  22.664  11.938
18655W        W80076   1.400  23.196  14.304
18656W        W80077  29.482   0.851  12.361
18657W        W80078   7.243  44.838  14.821
18658W        W80079  20.054  34.910   3.248
18659W        W80080  37.912  18.672  11.016
18660W        W80081  24.724  41.506   4.838
18661W        W80082  11.868  17.675  14.867
18662W        W80083   9.727  33.943  10.599
18663W        W80084  41.800  28.959  11.581
18664W        W80085  22.631  20.589   0.397
18665W        W80086  11.630  44.356  10.124
18666W        W80087  32.543  13.286   1.922
18667W        W80088  13.224  20.240   4.791
18668W        W80089   0.490   0.330  14.382
18669W        W80090  40.948  23.689   0.331
18670W        W80091  28.635  10.828  12.035
18671W        W80092  30.135   4.874   1.827
18672W        W80093   2.461  27.112   1.389
18673W        W80094  34.871   3.283  14.776
18674W        W80095   1.920   6.358   4.743
18675W        W80096  18.271  34.091  14.412
18676W        W80097  19.084  22.047   3.191
18677W        W80098   0.284  15.719  13.874
18678W        W80099  39.015  17.170  10.103
18679W        W80100  23.008  34.055   3.147
18680W        W80101  41.979  44.944   2.344
18681W        W80102  32.617  32.058   1.837
18682W        W80103  26.107  37.444  14.011
18683W        W80104  19.067   1.750   1.780
18684W        W80105  41.422  12.799  11.396
18685W        W80106  30.467  25.058  10.996
18686W        W80107  34.493  13.276   2.329
18687W        W80108  41.458  27.614   0.256
18688W        W80109  40.928  23.676   4.267
18689W        W80110  11.333   7.247  11.448
18690W        W80111  26.458  24.623   1.831
18691W        W80112  38.482  32.927  10.973
18692W        W80113  16.631  27.009  13.941
18693W        W80114  32.974  25.207   2.301
18694W        W80115  19.599  11.278   0.408
18695W        W80116   5.750   5.264  10.104
18696W        W80117  17.063  41.998   3.861
18697W        W80118   5.429  20.625   3.735
18698W        W80119  44.835  26.516  14.347
18699W        W80120  25.591  14.800   0.394
18700W        W80121  21.523  11.689   4.321
18701W        W80122  28.156  13.348   3.708
18702W        W80123  16.767  11.709  11.974
18703W        W80124  33.923  29.123  11.488
18704W        W80125  11.327  30.441  11.504
18705W        W80126  40.469   4.242  13.972
18706W        W80127  25.157  11.707  11.527
18707W        W80128  40.545  32.537  12.003
18708W        W80129  17.307  20.693   3.679
18709W        W80130   6.790   2.952   2.763
18710W        W80131  12.754  24.199   2.774
18711W        W80132   4.778  24.201   2.724
18712W        W80133   8.896  23.561  13.458
18713W        W80134  28.669  44.824  12.350
18714W        W80135  30.015   2.853   1.740
18715W        W80136  38.961  38.939   3.219
18716W        W80137  42.507   0.935  12.514
18717W        W80138  31.042  19.668   0.347
18718W        W80139   1.241  10.872  14.969
18719W        W80140  34.864  28.985  10.910
18720W        W80141  39.544  15.654  10.457
18721W        W80142   1.909  36.407  11.558
18722W        W80143   4.204  24.061   5.209
18723W        W80144  43.822  32.991   4.269
18724W        W80145  37.041  17.204   4.822
18725W        W80146  29.166  13.177  14.935
18726W        W80147  41.870  10.772  14.475
18727W        W80148  29.926   2.918   2.272
18728W        W80149  11.666  39.332   0.915
18729W        W80150   3.359   3.316   1.926
18730W        W80151   7.784  22.096  14.981
18731W        W80152  14.137  44.459   1.381
18732W        W80153  30.600  16.644  10.438
18733W        W80154   7.281  24.098   0.875
18734W        W80155   7.723  12.725  11.860
18735W        W80156   9.885  24.661  12.521
18736W        W80157   2.959  28.962  12.500
18737W        W80158   2.234  16.150  14.930
18738W        W80159  12.147  28.074  12.400
18739W        W80160  24.103  33.565   0.355
18740W        W80161   3.244   9.765   4.272
18741W        W80162  40.904   6.677  13.952
18742W        W80163  31.478  26.594  10.549
18743W        W80164   5.237  13.301   1.900
18744W        W80165  35.858   6.252  11.570
18745W        W80166  33.093  28.531  14.887
18746W        W80167   4.924  35.105  13.478
18747W        W80168  23.723  38.968  14.309
18748W        W80169  39.980  36.852   0.755
18749W        W80170   6.840  34.060   3.357
18750W        W80171   5.253  14.328   4.614
18751W        W80172  22.597  29.432   1.874
18752W        W80173  16.630  30.949   1.784
18753W        W80174  19.590   0.872  12.469
18754W        W80175   3.352  41.487   4.159
18755W        W80176   7.391   4.846  12.507
18756W        W80177  34.385  27.586  11.472
18757W        W80178   2.722  32.467   3.289
18758W        W80179  43.856  21.181   1.759
18759W        W80180  36.517  14.611   1.817
18760W        W80181  26.037  42.285   1.223
18761W        W80182  33.607  13.170   5.087
18762W        W80183  24.185  18.205  13.308
18763W        W80184  30.075  34.982  13.373
18764W        W80185  28.146   3.291  11.016
18765W        W80186  28.014   2.391  11.959
18766W        W80187  36.505  30.053   3.753
18767W        W80188   6.819   9.679   1.367
18768W        W80189  13.321  39.003  13.852
18769W        W80190  41.929   4.916   3.810
18770W        W80191  23.715  28.061   4.139
18771W        W80192  38.504  40.546   4.166
18772W        W80193  20.049  23.618   4.739
18773W        W80194  34.422  15.182  12.440
18774W        W80195   0.318  40.937   4.301
18775W        W80196  33.927   7.862   1.415
18776W        W80197   5.823  40.860   1.731
18777W        W80198  15.697   1.312  11.115
18778W        W80199  29.068  19.175  11.948
18779W        W80200  10.852  42.509   4.837
18780W        W80201  40.867  25.514   1.887
18781W        W80202  41.883   6.868  11.567
18782W        W80203  34.040  28.459   3.731
18783W        W80204  25.515   4.333  11.898
18784W        W80205   5.309  43.021   3.252
18785W        W80206  17.152  37.350  13.407
18786W        W80207   3.776   5.790   2.693
18787W        W80208  19.622  22.525   4.236
18788W        W80209  33.973  44.760  14.378
18789W        W80210  13.742  27.085   0.930
18790W        W80211  19.190  24.001   1.319
18791W        W80212  30.976  28.022   4.263
18792W        W80213   6.848  18.755  13.455
18793W        W80214  19.762   5.261  14.946
18794W        W80215  32.926  40.029  13.362
18795W        W80216  35.523  23.070  14.969
18796W        W80217  12.202   3.362   3.320
18797W        W80218  38.053  33.622  13.050
18798W        W80219  24.162  27.994   3.758
18799W        W80220  27.522  30.543  11.946
18800W        W80221  13.123  30.155   2.846
18801W        W80222  32.564   0.902  10.428
18802W        W80223   7.796  30.042  12.004
18803W        W80224   2.395  21.533  10.518
18804W        W80225  19.055  26.513  13.415
18805W        W80226  15.785  41.469   2.203
18806W        W80227   4.214  13.819  11.527
18807W        W80228  27.056  40.825   1.722
18808W        W80229  23.084  17.722  10.558
18809W        W80230  23.504  26.962  13.383
18810W        W80231  19.108   7.410  11.082
18811W        W80232   6.218   8.360  12.460
18812W        W80233  23.042   7.386  12.062
18813W        W80234  20.636  22.560  10.527
18814W        W80235  32.096  42.838  12.886
18815W        W80236  19.709  23.700  12.485
18816W        W80237  31.069  41.911   4.614
18817W        W80238   9.835  12.120  12.541
18818W        W80239  13.149  44.952  10.601
18819W        W80240  11.213  36.570  10.592
18820W        W80241   2.327   6.256  13.030
18821W        W80242   8.758  32.471  14.416
18822W        W80243  14.323  40.054   0.318
18823W        W80244   1.736  26.125  14.821
18824W        W80245  20.147  37.424   1.853
18825W        W80246  42.911  38.449   2.346
18826W        W80247  22.164   9.785  12.979
18827W        W80248  30.914  16.604   9.532
18828W        W80249  33.435  32.398  11.046
18829W        W80250  22.202   5.891   0.397
18830W        W80251  41.377  17.217  10.523
18831W        W80252  13.814   7.819  14.393
18832W        W80253  38.871  17.637   2.294
18833W        W80254  20.701  30.541  13.480
18834W        W80255  21.040  17.247  14.835
18835W        W80256  30.118  28.014   0.412
18836W        W80257  25.630  38.035   4.210
18837W        W80258  13.675  37.086  12.033
18838W        W80259   5.854  19.125  14.843
18839W        W80260  12.339  27.001   2.319
18840W        W80261   8.901   8.235  12.865
18841W        W80262  15.301  29.555   5.724
18842W        W80263  43.512  30.925   0.796
18843W        W80264  23.017  12.615   0.907
18844W        W80265  36.480   3.774  11.974
18845W        W80266  23.554   0.410   3.158
18846W        W80267  41.968  10.872  14.919
18847W        W80268  24.134  21.614   1.335
18848W        W80269  43.917  39.967  10.473
18849W        W80270   6.808  17.794  13.026
18850W        W80271  34.035  42.397   4.723
18851W        W80272  19.217   2.448  12.976
18852W        W80273  16.582   3.346  14.920
18853W        W80274   3.287  16.262   2.798
18854W        W80275  14.647  14.712  14.338
18855W        W80276  28.606  28.641  13.864
18856W        W80277  10.650  38.909  10.551
18857W        W80278  38.893  19.193   1.800
18858W        W80279  36.936   7.849   1.311
18859W        W80280  27.477  24.638   3.230
18860W        W80281  11.799  41.394  11.469
18861W        W80282  33.466  28.129   0.794
18862W        W80283  23.018  18.659  13.495
18863W        W80284  44.354   4.409   3.347
18864W        W80285  32.929   0.343  10.510
18865W        W80286  32.397   0.785   2.793
18866W        W80287   6.884  25.977   2.834
18867W        W80288  36.842  17.217  12.837
18868W        W80289  44.439  17.670  11.938
18869W        W80290   6.848  24.139  12.929
18870W        W80291  14.650   8.790   5.297
18871W        W80292  18.114  33.390  10.585
18872W        W80293  13.632  18.297  13.932
18873W        W80294  30.125  42.373   3.156
18874W        W80295  22.209  35.544   2.718
18875W        W80296   1.828  24.978   0.261
18876W        W80297  42.880  41.332   3.812
18877W        W80298  31.119   6.388  12.954
18878W        W80299  34.026  27.069   2.181
18879W        W80300  39.327  39.970  11.096
18880W        W80301  25.212  24.600   1.350
18881W        W80302  15.096  12.206  12.530
18882W        W80303  40.403  35.574  13.383
18883W        W80304  32.035  28.599  12.570
18884W        W80305  40.913   4.789  11.463
18885W        W80306  17.724   4.812   4.119
18886W        W80307   1.446  27.072   1.336
18887W        W80308  27.614  33.443   2.272
18888W        W80309   4.250  36.982   4.292
18889W        W80310  39.382  43.335  12.979
18890W        W80311  24.525  25.644  10.491
18891W        W80312   2.356  37.504  11.431
18892W        W80313  39.430  29.488  10.617
18893W        W80314  41.997  33.546   1.428
18894W        W80315  37.351  20.588  13.934
18895W        W80316  39.825  39.442   2.191
18896W        W80317  28.485  40.837  11.082
18897W        W80318  44.277  23.508   2.344
18898W        W80319  44.454  25.020  10.534
18899W        W80320  32.518  16.795  13.953
18900W        W80321  35.596  16.256   1.217
18901W        W80322  25.030  37.527  13.427
18902W        W80323  12.636   2.277   1.870
18903W        W80324  43.804  21.640  12.536
18904W        W80325  44.870  36.919   3.738
18905W        W80326   0.768  23.614  14.508
18906W        W80327  22.113   1.430  12.032
18907W        W80328   3.875  11.630   2.259
18908W        W80329   5.205   2.256   0.863
18909W        W80330   2.318  24.219   1.874
18910W        W80331  27.483   7.889   4.838
18911W        W80332  30.459  15.712   4.654
18912W        W80333   5.816  15.117   4.205
18913W        W80334  41.974  17.092   1.353
18914W        W80335  32.921  19.088   3.678
18915W        W80336  21.039  23.094   1.342
18916W        W80337  41.905  21.094  11.002
18917W        W80338  34.075  29.114   4.725
18918W        W80339  44.383  18.110   4.798
18919W        W80340  25.514  35.431  10.471
18920W        W80341  17.559  38.830   1.441
18921W        W80342  43.766  15.783  11.374
18922W        W80343  20.154  12.801   4.622
18923W        W80344   2.763  31.100  11.407
18924W        W80345  37.513  27.035   0.811
18925W        W80346  37.913  23.144   2.718
18926W        W80347  38.926  38.393  14.883
18927W        W80348  10.730  26.476  13.496
18928W        W80349  29.160  40.412  13.980
18929W        W80350   0.463  31.567   0.910
18930W        W80351  33.605   6.352  10.489
18931W        W80352   8.181  26.486   2.760
18932W        W80353  21.088   1.309  11.044
18933W        W80354  36.908  25.575   2.408
18934W        W80355  11.166  29.510  13.340
18935W        W80356  27.553   3.927   4.193
18936W        W80357  15.291  17.214  10.919
18937W        W80358  27.067  37.052   3.282
18938W        W80359  12.640  26.126  12.375
18939W        W80360  38.045   9.647   1.840
18940W        W80361  21.531  37.388   0.388
18941W        W80362  19.275   7.276  12.911
18942W        W80363   6.786   2.268  13.906
18943W        W80364   9.332  42.017   2.230
18944W        W80365  31.081  18.207  10.052
18945W        W80366  37.970   8.789   0.288
18946W        W80367  30.144  34.376  11.580
18947W        W80368  18.140   4.779   2.707
18948W        W80369   8.262  35.465  12.059
18949W        W80370  19.776   7.886  11.422
18950W        W80371   1.970   4.274   3.643
18951W        W80372  19.625  22.180  12.957
18952W        W80373  27.990  23.996  13.919
18953W        W80374  27.653  19.137   1.411
18954W        W80375  39.864  19.258   0.890
18955W        W80376  21.236  28.448  12.067
18956W        W80377  30.137  39.936   1.775
18957W        W80378  14.740  37.065  10.559
18958W        W80379   5.788  24.704  13.800
18959W        W80380  39.924  32.591  12.835
18960W        W80381   2.770  33.473  12.042
18961W        W80382  16.182  40.819  11.949
18962W        W80383   5.241   8.318  14.025
18963W        W80384  26.498   1.457   2.897
18964W        W80385  19.144   5.422  13.342
18965W        W80386  22.140  41.032   2.772
18966W        W80387  39.056  43.847  12.013
18967W        W80388   0.318  14.678  14.997
18968W        W80389  17.276  26.532   1.891
18969W        W80390  16.704  42.354  13.836
18970W        W80391  14.168  22.228   2.286
18971W        W80392  26.022  14.656  12.937
18972W        W80393  17.226   3.805   4.250
18973W        W80394  39.506  40.316  11.970
18974W        W80395   9.757  28.981   2.247
18975W        W80396  30.046   0.399   1.894
18976W        W80397   8.874   4.283  12.901
18977W        W80398  43.836  20.523  13.508
18978W        W80399  21.038  40.524   3.217
18979W        W80400  12.121  22.115   2.294
18980W        W80401   6.271  19.752  10.896
18981W        W80402   1.787   9.659  13.900
18982W        W80403  18.246  36.985  10.551
18983W        W80404  44.969  25.670  10.537
18984W        W80405  22.696  33.443  12.449
18985W        W80406  21.243  39.852  11.872
18986W        W80407  28.603   3.794   4.747
18987W        W80408  42.485  30.078  11.044
18988W        W80409   2.409  10.321  13.416
18989W        W80410  24.624   5.315   3.799
18990W        W80411  36.434   0.830  11.067
18991W        W80412  33.976  14.120   2.745
18992W        W80413  23.086  20.208  10.411
18993W        W80414  39.491  21.662   4.126
18994W        W80415  32.530  17.185  14.802
18995W        W80416  34.493   7.262  11.090
18996W        W80417  29.456  38.913  10.034
18997W        W80418  28.464   9.231  10.431
18998W        W80419  30.612  34.090   4.633
18999W        W80420  25.077  14.633  10.946
19000W        W80421  20.676  40.466   2.900
19001W        W80422  32.468  43.998   4.641
19002W        W80423  10.706  35.974   2.867
19003W        W80424  37.479  32.936  13.851
19004W        W80425  41.509  36.089   3.645
19005W        W80426  31.602  19.207   3.163
19006W        W80427  15.753  13.342   5.117
19007W        W80428  19.641  29.668  12.911
19008W        W80429  13.197  29.517   3.642
19009W        W80430  29.596   8.780   3.641
19010W        W80431  28.127  36.975   2.737
19011W        W80432   4.726  26.621  14.009
19012W        W80433  18.093   2.422   4.700
19013W        W80434  39.988  23.165  11.865
19014W        W80435  38.454  33.403   2.771
19015W        W80436  21.549  39.873  12.956
19016W        W80437  11.259  29.977  14.821
19017W        W80438  41.374  40.544  12.847
19018W        W80439  10.671  22.066  12.574
19019W        W80440  39.003   8.785   2.265
19020W        W80441  43.451  14.758   1.283
19021W        W80442   2.812  10.321   4.601
19022W        W80443  24.640  27.617  12.396
19023W        W80444  12.802  32.608  14.468
19024W        W80445   6.203  10.828  11.371
19025W        W80446  14.810   9.327  11.122
19026W        W80447   3.737  32.452   2.825
19027W        W80448  40.987  36.365   0.337
19028W        W80449  13.668   7.892   3.644
19029W        W80450  44.964  11.827  10.627
19030W        W80451  31.428  19.618   3.354
19031W        W80452  39.496  26.476   1.382
19032W        W80453  36.007   1.876   2.808
19033W        W80454  23.079  15.186  10.553
19034W        W80455  27.038  38.466  14.941
19035W        W80456   2.868   0.390   4.199
19036W        W80457  30.092  11.354   2.250
19037W        W80458   7.731  16.724  11.547
19038W        W80459   8.852  15.633  10.058
19039W        W80460  28.153  23.126   4.283
19040W        W80461   6.213  28.468  10.942
19041W        W80462  20.765  28.056  12.443
19042W        W80463  20.555  30.546  12.938
19043W        W80464  10.833  39.442   4.313
19044W        W80465  44.781  37.348   4.630
19045W        W80466  41.915  10.766   1.308
19046W        W80467  11.669  25.523   1.343
19047W        W80468   0.914  24.987   2.717
19048W        W80469  28.105   5.214  13.423
19049W        W80470  32.523  10.698  12.004
19050W        W80471  29.085  31.630   1.420
19051W        W80472  25.671  12.634  12.832
19052W        W80473  30.634   2.243   1.385
19053W        W80474   4.766  30.132   1.931
19054W        W80475  26.025  42.803  14.292
19055W        W80476   4.380  17.779  12.378
19056W        W80477  41.946  20.716  13.041
19057W        W80478  37.945  39.395   2.815
19058W        W80479  40.870   1.269   0.475
19059W        W80480  20.258  39.527  10.926
19060W        W80481   4.821  44.277  13.846
19061W        W80482   6.368   1.823  12.982
19062W        W80483  43.854  43.924   4.805
19063W        W80484  20.109  24.704   0.345
19064W        W80485  27.445  32.908  14.998
19065W        W80486  44.977   8.175  10.419
19066W        W80487   1.936  41.013  11.431
19067W        W80488  13.721  17.280  14.985
19068W        W80489  10.661  35.025   0.946
19069W        W80490  35.948   8.724  13.993
19070W        W80491  30.950  35.508  11.552
19071W        W80492  33.603  11.149   3.207
19072W        W80493  27.053  42.869   1.925
19073W        W80494   9.262   3.786  11.554
19074W        W80495  42.434   0.257  11.109
19075W        W80496  32.471  26.625   9.977
19076W        W80497  37.033   3.939   3.301
19077W        W80498   7.314  10.147   4.727
19078W        W80499  17.590  43.480   1.729
19079W        W80500  11.205   3.814   0.772
19080W        W80501  23.679   4.429   0.897
19081W        W80502  22.504   9.309  12.571
19082W        W80503   6.695   3.886   3.368
19083W        W80504  26.620   6.301   1.395
19084W        W80505  12.742  44.945   4.777
19085W        W80506  11.223  24.019   4.255
19086W        W80507  17.186  39.020  11.551
19087W        W80508  30.525  23.490  14.778
19088W        W80509  30.958  16.666  12.007
19089W        W80510  27.969  16.690   2.856
19090W        W80511   2.851   0.976  14.470
19091W        W80512  16.747  24.572  13.436
19092W        W80513  17.063  26.989  14.804
19093W        W80514  25.040  10.381  14.373
19094W        W80515  43.953  33.034  12.876
19095W        W80516  39.535  43.392   4.269
19096W        W80517  44.775  24.657   3.292
19097W        W80518  16.140   3.797   2.412
19098W        W80519   2.384  14.740  12.375
19099W        W80520  11.696  33.102  10.548
19100W        W80521   4.337   9.373   4.718
19101W        W80522   2.731   9.759   2.237
19102W        W80523  36.904  36.985  13.026
19103W        W80524  30.582  27.997  11.418
19104W        W80525  38.064  29.451   4.757
19105W        W80526  30.157  29.443   3.149
19106W        W80527  24.706  14.200   3.716
19107W        W80528  34.030  18.260   3.704
19108W        W80529  42.455   3.249   3.794
19109W        W80530  39.927   1.409   1.422
19110W        W80531  28.011  16.143   4.302
19111W        W80532   7.778  10.835   3.152
19112W        W80533  26.469  26.676   4.126
19113W        W80534  27.151  25.697  14.766
19114W        W80535  32.629  33.593   1.330
19115W        W80536  26.041  18.261  14.936
19116W        W80537  15.088  20.060   0.466
19117W        W80538  13.193   3.398  11.446
19118W        W80539   8.394  42.979  10.054
19119W        W80540  10.338  42.836  12.912
19120W        W80541   2.779  30.122   4.705
19121W        W80542  13.160  39.339  13.813
19122W        W80543  38.912   5.407  13.543
19123W        W80544  20.220  21.671   2.359
19124W        W80545  15.312  40.895   4.792
19125W        W80546  37.966  32.947   0.940
19126W        W80547  36.976  24.118   4.691
19127W        W80548  21.202  39.486   4.835
19128W        W80549   0.247  23.663  14.794
19129W        W80550  23.229  22.542  13.982
19130W        W80551  30.566  10.869   1.731
19131W        W80552  34.897  33.404   2.205
19132W        W80553  33.958  21.207   4.630
19133W        W80554   6.780  30.587   0.468
19134W        W80555  32.582   6.792   1.364
19135W        W80556   2.315   5.402   5.105
19136W        W80557  40.419  44.964   4.660
19137W        W80558  44.467   4.209  12.877
19138W        W80559  25.564  32.994  11.459
19139W        W80560  36.996  20.135  11.075
19140W        W80561   5.826  35.888   0.282
19141W        W80562  28.475  38.991  11.394
19142W        W80563  25.602  14.100  11.934
19143W        W80564  22.650   5.877  13.356
19144W        W80565  11.710  25.546   3.810
19145W        W80566  29.504  27.991  12.825
19146W        W80567  38.995   6.922   3.745
19147W        W80568  20.764  26.573  11.995
19148W        W80569  42.933  10.699   3.272
19149W        W80570  32.546   7.800   0.319
19150W        W80571   3.734  31.036   1.774
19151W        W80572  33.415   5.750   0.363
19152W        W80573  15.597  16.710  11.969
19153W        W80574  41.827  43.437  12.460
19154W        W80575  18.726  18.641  11.606
19155W        W80576   4.716  24.041  12.044
19156W        W80577   2.883  21.601  13.795
19157W        W80578  17.082  27.538  12.891
19158W        W80579   5.302  33.490   3.171
19159W        W80580  43.306  38.447  11.486
19160W        W80581  41.831   6.700  13.993
19161W        W80582   6.239  35.949  11.497
19162W        W80583  24.164  43.867   0.817
19163W        W80584   0.949  35.093  11.428
19164W        W80585  40.973  25.659   3.710
19165W        W80586  31.093  41.997  14.502
19166W        W80587  37.049  26.657  11.508
19167W        W80588   3.911   0.418  11.006
19168W        W80589  30.500  33.001   4.192
19169W        W80590   2.765  33.940  13.963
19170W        W80591  37.485  15.312  14.453
19171W        W80592  21.066   1.926   1.443
19172W        W80593  21.197  19.172   0.788
19173W        W80594  15.700  32.432   3.243
19174W        W80595  43.958  33.976   4.348
19175W        W80596  29.932  11.329   5.224
19176W        W80597  35.370  39.849   1.803
19177W        W80598   3.285  29.558   2.266
19178W        W80599  30.079   4.225  11.480
19179W        W80600  14.319  10.276   2.182
19180W        W80601  13.708  28.480  13.406
19181W        W80602   3.728  14.289   0.324
19182W        W80603  34.094  16.274   4.776
19183W        W80604  34.877   5.258  14.435
19184W        W80605  33.016  11.148   0.291
19185W        W80606  35.556  43.350  14.832
19186W        W80607  20.185  34.379   0.792
19187W        W80608   2.875  16.672  12.960
19188W        W80609  31.083  39.064  12.031
19189W        W80610  40.901  24.135  11.471
19190W        W80611  10.217  40.494  11.088
19191W        W80612  22.225   1.409  13.386
19192W        W80613  26.653   1.357   1.232
19193W        W80614  14.834  37.541   3.358
19194W        W80615  21.153  34.503  11.861
19195W        W80616  38.879  40.476  13.837
19196W        W80617   2.952  14.199  14.950
19197W        W80618  28.089  40.318  13.929
19198W        W80619  15.586  10.280  12.941
19199W        W80620   9.187  44.442   1.313
19200W        W80621  25.176   3.877   4.827
19201W        W80622  15.240  39.064   4.778
19202W        W80623  23.599  20.256  14.312
19203W        W80624   9.667  24.723  11.457
19204W        W80625  27.655  31.088  14.322
19205W        W80626  42.509  42.324   3.288
19206W        W80627  23.585   8.773   0.827
19207W        W80628  11.698  40.957   4.766
19208W        W80629  31.062  25.663   0.334
19209W        W80630  15.218  38.516  12.351
19210W        W80631  20.216  41.304   1.438
19211W        W80632  15.109  40.396   0.364
19212W        W80633  15.708  39.953  10.999
19213W        W80634  38.038  20.159  11.880
19214W        W80635  37.489  26.625   1.403
19215W        W80636   4.277   0.336   1.281
19216W        W80637   2.409  31.621   2.294
19217W        W80638  25.002  37.428  10.519
19218W        W80639  28.678  17.112  12.904
19219W        W80640   7.406  14.733  14.016
19220W        W80641  27.656  36.957   4.115
19221W        W80642  33.495  44.897  10.496
19222W        W80643  29.092   0.265  11.481
19223W        W80644  18.561  32.970  13.429
19224W        W80645   0.968   4.789  13.489
19225W        W80646  34.973  34.460  11.479
19226W        W80647  28.162   2.937  12.091
19227W        W80648  23.721   0.461   2.282
19228W        W80649  25.010  38.481   4.661
19229W        W80650  29.479  15.629  13.055
19230W        W80651  15.584   5.225   2.389
19231W        W80652  20.638   3.271  12.515
19232W        W80653  43.831  40.960   0.842
19233W        W80654  39.353  34.031  11.472
19234W        W80655   5.419   4.244  10.992
19235W        W80656  13.726  26.098  11.425
19236W        W80657  24.128  20.040   4.137
19237W        W80658   0.261  30.941  11.926
19238W        W80659  20.074  31.541  10.602
19239W        W80660  21.021  36.956   5.234
19240W        W80661  27.577  22.544   0.780
19241W        W80662  30.508  25.117   0.791
19242W        W80663   6.419  25.675   1.290
19243W        W80664   1.440  19.190  10.422
19244W        W80665  42.831  25.092  12.825
19245W        W80666   5.731  24.011   0.851
19246W        W80667  29.983  15.304   4.739
19247W        W80668   6.740   8.753   3.703
19248W        W80669  14.232  43.923   3.804
19249W        W80670   2.433  40.516  11.511
19250W        W80671  22.109  21.045   4.267
19251W        W80672  31.428  25.143  12.444
19252W        W80673  22.091  23.085  14.807
19253W        W80674   3.921  39.483  11.590
19254W        W80675  33.112  12.140   2.320
19255W        W80676  41.431   4.822  10.476
19256W        W80677   2.451  43.334   4.705
19257W        W80678  44.312  34.562  10.026
19258W        W80679   0.388  21.609  13.380
19259W        W80680  30.501  35.368  12.551
19260W        W80681  29.034  40.962  14.500
19261W        W80682  14.204  33.984  11.543
19262W        W80683  18.753   5.420   1.817
19263W        W80684   0.305  25.575   2.766
19264W        W80685  33.614  33.432   2.855
19265W        W80686   8.221  30.151   1.381
19266W        W80687  39.436   0.745   1.772
19267W        W80688   3.440   8.233  11.396
19268W        W80689  14.341  20.088   0.319
19269W        W80690   7.389   1.424  13.033
19270W        W80691  30.595  26.487   1.392
19271W        W80692  15.616  41.010   0.857
19272W        W80693  35.958  36.352  14.790
19273W        W80694  37.467  15.272   4.214
19274W        W80695   8.857  24.686   2.824
19275W        W80696   8.291  17.638   2.692
19276W        W80697  42.859  21.581   0.421
19277W        W80698   5.826  34.386   4.124
19278W        W80699  14.618  25.030  14.865
19279W        W80700  29.000  21.697   3.154
19280W        W80701  35.519  26.488  12.404
19281W        W80702   1.842   3.771  14.998
19282W        W80703  37.889  11.721  12.987
19283W        W80704   4.835  42.500   1.421
19284W        W80705   4.878  16.181  13.880
19285W        W80706  33.035  11.161   4.821
19286W        W80707  33.042  21.698  11.533
19287W        W80708   3.429  26.559  13.982
19288W        W80709  11.707  40.040   3.193
19289W        W80710  34.528   9.778   2.286
19290W        W80711  23.554  15.317   3.257
19291W        W80712   9.295  29.607   2.193
19292W        W80713  13.295  27.683   4.158
19293W        W80714   9.697  27.596   1.246
19294W        W80715   8.165  29.977  13.003
19295W        W80716  12.845   0.793   0.923
19296W        W80717  44.303  15.766  11.386
19297W        W80718  10.670  10.243  14.455
19298W        W80719   1.888  37.068  10.900
19299W        W80720   9.219  28.485  14.028
19300W        W80721  19.596  28.451   2.243
19301W        W80722  34.371  18.764   4.825
19302W        W80723   5.819  41.927   1.821
19303W        W80724  10.371   8.394  14.012
19304W        W80725  17.672  44.394   4.797
19305W        W80726  42.969  21.541   1.698
19306W        W80727  31.092  38.039   1.370
19307W        W80728  29.554  21.572   1.437
19308W        W80729  18.607  42.802  10.625
19309W        W80730  14.683  44.420   4.644
19310W        W80731  36.583  40.313  14.378
19311W        W80732   1.479   5.774   3.235
19312W        W80733  37.472  32.050   2.721
19313W        W80734  21.204  26.474  14.772
19314W        W80735  41.500   8.843   3.218
19315W        W80736  40.050  23.053  13.451
19316W        W80737  32.928  34.560   0.923
19317W        W80738  26.559  29.060  12.049
19318W        W80739   2.877  43.957  13.531
19319W        W80740  12.146  42.963  13.433
19320W        W80741  26.675  19.204   0.374
19321W        W80742  32.016  42.382   0.441
19322W        W80743  15.236  23.552  10.981
19323W        W80744   5.313   2.466  13.442
19324W        W80745  28.076   2.898   4.750
19325W        W80746   9.654  33.559  11.468
19326W        W80747  23.521  15.601  10.983
19327W        W80748   4.786  28.666   0.399
19328W        W80749  29.956   9.175  14.472
19329W        W80750   6.262   7.263   3.816
19330W        W80751  33.451  11.663  13.856
19331W        W80752  44.478  22.525   1.363
19332W        W80753   1.827  16.098  11.610
19333W        W80754  18.580  24.975   0.284
19334W        W80755  12.147  13.834  11.914
19335W        W80756  36.384  40.806  13.444
19336W        W80757  34.107  32.571   0.403
19337W        W80758  23.046  19.666   0.825
19338W        W80759  28.934   6.235   3.208
19339W        W80760   2.413  44.479  10.404
19340W        W80761  43.335  29.593   1.902
19341W        W80762  18.554  13.118  11.413
19342W        W80763   7.755  32.093   9.975
19343W        W80764  37.485  27.134  14.400
19344W        W80765  35.495  40.527  14.847
19345W        W80766  13.245  24.005  10.520
19346W        W80767   0.258   9.186   0.329
19347W        W80768  12.656  28.041  10.539
19348W        W80769  33.925   0.276  13.453
19349W        W80770   4.320  10.332   1.792
19350W        W80771  36.084  23.019  12.456
19351W        W80772  39.967   2.298   1.333
19352W        W80773   2.782  24.591   3.379
19353W        W80774  33.897  25.636   1.358
19354W        W80775  25.588  10.653  13.001
19355W        W80776  41.307   6.284   2.374
19356W        W80777  42.356  24.552   1.821
19357W        W80778  14.805   1.328  12.085
19358W        W80779   6.848  14.693  14.779
19359W        W80780  35.555  11.154  12.954
19360W        W80781  31.955  13.327   0.840
19361W        W80782   9.363  27.575  13.898
19362W        W80783  40.866  15.732   9.672
19363W        W80784  26.959  38.566   0.443
19364W        W80785  28.454  24.555  10.889
19365W        W80786   1.937   5.711   0.950
19366W        W80787  26.480  19.251   1.337
19367W        W80788  24.044  13.755   3.629
19368W        W80789   7.783   8.767  14.439
19369W        W80790   3.820  24.683   3.636
19370W        W80791  31.009  13.335  14.457
19371W        W80792  31.009  16.120  14.507
19372W        W80793  37.066  42.855  13.969
19373W        W80794   7.217  30.154   1.737
19374W        W80795  13.680  21.077   2.258
19375W        W80796  37.353  14.783   3.697
19376W        W80797  20.638  14.754  14.935
19377W        W80798  44.776  23.691  10.433
19378W        W80799  42.813  15.316   4.830
19379W        W80800   8.718  23.524  11.124
19380W        W80801  33.901   8.817   1.390
19381W        W80802  13.142   7.858  13.507
19382W        W80803  43.893  18.616  10.541
19383W        W80804   4.255  36.953   1.820
19384W        W80805  17.799  41.475  11.035
19385W        W80806  35.944   3.800   1.323
19386W        W80807  27.550  36.524   2.759
19387W        W80808  13.112  27.502  13.457
19388W        W80809  37.078   0.267   9.933
19389W        W80810  33.496  15.600  11.455
19390W        W80811  40.998   3.312   4.722
19391W        W80812   3.877  40.308   2.271
19392W        W80813  10.838   8.675  13.509
19393W        W80814   4.705  34.039  13.973
19394W        W80815  36.518  21.185  12.834
19395W        W80816   5.716  34.384  13.022
19396W        W80817  23.691  28.000   3.280
19397W        W80818  22.026  28.654   1.385
19398W        W80819  13.727  36.514  11.082
19399W        W80820  21.221  13.747  11.531
19400W        W80821   6.340  13.639  10.035
19401W        W80822  43.980  21.528   2.344
19402W        W80823  19.217   4.323  10.900
19403W        W80824  20.147  34.492   2.819
19404W        W80825  42.409   4.296   2.250
19405W        W80826  14.174  22.674  13.061
19406W        W80827   8.191  12.334   0.856
19407W        W80828  33.508  14.122   2.696
19408W        W80829  34.100  40.343  14.795
19409W        W80830  18.779  31.033   3.150
19410W        W80831  44.802  40.303  11.045
19411W        W80832  40.472  10.243   1.246
19412W        W80833  38.901  17.561   0.339
19413W        W80834  35.444  13.278   4.262
19414W        W80835  31.602  39.940   1.385
19415W        W80836  32.636  43.324  13.542
19416W        W80837  39.520   5.795   2.273
19417W        W80838  16.233  35.004   3.843
19418W        W80839  37.018  10.869  14.337
19419W        W80840   3.808   8.293  13.343
19420W        W80841  30.070  15.741  14.466
19421W        W80842  29.449  14.616   3.711
19422W        W80843  20.161   9.810   0.908
19423W        W80844  34.562  29.930   1.714
19424W        W80845   4.292   9.724  11.478
19425W        W80846  24.685  26.187  14.930
19426W        W80847  24.644   0.267   1.272
19427W        W80848  38.009  35.985  11.501
19428W        W80849  20.065   0.477  13.040
19429W        W80850  25.648  22.134   4.143
19430W        W80851  41.870  20.631  12.362
19431W        W80852   9.167  37.055   0.793
19432W        W80853  28.629  26.178   4.131
19433W        W80854  44.309  11.142   2.733
19434W        W80855  28.568  10.225  14.454
19435W        W80856  19.053  35.371  14.288
19436W        W80857   7.733  42.454   9.956
19437W        W80858  40.383   4.270  10.914
19438W        W80859   9.209  32.917   4.315
19439W        W80860  32.915  15.168  13.462
19440W        W80861  24.164  21.677   2.395
19441W        W80862  24.512  24.636   0.361
19442W        W80863  41.320  28.641   0.283
19443W        W80864  38.550  37.469   2.179
19444W        W80865  27.144  14.285   4.812
19445W        W80866  41.311  26.632  12.944
19446W        W80867  32.950   2.753  13.432
19447W        W80868   3.750  28.942  11.596
19448W        W80869  24.480  10.148  13.506
19449W        W80870  21.162   2.371   1.423
19450W        W80871  30.440  15.672  12.046
19451W        W80872   8.767  10.812   4.249
19452W        W80873  26.568  40.545  13.528
19453W        W80874   0.800  10.173   2.683
19454W        W80875   6.740  44.394   0.863
19455W        W80876  19.087  15.620  10.513
19456W        W80877  19.641  43.335   1.848
19457W        W80878   5.332  33.979   2.402
19458W        W80879  33.068  42.472  11.948
19459W        W80880   7.733  37.548   0.343
19460W        W80881  31.114  23.491  14.331
19461W        W80882  24.543  28.653  14.857
19462W        W80883   1.865   0.885  12.483
19463W        W80884  17.614   2.874  11.381
19464W        W80885  42.410  41.891   3.752
19465W        W80886   9.822  32.448  14.777
19466W        W80887  11.167  40.977   9.451
19467W        W80888   6.278  26.003   1.794
19468W        W80889  35.911  13.621   4.207
19469W        W80890   6.225  34.882   4.321
19470W        W80891   0.805  43.397   0.371
19471W        W80892  28.174  26.695  11.482
19472W        W80893  38.861  12.149  13.338
19473W        W80894  15.085   3.859  10.444
19474W        W80895  30.467   6.841   1.234
19475W        W80896  13.634  14.305  12.344
19476W        W80897   5.396  40.846  14.279
19477W        W80898  38.542   4.928  11.557
19478W        W80899  42.854   6.765   2.875
19479W        W80900  43.896  20.188   4.752
19480W        W80901  38.560  15.696   3.308
19481W        W80902  27.548  25.084   2.702
19482W        W80903   1.776  30.094   2.333
19483W        W80904  26.198  28.073   4.702
19484W        W80905   4.211  40.523   2.409
19485W        W80906   4.387  30.079   3.155
19486W        W80907  43.348   2.267   4.815
19487W        W80908  25.568  31.573  10.952
19488W        W80909  21.602   0.800   0.400
19489W        W80910  32.431  14.192   4.799
19490W        W80911  33.415   6.263   1.379
19491W        W80912  42.958   2.926   0.372
19492W        W80913  24.713   9.172   2.327
19493W        W80914  10.317   1.975  14.795
19494W        W80915  17.085  32.022  11.057
19495W        W80916  42.814   6.699   4.303
19496W        W80917  34.969  13.195   1.390
19497W        W80918  36.898  21.107   4.770
19498W        W80919  33.437  40.844   4.117
19499W        W80920  28.493  43.858   2.864
19500W        W80921  21.724   2.865   2.867
19501W        W80922  10.211  24.508  11.536
19502W        W80923  11.857  37.933  10.100
19503W        W80924   4.416  12.170   3.659
19504W        W80925   0.364  10.666  13.368
19505W        W80926   1.842  25.679   4.233
19506W        W80927  32.602  25.526  10.953
19507W        W80928  20.182  25.708   2.363
19508W        W80929  39.868  19.750  14.887
19509W        W80930  20.271   3.391   1.922
19510W        W80931   1.772  26.983  13.357
19511W        W80932  27.466  11.372  11.590
19512W        W80933  39.508  28.650  13.380
19513W        W80934  37.504   4.363   0.817
19514W        W80935   1.962   3.352   3.804
19515W        W80936  43.353  37.527   3.164
19516W        W80937  25.689  29.042  13.055
19517W        W80938  18.159  22.565  14.293
19518W        W80939  23.540  25.692   2.725
19519W        W80940  22.692  26.476   5.093
19520W        W80941  39.414  37.541  14.823
19521W        W80942  13.165  25.192   2.820
19522W        W80943   7.273  21.750   3.308
19523W        W80944  25.491  23.562   4.793
19524W        W80945  21.754   6.322   3.212
19525W        W80946   8.233  17.664  13.535
19526W        W80947   5.779   6.850   2.859
19527W        W80948  21.658  29.022  13.430
19528W        W80949  24.579  31.946   2.765
19529W        W80950  41.312  12.847  11.871
19530W        W80951   3.404  15.816  12.071
19531W        W80952  26.186  14.113   2.209
19532W        W80953  37.349  27.574   2.681
19533W        W80954  33.387  41.974  12.884
19534W        W80955   4.914  12.132  11.074
19535W        W80956  39.368  36.948  11.898
19536W        W80957   4.768  18.050  11.554
19537W        W80958  34.473  36.939   0.315
19538W        W80959   8.790   7.346   4.640
19539W        W80960  21.094  18.593  11.605
19540W        W80961   5.769   0.838   1.872
19541W        W80962  11.129  13.780  12.470
19542W        W80963  19.631   5.791   0.318
19543W        W80964  40.041  41.452  14.837
19544W        W80965   8.700   8.721  13.039
19545W        W80966   9.644  35.388  13.405
19546W        W80967  20.235  30.075  12.344
19547W        W80968  20.153  39.470   2.824
19548W        W80969   5.387  15.717   1.300
19549W        W80970   8.793   9.221  10.617
19550W        W80971  37.524  25.071  14.836
19551W        W80972  35.423  43.992  11.871
19552W        W80973  24.036  10.815  12.044
19553W        W80974  26.577  40.501   0.324
19554W        W80975  16.714  33.536  12.347
19555W        W80976  43.931  16.784  12.438
19556W        W80977  11.732  33.089  12.481
19557W        W80978  36.032  41.486   1.801
19558W        W80979  30.547  14.710  14.811
19559W        W80980  43.862  44.491   2.278
19560W        W80981  17.143  33.959   2.672
19561W        W80982  12.841   6.759  11.512
19562W        W80983  41.525  40.927   3.790
19563W        W80984  25.161  12.614  12.939
19564W        W80985   9.251  13.148   0.743
19565W        W80986   6.691   0.817   2.278
19566W        W80987  32.398  19.066   1.750
19567W        W80988  11.200  13.342  10.521
19568W        W80989  31.985  16.793   3.267
19569W        W80990  32.125  25.204  11.525
19570W        W80991  36.034   1.373   9.982
19571W        W80992  39.951  15.579   0.271
19572W        W80993   5.275  34.390  11.433
19573W        W80994  20.680  13.612  13.914
19574W        W80995  25.091  32.506  11.393
19575W        W80996  27.963  30.541   3.674
19576W        W80997   1.856  10.789  11.872
19577W        W80998  28.047  43.292   1.324
19578W        W80999   0.265  30.953  13.003
19579W        W81000   2.262  11.850  14.319
19580W        W81001  44.942  21.186  10.527
19581W        W81002  20.728  11.665  13.828
19582W        W81003   5.289  12.197   3.634
19583W        W81004   5.709  32.568   3.238
19584W        W81005   3.927  20.258   1.716
19585W        W81006  42.858  27.642   2.264
19586W        W81007  19.725   0.268   4.321
19587W        W81008  31.614  10.342  10.485
19588W        W81009  13.676  40.356   4.608
19589W        W81010  37.578  43.017  11.460
19590W        W81011  35.362  13.106  14.961
19591W        W81012   9.308  17.124   2.242
19592W        W81013  24.529  23.024   3.724
19593W        W81014  30.986   4.271   1.767
19594W        W81015  21.532   2.794  12.346
19595W        W81016  33.395  10.335  10.642
19596W        W81017  44.320  34.434   4.263
19597W        W81018  25.558   0.939  14.854
19598W        W81019  24.077  26.566   5.164
19599W        W81020  39.998   7.911  13.447
19600W        W81021  25.478  31.145   4.680
19601W        W81022   3.390   7.363   2.199
19602W        W81023  40.928   6.890  12.389
19603W        W81024  43.962  37.971  12.901
19604W        W81025  10.310  26.170   4.602
19605W        W81026  13.223  32.451   2.333
19606W        W81027  29.002  27.087   1.301
19607W        W81028  19.648  19.113   3.724
19608W        W81029  28.148   2.834   2.236
19609W        W81030  25.157  21.044  14.304
19610W        W81031  23.596   7.812  10.939
19611W        W81032  17.244  18.087   3.677
19612W        W81033   2.798   6.284   0.289
19613W        W81034   0.454  11.358  12.499
19614W        W81035  15.751  11.344   4.290
19615W        W81036  27.986   1.962   9.995
19616W        W81037   2.746  28.514   4.336
19617W        W81038  16.246  11.711   2.374
19618W        W81039  38.065   7.739  11.475
19619W        W81040   8.782   4.294   2.378
19620W        W81041  37.984  12.159  14.456
19621W        W81042  27.622   2.796   3.232
19622W        W81043  24.715  27.123   3.363
19623W        W81044  16.612  34.991   4.824
19624W        W81045  38.040  39.483  14.986
19625W        W81046  13.705  17.077   0.432
19626W        W81047  40.464   2.959  11.890
19627W        W81048  16.186  38.830   4.352
19628W        W81049   0.982  32.106   2.676
19629W        W81050   0.939  43.281  12.944
19630W        W81051   7.348  25.543   2.830
19631W        W81052  43.830  21.677  13.909
19632W        W81053  27.561  42.807  13.464
19633W        W81054  39.892  33.512   1.426
19634W        W81055  26.504  13.783   4.786
19635W        W81056  26.079  11.654  12.081
19636W        W81057  15.281   8.746  11.415
19637W        W81058  21.042  13.835   4.269
19638W        W81059   0.779   9.389  12.486
19639W        W81060  20.631  33.125   1.803
19640W        W81061   3.814  14.699   2.877
19641W        W81062  24.508  41.936  13.537
19642W        W81063   8.346  30.029  12.519
19643W        W81064  14.295  33.626   0.772
19644W        W81065   1.747  39.497  14.410
19645W        W81066   4.300   1.961   3.301
19646W        W81067  42.855   3.258  10.430
19647W        W81068  29.586  33.993   1.792
19648W        W81069  40.956  39.020  11.426
19649W        W81070  12.645  13.771   2.808
19650W        W81071  31.430  12.808   1.278
19651W        W81072  41.328  44.386   1.828
19652W        W81073  30.152  14.145   2.834
19653W        W81074  17.283  44.758  12.981
19654W        W81075  28.082  38.039   2.785
19655W        W81076  44.976  24.162   0.908
19656W        W81077   9.365  17.303  12.988
19657W        W81078  44.410  39.876  14.999
19658W        W81079  31.012  10.875  12.872
19659W        W81080  13.672  24.189  13.040
19660W        W81081  43.409  12.825   5.091
19661W        W81082  29.530  25.180   1.318
19662W        W81083  11.867  13.658   4.329
19663W        W81084  20.150  16.117   2.853
19664W        W81085  41.005  18.556  12.392
19665W        W81086  33.115   8.787  13.484
19666W        W81087  19.642  21.549   3.853
19667W        W81088  14.626  22.139   1.367
19668W        W81089   4.255  25.617  11.403
19669W        W81090  35.485   0.350  12.458
19670W        W81091  37.393  27.467  12.571
19671W        W81092  25.111   2.931  13.017
19672W        W81093  37.467   2.398   5.648
19673W        W81094  14.259  17.160  11.381
19674W        W81095  23.618   3.232   1.806
19675W        W81096  42.958  40.909   4.769
19676W        W81097  35.581  44.915  11.568
19677W        W81098   2.891  17.592   3.731
19678W        W81099  20.692  17.802   0.884
19679W        W81100   3.289  21.605  11.520
19680W        W81101  44.920  23.533   2.281
19681W        W81102  37.876   3.338  11.900
19682W        W81103   4.315  26.462   2.367
19683W        W81104  21.239   5.414   3.220
19684W        W81105  38.379  29.923  14.764
19685W        W81106   0.315  24.684  12.500
19686W        W81107  15.591  22.205   4.809
19687W        W81108   7.375   4.806  14.809
19688W        W81109  28.677  17.724   4.291
19689W        W81110   9.288  33.398  12.936
19690W        W81111  44.448  37.986   2.409
19691W        W81112  32.074  10.273   0.960
19692W        W81113  25.123   4.706  14.425
19693W        W81114  31.949  35.453  13.888
19694W        W81115  27.071  12.181  11.518
19695W        W81116  41.935  41.294   2.394
19696W        W81117   9.699  15.269   0.411
19697W        W81118  21.250  16.641   1.294
19698W        W81119  33.437   9.736   2.875
19699W        W81120  38.011  19.658   3.713
19700W        W81121  23.001  34.863  11.060
19701W        W81122  37.875   1.749  13.040
19702W        W81123  32.131   6.390  11.906
19703W        W81124  24.564  40.541  13.460
19704W        W81125  20.715  25.995  12.581
19705W        W81126  37.966   2.754  14.943
19706W        W81127  32.954  33.890  11.070
19707W        W81128   2.324  16.138   1.265
19708W        W81129  37.362   6.195  10.502
19709W        W81130   4.412   2.233   2.730
19710W        W81131  23.636  43.885  14.807
19711W        W81132   3.217  41.889   4.617
19712W        W81133  40.816  38.333   0.931
19713W        W81134   8.269  10.655  12.504
19714W        W81135  32.900  43.397   0.897
19715W        W81136  41.380  29.628  12.567
19716W        W81137   0.406  23.146   1.380
19717W        W81138   6.251  20.527  12.886
19718W        W81139  26.023  37.436  13.490
19719W        W81140  19.741  41.517   1.768
19720W        W81141  35.409   5.815  13.979
19721W        W81142  39.422  33.952  12.518
19722W        W81143   6.372  34.564   4.207
19723W        W81144  37.849   4.425   0.405
19724W        W81145  42.013   8.778   0.442
19725W        W81146   8.820  29.961   4.306
19726W        W81147  36.376  32.629   4.274
19727W        W81148  33.561  20.666   0.253
19728W        W81149  27.497  34.600   3.280
19729W        W81150  25.966  19.255  10.484
19730W        W81151  35.061  22.164   3.174
19731W        W81152   1.416  11.728   0.829
19732W        W81153   2.732  18.198   4.817
19733W        W81154  10.236  19.112  12.477
19734W        W81155   5.705   7.899  12.452
19735W        W81156   3.774  15.711  13.010
19736W        W81157  42.510   8.807   0.905
19737W        W81158  24.488  26.681   4.180
19738W        W81159  32.070  27.099   1.836
19739W        W81160  42.527  29.083  10.981
19740W        W81161   1.247  30.045   0.359
19741W        W81162  35.558  40.885   3.370
19742W        W81163  17.719  39.006   2.864
19743W        W81164  42.476  18.217   4.261
19744W        W81165  15.276  18.164   3.183
19745W        W81166   7.273  39.028   0.733
19746W        W81167   5.811   3.824   4.344
19747W        W81168  10.793  11.667   1.795
19748W        W81169   6.222  40.546  12.363
19749W        W81170  43.975  39.545  14.354
19750W        W81171  14.195   9.173   3.237
19751W        W81172  16.104  37.345  12.988
19752W        W81173  44.906  38.880   1.210
19753W        W81174   3.259   6.737   1.701
19754W        W81175   2.933   5.820   1.766
19755W        W81176  18.081  27.483  12.931
19756W        W81177  39.007  40.885  10.476
19757W        W81178  37.505  42.027  13.315
19758W        W81179  37.003  10.857   4.329
19759W        W81180  44.003  20.220   2.811
19760W        W81181  30.011  28.144   2.683
19761W        W81182   7.778  19.590  12.890
19762W        W81183  32.530  10.785  12.829
19763W        W81184  29.584  44.886   0.768
19764W        W81185  16.148  31.618   2.295
19765W        W81186   6.820  12.294  13.049
19766W        W81187  28.951  20.652  10.575
19767W        W81188   8.883   2.801   4.217
19768W        W81189   1.886   4.754  11.128
19769W        W81190  20.607  44.981   1.295
19770W        W81191  19.082  31.484  10.993
19771W        W81192   2.823   3.260   2.884
19772W        W81193  30.494  28.170   1.388
19773W        W81194  42.514  14.294   0.374
19774W        W81195  24.219  15.287  13.910
19775W        W81196   6.355  16.254  13.877
19776W        W81197  19.233  31.426  13.505
19777W        W81198   2.740   3.296  13.807
19778W        W81199   5.773  12.690   3.636
19779W        W81200   8.775  30.462  11.923
19780W        W81201  18.085  26.199  11.577
19781W        W81202   6.339  12.806   0.951
19782W        W81203  37.978  40.845   3.224
19783W        W81204   8.213  42.400   2.860
19784W        W81205   9.691  15.644   3.680
19785W        W81206  11.820  21.681   9.990
19786W        W81207  24.169  36.965  13.412
19787W        W81208  32.130   9.759  12.981
19788W        W81209  37.404  25.136  11.972
19789W        W81210  35.047  30.100  11.478
19790W        W81211   6.771  38.906  13.899
19791W        W81212   7.761  40.825   3.646
19792W        W81213   7.344   1.832   0.252
19793W        W81214   0.361  28.591  12.348
19794W        W81215  17.255  34.440  12.085
19795W        W81216   8.174  33.398   4.242
19796W        W81217  23.592  44.793  12.518
19797W        W81218  27.070   9.837  11.126
19798W        W81219   6.764  43.926  11.122
19799W        W81220  17.180  33.382  14.422
19800W        W81221   2.277  26.109   0.883
19801W        W81222   6.784  25.984  14.880
19802W        W81223   3.220   6.266  13.542
19803W        W81224  11.754  21.229   2.335
19804W        W81225   5.241   1.840  12.352
19805W        W81226  31.058  28.983  12.871
19806W        W81227  16.137   0.746  14.772
19807W        W81228   2.347  13.185   1.873
19808W        W81229  36.977   7.311   0.460
19809W        W81230  14.827  14.689  13.853
19810W        W81231  32.533   8.657   3.724
19811W        W81232  41.994  36.555  14.897
19812W        W81233   0.820  34.611  12.025
19813W        W81234  36.589  28.516  13.863
19814W        W81235  12.241  25.194   1.790
19815W        W81236  13.237   9.655  10.935
19816W        W81237  15.680   2.253  11.490
19817W        W81238  33.016   4.717  14.926
19818W        W81239  10.654   0.259  14.330
19819W        W81240  19.062   3.250  11.586
19820W        W81241  10.157   9.351   2.315
19821W        W81242   6.692  19.195  13.977
19822W        W81243  12.625  33.062   3.728
19823W        W81244   9.240  41.034  12.492
19824W        W81245  28.159   1.325  11.914
19825W        W81246  22.644  22.647   4.750
19826W        W81247  18.736  11.653   4.695
19827W        W81248  35.584  15.268  13.339
19828W        W81249  29.996  37.004   4.786
19829W        W81250  18.260  18.694  14.486
19830W        W81251   8.346   0.494  12.425
19831W        W81252   9.363  27.951  10.516
19832W        W81253  44.258  39.443   3.311
19833W        W81254  39.901   4.913   3.773
19834W        W81255  42.369  16.631  14.487
19835W        W81256  11.720  39.436  11.545
19836W        W81257   4.404  30.040   4.693
19837W        W81258   3.429  16.232   3.839
19838W        W81259  35.500  11.665   4.270
19839W        W81260  34.518  18.200  14.895
19840W        W81261  40.957  18.627  11.869
19841W        W81262  20.591  17.069   2.740
19842W        W81263   4.810  21.249   4.725
19843W        W81264  26.629  28.546   0.761
19844W        W81265   2.821  35.983  11.886
19845W        W81266  42.481  42.413  12.068
19846W        W81267  33.940   1.953   0.477
19847W        W81268   0.793   5.780   3.278
19848W        W81269   8.669   2.893  10.522
19849W        W81270  19.182  43.439   0.430
19850W        W81271  25.497  14.098   1.341
19851W        W81272  19.741   1.467  13.798
19852W        W81273   3.938  18.182   4.269
19853W        W81274  18.232  42.391  11.950
19854W        W81275   4.715  22.533   4.247
19855W        W81276   6.191  11.681   0.437
19856W        W81277  16.806  37.067  13.845
19857W        W81278  35.098  14.714  13.321
19858W        W81279  42.338  18.765  11.416
19859W        W81280  40.473   9.283  11.976
19860W        W81281   2.855  16.145   1.829
19861W        W81282  21.262  10.303  13.383
19862W        W81283  15.779  43.868   1.931
19863W        W81284  38.059  31.923  13.509
19864W        W81285   2.366  32.082   2.222
19865W        W81286  27.629  23.687   2.334
19866W        W81287  20.631  40.495  12.488
19867W        W81288  34.468   5.387   5.311
19868W        W81289   8.248  23.162   4.229
19869W        W81290  30.999  23.526  11.395
19870W        W81291  18.133  11.232   0.301
19871W        W81292  24.622  43.278   4.760
19872W        W81293  16.663   1.316  13.371
19873W        W81294  32.055  24.508   0.775
19874W        W81295  25.566   7.860  12.857
19875W        W81296  23.561  24.061   1.899
19876W        W81297  14.105  30.588  11.936
19877W        W81298   3.429  28.575  14.319
19878W        W81299  20.693  22.225  13.380
19879W        W81300   0.951  35.404   2.267
19880W        W81301  43.939  36.098  11.552
19881W        W81302  31.131  43.793  10.556
19882W        W81303   7.198  14.609   1.821
19883W        W81304   5.374  19.225   0.880
19884W        W81305  17.767  30.158   0.794
19885W        W81306   0.318  39.458   2.336
19886W        W81307   4.736  30.569   3.159
19887W        W81308  19.685  19.707   3.790
19888W        W81309   1.389   9.206  12.875
19889W        W81310   8.854   3.380  14.994
19890W        W81311  43.366  23.668   4.167
19891W        W81312  34.927  31.549  10.491
19892W        W81313  29.052  21.155  11.378
19893W        W81314  16.596  27.632  14.433
19894W        W81315  19.606   0.845   1.889
19895W        W81316  16.727   2.295  14.777
19896W        W81317  32.890   8.331  11.976
19897W        W81318  35.540   0.860   4.649
19898W        W81319   0.834   4.238  12.463
19899W        W81320  18.570   0.424   2.292
19900W        W81321   9.876  29.066   3.367
19901W        W81322  41.532   7.782   4.612
19902W        W81323  16.644  31.500  11.377
19903W        W81324   6.695  36.934   3.736
19904W        W81325  29.448  38.061  11.401
19905W        W81326  14.719  39.914  10.543
19906W        W81327  36.523   3.891  11.014
19907W        W81328   4.222  41.447  12.408
19908W        W81329   3.315   7.203   4.825
19909W        W81330  19.732   1.868  12.536
19910W        W81331  27.498   5.785  10.519
19911W        W81332  24.146   4.831  10.088
19912W        W81333  38.345  28.170   0.864
19913W        W81334  25.502  43.384   0.463
19914W        W81335   0.277  37.578   4.132
19915W        W81336  29.019  34.103  11.939
19916W        W81337  11.299  21.734  10.611
19917W        W81338  25.543  38.908   3.158
19918W        W81339  35.398  15.615  11.064
19919W        W81340   0.905  41.371  12.411
19920W        W81341  35.520  36.387  13.392
19921W        W81342  24.549  38.000  14.898
19922W        W81343   2.389  40.981   4.672
19923W        W81344  41.408  11.748  11.892
19924W        W81345  42.894  16.781   4.224
19925W        W81346  16.196  10.186   1.270
19926W        W81347  15.159  42.467   4.251
19927W        W81348  22.114  25.640   1.271
19928W        W81349   7.901  38.474   0.323
19929W        W81350  22.136  22.504  10.980
19930W        W81351  18.666  22.175   4.285
19931W        W81352  15.767  31.012  12.894
19932W        W81353  34.459  16.076   3.642
19933W        W81354  23.537  43.904   2.729
19934W        W81355  30.126   8.390  11.392
19935W        W81356  26.518  19.634   4.781
19936W        W81357  33.106  36.548   3.810
19937W        W81358  29.952  31.010   2.673
19938W        W81359   1.457  36.886   2.376
19939W        W81360   7.868  36.900   5.274
19940W        W81361  15.689  30.451  13.882
19941W        W81362  35.049  12.309  14.411
19942W        W81363  16.728  11.859  14.467
19943W        W81364  44.779   4.389  11.866
19944W        W81365  35.006  13.290  13.818
19945W        W81366  24.137   7.839   2.238
19946W        W81367  26.489  13.748  12.977
19947W        W81368  24.611  44.502   1.882
19948W        W81369   6.190  10.226  10.092
19949W        W81370  43.499  33.399  11.119
19950W        W81371  18.584   1.268  12.062
19951W        W81372  30.946  21.744   0.747
19952W        W81373  25.646  37.404  11.863
19953W        W81374  13.221  24.614  13.388
19954W        W81375  16.788  14.731  14.821
19955W        W81376  17.126  35.530  14.406
19956W        W81377   7.278  14.144  13.798
19957W        W81378   1.806  10.344   0.248
19958W        W81379  26.168   7.314   3.376
19959W        W81380  34.081  38.418   1.744
19960W        W81381  44.876  43.432  11.396
19961W        W81382  13.655  34.917  12.893
19962W        W81383   6.323  19.063  12.945
19963W        W81384  44.267  42.793   4.659
19964W        W81385  12.653   5.775   2.367
19965W        W81386  35.926   5.895  12.543
19966W        W81387  14.826   2.955  13.419
19967W        W81388  21.707   0.928  12.052
19968W        W81389  25.039   7.226  13.331
19969W        W81390  43.946  44.846   4.206
19970W        W81391  10.641  25.471  12.361
19971W        W81392  35.505   6.805   4.297
19972W        W81393  16.086   2.950  14.376
19973W        W81394  36.946  44.396  14.508
19974W        W81395   4.829  40.452   0.383
19975W        W81396  33.984  11.651   9.671
19976W        W81397  10.746  16.731   1.784
19977W        W81398   8.394   2.247   2.369
19978W        W81399   9.877  42.328  14.313
19979W        W81400  44.847  36.405   0.465
19980W        W81401  44.883   1.342   1.225
19981W        W81402  27.126  34.401  13.804
19982W        W81403  22.586  35.472  13.409
19983W        W81404  17.145  43.818   2.405
19984W        W81405  25.613  32.450   1.834
19985W        W81406  44.324  44.929   0.966
19986W        W81407  24.063  28.097  14.760
19987W        W81408  29.077  34.401  10.411
19988W        W81409  44.472  13.698   3.856
19989W        W81410  17.243   9.261  10.436
19990W        W81411  44.270  27.953  13.999
19991W        W81412  20.183  26.041   3.329
19992W        W81413  15.117  17.621   3.801
19993W        W81414  25.056   6.218  12.364
19994W        W81415  27.459  26.615   1.269
19995W        W81416   0.488  30.452   0.440
19996W        W81417  24.530  10.665  13.440
19997W        W81418  41.002  10.742  13.876
19998W        W81419  11.131   9.221   0.389
19999W        W81420  17.765   1.799   1.765
20000W        W81421  35.502  10.646  14.483
20001W        W81422  14.656   4.362  11.924
20002W        W81423  22.691   4.346   9.536
20003W        W81424  34.936  42.875  10.468
20004W        W81425  18.570   4.450   3.730
20005W        W81426  21.076   6.335  11.457
20006W        W81427  17.066  36.369   3.744
20007W        W81428  15.740  10.868   0.927
20008W        W81429  33.394  38.346   1.886
20009W        W81430   2.831  22.589  12.941
20010W        W81431  43.444  25.055  14.808
20011W        W81432  13.687  39.048  11.522
20012W        W81433  24.050  17.593  14.356
20013W        W81434  13.768  32.512   4.201
20014W        W81435  19.558  36.842  11.559
20015W        W81436  20.603  12.116   3.149
20016W        W81437  22.685  22.129   1.810
20017W        W81438  41.941  13.698  12.981
20018W        W81439   0.869  10.710   0.865
20019W        W81440  20.199  31.093   0.949
20020W        W81441  36.919  30.132  14.021
20021W        W81442  15.588  17.255   0.904
20022W        W81443  44.320   6.722   2.687
20023W        W81444  14.788  13.115  10.426
20024W        W81445  43.864   7.205  14.888
20025W        W81446  19.229  29.156  12.368
20026W        W81447  19.753   8.748   1.371
20027W        W81448  26.502  26.527   3.269
20028W        W81449  24.174  33.883   2.793
20029W        W81450   8.302   1.811   1.315
20030W        W81451  26.182  44.802   1.722
20031W        W81452  16.770  26.550  11.401
20032W        W81453  19.045  23.071   2.867
20033W        W81454  11.681  12.653   0.771
20034W        W81455  41.353  37.973   4.703
20035W        W81456  38.964  10.142   4.207
20036W        W81457   3.346  37.971  13.046
20037W        W81458  14.712   3.856   0.440
20038W        W81459   5.829  15.181  13.958
20039W        W81460  26.176  37.420  14.321
20040W        W81461  13.685  16.611   1.800
20041W        W81462   7.862   6.312   2.864
20042W        W81463  38.052  17.716  12.897
20043W        W81464  35.495  21.577   3.202
20044W        W81465  34.527  38.033  11.111
20045W        W81466  33.919  16.249  14.454
20046W        W81467  19.156  14.245   1.821
20047W        W81468  14.750  11.639  11.982
20048W        W81469  25.979  17.788  14.494
20049W        W81470   7.775  23.042   1.720
20050W        W81471  10.660  31.060   1.408
20051W        W81472  34.994  16.609   0.389
20052W        W81473  36.950   6.305  11.386
20053W        W81474   0.806  37.025  11.107
20054W        W81475  38.905  18.141   4.632
20055W        W81476  21.211  39.998   1.874
20056W        W81477  39.458  18.757  12.921
20057W        W81478  14.121  28.467   2.857
20058W        W81479  27.162   8.368  13.045
20059W        W81480  30.936   0.776  13.463
20060W        W81481  40.949  30.461   1.782
20061W        W81482  18.142  20.607  10.933
20062W        W81483   7.200  14.222  14.290
20063W        W81484  12.718  42.804  13.800
20064W        W81485  21.160  43.301  11.911
20065W        W81486  21.565  44.430   3.327
20066W        W81487  41.827  14.698  13.949
20067W        W81488  44.372   8.863   1.228
20068W        W81489  14.249  29.163   4.167
20069W        W81490  35.992  43.875  10.942
20070W        W81491  40.838  15.584   0.450
20071W        W81492  36.905  43.767   0.287
20072W        W81493  38.955   3.793  12.880
20073W        W81494  20.756  11.622  12.572
20074W        W81495  42.375   0.848   3.185
20075W        W81496  16.708  40.361   3.763
20076W        W81497   5.709  31.937   4.194
20077W        W81498  43.876  42.945  11.427
20078W        W81499  35.488  17.746  12.843
20079W        W81500  44.439  41.881  14.452
20080W        W81501  20.104  40.375   3.241
20081W        W81502  38.553   0.902  14.978
20082W        W81503  41.864  34.914   2.774
20083W        W81504  14.099  33.538  12.350
20084W        W81505  34.538  17.062  10.998
20085W        W81506  12.739  25.147   3.844
20086W        W81507  19.743  23.674   0.876
20087W        W81508  19.655  19.607  13.831
20088W        W81509  43.335   5.194  10.981
20089W        W81510   4.307   4.762  14.417
20090W        W81511   7.672   5.772  11.102
20091W        W81512  29.448   8.901  12.483
20092W        W81513   0.374   7.738   1.756
20093W        W81514  38.360  10.296   4.607
20094W        W81515  10.648   0.349   4.681
20095W        W81516  34.049  30.136  14.436
20096W        W81517  32.108  16.201  10.972
20097W        W81518  27.984   7.265   3.208
20098W        W81519  10.190  21.689   2.809
20099W        W81520   4.383   9.671  12.836
20100W        W81521  29.669  38.048   2.683
20101W        W81522  14.173  26.535   9.952
20102W        W81523  12.309  32.082   4.742
20103W        W81524   1.443  36.354   0.816
20104W        W81525  31.548  43.503  12.837
20105W        W81526  15.700  25.507   2.396
20106W        W81527  10.815  18.294  13.336
20107W        W81528   6.265  18.076   1.380
20108W        W81529  19.155  33.557  13.528
20109W        W81530  24.156   2.324   4.218
20110W        W81531  35.406  39.007   1.855
20111W        W81532   8.245  37.957  14.439
20112W        W81533  26.115   8.304   0.776
20113W        W81534  33.467   0.847  13.913
20114W        W81535  11.257  38.357  12.928
20115W        W81536  22.221  44.312   0.746
20116W        W81537  16.159  20.542   2.760
20117W        W81538   0.827  32.413  14.489
20118W        W81539  37.039  15.615  13.793
20119W        W81540  43.975  38.331   0.280
20120W        W81541  21.546  34.373  12.510
20121W        W81542  30.417  37.520  11.953
20122W        W81543  32.083  14.137  14.828
20123W        W81544  30.547  30.580   0.453
20124W        W81545  35.589  10.679   0.375
20125W        W81546  37.576  43.284  14.785
20126W        W81547  26.565  23.195   4.251
20127W        W81548  43.851  12.707  14.509
20128W        W81549  23.492  38.003   3.826
20129W        W81550  35.556  27.447   1.904
20130W        W81551  26.171  40.419   2.243
20131W        W81552  18.787  38.871   1.214
20132W        W81553  19.190  15.326  12.556
20133W        W81554   4.817  14.826  12.033
20134W        W81555  21.175  16.641   2.318
20135W        W81556  35.560  16.295   2.377
20136W        W81557  44.287  42.282  10.503
20137W        W81558   6.421   9.848  13.970
20138W        W81559  41.515  14.112  12.834
20139W        W81560  10.369  21.260   0.374
20140W        W81561   8.695  17.110   0.965
20141W        W81562  10.258  10.302   0.398
20142W        W81563   5.905  17.209  10.636
20143W        W81564   0.454  44.948  11.379
20144W        W81565   7.280  29.037   4.779
20145W        W81566   4.780  11.780  13.819
20146W        W81567   6.806  20.725   3.723
20147W        W81568  12.752  11.735   0.448
20148W        W81569   9.310   1.357   0.904
20149W        W81570  12.311  13.838  10.542
20150W        W81571  28.000  17.750   2.187
20151W        W81572  40.803   5.401   0.769
20152W        W81573  34.995  37.337   0.793
20153W        W81574  34.954  39.049   3.273
20154W        W81575  29.577  26.985   3.298
20155W        W81576  12.234  20.273  13.838
20156W        W81577  22.205  44.973  12.055
20157W        W81578  16.785  40.450  11.426
20158W        W81579  12.130  25.195  13.328
20159W        W81580  21.100  28.447  13.984
20160W        W81581   1.841  28.625  14.473
20161W        W81582  10.278  12.263   2.703
20162W        W81583  25.651  16.568  10.889
20163W        W81584  29.469   5.766   4.668
20164W        W81585   4.328  41.434  10.623
20165W        W81586  30.059   9.208   0.826
20166W        W81587  16.084   1.770  14.484
20167W        W81588  34.108  13.303  13.540
20168W        W81589  13.691  13.686  13.393
20169W        W81590  17.785   9.759   4.689
20170W        W81591   5.797   5.307   5.642
20171W        W81592  36.500   1.280  14.030
20172W        W81593  15.189  20.639  14.948
20173W        W81594   1.961  30.646  10.995
20174W        W81595  33.094  20.589  14.904
20175W        W81596   2.956  23.697  10.958
20176W        W81597   5.894  18.228  10.472
20177W        W81598   1.800  14.797  13.542
20178W        W81599  41.812   1.318   2.803
20179W        W81600  10.249  13.634   4.645
20180W        W81601  16.583  16.673   4.629
20181W        W81602  29.465  23.027  13.922
20182W        W81603  27.015  22.179   1.361
20183W        W81604  19.657   7.901  13.828
20184W        W81605   4.824  21.218   2.269
20185W        W81606  34.429  30.069  14.950
20186W        W81607  30.986   4.273  14.285
20187W        W81608   3.239   5.866  10.901
20188W        W81609  10.873  34.560   1.310
20189W        W81610  17.197  27.446   1.353
20190W        W81611   6.900  25.151  14.930
20191W        W81612  42.958   3.826  12.026
20192W        W81613   7.859  27.563  11.009
20193W        W81614  44.813   3.925   3.680
20194W        W81615  33.450  37.375   0.797
20195W        W81616  40.318  24.990   0.758
20196W        W81617  39.058  20.093   3.268
20197W        W81618  33.094  42.316  13.840
20198W        W81619  26.001  26.953  13.864
20199W        W81620   9.325  35.080   4.630
20200W        W81621   8.306  34.965  13.504
20201W        W81622  20.158  29.652   3.228
20202W        W81623  36.932  33.501  13.503
20203W        W81624  44.286  10.750  12.347
20204W        W81625  18.644  30.452   1.227
20205W        W81626   9.859  16.156  11.945
20206W        W81627  20.203  23.638   1.323
20207W        W81628  31.079  22.570   1.409
20208W        W81629  16.107   9.322   1.290
20209W        W81630   6.207  30.091   0.373
20210W        W81631  43.403  29.576  11.585
20211W        W81632   1.238  30.588   4.282
20212W        W81633   0.396  13.238   1.833
20213W        W81634  16.606  32.461   3.273
20214W        W81635  17.271  11.300   4.187
20215W        W81636  13.766   3.252  10.615
20216W        W81637  23.036  41.517   0.923
20217W        W81638  39.046  43.897  11.558
20218W        W81639  23.518  10.869   2.679
20219W        W81640  42.408   4.389   3.700
20220W        W81641  24.562  17.186  11.409
20221W        W81642  27.195   8.901   3.211
20222W        W81643  22.105  25.475   1.837
20223W        W81644   1.761  26.966  13.814
20224W        W81645  40.038   3.247   3.706
20225W        W81646   6.814  20.066   1.275
20226W        W81647  41.311   1.460   1.386
20227W        W81648   8.855  16.692   1.416
20228W        W81649  42.859  10.152   4.131
20229W        W81650  38.342   7.795  10.614
20230W        W81651  12.656  22.233   0.385
20231W        W81652   7.889  21.025  11.916
20232W        W81653  14.290  41.839   0.757
20233W        W81654  26.577  25.975   1.850
20234W        W81655  25.665   7.265  13.840
20235W        W81656  10.742  13.656  13.378
20236W        W81657  20.628   3.261   3.240
20237W        W81658  35.995  36.875   4.807
20238W        W81659  27.964   1.756   4.342
20239W        W81660  11.820  21.258  13.488
20240W        W81661   5.720  23.636   3.199
20241W        W81662  30.922  25.679  13.430
20242W        W81663  28.660  20.652  13.031
20243W        W81664   7.761  29.003  13.520
20244W        W81665  26.097   6.685  11.548
20245W        W81666  25.673  34.009   4.222
20246W        W81667  10.821  17.227   3.696
20247W        W81668  37.489  42.305   2.401
20248W        W81669  25.572   3.457   3.671
20249W        W81670  17.605   5.924   1.709
20250W        W81671   2.367  44.828   2.289
20251W        W81672  29.650  43.812  12.552
20252W        W81673   5.396  32.933   2.234
20253W        W81674  44.784  22.075   3.194
20254W        W81675  26.014  15.626  10.408
20255W        W81676   8.193  24.587  14.012
20256W        W81677  24.639  36.361  11.401
20257W        W81678  21.048  39.497   1.225
20258W        W81679  36.891  34.459   2.775
20259W        W81680  43.495  13.693  11.391
20260W        W81681  39.931   1.773  10.997
20261W        W81682   0.891   4.273   3.158
20262W        W81683  11.264  17.268  13.314
20263W        W81684  43.002   1.328   2.394
20264W        W81685  34.878   2.265  14.287
20265W        W81686   4.836  34.069  14.928
20266W        W81687  12.802  34.476  12.978
20267W        W81688  15.791  28.653  14.836
20268W        W81689  13.281  20.267  13.411
20269W        W81690  38.436   0.390   2.204
20270W        W81691   8.861  36.392   4.335
20271W        W81692   2.780  23.995   3.213
20272W        W81693  43.817  43.382   2.357
20273W        W81694  37.012  33.116   3.651
20274W        W81695  36.987   5.395  14.389
20275W        W81696  31.144  33.007   0.292
20276W        W81697  32.996   0.895   0.851
20277W        W81698  37.513   5.305  14.929
20278W        W81699  33.975  31.487  12.059
20279W        W81700   8.269  28.511  14.365
20280W        W81701  28.516  14.128   2.791
20281W        W81702  43.821  28.058   2.274
20282W        W81703  32.628   0.923  13.958
20283W        W81704  13.315  16.723  12.520
20284W        W81705  27.646  10.142   3.706
20285W        W81706   5.383  44.973   4.720
20286W        W81707  23.066  14.631   1.828
20287W        W81708   5.406  29.589  14.469
20288W        W81709  10.383  33.969   2.694
20289W        W81710  43.910   6.200  11.440
20290W        W81711  26.693  32.013   1.444
20291W        W81712  34.470  30.585   3.710
20292W        W81713  24.986  27.560  13.544
20293W        W81714  20.672  15.246   9.999
20294W        W81715  10.298  17.636  11.950
20295W        W81716  17.555  31.471   1.290
20296W        W81717  17.716  42.908   4.186
20297W        W81718  38.454   1.282  14.489
20298W        W81719  40.874   7.879   3.241
20299W        W81720  44.779  19.546   2.335
20300W        W81721  34.971  36.843  11.389
20301W        W81722  25.018  35.534   0.764
20302W        W81723  29.094  15.621   0.316
20303W        W81724   8.785  11.805   1.904
20304W        W81725  15.792  34.110   0.388
20305W        W81726  12.261  30.556  11.375
20306W        W81727  42.437  39.480  12.057
20307W        W81728  15.259  35.422   1.911
20308W        W81729  31.953  13.329  11.084
20309W        W81730  30.910  44.476   0.897
20310W        W81731  27.061  26.117  13.857
20311W        W81732  16.170  40.402   2.316
20312W        W81733  44.885  21.188  14.320
20313W        W81734   3.371  22.646  14.910
20314W        W81735  20.249   5.432  10.558
20315W        W81736  20.167  40.943   3.354
20316W        W81737  32.563  25.701   1.771
20317W        W81738  30.613  37.574  14.786
20318W        W81739  24.549  28.477  11.088
20319W        W81740  34.417  16.769  13.977
20320W        W81741  25.578  39.889  10.603
20321W        W81742  42.026  25.543   0.762
20322W        W81743  11.237  26.505  10.508
20323W        W81744  30.924  16.168   0.878
20324W        W81745   8.866  31.003  13.963
20325W        W81746  35.998  25.975   2.888
20326W        W81747  38.017  25.659  11.965
20327W        W81748  15.673  32.970   1.395
20328W        W81749   0.779  15.694   0.430
20329W        W81750   7.899  44.005   2.346
20330W        W81751  23.090  21.214   4.232
20331W        W81752   4.742  21.685   2.273
20332W        W81753  33.924  39.984  12.830
20333W        W81754  26.509  42.797   3.732
20334W        W81755  30.028  31.504   3.327
20335W        W81756   3.886  20.272  11.088
20336W        W81757  29.957  36.970  14.448
20337W        W81758  29.505  42.994   5.094
20338W        W81759  42.523   5.319  14.977
20339W        W81760  39.462  18.215   3.286
20340W        W81761  19.616   7.404   2.236
20341W        W81762  30.134  21.163  11.438
20342W        W81763  18.635   1.753  13.399
20343W        W81764  20.207  34.564  11.534
20344W        W81765  41.833   8.657   4.793
20345W        W81766  24.177  23.728  10.935
20346W        W81767  14.298   9.728  12.438
20347W        W81768  34.863  42.415   0.392
20348W        W81769  43.816  15.108   9.620
20349W        W81770  44.339  35.020   4.296
20350W        W81771  21.090  35.450  11.513
20351W        W81772   0.915  41.905  11.506
20352W        W81773  13.274  21.614  10.909
20353W        W81774  10.306  20.669  11.418
20354W        W81775  29.938  19.045  13.329
20355W        W81776  35.591  42.399  12.431
20356W        W81777  38.891  44.870  10.424
20357W        W81778  16.267  43.309  10.931
20358W        W81779   0.281   3.796   0.261
20359W        W81780  14.803  32.003  11.517
20360W        W81781  26.684  23.703  14.294
20361W        W81782  35.428  13.722   3.159
20362W        W81783  23.132  13.241   1.221
20363W        W81784  33.495  15.672   2.824
20364W        W81785  40.472  16.698   2.702
20365W        W81786  33.946  16.125   0.370
20366W        W81787  12.121  44.956  14.788
20367W        W81788  21.097  25.528  10.633
20368W        W81789   7.852  24.103  10.489
20369W        W81790   2.843   4.381  13.862
20370W        W81791  20.628   5.398   1.424
20371W        W81792  18.181  35.051  13.531
20372W        W81793  24.197   8.720  14.784
20373W        W81794  17.245  43.421   4.316
20374W        W81795  10.711  37.890  11.610
20375W        W81796  14.167  19.096  14.028
20376W        W81797  39.038  31.020  14.902
20377W        W81798  27.946  24.710  11.859
20378W        W81799  38.529   7.213  14.402
20379W        W81800  33.094  12.282   5.565
20380W        W81801  19.704  43.960   4.239
20381W        W81802  29.102   2.760  12.343
20382W        W81803  36.981  10.176  12.373
20383W        W81804   3.722  34.883  10.481
20384W        W81805  38.012  29.661  10.897
20385W        W81806  13.202  31.093  14.398
20386W        W81807  27.090  12.250  12.422
20387W        W81808   7.860   9.768   1.716
20388W        W81809  19.132  29.520   3.314
20389W        W81810  23.517   4.812  13.449
20390W        W81811  18.212  44.438   3.797
20391W        W81812  27.542  16.256  12.358
20392W        W81813  44.822  34.448   1.449
20393W        W81814   6.915  28.597   2.754
20394W        W81815  28.677  11.226   5.185
20395W        W81816  34.042  44.421  11.046
20396W        W81817  37.342  21.194   1.834
20397W        W81818  37.868  26.987   3.666
20398W        W81819  11.679  23.221  12.906
20399W        W81820  12.123  34.890  11.507
20400W        W81821  44.393  22.726   0.773
20401W        W81822  41.015  31.607   0.333
20402W        W81823   5.267  40.405  14.318
20403W        W81824  15.229  28.930   1.697
20404W        W81825  21.735  10.286  10.505
20405W        W81826  28.091  31.933  14.864
20406W        W81827   8.220  42.373   4.352
20407W        W81828   5.867  28.943  12.558
20408W        W81829   7.688  13.137   3.790
20409W        W81830  12.248  24.035   3.828
20410W        W81831  40.346   0.432   2.668
20411W        W81832   9.169  10.812   2.827
20412W        W81833   0.844  42.829   0.940
20413W        W81834  37.048  24.657   0.358
20414W        W81835  40.818   6.332  11.969
20415W        W81836  37.964  29.543   3.680
20416W        W81837  32.536  11.828  13.044
20417W        W81838  42.792  41.811   2.187
20418W        W81839  40.942   5.372   3.726
20419W        W81840  42.375   8.296  12.515
20420W        W81841  13.609   5.406   4.252
20421W        W81842  37.356  42.324  12.065
20422W        W81843  23.507  33.898   1.907
20423W        W81844  42.024  38.015   1.328
20424W        W81845  40.881  10.202  14.929
20425W        W81846  25.476  28.129   4.731
20426W        W81847   3.835  20.113  14.902
20427W        W81848  44.993   6.362   0.853
20428W        W81849  15.268  33.106   0.320
20429W        W81850  21.667  34.525   4.699
20430W        W81851  10.793  29.526  13.376
20431W        W81852  39.434  28.129   1.330
20432W        W81853  37.369  44.406   4.651
20433W        W81854  33.557   7.243  12.032
20434W        W81855   7.272  21.257   2.766
20435W        W81856  17.616   6.352  14.368
20436W        W81857   7.351  12.200   3.367
20437W        W81858  29.995   4.782   2.700
20438W        W81859  29.569  19.534  11.856
20439W        W81860  11.757  29.653   4.633
20440W        W81861  14.203  13.683   2.860
20441W        W81862   3.793  44.350  10.035
20442W        W81863  23.043  17.265   2.229
20443W        W81864  11.244   9.364  12.566
20444W        W81865  23.989  12.313  10.624
20445W        W81866  14.649  41.970   1.800
20446W        W81867  17.698   1.838  14.886
20447W        W81868   5.696   1.291   3.831
20448W        W81869   2.842   8.767   3.854
20449W        W81870   5.805  14.822   0.361
20450W        W81871   8.678  16.198  10.591
20451W        W81872  20.589   1.960  14.795
20452W        W81873  33.574   4.810  11.470
20453W        W81874  34.545  41.500   2.243
20454W        W81875  35.002  23.032  12.386
20455W        W81876   2.349  11.372   4.779
20456W        W81877  17.189   3.266   1.786
20457W        W81878  21.585   4.362  14.501
20458W        W81879  39.809  34.381  11.477
20459W        W81880  27.958   4.779  11.888
20460W        W81881  18.591   2.393  13.877
20461W        W81882  42.915  29.083  11.913
20462W        W81883  24.023  38.006   2.234
20463W        W81884  32.090  28.180  14.872
20464W        W81885  15.323  35.062  13.525
20465W        W81886   7.303  29.469   1.230
20466W        W81887  40.527  41.847   0.854
20467W        W81888   7.211  37.348   4.266
20468W        W81889  36.497   3.392  12.466
20469W        W81890  37.042  34.398  13.825
20470W        W81891  25.638   5.755   1.921
20471W        W81892  29.490  16.582  13.908
20472W        W81893   1.333  30.632  10.524
20473W        W81894  12.196  33.614  11.119
20474W        W81895   0.859  32.039   2.295
20475W        W81896  15.782  43.001   3.795
20476W        W81897  13.138  37.876  10.563
20477W        W81898  22.614  25.198   2.836
20478W        W81899  33.496  27.644   1.934
20479W        W81900   0.770  22.635  12.829
20480W        W81901  33.924  29.992   2.303
20481W        W81902   8.310  25.712  14.766
20482W        W81903  10.852  22.627   4.760
20483W        W81904  15.228  36.538  12.413
20484W        W81905  33.613  22.704  10.959
20485W        W81906  37.029   8.395   4.141
20486W        W81907  15.220  39.896  13.921
20487W        W81908  38.929  44.901   1.230
20488W        W81909   4.235  28.648  13.504
20489W        W81910  28.134   0.382   0.875
20490W        W81911  34.402   1.413  14.310
20491W        W81912  22.664  32.453  10.416
20492W        W81913  21.544  30.526   1.398
20493W        W81914  21.639  35.579  14.373
20494W        W81915  22.057  42.514  12.885
20495W        W81916  33.565  21.652   2.794
20496W        W81917  26.573   5.752  11.931
20497W        W81918  34.369  18.065   0.731
20498W        W81919  38.474  22.628   3.707
20499W        W81920  38.044   6.350   1.844
20500W        W81921  14.792  21.594  10.888
20501W        W81922  21.622  33.027  12.023
20502W        W81923   9.674  27.946  14.299
20503W        W81924  23.730  21.624   2.209
20504W        W81925  29.543  26.633  11.583
20505W        W81926   4.916   0.924   1.228
20506W        W81927  28.611   5.804   1.422
20507W        W81928   6.279  21.091  10.054
20508W        W81929  32.412  27.014   2.379
20509W        W81930   5.906  30.097  11.966
20510W        W81931   6.393   4.735   9.990
20511W        W81932  39.849  27.993   3.868
20512W        W81933   0.943  15.729  13.975
20513W        W81934   5.692  39.363  11.927
20514W        W81935  12.830   7.698   2.353
20515W        W81936  20.201  10.245  14.860
20516W        W81937   7.860   6.683   3.744
20517W        W81938   3.351  32.057   1.431
20518W        W81939  44.357  25.636   4.344
20519W        W81940  44.492  28.615  11.119
20520W        W81941  22.502   5.728   0.322
20521W        W81942  35.536  15.122   4.201
20522W        W81943  26.049  34.109  11.058
20523W        W81944  22.505  34.913  10.502
20524W        W81945  18.729   6.409  11.492
20525W        W81946  37.888  37.565  13.011
20526W        W81947   2.728  28.134  14.947
20527W        W81948  28.007   0.282  13.376
20528W        W81949  37.868  15.256  11.515
20529W        W81950  27.479   9.718  12.871
20530W        W81951  41.884  12.231   2.722
20531W        W81952  22.529  36.937  12.918
20532W        W81953  13.790  23.044  13.883
20533W        W81954  44.474  37.838  14.995
20534W        W81955  32.556  17.120  10.511
20535W        W81956   5.731  37.341  10.612
20536W        W81957  25.963  36.468  11.425
20537W        W81958  20.704   0.478  10.966
20538W        W81959   3.923   9.322  13.889
20539W        W81960   6.884   4.286  14.298
20540W        W81961  27.998  22.117   2.725
20541W        W81962   0.845  12.726   0.743
20542W        W81963   9.730   9.870   1.266
20543W        W81964   1.926   5.902  12.972
20544W        W81965  27.027   7.380   0.755
20545W        W81966  10.225  33.131   3.240
20546W        W81967  43.337  11.224  10.055
20547W        W81968  37.987  27.640   0.358
20548W        W81969  31.624  15.687   5.189
20549W        W81970  41.919  29.095  10.436
20550W        W81971   7.197   0.301  11.087
20551W        W81972   5.371  23.690  13.455
20552W        W81973  31.600  20.535  14.463
20553W        W81974  12.353  32.895  13.953
20554W        W81975  22.514  13.713  11.118
20555W        W81976  43.932  12.300   2.365
20556W        W81977  23.064  31.139  13.921
20557W        W81978  38.407  34.929  10.526
20558W        W81979  17.068  19.582  11.568
20559W        W81980  35.901  36.521  13.327
20560W        W81981  39.554  41.041  12.962
20561W        W81982  13.732  29.499   2.766
20562W        W81983   6.691  14.793   3.301
20563W        W81984  12.674  21.564  14.863
20564W        W81985  24.189  15.627   3.777
20565W        W81986   8.669  43.785   0.826
20566W        W81987  26.007  10.370   2.315
20567W        W81988   3.815  25.065  12.536
20568W        W81989   6.790  40.412   1.855
20569W        W81990  44.320  33.536  14.944
20570W        W81991   0.414  34.082  11.442
20571W        W81992  28.034   4.213  10.976
20572W        W81993  21.748  29.601   3.186
20573W        W81994   3.403  32.977   3.693
20574W        W81995  27.609   1.423   3.225
20575W        W81996  15.668  44.501  11.524
20576W        W81997  18.667  12.745  10.962
20577W        W81998  37.335  33.408  13.368
20578W        W81999  12.234   5.421  14.906
20579W        W82000  12.329  33.520   9.977
20580W        W82001  17.144  34.978   0.886
20581W        W82002  21.740  28.009   4.684
20582W        W82003  16.204  36.959  11.038
20583W        W82004  31.106  25.544  12.045
20584W        W82005  17.210  39.352  10.889
20585W        W82006  28.681  19.595   3.790
20586W        W82007  25.114  12.320   3.846
20587W        W82008  41.475  23.627   1.857
20588W        W82009  37.991  26.990  13.881
20589W        W82010  27.561  20.556  13.899
20590W        W82011  13.254  34.045   1.794
20591W        W82012  35.895  27.031  13.432
20592W        W82013  28.182  15.633  13.826
20593W        W82014  23.076   4.303  13.868
20594W        W82015  35.076  11.857  11.551
20595W        W82016  27.524  40.526  13.339
20596W        W82017  18.052   9.365  14.904
20597W        W82018   5.840  17.628   2.748
20598W        W82019  25.666  23.681   0.766
20599W        W82020   4.741  41.971   1.325
20600W        W82021  30.492   0.841  13.409
20601W        W82022  16.311  14.798   5.613
20602W        W82023  43.379  40.470  13.835
20603W        W82024  18.760  24.007  11.914
20604W        W82025  21.700  39.433   0.728
20605W        W82026  27.601   0.255   1.349
20606W        W82027   8.756  42.855   2.830
20607W        W82028  36.975  34.985  11.982
20608W        W82029   4.912  28.056  14.862
20609W        W82030   6.280  33.393   0.432
20610W        W82031   4.381  22.208  14.340
20611W        W82032  36.039  30.659  12.510
20612W        W82033   4.409  15.630   4.679
20613W        W82034   1.334   7.201   4.253
20614W        W82035  35.546  18.244   0.957
20615W        W82036  28.489  28.647   2.362
20616W        W82037  36.944  18.705  10.949
20617W        W82038  20.160  27.166  10.563
20618W        W82039  20.593  27.024  14.918
20619W        W82040   0.912  44.774  13.529
20620W        W82041  12.152  40.462   4.791
20621W        W82042  11.228  23.043  14.927
20622W        W82043   4.847  26.013  13.818
20623W        W82044  36.553  35.587  11.452
20624W        W82045  25.980  15.197  14.873
20625W        W82046  44.918   4.922   1.898
20626W        W82047  31.541  32.522   4.812
20627W        W82048  37.946  29.569  12.453
20628W        W82049  10.219  44.408  11.564
20629W        W82050   5.759  36.368   4.698
20630W        W82051  19.644  10.325   2.278
20631W        W82052  11.697  41.791  10.434
20632W        W82053  18.212  11.666   9.934
20633W        W82054  30.572  23.197  12.561
20634W        W82055  37.562  10.766  14.841
20635W        W82056  20.050  26.457  13.349
20636W        W82057  36.907  29.928  14.281
20637W        W82058  39.829  15.184   1.870
20638W        W82059  19.704   0.401  10.618
20639W        W82060  37.866  33.939  13.520
20640W        W82061  24.977  20.625  14.446
20641W        W82062   0.848  34.421  13.931
20642W        W82063   4.220  13.251   2.849
20643W        W82064  24.057  17.093   4.681
20644W        W82065  20.699  11.763  10.922
20645W        W82066  31.936  42.005   3.634
20646W        W82067  20.200  22.522   2.314
20647W        W82068  14.764   7.415  12.546
20648W        W82069  12.290  36.038   4.262
20649W        W82070  32.493  22.539   4.630
20650W        W82071  24.530  20.110   4.270
20651W        W82072  35.415  26.174   3.668
20652W        W82073  41.822  29.454  12.526
20653W        W82074  22.585  42.416   2.719
20654W        W82075  28.622  40.397   1.738
20655W        W82076  23.629  29.542   4.612
20656W        W82077  23.583  21.156  14.462
20657W        W82078  10.736  14.336  13.949
20658W        W82079  13.352  35.987   4.348
20659W        W82080  17.669  26.512   1.755
20660W        W82081  41.421  14.180  11.439
20661W        W82082   1.746  41.904  14.926
20662W        W82083  28.106   0.352   1.852
20663W        W82084  26.468   4.395  12.090
20664W        W82085  17.719   1.830  13.518
20665W        W82086  39.014  15.622  13.899
20666W        W82087  23.109   4.755   4.324
20667W        W82088  35.046   5.863   3.380
20668W        W82089  43.018  37.950   0.469
20669W        W82090   0.299  31.543   2.331
20670W        W82091  30.969  43.379  11.464
20671W        W82092  10.683   2.471  12.977
20672W        W82093  17.642  41.943  13.937
20673W        W82094  44.944   3.450   0.293
20674W        W82095  41.013  25.045   1.235
20675W        W82096  33.934   9.850   2.353
20676W        W82097  41.458   3.413  12.017
20677W        W82098  43.495  30.610  14.877
20678W        W82099  30.618  22.654  14.890
20679W        W82100  19.576   3.431  14.779
20680W        W82101   8.310  35.604   0.962
20681W        W82102  25.113  30.006  11.484
20682W        W82103   8.357  41.028   1.902
20683W        W82104  30.161  10.384   5.099
20684W        W82105   7.368  42.854   3.242
20685W        W82106   2.885  34.880   1.694
20686W        W82107  31.546   4.448   4.641
20687W        W82108  28.597  40.881  13.970
20688W        W82109  10.197  12.770  13.861
20689W        W82110  17.168  42.032   4.739
20690W        W82111  10.205  23.098   3.700
20691W        W82112  43.786  14.192  12.027
20692W        W82113   8.851  36.055   3.870
20693W        W82114  40.937  27.587   3.208
20694W        W82115  34.012  32.028  11.406
20695W        W82116  43.945   0.958   0.255
20696W        W82117  22.995  33.483  13.502
20697W        W82118  21.141  25.993   2.284
20698W        W82119  10.841  40.534   3.245
20699W        W82120  11.675   9.671  13.348
20700W        W82121  19.683  39.839   4.790
20701W        W82122   2.369  17.290  12.446
20702W        W82123   0.459  11.334  13.331
20703W        W82124  12.680   7.382   1.290
20704W        W82125  20.235   8.283   4.285
20705W        W82126   7.369   5.196  11.030
20706W        W82127  24.219  39.822  11.454
20707W        W82128  35.878  19.672  12.527
20708W        W82129  40.432  20.176  10.909
20709W        W82130  20.209  24.093  13.392
20710W        W82131  44.404   4.928  10.621
20711W        W82132  28.146  20.624   1.375
20712W        W82133   0.250  44.768  12.420
20713W        W82134  27.999   5.299  11.899
20714W        W82135   5.302  39.823  14.802
20715W        W82136  23.730  30.986   3.251
20716W        W82137  23.505  34.928  12.908
20717W        W82138  43.933  20.074  14.853
20718W        W82139  29.642  20.542   2.688
20719W        W82140  39.048   4.904   3.668
20720W        W82141   8.306  11.231   1.321
20721W        W82142  36.499  26.056  10.537
20722W        W82143  39.983  34.979   2.857
20723W        W82144  15.222  29.944  10.043
20724W        W82145  23.571  27.095   2.877
20725W        W82146  22.241  26.529   1.285
20726W        W82147   9.180  26.963  13.031
20727W        W82148  42.398  25.029   3.212
20728W        W82149  42.410   5.214   0.857
20729W        W82150  15.672  28.977  10.576
20730W        W82151  12.713  14.754   5.132
20731W        W82152   1.313  34.097   3.846
20732W        W82153  18.237  15.193   9.570
20733W        W82154   4.396  15.206  14.409
20734W        W82155  31.993  30.551   4.637
20735W        W82156  44.770   0.330   3.276
20736W        W82157  18.685  30.087   4.631
20737W        W82158  16.646  12.753  13.856
20738W        W82159   9.778  25.086   4.609
20739W        W82160  43.309  24.222   4.143
20740W        W82161  28.601  23.048   2.870
20741W        W82162  35.996  42.298  14.390
20742W        W82163  11.242  14.326   4.777
20743W        W82164   2.433  29.474   1.846
20744W        W82165  27.084  25.656  13.962
20745W        W82166  44.459  18.744   3.780
20746W        W82167   6.358  14.628   3.728
20747W        W82168  27.155  40.503  14.503
20748W        W82169  14.211  11.127  13.920
20749W        W82170  38.388  11.657  11.933
20750W        W82171  34.089   3.291   0.750
20751W        W82172  43.916  26.464   2.701
20752W        W82173  40.838   5.886  12.075
20753W        W82174   5.842  19.741   3.789
20754W        W82175  31.476  43.891   3.665
20755W        W82176  25.494   9.315   3.363
20756W        W82177   2.232  13.658   3.753
20757W        W82178  44.293  25.982  13.994
20758W        W82179  22.578  25.494  10.915
20759W        W82180   9.849  20.670   1.366
20760W        W82181  30.101  35.058   0.322
20761W        W82182  18.148  37.442   3.350
20762W        W82183  13.741  43.977  13.055
20763W        W82184  17.184   5.827  11.868
20764W        W82185  11.158   2.756   2.368
20765W        W82186  43.504  16.581   3.847
20766W        W82187  14.161   5.215   1.932
20767W        W82188  41.044  29.637  11.964
20768W        W82189   9.865  12.766  12.358
20769W        W82190  19.582  34.030   2.320
20770W        W82191  13.728  40.052   0.452
20771W        W82192  38.858  26.085  12.453
20772W        W82193  32.566  35.480   1.246
20773W        W82194   4.430  26.104  14.300
20774W        W82195   8.213  10.351  14.393
20775W        W82196  31.483   1.959   5.669
20776W        W82197  27.140  32.424   3.822
20777W        W82198  36.099  30.010  11.102
20778W        W82199  25.608  29.947  11.512
20779W        W82200  41.360  15.759  13.824
20780W        W82201  44.288  16.266   2.779
20781W        W82202  30.580   9.840   1.410
20782W        W82203  29.500  10.667   3.711
20783W        W82204  34.001  34.594   2.865
20784W        W82205  18.235  38.338   4.827
20785W        W82206  26.109  10.681   4.662
20786W        W82207  28.514   0.277  14.308
20787W        W82208  24.709  32.019  11.895
20788W        W82209  30.155   3.406   3.146
20789W        W82210  15.323   1.428   4.276
20790W        W82211  30.502  31.107  12.076
20791W        W82212  15.144  35.102   2.197
20792W        W82213  28.023  20.165  14.370
20793W        W82214   0.296   3.756   3.698
20794W        W82215   2.847  33.608  12.484
20795W        W82216  23.145  25.612   4.812
20796W        W82217   3.321  37.417   0.471
20797W        W82218   5.419  40.319   4.355
20798W        W82219  44.344  36.863   9.975
20799W        W82220  41.929  10.310   1.355
20800W        W82221  13.644   1.945  11.905
20801W        W82222   9.228  18.204   5.129
20802W        W82223  28.100  41.999   2.746
20803W        W82224   9.154   8.289   3.778
20804W        W82225   2.369  43.907   4.243
20805W        W82226  24.979  19.539  14.430
20806W        W82227  33.076  36.059  11.049
20807W        W82228  11.633  26.505  13.461
20808W        W82229   6.822  16.249   1.266
20809W        W82230  11.256   8.717   0.292
20810W        W82231   1.450  16.646   4.626
20811W        W82232   3.420  44.759  10.570
20812W        W82233  10.340  38.891  13.916
20813W        W82234  15.094  43.017   1.737
20814W        W82235  23.087  15.778   1.390
20815W        W82236   1.846  29.567   0.928
20816W        W82237  19.209  11.323   2.251
20817W        W82238  28.620   6.798  11.952
20818W        W82239   7.285  26.627  12.546
20819W        W82240  22.203  13.234  14.323
20820W        W82241  44.314  21.690  12.559
20821W        W82242  18.611   1.938  12.940
20822W        W82243  14.734  22.084   0.455
20823W        W82244   3.256  12.254  10.619
20824W        W82245  43.825  39.064   1.924
20825W        W82246  22.184  16.770   3.153
20826W        W82247  22.624  28.103   1.850
20827W        W82248  44.801  35.051   2.744
20828W        W82249  38.018  43.363   2.798
20829W        W82250   0.249  31.097  11.107
20830W        W82251  44.320   1.854   1.900
20831W        W82252   3.736   9.847   4.207
20832W        W82253  40.820   9.270  13.974
20833W        W82254  44.261  26.554   1.861
20834W        W82255   9.333  28.054  14.299
20835W        W82256  31.028   1.452  13.003
20836W        W82257  19.272  31.605   2.362
20837W        W82258  22.206  15.773   3.294
20838W        W82259   5.744  16.677  14.794
20839W        W82260  36.546   5.931   0.323
20840W        W82261   0.762  23.039  12.835
20841W        W82262  10.210   4.216  14.022
20842W        W82263  44.866  42.514   3.212
20843W        W82264  36.963  25.116  13.839
20844W        W82265   3.413   9.817   2.720
20845W        W82266  21.154  12.810  14.433
20846W        W82267  27.660  25.080  14.406
20847W        W82268   4.228   9.194  11.090
20848W        W82269  31.995  13.840   0.844
20849W        W82270  37.561   3.893  12.972
20850W        W82271   0.812   8.193   3.773
20851W        W82272  25.061   4.784  13.002
20852W        W82273  24.169  18.174  14.398
20853W        W82274   2.739  37.387   1.766
20854W        W82275  39.029  40.827  13.043
20855W        W82276  37.070   5.382   1.908
20856W        W82277  14.748  37.485  10.005
20857W        W82278  35.369  28.933   3.695
20858W        W82279  38.879  21.185  12.486
20859W        W82280  28.460  39.894  12.410
20860W        W82281   8.747   1.968  11.496
20861W        W82282   8.178  18.728   0.406
20862W        W82283  38.007  30.148   2.318
20863W        W82284  29.582  14.110   4.765
20864W        W82285  10.349  43.320  10.448
20865W        W82286  38.346  20.669  12.410
20866W        W82287   3.421  36.371   2.774
20867W        W82288  37.890  25.185  10.415
20868W        W82289  40.504  22.165  10.540
20869W        W82290  27.072  19.111   1.775
20870W        W82291  37.960  43.932   4.802
20871W        W82292  31.416  33.581  10.415
20872W        W82293   5.346  40.544   0.876
20873W        W82294  27.170  22.224  10.638
20874W        W82295  12.636  14.588   2.725
20875W        W82296  23.529  28.931   2.234
20876W        W82297   2.864  34.369   0.386
20877W        W82298  16.268  16.286   2.325
20878W        W82299  35.577  21.709  11.508
20879W        W82300   6.416  27.106  10.546
20880W        W82301   7.206  31.493  10.977
20881W        W82302  22.999  33.396   1.704
20882W        W82303  36.087   5.383  12.539
20883W        W82304  27.576  21.225   0.745
20884W        W82305  36.066  17.720   3.707
20885W        W82306  25.609  30.995   1.290
20886W        W82307  22.109  42.484  12.002
20887W        W82308  38.842  21.524   3.154
20888W        W82309  35.913  12.144   0.735
20889W        W82310  23.019   1.343   2.375
20890W        W82311  44.769  18.296   0.285
20891W        W82312  20.583  26.002  11.936
20892W        W82313  18.738  35.473   1.334
20893W        W82314  25.600  23.234  14.856
20894W        W82315  22.155  29.955   3.805
20895W        W82316  12.247  44.341   2.755
20896W        W82317  25.524  40.365   2.411
20897W        W82318  29.092   0.964   3.762
20898W        W82319   0.324   9.199   4.827
20899W        W82320  12.263  38.013  13.348
20900W        W82321  18.284  12.662  12.344
20901W        W82322  25.196   6.692  12.917
20902W        W82323  11.635  35.868  13.913
20903W        W82324  26.592  22.706  14.455
20904W        W82325  38.380   8.402   4.121
20905W        W82326  23.724  24.206   2.768
20906W        W82327  10.764  25.174   2.225
20907W        W82328   7.353  37.876  11.459
20908W        W82329  16.305  11.329  10.632
20909W        W82330  33.609  34.031  14.324
20910W        W82331  12.277   1.461  11.933
20911W        W82332  24.079  44.867   1.916
20912W        W82333  31.009  38.044   3.706
20913W        W82334   4.875  33.587  13.027
20914W        W82335  31.141  40.393  13.397
20915W        W82336  41.838  18.171  14.334
20916W        W82337  44.270  28.960  11.003
20917W        W82338  13.149  43.317  12.906
20918W        W82339   3.894  43.349   0.965
20919W        W82340   9.392  42.914   5.282
20920W        W82341  42.024  24.502   4.644
20921W        W82342  16.756  13.619  13.791
20922W        W82343  25.571  26.981   2.869
20923W        W82344  30.124   9.875   4.609
20924W        W82345  40.324  23.620   0.368
20925W        W82346  28.014   0.405  11.514
20926W        W82347  14.126  23.018  12.529
20927W        W82348   1.881  42.471   0.303
20928W        W82349  42.372  20.753   0.738
20929W        W82350  40.823  32.924  12.832
20930W        W82351  10.835  10.252   3.851
20931W        W82352  17.294   5.841   4.691
20932W        W82353  32.024   9.812   4.154
20933W        W82354  12.165  44.300   3.359
20934W        W82355  23.645  32.471  12.092
20935W        W82356  15.822  28.616   1.872
20936W        W82357  19.208   5.199   5.598
20937W        W82358   1.298  24.557  13.387
20938W        W82359  13.693  22.584  14.414
20939W        W82360  21.208   4.811   3.325
20940W        W82361  16.087   9.261  14.947
20941W        W82362  29.437  15.692   2.240
20942W        W82363  43.855  22.694  13.006
20943W        W82364  34.083  37.897   4.795
20944W        W82365  22.735  26.542  14.957
20945W        W82366  37.451   5.395  11.476
20946W        W82367  13.690  37.901   4.209
20947W        W82368  44.888  14.829   1.366
20948W        W82369  44.792   5.910   0.434
20949W        W82370   8.823  20.742   0.258
20950W        W82371  38.374  43.298   1.216
20951W        W82372   5.778   6.721   0.348
20952W        W82373  19.182  42.476  12.398
20953W        W82374  20.560  42.428  14.774
20954W        W82375  16.796  38.556   4.226
20955W        W82376  23.618  40.010   3.772
20956W        W82377   5.433  32.594  10.921
20957W        W82378  30.512  21.068  13.978
20958W        W82379  23.144  29.442   2.308
20959W        W82380  22.103  15.218   3.306
20960W        W82381  11.663  26.588   4.295
20961W        W82382  21.585  25.519  14.332
20962W        W82383   2.407   5.292   2.269
20963W        W82384  40.020  31.480   3.665
20964W        W82385  22.677  38.929  13.015
20965W        W82386  38.509   9.813  13.802
20966W        W82387  32.083  12.712  12.072
20967W        W82388  36.948  33.398  14.988
20968W        W82389  28.166  43.957  14.421
20969W        W82390  28.573  18.051   2.670
20970W        W82391   8.696  19.698   2.753
20971W        W82392  24.675  33.964  11.422
20972W        W82393   9.691  25.493  11.552
20973W        W82394  27.528  43.293   2.348
20974W        W82395  20.646  22.627  11.602
20975W        W82396  22.043  10.849  10.511
20976W        W82397  15.629   4.320  12.825
20977W        W82398  15.716   7.263   4.194
20978W        W82399  24.660   3.267  11.052
20979W        W82400   9.871  26.667  14.813
20980W        W82401  34.870   6.861  14.317
20981W        W82402  35.919  40.946   3.664
20982W        W82403  20.689  35.471   2.814
20983W        W82404  20.560  19.633  14.377
20984W        W82405  38.900   5.804   4.164
20985W        W82406   2.733  22.094  12.054
20986W        W82407  14.830  35.504  11.075
20987W        W82408   3.770  43.790   0.275
20988W        W82409  19.246   2.772   4.624
20989W        W82410   3.784  39.530   1.326
20990W        W82411  43.333  36.024   1.333
20991W        W82412  28.660  19.779   3.278
20992W        W82413  31.036  12.724  12.532
20993W        W82414  43.951  19.699  12.960
20994W        W82415  16.244  28.555  12.057
20995W        W82416  19.206  35.488  13.991
20996W        W82417  28.951  32.128   4.707
20997W        W82418   0.403  35.529   4.122
20998W        W82419   6.849   9.750   1.930
20999W        W82420   0.972  30.576  12.402
21000W        W82421   7.731   1.806  13.450
21001W        W82422  29.666  40.939  13.471
21002W        W82423  44.455  31.529   0.308
21003W        W82424  22.679  18.685  12.432
21004W        W82425  27.470  25.517   1.847
21005W        W82426  44.367  16.685  14.908
21006W        W82427  11.801  31.429   2.408
21007W        W82428  33.987   0.486  13.011
21008W        W82429   7.860  41.463  14.340
21009W        W82430  42.413  27.054   1.777
21010W        W82431   2.903  36.915  13.835
21011W        W82432  22.173  17.645   2.253
21012W        W82433  32.960  28.036  10.949
21013W        W82434   0.275  34.083  11.059
21014W        W82435  27.003  32.099  10.003
21015W        W82436   2.769  24.166   3.653
21016W        W82437  14.802  25.014   2.882
21017W        W82438  31.420  43.468  12.083
21018W        W82439  44.431  30.114  12.032
21019W        W82440  37.934  32.523  13.411
21020W        W82441  19.185  13.279   2.408
21021W        W82442   7.212  34.476  13.889
21022W        W82443  35.061   7.811  14.496
21023W        W82444  24.134  33.491  14.346
21024W        W82445  32.078   9.351   2.407
21025W        W82446  25.084  34.593   3.227
21026W        W82447  36.850   0.305  14.890
21027W        W82448   2.443  29.481  10.539
21028W        W82449   5.394  11.261  10.455
21029W        W82450  13.699  16.201   2.308
21030W        W82451  22.620   9.710  11.082
21031W        W82452  30.146  29.083  12.479
21032W        W82453  31.034  32.483   2.837
21033W        W82454   7.896   2.333  11.889
21034W        W82455  15.103  21.669  10.948
21035W        W82456  25.034   6.825   2.378
21036W        W82457  25.130  41.452  12.085
21037W        W82458  15.251  41.525   4.223
21038W        W82459   6.899  13.791  14.292
21039W        W82460  36.590  32.937   4.242
21040W        W82461   3.300  43.289   4.259
21041W        W82462  11.646  20.679   1.803
21042W        W82463   2.833  29.499  14.397
21043W        W82464  32.980  12.278   5.119
21044W        W82465  17.640  21.603   0.798
21045W        W82466  20.256  22.717  13.922
21046W        W82467  44.343  21.059  11.913
21047W        W82468   2.868   5.824  14.899
21048W        W82469  15.636  36.911   2.708
21049W        W82470  22.572  13.111   2.823
21050W        W82471   2.724  34.924  12.447
21051W        W82472  16.694  34.996  10.500
21052W        W82473  31.606  40.994  14.013
21053W        W82474  30.909  41.014   3.189
21054W        W82475   5.769  20.743  13.969
21055W        W82476  37.562  12.139   3.359
21056W        W82477  38.060  22.740   2.797
21057W        W82478  10.674   5.753  10.424
21058W        W82479  20.092  38.963   1.259
21059W        W82480  22.603   2.826   3.379
21060W        W82481  42.417   6.418   1.275
21061W        W82482  43.914  34.058  13.997
21062W        W82483  14.761  34.502  11.957
21063W        W82484   3.720  24.229   1.842
21064W        W82485   6.303  43.482   3.672
21065W        W82486   7.753  44.298  11.985
21066W        W82487  41.312  39.028  12.091
21067W        W82488   0.376  20.578   3.376
21068W        W82489  37.502  29.138  14.897
21069W        W82490   0.910  30.063   0.731
21070W        W82491   6.317  34.373   4.741
21071W        W82492  21.214  20.079   2.385
21072W        W82493  32.622  11.865   0.399
21073W        W82494  34.583  33.600  14.423
21074W        W82495  34.024   1.340   9.483
21075W        W82496  37.368  30.441   0.907
21076W        W82497  10.149  33.909  14.996
21077W        W82498  35.518  44.885   1.425
21078W        W82499  31.133  41.001  11.453
21079W        W82500   9.760  30.417   0.265
21080W        W82501  31.956   0.860   5.248
21081W        W82502  37.350  37.509  13.024
21082W        W82503  37.396  13.627  13.502
21083W        W82504  35.516  30.593  11.108
21084W        W82505   9.782   0.434   1.315
21085W        W82506  26.074  38.964  14.950
21086W        W82507  26.471  32.080  11.582
21087W        W82508  25.141  21.246  13.859
21088W        W82509  22.048  37.403  14.969
21089W        W82510   2.448  31.943  10.920
21090W        W82511  29.061  35.100   3.153
21091W        W82512  15.630  41.913   2.178
21092W        W82513  18.631  31.481  13.862
21093W        W82514  39.330  43.385  12.011
21094W        W82515  38.826  25.043   1.698
21095W        W82516  31.523  28.948   4.764
21096W        W82517   7.684  24.553  12.890
21097W        W82518  19.061  24.483   3.644
21098W        W82519  43.879  43.001  12.498
21099W        W82520  27.544  44.379  12.513
21100W        W82521  43.011  25.078   2.825
21101W        W82522  15.673  43.800  13.968
21102W        W82523  38.340   7.871  12.012
21103W        W82524  12.618  15.585  13.928
21104W        W82525   9.695  36.068   2.873
21105W        W82526  15.275   2.252   4.206
21106W        W82527   9.211  16.170   1.215
21107W        W82528  30.469   7.233   3.754
21108W        W82529  41.532   2.890   1.231
21109W        W82530  28.626  34.611  14.444
21110W        W82531  24.033  25.161  13.915
21111W        W82532  38.863  38.473   1.417
21112W        W82533   5.786  14.339  10.428
21113W        W82534   5.432  33.097   0.937
21114W        W82535  25.084  28.558   4.749
21115W        W82536  22.207  13.630   2.857
21116W        W82537  44.844  10.863  13.429
21117W        W82538  21.579  11.624   3.675
21118W        W82539  34.107  25.097   2.903
21119W        W82540  24.997   2.313   4.701
21120W        W82541  20.569  37.363   2.834
21121W        W82542  13.823  25.590   3.342
21122W        W82543  38.443  11.682  13.976
21123W        W82544   6.330  36.575   1.751
21124W        W82545   4.330   6.707   1.928
21125W        W82546   1.480  29.424   0.359
21126W        W82547  32.090  25.517   0.289
21127W        W82548   1.731  17.751  12.998
21128W        W82549  27.005   6.788   0.476
21129W        W82550  11.861  20.663  12.985
21130W        W82551  37.018  14.728  11.585
21131W        W82552  20.639  26.478   3.685
21132W        W82553  42.953  16.589   0.242
21133W        W82554  44.964  18.696  10.508
21134W        W82555  44.269  32.569   4.339
21135W        W82556  16.099   0.490  14.420
21136W        W82557  33.984  36.531   3.234
21137W        W82558   9.208   8.873  11.584
21138W        W82559  29.972   6.378   2.772
21139W        W82560  34.924  34.013   3.342
21140W        W82561   2.422  39.344   1.211
21141W        W82562  37.369   4.818  11.865
21142W        W82563  39.022  22.143   3.336
21143W        W82564   5.880  18.241  13.506
21144W        W82565  31.087  36.045  10.453
21145W        W82566   7.667   3.238  10.999
21146W        W82567  17.221  13.648  12.917
21147W        W82568  17.110  32.108  14.799
21148W        W82569  32.049  39.001   0.469
21149W        W82570   5.195  44.381  10.595
21150W        W82571  41.417   0.936  14.349
21151W        W82572  28.497   5.364   0.799
21152W        W82573  10.210   6.698   2.815
21153W        W82574  34.462  41.525   3.733
21154W        W82575  32.599  25.189  14.938
21155W        W82576  22.746  33.064   0.381
21156W        W82577  42.313  27.965  13.400
21157W        W82578   9.876  40.834  14.353
21158W        W82579   5.890  41.485   9.562
21159W        W82580   8.256   5.284  10.559
21160W        W82581  25.701   7.714   3.334
21161W        W82582  30.042  26.092  11.915
21162W        W82583  29.947  11.194  12.545
21163W        W82584   7.722  28.525  11.381
21164W        W82585  20.225  29.050  10.427
21165W        W82586   8.869  27.164  12.029
21166W        W82587   1.809  32.093   1.285
21167W        W82588  42.524  21.628  12.043
21168W        W82589  38.951  11.719  13.009
21169W        W82590  44.267  24.061   0.461
21170W        W82591  14.616  41.477  14.414
21171W        W82592   4.747   4.745   3.720
21172W        W82593   4.764  25.117   3.162
21173W        W82594  39.420  13.742   2.305
21174W        W82595  11.304   6.418  12.862
21175W        W82596   5.220  27.970   1.396
21176W        W82597   8.658  10.314  11.875
21177W        W82598  11.631  37.087   3.742
21178W        W82599  23.594  35.397  13.477
21179W        W82600   7.219  12.210  12.965
21180W        W82601   6.881  37.970   3.711
21181W        W82602  28.970   5.428   3.257
21182W        W82603  43.899  32.476  12.473
21183W        W82604  35.389   9.757   2.758
21184W        W82605   5.435  17.792  13.847
21185W        W82606  41.864  39.887  11.453
21186W        W82607  11.309  26.486   2.691
21187W        W82608  23.178  15.675  10.636
21188W        W82609  37.970  12.835   2.674
21189W        W82610   9.660  31.085   4.129
21190W        W82611   4.882   2.281   0.443
21191W        W82612  27.037  23.598  13.791
21192W        W82613  14.243  23.172  10.930
21193W        W82614  40.355  33.024  14.982
21194W        W82615   5.697  31.558   0.428
21195W        W82616  41.009  25.089  13.824
21196W        W82617  34.931  20.168  13.459
21197W        W82618  10.275   2.889  12.462
21198W        W82619  33.939  37.534  10.498
21199W        W82620  31.543  15.112  14.496
21200W        W82621  40.896  30.913  13.546
21201W        W82622  18.185  43.348  13.496
21202W        W82623   0.828  12.296   0.828
21203W        W82624  13.225  39.347   1.784
21204W        W82625  26.631  16.114   4.785
21205W        W82626  39.350   6.779  12.917
21206W        W82627  39.366  22.048  12.500
21207W        W82628  35.070  38.446  11.928
21208W        W82629  21.092  31.458  11.390
21209W        W82630   0.483  23.536   1.421
21210W        W82631  44.907  29.603  10.891
21211W        W82632  12.215  27.044   3.292
21212W        W82633   4.234  32.560   5.086
21213W        W82634   9.726  20.580   3.692
21214W        W82635  30.425   6.748   0.384
21215W        W82636  34.565  11.775   4.663
21216W        W82637  34.425  12.258   2.239
21217W        W82638  15.217  19.622  14.279
21218W        W82639   1.253  18.061  12.049
21219W        W82640  26.994  14.114   0.963
21220W        W82641  38.983   9.389  11.543
21221W        W82642   5.788  26.604   4.769
21222W        W82643   3.441  38.996  13.374
21223W        W82644  10.241  31.080   2.392
21224W        W82645   2.229  25.156   0.841
21225W        W82646  20.593  32.895  13.515
21226W        W82647   2.736  34.874   9.559
21227W        W82648  13.182  34.916  10.513
21228W        W82649  25.063  19.045   2.238
21229W        W82650   6.840  40.934  10.897
21230W        W82651  41.803  33.906  12.096
21231W        W82652  41.411   6.779  12.341
21232W        W82653  31.076  25.001   1.724
21233W        W82654  28.534  28.140  14.323
21234W        W82655  10.795  15.752  14.448
21235W        W82656   4.736   7.819   1.340
21236W        W82657  11.659  18.720   0.756
21237W        W82658  39.881  12.852   4.611
21238W        W82659  39.327  38.496   2.718
21239W        W82660  33.442   7.247  13.495
21240W        W82661  20.178  26.509   1.234
21241W        W82662  16.607  15.689  14.805
21242W        W82663  36.062  34.586   0.871
21243W        W82664  21.660  29.105   4.637
21244W        W82665  32.119  37.878   2.383
21245W        W82666  19.210  19.697   4.627
21246W        W82667  27.663  37.865  13.478
21247W        W82668   0.952  10.760  13.933
21248W        W82669  41.004   4.915   3.287
21249W        W82670  25.996   0.371  12.508
21250W        W82671  31.487   9.289  14.339
21251W        W82672  25.003  36.011  14.425
21252W        W82673  25.111  25.068  10.958
21253W        W82674  28.169  36.497   1.345
21254W        W82675  19.160  18.550   4.319
21255W        W82676   7.733   9.290   2.809
21256W        W82677   2.290  37.482  10.485
21257W        W82678  13.285  14.651   4.748
21258W        W82679  40.498   1.853  11.953
21259W        W82680  13.279  34.100   2.665
21260W        W82681  27.481  18.186   3.302
21261W        W82682  23.597  38.479   2.707
21262W        W82683  34.099   7.878  14.515
21263W        W82684   3.887   3.260  12.561
21264W        W82685  27.047  23.996  13.852
21265W        W82686   0.954  30.592  10.928
21266W        W82687  13.845  21.081   0.730
21267W        W82688  38.021  15.786   4.345
21268W        W82689  20.575  15.252  12.060
21269W        W82690   2.798  27.970   2.374
21270W        W82691  34.568  24.628   0.351
21271W        W82692  39.066  36.449  13.470
21272W        W82693  10.838  36.346  10.643
21273W        W82694  32.040   7.312  10.406
21274W        W82695   0.278  20.629   2.362
21275W        W82696  26.176  33.121   3.378
21276W        W82697  32.120   7.769  14.795
21277W        W82698  36.352   7.243  10.054
21278W        W82699  26.471  33.935  11.480
21279W        W82700  35.404   2.776  13.936
21280W        W82701  32.896  29.056   3.753
21281W        W82702  14.209  41.856  12.092
21282W        W82703  30.475  12.697  11.056
21283W        W82704  30.577  28.641  10.411
21284W        W82705  31.946  35.534  12.430
21285W        W82706  26.133   1.409   2.294
21286W        W82707  19.212  17.254  13.460
21287W        W82708  11.142   9.172   4.627
21288W        W82709  27.133  25.991   3.684
21289W        W82710  27.458  29.435   4.194
21290W        W82711  12.658  39.501   2.207
21291W        W82712  26.053  18.618   1.910
21292W        W82713  19.221  25.677   2.868
21293W        W82714  17.144  35.484  11.921
21294W        W82715  35.001  12.740   4.710
21295W        W82716  12.734  26.492  10.600
21296W        W82717  42.942  35.524   3.827
21297W        W82718  33.068  18.718  10.616
21298W        W82719  19.236   6.719   1.397
21299W        W82720  25.577  16.617   4.680
21300W        W82721  18.209  27.147   1.929
21301W        W82722  38.339  31.618  13.431
21302W        W82723  27.137   4.867   3.719
21303W        W82724   5.280  14.596  12.918
21304W        W82725  17.295  25.093  14.834
21305W        W82726   3.864  11.720   4.115
21306W        W82727  34.419   0.897   5.752
21307W        W82728  32.047  20.768   9.987
21308W        W82729  43.337  17.167   0.449
21309W        W82730  15.775   4.249   2.196
21310W        W82731  11.245  22.182  11.041
21311W        W82732  21.108  43.787   4.218
21312W        W82733   5.815  14.662  14.493
21313W        W82734  39.873   4.858  13.922
21314W        W82735  16.756  28.037  12.953
21315W        W82736  28.147  34.441  10.952
21316W        W82737  42.433  13.602  12.505
21317W        W82738  26.493  16.668  10.457
21318W        W82739  44.503   3.221  11.519
21319W        W82740  23.049  12.215   1.286
21320W        W82741  27.082  18.741   3.284
21321W        W82742  21.260  13.298   1.855
21322W        W82743  39.995  23.084  12.462
21323W        W82744  41.010  35.431   2.795
21324W        W82745  34.902  20.250  10.935
21325W        W82746  30.068   5.198  11.098
21326W        W82747  19.536  26.117   3.804
21327W        W82748  36.970  30.599   4.151
21328W        W82749  34.509  42.387   1.795
21329W        W82750  40.009  32.569  11.373
21330W        W82751  15.321   0.274  11.401
21331W        W82752   2.228  36.862  10.455
21332W        W82753   3.864   4.730  13.370
21333W        W82754  30.488  33.451  11.567
21334W        W82755   1.743  15.756   1.724
21335W        W82756  27.554  29.467   0.788
21336W        W82757  29.130  33.402   0.303
21337W        W82758   9.325  35.500  12.353
21338W        W82759  37.988  18.582  11.998
21339W        W82760  32.092  32.501  13.922
21340W        W82761  29.664   1.360   0.837
21341W        W82762  33.106  18.129   1.322
21342W        W82763  36.501   1.876   1.887
21343W        W82764   9.177  12.654  11.377
21344W        W82765   6.752   7.692  14.806
21345W        W82766  41.299  27.038   3.857
21346W        W82767  39.039  16.285   0.286
21347W        W82768  20.688  34.975  13.851
21348W        W82769  37.364  40.800   0.926
21349W        W82770  31.514  16.768  10.427
21350W        W82771  19.278  12.659   0.739
21351W        W82772  31.914   5.196   4.352
21352W        W82773  28.635   7.235   1.432
21353W        W82774   7.353  10.381  12.405
21354W        W82775  37.017  14.185   2.830
21355W        W82776  10.674   3.363  13.329
21356W        W82777   2.399  19.686   0.478
21357W        W82778  29.936  32.122  10.419
21358W        W82779   3.306  41.467   0.263
21359W        W82780  21.031  17.691  10.950
21360W        W82781   5.303   6.820   2.703
21361W        W82782  41.462   6.781  13.463
21362W        W82783  21.181   5.283  11.891
21363W        W82784  35.546  28.491   4.810
21364W        W82785  40.897  21.676  11.904
21365W        W82786  30.016   1.302   3.322
21366W        W82787   5.825  11.185  14.868
21367W        W82788  16.240  14.827  14.490
21368W        W82789  30.643  12.710   4.293
21369W        W82790  12.757  29.002  11.087
21370W        W82791  41.365  30.498  14.019
21371W        W82792   1.413   5.745   3.746
21372W        W82793  40.432   0.851  12.454
21373W        W82794  28.120  24.025   3.809
21374W        W82795  33.110  32.446  13.462
21375W        W82796   9.205  12.727  10.916
21376W        W82797   4.770  33.027   4.349
21377W        W82798  27.166  40.309   0.739
21378W        W82799  27.685  13.135  12.083
21379W        W82800   0.267  38.839  11.535
21380W        W82801  27.064  15.160  13.982
21381W        W82802  38.837   2.815   2.352
21382W        W82803  30.057  15.160  10.465
21383W        W82804  13.301  26.020  11.585
21384W        W82805  19.174   2.370   1.251
21385W        W82806  17.094   6.686   3.306
21386W        W82807  18.057  25.713  11.124
21387W        W82808  14.220  31.463   2.314
21388W        W82809  10.325  20.153  14.850
21389W        W82810  25.539  31.493   1.421
21390W        W82811  28.954  17.566   2.753
21391W        W82812  40.472   5.879   2.898
21392W        W82813   9.711  25.481  12.476
21393W        W82814   1.964  20.257   0.884
21394W        W82815  25.199  28.451  12.034
21395W        W82816   1.340  36.375   2.258
21396W        W82817  31.146  11.865  13.889
21397W        W82818  15.319   8.176   1.902
21398W        W82819  11.321   8.199  10.441
21399W        W82820  40.820  18.654   0.442
21400W        W82821  41.944  25.547   1.830
21401W        W82822  15.625  40.365  13.976
21402W        W82823  38.418   2.830   2.415
21403W        W82824  44.851  23.193  14.982
21404W        W82825  19.659   7.320   4.299
21405W        W82826  21.063  17.595  13.961
21406W        W82827  25.133  41.485   0.256
21407W        W82828  33.421  42.336  12.908
21408W        W82829  19.250  14.813   3.858
21409W        W82830   7.278   8.200   1.843
21410W        W82831  10.735  15.121  10.422
21411W        W82832  27.595  31.494   1.892
21412W        W82833   6.296   3.401   5.318
21413W        W82834  21.527  27.163   3.670
21414W        W82835   0.367   5.378   1.443
21415W        W82836  23.567  35.039  12.531
21416W        W82837  19.145  32.092  14.427
21417W        W82838   9.700  44.940   0.246
21418W        W82839  31.032  33.586  13.989
21419W        W82840  38.989  14.300   3.642
21420W        W82841  26.465   3.362  10.644
21421W        W82842  34.491  27.622  13.925
21422W        W82843   6.844  29.513  13.956
21423W        W82844   9.310  34.611   3.796
21424W        W82845  16.083  24.596   3.728
21425W        W82846  40.912   6.209   4.763
21426W        W82847   6.782   0.916  13.894
21427W        W82848  10.157  10.305   1.302
21428W        W82849   1.777  37.433  12.438
21429W        W82850  34.456  16.194   2.822
21430W        W82851  18.766   8.289  12.021
21431W        W82852   2.360  24.220  12.835
21432W        W82853  19.620  15.660  12.434
21433W        W82854  31.054  11.822  11.879
21434W        W82855  39.390  22.692  11.396
21435W        W82856   0.258  33.089  13.429
21436W        W82857  40.308  19.058   3.718
21437W        W82858  16.700  44.352   4.825
21438W        W82859   7.751  33.997   1.401
21439W        W82860  43.414   4.735  10.603
21440W        W82861  14.306   9.869   0.426
21441W        W82862  14.804  14.200  12.502
21442W        W82863   8.230  14.747   3.836
21443W        W82864  29.940  26.663  11.869
21444W        W82865  38.546  31.977   0.916
21445W        W82866  24.566  32.017  12.962
21446W        W82867  16.591  38.997   3.664
21447W        W82868   7.371  25.545   0.434
21448W        W82869  18.099   3.893  14.890
21449W        W82870  16.176  25.054   5.252
21450W        W82871   7.212  36.016  13.061
21451W        W82872  35.924  29.930   1.810
21452W        W82873   2.472  14.684   3.174
21453W        W82874  36.911   7.725  13.812
21454W        W82875  29.508   1.883   2.809
21455W        W82876   7.891  36.462  13.836
21456W        W82877  16.567   3.831  10.497
21457W        W82878  14.750   2.229   2.383
21458W        W82879  28.058  38.553   5.167
21459W        W82880  34.606  13.829  11.469
21460W        W82881  14.677  31.471  11.479
21461W        W82882  25.087  10.377   2.834
21462W        W82883  43.271  18.224  12.348
21463W        W82884   0.831   2.865   1.753
21464W        W82885  22.080   0.936   4.782
21465W        W82886  26.523  42.333   0.892
21466W        W82887   9.342  12.719   2.303
21467W        W82888  32.049  15.721   1.254
21468W        W82889  24.023  28.512  11.051
21469W        W82890  33.052  29.626   1.428
21470W        W82891  10.698  14.270  12.554
21471W        W82892   5.379  15.236  12.829
21472W        W82893  18.150   9.884   4.616
21473W        W82894  25.080  26.483  14.468
21474W        W82895  32.516  38.466   4.814
21475W        W82896  18.128   0.912  14.357
21476W        W82897  28.529  40.476  12.085
21477W        W82898  13.236  25.184   2.224
21478W        W82899   1.822  20.187   4.169
21479W        W82900  32.143  25.495   0.797
21480W        W82901  39.877  43.837  11.942
21481W        W82902  27.639   9.394   0.798
21482W        W82903   0.463  19.282   2.190
21483W        W82904  20.584   4.371   3.316
21484W        W82905   9.743  44.464  14.391
21485W        W82906  23.025  19.597   3.649
21486W        W82907   7.294  27.637   4.608
21487W        W82908  35.439  12.807  12.348
21488W        W82909  44.893  24.550  12.963
21489W        W82910  33.550  10.722   0.829
21490W        W82911  30.418  39.408  13.845
21491W        W82912  39.855  19.112   1.741
21492W        W82913  37.943  29.571   4.301
21493W        W82914   3.384  26.164   3.792
21494W        W82915  20.156  20.680  11.992
21495W        W82916   8.339   4.732  12.985
21496W        W82917  14.171   3.922  12.956
21497W        W82918  35.584  28.436  11.426
21498W        W82919  16.251   6.280  13.373
21499W        W82920  14.728  11.298  12.973
21500W        W82921  33.048  33.885   0.436
21501W        W82922  24.599   4.723   1.731
21502W        W82923  29.485  41.518  14.320
21503W        W82924  31.488  36.397   1.835
21504W        W82925  40.915  44.773   1.802
21505W        W82926   6.895  18.133   2.744
21506W        W82927  44.293   8.294  12.909
21507W        W82928  28.629   0.948   3.632
21508W        W82929  27.983   8.725   4.764
21509W        W82930  37.082  41.966  10.513
21510W        W82931  32.562   3.378   0.373
21511W        W82932  12.617   0.395  13.005
21512W        W82933   4.214   6.877  14.516
21513W        W82934  14.340   5.892   3.769
21514W        W82935  12.823  30.571  10.936
21515W        W82936  28.530  42.868   3.660
21516W        W82937  20.683   9.718  10.969
21517W        W82938  33.563  26.508  12.367
21518W        W82939  43.369  35.933   4.251
21519W        W82940  36.057  44.407   3.653
21520W        W82941   7.201  41.029   1.346
21521W        W82942  12.315  39.858  13.997
21522W        W82943  44.472  22.012   5.190
21523W        W82944  41.359  13.185   2.365
21524W        W82945  12.692   5.780  11.517
21525W        W82946  42.935   1.892   0.952
21526W        W82947  37.026  41.034   4.661
21527W        W82948   4.403   2.845   0.452
21528W        W82949   7.768  44.928  12.898
21529W        W82950  36.550  32.050  11.033
21530W        W82951  34.880  30.155   2.891
21531W        W82952  27.047  19.694   5.138
21532W        W82953  14.244  39.410  11.542
21533W        W82954   2.758   1.349   3.796
21534W        W82955   0.748   6.370   5.246
21535W        W82956  15.680  12.835  13.318
21536W        W82957   8.761   8.386  10.580
21537W        W82958  37.530  20.167  12.074
21538W        W82959  35.060  36.942   3.153
21539W        W82960  31.548   4.724   0.951
21540W        W82961  28.499  28.674  12.841
21541W        W82962   9.701  28.945  10.424
21542W        W82963  27.075  27.581   0.464
21543W        W82964   8.879   1.357  11.428
21544W        W82965  35.033  24.013   1.851
21545W        W82966  14.672  13.142  10.964
21546W        W82967  34.590  14.705   4.276
21547W        W82968  40.502  37.449   3.386
21548W        W82969  35.565  29.514  14.460
21549W        W82970  39.973  27.625   4.788
21550W        W82971  37.406   8.354  13.905
21551W        W82972  29.432  23.238   4.646
21552W        W82973  28.658  15.596  12.078
21553W        W82974  41.827   7.910  10.962
21554W        W82975   8.766  32.394  11.466
21555W        W82976  34.068  15.234  13.960
21556W        W82977   0.328  15.637   1.316
21557W        W82978  13.736  20.589  12.845
21558W        W82979  29.434  26.042   4.178
21559W        W82980  44.362  37.060   2.664
21560W        W82981  39.945   8.704   3.269
21561W        W82982   9.715  22.011  13.022
21562W        W82983  41.853  43.977  12.380
21563W        W82984   1.899  26.159  12.977
21564W        W82985  37.893  13.833  10.064
21565W        W82986  10.345  14.212   0.792
21566W        W82987  12.713  32.548  12.398
21567W        W82988  20.063   4.754  10.515
21568W        W82989  22.106  22.187  11.382
21569W        W82990  17.293  37.407   4.627
21570W        W82991  19.735  40.013  13.485
21571W        W82992  19.154   8.317   3.169
21572W        W82993  27.596  37.881  11.407
21573W        W82994  34.562  40.473   0.849
21574W        W82995  33.118  10.865  10.438
21575W        W82996  34.394   8.345  13.887
21576W        W82997  32.963  13.118   9.668
21577W        W82998  34.377  42.984   3.809
21578W        W82999  15.612  34.996  14.999
21579W        W83000  18.648  39.994   0.916
21580W        W83001  13.293   8.220   0.848
21581W        W83002  24.088   9.319  10.911
21582W        W83003  13.290  20.041  12.004
21583W        W83004  41.397  28.081   2.774
21584W        W83005  37.578  43.332  13.434
21585W        W83006  44.390  21.108   0.306
21586W        W83007  37.417  32.552  14.496
21587W        W83008  41.884  19.735  11.992
21588W        W83009   1.917  26.657  10.625
21589W        W83010  17.247  10.218  12.057
21590W        W83011  40.482  42.917   3.282
21591W        W83012  35.936  15.725   1.233
21592W        W83013   1.353  43.796   4.308
21593W        W83014  29.919  41.870   0.258
21594W        W83015  13.208   5.234   0.762
21595W        W83016  12.193  33.463  13.314
21596W        W83017  21.093  22.048   4.210
21597W        W83018  11.366  43.767   0.899
21598W        W83019  36.428  38.364  12.005
21599W        W83020  17.630   4.314  13.861
21600W        W83021   5.209   8.793   0.744
21601W        W83022   9.340  27.062   4.762
21602W        W83023  31.918  39.346  11.387
21603W        W83024   5.366  28.070   0.328
21604W        W83025  35.075   5.814   5.724
21605W        W83026  44.469  10.277   5.095
21606W        W83027  40.329  12.295   0.437
21607W        W83028  27.556  25.178   4.757
21608W        W83029  18.241  41.370   4.347
21609W        W83030  27.018  18.778   2.897
21610W        W83031  35.540   9.149  11.504
21611W        W83032  21.105  40.813  11.994
21612W        W83033  44.901  32.951   1.795
21613W        W83034  33.080  39.961  13.975
21614W        W83035   5.804  34.885  10.521
21615W        W83036  37.969  39.364  10.508
21616W        W83037  10.209  39.543  11.910
21617W        W83038   6.386  38.550   4.755
21618W        W83039  26.491  23.123   2.332
21619W        W83040  11.303  29.557  12.443
21620W        W83041  40.356  23.515   3.333
21621W        W83042  37.855  26.995  10.505
21622W        W83043  28.440   6.807  13.013
21623W        W83044   2.836   9.169  14.415
21624W        W83045  25.042  41.508  11.481
21625W        W83046  44.909   6.744  11.015
21626W        W83047  23.185  26.583   3.692
21627W        W83048  27.541  42.329  10.607
21628W        W83049  39.997  12.240   9.511
21629W        W83050  41.408  38.878   0.800
21630W        W83051  14.148  34.553  10.964
21631W        W83052  16.234  12.177  11.962
21632W        W83053  28.635  41.036   1.271
21633W        W83054  16.216  34.522  14.305
21634W        W83055  25.514  18.679   4.327
21635W        W83056   9.191  28.528  12.070
21636W        W83057  26.075  16.755  13.917
21637W        W83058  39.839  37.949  10.545
21638W        W83059   9.727  44.984  11.552
21639W        W83060  38.978  11.726   0.746
21640W        W83061   6.376  34.094   0.345
21641W        W83062  35.383  39.538   1.752
21642W        W83063  39.975  27.589   0.309
21643W        W83064  24.055  26.122   2.731
21644W        W83065  27.085  20.172  10.998
21645W        W83066  23.110   6.884  12.453
21646W        W83067  31.552  35.070   4.624
21647W        W83068   1.343   7.816   3.812
21648W        W83069   9.239  14.143   4.250
21649W        W83070  36.841   9.176   0.351
21650W        W83071   6.411  33.541  14.457
21651W        W83072  15.809  14.727  10.153
21652W        W83073  38.505  28.550   0.819
21653W        W83074  16.161  16.286   9.551
21654W        W83075  30.657  43.335   0.431
21655W        W83076  17.649   3.814  12.969
21656W        W83077  41.395  17.661  13.389
21657W        W83078  10.184   6.379   2.325
21658W        W83079  14.681  23.689   1.327
21659W        W83080  19.548   4.283   0.832
21660W        W83081  13.305  34.369   1.213
21661W        W83082  33.916  27.681   0.300
21662W        W83083  31.545  14.124   1.835
21663W        W83084  25.119  10.175   4.781
21664W        W83085  32.488   9.732   2.363
21665W        W83086   1.331  28.458   4.673
21666W        W83087  25.468  18.255   0.381
21667W        W83088   4.931  13.766   4.806
21668W        W83089  39.912  32.548   1.444
21669W        W83090  34.564   0.774   3.818
21670W        W83091  44.907  37.544  13.800
21671W        W83092   1.890  30.454  14.377
21672W        W83093  40.921  23.600  11.554
21673W        W83094  12.677   0.956   0.302
21674W        W83095   9.388  35.384  11.002
21675W        W83096  40.361  27.674   3.219
21676W        W83097  27.586  33.902  14.030
21677W        W83098  12.617  30.960   5.141
21678W        W83099  39.866  26.196  11.124
21679W        W83100   1.386   2.774   1.764
21680W        W83101  44.001  11.300  12.542
21681W        W83102  31.643  41.827   3.312
21682W        W83103   7.758   0.291   4.166
21683W        W83104  27.155  34.055  12.548
21684W        W83105  40.003  16.121   3.323
21685W        W83106  17.169  32.950  14.383
21686W        W83107  43.787  32.931   3.695
21687W        W83108  29.559  11.825   3.292
21688W        W83109  17.676   9.843   2.183
21689W        W83110   5.388  21.594  13.024
21690W        W83111  33.100   4.221   4.190
21691W        W83112  15.312  32.889   5.592
21692W        W83113  14.717   4.766  14.488
21693W        W83114  32.929  40.838  13.847
21694W        W83115  20.140  29.059   2.694
21695W        W83116  36.936  26.177  11.925
21696W        W83117  28.471   4.435  14.390
21697W        W83118   0.944   6.200  13.518
21698W        W83119  44.388  16.095  10.888
21699W        W83120  23.159   4.357   1.267
21700W        W83121  18.769  43.926  13.986
21701W        W83122  23.695  28.507   0.950
21702W        W83123  42.848  17.241   2.676
21703W        W83124  28.497  30.479  10.940
21704W        W83125  25.059  41.956   0.949
21705W        W83126  23.576   6.222   2.417
21706W        W83127   3.438  10.815  10.614
21707W        W83128  43.961  40.864  12.992
21708W        W83129  15.728   3.882   0.334
21709W        W83130  22.222   9.189   3.219
21710W        W83131   4.900  32.455  13.056
21711W        W83132  23.014   5.927  13.337
21712W        W83133  24.065  33.918   0.372
21713W        W83134  36.475  26.063   2.250
21714W        W83135  24.539  22.095  11.400
21715W        W83136  30.558  21.520   0.908
21716W        W83137  34.593   9.330  11.559
21717W        W83138  14.834  18.679   4.202
21718W        W83139  35.954  13.683  14.495
21719W        W83140  16.617  37.838   1.865
21720W        W83141  21.137  24.120  14.449
21721W        W83142  28.468  18.670  12.540
21722W        W83143  30.579   3.301   4.352
21723W        W83144  25.675  15.637  14.486
21724W        W83145  15.581  34.563  13.991
21725W        W83146   1.247  36.364  13.034
21726W        W83147  13.208  22.687  10.487
21727W        W83148  10.830  17.578   1.830
21728W        W83149  21.726  15.619  13.540
21729W        W83150  36.982  24.665   3.834
21730W        W83151  32.892   0.440   3.766
21731W        W83152  27.621  43.774   1.335
21732W        W83153   7.787  32.627   1.927
21733W        W83154  25.986  21.746  10.563
21734W        W83155  13.731  26.466  12.896
21735W        W83156  42.009   0.256   3.267
21736W        W83157  41.019  33.589   0.927
21737W        W83158  17.157  31.590   1.931
21738W        W83159  19.189  32.416  11.053
21739W        W83160  36.014  32.635  14.489
21740W        W83161  13.181  35.013  12.969
21741W        W83162  16.758  40.996  10.612
21742W        W83163   8.222   3.953   0.397
21743W        W83164  10.196  22.059   4.792
21744W        W83165  12.291  25.619  12.902
21745W        W83166  28.444   7.190   4.206
21746W        W83167  31.074  35.457   1.826
21747W        W83168  18.732  16.693  13.507
21748W        W83169  16.303  13.661  14.946
21749W        W83170  19.678   7.774  14.992
21750W        W83171   1.452  20.707  11.982
21751W        W83172  10.381   3.777   5.194
21752W        W83173  30.482  31.050  13.880
21753W        W83174  38.467   2.790  12.018
21754W        W83175  39.431  16.133  13.489
21755W        W83176  20.551  22.593   3.826
21756W        W83177  12.624  12.188  12.094
21757W        W83178   8.708  16.226  12.557
21758W        W83179  22.542  14.805   3.205
21759W        W83180  44.397  32.394   2.743
21760W        W83181   8.361   9.384  10.561
21761W        W83182  36.841  29.147  14.794
21762W        W83183  17.111  30.642  11.967
21763W        W83184   7.807  24.168  13.926
21764W        W83185  27.081   9.346   0.890
21765W        W83186  44.819  37.070  13.874
21766W        W83187  24.560  38.468   4.204
21767W        W83188  29.483   3.927   2.284
21768W        W83189  26.509  32.887  14.030
21769W        W83190  42.336  17.633  11.412
21770W        W83191  44.377  17.144  14.824
21771W        W83192   7.227   5.774  14.503
21772W        W83193  28.458   1.374   4.737
21773W        W83194  40.860  14.678   1.358
21774W        W83195  40.322  37.845   4.142
21775W        W83196   0.443  27.661  12.542
21776W        W83197  11.677   5.817  14.316
21777W        W83198  18.602  15.765   3.770
21778W        W83199  15.665  19.538  14.030
21779W        W83200  22.044  25.617  12.366
21780W        W83201  14.658   7.227  14.789
21781W        W83202   7.292  18.171   3.686
21782W        W83203   0.968   7.853  11.463
21783W        W83204  14.222  16.631   2.289
21784W        W83205  38.015  13.675   3.716
21785W        W83206  44.941  13.620  12.945
21786W        W83207  10.155  15.681   2.856
21787W        W83208  25.704  33.474   1.326
21788W        W83209  27.681   9.847  14.294
21789W        W83210  16.254  33.956  13.979
21790W        W83211  19.227  29.935   3.333
21791W        W83212  16.613   7.203   0.934
21792W        W83213  16.801  26.614  12.374
21793W        W83214  25.580  35.971   4.231
21794W        W83215  27.687   3.346  13.525
21795W        W83216  37.410  11.251  13.839
21796W        W83217  10.382  14.679  14.911
21797W        W83218   3.722  44.762  10.926
21798W        W83219  27.020   5.335   0.798
21799W        W83220  28.520  44.802   0.741
21800W        W83221  18.706  23.711   0.363
21801W        W83222   3.423  28.166  13.358
21802W        W83223  17.590  11.296   4.281
21803W        W83224  17.790  32.475  13.045
21804W        W83225  21.595  22.593  13.980
21805W        W83226   1.857  24.624   4.183
21806W        W83227  43.008  39.864  13.434
21807W        W83228  40.006   2.462  13.870
21808W        W83229  25.576  27.478  11.541
21809W        W83230  22.213  42.914   3.221
21810W        W83231  43.348  37.340   4.162
21811W        W83232  14.591  40.498   4.752
21812W        W83233  10.769  23.161  12.063
21813W        W83234   4.928  15.227   4.708
21814W        W83235  26.666  23.219  12.554
21815W        W83236  26.546  41.482  11.880
21816W        W83237  27.512   1.768  10.932
21817W        W83238   1.463  23.723   3.761
21818W        W83239   9.711  34.985  14.790
21819W        W83240  15.671  33.052  10.076
21820W        W83241  37.966  10.236   4.168
21821W        W83242  19.755   8.275   3.253
21822W        W83243  40.491  37.070  11.607
21823W        W83244   2.343  18.669  10.495
21824W        W83245   2.277  12.649  12.859
21825W        W83246  43.273  36.975  12.896
21826W        W83247  39.059  34.551   4.309
21827W        W83248   2.901  38.420   2.226
21828W        W83249  36.373   2.407   2.731
21829W        W83250  19.187  25.165   0.800
21830W        W83251  14.335  34.093   3.805
21831W        W83252  44.795  32.441  13.006
21832W        W83253   3.749   1.316  11.866
21833W        W83254  27.994  17.195   3.682
21834W        W83255  14.277   9.885  12.906
21835W        W83256   6.347  29.513   1.835
21836W        W83257  40.807  12.290  13.050
21837W        W83258  26.117  44.772  14.966
21838W        W83259  27.675  19.577   1.243
21839W        W83260  13.712   7.898   3.313
21840W        W83261  25.513  20.142   2.387
21841W        W83262  23.140  25.031  11.049
21842W        W83263  23.705  25.628   1.702
21843W        W83264   1.973  39.922   0.908
21844W        W83265  37.087  12.188  13.492
21845W        W83266  26.117  44.383   1.732
21846W        W83267   0.481  32.045  12.491
21847W        W83268  14.127  39.332  12.860
21848W        W83269   2.952  27.544   3.155
21849W        W83270  38.425   3.411   0.923
21850W        W83271  19.708   4.403  13.460
21851W        W83272   0.266  27.193  13.432
21852W        W83273  33.878   0.918   4.777
21853W        W83274  44.006  17.716  12.477
21854W        W83275  25.529  14.288  14.474
21855W        W83276  10.308  38.826   3.234
21856W        W83277  13.681  28.181  10.956
21857W        W83278  21.202  36.418   4.127
21858W        W83279  31.639  37.845  12.406
21859W        W83280  18.763  40.353  11.040
21860W        W83281  13.285  33.089  13.388
21861W        W83282  28.179  36.513  13.056
21862W        W83283  41.538  14.118   0.963
21863W        W83284  20.174  36.586  11.554
21864W        W83285  10.760   4.237   4.201
21865W        W83286  17.130   5.783  12.489
21866W        W83287   0.943   6.706  11.382
21867W        W83288  20.575  31.545   1.835
21868W        W83289  16.133   5.852   4.809
21869W        W83290  38.423  38.553   4.327
21870W        W83291  42.992  40.983   0.879
21871W        W83292  36.964  16.237   3.338
21872W        W83293  44.387   5.267   3.820
21873W        W83294  26.985  21.718  14.504
21874W        W83295   7.869  12.177   3.759
21875W        W83296  27.998  12.636  14.364
21876W        W83297   8.400   1.348   3.644
21877W        W83298   3.865  41.820  13.479
21878W        W83299  14.778   5.924  12.915
21879W        W83300  43.354  37.977  10.503
21880W        W83301  11.131  36.983   2.733
21881W        W83302   8.333  16.616  10.937
21882W        W83303  27.945  23.648  12.975
21883W        W83304  37.080  41.975   2.676
21884W        W83305  17.650   4.827   0.876
21885W        W83306  32.079   8.893  14.867
21886W        W83307  44.966  23.648  11.867
21887W        W83308   8.825   6.767   1.341
21888W        W83309  20.554  13.313  14.939
21889W        W83310  29.462  18.758  11.983
21890W        W83311  10.331  40.903   4.195
21891W        W83312  15.140  41.787   0.870
21892W        W83313  24.202  17.743   1.807
21893W        W83314   1.922  11.700   5.136
21894W        W83315  40.951   1.376  11.564
21895W        W83316   3.848  25.106  14.883
21896W        W83317  27.507  10.215   1.323
21897W        W83318  39.018   5.919   2.827
21898W        W83319  17.796  27.587   1.836
21899W        W83320  17.174   9.157   3.727
21900W        W83321  19.132   6.319   0.757
21901W        W83322  24.647   1.389   2.178
21902W        W83323   3.910   3.714  11.997
21903W        W83324  15.097  27.030   4.755
21904W        W83325  18.721  36.015  12.992
21905W        W83326  18.571  41.388   1.434
21906W        W83327  36.386  27.512  13.344
21907W        W83328  14.292  12.329   4.711
21908W        W83329  30.427   2.451  10.915
21909W        W83330  28.440  35.029  11.011
21910W        W83331   4.713   6.263   3.344
21911W        W83332  15.200  16.232   0.862
21912W        W83333  34.457  37.346   1.827
21913W        W83334  22.501  12.176   4.637
21914W        W83335  24.498  28.629   3.681
21915W        W83336  22.725   5.347  12.561
21916W        W83337  29.631  13.244  11.417
21917W        W83338   6.847   3.829  11.606
21918W        W83339  29.027   0.820   0.424
21919W        W83340  25.675  20.556   2.324
21920W        W83341  24.634  14.777   1.848
21921W        W83342  32.981   7.839  10.930
21922W        W83343  32.004  16.155  14.375
21923W        W83344  35.498   4.779  12.088
21924W        W83345  22.670  13.808  13.377
21925W        W83346  15.695  23.224  14.823
21926W        W83347  42.803  29.624  12.010
21927W        W83348   7.279  21.229  13.392
21928W        W83349   9.168  15.648   3.808
21929W        W83350  30.995   9.217  12.557
21930W        W83351  25.015  41.815  11.596
21931W        W83352  33.537  35.475   1.447
21932W        W83353  16.177  20.694  14.397
21933W        W83354  38.062  28.578   2.324
21934W        W83355   1.899   1.932  12.092
21935W        W83356  15.682   3.399  12.413
21936W        W83357  17.307  40.541   1.251
21937W        W83358  22.216   8.186  13.843
21938W        W83359  33.901  19.194   1.793
21939W        W83360  28.654   8.190   1.394
21940W        W83361  36.379  31.565   2.834
21941W        W83362  28.025   4.843   0.946
21942W        W83363  31.002  39.415   3.368
21943W        W83364  14.678  26.492  11.968
21944W        W83365  22.170  25.203   2.381
21945W        W83366  42.337   9.363  10.619
21946W        W83367  19.534  28.533  13.486
21947W        W83368  23.196  20.666   4.708
21948W        W83369  20.729   3.248  14.978
21949W        W83370  40.386  39.020  11.095
21950W        W83371  12.750  26.525  13.386
21951W        W83372   6.720   4.861   2.663
21952W        W83373  11.815  21.234   5.164
21953W        W83374  24.226  39.478  10.412
21954W        W83375  28.536  26.646   0.861
21955W        W83376   6.320  24.228   1.818
21956W        W83377  36.090  41.004  13.414
21957W        W83378  41.513   8.778   2.677
21958W        W83379  21.676   9.353  11.957
21959W        W83380  12.143   8.208   1.402
21960W        W83381  31.578   6.356  14.778
21961W        W83382   3.370  14.302  11.988
21962W        W83383   8.881   7.718  13.495
21963W        W83384   7.305  26.074   1.399
21964W        W83385  25.517  24.078   0.369
21965W        W83386  11.215  24.205   1.444
21966W        W83387  28.102  13.757  10.510
21967W        W83388  41.917  42.868   0.447
21968W        W83389  20.166   7.197  10.457
21969W        W83390  20.603   0.897  13.036
21970W        W83391  32.928  39.415  11.930
21971W        W83392  27.663  26.530  14.005
21972W        W83393  30.616  41.841  13.547
21973W        W83394  24.641   6.328   0.925
21974W        W83395  15.658  38.061   2.686
21975W        W83396  43.867  16.255   2.800
21976W        W83397  27.504  13.692  11.548
21977W        W83398  25.623  11.790  14.029
21978W        W83399  24.143  28.545  11.986
21979W        W83400  23.168  28.604  13.962
21980W        W83401  31.977  22.694  11.014
21981W        W83402   7.231  15.590  14.989
21982W        W83403  44.756  44.875   2.330
21983W        W83404  35.879  22.239  10.421
21984W        W83405  37.023   5.713  11.556
21985W        W83406  32.017   6.422  14.300
21986W        W83407  30.951  42.476   1.879
21987W        W83408   5.403  44.267  12.832
21988W        W83409  25.522  14.761  11.931
21989W        W83410  40.397  30.476   4.285
21990W        W83411  11.137   2.757  11.469
21991W        W83412  26.632  27.957   4.631
21992W        W83413  32.105   5.760  12.899
21993W        W83414  17.558  20.209   0.316
21994W        W83415   8.695  11.808  14.461
21995W        W83416  22.741  10.373   5.177
21996W        W83417  13.126  30.447  10.580
21997W        W83418  31.044   7.865   4.609
21998W        W83419  31.404  31.114  11.490
21999W        W83420  41.960  21.185  12.063
22000W        W83421  10.707  36.406  13.803
22001W        W83422  34.400   4.409  11.982
22002W        W83423  42.833  38.887  13.934
22003W        W83424  32.438  20.765  12.031
22004W        W83425  17.308   0.773  14.925
22005W        W83426  42.998  35.005   0.864
22006W        W83427   6.252  25.002  12.536
22007W        W83428   8.218  31.114  14.955
22008W        W83429  12.743  32.090   0.795
22009W        W83430   1.884  38.039  14.503
22010W        W83431  34.115  15.121   2.836
22011W        W83432  44.409  10.845   2.243
22012W        W83433  16.161  39.389  13.859
22013W        W83434   8.287   4.926  13.335
22014W        W83435  17.226   5.345  12.968
22015W        W83436  23.015  23.556   0.298
22016W        W83437   6.388   7.896   1.217
22017W        W83438   2.771   2.304   2.317
22018W        W83439  12.223   7.675   1.445
22019W        W83440   9.722   7.287  12.499
22020W        W83441   1.359   7.877  13.384
22021W        W83442   9.644  40.024   3.287
22022W        W83443  31.430   8.664   3.685
22023W        W83444   2.924  18.237  11.400
22024W        W83445  13.195  31.915  14.492
22025W        W83446   1.733   1.805   5.730
22026W        W83447  10.685  31.000  12.488
22027W        W83448  37.892   1.872   5.322
22028W        W83449  15.695  17.259   5.176
22029W        W83450  31.513  12.318  13.923
22030W        W83451  44.290  26.047   1.708
22031W        W83452  23.532  29.636  10.959
22032W        W83453  15.281   4.748   2.721
22033W        W83454  39.438   9.672  12.063
22034W        W83455   7.676  30.466   2.843
22035W        W83456  29.131   5.716   0.777
22036W        W83457  30.502  31.547   4.315
22037W        W83458  36.911   0.303   1.366
22038W        W83459  42.908  22.720  12.420
22039W        W83460  20.561  13.762  12.414
22040W        W83461  13.845  10.195   0.266
22041W        W83462  44.913  27.048  10.431
22042W        W83463  29.919  16.634   1.846
22043W        W83464  16.696  11.642  11.429
22044W        W83465  25.988  20.528   2.796
22045W        W83466  40.041  36.966   2.879
22046W        W83467  44.503  10.217   1.702
22047W        W83468  28.108   5.859   3.202
22048W        W83469  16.734  23.041  11.451
22049W        W83470  26.034  30.415  12.459
22050W        W83471  27.682  37.341   3.794
22051W        W83472  16.765   9.332   4.279
22052W        W83473   2.373   2.800  11.519
22053W        W83474  37.986  23.570  11.880
22054W        W83475  42.315  30.111  13.941
22055W        W83476  27.494  42.388  13.902
22056W        W83477  15.289  26.013   1.744
22057W        W83478   1.402  33.607  12.847
22058W        W83479  43.825  26.129  12.015
22059W        W83480  25.044  11.825  12.438
22060W        W83481  12.335  42.018   1.439
22061W        W83482  19.694  28.677   4.212
22062W        W83483  29.940  18.691  12.923
22063W        W83484  26.198   7.335  10.957
22064W        W83485   4.413  19.256   0.922
22065W        W83486  23.727  35.861  14.781
22066W        W83487  25.153   3.237   1.430
22067W        W83488  27.464  35.944  13.928
22068W        W83489  20.224  31.030  10.441
22069W        W83490  27.048  35.934  12.451
22070W        W83491  14.130  19.622  12.849
22071W        W83492  30.060  31.128  13.892
22072W        W83493  36.501  40.521  11.448
22073W        W83494  34.488  32.496  14.809
22074W        W83495  36.943  32.582  14.996
22075W        W83496  29.081  33.580  11.573
22076W        W83497  24.517  34.415   0.475
22077W        W83498  37.344   8.821  13.949
22078W        W83499   3.343  19.564  10.501
22079W        W83500  35.869  41.957  13.420
22080W        W83501   4.926  19.735  12.011
22081W        W83502  15.659  22.173  10.012
22082W        W83503  16.117   9.846   2.869
22083W        W83504  18.230  33.544  11.565
22084W        W83505  34.088  28.608  12.574
22085W        W83506  16.195  18.617   1.300
22086W        W83507  39.523  44.342  14.963
22087W        W83508  40.054  34.974   1.772
22088W        W83509  14.330   3.736  13.445
22089W        W83510   9.164  13.765  10.610
22090W        W83511  12.285   3.289   0.266
22091W        W83512  29.580  38.940  11.582
22092W        W83513  19.129  18.660  13.400
22093W        W83514  35.059  35.039   0.931
22094W        W83515  16.782  15.670  12.065
22095W        W83516  44.290  43.915  13.026
22096W        W83517   0.412  38.891  12.966
22097W        W83518  17.291  33.600  14.923
22098W        W83519  27.516  29.002   2.873
22099W        W83520  16.626  28.998   4.162
22100W        W83521  38.003   6.876  11.968
22101W        W83522  24.053  34.027  12.508
22102W        W83523  26.178  32.549  13.985
22103W        W83524   4.745  26.142   1.234
22104W        W83525  27.627   5.298   0.253
22105W        W83526   5.376  31.457  14.027
22106W        W83527  12.341  26.129  11.090
22107W        W83528   8.280  16.102   1.325
22108W        W83529   3.937  36.057   1.445
22109W        W83530   6.235  40.043  11.904
22110W        W83531  27.559  18.205  13.365
22111W        W83532   1.831  38.434   2.225
22112W        W83533  43.988  11.182   4.713
22113W        W83534  17.708  22.681   1.808
22114W        W83535  23.677  32.914   3.354
22115W        W83536  40.954  19.571   3.773
22116W        W83537  12.261  20.244  12.393
22117W        W83538  25.138  28.091   5.243
22118W        W83539  26.661  12.246   2.273
22119W        W83540   1.438  16.299  13.527
22120W        W83541   5.772  15.790  13.919
22121W        W83542  14.683  34.067   0.396
22122W        W83543   8.795  24.491   3.197
22123W        W83544   6.252   2.764   1.927
22124W        W83545  15.235  20.705   2.817
22125W        W83546   1.825  32.542   9.636
22126W        W83547  32.568  25.553  12.963
22127W        W83548  31.497  20.677   2.686
22128W        W83549   5.283   7.217  11.476
22129W        W83550  32.973   2.758   2.213
22130W        W83551   1.462  32.033  14.415
22131W        W83552  34.999   2.966   2.829
22132W        W83553  11.234   3.257  10.888
22133W        W83554  29.010  15.127   3.737
22134W        W83555  23.183  14.243  10.448
22135W        W83556  30.429  39.319   2.794
22136W        W83557  32.120  41.794  11.553
22137W        W83558  24.020   6.198   2.268
22138W        W83559   7.696  21.110   0.456
22139W        W83560  26.106  35.481  10.928
22140W        W83561   4.377  37.440   2.223
22141W        W83562  12.130  19.591  13.856
22142W        W83563  39.064  41.986   0.906
22143W        W83564   8.776  12.776   3.348
22144W        W83565  35.964  16.756   1.866
22145W        W83566  35.402  22.036   0.827
22146W        W83567  24.010  28.961   9.954
22147W        W83568  22.149  14.231   2.298
22148W        W83569  39.834  32.102  11.884
22149W        W83570  30.981  15.721   4.126
22150W        W83571  35.041  13.777  10.916
22151W        W83572  39.544  26.021  12.505
22152W        W83573  23.728  29.470   3.704
22153W        W83574  17.178  35.473   2.671
22154W        W83575  38.382  13.620   9.541
22155W        W83576  28.481  32.925   1.824
22156W        W83577  16.241  30.603   3.645
22157W        W83578  38.393  39.909  14.031
22158W        W83579   6.365  22.662   4.328
22159W        W83580  29.608  30.534   0.328
22160W        W83581   9.831   9.846   0.886
22161W        W83582   9.794  37.986  11.451
22162W        W83583  20.694  27.563  13.026
22163W        W83584  18.145  44.784   2.218
22164W        W83585  28.125   1.834   1.292
22165W        W83586  24.061  26.623   4.764
22166W        W83587  30.144  40.870   2.251
22167W        W83588   9.777  40.442   4.709
22168W        W83589  13.329  42.980  11.563
22169W        W83590   2.825  26.972  14.996
22170W        W83591  36.498  15.754  11.533
22171W        W83592  20.635  33.070  12.942
22172W        W83593  17.152  27.978   5.167
22173W        W83594  33.428   7.310  12.877
22174W        W83595   6.791  24.132   0.891
22175W        W83596   0.946   7.905   2.891
22176W        W83597  43.873  33.876   2.308
22177W        W83598  22.565  25.588  12.078
22178W        W83599  38.833   8.292  14.321
22179W        W83600  43.320  39.465   0.432
22180W        W83601   3.344  44.481   0.317
22181W        W83602   8.765  14.737  13.368
22182W        W83603  39.321  23.576  12.826
22183W        W83604  25.542  25.499   0.772
22184W        W83605  38.438  15.581  12.402
22185W        W83606   8.248  29.510  12.464
22186W        W83607  25.522  15.253  12.943
22187W        W83608  35.437  18.062   3.733
22188W        W83609  37.338  36.540  14.888
22189W        W83610  27.000  43.848   4.139
22190W        W83611  26.530   3.300  12.468
22191W        W83612  30.118  23.219   1.308
22192W        W83613   5.364   3.390  11.933
22193W        W83614  32.979  23.232  12.493
22194W        W83615   9.844  28.672   4.116
22195W        W83616  17.557  42.368   0.322
22196W        W83617  27.650  35.590   2.746
22197W        W83618  10.357  21.569  13.398
22198W        W83619  43.342  29.529  11.979
22199W        W83620  32.962  23.543   1.280
22200W        W83621  29.051  14.816   0.409
22201W        W83622   7.699  34.946   3.377
22202W        W83623  34.888   1.795  13.913
22203W        W83624  17.642  19.161   0.927
22204W        W83625  34.992  20.572  13.949
22205W        W83626   3.817  30.655   1.910
22206W        W83627  14.162   2.815  12.057
22207W        W83628  38.325  31.433   3.273
22208W        W83629  43.340  42.442   1.820
22209W        W83630  10.659  22.698   1.739
22210W        W83631   6.241  21.550  11.401
22211W        W83632  37.998  14.300  14.303
22212W        W83633   5.400  20.029   3.273
22213W        W83634  44.445   8.208   2.323
22214W        W83635  16.593  27.134  12.534
22215W        W83636   1.814  14.192   4.610
22216W        W83637  22.733   5.262  11.541
22217W        W83638  19.704   9.332  10.916
22218W        W83639   7.809   3.942   0.958
22219W        W83640  33.957   5.740   9.970
22220W        W83641  13.133  20.164  14.906
22221W        W83642   8.338  15.324   0.750
22222W        W83643  19.192   3.365   3.630
22223W        W83644   8.176   3.366  11.501
22224W        W83645  18.642   1.745  11.494
22225W        W83646   3.377   6.265   1.781
22226W        W83647  36.000  12.171  14.847
22227W        W83648  33.624  10.707   9.993
22228W        W83649  11.369  22.661   1.923
22229W        W83650  18.281  13.627   3.284
22230W        W83651  19.647  42.468   3.653
22231W        W83652  16.200  43.455   2.276
22232W        W83653   2.444  34.495  11.869
22233W        W83654  32.410  37.395  14.445
22234W        W83655  29.953  14.231  12.506
22235W        W83656  28.675  27.196   3.230
22236W        W83657  21.193  33.946   4.719
22237W        W83658  26.651  34.907  12.477
22238W        W83659   4.883  34.888  10.499
22239W        W83660  28.948  26.179   1.696
22240W        W83661  10.714   6.897   2.793
22241W        W83662  26.539   7.319   0.931
22242W        W83663   2.284  19.197   1.384
22243W        W83664   9.312  20.701  13.045
22244W        W83665   1.413  37.486  10.466
22245W        W83666  18.188  27.992  11.397
22246W        W83667  25.203  38.972   2.804
22247W        W83668  30.595  11.366   2.203
22248W        W83669  41.792  42.788   2.369
22249W        W83670  28.435   5.315   4.160
22250W        W83671   8.389  31.561   3.284
22251W        W83672  15.234  37.547  14.371
22252W        W83673  19.669  33.029   0.860
22253W        W83674  18.760   7.873  13.803
22254W        W83675  17.797  21.629  10.571
22255W        W83676  15.791  22.715   1.761
22256W        W83677  38.011  36.892   3.800
22257W        W83678  23.057  20.173   1.434
22258W        W83679  44.262  30.633   2.854
22259W        W83680  11.814   1.307   2.275
22260W        W83681  23.133  19.628   1.896
22261W        W83682  17.791  15.797   4.783
22262W        W83683   9.222  14.662  12.958
22263W        W83684  37.535  42.523   0.411
22264W        W83685  41.461  17.232   3.264
22265W        W83686  18.151  14.638  11.989
22266W        W83687   8.726  23.220  10.599
22267W        W83688  43.301   3.941  14.872
22268W        W83689  17.753  15.241   0.457
22269W        W83690   2.841  34.533  11.501
22270W        W83691  11.367   2.259   3.264
22271W        W83692  17.061  24.547   0.350
22272W        W83693  15.660  36.067  13.950
22273W        W83694   5.298   2.762  12.089
22274W        W83695  33.612  39.971   1.388
22275W        W83696  13.666  32.968   0.458
22276W        W83697  16.135  15.761  12.923
22277W        W83698  31.505  30.140   0.337
22278W        W83699   3.342  16.291  11.065
22279W        W83700  19.613  28.024  13.466
22280W        W83701   5.791   3.753  14.813
22281W        W83702  41.348  10.844  14.925
22282W        W83703  27.522  17.738   1.915
22283W        W83704  12.309   1.951  13.050
22284W        W83705   2.755  23.735   3.314
22285W        W83706  26.151  35.907   1.753
22286W        W83707   3.802   2.395  13.361
22287W        W83708  29.057  12.851  12.065
22288W        W83709  13.225  16.756  12.825
22289W        W83710  28.675  19.639   2.284
22290W        W83711  39.939  29.656  12.350
22291W        W83712  35.599  40.876   1.428
22292W        W83713  15.651  37.869   4.707
22293W        W83714  25.165  38.886   2.349
22294W        W83715  43.782  11.726   0.859
22295W        W83716   2.963  10.876  13.478
22296W        W83717   4.815  26.960  11.929
22297W        W83718  28.649   4.419  13.373
22298W        W83719  33.411  33.954  13.414
22299W        W83720  37.345   3.318   2.415
22300W        W83721  13.123  24.229   5.273
22301W        W83722  34.444  14.681   0.438
22302W        W83723  42.450  31.928   1.431
22303W        W83724  17.740  22.595   2.281
22304W        W83725  14.741   6.911   2.323
22305W        W83726   6.789  29.952  14.331
22306W        W83727  20.248  12.241  11.379
22307W        W83728  13.806  18.130  14.464
22308W        W83729  29.149  24.706  12.452
22309W        W83730  37.521   6.803   1.811
22310W        W83731   9.778   3.949  12.564
22311W        W83732  11.309   3.423   0.415
22312W        W83733  10.207  11.784   2.358
22313W        W83734  33.910  27.962   0.865
22314W        W83735   6.746  30.488  12.013
22315W        W83736  22.203   6.757  14.857
22316W        W83737   7.342  13.629  11.566
22317W        W83738   5.309  27.525   5.292
22318W        W83739  26.963   9.368  10.583
22319W        W83740   2.836   8.734   5.303
22320W        W83741  10.695  42.399  11.107
22321W        W83742   6.324  24.603   3.771
22322W        W83743  43.332  39.414  10.946
22323W        W83744  21.691  27.009   0.462
22324W        W83745  21.609  16.309   1.905
22325W        W83746  23.540  27.467  11.600
22326W        W83747  33.504   0.320   1.241
22327W        W83748  12.849  25.158   0.343
22328W        W83749  15.093  31.042   0.951
22329W        W83750  38.534  39.380   3.193
22330W        W83751   8.796  14.703  13.018
22331W        W83752   1.471  17.239  13.506
22332W        W83753  33.616  15.597  13.057
22333W        W83754  17.129   4.710  14.772
22334W        W83755  32.400   0.954   4.182
22335W        W83756  17.165  29.945  12.929
22336W        W83757  18.697   4.369  12.051
22337W        W83758   7.904  13.239   1.412
22338W        W83759  35.444  42.934  14.283
22339W        W83760  32.525  17.763   3.699
22340W        W83761  16.228   1.264  14.853
22341W        W83762  19.736  18.564   1.271
22342W        W83763  36.016  14.647   0.359
22343W        W83764   7.856  35.581  12.089
22344W        W83765  28.628  18.706   2.279
22345W        W83766  11.276   0.470   3.709
22346W        W83767  35.071  37.965   1.261
22347W        W83768  22.636  41.489   2.274
22348W        W83769  39.332   3.461  14.357
22349W        W83770  11.701  25.679   2.358
22350W        W83771   8.674   2.294  13.799
22351W        W83772  13.651  43.324   1.813
22352W        W83773  44.779   4.704  11.537
22353W        W83774  32.603  32.951   0.470
22354W        W83775  23.219  23.710   2.781
22355W        W83776   5.265  35.532  13.899
22356W        W83777  26.486   5.234   3.807
22357W        W83778   3.421  10.268  11.117
22358W        W83779  34.045  38.850   4.613
22359W        W83780  36.511  16.135  10.961
22360W        W83781  17.285  34.531  10.595
22361W        W83782  18.091  44.358  13.961
22362W        W83783  11.772  18.579  12.566
22363W        W83784  16.247  35.555  12.869
22364W        W83785  16.772   8.681  13.461
22365W        W83786  14.644  44.501   0.762
22366W        W83787   6.878  22.056  12.907
22367W        W83788   5.729  33.547   2.254
22368W        W83789   7.191  28.643   0.799
22369W        W83790  31.985  35.520   2.719
22370W        W83791  14.267  21.117  11.606
22371W        W83792   8.376   8.389  12.560
22372W        W83793  30.944  22.733   4.352
22373W        W83794  34.886  40.882   3.347
22374W        W83795  26.207  43.834  12.410
22375W        W83796  33.885  24.153  13.498
22376W        W83797  42.880  39.482   0.776
22377W        W83798   8.166  12.675  10.468
22378W        W83799  42.455  41.903   3.381
22379W        W83800   8.387  38.391  14.279
22380W        W83801   4.917  38.853  10.932
22381W        W83802  39.907   7.215  12.823
22382W        W83803   1.463  22.520   2.419
22383W        W83804  14.268  10.725   4.228
22384W        W83805   8.748   0.353   0.958
22385W        W83806  12.199   7.765   2.718
22386W        W83807  23.095   1.961  11.025
22387W        W83808  35.393  20.168  11.088
22388W        W83809  10.681  39.976   2.780
22389W        W83810  34.066  28.058   4.172
22390W        W83811   7.747  29.073   3.346
22391W        W83812  21.025   7.672   2.760
22392W        W83813  28.990  30.088  14.828
22393W        W83814   8.770  42.801  11.953
22394W        W83815   2.287   8.869  11.563
22395W        W83816   1.387  42.821   1.252
22396W        W83817  29.639  37.962   4.175
22397W        W83818  31.132   5.702  11.061
22398W        W83819  38.518  32.054  12.495
22399W        W83820   8.698  36.069   0.782
22400W        W83821  36.497  11.271   2.768
22401W        W83822   8.856  32.952   2.758
22402W        W83823  29.067  31.467   2.290
22403W        W83824  16.627  30.560   4.320
22404W        W83825  25.185  23.119   1.917
22405W        W83826  11.754  14.234  11.423
22406W        W83827   1.367   8.369  12.037
22407W        W83828  38.825  23.499   4.204
22408W        W83829   8.163   3.366   9.948
22409W        W83830   5.754  37.935  12.875
22410W        W83831  20.197   1.277   4.141
22411W        W83832  32.593  31.124   0.399
22412W        W83833  22.677   1.890   5.114
22413W        W83834  26.012   9.360   1.292
22414W        W83835  33.583  16.636  10.486
22415W        W83836  25.597  30.587  14.362
22416W        W83837  33.385  27.588   0.375
22417W        W83838  22.530  12.742  10.960
22418W        W83839   8.366  29.072  14.773
22419W        W83840  33.102  24.067  13.365
22420W        W83841   0.915  38.544   2.816
22421W        W83842  43.979  21.060  13.060
22422W        W83843  18.175   3.819   2.721
22423W        W83844   7.400  28.513   2.208
22424W        W83845  12.689   6.256   0.276
22425W        W83846  34.515   2.810  11.102
22426W        W83847  19.601   8.777   2.229
22427W        W83848  28.137   8.387   3.216
22428W        W83849  11.153  19.132  11.910
22429W        W83850  16.811  39.035   4.157
22430W        W83851  38.526  43.374  14.766
22431W        W83852   0.898  22.108  11.537
22432W        W83853  28.054  29.951   1.411
22433W        W83854  23.581  41.842   2.232
22434W        W83855  30.576  15.210  12.931
22435W        W83856  34.412  36.096  13.394
22436W        W83857  13.752  21.250   2.803
22437W        W83858  27.018  30.134  12.443
22438W        W83859  30.442  33.386   1.814
22439W        W83860  41.802  31.593  13.490
22440W        W83861  34.553  38.009   3.150
22441W        W83862  17.306  42.993   3.163
22442W        W83863   1.349  34.886  12.975
22443W        W83864  24.206  10.765   4.648
22444W        W83865  27.565  44.308   1.318
22445W        W83866  16.120  39.839  10.591
22446W        W83867   0.866  21.111  11.900
22447W        W83868   8.683   4.393  12.486
22448W        W83869  36.970  39.983  13.527
22449W        W83870  26.612  27.976  14.447
22450W        W83871   4.893   8.885  10.579
22451W        W83872   8.161  38.891  14.382
22452W        W83873  11.851   6.834  11.865
22453W        W83874   2.253   5.916   1.779
22454W        W83875  25.682   0.917   2.404
22455W        W83876  43.271  15.218  11.508
22456W        W83877  13.756  42.884  14.928
22457W        W83878  14.746  36.355  13.985
22458W        W83879  41.457  10.337  10.416
22459W        W83880  44.766  33.068   3.242
22460W        W83881   8.843  19.614   2.367
22461W        W83882  12.778   9.330   0.906
22462W        W83883  30.151  16.681   0.332
22463W        W83884  10.156  28.941   0.788
22464W        W83885  13.305  28.656  14.876
22465W        W83886  25.166  18.139   0.746
22466W        W83887  27.516  15.761  12.869
22467W        W83888  29.059   7.667   2.735
22468W        W83889  22.112  34.087   3.852
22469W        W83890  42.891   3.949   4.276
22470W        W83891  41.973  33.106   3.294
22471W        W83892  15.824  15.712   2.197
22472W        W83893  22.111   6.406  13.420
22473W        W83894  42.993  28.657  12.977
22474W        W83895   5.317  33.089   9.539
22475W        W83896  15.647  22.078  10.543
22476W        W83897   3.841  15.207  10.469
22477W        W83898  37.979  30.494   0.771
22478W        W83899  19.556  25.978   1.400
22479W        W83900  43.797  13.754   1.243
22480W        W83901  29.564  17.581   2.820
22481W        W83902   6.711  41.972  10.616
22482W        W83903   3.866  28.154  13.933
22483W        W83904  34.007  32.014  13.881
22484W        W83905  30.921  38.433  11.922
22485W        W83906  43.850   3.333  11.016
22486W        W83907   1.449  43.861  13.533
22487W        W83908  27.457  13.696   3.238
22488W        W83909  31.993  23.677  10.087
22489W        W83910  27.539  15.696   2.308
22490W        W83911  44.270   9.759  10.544
22491W        W83912   4.720  13.813   0.925
22492W        W83913   8.802  40.987   5.250
22493W        W83914  10.277  11.821   4.784
22494W        W83915  12.176  21.017   0.295
22495W        W83916  33.528   4.302  12.905
22496W        W83917   7.744   8.779  14.787
22497W        W83918  38.560  10.642  11.415
22498W        W83919  25.157   9.759  10.553
22499W        W83920   1.785  39.946   4.353
22500W        W83921  33.986   9.292  12.443
22501W        W83922  38.928   6.411  14.022
22502W        W83923  31.402   8.845  13.921
22503W        W83924  36.896  23.069   2.816
22504W        W83925   2.722  23.988   0.301
22505W        W83926  27.996  13.266   4.664
22506W        W83927  14.311  13.331  14.913
22507W        W83928  38.070   6.353   3.693
22508W        W83929  17.084  43.989   0.818
22509W        W83930  24.175  15.280  10.541
22510W        W83931  15.624  39.544   4.354
22511W        W83932  21.117  11.169   3.335
22512W        W83933  20.742  31.140   2.707
22513W        W83934  32.072  34.995   1.871
22514W        W83935  32.620  21.612   2.287
22515W        W83936  13.141   1.308  11.605
22516W        W83937  39.995   1.436  12.339
22517W        W83938  43.327  34.076   1.252
22518W        W83939  31.056   4.419  11.007
22519W        W83940  32.934  29.483  14.851
22520W        W83941  36.405   8.756   3.251
22521W        W83942  31.102  20.063  11.952
22522W        W83943  41.500   8.742  13.943
22523W        W83944  32.600   7.677  13.910
22524W        W83945  28.088   8.655   4.351
22525W        W83946  25.005  27.668   3.259
22526W        W83947  23.711  19.194   0.342
22527W        W83948  11.224  22.707  13.997
22528W        W83949  38.829  23.719   0.369
22529W        W83950  28.006  37.934   4.681
22530W        W83951  18.710  28.150  10.992
22531W        W83952  21.668  18.108   0.264
22532W        W83953  20.162  19.683  12.995
22533W        W83954  42.806  25.105   4.348
22534W        W83955  16.647  23.668   4.208
22535W        W83956   6.736  31.611  12.901
22536W        W83957  11.359   0.426   0.259
22537W        W83958  27.013  36.563   0.419
22538W        W83959  41.854  38.945  12.987
22539W        W83960  36.582   2.912   1.294
22540W        W83961  27.646  16.300  11.053
22541W        W83962  15.636  15.164   1.853
22542W        W83963  22.201   2.737  12.891
22543W        W83964   8.384   7.261  12.365
22544W        W83965   0.921  12.301  13.004
22545W        W83966  41.978  28.435   3.812
22546W        W83967  24.058  31.608   4.245
22547W        W83968   3.778  31.022  13.499
22548W        W83969  15.142  44.502   1.443
22549W        W83970   2.454   3.355   1.386
22550W        W83971  40.989  19.176  11.079
22551W        W83972  15.194  29.055  13.982
22552W        W83973  13.120  28.501   3.154
22553W        W83974  40.450  11.650  13.454
22554W        W83975  20.550   7.705  14.982
22555W        W83976  41.524  43.495   1.272
22556W        W83977  21.195  23.660  14.329
22557W        W83978   8.895  17.786   3.341
22558W        W83979  23.549  10.294  10.594
22559W        W83980  13.306   8.736  11.017
22560W        W83981  27.679  40.505   0.295
22561W        W83982  11.663  19.211  14.386
22562W        W83983  33.925  15.780   1.213
22563W        W83984  39.322  41.510   0.309
22564W        W83985  11.658  19.694   9.950
22565W        W83986  20.030  21.101  12.987
22566W        W83987  16.804  19.583   0.742
22567W        W83988  44.326  37.041  13.521
22568W        W83989  25.058   0.958  12.871
22569W        W83990   4.837   1.470   5.709
22570W        W83991  39.335  33.958   3.184
22571W        W83992  18.618  32.135   5.165
22572W        W83993   7.363   2.349  13.005
22573W        W83994  27.135  28.154   2.869
22574W        W83995  24.987  40.348  12.918
22575W        W83996  37.386  19.197   2.255
22576W        W83997  40.468  43.397   3.241
22577W        W83998   3.299  20.697  11.088
22578W        W83999  11.169  44.894  11.602
22579W        W84000   3.712   5.374  11.063
22580W        W84001  32.109  16.695  10.084
22581W        W84002  38.400  33.948   4.304
22582W        W84003  25.677  10.309   2.316
22583W        W84004   1.868  23.170  13.439
22584W        W84005  18.665  24.695  11.041
22585W        W84006   6.736  16.802   2.671
22586W        W84007   4.717   1.274  12.831
22587W        W84008  41.508  10.699   0.439
22588W        W84009  35.968  41.437  11.555
22589W        W84010  28.015   1.873  13.414
22590W        W84011  31.138  15.232   2.675
22591W        W84012  38.929   1.431   2.179
22592W        W84013  13.199  21.234  10.043
22593W        W84014   9.712   4.318   4.151
22594W        W84015  32.949  17.696   3.219
22595W        W84016   4.341  38.068  10.404
22596W        W84017   1.392  30.923   0.412
22597W        W84018  44.430  43.515   2.840
22598W        W84019   1.861  25.081  10.099
22599W        W84020   0.982  28.154  13.462
22600W        W84021  41.934   2.796   0.872
22601W        W84022  19.157  10.333  14.404
22602W        W84023  13.783  26.973  10.937
22603W        W84024   0.335  25.559   0.260
22604W        W84025  18.625  39.062   4.115
22605W        W84026  25.207  25.695   4.123
22606W        W84027  16.250  29.983   1.245
22607W        W84028  43.816  35.523   3.190
22608W        W84029  27.961  32.984  13.453
22609W        W84030  37.926  19.052  13.513
22610W        W84031   9.189  35.864   4.270
22611W        W84032  16.155  16.734   3.349
22612W        W84033   3.732  20.591  12.545
22613W        W84034  10.349  18.184   1.805
22614W        W84035  39.985  27.152  12.934
22615W        W84036   9.322  41.832  11.106
22616W        W84037  23.113  25.655   0.856
22617W        W84038  22.629   7.850  11.871
22618W        W84039  25.164  17.767  12.577
22619W        W84040  44.788  17.184   3.639
22620W        W84041  36.860  39.497   3.768
22621W        W84042   2.872  37.579  11.545
22622W        W84043  35.053  22.598  12.492
22623W        W84044  14.118   4.804   3.366
22624W        W84045   4.744  11.729   3.801
22625W        W84046  28.660  41.436   1.894
22626W        W84047  20.078  33.597   1.872
22627W        W84048  39.347  35.552  14.774
22628W        W84049  25.555  12.147  11.962
22629W        W84050  39.832  21.571   4.816
22630W        W84051   7.346  13.227  12.861
22631W        W84052  14.797  37.339   4.796
22632W        W84053   9.359  18.087  12.407
22633W        W84054  28.461  25.153   4.213
22634W        W84055  33.484  19.170   2.365
22635W        W84056  43.328  17.688   2.729
22636W        W84057  29.997   4.208   4.753
22637W        W84058  23.731  21.526  10.606
22638W        W84059  22.050  14.648   3.343
22639W        W84060  20.074  13.316   1.269
22640W        W84061  33.894  34.003  12.082
22641W        W84062   3.759  21.235  11.442
22642W        W84063  17.613   7.320  13.436
22643W        W84064  26.112  44.765   0.743
22644W        W84065  19.617  42.326  12.974
22645W        W84066  44.999  33.401  13.358
22646W        W84067  10.688   8.403   3.345
22647W        W84068  40.324  29.624   4.772
22648W        W84069   0.364  18.055  13.023
22649W        W84070  24.226  11.726  14.811
22650W        W84071  30.447  37.921  12.410
22651W        W84072  23.535  17.779   1.283
22652W        W84073  21.734   5.224   0.331
22653W        W84074  16.756  43.290   2.769
22654W        W84075  17.581  20.527  11.968
22655W        W84076  37.445  31.470  14.899
22656W        W84077  22.164  38.476  10.494
22657W        W84078   6.279  23.696   2.395
22658W        W84079  10.360  35.516   0.403
22659W        W84080   5.882  41.996   2.312
22660W        W84081  25.177  43.804   1.357
22661W        W84082  30.562  29.925   3.861
22662W        W84083  33.502   5.714  10.488
22663W        W84084  17.182  18.288   1.838
22664W        W84085  44.939  35.579  12.969
22665W        W84086  12.193   8.717   3.152
22666W        W84087  32.508  24.648   4.599
22667W        W84088  31.030  27.174  14.974
22668W        W84089  14.107  15.291  13.997
22669W        W84090   2.432  19.731  11.382
22670W        W84091  31.087  17.290  13.904
22671W        W84092  35.976  44.797  13.883
22672W        W84093  12.845  43.795  13.061
22673W        W84094  15.145  32.943  12.412
22674W        W84095  31.487  42.937   1.353
22675W        W84096  18.691  41.468   2.855
22676W        W84097  14.145  29.994  10.984
22677W        W84098   6.696   3.809  13.548
22678W        W84099  30.130  15.229   3.847
22679W        W84100  39.399  32.520   2.386
22680W        W84101  41.302  30.926  14.919
22681W        W84102   7.384  37.391  13.818
22682W        W84103   5.844  29.091   1.834
22683W        W84104   4.724  11.630  10.505
22684W        W84105  27.494  17.210   4.692
22685W        W84106  28.984  19.194   2.216
22686W        W84107  42.355  14.270   0.862
22687W        W84108   2.354   5.275   1.320
22688W        W84109  16.096  36.905  12.558
22689W        W84110  33.621  40.464   0.849
22690W        W84111  37.087   1.415  12.565
22691W        W84112  22.680  22.217  12.044
22692W        W84113  12.192  25.592  10.973
22693W        W84114  31.621  40.832   3.836
22694W        W84115  32.106  41.008   4.196
22695W        W84116   0.358  27.545  14.485
22696W        W84117  26.013  33.597   2.207
22697W        W84118  27.966  39.063  12.372
22698W        W84119  43.297  15.723   4.343
22699W        W84120  11.136  18.551   0.863
22700W        W84121  27.137  13.688  14.997
22701W        W84122  23.695  14.678  12.972
22702W        W84123  40.801  30.009   3.305
22703W        W84124  36.537   2.836  10.064
22704W        W84125  27.499  20.210   4.664
22705W        W84126  29.088  13.823  14.768
22706W        W84127   5.924  21.233   3.847
22707W        W84128   6.275   6.902  13.424
22708W        W84129  25.101  29.621  10.444
22709W        W84130  15.769  32.515   2.709
22710W        W84131  30.520  13.145  13.535
22711W        W84132  24.053  32.479  11.050
22712W        W84133   3.943  40.841   2.683
22713W        W84134  22.669   2.369   2.383
22714W        W84135  13.769   0.855  14.947
22715W        W84136  25.475   4.306   3.194
22716W        W84137  30.469  15.604  13.045
22717W        W84138  10.382  29.049   1.896
22718W        W84139  32.526   7.712  14.768
22719W        W84140   3.718  15.259   2.301
22720W        W84141   3.877  41.330   3.372
22721W        W84142   1.277  20.546   1.924
22722W        W84143  27.069  30.445   2.361
22723W        W84144  36.870  39.387  13.945
22724W        W84145   6.872   7.281  12.903
22725W        W84146   7.297  42.856   1.753
22726W        W84147   9.868  43.516  11.891
22727W        W84148  31.571  19.591   3.649
22728W        W84149  20.229  16.203  12.095
22729W        W84150  12.227  32.512   3.284
22730W        W84151   8.203  43.401  11.937
22731W        W84152  18.580  16.112  13.378
22732W        W84153   4.267  32.631   2.695
22733W        W84154  10.699  25.150   3.652
22734W        W84155  16.764  20.631  12.066
22735W        W84156  13.633  20.234  14.453
22736W        W84157  38.354  44.411  12.916
22737W        W84158  37.986  30.077  11.549
22738W        W84159  21.578  18.690   3.217
22739W        W84160  25.988  42.498   2.343
22740W        W84161  18.788  36.019   4.719
22741W        W84162  37.526   0.464   1.300
22742W        W84163  38.326  12.809  10.598
22743W        W84164  41.321  20.723   1.714
22744W        W84165  36.447  10.641   3.275
22745W        W84166  21.081  36.037  10.463
22746W        W84167  14.777  15.114   3.233
22747W        W84168  19.711   6.202  11.021
22748W        W84169   7.366   2.936   2.741
22749W        W84170  27.958  14.305   3.650
22750W        W84171  32.014  19.619  11.047
22751W        W84172  26.618  36.500   4.179
22752W        W84173   6.225  39.457   2.720
22753W        W84174  18.232  13.314  13.038
22754W        W84175  31.521  33.418  13.398
22755W        W84176   6.780   5.713  13.891
22756W        W84177  36.918  37.955  12.447
22757W        W84178   8.861  10.147   3.154
22758W        W84179   3.398  38.396  13.981
22759W        W84180   5.812  12.777   2.792
22760W        W84181   8.311  38.341  12.502
22761W        W84182  30.119   1.851   3.866
22762W        W84183  32.495  14.190  14.985
22763W        W84184  26.509  33.612  11.069
22764W        W84185  29.127  16.622   4.808
22765W        W84186  19.771  38.464   4.221
22766W        W84187  28.973  42.815   1.809
22767W        W84188  33.117  26.135  14.936
22768W        W84189  12.845   4.813   3.781
22769W        W84190   9.274  44.813  11.471
22770W        W84191  15.139  30.451   3.217
22771W        W84192  44.812  32.551   3.630
22772W        W84193  33.981   3.423   2.244
22773W        W84194  39.065  40.518  14.418
22774W        W84195  20.246  16.304   0.814
22775W        W84196   3.818   4.296  13.985
22776W        W84197   1.374  33.504  14.910
22777W        W84198  19.697  16.634  11.069
22778W        W84199  30.619  11.165   4.297
22779W        W84200  24.183  15.231   1.362
22780W        W84201  21.033   8.350   4.177
22781W        W84202  41.948  37.861   4.176
22782W        W84203  37.882  33.443   3.645
22783W        W84204  40.965  41.491  14.872
22784W        W84205  39.525  30.581   3.751
22785W        W84206  35.071  37.912  12.417
22786W        W84207  38.422   5.264   2.237
22787W        W84208  44.767   0.957  12.985
22788W        W84209  19.673  44.788   4.768
22789W        W84210  37.418  25.066  12.849
22790W        W84211  31.029  32.545  14.417
22791W        W84212   1.944  42.847   4.333
22792W        W84213   0.811  16.701  10.606
22793W        W84214   4.407  16.166   1.822
22794W        W84215  40.903  18.070  12.535
22795W        W84216   5.411  40.982   1.387
22796W        W84217  40.996  29.047   3.849
22797W        W84218  17.780  22.094   0.326
22798W        W84219  27.055   5.205  11.970
22799W        W84220  11.802  37.934  13.818
22800W        W84221  39.490   7.739  14.015
22801W        W84222  19.736   9.343   0.299
22802W        W84223  32.930  15.749   0.956
22803W        W84224  30.575  35.565  12.987
22804W        W84225   3.719  34.956  12.381
22805W        W84226  10.153  40.432  13.895
22806W        W84227   4.353  37.958  12.880
22807W        W84228  14.763   3.339  11.926
22808W        W84229   4.790  21.255  12.540
22809W        W84230  37.530   4.404   2.302
22810W        W84231  33.023   4.786   0.730
22811W        W84232   7.761  21.650  14.331
22812W        W84233  39.369  44.973  12.419
22813W        W84234   4.722  25.618  13.314
22814W        W84235  15.729  10.182  10.492
22815W        W84236  14.152  22.089  14.917
22816W        W84237   4.281  10.764   0.920
22817W        W84238  36.392  41.334   3.866
22818W        W84239  26.608   3.719  11.525
22819W        W84240  32.577  36.038   0.364
22820W        W84241   1.780  15.677   2.244
22821W        W84242   2.399  39.555  14.886
22822W        W84243  11.355  19.718   0.324
22823W        W84244  37.409  14.714  10.561
22824W        W84245  26.553  15.284   0.800
22825W        W84246  26.562  25.169  12.901
22826W        W84247  44.931  28.551   4.139
22827W        W84248  30.919  34.571   4.699
22828W        W84249  26.571  21.641  11.942
22829W        W84250  22.140  25.677   2.805
22830W        W84251   6.321  17.296   2.233
22831W        W84252  21.147  38.332   9.935
22832W        W84253  44.343  30.505   3.377
22833W        W84254  28.979   4.399  10.979
22834W        W84255  13.206  27.487  11.427
22835W        W84256  11.188  16.689  10.452
22836W        W84257  13.652   4.730   1.892
22837W        W84258   2.818  10.748   4.202
22838W        W84259   5.243  25.607   3.774
22839W        W84260  38.435  23.617   1.427
22840W        W84261  19.723  10.842  13.363
22841W        W84262  24.176  39.814   1.720
22842W        W84263  25.517   8.726  13.530
22843W        W84264  14.101  28.676  12.440
22844W        W84265  11.824  42.402   0.288
22845W        W84266  13.637  30.989  13.428
22846W        W84267  26.506   2.334   1.212
22847W        W84268  18.622   6.302   3.372
22848W        W84269  11.222  22.065   2.699
22849W        W84270  21.254  25.484   1.362
22850W        W84271  17.157  38.410  13.847
22851W        W84272  14.645   1.269   4.830
22852W        W84273  11.664  39.439   3.861
22853W        W84274  22.713  17.232   3.311
22854W        W84275  34.587  36.353   2.707
22855W        W84276   1.912  19.653   1.882
22856W        W84277  15.260  39.406  13.401
22857W        W84278  16.195  27.167   3.751
22858W        W84279  12.120   8.714   4.236
22859W        W84280  32.562  28.137   3.735
22860W        W84281  35.389  43.350  13.931
22861W        W84282   2.947  38.544  12.058
22862W        W84283  38.885  32.503   0.339
22863W        W84284  36.882  29.921   4.248
22864W        W84285   3.747  44.921  14.912
22865W        W84286  22.149   5.932   0.838
22866W        W84287   3.348   1.793  13.335
22867W        W84288  42.902  24.984  12.396
22868W        W84289  40.307  37.573  11.058
22869W        W84290  39.483  23.088  10.991
22870W        W84291  32.523  38.010   3.858
22871W        W84292   7.369  26.071   5.795
22872W        W84293   4.361   9.175   2.729
22873W        W84294  24.024  36.002  10.161
22874W        W84295  33.570   7.383   0.245
22875W        W84296  22.742  25.965  12.878
22876W        W84297  21.537  44.293   0.447
22877W        W84298  41.334  29.506  11.521
22878W        W84299  39.018  22.248   3.767
22879W        W84300  31.490   8.350  14.505
22880W        W84301  15.318  28.662   2.371
22881W        W84302  18.278  36.863  14.294
22882W        W84303   0.306   3.914   1.841
22883W        W84304   4.329  28.459   3.382
22884W        W84305  38.853  26.163   3.732
22885W        W84306  30.125  20.113  13.467
22886W        W84307  40.916   5.859  10.500
22887W        W84308  16.695  18.209  10.515
22888W        W84309   6.812   5.424  14.800
22889W        W84310  33.034  23.543  13.935
22890W        W84311  18.756  42.305  10.953
22891W        W84312  36.562  37.352  12.356
22892W        W84313  36.433  26.175  14.370
22893W        W84314   9.819  43.308   0.312
22894W        W84315  41.419  23.538   0.810
22895W        W84316  32.612   1.736   2.858
22896W        W84317  40.817  41.984   2.280
22897W        W84318  13.299  38.028  14.435
22898W        W84319   7.193   1.916  13.317
22899W        W84320  40.390   1.905  10.636
22900W        W84321   0.847  11.684  10.579
22901W        W84322  38.975  16.233  11.959
22902W        W84323  25.685  21.221  11.036
22903W        W84324  19.152  36.530  10.442
22904W        W84325  13.820   9.661  10.523
22905W        W84326  17.185  15.304   2.194
22906W        W84327   2.964  33.035   0.922
22907W        W84328  31.023  39.823   5.194
22908W        W84329  44.441  36.527  10.529
22909W        W84330  31.423  31.011   1.346
22910W        W84331  41.361  23.692   2.844
22911W        W84332  37.847  13.727   0.913
22912W        W84333  39.824  42.473   1.424
22913W        W84334  42.913   0.878   0.292
22914W        W84335  41.970  40.994   3.768
22915W        W84336  18.285  12.752  10.444
22916W        W84337  28.529   3.318   0.382
22917W        W84338  39.394  41.806   3.201
22918W        W84339   4.709  19.740   1.834
22919W        W84340  41.849  19.250  14.778
22920W        W84341  19.720   8.382   1.319
22921W        W84342  15.167  30.976   3.254
22922W        W84343  14.237  12.157  12.895
22923W        W84344  12.160  27.130  11.931
22924W        W84345  33.587  12.167   4.685
22925W        W84346   0.408  42.474   4.664
22926W        W84347  12.287  43.473  12.344
22927W        W84348  23.997   7.311  11.932
22928W        W84349  25.624  32.408   0.353
22929W        W84350   7.278  11.341  13.391
22930W        W84351  26.171  33.971   0.422
22931W        W84352  22.533   9.690   4.708
22932W        W84353  23.575  39.435   1.278
22933W        W84354   8.774   1.748   3.267
22934W        W84355  30.630  14.284   2.205
22935W        W84356  13.118  10.238  13.983
22936W        W84357  20.707  27.091   1.748
22937W        W84358  19.625  31.031  12.006
22938W        W84359  14.809  43.818  10.473
22939W        W84360  10.763  40.954  12.064
22940W        W84361  41.026  30.569   0.908
22941W        W84362   5.284  26.623   1.391
22942W        W84363  34.549   8.322   0.376
22943W        W84364  43.946  43.367   4.159
22944W        W84365  26.039  33.430  14.420
22945W        W84366  28.030  23.709  11.003
22946W        W84367  20.523  13.735   3.766
22947W        W84368  18.616  36.593  14.496
22948W        W84369  35.922  20.564  13.915
22949W        W84370   5.764  17.688   0.831
22950W        W84371   7.700  21.610   4.213
22951W        W84372  13.641   6.199   3.860
22952W        W84373  15.768   2.768  10.593
22953W        W84374  12.682   2.906   1.907
22954W        W84375   4.330   3.863   4.157
22955W        W84376  23.699  38.568   2.414
22956W        W84377   5.413   3.950  12.393
22957W        W84378  19.217  39.986  13.040
22958W        W84379   1.809  17.295  14.852
22959W        W84380  16.310  32.901  12.496
22960W        W84381  14.199  21.702   0.344
22961W        W84382   8.307  13.835   4.760
22962W        W84383  17.595  25.047   4.721
22963W        W84384  33.476  37.495   0.309
22964W        W84385   4.362  29.058   1.897
22965W        W84386  35.463   0.253   4.150
22966W        W84387   1.960  26.090   1.229
22967W        W84388  21.574  13.732   4.185
22968W        W84389  37.006  20.616   3.640
22969W        W84390  39.534  30.031  13.988
22970W        W84391  35.084   2.303  13.056
22971W        W84392   1.746   4.259  11.586
22972W        W84393   1.801  10.313  13.942
22973W        W84394  20.674  16.662  13.337
22974W        W84395   3.457  44.349  12.555
22975W        W84396  30.998  32.504  10.555
22976W        W84397  22.559  36.915  12.472
22977W        W84398   5.783   2.250  13.938
22978W        W84399  44.357  44.505  11.097
22979W        W84400  24.984  32.942   2.418
22980W        W84401  30.419   6.255   3.795
22981W        W84402   5.691  15.174  12.992
22982W        W84403  25.642  11.231  13.971
22983W        W84404  21.087  33.076   3.759
22984W        W84405  11.755  18.657  13.415
22985W        W84406  28.574  35.007   4.751
22986W        W84407   7.672  29.575   5.296
22987W        W84408  12.793  10.717  12.975
22988W        W84409  17.122   1.417   4.290
22989W        W84410  19.693  17.709   1.818
22990W        W84411   4.414  24.622   0.343
22991W        W84412  36.580  22.656   2.249
22992W        W84413  14.712   4.735   4.228
22993W        W84414  27.614   9.676  10.944
22994W        W84415  20.706  40.470   2.234
22995W        W84416  34.971  28.450   1.732
22996W        W84417  41.497   2.934   2.794
22997W        W84418  30.074  40.039  14.290
22998W        W84419  24.079  17.602   1.371
22999W        W84420  28.635   2.354   3.277
23000W        W84421  35.416  12.214  13.517
23001W        W84422  33.513  34.484  14.472
23002W        W84423  42.878  12.775   2.364
23003W        W84424  28.545  27.451  14.904
23004W        W84425  35.529  39.522   1.284
23005W        W84426  39.408   5.834  11.556
23006W        W84427   0.331  27.465   0.899
23007W        W84428  12.177  20.696  12.373
23008W        W84429  22.064   4.400  13.331
23009W        W84430  37.957  32.447   2.238
23010W        W84431   2.921  41.874  14.502
23011W        W84432  17.595  30.507   5.096
23012W        W84433  15.173  31.002   9.974
23013W        W84434  44.495  16.730   1.873
23014W        W84435  37.579  24.608  14.303
23015W        W84436  35.476  37.440  11.503
23016W        W84437   5.830  15.768   0.305
23017W        W84438  36.922  13.173   1.396
23018W        W84439  16.174  15.114  11.951
23019W        W84440  27.685  16.802  14.359
23020W        W84441  40.904  19.643   2.867
23021W        W84442  40.939  20.750  11.606
23022W        W84443   1.901  26.019   0.824
23023W        W84444  24.164  39.849  14.979
23024W        W84445  36.390  17.580  13.048
23025W        W84446  38.472  37.913  10.467
23026W        W84447  16.280  23.579  10.632
23027W        W84448  28.640  13.681   0.392
23028W        W84449  20.601  23.157  12.846
23029W        W84450  35.003  42.983   0.888
23030W        W84451  38.421  32.507   0.340
23031W        W84452   0.811   3.888  13.467
23032W        W84453  44.396   3.418   0.283
23033W        W84454   1.379  14.156  11.444
23034W        W84455  34.901  40.046   4.240
23035W        W84456  18.137   6.284  13.435
23036W        W84457  44.481   5.245   3.275
23037W        W84458  22.605  23.178   1.375
23038W        W84459  18.624  39.420   0.893
23039W        W84460  38.929  12.219  11.585
23040W        W84461  37.952  13.164  10.945
23041W        W84462  31.911   6.849  12.090
23042W        W84463  23.572   2.909  12.385
23043W        W84464  31.083  43.814  12.537
23044W        W84465   9.316  31.095   0.351
23045W        W84466  42.358   6.905  14.356
23046W        W84467  40.898  25.567  10.968
23047W        W84468  36.977   2.398  10.583
23048W        W84469  31.477  44.965  11.399
23049W        W84470  13.641  21.129   3.361
23050W        W84471  12.705  30.978   4.315
23051W        W84472  33.392   1.926   0.797
23052W        W84473   3.432  41.462   2.895
23053W        W84474  36.013  28.572  12.897
23054W        W84475  29.468   6.852   4.319
23055W        W84476  20.726  24.670   2.298
23056W        W84477  38.925   0.410   4.668
23057W        W84478   1.412  41.371  12.838
23058W        W84479   8.196  16.662  13.545
23059W        W84480  25.710  35.929   2.668
23060W        W84481  16.671  25.155   2.334
23061W        W84482  24.573  17.226   0.895
23062W        W84483   3.855  33.969   3.179
23063W        W84484   7.783  10.354  14.028
23064W        W84485   8.339  15.710  13.956
23065W        W84486   7.415  33.952   2.705
23066W        W84487  19.731   6.190  13.463
23067W        W84488  21.078  41.300  14.329
23068W        W84489  40.440   3.937   3.296
23069W        W84490   8.796  19.720  14.769
23070W        W84491   4.241  43.502   2.800
23071W        W84492  35.553  38.951  12.356
23072W        W84493   8.296  32.063   2.886
23073W        W84494   0.337  33.498  13.461
23074W        W84495   0.380  12.814   4.337
23075W        W84496  27.500  35.994   2.829
23076W        W84497  37.080  29.473   1.229
23077W        W84498  41.431   1.264   4.767
23078W        W84499  43.856  22.667   1.226
23079W        W84500  10.764   4.938   3.179
23080W        W84501  21.202   8.843   3.685
23081W        W84502   1.828  41.365   4.760
23082W        W84503   3.372  26.048  12.543
23083W        W84504  39.004  22.652   1.332
23084W        W84505   4.303  31.520   2.310
23085W        W84506  10.304  21.231   4.749
23086W        W84507   9.674  21.728  14.914
23087W        W84508  27.145  43.454   1.845
23088W        W84509  28.114  35.574  13.543
23089W        W84510  30.526  15.256   0.401
23090W        W84511  21.110  25.599  12.840
23091W        W84512  42.813  35.053  11.069
23092W        W84513  23.203   7.280   0.769
23093W        W84514   4.931  33.545  14.799
23094W        W84515  34.391  34.595  13.061
23095W        W84516  25.200  36.908  14.425
23096W        W84517  32.042  40.927  11.926
23097W        W84518  22.999  27.104  11.457
23098W        W84519  14.188  32.913   4.232
23099W        W84520  19.172  29.947  12.507
23100W        W84521  40.920  40.839  13.411
23101W        W84522   8.712  25.554   2.736
23102W        W84523  30.977  31.028   1.779
23103W        W84524  42.874  44.907   2.329
23104W        W84525  22.145  32.951   1.438
23105W        W84526  23.107   7.283   2.340
23106W        W84527   7.351  10.716  10.605
23107W        W84528  27.453   4.727  12.001
23108W        W84529  13.173   2.441   3.862
23109W        W84530  39.935   9.307   2.839
23110W        W84531  21.521   1.359   1.332
23111W        W84532  43.505  42.953  13.440
23112W        W84533  21.170  31.587   3.813
23113W        W84534  33.995   7.301  14.428
23114W        W84535  27.157  40.482   1.436
23115W        W84536  44.927  28.084  14.952
23116W        W84537  40.378   6.854  13.913
23117W        W84538  22.160  34.508   1.347
23118W        W84539  38.467  39.017  10.425
23119W        W84540  28.679  13.233  13.483
23120W        W84541  12.232  11.806   1.839
23121W        W84542  42.312   1.900   4.814
23122W        W84543  19.112   2.341  14.349
23123W        W84544  23.567  19.548   2.184
23124W        W84545  19.601  24.607  12.484
23125W        W84546  37.352  21.035   2.842
23126W        W84547  23.015  40.409  14.367
23127W        W84548  23.662  19.090   2.897
23128W        W84549   1.443   3.312   2.207
23129W        W84550   5.720  16.121   2.360
23130W        W84551  16.630  28.184  11.553
23131W        W84552  44.307  28.565   0.347
23132W        W84553  44.461  30.450  12.843
23133W        W84554  19.107  43.947  13.803
23134W        W84555  40.366  40.009  11.110
23135W        W84556  38.422  13.841  13.337
23136W        W84557  38.989  22.057  11.408
23137W        W84558  33.026   5.928   1.697
23138W        W84559   0.420  18.553  13.433
23139W        W84560   2.944  23.116   1.768
23140W        W84561   2.233   1.886  12.035
23141W        W84562  34.416  17.302  12.022
23142W        W84563  16.234   3.344  13.426
23143W        W84564  17.611  38.059  11.601
23144W        W84565   8.791  17.771  10.426
23145W        W84566  44.395  39.889  13.330
23146W        W84567  28.584  30.144   2.712
23147W        W84568  11.850  12.277   3.714
23148W        W84569  27.534   1.905  10.603
23149W        W84570  41.347  28.671  13.927
23150W        W84571  37.521  11.710   1.351
23151W        W84572  14.825  30.125   9.605
23152W        W84573  17.717  16.615   0.911
23153W        W84574   9.194  22.508   3.318
23154W        W84575  43.353  38.992  11.900
23155W        W84576  39.471  26.523  11.587
23156W        W84577  43.458   4.829  14.799
23157W        W84578  29.449  36.891   4.672
23158W        W84579  28.027  25.097  13.547
23159W        W84580  40.544  33.978  14.362
23160W        W84581   8.777  34.603  10.494
23161W        W84582   6.701  41.517   2.754
23162W        W84583   9.866   4.377  13.810
23163W        W84584  25.099  32.040  11.889
23164W        W84585  40.486  32.506   1.774
23165W        W84586  24.136  18.093  11.928
23166W        W84587   6.857   3.805  10.452
23167W        W84588  11.836   6.822   0.476
23168W        W84589  23.106  28.951  13.334
23169W        W84590  28.966   7.673  13.942
23170W        W84591  41.016  22.107   1.281
23171W        W84592  23.578  14.144   1.876
23172W        W84593  38.567   4.246  13.522
23173W        W84594   2.252  13.670   2.386
23174W        W84595  14.720   9.757  13.492
23175W        W84596  22.252  36.517   4.838
23176W        W84597   7.667  35.965   1.780
23177W        W84598  18.256  40.494  14.502
23178W        W84599  34.601   6.202   1.733
23179W        W84600  37.983  36.046  14.459
23180W        W84601  38.471   3.878   0.808
23181W        W84602  40.973  34.092   3.698
23182W        W84603   0.863  36.937   2.369
23183W        W84604  43.399  18.246  13.311
23184W        W84605   9.227  30.091   3.329
23185W        W84606  26.609   0.478  10.160
23186W        W84607  35.001  27.663  12.060
23187W        W84608  29.108  13.313  13.864
23188W        W84609  28.617  11.142  13.387
23189W        W84610   9.159  25.598   2.841
23190W        W84611  40.526  12.747   1.416
23191W        W84612  34.451  13.793  11.859
23192W        W84613  24.039  33.956   3.326
23193W        W84614   4.313   3.427   2.742
23194W        W84615  12.688  26.648  11.595
23195W        W84616  21.050   9.743   2.336
23196W        W84617   8.337  41.798  14.510
23197W        W84618  37.961  41.362  14.859
23198W        W84619  25.585  36.939  14.441
23199W        W84620  31.484  33.468   1.297
23200W        W84621  34.577   8.842  10.476
23201W        W84622  15.660   6.687  11.557
23202W        W84623   0.413  32.637  12.945
23203W        W84624  11.672  20.193   0.470
23204W        W84625  13.602  15.202  11.031
23205W        W84626   9.212  15.708   1.399
23206W        W84627  36.957  17.212   0.456
23207W        W84628   9.352   8.387  13.314
23208W        W84629  27.145   5.803   1.445
23209W        W84630   2.894  16.290   0.399
23210W        W84631   4.302  36.076  12.827
23211W        W84632  39.013  42.429   3.813
23212W        W84633   3.798  16.238  14.759
23213W        W84634  30.117  23.056   3.762
23214W        W84635  25.656   4.237   0.243
23215W        W84636   9.669  33.478  12.866
23216W        W84637  14.303   8.321   0.316
23217W        W84638  22.232  16.617  11.534
23218W        W84639   5.896   7.868   1.354
23219W        W84640  12.618   2.357  10.594
23220W        W84641  37.552  19.643  14.831
23221W        W84642  40.492  26.187   1.829
23222W        W84643  29.099  41.013  12.969
23223W        W84644  36.871  13.838  14.503
23224W        W84645   6.767  33.106   0.893
23225W        W84646  44.486  25.512  12.836
23226W        W84647   8.262  36.045   4.141
23227W        W84648  10.186  20.208  10.554
23228W        W84649  44.359  10.243   0.946
23229W        W84650   7.173  25.153  10.976
23230W        W84651  14.108   7.747   2.784
23231W        W84652  11.691  35.546  10.504
23232W        W84653  17.218   3.307  11.964
23233W        W84654  40.496  20.107  12.518
23234W        W84655   3.280  34.576   2.759
23235W        W84656  37.863  39.910  12.402
23236W        W84657  32.611  32.969  11.127
23237W        W84658  26.457  12.172   0.776
23238W        W84659  29.667  21.147   5.117
23239W        W84660  32.510  17.774   1.927
23240W        W84661  38.899  44.821   1.770
23241W        W84662  30.152  25.040   3.355
23242W        W84663  29.991  32.065   4.825
23243W        W84664  40.379  36.478  12.945
23244W        W84665  32.596  17.719  13.031
23245W        W84666  25.514   8.162  11.059
23246W        W84667   8.725  33.058  12.440
23247W        W84668  39.938  42.500  13.834
23248W        W84669  13.752  44.413   1.815
23249W        W84670  39.323  37.931   2.333
23250W        W84671  36.363  16.190   4.165
23251W        W84672  27.663  30.512  14.927
23252W        W84673   2.462  33.426   3.863
23253W        W84674  29.104  28.155  13.030
23254W        W84675   8.686   2.289  10.901
23255W        W84676   3.247   2.361  13.827
23256W        W84677  12.639  38.519   1.744
23257W        W84678  37.919   5.873  13.406
23258W        W84679  18.145  20.115  11.545
23259W        W84680  39.041   5.316  10.961
23260W        W84681  20.219  32.594   2.669
23261W        W84682  31.980  33.604  14.512
23262W        W84683  33.931  17.159   2.695
23263W        W84684  42.781  31.053   3.221
23264W        W84685  25.058  31.132   3.784
23265W        W84686  37.467  34.108   1.780
23266W        W84687  37.955  24.724   0.804
23267W        W84688  38.460  42.970   2.292
23268W        W84689  28.187  25.505  12.382
23269W        W84690  13.615   6.374  11.046
23270W        W84691  41.467  43.851   2.356
23271W        W84692   3.275   9.664  11.105
23272W        W84693   4.756  34.863  11.071
23273W        W84694  35.570  12.803   1.337
23274W        W84695  11.691  40.833   1.323
23275W        W84696  10.686  34.563  13.990
23276W        W84697   5.701   5.818   4.163
23277W        W84698   2.411   4.700  13.412
23278W        W84699  36.569  26.482   2.202
23279W        W84700  15.754  10.214  14.892
23280W        W84701  18.572  42.023  11.494
23281W        W84702  34.034  25.142   0.748
23282W        W84703  10.706  36.044  14.458
23283W        W84704  22.562  32.102  10.893
23284W        W84705   4.246  43.816  10.895
23285W        W84706  42.836  21.616   4.305
23286W        W84707  22.613  31.636   1.437
23287W        W84708  21.108  33.043   0.954
23288W        W84709  17.779  24.165   3.734
23289W        W84710  23.052  27.450  13.467
23290W        W84711   9.783  18.625   2.855
23291W        W84712  43.982   6.424   0.917
23292W        W84713  40.421  36.513   1.725
23293W        W84714  13.211  29.924  14.989
23294W        W84715  21.623  22.050   2.846
23295W        W84716   1.374  26.026   3.261
23296W        W84717  43.402  30.479  12.553
23297W        W84718   8.791   8.748   0.946
23298W        W84719  16.569  23.993  12.918
23299W        W84720  39.887  31.613  12.081
23300W        W84721  39.437  21.608   2.762
23301W        W84722  20.718   6.770  12.062
23302W        W84723   1.865  12.333   3.851
23303W        W84724  18.193  35.932   0.776
23304W        W84725  18.673   9.742   4.130
23305W        W84726  27.154  19.081   0.738
23306W        W84727   1.457   2.855   1.233
23307W        W84728  37.853  38.997  11.046
23308W        W84729   4.367  29.550  12.901
23309W        W84730   7.268  18.262  13.794
23310W        W84731  38.328   8.209  14.280
23311W        W84732  15.246  18.213   2.685
23312W        W84733   1.296  39.035  12.084
23313W        W84734  24.703  26.637   0.736
23314W        W84735   8.307  25.986  14.935
23315W        W84736   4.760  35.984   0.803
23316W        W84737  41.359  24.647   2.363
23317W        W84738  32.554  14.258  13.488
23318W        W84739  19.553   1.740   3.790
23319W        W84740  16.571  42.456   2.894
23320W        W84741  43.842   4.709   2.239
23321W        W84742  17.130  27.109   0.753
23322W        W84743  25.508  12.702  14.345
23323W        W84744  43.850  14.606  11.477
23324W        W84745   1.827  31.594  13.331
23325W        W84746   0.432  22.651   1.219
23326W        W84747  27.470  13.619   1.266
23327W        W84748  18.263  35.500  12.095
23328W        W84749  36.370  26.063   1.317
23329W        W84750  16.795  33.112   4.692
23330W        W84751  30.068  19.570  12.379
23331W        W84752  43.365  25.596   3.256
23332W        W84753  31.037  28.435   3.632
23333W        W84754  21.197  16.737  13.823
23334W        W84755  17.304   0.310   4.165
23335W        W84756  33.036   9.715   2.676
23336W        W84757  16.265  27.580  10.637
23337W        W84758  44.383  34.428   1.877
23338W        W84759  25.497  17.739   0.392
23339W        W84760  25.573  34.881  14.504
23340W        W84761  28.454  28.603   1.734
23341W        W84762  41.494  29.430  10.923
23342W        W84763  19.090  39.818  13.353
23343W        W84764  35.493  31.058  14.290
23344W        W84765  16.752   1.933  10.947
23345W        W84766  35.903  24.720  11.403
23346W        W84767  28.086  28.509   0.259
23347W        W84768  39.933  15.742   3.824
23348W        W84769  34.539  36.526  12.392
23349W        W84770   5.293  26.127   1.874
23350W        W84771  44.265   4.835   5.245
23351W        W84772   8.399  17.268  10.544
23352W        W84773  34.450  21.102  12.839
23353W        W84774  34.530  16.254   1.397
23354W        W84775  30.647   1.869   2.384
23355W        W84776  24.104  28.615  13.988
23356W        W84777  19.545  34.592  14.296
23357W        W84778  34.987  38.349   0.283
23358W        W84779  23.152  18.188   3.208
23359W        W84780  24.000  31.522   2.258
23360W        W84781   3.944  19.762   5.305
23361W        W84782  42.964  21.194   3.787
23362W        W84783  33.570   8.899   9.993
23363W        W84784  30.637  16.303   4.192
23364W        W84785  13.775  33.075   1.912
23365W        W84786  42.788   4.367  11.126
23366W        W84787  15.253  28.657  10.973
23367W        W84788  12.324   6.730  14.953
23368W        W84789  12.728  41.340   4.635
23369W        W84790  22.534   3.318  13.412
23370W        W84791  36.051   5.767  12.069
23371W        W84792  39.359  18.669  13.965
23372W        W84793  22.017   6.708   1.814
23373W        W84794   6.905  35.381   0.299
23374W        W84795   3.921  26.061  11.901
23375W        W84796  27.670  41.359  14.913
23376W        W84797  38.066  40.515   0.243
23377W        W84798  41.897   5.708  11.885
23378W        W84799  10.311  39.915   2.233
23379W        W84800  39.372  11.681   5.703
23380W        W84801  16.605  37.364  12.088
23381W        W84802  34.986   3.899   1.814
23382W        W84803  43.955  10.239  13.935
23383W        W84804   5.291   1.276   5.580
23384W        W84805  40.050   2.836   4.335
23385W        W84806   9.150   5.214  11.454
23386W        W84807  19.630  31.056  13.809
23387W        W84808  34.925  17.602  12.926
23388W        W84809  13.778  13.681  11.860
23389W        W84810  36.056  23.687  10.553
23390W        W84811  36.994   2.931   1.870
23391W        W84812   0.273   4.264   1.909
23392W        W84813   8.288  37.891   5.138
23393W        W84814   1.313  22.641  11.882
23394W        W84815  39.373  12.311  12.054
23395W        W84816  43.408   3.779  12.458
23396W        W84817  29.428  19.574   0.963
23397W        W84818   2.284   9.341   1.758
23398W        W84819  11.825  43.919   4.252
23399W        W84820  36.528  40.806   4.248
23400W        W84821  11.632  19.632  12.351
23401W        W84822  24.073  13.272   0.823
23402W        W84823  24.048   7.357   4.685
23403W        W84824  10.676  17.212  13.363
23404W        W84825  33.399  18.768  11.894
23405W        W84826  39.560   6.768  13.397
23406W        W84827  41.952  19.748   1.753
23407W        W84828  38.438   1.421   4.282
23408W        W84829  34.446  26.964  12.455
23409W        W84830  33.913   1.440   2.728
23410W        W84831   3.712  42.981  12.375
23411W        W84832  34.051   8.817  11.475
23412W        W84833   6.306  38.913   2.220
23413W        W84834   4.311   0.918  10.143
23414W        W84835  32.610  23.237  11.534
23415W        W84836  10.206  37.339   2.809
23416W        W84837  24.049  17.714  10.601
23417W        W84838  24.602  10.636  10.457
23418W        W84839  12.691  25.558   1.320
23419W        W84840   6.229   3.726  12.009
23420W        W84841  12.811  32.121  14.283
23421W        W84842   4.708   6.383   2.391
23422W        W84843  43.851  36.523  13.050
23423W        W84844   5.316  35.902   0.796
23424W        W84845  12.292  41.886   1.709
23425W        W84846   1.871  23.223   9.936
23426W        W84847  38.853  43.914   4.611
23427W        W84848   3.885   2.356   1.283
23428W        W84849  33.914  15.772  13.319
23429W        W84850  18.103  37.366   1.849
23430W        W84851  36.957  18.204  14.378
23431W        W84852   4.700   8.769   0.283
23432W        W84853  35.934  33.959   1.880
23433W        W84854  25.510  44.494   4.333
23434W        W84855  40.488  42.969  10.940
23435W        W84856  29.494   6.307   0.795
23436W        W84857  41.917   9.228   1.866
23437W        W84858   8.197  40.330   2.805
23438W        W84859   5.848   1.243  14.014
23439W        W84860  12.809  22.023  13.893
23440W        W84861  13.194  27.667  12.496
23441W        W84862   6.777  41.787   1.285
23442W        W84863   2.757  44.353  14.425
23443W        W84864  21.636  21.666  12.965
23444W        W84865  13.844  14.710  10.487
23445W        W84866  14.815   9.173   3.218
23446W        W84867   6.374  15.775  13.979
23447W        W84868  36.455  21.261  10.426
23448W        W84869   5.721  36.012   4.760
23449W        W84870  14.287  30.444   2.874
23450W        W84871  44.369  12.733   4.689
23451W        W84872   2.952  16.568  14.860
23452W        W84873  34.874  11.742  12.020
23453W        W84874  10.688  12.307   4.781
23454W        W84875  41.320  24.219   2.376
23455W        W84876  14.130  22.614   0.888
23456W        W84877  32.922  31.925   4.347
23457W        W84878  30.584  34.491  13.501
23458W        W84879   6.384   4.295  14.834
23459W        W84880   0.338  11.260   1.824
23460W        W84881  16.713   8.396  10.445
23461W        W84882   3.921  18.548  14.986
23462W        W84883   2.942  39.884  10.638
23463W        W84884  34.585  31.455   3.365
23464W        W84885  31.904  26.630   0.469
23465W        W84886  32.444  38.553   1.352
23466W        W84887  44.828   7.276   4.169
23467W        W84888  27.088  41.503  13.030
23468W        W84889  25.119  19.590  13.808
23469W        W84890  16.597  11.675   3.316
23470W        W84891   0.757  23.502   2.379
23471W        W84892  12.324  27.945   2.288
23472W        W84893   0.359  17.596   2.787
23473W        W84894  28.052  42.845  10.584
23474W        W84895  13.758   5.793  10.440
23475W        W84896  23.143   7.171  12.845
23476W        W84897  35.494   1.966   3.260
23477W        W84898  15.776  34.099  10.997
23478W        W84899  18.264  34.537   3.201
23479W        W84900  11.707  37.365   1.434
23480W        W84901  20.198  19.141  10.481
23481W        W84902  11.240  20.180  13.866
23482W        W84903  44.945  32.510  11.095
23483W        W84904   2.320   2.757  13.955
23484W        W84905  17.236  23.090   1.377
23485W        W84906   3.245   3.381  13.866
23486W        W84907   7.412  27.524   3.256
23487W        W84908  37.355   4.814   3.639
23488W        W84909  19.682   9.871  12.504
23489W        W84910  26.601  17.568   2.781
23490W        W84911  24.072  21.669  14.859
23491W        W84912  36.352  42.347   3.218
23492W        W84913   5.314  30.107   1.817
23493W        W84914  36.852  42.406  11.894
23494W        W84915   7.198  12.173  14.979
23495W        W84916  37.484  23.210  12.497
23496W        W84917  42.348  41.858   1.925
23497W        W84918  11.179  35.414  11.489
23498W        W84919   7.711  31.139  10.518
23499W        W84920  10.854  19.243   4.803
23500W        W84921  20.136  24.065   0.963
23501W        W84922   7.873  14.097  12.357
23502W        W84923   2.855  16.206   4.775
23503W        W84924  37.459  21.738   1.822
23504W        W84925  12.252  23.574  10.930
23505W        W84926  22.666   0.797  12.466
23506W        W84927  38.399   2.931   3.378
23507W        W84928  13.758  30.119   2.772
23508W        W84929  41.009   9.294   0.967
23509W        W84930   4.901  21.567  14.374
23510W        W84931  33.978  28.485   1.721
23511W        W84932  26.572   1.297  14.366
23512W        W84933  28.096  13.308  13.376
23513W        W84934  28.657   8.699   0.445
23514W        W84935  31.610  30.070   1.777
23515W        W84936   9.661  18.186  12.849
23516W        W84937  31.491  34.084   3.258
23517W        W84938  24.644  12.157   0.257
23518W        W84939  15.183  35.379   3.337
23519W        W84940   4.717   3.817   4.182
23520W        W84941  26.601   8.789   0.251
23521W        W84942   5.423  20.227  14.344
23522W        W84943   6.206  42.294  10.923
23523W        W84944  39.380  28.512   2.247
23524W        W84945  29.957   8.172   4.610
23525W        W84946  20.048  21.666  10.991
23526W        W84947  16.279   8.830   2.306
23527W        W84948  30.594   1.810  14.919
23528W        W84949  41.324  32.473   0.844
23529W        W84950  43.423  37.928   1.378
23530W        W84951  41.943  40.045   3.209
23531W        W84952  23.158   8.863   4.171
23532W        W84953  36.479  13.262   0.909
23533W        W84954   7.850  35.600   0.443
23534W        W84955  32.071  43.021   1.857
23535W        W84956  28.078  39.365  11.381
23536W        W84957  11.287   5.789   4.351
23537W        W84958   1.290  29.920  12.071
23538W        W84959  36.944  40.319   1.920
23539W        W84960  43.874   6.312   1.267
23540W        W84961   3.900  22.741   4.814
23541W        W84962  43.777   3.719   1.227
23542W        W84963  41.801  23.226  12.374
23543W        W84964  19.161  25.705  11.536
23544W        W84965   3.354   5.887   0.857
23545W        W84966  41.825   4.248  10.423
23546W        W84967  23.020   0.793   1.331
23547W        W84968  28.464  15.822  11.409
23548W        W84969   0.444  30.645   9.968
23549W        W84970  44.926  35.539  10.894
23550W        W84971   4.212  16.234  10.409
23551W        W84972  41.859  40.913   4.616
23552W        W84973   8.343  38.015   1.319
23553W        W84974   0.494  15.723  12.003
23554W        W84975  32.483  34.984   2.882
23555W        W84976   2.352  12.224   1.386
23556W        W84977   0.749  15.176  14.795
23557W        W84978  13.796  33.460  13.343
23558W        W84979   6.305  14.245  11.948
23559W        W84980   1.967  10.309  14.797
23560W        W84981  43.788   6.428   4.197
23561W        W84982  22.629  24.652   3.345
23562W        W84983  43.457  35.095  12.890
23563W        W84984  13.749   0.364  12.462
23564W        W84985   2.844   3.941   1.316
23565W        W84986   8.210  40.479  12.015
23566W        W84987  17.632  33.895  13.904
23567W        W84988   3.805  22.587   9.932
23568W        W84989   1.748   5.394  10.154
23569W        W84990  30.045   4.250   2.190
23570W        W84991  26.205  14.744  11.406
23571W        W84992   0.462  38.926  14.436
23572W        W84993   0.958  42.439   3.255
23573W        W84994  42.472  44.862  13.394
23574W        W84995  30.589  29.115   1.212
23575W        W84996   4.321  38.980   2.680
23576W        W84997  14.602  15.581  14.859
23577W        W84998  27.667  39.330  11.594
23578W        W84999  14.201  44.782  11.493
23579W        W85000  31.599  39.907  14.289
23580W        W85001  40.963  25.479  12.914
23581W        W85002  31.038  17.258   5.214
23582W        W85003  21.191  43.421  13.029
23583W        W85004  21.649   7.262   1.375
23584W        W85005  18.262  26.053   4.653
23585W        W85006   8.777  30.117  11.039
23586W        W85007  13.732  33.028   0.904
23587W        W85008  19.541  42.806   1.251
23588W        W85009  14.616  43.466   4.238
23589W        W85010  29.531  32.545   0.305
23590W        W85011   8.823  34.500   2.308
23591W        W85012  40.018  43.815  14.403
23592W        W85013   7.705  43.791   3.856
23593W        W85014  17.152  17.603   3.731
23594W        W85015  36.535  25.642   4.143
23595W        W85016   2.765  35.887  13.380
23596W        W85017  29.514   0.361   1.801
23597W        W85018  20.551  18.777  14.293
23598W        W85019  33.386  12.213  14.438
23599W        W85020  10.810  26.996   0.432
23600W        W85021  41.339  36.043  12.462
23601W        W85022  11.352  28.036   2.253
23602W        W85023  34.999  35.109  14.414
23603W        W85024  39.831  15.623   0.781
23604W        W85025  22.612  25.573   0.396
23605W        W85026  19.682  15.692   2.766
23606W        W85027   4.215   1.820  11.423
23607W        W85028  41.388   4.206  13.947
23608W        W85029  20.095   7.697   0.964
23609W        W85030  40.920   9.286  10.907
23610W        W85031  41.948  31.022  10.588
23611W        W85032  23.731  21.730  12.016
23612W        W85033  24.570   3.338  12.541
23613W        W85034  43.810  11.203  11.502
23614W        W85035  25.048  43.477   2.181
23615W        W85036  19.212  28.083   2.732
23616W        W85037  16.677  41.513  12.829
23617W        W85038  41.365   9.879   4.180
23618W        W85039  29.055  15.821  13.942
23619W        W85040  30.540   6.357   0.355
23620W        W85041  13.141  34.004  10.918
23621W        W85042   3.418  24.689  12.079
23622W        W85043  14.240   5.814   4.327
23623W        W85044  24.543   2.781   4.695
23624W        W85045  10.651  34.440   2.234
23625W        W85046  14.279  33.942  11.021
23626W        W85047  43.326  44.423  11.016
23627W        W85048  14.646   1.265   2.307
23628W        W85049  13.159  42.858  13.421
23629W        W85050  38.409   8.322  14.759
23630W        W85051  27.468  37.036   1.719
23631W        W85052   2.821   9.316  12.437
23632W        W85053  11.766   1.908  10.011
23633W        W85054  14.599  10.791  13.802
23634W        W85055   6.219   1.973   0.750
23635W        W85056  18.283  26.696  11.915
23636W        W85057  20.584  18.103   4.197
23637W        W85058  15.108  37.029  11.411
23638W        W85059   1.474  17.801  13.922
23639W        W85060  25.103  15.764   3.248
23640W        W85061  16.722  36.443  12.516
23641W        W85062   6.692  34.867   0.875
23642W        W85063   3.419  22.648  12.560
23643W        W85064  35.493  37.546  11.966
23644W        W85065   1.796  31.476  11.420
23645W        W85066  44.873  32.557  10.511
23646W        W85067  13.791  14.322  14.959
23647W        W85068  38.344  29.488   4.251
23648W        W85069  16.624  28.002   0.407
23649W        W85070  31.443  16.219   4.228
23650W        W85071  33.982  24.503  11.507
23651W        W85072  23.557  16.628   2.817
23652W        W85073  17.260  44.268   4.212
23653W        W85074  36.094   1.464   3.300
23654W        W85075  25.594  31.581   2.306
23655W        W85076  34.427  16.169   4.708
23656W        W85077  18.673   6.283  11.975
23657W        W85078  41.503  13.244   0.436
23658W        W85079  37.523  16.154  14.390
23659W        W85080  19.149  23.597   0.734
23660W        W85081  19.152  19.720   4.188
23661W        W85082  37.891  23.648  12.862
23662W        W85083   0.943   5.781   1.737
23663W        W85084  33.615  39.528  12.420
23664W        W85085  30.990   9.738  14.856
23665W        W85086   3.810  37.014   0.753
23666W        W85087  26.552  30.009   3.275
23667W        W85088  19.683  32.603   0.856
23668W        W85089  10.634  23.094  12.398
23669W        W85090   7.724  12.815   3.277
23670W        W85091   2.328  29.038  11.405
23671W        W85092  18.111  27.612  10.495
23672W        W85093  32.425   9.391   4.832
23673W        W85094  14.653   8.777  10.115
23674W        W85095   9.333  19.138   2.762
23675W        W85096  42.977  35.885   1.702
23676W        W85097   5.349   9.710  12.368
23677W        W85098  26.135  24.000  11.945
23678W        W85099  36.579  29.568  10.982
23679W        W85100  12.349  21.224   4.712
23680W        W85101  16.251  38.905   2.757
23681W        W85102  18.631  21.028   4.831
23682W        W85103  26.564  15.224  13.394
23683W        W85104  42.450  41.480   1.803
23684W        W85105  28.120  41.444  14.293
23685W        W85106  13.251  22.086   4.135
23686W        W85107  27.158  29.634  13.490
23687W        W85108   3.849   3.414   2.826
23688W        W85109   0.944  23.080  11.535
23689W        W85110  10.347   4.384   1.394
23690W        W85111   6.680  25.597  14.364
23691W        W85112  15.302  24.092   0.793
23692W        W85113  33.004  39.469   4.822
23693W        W85114  24.200  12.715  11.485
23694W        W85115  18.618  18.675  13.027
23695W        W85116   9.222  40.885  11.093
23696W        W85117   8.707  21.697   3.284
23697W        W85118  31.475  31.453  14.932
23698W        W85119  23.142  16.734  12.990
23699W        W85120  44.267  32.932   3.296
23700W        W85121  27.114  36.035   4.286
23701W        W85122  30.452  24.032   5.281
23702W        W85123  29.530  31.047   4.187
23703W        W85124  36.966   4.367   3.819
23704W        W85125  20.248  10.774   3.277
23705W        W85126  35.891  25.057  10.506
23706W        W85127  30.115  36.852   1.450
23707W        W85128   4.297  26.204   5.150
23708W        W85129   0.271  18.069   4.658
23709W        W85130  14.281   8.763   3.250
23710W        W85131  23.581   0.970  10.631
23711W        W85132  31.003  16.117  14.018
23712W        W85133  44.377  28.950  11.871
23713W        W85134   1.470  35.427   4.838
23714W        W85135  33.576  18.675   0.792
23715W        W85136  18.700   2.375  12.942
23716W        W85137   7.855  29.524  13.446
23717W        W85138  30.059  34.504   0.824
23718W        W85139   6.851   4.818   4.295
23719W        W85140  39.057  32.415  10.427
23720W        W85141  28.948  14.596   3.848
23721W        W85142   5.783  31.087  11.103
23722W        W85143  36.495  42.014   1.695
23723W        W85144   1.896   1.293  12.825
23724W        W85145  32.112  25.577  13.052
23725W        W85146  18.637  19.733  12.847
23726W        W85147  38.986  16.699   4.267
23727W        W85148   4.393   9.380   3.377
23728W        W85149  38.498  33.906  14.441
23729W        W85150  19.248  40.332   2.790
23730W        W85151  43.953  29.497  10.433
23731W        W85152   1.848  12.733  14.027
23732W        W85153  33.469   4.843  14.309
23733W        W85154  28.000   1.244   0.847
23734W        W85155   6.711   7.837  11.019
23735W        W85156   6.680  14.612  12.930
23736W        W85157   2.763  14.833  11.013
23737W        W85158  37.425  22.566   3.226
23738W        W85159   4.715   6.365   1.733
23739W        W85160  34.592  22.636   2.832
23740W        W85161  22.244  18.205  14.009
23741W        W85162  31.551   2.272   3.265
23742W        W85163   1.898  24.546   2.301
23743W        W85164  42.409  16.729  13.525
23744W        W85165  22.606  16.672  14.863
23745W        W85166  23.136  23.985  12.057
23746W        W85167  11.177  12.685  13.368
23747W        W85168  26.532  22.248  12.993
23748W        W85169  39.872  13.846   1.883
23749W        W85170   4.411  18.182  12.094
23750W        W85171  25.521  14.097   2.705
23751W        W85172   5.343  29.959   4.602
23752W        W85173   2.471  15.730   2.195
23753W        W85174   1.911  31.133   3.268
23754W        W85175   0.801  26.571   3.698
23755W        W85176  17.609  24.638  13.984
23756W        W85177  31.495  16.289   4.792
23757W        W85178   4.285   0.252  13.455
23758W        W85179  28.157  36.901  11.515
23759W        W85180   0.449  27.115  11.874
23760W        W85181  33.533  31.075  12.019
23761W        W85182  36.440  18.128  11.947
23762W        W85183  36.500  29.596  11.430
23763W        W85184  18.101  16.075  14.942
23764W        W85185  26.106  11.359   1.324
23765W        W85186  20.257  32.060   2.223
23766W        W85187  27.522  27.119  10.959
23767W        W85188  35.030  18.151  13.457
23768W        W85189  32.418  30.618   9.977
23769W        W85190  44.272   1.933   5.132
23770W        W85191  11.326  20.615   2.873
23771W        W85192   6.913   4.273  10.493
23772W        W85193   9.746  13.805   0.315
23773W        W85194   2.904   9.232   1.775
23774W        W85195  35.535   0.271  13.831
23775W        W85196  33.591   4.699   4.286
23776W        W85197  32.966  19.170  13.869
23777W        W85198  17.254  19.699   4.660
23778W        W85199  42.462  38.462   2.871
23779W        W85200  44.505  16.089   2.340
23780W        W85201  11.280  12.255  14.427
23781W        W85202  14.722  35.907  14.335
23782W        W85203  23.584  14.281  11.610
23783W        W85204  15.623  27.555  11.027
23784W        W85205  38.438  35.538   1.762
23785W        W85206   2.445   1.814  14.392
23786W        W85207  33.121  29.000  13.359
23787W        W85208  14.133   2.393   1.222
23788W        W85209  35.879  20.687  13.339
23789W        W85210  31.543  10.304   1.893
23790W        W85211  40.374  18.676  14.011
23791W        W85212  43.420  15.158   0.902
23792W        W85213  23.542  26.668   3.163
23793W        W85214  17.787  22.713   3.324
23794W        W85215  25.660   1.333   0.941
23795W        W85216  23.240  26.551   4.831
23796W        W85217  21.149   6.239   2.755
23797W        W85218  21.095   4.314  13.383
23798W        W85219  23.160   0.893  11.483
23799W        W85220   4.302   5.848  10.607
23800W        W85221  27.952  10.148   5.304
23801W        W85222   4.734  40.815  14.455
23802W        W85223   7.679   0.899  11.447
23803W        W85224   5.374  15.244   4.209
23804W        W85225  37.487   9.351  12.479
23805W        W85226  17.722   5.256  11.455
23806W        W85227  11.151  40.342   3.708
23807W        W85228   7.314  12.293  13.997
23808W        W85229  35.436  38.942   0.923
23809W        W85230   2.394  33.892  13.503
23810W        W85231  23.518  14.738  11.005
23811W        W85232   9.277  39.339   1.893
23812W        W85233  19.139  36.570   4.634
23813W        W85234  26.508  16.258   0.354
23814W        W85235   2.420   5.759  11.596
23815W        W85236  27.673  42.511  13.401
23816W        W85237  20.235  23.154  14.920
23817W        W85238  13.315   7.364   1.799
23818W        W85239  37.380   0.875   2.876
23819W        W85240  40.486  36.394  12.456
23820W        W85241  37.836  42.884   0.450
23821W        W85242  18.253   8.281   4.303
23822W        W85243  35.487   2.316   0.916
23823W        W85244   9.364  27.151   0.903
23824W        W85245   6.219  18.252   2.831
23825W        W85246  15.273  12.669   3.281
23826W        W85247   1.848  40.889  14.029
23827W        W85248  44.470  42.527   3.816
23828W        W85249  34.979  38.410  12.393
23829W        W85250  30.077   4.872   0.356
23830W        W85251  28.539  28.182  13.374
23831W        W85252  17.671  28.172  14.425
23832W        W85253  29.458   0.808   0.865
23833W        W85254   2.807  17.666   2.779
23834W        W85255  33.522  19.217   1.902
23835W        W85256   7.698  33.007  13.029
23836W        W85257   3.311   0.892   2.331
23837W        W85258  35.485   1.419   2.277
23838W        W85259  22.242  13.304   4.695
23839W        W85260  37.970  44.901  14.897
23840W        W85261  37.022   3.223  10.895
23841W        W85262  40.530  11.332  11.610
23842W        W85263  20.721  27.605  14.469
23843W        W85264  31.108  31.986   4.730
23844W        W85265  17.793  33.557   0.377
23845W        W85266  39.905  26.489   0.462
23846W        W85267  12.118  15.244  14.908
23847W        W85268  27.950   2.794   3.823
23848W        W85269   3.765  43.912  11.988
23849W        W85270  25.013   3.243  13.926
23850W        W85271  43.342  31.130   1.842
23851W        W85272  32.065  43.374  13.482
23852W        W85273   2.386  25.001  14.897
23853W        W85274  35.057  42.404  11.896
23854W        W85275  20.035  40.338  13.357
23855W        W85276  15.152  12.196   2.842
23856W        W85277  35.528  44.302   3.675
23857W        W85278   1.298  26.531   5.208
23858W        W85279  32.933  17.270   4.213
23859W        W85280  19.677   8.810  11.958
23860W        W85281  30.955   2.855   0.924
23861W        W85282  19.673   3.845  13.434
23862W        W85283  14.197  27.539   2.268
23863W        W85284  17.636  17.199   1.319
23864W        W85285  26.182   3.432  14.456
23865W        W85286   7.765  44.968   3.328
23866W        W85287  39.531  38.866  13.064
23867W        W85288   2.913  41.386  14.874
23868W        W85289  22.684   0.798  14.887
23869W        W85290  14.761   6.198  14.394
23870W        W85291  29.001  13.650  10.961
23871W        W85292  42.342   3.424   2.381
23872W        W85293  32.440  15.824   0.277
23873W        W85294  43.952  12.666   0.883
23874W        W85295  37.843  24.707  14.468
23875W        W85296  11.787  21.753  10.570
23876W        W85297   9.855  30.994  11.604
23877W        W85298   6.771  10.710   3.673
23878W        W85299   4.403  12.619  12.503
23879W        W85300  14.624  37.354   0.330
23880W        W85301  14.224  13.120  12.854
23881W        W85302  43.776   2.344   4.120
23882W        W85303   5.216  12.671  11.586
23883W        W85304  11.763   9.261   2.255
23884W        W85305  44.436  33.569   1.234
23885W        W85306  11.714  34.954  14.846
23886W        W85307  14.674   5.247   0.842
23887W        W85308  39.542   3.791   3.690
23888W        W85309  29.486   3.303  11.940
23889W        W85310  16.193   7.680   2.728
23890W        W85311  42.907   7.361   3.866
23891W        W85312  26.957  40.929   4.164
23892W        W85313  12.820  36.509  14.941
23893W        W85314  17.123  40.949   1.365
23894W        W85315  42.291  38.543  13.313
23895W        W85316   6.212  39.834  10.050
23896W        W85317  20.152  34.560  12.376
23897W        W85318  33.498  15.295   1.331
23898W        W85319  42.833  39.437   0.466
23899W        W85320  26.058   3.763  12.580
23900W        W85321  26.495   1.858   2.734
23901W        W85322   3.445  42.429   0.855
23902W        W85323  41.474  23.090  13.034
23903W        W85324  39.357  39.317   0.865
23904W        W85325   7.737  24.035  11.075
23905W        W85326  40.499   8.832   1.911
23906W        W85327  26.657   2.787  13.819
23907W        W85328   6.254   2.340  10.130
23908W        W85329  41.483  15.802  11.578
23909W        W85330  10.805   5.379  11.030
23910W        W85331  35.993   6.722   1.813
23911W        W85332  40.896  40.386   3.726
23912W        W85333  15.267  15.101   4.205
23913W        W85334  43.910   6.701   2.789
23914W        W85335  29.088  17.565   3.215
23915W        W85336  20.137  23.722  14.966
23916W        W85337   3.355  44.930  11.930
23917W        W85338  43.843   7.313  11.907
23918W        W85339  10.295  15.782  14.841
23919W        W85340  30.135  20.252  11.033
23920W        W85341  27.559  12.751   0.731
23921W        W85342  30.623   4.882  11.964
23922W        W85343  19.534  22.533  14.839
23923W        W85344  38.068  35.407   1.856
23924W        W85345  25.501  16.781   0.392
23925W        W85346  12.128  43.772   0.347
23926W        W85347   1.314  17.196  14.316
23927W        W85348  25.086  34.000  11.895
23928W        W85349  43.464  21.198  11.942
23929W        W85350  40.482  42.353   2.790
23930W        W85351  20.149  32.949  12.884
23931W        W85352  27.091   0.400  12.466
23932W        W85353  25.189  35.089   0.357
23933W        W85354  37.029  26.071  11.527
23934W        W85355  22.229  30.538  12.361
23935W        W85356  38.947  31.623  14.369
23936W        W85357  42.480  33.014   3.815
23937W        W85358  11.665  14.295  12.494
23938W        W85359  35.544  13.242  12.955
23939W        W85360  26.678  31.604  12.904
23940W        W85361  40.374  10.300  11.078
23941W        W85362  32.934  14.803  13.873
23942W        W85363  42.924  39.829   1.790
23943W        W85364   9.342  30.631  13.034
23944W        W85365  10.321  28.090  13.430
23945W        W85366   7.785  37.987  12.050
23946W        W85367  14.253  42.391   0.852
23947W        W85368  37.383  40.457  10.606
23948W        W85369   5.399  35.413   0.826
23949W        W85370  11.672  13.328  12.527
23950W        W85371  31.440  39.526  11.903
23951W        W85372   5.434  26.066  12.858
23952W        W85373  30.027   4.388   2.887
23953W        W85374  30.575  24.979   1.269
23954W        W85375  40.809  43.276   1.800
23955W        W85376  44.438   3.459   4.353
23956W        W85377  30.140  26.203  12.479
23957W        W85378  43.012   4.368  13.543
23958W        W85379  23.521   2.374   4.135
23959W        W85380  35.029  11.359  11.937
23960W        W85381  37.014  10.834  10.622
23961W        W85382  43.913  32.890  13.957
23962W        W85383  29.143  27.193  14.464
23963W        W85384  16.754   6.320   2.713
23964W        W85385  11.704  13.204   2.704
23965W        W85386  42.899  26.583   1.883
23966W        W85387  23.732   9.395   5.649
23967W        W85388  20.681  29.482  13.965
23968W        W85389  35.940   0.947  14.878
23969W        W85390   1.392  35.096   0.446
23970W        W85391  24.628  32.512  10.486
23971W        W85392  42.803  19.068   4.167
23972W        W85393  43.871  24.988   4.210
23973W        W85394  27.661  37.468  11.385
23974W        W85395   6.284  27.088  11.054
23975W        W85396  23.131   5.319   3.147
23976W        W85397  36.957  17.104  11.041
23977W        W85398   7.283   0.973  11.999
23978W        W85399  10.293  24.085  10.117
23979W        W85400  21.693  34.525  11.058
23980W        W85401  18.791  16.574  11.981
23981W        W85402  35.957   6.834  11.034
23982W        W85403   0.747  40.953   2.393
23983W        W85404  21.259  40.834  13.894
23984W        W85405   3.914  14.253   4.128
23985W        W85406  33.007   3.922  13.028
23986W        W85407  31.418  39.337  14.334
23987W        W85408  43.809  33.470  13.860
23988W        W85409  21.743  24.479  13.944
23989W        W85410  30.454  23.648  11.002
23990W        W85411  44.873  15.187  13.400
23991W        W85412  44.341  41.506  10.927
23992W        W85413  36.853  24.643   2.833
23993W        W85414  23.030  18.581   2.233
23994W        W85415   7.739  29.133  12.925
23995W        W85416   9.370   6.749   3.153
23996W        W85417  19.155  32.027  11.373
23997W        W85418  32.596  38.982  11.404
23998W        W85419   9.706  14.266  11.610
23999W        W85420  13.838  32.613  11.931
24000W        W85421   5.856  41.485   0.327
24001W        W85422  18.744  28.061  12.910
24002W        W85423  37.432  12.655   3.189
24003W        W85424  29.475   8.358   1.741
24004W        W85425  44.902  16.726   4.707
24005W        W85426  38.419  44.792   3.769
24006W        W85427  36.953  24.984   2.318
24007W        W85428  36.380  37.833   3.765
24008W        W85429  16.614  40.936  14.796
24009W        W85430  20.222  17.668   9.926
24010W        W85431  16.176  15.222   3.682
24011W        W85432   4.790  43.942  13.371
24012W        W85433  38.552  24.486   0.900
24013W        W85434   1.777   7.184   1.383
24014W        W85435  40.003  22.688  12.344
24015W        W85436   4.803   0.908   0.356
24016W        W85437  35.932  15.139   2.841
24017W        W85438  29.051  29.670   0.368
24018W        W85439  26.574   0.876  14.293
24019W        W85440  27.451   3.916  10.443
24020W        W85441  12.301  14.722   4.761
24021W        W85442  37.018  39.473  11.035
24022W        W85443  38.072  38.061   0.245
24023W        W85444  27.083  12.281   1.861
24024W        W85445   0.933   6.188  10.516
24025W        W85446  14.232  37.088   2.670
24026W        W85447  41.888  40.982  13.510
24027W        W85448  38.995   6.707  13.407
24028W        W85449  39.973  14.192   3.332
24029W        W85450  29.513  21.236  11.964
24030W        W85451  35.464  30.135   0.750
24031W        W85452  31.577  32.391  13.430
24032W        W85453  39.895  21.540   2.184
24033W        W85454  36.576  29.514   1.407
24034W        W85455  19.752  13.134   3.803
24035W        W85456  24.556  11.364  14.478
24036W        W85457  21.613  31.959  10.992
24037W        W85458   0.791  18.227  11.072
24038W        W85459   4.822   7.796  14.788
24039W        W85460  21.583  39.883  10.407
24040W        W85461  33.575  34.928   3.287
24041W        W85462  10.808   8.236  11.988
24042W        W85463  10.792   6.864  12.965
24043W        W85464  28.062  25.963  14.349
24044W        W85465  13.620  14.816  14.353
24045W        W85466  37.863  36.055   0.870
24046W        W85467  17.274  22.176  11.589
24047W        W85468   4.710  21.581   1.781
24048W        W85469   9.698   6.355   4.347
24049W        W85470  22.100  21.122  13.489
24050W        W85471  22.504  21.025  10.513
24051W        W85472  22.592  29.999  13.040
24052W        W85473  37.843   9.687   2.897
24053W        W85474  22.519  14.316   2.697
24054W        W85475  34.579  22.571   0.911
24055W        W85476  27.037  17.158  14.886
24056W        W85477  35.389   1.878   5.224
24057W        W85478  32.894   3.427   2.413
24058W        W85479  29.083  36.546   4.686
24059W        W85480  28.107  22.558   0.342
24060W        W85481  34.502  28.037  10.541
24061W        W85482  29.523  38.830  13.534
24062W        W85483  39.323  26.549   1.823
24063W        W85484  26.540  42.859   2.219
24064W        W85485  17.139  37.992  13.499
24065W        W85486   3.868  16.590  14.802
24066W        W85487   9.876  30.918   0.900
24067W        W85488  11.369  37.382   2.853
24068W        W85489  24.549  29.470  11.446
24069W        W85490  39.916  43.963  14.023
24070W        W85491  21.631  34.613   3.160
24071W        W85492  41.860  20.221  13.797
24072W        W85493  43.296  28.624  14.422
24073W        W85494  10.713   9.851  11.884
24074W        W85495  43.912   5.724  13.791
24075W        W85496  43.955  25.106   1.379
24076W        W85497  34.018  21.215   0.937
24077W        W85498  25.492  39.850   3.355
24078W        W85499  24.494   4.391   9.993
24079W        W85500  31.451  42.002   4.322
24080W        W85501  36.373  40.367  13.023
24081W        W85502  29.990  32.035  10.957
24082W        W85503  17.095  20.581  12.434
24083W        W85504  13.303  25.643  14.452
24084W        W85505   6.825  34.449   0.766
24085W        W85506  29.054  29.486   2.240
24086W        W85507   1.397  33.056  12.520
24087W        W85508   4.354  29.145   0.431
24088W        W85509  29.163  19.558  11.037
24089W        W85510  28.459   9.165  14.996
24090W        W85511  31.498  13.228  14.829
24091W        W85512  16.170  43.515  14.397
24092W        W85513  41.395  22.633  14.994
24093W        W85514  40.893   0.248   2.269
24094W        W85515   3.248  21.202   2.242
24095W        W85516   6.311   9.837  11.474
24096W        W85517  29.987  25.705   1.735
24097W        W85518  36.983  12.321   2.817
24098W        W85519  36.870  12.353  10.605
24099W        W85520  28.033  30.976  14.832
24100W        W85521   5.824   7.691  11.906
24101W        W85522  40.894  17.602   9.961
24102W        W85523  39.004  18.595  14.968
24103W        W85524  10.166  18.633   1.244
24104W        W85525  37.423  22.071   0.766
24105W        W85526  24.119  36.579  13.037
24106W        W85527  27.459  14.807   9.927
24107W        W85528  10.260  32.547  13.510
24108W        W85529  30.963   6.914   0.779
24109W        W85530  39.889  34.485   2.773
24110W        W85531  30.922   6.694   3.387
24111W        W85532  29.562  10.346   2.765
24112W        W85533   9.702  43.015   1.417
24113W        W85534   9.866  19.096   4.175
24114W        W85535  30.154  39.032  10.985
24115W        W85536   6.207  16.593   4.778
24116W        W85537  42.474  34.596   1.446
24117W        W85538  19.230   4.847   1.878
24118W        W85539   7.359  26.000  10.580
24119W        W85540  28.517  37.050   2.197
24120W        W85541  33.071  38.916  12.949
24121W        W85542  21.695   5.237  11.537
24122W        W85543  40.843  38.540   4.317
24123W        W85544  39.946  32.994   2.374
24124W        W85545  38.871   7.327  13.939
24125W        W85546  22.191  11.179   4.147
24126W        W85547   6.829  29.432   3.294
24127W        W85548  13.124  44.754   0.374
24128W        W85549  20.130  32.941   1.850
24129W        W85550  39.908  37.899   3.286
24130W        W85551  21.690  29.669  13.886
24131W        W85552  27.491  23.629   1.924
24132W        W85553   5.412  22.247   3.271
24133W        W85554  12.789  32.077   2.806
24134W        W85555   3.416  12.752   4.725
24135W        W85556  15.134  17.650   1.851
24136W        W85557  41.503   5.390  10.581
24137W        W85558  27.035  27.546  12.918
24138W        W85559  32.534  11.361  12.576
24139W        W85560  16.759  25.091   2.823
24140W        W85561  40.382  44.882  14.277
24141W        W85562  35.416  13.622   3.673
24142W        W85563  29.438  13.641   3.762
24143W        W85564  40.990  38.072   0.250
24144W        W85565  19.046  39.457   1.748
24145W        W85566  31.532  31.926  12.577
24146W        W85567  30.458   8.249  12.560
24147W        W85568  28.065   5.815  11.508
24148W        W85569  28.647  17.269   1.211
24149W        W85570   3.942  20.717  14.886
24150W        W85571  33.513  37.872   4.302
24151W        W85572  30.957   7.266   3.335
24152W        W85573  38.362  21.027  14.899
24153W        W85574  38.006  19.244   0.375
24154W        W85575  10.316  20.198   4.599
24155W        W85576  32.451  36.471  12.834
24156W        W85577   1.741  10.216  10.474
24157W        W85578  22.143  17.750  13.515
24158W        W85579  43.782   1.392  10.413
24159W        W85580  10.353  38.449   3.810
24160W        W85581  14.704  42.312  12.047
24161W        W85582   5.369  27.942  10.621
24162W        W85583  37.467  21.098  14.014
24163W        W85584  35.021  31.607  11.564
24164W        W85585  20.635  43.297  12.562
24165W        W85586  24.720  33.070   4.163
24166W        W85587   1.272  40.038   1.234
24167W        W85588  39.352   1.410  13.545
24168W        W85589  18.157  31.544  13.055
24169W        W85590  42.954  44.479  12.881
24170W        W85591  37.896  22.156  13.406
24171W        W85592   6.694  33.569   4.174
24172W        W85593  30.075  22.746   2.765
24173W        W85594  37.933  32.027  14.978
24174W        W85595  12.138  39.465   3.221
24175W        W85596  33.928  17.273  13.452
24176W        W85597  41.410  22.084  11.872
24177W        W85598  15.305  30.042   4.339
24178W        W85599   1.391  27.515  11.398
24179W        W85600  38.893  33.403  10.451
24180W        W85601  39.332   4.412  14.469
24181W        W85602   2.912  44.755   5.732
24182W        W85603  13.224  21.131   1.432
24183W        W85604   9.303   7.719   0.292
24184W        W85605  16.691  23.667  10.931
24185W        W85606  25.696  21.062   4.646
24186W        W85607  14.612  26.182  10.915
24187W        W85608  25.067  28.970   0.867
24188W        W85609  43.802  43.378  10.614
24189W        W85610  19.125  14.775  11.042
24190W        W85611  22.670   4.831   0.412
24191W        W85612  12.714  31.035   9.511
24192W        W85613  42.796  31.429   1.843
24193W        W85614  42.962   8.200  11.420
24194W        W85615   4.304  17.669   2.667
24195W        W85616  30.551   3.952   3.704
24196W        W85617  20.598  18.638  11.907
24197W        W85618  37.395  34.913   0.402
24198W        W85619  42.798  26.014   3.386
24199W        W85620   7.235  37.390   1.813
24200W        W85621  44.912  33.585   4.201
24201W        W85622  37.049  11.289  10.457
24202W        W85623   6.406   0.850   0.780
24203W        W85624   4.338  14.676  12.340
24204W        W85625  34.501   0.425   3.371
24205W        W85626  38.437  23.674   0.313
24206W        W85627  13.306  19.589   0.471
24207W        W85628   7.906  16.143   4.175
24208W        W85629  37.555  15.268   9.949
24209W        W85630  30.144  31.111  11.992
24210W        W85631  22.615   2.456   0.881
24211W        W85632  38.399  15.140   2.754
24212W        W85633  21.025  38.843   4.626
24213W        W85634  38.481  36.970  13.352
24214W        W85635  38.477   5.693  12.484
24215W        W85636  33.415  17.080   1.742
24216W        W85637   5.696  41.836   4.699
24217W        W85638  37.405  21.645   0.484
24218W        W85639  11.829  35.886  12.824
24219W        W85640  40.820  35.492  12.957
24220W        W85641   3.367  44.993   4.239
24221W        W85642  20.238  33.929  12.487
24222W        W85643  34.447  14.123  13.802
24223W        W85644  11.372  13.703   4.337
24224W        W85645  29.589  38.995  10.568
24225W        W85646  27.973  35.010  11.434
24226W        W85647  40.420   6.326   3.252
24227W        W85648  41.842  26.662   0.345
24228W        W85649  37.493  32.128   0.414
24229W        W85650  18.227  32.030  11.036
24230W        W85651  37.034   4.274  10.573
24231W        W85652  32.511  22.151  11.973
24232W        W85653   8.290   6.261  14.939
24233W        W85654  18.165   5.803   4.255
24234W        W85655   1.779   0.850   1.442
24235W        W85656  41.932   9.875  11.043
24236W        W85657  42.451   2.865  14.907
24237W        W85658  16.169  28.627   1.328
24238W        W85659  32.414   5.369  13.029
24239W        W85660  20.243  43.390  12.941
24240W        W85661  10.639  21.120  12.498
24241W        W85662  44.422  31.990   4.795
24242W        W85663  26.955  33.587  11.959
24243W        W85664  20.566  17.100  11.584
24244W        W85665  34.962   1.824  13.428
24245W        W85666   2.380  26.631   3.273
24246W        W85667  10.720  37.982   3.785
24247W        W85668  44.997  28.101   2.369
24248W        W85669  28.628   2.368  12.902
24249W        W85670  28.155  34.387   3.226
24250W        W85671  30.595  15.596  14.772
24251W        W85672  34.966  10.207  11.532
24252W        W85673  43.416  27.129  14.296
24253W        W85674  41.512  15.107   1.723
24254W        W85675  13.746   9.326  11.959
24255W        W85676  26.024  42.808   3.732
24256W        W85677  34.912   0.944   1.709
24257W        W85678  26.674  43.971  14.837
24258W        W85679   1.420  22.630  13.329
24259W        W85680  14.158  14.109   4.169
24260W        W85681  37.577  40.541   3.795
24261W        W85682   4.740   5.354   3.755
24262W        W85683  18.284  22.563   2.725
24263W        W85684  38.456  27.529   0.413
24264W        W85685   1.828  31.002  12.858
24265W        W85686   6.417  44.436  12.446
24266W        W85687  40.409  42.871   5.312
24267W        W85688   3.780  29.925   0.842
24268W        W85689  32.556   9.267   4.196
24269W        W85690  28.039  21.207   1.888
24270W        W85691  24.540  23.153   1.369
24271W        W85692  28.561  20.242  12.574
24272W        W85693   7.399  16.171  10.437
24273W        W85694  32.436   9.384  13.859
24274W        W85695  43.370  35.533   2.895
24275W        W85696  29.051  29.060   0.744
24276W        W85697  22.741  20.536  11.436
24277W        W85698  13.741   7.750  14.031
24278W        W85699  34.082  14.234   3.849
24279W        W85700  12.704   4.316  14.807
24280W        W85701   5.895  43.400  12.351
24281W        W85702  28.029  42.864   3.707
24282W        W85703  15.309  10.825   4.727
24283W        W85704  25.576  33.952   3.339
24284W        W85705  43.330   6.344   3.204
24285W        W85706  37.441   2.781  12.076
24286W        W85707   3.880   6.338  10.961
24287W        W85708   2.412  29.498   0.284
24288W        W85709  20.249  19.280  13.502
24289W        W85710  28.680   4.823   2.738
24290W        W85711  18.577  41.901   4.597
24291W        W85712  42.427  40.972  14.470
24292W        W85713  22.164  29.440  12.578
24293W        W85714  36.474  43.511   2.199
24294W        W85715  41.995  30.942   2.685
24295W        W85716  35.061  27.108   4.206
24296W        W85717  10.329  19.539   2.805
24297W        W85718   6.830  33.918   3.638
24298W        W85719  42.501  12.636  14.918
24299W        W85720   5.218  12.685   1.405
24300W        W85721  23.147   2.722   0.900
24301W        W85722   4.351   7.682  13.060
24302W        W85723  35.532  43.390   2.699
24303W        W85724  10.311  20.593   2.849
24304W        W85725  25.179  15.206  10.941
24305W        W85726  22.158   7.394  10.491
24306W        W85727  39.545  10.198   4.635
24307W        W85728  19.692  23.221   4.307
24308W        W85729  27.951  19.742  13.459
24309W        W85730  21.550   3.912   2.758
24310W        W85731  28.057  16.308   1.420
24311W        W85732   1.377  30.422   3.779
24312W        W85733   1.398  34.380   1.756
24313W        W85734  37.502  27.064   0.295
24314W        W85735   0.414  44.821  13.955
24315W        W85736  28.166  41.935   3.842
24316W        W85737   4.846  23.663  10.474
24317W        W85738  21.123  28.114   4.119
24318W        W85739  30.546   9.315   1.324
24319W        W85740   1.896  33.529  10.424
24320W        W85741  34.529   8.277   0.898
24321W        W85742  30.943  10.236   5.256
24322W        W85743  23.006  38.551   0.774
24323W        W85744  27.542   0.867   1.337
24324W        W85745  16.732  14.831   9.662
24325W        W85746  44.845   9.349   4.259
24326W        W85747  28.456  33.535  10.043
24327W        W85748  19.160  42.355   2.663
24328W        W85749   6.779   4.940   3.151
24329W        W85750   7.270  37.026   9.610
24330W        W85751   1.427  40.487   3.350
24331W        W85752  14.601   6.191   4.333
24332W        W85753  44.876  40.045   5.278
24333W        W85754  17.576  17.300  12.530
24334W        W85755  10.879   7.343   3.825
24335W        W85756   9.797  38.518   3.304
24336W        W85757  39.498  31.989  12.399
24337W        W85758  30.614   1.907  10.987
24338W        W85759  19.184  23.144  13.805
24339W        W85760   6.189   9.812   4.210
24340W        W85761  33.515  21.106   0.781
24341W        W85762   2.425  36.589   1.350
24342W        W85763   1.283   2.944  11.054
24343W        W85764  29.127  20.675  12.409
24344W        W85765  38.925  38.444   2.208
24345W        W85766  24.018  41.810  11.888
24346W        W85767  43.404  35.459   0.839
24347W        W85768  14.830  28.054  13.943
24348W        W85769  44.428   3.787  10.121
24349W        W85770  40.023  37.535  11.565
24350W        W85771   1.910  23.031  10.976
24351W        W85772  27.127  41.867  11.511
24352W        W85773  37.917  13.710  12.067
24353W        W85774  18.244  37.500   2.847
24354W        W85775  14.256  20.140  14.342
24355W        W85776  40.023   1.380   1.712
24356W        W85777  12.753  30.921  11.103
24357W        W85778  12.682  22.685   0.346
24358W        W85779  43.473  30.003  14.973
24359W        W85780  29.625  30.498  12.388
24360W        W85781   0.955  18.643   4.226
24361W        W85782  11.361   5.345  13.015
24362W        W85783  43.848  36.002  13.373
24363W        W85784  37.978   1.753  12.551
24364W        W85785  17.693  26.540  10.556
24365W        W85786  22.541  41.326   4.617
24366W        W85787   3.261  11.685   5.130
24367W        W85788  41.297  26.002  13.845
24368W        W85789  23.181  18.096   2.684
24369W        W85790  37.447  19.546   3.672
24370W        W85791  10.840  29.146  10.980
24371W        W85792  25.681  33.397   0.481
24372W        W85793  42.525  38.449  11.387
24373W        W85794  11.245   7.328  14.878
24374W        W85795  40.880   7.388   0.960
24375W        W85796   7.889  25.213   3.223
24376W        W85797   5.376  10.188   1.731
24377W        W85798  12.648  34.069  12.912
24378W        W85799  23.660  13.253   4.624
24379W        W85800  26.972  44.838  11.056
24380W        W85801  21.110  38.063  11.547
24381W        W85802  13.114  14.798  14.366
24382W        W85803  33.008  39.430   4.270
24383W        W85804  37.856   0.831  13.466
24384W        W85805  44.308  27.570   3.738
24385W        W85806  14.241  18.737  11.081
24386W        W85807  26.195  22.105  10.928
24387W        W85808  22.557  14.790   0.365
24388W        W85809   3.282  22.700  10.005
24389W        W85810  43.917  30.589  11.552
24390W        W85811  20.614  30.977   4.161
24391W        W85812  11.362  30.133   1.865
24392W        W85813  23.212   3.347   2.860
24393W        W85814  39.321  13.802  12.565
24394W        W85815  34.410  25.963  12.932
24395W        W85816  12.227  35.908  11.945
24396W        W85817  29.934  23.169  12.434
24397W        W85818  39.504   7.290   4.671
24398W        W85819   0.298  40.393   0.882
24399W        W85820   3.283  31.148   9.657
24400W        W85821  26.066  11.186  13.394
24401W        W85822  34.505  15.104   1.319
24402W        W85823   2.362  26.181  10.414
24403W        W85824  36.896  18.190   2.681
24404W        W85825  18.210   5.826   2.220
24405W        W85826  21.694   0.257   2.247
24406W        W85827  29.607   3.376   2.767
24407W        W85828   8.756  42.845   0.375
24408W        W85829  38.072  36.372  12.091
24409W        W85830  40.459  11.647   5.217
24410W        W85831  22.655  33.502   3.771
24411W        W85832  29.490  26.007   2.885
24412W        W85833  36.483  29.007   4.811
24413W        W85834  19.732  33.518  10.894
24414W        W85835  13.758  12.298   2.678
24415W        W85836  20.610  22.037   1.782
24416W        W85837  11.757  12.264  13.931
24417W        W85838  13.133  19.261   3.716
24418W        W85839  22.556   3.812   4.245
24419W        W85840  12.692  28.064  13.866
24420W        W85841  10.156  15.819   0.928
24421W        W85842   8.192  16.104  10.965
24422W        W85843   3.362  23.168  14.282
24423W        W85844  18.198  21.604  11.050
24424W        W85845  40.302   0.883   4.280
24425W        W85846  43.982  32.088   5.183
24426W        W85847  11.791  33.392   5.097
24427W        W85848  36.933  43.392   4.800
24428W        W85849  44.850  27.568   2.698
24429W        W85850  40.919  29.523   4.173
24430W        W85851  42.981  10.301  12.052
24431W        W85852  30.137  21.569  12.450
24432W        W85853  11.752  16.690  14.489
24433W        W85854  38.023  33.001  12.848
24434W        W85855  33.928  21.140  12.851
24435W        W85856  21.707  43.907   2.671
24436W        W85857  37.847  14.682  14.373
24437W        W85858  24.563   9.868   3.364
24438W        W85859   9.744  31.580   4.249
24439W        W85860  16.650  10.343   1.313
24440W        W85861   8.769  38.326   3.185
24441W        W85862   4.295  27.638   3.854
24442W        W85863  26.572  19.244  11.517
24443W        W85864   0.921  22.049   3.862
24444W        W85865  13.347  21.692   3.694
24445W        W85866  18.662  35.570   0.282
24446W        W85867  11.652  41.303   3.752
24447W        W85868   5.902  31.499   4.629
24448W        W85869  10.792   2.877   2.857
24449W        W85870  35.537  16.796  10.997
24450W        W85871   6.809  26.103   2.290
24451W        W85872   7.772   0.880  14.501
24452W        W85873  18.714  32.602  11.896
24453W        W85874  35.473  20.638  11.007
24454W        W85875  35.395  37.895  12.919
24455W        W85876  41.389  36.930   1.802
24456W        W85877  32.920   3.936   0.828
24457W        W85878  23.185  30.497   4.256
24458W        W85879  39.003   9.173   2.771
24459W        W85880  19.674  18.658   9.991
24460W        W85881  40.911   1.862   4.114
24461W        W85882  20.621  42.347   2.311
24462W        W85883  10.367   7.289   0.752
24463W        W85884   4.217  16.773   2.324
24464W        W85885  40.034  30.937  12.450
24465W        W85886  26.066  44.286  12.508
24466W        W85887   5.216   7.814  13.866
24467W        W85888  33.097   0.430   0.921
24468W        W85889   9.284  44.353   0.327
24469W        W85890  42.867  12.138  12.012
24470W        W85891   4.711  19.183   4.813
24471W        W85892   1.845  33.109   9.445
24472W        W85893   5.293  35.024  11.897
24473W        W85894  13.793  33.020  12.376
24474W        W85895  13.323  34.528   2.212
24475W        W85896  31.417  12.808   1.738
24476W        W85897  27.184  24.610   3.301
24477W        W85898   3.759  10.363   4.647
24478W        W85899  16.152  14.238   1.925
24479W        W85900  21.097  24.061  10.562
24480W        W85901   4.276  19.220   4.635
24481W        W85902  38.885  29.598  10.977
24482W        W85903  25.169  33.517   4.347
24483W        W85904   5.315  40.841  11.390
24484W        W85905  44.935  25.063  10.458
24485W        W85906  44.824   0.805   0.877
24486W        W85907  18.173  10.269   1.924
24487W        W85908  11.372   8.272   0.301
24488W        W85909  21.732  43.771   4.791
24489W        W85910  14.272  24.702   0.307
24490W        W85911  10.797  19.125  12.934
24491W        W85912  10.229  22.035   1.259
24492W        W85913   5.932   5.391   0.466
24493W        W85914  34.948  21.706   3.690
24494W        W85915   9.217  40.511  12.064
24495W        W85916  21.582   6.207   2.331
24496W        W85917   8.171   6.379  11.589
24497W        W85918   6.852  23.730  12.524
24498W        W85919  35.888   5.694   2.883
24499W        W85920  28.931   6.883   3.803
24500W        W85921  42.910  27.131  11.862
24501W        W85922  16.619   9.848   2.181
24502W        W85923  38.951  28.465  14.974
24503W        W85924  25.508  18.053  12.865
24504W        W85925   5.431  20.709  11.932
24505W        W85926  15.777   3.735   4.182
24506W        W85927   8.398  27.455  10.926
24507W        W85928   1.319  28.518   4.139
24508W        W85929  41.952  33.601   4.343
24509W        W85930  21.665  18.217  11.978
24510W        W85931  44.781  25.969  11.525
24511W        W85932  40.844   1.743   4.630
24512W        W85933  31.638   9.229   0.361
24513W        W85934  23.704  37.913   0.403
24514W        W85935   9.713  26.646  13.467
24515W        W85936  15.623  21.736   3.661
24516W        W85937  23.206  37.512  10.981
24517W        W85938  41.938  28.013   0.779
24518W        W85939  23.608  34.421   0.347
24519W        W85940   7.338  39.461  13.008
24520W        W85941  25.578   5.295  13.932
24521W        W85942  16.080  17.725   4.671
24522W        W85943   3.409  20.608   4.632
24523W        W85944  43.485  15.785   3.383
24524W        W85945   5.333  31.538   4.136
24525W        W85946  14.690  24.132  13.427
24526W        W85947  17.780  24.584  10.607
24527W        W85948  14.638  21.598   4.242
24528W        W85949  25.539  12.217   3.240
24529W        W85950   8.774  26.563  11.056
24530W        W85951  18.083   2.911   4.816
24531W        W85952   5.291   0.800  12.527
24532W        W85953  22.239  29.982  11.541
24533W        W85954  29.946  33.888   3.221
24534W        W85955  20.079  23.197  11.459
24535W        W85956   5.391  43.375   4.342
24536W        W85957  35.045  11.782   0.776
24537W        W85958  30.616  23.731   2.208
24538W        W85959  26.138  31.912  14.484
24539W        W85960  24.574  17.192   2.228
24540W        W85961  39.922   4.808  11.915
24541W        W85962  32.620  19.210  11.600
24542W        W85963   3.733  32.412  14.506
24543W        W85964   3.441  15.139  13.479
24544W        W85965  16.193  10.839   0.391
24545W        W85966  24.994  13.616  14.997
24546W        W85967  37.978  41.949  11.024
24547W        W85968  29.072  22.534   4.263
24548W        W85969  35.556  42.922   4.723
24549W        W85970   3.460   4.222  12.424
24550W        W85971  37.500  26.502  11.577
24551W        W85972  13.648   2.390   4.731
24552W        W85973  43.319  39.847  13.350
24553W        W85974  17.065  32.526  13.044
24554W        W85975  16.720  30.546   3.817
24555W        W85976  29.583  22.506   2.709
24556W        W85977  17.761  26.499  11.455
24557W        W85978   5.732  14.218   2.226
24558W        W85979  36.948  32.458   1.856
24559W        W85980  13.807  13.338  12.428
24560W        W85981  38.550   9.286  10.918
24561W        W85982  27.185  28.947  12.989
24562W        W85983  43.824  19.072  11.092
24563W        W85984  36.944   9.688  14.341
24564W        W85985   3.350  37.499   4.762
24565W        W85986  22.651  27.001   0.479
24566W        W85987  21.091  33.130  14.370
24567W        W85988   2.250  19.692  14.909
24568W        W85989  12.742  29.052   1.366
24569W        W85990  38.964  37.959  12.541
24570W        W85991  24.111  24.538  13.352
24571W        W85992  26.125  26.687   4.700
24572W        W85993  38.496  30.033  12.448
24573W        W85994  44.310  28.491  13.877
24574W        W85995  37.041  41.385   1.916
24575W        W85996  41.314  28.931  12.913
24576W        W85997   4.705  23.719   3.706
24577W        W85998  14.805  16.643   3.378
24578W        W85999   7.267  12.661  10.426
24579W        W86000  30.000  25.007   4.186
24580W        W86001   9.857  31.603  12.517
24581W        W86002  43.888  25.518  12.921
24582W        W86003  34.881   4.283  14.325
24583W        W86004  37.015   6.226   3.648
24584W        W86005  43.361  34.534  12.505
24585W        W86006  20.222  15.175   3.838
24586W        W86007   1.843  40.386  12.870
24587W        W86008  39.828  42.336  10.607
24588W        W86009  30.530  11.285  12.375
24589W        W86010   8.721   7.374  12.833
24590W        W86011  30.505  32.564  10.566
24591W        W86012  31.597  10.256   0.390
24592W        W86013  12.326  10.658  12.003
24593W        W86014  26.702  25.594   4.258
24594W        W86015  19.225  27.555   3.235
24595W        W86016  26.064   5.283  13.462
24596W        W86017   6.280  11.680  12.839
24597W        W86018  36.555  13.254  10.467
24598W        W86019  30.443   8.245  13.945
24599W        W86020   8.815   8.358  10.905
24600W        W86021  29.958  35.472  13.010
24601W        W86022  28.070  42.865  14.281
24602W        W86023  19.055  41.857  12.472
24603W        W86024   0.883  41.837   1.392
24604W        W86025   4.846   9.773   9.949
24605W        W86026   4.833  39.534  14.313
24606W        W86027   0.487   1.780  14.484
24607W        W86028  13.830  37.086  10.987
24608W        W86029  21.158   8.298   1.305
24609W        W86030  14.757  18.121  13.910
24610W        W86031  15.759  30.605   0.744
24611W        W86032   2.354  43.423   2.677
24612W        W86033  23.229   9.695  13.969
24613W        W86034   5.340  43.463   2.211
24614W        W86035  15.687   9.204   2.366
24615W        W86036  18.074  27.477   2.816
24616W        W86037  11.142  34.865   3.643
24617W        W86038  11.167   3.282   4.250
24618W        W86039  43.427  42.914   0.352
24619W        W86040  41.857  33.552   4.743
24620W        W86041  28.985  39.349   1.327
24621W        W86042  15.293  12.625  14.367
24622W        W86043  33.445  34.057   2.315
24623W        W86044  14.655  22.055  13.967
24624W        W86045  35.889  17.178   2.269
24625W        W86046  37.386  18.165   4.217
24626W        W86047  21.691   1.752  14.983
24627W        W86048  42.818  23.658   0.300
24628W        W86049  18.779  18.708   2.244
24629W        W86050  44.271  15.774   0.921
24630W        W86051  44.444  20.551  14.454
24631W        W86052  24.719  38.939  14.374
24632W        W86053  38.040  31.930   3.675
24633W        W86054  25.169   9.330   0.768
24634W        W86055  12.745  32.050   3.655
24635W        W86056  21.216  23.036  12.858
24636W        W86057   1.824  20.559  11.890
24637W        W86058  41.298  26.086   2.188
24638W        W86059   1.881  26.629   3.303
24639W        W86060  29.521  33.494  13.454
24640W        W86061  37.467  15.765   0.344
24641W        W86062  38.497  18.218  14.433
24642W        W86063  19.608  21.163   3.757
24643W        W86064  18.706  28.527   1.829
24644W        W86065   0.258  28.121  11.482
24645W        W86066  35.938  44.359   1.411
24646W        W86067  15.303  23.611   0.324
24647W        W86068  38.549  41.371  10.620
24648W        W86069  14.170   5.758  13.813
24649W        W86070  20.737  10.345   1.404
24650W        W86071   4.785  25.493  10.986
24651W        W86072  31.409  28.044   2.309
24652W        W86073  15.180   6.870  12.069
24653W        W86074  11.845  42.466   2.308
24654W        W86075  31.546  28.155   3.229
24655W        W86076  28.053  15.118   2.222
24656W        W86077   6.251  23.162   1.707
24657W        W86078  37.395  33.977   0.340
24658W        W86079  25.018  34.056   0.854
24659W        W86080  29.100  26.479  13.393
24660W        W86081  43.945  44.473   0.903
24661W        W86082  41.942  17.302   1.758
24662W        W86083  18.061   2.447   4.257
24663W        W86084  40.493  28.589   2.671
24664W        W86085  27.004   2.842  10.434
24665W        W86086  30.594  21.546  13.987
24666W        W86087  37.419  24.703   2.681
24667W        W86088  18.267   5.219  11.864
24668W        W86089  37.927  16.226  14.837
24669W        W86090  31.645  34.960   2.860
24670W        W86091  21.557  16.218   0.297
24671W        W86092  43.387  21.137  11.408
24672W        W86093  17.272  25.968   1.919
24673W        W86094   5.247  23.185   2.291
24674W        W86095   1.889  22.159   4.627
24675W        W86096   3.810  23.153  14.505
24676W        W86097  42.409   9.738   3.637
24677W        W86098  32.941  17.089  12.878
24678W        W86099  30.591  37.936   0.834
24679W        W86100  38.464  43.863  12.033
24680W        W86101  32.460  18.781   2.378
24681W        W86102  11.809   5.761   4.219
24682W        W86103  37.443  11.196  10.540
24683W        W86104   3.227   0.467   0.855
24684W        W86105  24.099   4.715  11.406
24685W        W86106  33.885  19.144   4.250
24686W        W86107  40.963  39.448  13.872
24687W        W86108  22.207  31.638   4.690
24688W        W86109  15.620  27.669   0.245
24689W        W86110  24.534  33.100  11.093
24690W        W86111  42.889   6.414   4.328
24691W        W86112  34.469  19.675   4.330
24692W        W86113  10.343  40.804  14.373
24693W        W86114  23.030  23.635   4.189
24694W        W86115  26.533  17.184   3.652
24695W        W86116  34.987  11.157   4.687
24696W        W86117   6.266  34.961   2.316
24697W        W86118  19.258  43.940  14.419
24698W        W86119  38.043  42.894  12.389
24699W        W86120  37.896  38.400  10.575
24700W        W86121  24.090   3.945  12.068
24701W        W86122  12.287  23.564   2.694
24702W        W86123  41.035  37.896   2.307
24703W        W86124  28.088  19.056  11.918
24704W        W86125  11.800  43.432   2.250
24705W        W86126  10.162  16.587   2.407
24706W        W86127   3.953  26.479   2.218
24707W        W86128   0.769  15.788   2.248
24708W        W86129  15.103  22.195   0.906
24709W        W86130  21.669   7.792  14.332
24710W        W86131  28.549  37.445   4.620
24711W        W86132  15.769  34.394  10.919
24712W        W86133  23.041  17.107   3.794
24713W        W86134  36.493  38.475   2.326
24714W        W86135  29.942  20.257   4.323
24715W        W86136  10.186  26.199  12.434
24716W        W86137  41.035  20.066  13.938
24717W        W86138  24.569  10.828  13.033
24718W        W86139   0.791  26.548   2.185
24719W        W86140  38.964  18.132   1.727
24720W        W86141  39.487  16.243   3.234
24721W        W86142  43.988  43.905  10.509
24722W        W86143  34.025  20.671  14.852
24723W        W86144  15.149   4.286  11.947
24724W        W86145  23.017  28.055  11.500
24725W        W86146  23.025   9.684   1.218
24726W        W86147   7.340  21.024  11.007
24727W        W86148   8.751   1.822   4.761
24728W        W86149  39.499  39.492   2.698
24729W        W86150  38.563   9.754  14.982
24730W        W86151  26.056  39.856  12.879
24731W        W86152   9.664  21.234   3.654
24732W        W86153  12.214   3.805  13.984
24733W        W86154   5.320  37.998  10.599
24734W        W86155   6.829  43.424   2.706
24735W        W86156  36.370  17.142   0.262
24736W        W86157  40.330   7.358  12.484
24737W        W86158  42.891  24.484  10.586
24738W        W86159  24.610  41.354  14.397
24739W        W86160  42.359  14.732  12.878
24740W        W86161  12.834  41.454   3.834
24741W        W86162  43.302  27.653  10.459
24742W        W86163  17.599  35.561   2.707
24743W        W86164   5.419  18.124  14.416
24744W        W86165   2.951  43.494  13.460
24745W        W86166  19.234  22.071  14.510
24746W        W86167  19.700  16.799   0.360
24747W        W86168  17.288   2.743   3.828
24748W        W86169  37.044   6.219   1.714
24749W        W86170  17.705   4.705  12.514
24750W        W86171  16.293  27.467   3.714
24751W        W86172   1.279  16.300  10.582
24752W        W86173  42.473  41.337  14.776
24753W        W86174   5.913  10.224   2.241
24754W        W86175  28.068  15.100   1.387
24755W        W86176   4.358  32.495  14.461
24756W        W86177  42.783  29.487   3.373
24757W        W86178   7.835  13.224   4.246
24758W        W86179   2.813  25.045  13.463
24759W        W86180  18.109  19.598   0.467
24760W        W86181  38.878  11.779   1.275
24761W        W86182  19.268  14.306   0.310
24762W        W86183  27.529  23.027  12.426
24763W        W86184  22.640  37.985   2.294
24764W        W86185  17.074   0.381   3.862
24765W        W86186  37.875  36.588  11.052
24766W        W86187   7.212  22.615   4.638
24767W        W86188  10.768  30.059  13.469
24768W        W86189  16.232   1.929   5.245
24769W        W86190  13.261  40.028  10.431
24770W        W86191  30.433  29.052   0.804
24771W        W86192  41.476   3.325   0.920
24772W        W86193  32.034   4.215  11.585
24773W        W86194  40.803  18.242   0.350
24774W        W86195  26.028  38.831   3.268
24775W        W86196  20.639   4.370  10.507
24776W        W86197  20.582  37.919  13.038
24777W        W86198  28.046  11.363   4.194
24778W        W86199   7.702  30.935   3.827
24779W        W86200  22.629  35.394   2.281
24780W        W86201   6.800   7.336  13.462
24781W        W86202  25.056  24.143  14.995
24782W        W86203  20.156  41.491   3.729
24783W        W86204  34.570   9.270  11.051
24784W        W86205  41.037  14.325  11.094
24785W        W86206   7.350  19.279   2.396
24786W        W86207  28.099  13.272  14.942
24787W        W86208  30.647  34.996  14.465
24788W        W86209  16.625  37.875  13.872
24789W        W86210  10.379  26.562  11.927
24790W        W86211  21.099  18.195   1.338
24791W        W86212  40.008  17.628  13.964
24792W        W86213  19.206   9.886   4.714
24793W        W86214  30.119   8.832   0.929
24794W        W86215  22.578  36.004  12.357
24795W        W86216  24.148  16.630  14.445
24796W        W86217   3.407   8.835   0.966
24797W        W86218  34.574  37.520  11.907
24798W        W86219  23.707  35.078  14.303
24799W        W86220  19.196  33.403   0.773
24800W        W86221  34.496  33.423  11.090
24801W        W86222  40.857  42.355  14.881
24802W        W86223  34.925  25.642  11.101
24803W        W86224  41.977  35.890   2.206
24804W        W86225   9.747   3.267   1.922
24805W        W86226  33.932  43.395   3.313
24806W        W86227  10.146   3.440   1.448
24807W        W86228   4.932  18.130  12.923
24808W        W86229   8.770  22.502   5.202
24809W        W86230   7.355  44.770   4.768
24810W        W86231  22.652  11.724  13.869
24811W        W86232  34.610   2.410   3.831
24812W        W86233  42.893   6.240  10.505
24813W        W86234  39.458  32.931  10.639
24814W        W86235   7.179  13.173   0.361
24815W        W86236  24.156   9.294   5.179
24816W        W86237   8.242  15.701   0.964
24817W        W86238  14.723   8.885  14.342
24818W        W86239  26.573  31.597   2.371
24819W        W86240   4.943  23.144  13.353
24820W        W86241  28.158  30.910   3.149
24821W        W86242  13.188  28.938  14.856
24822W        W86243  36.926  13.222  12.496
24823W        W86244  24.571  41.397  13.819
24824W        W86245  38.531  35.953  14.798
24825W        W86246   8.249  16.580  12.034
24826W        W86247  38.884  30.918   2.266
24827W        W86248  40.042  31.967   3.196
24828W        W86249  30.526  15.266  13.920
24829W        W86250   0.950  21.238   4.123
24830W        W86251  14.735  43.302  14.412
24831W        W86252  24.997  30.644  11.542
24832W        W86253  23.541  41.529   4.779
24833W        W86254  36.077  16.641  11.544
24834W        W86255   2.287  21.025  12.867
24835W        W86256  40.365  22.737  13.793
24836W        W86257   5.393  16.706  13.357
24837W        W86258  21.070  31.014   0.785
24838W        W86259  37.985  13.644  13.548
24839W        W86260   9.210  30.642   4.723
24840W        W86261  39.011  11.668   0.424
24841W        W86262  11.173  41.316   4.122
24842W        W86263  27.682  10.329   2.322
24843W        W86264  11.158  15.108   4.740
24844W        W86265  39.909  23.501  11.482
24845W        W86266   1.342  21.592  12.055
24846W        W86267  23.016  38.031   1.409
24847W        W86268   4.369  28.506   0.957
24848W        W86269  41.351  33.404  14.921
24849W        W86270  15.211   9.344  10.980
24850W        W86271  13.818   0.277   3.386
24851W        W86272  25.174  27.495  12.959
24852W        W86273  12.212   6.395   4.689
24853W        W86274  26.535  36.061  12.021
24854W        W86275  31.965   1.905  12.523
24855W        W86276  11.146   1.340   3.327
24856W        W86277   8.320   0.317  11.949
24857W        W86278   8.340   7.407   0.321
24858W        W86279  10.696   4.729  12.399
24859W        W86280   6.686  22.638  10.531
24860W        W86281   8.277  17.612   4.605
24861W        W86282  15.148  38.012  11.471
24862W        W86283  24.117  43.998   1.223
24863W        W86284  24.132  25.218  11.484
24864W        W86285  11.155  25.574   0.274
24865W        W86286  27.641  18.052  14.406
24866W        W86287  36.520  24.140  14.499
24867W        W86288  15.611  17.613  11.923
24868W        W86289   6.809  10.667   4.608
24869W        W86290  29.107  13.176  11.543
24870W        W86291  26.054   8.221   2.402
24871W        W86292   2.807  44.766  14.379
24872W        W86293  39.322  34.930  13.858
24873W        W86294  23.734  14.115   1.430
24874W        W86295  36.565  35.086   0.421
24875W        W86296  17.794   3.824   2.260
24876W        W86297  40.351  26.582  11.889
24877W        W86298  27.133  15.759  13.423
24878W        W86299  35.962  12.222   2.742
24879W        W86300  34.066  14.340  13.426
24880W        W86301   5.880  35.585  12.443
24881W        W86302  32.995  37.434   2.895
24882W        W86303   0.781  13.319   4.168
24883W        W86304  29.443  12.854  13.345
24884W        W86305   3.794  19.572   1.781
24885W        W86306  30.450   6.774   2.677
24886W        W86307  30.460  18.263  14.973
24887W        W86308  40.493  40.487   0.400
24888W        W86309  33.530  41.516  12.435
24889W        W86310  34.077  26.558   1.283
24890W        W86311  44.940  28.612   1.349
24891W        W86312  28.087  30.929   1.735
24892W        W86313  19.201  44.893  12.378
24893W        W86314  31.041   9.877  11.611
24894W        W86315  10.785   2.743   3.348
24895W        W86316  13.285  28.594   3.662
24896W        W86317  24.636  28.127   0.324
24897W        W86318   2.913  15.235   2.679
24898W        W86319  23.210  18.778   4.678
24899W        W86320   9.705   4.784   1.848
24900W        W86321   9.331  10.863   3.240
24901W        W86322  18.292  20.257   3.692
24902W        W86323  22.506  28.637  10.529
24903W        W86324  25.557   7.884   1.239
24904W        W86325  13.736  31.510   0.952
24905W        W86326  17.690   4.227  10.455
24906W        W86327  41.331  35.457  14.830
24907W        W86328  33.392  10.794  10.405
24908W        W86329  12.790  37.555  14.797
24909W        W86330   8.194  28.118  13.814
24910W        W86331  11.717  26.572  10.424
24911W        W86332  26.192   9.657   4.708
24912W        W86333  22.046  18.163  13.358
24913W        W86334  29.124  35.857   3.158
24914W        W86335  39.323  15.734  13.431
24915W        W86336  33.613   1.464   3.308
24916W        W86337   4.428   1.447  14.377
24917W        W86338  37.424  31.423  12.089
24918W        W86339   1.282   4.243  12.492
24919W        W86340  44.451  28.530   3.662
24920W        W86341  22.201  35.061  12.893
24921W        W86342  22.627   6.306  13.047
24922W        W86343  44.846  16.166   3.239
24923W        W86344   7.184  10.237   1.741
24924W        W86345  17.613  20.107  14.416
24925W        W86346  39.845  38.332   1.379
24926W        W86347   1.873  43.947  14.910
24927W        W86348  24.206  23.694   1.775
24928W        W86349   9.306  31.031  11.585
24929W        W86350  25.612  22.551   0.841
24930W        W86351   3.804  14.765  14.496
24931W        W86352  24.144  42.473  13.324
24932W        W86353  35.105  40.325   0.885
24933W        W86354   4.738  20.684  12.053
24934W        W86355  29.499  15.175  11.526
24935W        W86356  11.677   7.864   4.751
24936W        W86357  14.126  41.433  14.497
24937W        W86358  44.983  14.828  14.844
24938W        W86359   0.976  27.553  12.427
24939W        W86360  42.815  16.179   1.836
24940W        W86361  43.412  14.225  11.079
24941W        W86362  11.129  40.806  13.059
24942W        W86363   6.906   1.797  12.871
24943W        W86364  43.912  43.801   0.875
24944W        W86365  38.435   7.172  13.902
24945W        W86366  21.703  29.052   2.412
24946W        W86367   3.722   6.766   0.798
24947W        W86368  34.496   1.360  13.509
24948W        W86369   2.344  27.566  11.909
24949W        W86370  38.368  23.535  11.990
24950W        W86371  10.815  29.540   4.776
24951W        W86372   9.320  31.501   2.245
24952W        W86373  15.787   0.882  11.888
24953W        W86374  13.300  36.088  10.504
24954W        W86375  43.784   9.330   0.807
24955W        W86376  21.075   5.380   2.417
24956W        W86377  44.495   4.939   4.610
24957W        W86378  38.036  22.576   0.480
24958W        W86379  30.626  39.542  10.582
24959W        W86380   8.780  14.687   4.643
24960W        W86381  39.981  12.648   5.775
24961W        W86382  27.675  17.183  12.455
24962W        W86383  39.481  15.785   3.719
24963W        W86384  40.808  21.553  10.553
24964W        W86385  25.685  19.741   4.773
24965W        W86386   6.826  39.829   2.706
24966W        W86387  37.400  40.389   0.407
24967W        W86388   3.860  10.185  14.027
24968W        W86389  18.234  43.021   5.217
24969W        W86390  17.748  13.656   2.274
24970W        W86391  12.218  27.462   0.844
24971W        W86392  44.458  20.525  13.313
24972W        W86393   3.358  19.054   4.756
24973W        W86394  27.106  32.497   2.412
24974W        W86395   3.223  29.487  10.581
24975W        W86396   1.285  12.130   1.443
24976W        W86397  29.172   8.313  11.522
24977W        W86398  13.215  26.023  13.896
24978W        W86399  43.770  27.664   1.829
24979W        W86400  32.568  43.906  14.306
24980W        W86401   1.843  27.121   1.891
24981W        W86402  22.709  34.959  11.911
24982W        W86403  43.795   7.182   4.354
24983W        W86404  38.429  44.301   3.646
24984W        W86405  16.760  39.881   2.313
24985W        W86406  23.156   4.335   9.550
24986W        W86407  39.458   7.846   2.878
24987W        W86408   8.718  19.651  12.579
24988W        W86409  38.048  18.198   4.306
24989W        W86410  24.581  35.522   2.384
24990W        W86411  16.122  37.858   2.861
24991W        W86412  33.500  44.919  13.046
24992W        W86413  20.274  26.471   3.660
24993W        W86414  32.635   0.921   3.221
24994W        W86415  28.980   6.262  13.864
24995W        W86416  12.295   2.462  11.999
24996W        W86417   8.406  29.476  14.355
24997W        W86418  29.538  20.536   3.675
24998W        W86419  39.965   2.917   2.253
24999W        W86420  18.618   4.704   5.137
25000W        W86421  38.353  44.451  13.409
25001W        W86422  33.033  18.237  13.980
25002W        W86423  22.032  15.233  13.818
25003W        W86424  21.113  28.032  10.454
25004W        W86425  37.838  20.760  14.967
25005W        W86426  12.802  32.572   1.789
25006W        W86427  27.501  31.557   3.865
25007W        W86428  11.803  14.785   0.477
25008W        W86429  42.421   6.847  11.485
25009W        W86430  39.962  39.952   4.651
25010W        W86431  15.779  37.076   0.277
25011W        W86432  19.152  41.884   0.342
25012W        W86433   4.342  40.053   4.701
25013W        W86434  13.604  30.464  14.321
25014W        W86435  18.735  22.055   1.359
25015W        W86436  41.526   3.924   3.651
25016W        W86437  15.099  23.694  10.429
25017W        W86438  23.226  39.523   3.201
25018W        W86439  28.451   7.704  12.871
25019W        W86440  41.534  34.975  14.312
25020W        W86441  33.423   9.831  10.589
25021W        W86442  42.962   0.433  13.541
25022W        W86443  32.569  39.431   1.773
25023W        W86444  16.687  39.819  10.628
25024W        W86445  29.033   6.294   0.452
25025W        W86446   7.366  37.392   2.809
25026W        W86447  40.391  23.089   4.286
25027W        W86448  40.050  13.173  13.325
25028W        W86449  26.587  19.693   2.893
25029W        W86450  30.451  44.793  14.359
25030W        W86451  30.956  27.670  12.889
25031W        W86452  35.975  16.087   0.344
25032W        W86453  31.927   0.925   2.728
25033W        W86454  35.912  10.142   4.217
25034W        W86455  30.037  42.901  14.503
25035W        W86456  22.509  21.063   4.233
25036W        W86457  34.904  23.616   1.846
25037W        W86458  13.211  18.576   4.120
25038W        W86459  14.204  19.562   4.277
25039W        W86460  25.151  21.124   1.364
25040W        W86461  42.292   9.264  10.953
25041W        W86462  40.356  29.562   3.188
25042W        W86463  23.639  37.422  11.609
25043W        W86464  39.559   4.909   4.604
25044W        W86465  19.667  43.767   0.898
25045W        W86466  13.821  11.699  11.569
25046W        W86467  38.551  10.769   0.285
25047W        W86468  32.622   3.947   0.915
25048W        W86469  43.293  10.856   3.635
25049W        W86470  21.078  19.118  11.606
25050W        W86471  42.848   6.210  13.358
25051W        W86472  10.286  42.824   9.982
25052W        W86473  10.313   3.936   1.328
25053W        W86474  34.512   5.224   3.371
25054W        W86475  11.708   2.895  11.510
25055W        W86476   4.736  44.761  13.353
25056W        W86477  33.400  27.988  12.443
25057W        W86478  12.762  39.831   1.824
25058W        W86479  35.971  33.039  11.504
25059W        W86480  29.561  26.476   5.306
25060W        W86481  37.899  23.001   0.420
25061W        W86482   4.829  36.902  13.434
25062W        W86483  33.968  32.885   2.303
25063W        W86484   3.911   7.408  11.419
25064W        W86485  32.916  19.656   1.861
25065W        W86486  23.235   3.371   0.813
25066W        W86487  40.997  37.015   3.751
25067W        W86488  36.865  18.276  13.884
25068W        W86489  34.996  44.375  14.375
25069W        W86490   6.399  39.916  14.465
25070W        W86491  27.962  14.650   1.890
25071W        W86492  44.999   3.801   2.682
25072W        W86493  19.684  43.448  13.481
25073W        W86494  32.986  14.152  14.318
25074W        W86495  44.455  25.170   3.862
25075W        W86496  27.093   8.808  10.583
25076W        W86497  25.704  26.504   4.612
25077W        W86498  10.864   3.755  12.456
25078W        W86499   7.718  37.053  10.018
25079W        W86500   1.436  34.115   9.591
25080W        W86501  31.484  38.339  13.864
25081W        W86502   1.348  33.509   2.207
25082W        W86503   0.479  18.710  10.582
25083W        W86504  20.716   4.942   4.164
25084W        W86505  18.782   8.759   2.224
25085W        W86506  37.881  20.242  14.960
25086W        W86507  18.266   2.878  12.959
25087W        W86508   6.340  15.611   5.082
25088W        W86509  33.499  36.525  11.507
25089W        W86510  13.810  26.208  14.771
25090W        W86511   3.723  15.743   1.376
25091W        W86512   7.867  15.705   5.292
25092W        W86513  30.957  22.545  12.053
25093W        W86514   6.836   8.325  11.600
25094W        W86515  32.956  20.153  12.896
25095W        W86516  37.830  22.734  11.422
25096W        W86517  13.757  40.432   0.306
25097W        W86518  38.326  39.506   4.255
25098W        W86519   0.264   0.250   4.608
25099W        W86520   7.828  37.918  10.146
25100W        W86521  44.361  25.694   2.229
25101W        W86522  34.441   8.842   1.240
25102W        W86523  28.665  32.505   1.425
25103W        W86524   4.811  12.350  14.948
25104W        W86525  42.016  13.841  14.452
25105W        W86526   7.907   2.937   3.186
25106W        W86527  14.327  14.210   3.833
25107W        W86528  44.343  37.449   4.348
25108W        W86529  14.772  15.769   4.825
25109W        W86530  39.896  35.358  13.064
25110W        W86531  33.403  23.151   9.990
25111W        W86532  26.609  36.561  10.428
25112W        W86533  37.554  36.072  13.830
25113W        W86534   9.238  20.193   2.776
25114W        W86535  25.523   3.820  12.462
25115W        W86536  20.223  42.391   4.250
25116W        W86537  17.145  40.515   5.129
25117W        W86538  37.052   8.235   3.288
25118W        W86539   9.214   1.945   2.864
25119W        W86540  18.260   1.908   4.703
25120W        W86541  42.520  36.005  11.864
25121W        W86542  28.975  13.659  12.413
25122W        W86543  17.616  23.683   1.397
25123W        W86544   3.802  14.177   5.156
25124W        W86545   0.984   6.369  11.518
25125W        W86546   3.818   0.352   4.636
25126W        W86547  12.206  32.048   1.417
25127W        W86548   9.767  23.707   4.197
25128W        W86549  26.971  43.814   2.352
25129W        W86550  28.639  22.151  10.917
25130W        W86551   4.763   0.984  14.965
25131W        W86552  32.618   3.846   0.394
25132W        W86553  24.570   0.329  11.021
25133W        W86554  41.395  16.165   4.695
25134W        W86555  28.435  44.266   4.784
25135W        W86556   5.323  11.860   0.831
25136W        W86557  25.214  12.793   3.820
25137W        W86558  25.522  18.255  13.490
25138W        W86559  15.802   6.202  13.806
25139W        W86560  11.649  24.052  12.429
25140W        W86561  20.769  34.882   0.285
25141W        W86562  28.130  17.259   1.781
25142W        W86563  26.565   8.663   4.708
25143W        W86564  38.884  25.557   2.713
25144W        W86565  20.229   3.827  11.510
25145W        W86566  25.999  29.432   2.192
25146W        W86567  13.249  34.421  12.357
25147W        W86568   7.834  32.392   0.771
25148W        W86569  43.381  44.495  11.890
25149W        W86570  26.106  23.553   1.435
25150W        W86571   3.943  33.047   3.692
25151W        W86572   5.924  26.688   3.630
25152W        W86573  27.604  19.208   4.635
25153W        W86574  11.148  37.456   1.728
25154W        W86575  21.050   9.209  14.301
25155W        W86576  30.083  32.064  14.443
25156W        W86577  39.434  27.661   2.697
25157W        W86578  25.036   6.321   3.319
25158W        W86579   7.275  35.935   3.315
25159W        W86580  41.952  36.412  12.852
25160W        W86581  10.870  26.559  14.900
25161W        W86582  38.551  24.115   3.264
25162W        W86583  36.555  40.872   2.735
25163W        W86584  15.129   8.813  12.866
25164W        W86585   8.751  40.014  11.542
25165W        W86586   7.340  13.717  13.439
25166W        W86587  25.495  38.903   4.184
25167W        W86588   6.329  29.460  14.444
25168W        W86589  37.494   8.690  11.016
25169W        W86590   6.252  36.852   1.833
25170W        W86591   4.913  17.102   0.787
25171W        W86592   8.171  40.399   3.862
25172W        W86593   0.248  30.501   4.690
25173W        W86594   5.215  33.075  11.927
25174W        W86595  14.626  11.777  11.018
25175W        W86596  26.066  21.073   2.785
25176W        W86597  15.696  19.768   2.334
25177W        W86598  23.048  37.414   2.727
25178W        W86599   5.426  38.922  12.473
25179W        W86600   0.339   5.902   3.691
25180W        W86601   5.826  42.027  14.456
25181W        W86602   8.319  20.525   2.234
25182W        W86603  29.103   9.352  10.553
25183W        W86604  43.972  29.557  14.990
25184W        W86605  15.088  14.832  12.420
25185W        W86606   9.297   3.847   4.277
25186W        W86607  24.061   2.426  10.433
25187W        W86608  34.608   2.469  12.049
25188W        W86609  29.454  36.863  14.306
25189W        W86610  34.915  40.955   4.158
25190W        W86611  38.536  11.709  14.452
25191W        W86612   6.695  27.027  14.910
25192W        W86613   6.808  24.073  13.365
25193W        W86614  40.383  30.924   3.196
25194W        W86615  31.999  34.995  10.412
25195W        W86616  17.243  41.974   1.263
25196W        W86617  12.794  12.121  11.011
25197W        W86618   9.372  12.694   5.261
25198W        W86619  29.668  31.123   1.934
25199W        W86620  34.968  24.620   3.813
25200W        W86621  18.212   2.289   0.817
25201W        W86622  34.935  44.864  13.345
25202W        W86623  37.939  13.789   4.797
25203W        W86624  29.582  28.021   2.227
25204W        W86625  13.750  32.080  11.496
25205W        W86626  30.651  40.874   3.786
25206W        W86627  36.875  36.584   3.262
25207W        W86628  11.747  34.606  11.464
25208W        W86629  29.496  41.824  12.936
25209W        W86630  35.077   0.260   0.382
25210W        W86631  36.509  19.226   4.237
25211W        W86632   1.309   4.217  13.524
25212W        W86633  15.095  29.668  11.988
25213W        W86634  36.500   1.341   2.879
25214W        W86635   5.737  13.168  11.117
25215W        W86636  43.292   3.414   2.855
25216W        W86637   2.785  32.472   3.777
25217W        W86638  27.158   2.471   1.266
25218W        W86639  16.729   5.807   0.323
25219W        W86640  25.217  14.788   2.720
25220W        W86641  19.639  44.910  12.979
25221W        W86642  17.693  27.642  13.941
25222W        W86643  34.053  25.499  11.395
25223W        W86644   2.422  26.174   1.779
25224W        W86645  10.194  16.250   3.282
25225W        W86646  39.817   7.894  12.490
25226W        W86647  26.461  22.221   1.399
25227W        W86648  23.141  39.532  12.538
25228W        W86649   6.339  12.742  13.406
25229W        W86650  37.365  19.753  12.550
25230W        W86651  30.596   4.715   1.905
25231W        W86652  23.549  42.962  14.489
25232W        W86653  34.544  30.114   0.785
25233W        W86654  20.715   1.266   0.834
25234W        W86655  30.162  40.994  14.338
25235W        W86656  40.019  15.783   2.861
25236W        W86657  23.681   3.391   4.716
25237W        W86658  32.896  15.103   2.759
25238W        W86659  13.599   8.341  14.341
25239W        W86660  13.210  18.572   2.837
25240W        W86661  16.191  36.510   3.807
25241W        W86662  27.620  24.074  12.359
25242W        W86663  35.860  19.213   2.779
25243W        W86664  13.657  42.355  13.414
25244W        W86665   4.286  20.216  10.936
25245W        W86666  22.642  21.548  11.061
25246W        W86667  14.130  26.084   2.670
25247W        W86668  35.457  21.071  12.069
25248W        W86669  11.146  31.631   0.367
25249W        W86670  35.532   2.380  12.496
25250W        W86671   1.797  28.541   4.217
25251W        W86672  33.109  38.350   2.241
25252W        W86673  43.877  32.021   1.401
25253W        W86674  18.278  19.109  13.863
25254W        W86675  30.963  24.630   2.752
25255W        W86676   5.882  38.488   4.341
25256W        W86677  33.004  29.508   2.856
25257W        W86678  16.808   0.368  13.929
25258W        W86679  12.350  17.625  10.484
25259W        W86680  13.269  41.470   4.170
25260W        W86681  37.450  18.142   3.796
25261W        W86682  24.523  41.826   3.749
25262W        W86683  18.112  42.892   0.305
25263W        W86684  19.071  12.117   2.193
25264W        W86685   9.328  14.109   4.799
25265W        W86686  30.993  15.610   1.318
25266W        W86687  38.846  10.782  10.894
25267W        W86688  27.112  25.705   4.614
25268W        W86689   6.869  14.651  11.407
25269W        W86690  39.809   5.796   2.375
25270W        W86691  35.001  41.006   2.759
25271W        W86692  41.998  15.286   3.363
25272W        W86693  42.816  12.360  11.495
25273W        W86694  24.997  27.121  14.401
25274W        W86695   2.768  39.520   1.270
25275W        W86696  12.149  20.243  14.913
25276W        W86697  39.841   6.393  11.905
25277W        W86698   3.315  27.123  13.798
25278W        W86699  13.146  31.567  13.398
25279W        W86700  39.921  36.952  12.514
25280W        W86701  14.708   4.885   0.871
25281W        W86702  25.694  13.148   0.764
25282W        W86703  15.176  30.937  12.392
25283W        W86704  25.656  42.953  11.442
25284W        W86705  12.279  25.703  14.957
25285W        W86706  31.924   1.356  11.569
25286W        W86707  19.537  20.196   3.216
25287W        W86708  26.963  37.067  11.025
25288W        W86709  27.674  22.602  13.378
25289W        W86710  39.453   2.878   0.767
25290W        W86711  26.045  28.009   2.307
25291W        W86712   6.265  40.483   4.306
25292W        W86713   9.219  24.561  13.329
25293W        W86714   6.365   9.224  14.334
25294W        W86715   4.372  39.916  12.474
25295W        W86716   6.329   0.805  13.911
25296W        W86717  11.839  44.300   2.399
25297W        W86718  19.148   5.215  12.832
25298W        W86719  16.729  22.561  10.560
25299W        W86720  42.452  13.203   2.815
25300W        W86721  30.487  26.627   3.815
25301W        W86722   4.720  41.811   3.686
25302W        W86723  30.046   9.731  12.889
25303W        W86724  44.344  30.497   0.328
25304W        W86725   2.297  15.210   0.888
25305W        W86726  16.095  36.943  14.364
25306W        W86727   8.833  33.036   1.300
25307W        W86728   5.805  29.614  13.373
25308W        W86729   2.374  11.651  14.974
25309W        W86730  38.461  27.172   3.803
25310W        W86731  42.515  13.133   9.672
25311W        W86732  15.821  19.100  11.032
25312W        W86733  33.038  20.099   1.441
25313W        W86734   4.762  40.797   3.722
25314W        W86735  23.100  10.237   3.151
25315W        W86736  17.672  36.005   0.758
25316W        W86737  11.770  30.137  12.847
25317W        W86738  31.050  19.090  14.986
25318W        W86739  28.536   5.838  11.408
25319W        W86740  12.714   2.437   2.797
25320W        W86741  22.065  20.709   1.436
25321W        W86742  32.608  26.973   4.179
25322W        W86743  25.986  24.005   4.715
25323W        W86744  31.107  16.284  11.865
25324W        W86745  23.113   3.222  11.024
25325W        W86746   1.269  28.097   0.757
25326W        W86747  12.821  29.919   3.281
25327W        W86748  14.703  35.865   1.894
25328W        W86749  21.593  40.918  10.911
25329W        W86750   9.699  20.212  10.409
25330W        W86751  12.846  31.534  10.508
25331W        W86752  40.470  28.516   1.696
25332W        W86753  28.166  19.275   0.958
25333W        W86754  35.493  38.974  11.470
25334W        W86755  40.471  32.084   4.219
25335W        W86756   2.284  35.550  11.912
25336W        W86757   9.701  37.063  10.544
25337W        W86758  34.928   6.775   4.732
25338W        W86759   8.378  35.472   1.709
25339W        W86760  42.946  33.122   2.874
25340W        W86761  33.976   0.855   5.179
25341W        W86762  39.919   0.324  12.544
25342W        W86763   7.730  16.760   1.760
25343W        W86764  31.959  11.338   0.298
25344W        W86765   0.304  20.686  11.966
25345W        W86766   1.914   6.810   2.308
25346W        W86767   1.790  25.691   3.650
25347W        W86768  14.232  44.368  12.995
25348W        W86769  15.662  38.874  10.424
25349W        W86770  34.045  11.179   2.277
25350W        W86771  28.025  28.654  13.027
25351W        W86772  37.349   5.741  10.961
25352W        W86773  24.677  35.012  11.124
25353W        W86774  18.222  18.100   1.235
25354W        W86775  21.248   7.398  10.936
25355W        W86776  12.798   6.404  12.922
25356W        W86777  14.128  39.934  10.914
25357W        W86778  13.172  33.900  10.481
25358W        W86779  36.845   7.224  14.938
25359W        W86780  29.027  18.610  14.862
25360W        W86781  21.050  37.538   2.184
25361W        W86782   7.738  41.834   3.699
25362W        W86783  29.593  42.502  13.381
25363W        W86784  30.060  12.803   3.855
25364W        W86785  33.967  39.915  11.060
25365W        W86786   8.880   4.811   3.220
25366W        W86787  14.810  27.448   1.847
25367W        W86788  37.988  35.593   4.759
25368W        W86789  44.378  31.491   1.854
25369W        W86790  22.548  37.909   1.805
25370W        W86791   0.957  28.944  14.968
25371W        W86792  15.190   4.889   1.349
25372W        W86793  12.243   6.757  11.382
25373W        W86794   7.256  13.323   4.242
25374W        W86795  15.150  26.605   3.677
25375W        W86796  35.103   5.740   0.412
25376W        W86797  44.460  10.298  11.436
25377W        W86798  37.998   4.766   2.240
25378W        W86799  44.815  12.735  11.917
25379W        W86800  17.697  21.614  14.983
25380W        W86801  14.753   6.881  11.945
25381W        W86802  43.432  19.138   3.835
25382W        W86803  32.077  10.153   4.829
25383W        W86804  16.566  43.807  11.008
25384W        W86805  43.921  17.303   1.349
25385W        W86806  12.752  22.176   2.860
25386W        W86807  41.395  30.021  14.921
25387W        W86808  17.598  27.947   4.651
25388W        W86809  27.684  30.991   4.765
25389W        W86810  30.630  31.617  13.886
25390W        W86811  16.686   2.306  13.415
25391W        W86812  19.745  31.939   3.853
25392W        W86813  31.121  16.627  12.447
25393W        W86814   1.475  16.795  14.837
25394W        W86815  27.544  28.606  12.002
25395W        W86816  16.796  27.605  13.838
25396W        W86817  17.281  30.157   4.706
25397W        W86818   1.268  37.893  13.429
25398W        W86819   2.762   1.374  12.406
25399W        W86820  14.169  25.638  12.566
25400W        W86821  41.313  33.461   2.734
25401W        W86822   2.319  13.752   1.848
25402W        W86823  22.651  11.707   9.940
25403W        W86824   3.936  13.787   4.263
25404W        W86825  21.205  19.208  12.553
25405W        W86826  18.272  15.787   2.701
25406W        W86827  39.855  42.387   0.870
25407W        W86828   3.267  27.032  14.402
25408W        W86829  42.817  13.733   0.279
25409W        W86830  12.742  12.759   4.746
25410W        W86831  12.793  32.939   4.679
25411W        W86832  22.626  32.115   0.410
25412W        W86833   9.393  37.556  11.393
25413W        W86834   3.932  17.246  13.014
25414W        W86835  26.557   9.158   4.606
25415W        W86836  26.146   8.851  13.527
25416W        W86837   7.717  27.052  11.454
25417W        W86838  29.451  17.691  11.918
25418W        W86839   5.265   3.790   1.778
25419W        W86840  31.128   0.492  14.826
25420W        W86841  17.065  17.149   1.717
25421W        W86842   3.335  37.866  12.501
25422W        W86843  35.887  24.560  14.895
25423W        W86844  43.837  12.765   2.784
25424W        W86845   6.354   1.284   4.327
25425W        W86846  37.935   4.295  12.515
25426W        W86847   4.828  20.217   0.308
25427W        W86848  37.050  13.163  14.321
25428W        W86849  26.019  31.064  14.789
25429W        W86850  35.965  41.833   3.246
25430W        W86851   7.211  21.595  14.809
25431W        W86852  15.581  30.547   3.752
25432W        W86853  22.556   3.935   2.258
25433W        W86854  36.386  12.224  12.023
25434W        W86855  43.404   0.953   4.279
25435W        W86856  19.075  44.843  10.590
25436W        W86857   6.753  19.621   2.870
25437W        W86858   3.784   8.252  11.924
25438W        W86859  10.695   2.393  14.023
25439W        W86860   6.338  26.648   4.661
25440W        W86861   7.672  25.593   4.626
25441W        W86862   4.380  20.162   4.123
25442W        W86863   8.663   0.409   4.791
25443W        W86864  38.386  41.884   4.671
25444W        W86865   8.253   1.344  11.475
25445W        W86866  22.059  12.679  13.880
25446W        W86867   3.344  18.560   0.459
25447W        W86868   4.261  23.717  12.014
25448W        W86869  22.018  17.679  13.949
25449W        W86870   0.868  39.863   4.285
25450W        W86871  25.093   8.261  11.005
25451W        W86872  25.058  10.749   2.197
25452W        W86873  25.626  24.018   1.913
25453W        W86874  37.972   0.791  14.806
25454W        W86875  44.486   5.407   0.791
25455W        W86876  27.116   6.736   2.821
25456W        W86877   4.749   4.942  14.895
25457W        W86878  14.168  22.732  10.527
25458W        W86879  40.501  28.638  14.458
25459W        W86880  35.514  44.809  11.926
25460W        W86881  20.158   0.431   3.158
25461W        W86882  21.172  10.772  10.631
25462W        W86883  23.166  21.618   1.435
25463W        W86884  40.422  30.123   3.804
25464W        W86885  35.993  14.820   1.289
25465W        W86886  23.019   4.220  10.161
25466W        W86887  20.180   3.815  14.355
25467W        W86888  11.812  38.857   1.408
25468W        W86889  16.586  37.385  13.402
25469W        W86890   4.745  40.990   0.916
25470W        W86891  24.202  43.891   3.642
25471W        W86892   4.819  40.836  11.089
25472W        W86893   5.733  24.058  13.872
25473W        W86894  36.522  19.599   3.283
25474W        W86895  30.925  19.588  11.999
25475W        W86896  34.939  26.031  13.977
25476W        W86897  32.401   7.347   0.810
25477W        W86898  21.717   9.822   3.672
25478W        W86899  24.625  31.495   3.729
25479W        W86900   7.326  42.922  11.974
25480W        W86901   1.447  15.190  13.918
25481W        W86902  28.588  19.684   0.814
25482W        W86903  36.396  24.576  14.011
25483W        W86904   6.819   2.898  13.898
25484W        W86905   2.457  28.646  13.336
25485W        W86906  43.885  17.648  13.344
25486W        W86907  13.686  10.688   0.812
25487W        W86908  24.546   5.384  14.999
25488W        W86909  15.268  27.662   1.279
25489W        W86910  22.595   7.287  12.375
25490W        W86911  30.908  14.710   5.766
25491W        W86912   5.393   4.376   3.380
25492W        W86913  24.705   9.267   0.871
25493W        W86914  15.115  11.642   1.384
25494W        W86915  29.045  32.887   4.248
25495W        W86916  39.442  20.220   3.320
25496W        W86917  33.079  12.188   0.416
25497W        W86918  30.125  39.320  14.954
25498W        W86919  44.314  24.025   3.776
25499W        W86920  10.741  42.806   3.206
25500W        W86921  14.333  29.590  11.939
25501W        W86922  15.625  26.122   4.823
25502W        W86923   1.749   3.433  11.941
25503W        W86924  33.520  42.999  13.902
25504W        W86925  16.304  29.016  11.033
25505W        W86926  14.818  19.658  13.982
25506W        W86927  42.440  42.797   2.829
25507W        W86928  13.264  25.039  10.548
25508W        W86929  42.847  12.797   2.838
25509W        W86930  21.239  39.452  12.547
25510W        W86931  41.911  25.579  13.897
25511W        W86932  27.032  16.173   2.900
25512W        W86933  37.358  38.485  11.442
25513W        W86934  14.767  18.611  12.454
25514W        W86935   1.476   7.786  10.992
25515W        W86936  42.013  28.643   2.354
25516W        W86937  27.659  38.073   2.901
25517W        W86938   0.873  13.225   3.169
25518W        W86939  22.170  21.645  14.333
25519W        W86940  20.652  32.417   2.677
25520W        W86941  21.137  38.058   0.471
25521W        W86942  30.013  10.659   2.884
25522W        W86943  37.908   4.808  14.971
25523W        W86944  19.211  14.751   1.404
25524W        W86945  19.227  30.976   1.773
25525W        W86946  33.513  13.316  10.445
25526W        W86947  38.372  14.335  14.493
25527W        W86948  14.700  28.059   2.717
25528W        W86949   5.751  43.315  14.929
25529W        W86950   7.777   2.771  13.350
25530W        W86951   2.875  10.327   3.727
25531W        W86952  35.474  39.499   2.884
25532W        W86953   2.413  28.048  13.439
25533W        W86954  10.777  24.991  10.618
25534W        W86955   4.820  32.469  14.381
25535W        W86956  35.391  15.646  12.534
25536W        W86957  19.063  21.122   4.624
25537W        W86958  16.189  30.433   1.833
25538W        W86959  14.288  14.292  11.495
25539W        W86960  22.014  26.032   1.877
25540W        W86961   8.295  42.867   1.769
25541W        W86962  41.405   4.221   0.278
25542W        W86963  26.130  43.782  12.010
25543W        W86964  43.299  37.504  10.487
25544W        W86965  42.951   4.446  13.852
25545W        W86966   6.209  40.857   2.778
25546W        W86967  23.213  44.821   4.229
25547W        W86968  28.600  21.568   1.771
25548W        W86969  32.539  28.136   1.408
25549W        W86970  10.308  13.832  10.489
25550W        W86971  30.932  40.031   1.800
25551W        W86972   0.321  34.404   0.384
25552W        W86973  10.705  35.001   0.476
25553W        W86974  35.883  29.150   1.259
25554W        W86975  17.200  26.078   0.755
25555W        W86976  22.609  29.158   3.149
25556W        W86977  40.036  43.462  12.066
25557W        W86978  30.563   9.388  11.507
25558W        W86979  33.525   9.805  12.490
25559W        W86980  21.196  42.445  12.392
25560W        W86981  16.665   7.382   1.355
25561W        W86982  30.442  10.176   4.125
25562W        W86983  15.169  23.729   1.756
25563W        W86984  44.893   6.684   2.294
25564W        W86985   6.285  30.616   2.322
25565W        W86986  22.213  29.567   4.776
25566W        W86987  44.004  26.141  11.447
25567W        W86988  39.317  41.974  11.488
25568W        W86989  43.774  25.159  14.487
25569W        W86990   1.959  11.733  10.971
25570W        W86991  41.838  33.947  11.384
25571W        W86992  22.099  20.259   0.305
25572W        W86993  22.093   3.919   4.829
25573W        W86994  26.168  13.204  12.873
25574W        W86995   2.233   9.805   0.784
25575W        W86996  28.053  30.529  14.010
25576W        W86997  27.116  33.426   4.139
25577W        W86998   5.359   9.769  14.888
25578W        W86999  41.458  18.664   3.794
25579W        W87000  23.685   0.256   0.456
25580W        W87001  14.651  22.727  12.930
25581W        W87002  44.835  13.332   1.236
25582W        W87003  11.660   1.867  11.024
25583W        W87004  17.758  28.577   2.360
25584W        W87005  24.478  11.371   2.758
25585W        W87006  31.628  21.083   2.364
25586W        W87007  16.744  38.361   0.754
25587W        W87008   8.869  20.127   0.376
25588W        W87009  37.357  19.234   0.818
25589W        W87010  38.536  15.172   0.789
25590W        W87011  17.301  44.758  14.493
25591W        W87012  30.504  29.441  13.974
25592W        W87013   9.682  41.888  10.916
25593W        W87014  17.679  19.155   4.641
25594W        W87015  28.644  39.358  14.311
25595W        W87016  20.763   6.823   0.826
25596W        W87017  44.894  28.080  11.110
25597W        W87018  37.888  43.341   1.414
25598W        W87019  25.637  28.164  14.305
25599W        W87020  42.784   7.335  12.404
25600W        W87021   6.327   9.737  12.895
25601W        W87022  31.934  23.018  13.481
25602W        W87023  21.741   7.808   2.896
25603W        W87024  42.839   3.253  10.917
25604W        W87025  43.359  21.236   4.202
25605W        W87026  42.421  27.588  14.996
25606W        W87027  17.161  20.138   0.881
25607W        W87028   6.891  35.560   3.353
25608W        W87029  24.990  37.363   1.221
25609W        W87030   2.360  17.132   1.742
25610W        W87031  30.007  20.265   3.340
25611W        W87032  40.385  30.585   4.672
25612W        W87033  15.085  14.286   3.766
25613W        W87034  20.128  25.612  11.609
25614W        W87035  18.153  10.262  13.949
25615W        W87036  18.676   9.749  14.498
25616W        W87037  29.156  32.126  14.376
25617W        W87038   1.385   7.787  13.053
25618W        W87039  26.052  25.570  11.865
25619W        W87040  29.145  10.875  13.865
25620W        W87041   7.344  33.056  13.441
25621W        W87042  36.025  25.132   3.270
25622W        W87043  39.383  15.611   4.714
25623W        W87044  27.660   4.432   4.141
25624W        W87045  41.385  35.519  13.005
25625W        W87046  34.539  24.048   2.382
25626W        W87047  23.997  32.898   2.316
25627W        W87048  14.813  30.003  14.917
25628W        W87049  41.949  31.914   2.675
25629W        W87050  10.218   3.749   3.781
25630W        W87051  31.946   4.722  11.996
25631W        W87052  19.569  26.520   0.435
25632W        W87053  34.981  32.537   3.290
25633W        W87054  34.506   3.230  12.900
25634W        W87055  15.749   1.935   2.191
25635W        W87056  36.865  34.500  10.573
25636W        W87057  22.076  20.120   2.221
25637W        W87058  43.416  12.316   2.841
25638W        W87059  29.067  24.003   0.429
25639W        W87060  37.378   6.728   0.436
25640W        W87061  28.097  27.174  10.628
25641W        W87062  32.104  15.174   1.861
25642W        W87063  36.575  14.174  11.514
25643W        W87064  17.725  22.252   0.934
25644W        W87065   0.817  39.409   4.354
25645W        W87066  36.094  19.659   1.933
25646W        W87067  35.373   8.718   2.229
25647W        W87068  27.547  20.625   1.222
25648W        W87069  14.790  42.799   4.815
25649W        W87070  38.361  23.225   1.402
25650W        W87071  42.909   7.879   3.630
25651W        W87072  13.829  31.047  11.967
25652W        W87073  24.708  14.737   0.337
25653W        W87074  34.391  43.295  12.361
25654W        W87075  25.699   6.407   4.329
25655W        W87076  15.241  38.046   4.339
25656W        W87077  19.138  22.665  13.006
25657W        W87078  33.487  23.198  10.441
25658W        W87079   9.680  26.127  14.788
25659W        W87080   6.704  12.756  13.322
25660W        W87081  44.495  31.082   0.272
25661W        W87082  41.995  15.674  13.791
25662W        W87083   9.308  37.420  13.044
25663W        W87084   7.784  10.714   3.649
25664W        W87085  14.209  23.548  13.360
25665W        W87086  28.594  20.207   2.702
25666W        W87087  36.853  27.957  14.502
25667W        W87088  33.390  33.489   0.303
25668W        W87089  30.589  33.082   2.708
25669W        W87090  28.179  12.235   4.748
25670W        W87091   1.966  44.974  13.465
25671W        W87092  35.361  40.381   1.772
25672W        W87093  44.920   0.304  14.947
25673W        W87094  24.549  10.256  14.345
25674W        W87095  44.484   4.726  11.581
25675W        W87096   1.372   3.833  12.482
25676W        W87097   6.227  18.185  11.408
25677W        W87098  30.486  20.543  13.871
25678W        W87099   4.299  15.274   0.321
25679W        W87100   7.853  24.056   3.333
25680W        W87101  33.615  43.849  11.535
25681W        W87102   6.231  34.933  10.057
25682W        W87103  30.164   2.793   4.736
25683W        W87104   4.779   6.829   4.345
25684W        W87105  26.100  16.591   1.814
25685W        W87106  13.200  17.076  13.809
25686W        W87107  39.859  30.924   0.741
25687W        W87108  36.017  23.022  11.590
25688W        W87109  36.528  43.801   1.246
25689W        W87110  20.105   0.910  11.018
25690W        W87111  10.652  41.502   9.629
25691W        W87112   0.920   0.933  13.366
25692W        W87113  37.831  37.022  10.549
25693W        W87114  28.135  28.481   2.186
25694W        W87115  17.742  34.071   2.316
25695W        W87116  28.124   0.955   2.675
25696W        W87117  16.211  14.766  12.415
25697W        W87118  22.682  44.394  13.041
25698W        W87119  12.299  25.517   4.115
25699W        W87120  11.181  26.505   3.775
25700W        W87121  12.298  26.164  13.428
25701W        W87122  38.955  41.340  13.989
25702W        W87123  26.150  33.502  14.829
25703W        W87124  41.847   6.882  13.410
25704W        W87125  19.180   6.900  13.937
25705W        W87126  21.747  27.673  12.015
25706W        W87127   7.325  14.777  11.916
25707W        W87128  37.900   6.294   2.862
25708W        W87129  17.173  23.602  11.067
25709W        W87130  27.675  42.848   1.760
25710W        W87131  10.144  39.439  14.810
25711W        W87132  41.826  28.073   3.322
25712W        W87133  33.484  12.193  13.850
25713W        W87134   6.906   8.897   1.874
25714W        W87135  20.685  26.683  10.929
25715W        W87136   8.346  27.620   0.349
25716W        W87137  25.612  41.505   0.965
25717W        W87138  29.466  34.400   3.150
25718W        W87139   2.379  41.000  13.985
25719W        W87140  28.481  29.488   3.685
25720W        W87141  38.069  31.529  14.278
25721W        W87142  29.462  41.301  11.590
25722W        W87143  40.533  18.261   3.223
25723W        W87144   2.304   8.267  12.059
25724W        W87145  26.493  38.434  11.419
25725W        W87146  43.443  23.030   0.818
25726W        W87147   2.915   0.293   4.707
25727W        W87148   1.751  20.635  10.525
25728W        W87149  30.650  31.113  13.025
25729W        W87150  27.658   8.193  14.938
25730W        W87151  24.555  24.056   2.226
25731W        W87152  34.959  30.536  11.058
25732W        W87153  32.888  19.779  12.970
25733W        W87154  27.008  34.522  14.985
25734W        W87155   3.327   3.912   0.399
25735W        W87156  26.980   9.776  14.321
25736W        W87157  14.320  23.183   0.271
25737W        W87158  28.513  38.540   2.197
25738W        W87159  35.933  23.592  11.425
25739W        W87160   3.322  21.088   1.235
25740W        W87161  28.583   3.384   2.380
25741W        W87162  29.489  22.610   4.306
25742W        W87163   6.869   0.938  12.479
25743W        W87164  36.458  34.553   0.858
25744W        W87165  28.058  23.155   2.344
25745W        W87166  39.919   8.200  11.932
25746W        W87167   8.769  18.554   3.771
25747W        W87168  12.176  28.178  14.349
25748W        W87169   4.868   5.268   2.692
25749W        W87170  26.631   5.347   2.901
25750W        W87171  15.224  17.594  12.001
25751W        W87172   4.698   5.389  11.971
25752W        W87173   0.344  19.602   1.417
25753W        W87174   6.302  24.066  10.634
25754W        W87175  29.118  42.437   0.840
25755W        W87176  39.901  43.284  10.575
25756W        W87177  21.582  37.525  11.385
25757W        W87178  38.058  40.426   0.922
25758W        W87179  23.594  13.778   2.219
25759W        W87180  25.207  37.993  11.499
25760W        W87181  22.715  26.489  13.321
25761W        W87182  21.552  13.108   0.835
25762W        W87183  22.045  10.771   3.352
25763W        W87184  24.075  13.118  14.923
25764W        W87185  38.060  43.794  14.513
25765W        W87186  34.494  43.321   3.357
25766W        W87187   0.933  44.896   2.670
25767W        W87188  44.487  33.031  13.419
25768W        W87189  33.121  21.710  14.888
25769W        W87190  35.581  37.024   4.220
25770W        W87191   2.839   2.770   0.442
25771W        W87192   1.312   9.295  11.597
25772W        W87193  30.105  29.144  10.904
25773W        W87194   1.928  34.590  14.864
25774W        W87195  42.943  25.687  12.953
25775W        W87196  22.240  40.969   1.697
25776W        W87197  36.501  38.843  11.070
25777W        W87198  29.990  18.581  10.499
25778W        W87199  17.598  13.812  14.475
25779W        W87200  21.055  32.520   1.863
25780W        W87201  37.366   7.275   1.752
25781W        W87202  44.390   7.249   2.763
25782W        W87203   3.736   0.330  14.763
25783W        W87204  42.350  12.815  10.486
25784W        W87205   8.339  43.949   2.385
25785W        W87206  44.270   4.242   2.841
25786W        W87207  37.433  15.119  13.426
25787W        W87208  12.261   0.453   0.465
25788W        W87209  40.920  10.258   3.201
25789W        W87210  40.500  21.745   2.290
25790W        W87211  36.971  18.258  12.978
25791W        W87212   7.792   3.238   4.793
25792W        W87213  44.454  18.129   2.339
25793W        W87214  30.537  42.493  14.887
25794W        W87215   9.704  26.989   0.262
25795W        W87216  19.241   1.907  14.873
25796W        W87217  42.342  21.248   4.635
25797W        W87218  36.044  34.401   2.879
25798W        W87219  15.095  33.097  14.888
25799W        W87220  12.283  31.612   2.364
25800W        W87221  30.098  38.019  14.970
25801W        W87222  29.074  11.274  11.987
25802W        W87223  13.112  39.981  11.393
25803W        W87224  31.443  14.824   5.137
25804W        W87225  11.356  16.136  14.027
25805W        W87226   6.193  26.045   4.164
25806W        W87227  32.514   6.833  14.761
25807W        W87228  27.071  34.528  11.999
25808W        W87229  26.465  23.674  13.826
25809W        W87230  26.071  13.209   2.707
25810W        W87231  22.213  42.510  12.563
25811W        W87232  42.481  10.799  10.978
25812W        W87233  16.190  41.446   0.473
25813W        W87234  34.373  35.595   2.822
25814W        W87235  15.102  18.648  14.909
25815W        W87236   5.429  19.229   2.694
25816W        W87237  32.047  37.572  11.580
25817W        W87238  41.343  14.201   1.834
25818W        W87239   7.688  14.689   3.630
25819W        W87240  39.351  24.666  11.089
25820W        W87241   9.764  18.697  11.968
25821W        W87242  39.949   7.218   0.948
25822W        W87243   9.825  14.279   3.336
25823W        W87244  15.595  29.529  14.348
25824W        W87245  27.196  27.095  14.459
25825W        W87246  39.975  15.671  11.559
25826W        W87247  42.408  42.850   3.378
25827W        W87248   4.893  44.417   4.119
25828W        W87249   0.875  22.051   4.698
25829W        W87250  39.430   4.427   1.705
25830W        W87251  43.975  20.758   1.316
25831W        W87252  29.123  43.984  13.311
25832W        W87253  44.283  19.045   1.242
25833W        W87254  26.014  24.127   3.693
25834W        W87255  23.096  40.831   3.742
25835W        W87256  24.983  28.029   0.369
25836W        W87257  33.500  15.631  13.468
25837W        W87258  16.157  27.686   2.238
25838W        W87259  31.044  41.863   2.721
25839W        W87260   9.859  43.903   3.780
25840W        W87261  23.009  40.479   3.863
25841W        W87262   9.680  36.480  13.379
25842W        W87263  34.005   1.801   1.447
25843W        W87264  14.622   9.160   3.727
25844W        W87265  17.632  37.515   2.250
25845W        W87266   2.265  19.682   3.169
25846W        W87267  37.889  42.905   3.846
25847W        W87268  37.086  36.866   2.731
25848W        W87269  20.069  31.569   1.339
25849W        W87270  31.597  20.257  11.561
25850W        W87271   3.297  41.302   1.398
25851W        W87272  11.157  11.867  10.442
25852W        W87273  37.340  31.946   5.210
25853W        W87274  14.144  17.136   1.385
25854W        W87275  12.734  17.129  10.443
25855W        W87276  25.135  37.038  12.016
25856W        W87277  16.235  16.110   3.718
25857W        W87278  15.088  42.977  13.396
25858W        W87279  30.071  38.959   1.825
25859W        W87280  27.555  19.661  13.317
25860W        W87281  25.963  23.064  10.523
25861W        W87282  26.498  13.110   1.371
25862W        W87283   0.810  43.445   4.749
25863W        W87284  34.582  25.107   0.811
25864W        W87285  29.079   9.296   1.226
25865W        W87286  28.063  15.193  10.456
25866W        W87287  44.294  23.631  12.033
25867W        W87288   1.859  13.137  11.019
25868W        W87289   6.880  14.753   0.349
25869W        W87290  42.899  12.820   3.354
25870W        W87291   9.841  28.523  11.430
25871W        W87292  26.052  22.252   2.731
25872W        W87293  14.734  17.614   1.787
25873W        W87294  27.514   2.926   4.678
25874W        W87295  29.074  30.082   2.384
25875W        W87296  34.889  41.473  11.046
25876W        W87297   3.756  37.960   3.227
25877W        W87298  40.435  18.731  10.065
25878W        W87299  29.004  13.213  12.987
25879W        W87300  22.505   0.350  10.060
25880W        W87301   9.263  30.908  14.416
25881W        W87302  41.890  13.225   0.408
25882W        W87303  40.994  15.780  12.966
25883W        W87304  39.980  24.715  12.450
25884W        W87305   6.870   1.358   5.200
25885W        W87306   8.288  10.228  14.957
25886W        W87307  15.774  29.425  13.972
25887W        W87308  12.677  11.240  12.417
25888W        W87309  44.459  12.280   4.664
25889W        W87310  44.487  31.930  12.847
25890W        W87311  12.253  33.420  14.834
25891W        W87312   3.245   9.761   1.878
25892W        W87313   6.353  28.962   1.702
25893W        W87314  39.940  21.200  12.956
25894W        W87315  38.429  14.237  12.378
25895W        W87316  30.016  31.429  12.414
25896W        W87317   3.327  43.019  11.375
25897W        W87318   1.749  41.942   0.933
25898W        W87319   7.269  33.920  12.087
25899W        W87320   5.691   9.305  14.362
25900W        W87321   4.347  23.995   2.258
25901W        W87322  43.012  29.599  10.955
25902W        W87323  35.419  22.568   4.200
25903W        W87324  42.337  39.822  14.032
25904W        W87325  30.573  23.586  10.417
25905W        W87326   8.854  41.806   3.788
25906W        W87327  26.690   1.870   5.235
25907W        W87328   8.310  28.642  10.465
25908W        W87329  22.102  24.215  11.003
25909W        W87330  41.302  10.859  10.415
25910W        W87331  28.509  11.141   2.414
25911W        W87332  12.197  10.700   3.231
25912W        W87333  27.657  27.660   2.780
25913W        W87334  30.434  13.693   0.818
25914W        W87335  44.903  18.050   3.205
25915W        W87336  14.298  28.642  12.069
25916W        W87337   1.894  13.816  14.988
25917W        W87338  19.598  43.272   3.386
25918W        W87339  32.031  34.424  13.862
25919W        W87340  39.527  42.793   4.801
25920W        W87341  32.482  41.033   0.778
25921W        W87342  31.532  40.402   0.853
25922W        W87343   8.368  39.389  14.879
25923W        W87344  18.721  35.369   2.179
25924W        W87345  27.620  31.647  11.972
25925W        W87346  32.587   8.282   3.750
25926W        W87347  42.807  21.244   0.408
25927W        W87348  13.288  28.575  13.520
25928W        W87349   9.843  24.487  12.039
25929W        W87350  37.347  39.354   0.727
25930W        W87351  11.765  32.430  11.601
25931W        W87352  12.631   9.826   3.708
25932W        W87353  14.621  40.994   1.840
25933W        W87354  29.956  12.133   3.161
25934W        W87355  35.876  11.213   2.320
25935W        W87356  13.768  19.539   2.771
25936W        W87357  14.205   9.840  11.605
25937W        W87358  15.314  30.151   3.766
25938W        W87359  16.784  24.206   2.333
25939W        W87360  33.119  26.463  10.424
25940W        W87361  36.430  12.163   3.709
25941W        W87362  13.662  27.991   0.966
25942W        W87363  44.429  43.993   0.343
25943W        W87364  37.401  28.159  11.875
25944W        W87365  36.540  43.765   4.606
25945W        W87366  19.637  38.819  14.503
25946W        W87367  29.974  43.432   4.796
25947W        W87368  36.851  21.060  12.560
25948W        W87369  39.452  44.875   3.751
25949W        W87370   5.346   7.677   0.911
25950W        W87371  36.962  28.489  13.876
25951W        W87372   0.467  34.090   4.241
25952W        W87373  41.361  34.040  11.037
25953W        W87374  22.231  15.197  10.531
25954W        W87375  42.494  41.490   4.281
25955W        W87376  20.594  24.566  13.387
25956W        W87377  36.385   8.774  12.995
25957W        W87378  15.748  13.645  12.340
25958W        W87379  19.577   0.978  11.871
25959W        W87380  28.053  36.046   2.220
25960W        W87381  25.146   1.283   3.776
25961W        W87382  22.205  30.558   0.897
25962W        W87383  27.595   6.185   3.335
25963W        W87384  15.267   9.317  12.043
25964W        W87385  35.937  39.541  13.002
25965W        W87386  14.198  21.751   4.632
25966W        W87387   7.330  36.960  13.504
25967W        W87388  12.176   3.449  12.843
25968W        W87389  17.697  44.452   0.307
25969W        W87390  43.980  35.942   3.791
25970W        W87391  41.537  15.254   4.126
25971W        W87392   2.784   5.384   1.446
25972W        W87393  43.503   9.730   1.335
25973W        W87394   6.402  16.735   4.131
25974W        W87395  17.219  34.464   1.220
25975W        W87396  11.743  31.621  14.332
25976W        W87397   5.313  25.606  11.579
25977W        W87398  16.213  11.178   4.716
25978W        W87399  33.474  22.745  10.596
25979W        W87400  18.278  39.445   1.755
25980W        W87401   2.261   7.261   1.337
25981W        W87402   7.853   4.345   2.891
25982W        W87403  11.646  40.981   3.649
25983W        W87404   5.295  27.116  10.580
25984W        W87405   4.206  40.427   4.800
25985W        W87406   8.844  19.686  11.481
25986W        W87407  28.524  24.007  10.513
25987W        W87408  35.455  24.048  14.504
25988W        W87409  19.049  29.647  14.351
25989W        W87410   3.847   5.339  12.032
25990W        W87411  28.178  39.922  13.980
25991W        W87412  12.315  34.068   1.226
25992W        W87413  19.693  15.599  12.941
25993W        W87414  40.406  33.501  10.093
25994W        W87415  12.128  14.670   4.317
25995W        W87416  29.554   2.443  13.357
25996W        W87417  24.973  40.488   3.185
25997W        W87418   3.888  32.587   1.423
25998W        W87419   5.406  21.028  12.046
25999W        W87420  11.306  28.944   3.778
26000W        W87421   5.693  20.524  10.533
26001W        W87422   1.443  10.639  14.322
26002W        W87423  20.196  31.505  12.442
26003W        W87424  29.071  43.365   4.682
26004W        W87425  12.223  33.525   3.182
26005W        W87426  31.092  39.389   0.908
26006W        W87427  14.324  23.561   3.385
26007W        W87428  14.266  24.100  14.764
26008W        W87429  12.629  20.052   3.273
26009W        W87430  18.218  25.135   3.690
26010W        W87431  30.129   4.205  12.410
26011W        W87432  36.028  44.760   4.279
26012W        W87433   6.685   1.299   2.813
26013W        W87434  22.652  40.833  12.857
26014W        W87435  41.802  38.464   4.612
26015W        W87436  31.503  42.364  14.412
26016W        W87437   7.694  12.231  10.536
26017W        W87438  25.151  23.623  11.917
26018W        W87439  40.820  21.600  10.974
26019W        W87440  23.233  22.107  11.990
26020W        W87441   1.303  35.878   1.376
26021W        W87442  34.515  40.418   3.813
26022W        W87443  18.604   3.932  13.398
26023W        W87444   4.286   1.304   1.276
26024W        W87445  40.547  15.621  12.091
26025W        W87446  44.900  37.858   4.739
26026W        W87447  37.978  29.944   3.719
26027W        W87448   0.945  33.097  12.030
26028W        W87449  44.758  12.303  13.500
26029W        W87450  33.129  42.317   2.841
26030W        W87451  38.531  10.166   1.267
26031W        W87452  10.812  42.516  11.446
26032W        W87453  15.161  32.419  14.835
26033W        W87454  23.728  34.582  11.966
26034W        W87455  31.576  19.675   1.893
26035W        W87456  42.939  33.456   4.255
26036W        W87457  27.510  35.878   0.955
26037W        W87458  42.342   9.388   2.374
26038W        W87459  12.334  28.610   3.787
26039W        W87460  18.154  42.452  14.434
26040W        W87461  32.605  33.918  10.466
26041W        W87462  21.128  18.282  11.977
26042W        W87463  10.704  29.014  13.892
26043W        W87464  29.512  29.468  14.844
26044W        W87465  42.841  11.803  12.850
26045W        W87466  41.917  37.058   1.327
26046W        W87467  17.210  18.188  14.448
26047W        W87468   7.698  30.051  14.288
26048W        W87469   5.362   9.269  10.607
26049W        W87470   0.863  19.270  13.791
26050W        W87471   7.812   5.382  11.498
26051W        W87472   4.938  22.995   3.657
26052W        W87473   2.405   9.678  11.411
26053W        W87474  42.465   9.230  11.879
26054W        W87475  12.659  25.037   0.849
26055W        W87476   3.903  27.067   4.750
26056W        W87477  19.210  41.825   0.809
26057W        W87478  20.701  19.730  13.851
26058W        W87479  29.065  11.175  11.463
26059W        W87480  42.315  44.840  12.895
26060W        W87481  38.374  24.189  14.792
26061W        W87482  23.231   9.324   2.299
26062W        W87483  10.249  41.893   0.458
26063W        W87484   7.910  38.490   4.196
26064W        W87485  34.117  39.429  10.975
26065W        W87486  37.847  40.481   4.705
26066W        W87487  27.974  33.427   1.428
26067W        W87488  44.836  31.542   2.728
26068W        W87489  39.900  16.090   1.377
26069W        W87490  24.222  44.424   4.292
26070W        W87491  28.987  31.621  13.845
26071W        W87492   9.875  16.223  12.940
26072W        W87493  34.436   2.765   4.261
26073W        W87494  21.620  42.351  10.457
26074W        W87495  35.981   6.921   2.891
26075W        W87496  27.993  35.107   3.166
26076W        W87497  44.828   8.801  10.428
26077W        W87498  31.952   5.239  11.026
26078W        W87499  22.238   7.880   1.870
26079W        W87500  34.090  12.133   4.737
26080W        W87501  20.253   2.411  10.981
26081W        W87502   0.302  32.003   3.803
26082W        W87503  23.576  27.532   4.176
26083W        W87504  19.644   6.279   5.232
26084W        W87505   4.212  35.510  12.515
26085W        W87506  10.206  38.007   0.391
26086W        W87507  37.407  16.597   4.164
26087W        W87508   6.341  40.351   2.305
26088W        W87509  29.991   0.844   4.662
26089W        W87510  21.261   8.281   3.316
26090W        W87511  24.014   6.847   4.813
26091W        W87512   6.281  41.411  11.406
26092W        W87513   5.439  44.918   3.721
26093W        W87514  18.056   2.377  10.489
26094W        W87515  36.564  44.445   2.275
26095W        W87516  43.772  10.846   4.687
26096W        W87517  18.699  42.833  12.508
26097W        W87518  28.026  16.657   2.258
26098W        W87519  41.349  12.320  10.550
26099W        W87520  16.808   2.861  14.932
26100W        W87521  20.199  20.543   0.330
26101W        W87522  13.790   9.239  14.877
26102W        W87523   2.280  11.218   3.329
26103W        W87524   7.353  18.268  11.935
26104W        W87525  31.648  33.613   3.158
26105W        W87526   5.268  10.247  10.455
26106W        W87527  27.093  10.377  13.990
26107W        W87528  13.712  35.412   0.319
26108W        W87529  38.985  44.276   2.676
26109W        W87530  20.754  29.663  11.107
26110W        W87531  39.435  35.592   2.692
26111W        W87532  17.108  43.986   3.364
26112W        W87533  37.023  20.575  12.468
26113W        W87534  14.736  43.296  10.486
26114W        W87535  25.508  24.509   4.792
26115W        W87536  12.635  10.757   1.361
26116W        W87537  41.833  25.534  14.928
26117W        W87538  38.466   2.864  12.958
26118W        W87539  43.953  36.436   0.399
26119W        W87540  11.324  34.383   0.954
26120W        W87541   5.808   6.717   3.180
26121W        W87542  19.199  27.475  10.890
26122W        W87543  18.220  32.498   5.289
26123W        W87544  29.455   9.317  12.001
26124W        W87545  19.266   2.446   3.154
26125W        W87546  24.062   5.213  14.389
26126W        W87547  21.556  12.773  10.427
26127W        W87548  11.305  26.689  12.455
26128W        W87549  13.342  13.286   3.366
26129W        W87550  21.210   4.702   1.323
26130W        W87551  17.788   6.754  10.525
26131W        W87552  33.072  24.483   1.705
26132W        W87553  17.142  42.459  10.433
26133W        W87554  44.359  39.407  14.939
26134W        W87555   4.271  16.081   3.367
26135W        W87556  42.004  34.424  13.041
26136W        W87557  37.529   3.715  11.409
26137W        W87558  39.011   9.349   0.462
26138W        W87559   8.269   5.711   4.741
26139W        W87560  31.605  14.246  13.985
26140W        W87561  12.760  35.876   4.725
26141W        W87562  23.097  24.592   4.750
26142W        W87563  35.903  12.176   0.456
26143W        W87564  33.479  25.596  13.792
26144W        W87565  36.350  19.632  10.467
26145W        W87566   8.367  18.789  10.990
26146W        W87567   8.340  19.713  13.360
26147W        W87568   9.756  41.800   3.240
26148W        W87569  13.775   6.297   3.367
26149W        W87570  32.509  18.218   0.781
26150W        W87571  36.544  40.428   2.664
26151W        W87572  19.562   6.310  11.932
26152W        W87573  24.227   2.956  13.951
26153W        W87574  41.511  23.118  14.939
26154W        W87575  34.451  44.288   0.271
26155W        W87576  43.422   5.788  11.459
26156W        W87577   6.380  27.034   0.407
26157W        W87578  22.691  12.656  14.497
26158W        W87579  19.565  29.497  13.823
26159W        W87580  39.825   4.361  12.865
26160W        W87581  29.462  15.824   0.882
26161W        W87582   9.835  39.865  11.968
26162W        W87583  37.084  44.903   2.817
26163W        W87584  19.583  16.244   3.149
26164W        W87585  41.509  34.585   2.847
26165W        W87586  11.373  39.895   9.949
26166W        W87587  15.095  43.774  10.435
26167W        W87588  39.998  28.166  11.444
26168W        W87589  15.635  41.793   2.733
26169W        W87590  35.043  32.043   3.665
26170W        W87591  39.950  24.704   2.186
26171W        W87592   3.380  31.969   2.849
26172W        W87593  16.791  44.962  10.553
26173W        W87594  15.779  43.921   3.804
26174W        W87595  42.488  18.105  10.427
26175W        W87596  31.999  35.442   3.692
26176W        W87597  15.808  43.395   0.778
26177W        W87598  33.607  38.075  14.306
26178W        W87599   9.349  43.864  12.043
26179W        W87600  13.643  44.423  11.542
26180W        W87601  15.154   7.666   3.682
26181W        W87602  42.410  29.072  11.414
26182W        W87603  22.129  24.137  13.369
26183W        W87604   5.417  27.992  12.492
26184W        W87605  19.693  11.283   4.233
26185W        W87606  13.307  12.687   1.360
26186W        W87607  25.166  13.196   1.907
26187W        W87608  25.050  19.702   4.607
26188W        W87609  41.008  12.278  11.403
26189W        W87610  26.089   0.255  13.402
26190W        W87611  12.265   1.773   3.824
26191W        W87612  32.066  15.174   3.835
26192W        W87613  23.090   8.240   5.196
26193W        W87614  41.417  32.125   4.785
26194W        W87615  11.171   3.955   3.719
26195W        W87616   1.480  36.464  11.504
26196W        W87617  31.934  33.978   4.671
26197W        W87618  28.567  36.364  13.030
26198W        W87619  34.097  27.666   4.601
26199W        W87620  24.525  12.153   4.810
26200W        W87621  35.922  32.938  10.483
26201W        W87622  24.003  37.854   4.806
26202W        W87623   6.881   5.343  10.892
26203W        W87624   0.965  25.052   5.288
26204W        W87625  35.421   1.811   3.803
26205W        W87626  20.047  16.273  13.049
26206W        W87627  13.768  44.312   1.263
26207W        W87628  33.552   0.250  11.931
26208W        W87629  12.794  24.562  13.472
26209W        W87630  16.785   6.389  14.507
26210W        W87631  18.234   3.814  13.945
26211W        W87632  31.138   3.333   0.289
26212W        W87633  14.337  25.499  12.926
26213W        W87634   1.880   9.797  12.931
26214W        W87635   7.229   5.231  13.810
26215W        W87636  37.069  41.827  14.428
26216W        W87637  12.662  20.713  11.949
26217W        W87638  19.642  16.079  13.548
26218W        W87639  23.579  37.833   0.789
26219W        W87640  11.260  12.275  13.940
26220W        W87641  43.324  39.541   2.317
26221W        W87642   5.849  17.291   4.814
26222W        W87643  25.515  26.679   0.920
26223W        W87644   1.929  23.032   4.667
26224W        W87645  37.423  28.043   1.840
26225W        W87646   5.811  44.009   1.277
26226W        W87647  33.601  35.888  12.400
26227W        W87648   6.686   8.842  11.974
26228W        W87649  24.051  44.484   5.315
26229W        W87650   7.745  23.031   0.885
26230W        W87651  35.490  26.633  13.831
26231W        W87652   7.396  36.054   2.887
26232W        W87653  44.961   2.761   2.715
26233W        W87654  30.126  27.083  13.503
26234W        W87655  38.379  26.622  13.863
26235W        W87656  26.476   9.272   3.300
26236W        W87657  24.033  11.244  11.971
26237W        W87658   3.289  21.663   4.773
26238W        W87659  33.589  40.548   3.749
26239W        W87660  29.941  22.617   3.179
26240W        W87661  16.307   8.742   1.236
26241W        W87662  23.675   6.863   2.299
26242W        W87663  21.676  40.542   2.243
26243W        W87664   1.895  28.502  11.935
26244W        W87665  37.053  27.973   2.728
26245W        W87666  25.519  30.414   4.800
26246W        W87667   2.398   6.408  14.346
26247W        W87668  41.347  20.102  13.527
26248W        W87669   9.255  43.363  13.488
26249W        W87670  24.674   8.378  11.373
26250W        W87671  42.006  20.614  14.410
26251W        W87672  16.614  13.335   3.159
26252W        W87673  16.073  32.941   3.219
26253W        W87674  18.744  15.142  12.952
26254W        W87675   0.432   4.920   1.902
26255W        W87676   5.239  32.489   0.464
26256W        W87677  37.560  17.188  13.038
26257W        W87678   1.949  37.489   4.163
26258W        W87679  19.609   0.328  13.855
26259W        W87680   5.805  44.499  10.055
26260W        W87681  12.753  25.217  14.293
26261W        W87682  21.518  30.466  12.439
26262W        W87683  26.570  40.002   3.182
26263W        W87684  19.064   8.348  10.503
26264W        W87685  37.987  11.179   4.354
26265W        W87686  21.106  25.171  13.052
26266W        W87687   0.385  37.070   1.817
26267W        W87688  39.934   6.249  10.615
26268W        W87689   4.918  21.094  14.795
26269W        W87690   5.699   1.898  12.937
26270W        W87691  44.921  24.072   1.803
26271W        W87692  37.855   1.413   0.242
26272W        W87693   9.758   3.886  10.979
26273W        W87694  10.244   6.277   3.630
26274W        W87695   4.390  35.059  12.081
26275W        W87696  42.869  28.660  12.367
26276W        W87697  13.160  15.667   5.154
26277W        W87698  39.922  10.149  11.065
26278W        W87699   7.267  30.919  10.984
26279W        W87700   9.319  27.515  13.053
26280W        W87701  37.401  40.909   2.713
26281W        W87702  33.527  42.355   4.763
26282W        W87703   0.256  26.122   4.161
26283W        W87704  19.210   3.447   2.676
26284W        W87705  35.090  38.008  14.274
26285W        W87706  23.727  26.474   4.790
26286W        W87707  37.892  14.202  12.978
26287W        W87708  16.595  12.762  11.461
26288W        W87709  26.595   5.246  11.037
26289W        W87710   9.818  41.994  11.587
26290W        W87711  14.129  15.767   0.819
26291W        W87712  41.533  26.193   2.825
26292W        W87713  38.336  35.063   3.717
26293W        W87714  44.824   6.210   4.659
26294W        W87715  14.218  28.523   1.885
26295W        W87716  36.859   1.381   3.328
26296W        W87717   2.333  25.536   4.304
26297W        W87718  25.201  35.465   3.258
26298W        W87719  16.234  18.561   3.350
26299W        W87720  19.147  38.453   1.867
26300W        W87721  17.636  23.990   0.951
26301W        W87722   6.255  11.318   4.681
26302W        W87723  12.818  32.916   1.761
26303W        W87724  36.391  16.246   0.800
26304W        W87725  43.409  38.490  12.432
26305W        W87726  19.145  37.879   1.248
26306W        W87727  26.469   7.215   3.666
26307W        W87728   0.981  40.454  11.488
26308W        W87729   5.401  25.163  13.975
26309W        W87730  10.712  32.011   1.925
26310W        W87731   4.319  16.739   1.796
26311W        W87732  42.390  33.466   2.865
26312W        W87733   3.948  10.151  14.497
26313W        W87734  12.681  35.360  13.321
26314W        W87735   6.767  34.611   3.292
26315W        W87736  38.823   4.936   3.218
26316W        W87737  44.965  19.245  14.346
26317W        W87738  27.620   2.878   0.373
26318W        W87739   4.351   2.827  12.906
26319W        W87740  17.614  41.523  13.488
26320W        W87741  14.328  40.947   4.688
26321W        W87742   2.776  11.200  10.914
26322W        W87743  22.705  17.070   4.698
26323W        W87744  19.721   7.220  13.510
26324W        W87745  34.506  21.565  13.512
26325W        W87746   1.735  30.101  11.548
26326W        W87747  24.206  14.776  13.839
26327W        W87748  43.976   6.253   0.282
26328W        W87749  18.173  29.966   3.216
26329W        W87750   6.843   1.817   2.295
26330W        W87751  42.336  28.967   2.685
26331W        W87752  27.073   5.258   4.284
26332W        W87753  30.433  32.430   3.243
26333W        W87754   1.343  25.193   2.828
26334W        W87755   5.865  28.547   0.315
26335W        W87756   1.780  29.073   1.861
26336W        W87757   6.229   3.272  11.418
26337W        W87758   6.833  44.299   1.442
26338W        W87759   1.859   5.912  12.000
26339W        W87760  24.106  18.096  10.906
26340W        W87761  11.276  43.869  11.497
26341W        W87762  43.325  18.065   3.803
26342W        W87763   5.416  41.921  12.937
26343W        W87764   6.878   0.304   2.313
26344W        W87765  16.660   6.740   4.238
26345W        W87766   9.165   1.851   0.932
26346W        W87767  42.009  38.555  10.908
26347W        W87768  15.593  23.664   1.442
26348W        W87769  24.090  23.698   0.902
26349W        W87770  18.177  24.509   0.263
26350W        W87771   1.879  32.495   3.292
26351W        W87772   0.920  30.945  12.516
26352W        W87773  11.676  11.190  10.539
26353W        W87774   8.387  31.581   0.881
26354W        W87775  22.697  27.940  11.456
26355W        W87776  33.097   6.711   1.732
26356W        W87777  15.791  33.013   2.690
26357W        W87778  28.128   2.263   1.872
26358W        W87779  34.052   1.420   0.892
26359W        W87780  32.030  32.986   0.408
26360W        W87781  32.505  34.021   0.760
26361W        W87782  30.086  43.962   0.281
26362W        W87783  38.445  32.395   1.313
26363W        W87784  24.647   7.353   0.403
26364W        W87785  22.507   1.822  11.008
26365W        W87786  40.405  43.874   1.226
26366W        W87787  12.685   6.316   1.348
26367W        W87788   9.177  18.716   1.925
26368W        W87789  33.624  17.306  14.328
26369W        W87790  12.127  27.652  12.866
26370W        W87791  34.553  37.993   3.727
26371W        W87792   0.291  26.467  12.399
26372W        W87793  38.343  12.337  11.483
26373W        W87794  28.561  29.960  14.982
26374W        W87795  41.485  21.755  12.933
26375W        W87796  29.127  18.084   1.697
26376W        W87797   7.210  25.145  14.020
26377W        W87798  24.709  34.433   4.301
26378W        W87799  19.194  23.038  12.032
26379W        W87800  26.522  24.561   4.179
26380W        W87801  13.656  24.186   4.251
26381W        W87802   4.909  39.034  13.318
26382W        W87803  42.498  44.857  11.118
26383W        W87804  22.606  39.970  13.818
26384W        W87805  14.768  11.855   4.672
26385W        W87806  38.364   9.335  14.870
26386W        W87807  18.708  23.088  11.998
26387W        W87808   6.425  41.873  10.897
26388W        W87809  20.050  32.955   2.714
26389W        W87810  12.287  40.507   3.787
26390W        W87811  35.074  12.610   3.202
26391W        W87812  29.981  44.420  12.842
26392W        W87813  13.188  18.270   3.181
26393W        W87814   7.749  20.048   0.247
26394W        W87815  18.237  30.447   3.640
26395W        W87816  32.050  38.963  10.093
26396W        W87817   2.381   8.731  14.030
26397W        W87818   7.750  15.592  13.501
26398W        W87819   5.403  35.003   0.440
26399W        W87820  23.567  21.126   4.309
26400W        W87821  28.032  17.610   1.420
26401W        W87822  34.995  16.122  12.077
26402W        W87823  44.756   6.357  11.930
26403W        W87824  42.377  25.552   0.381
26404W        W87825  31.919   8.163   1.708
26405W        W87826   3.746  39.921  12.853
26406W        W87827  23.625  14.783   4.130
26407W        W87828  12.266  43.302  11.116
26408W        W87829   5.256  32.897   5.221
26409W        W87830   4.776  25.056   3.781
26410W        W87831  13.837  27.195   3.295
26411W        W87832  43.808   2.747   0.941
26412W        W87833  31.952   1.948  13.052
26413W        W87834  36.564  23.986   2.387
26414W        W87835   3.227   1.907  12.426
26415W        W87836  19.076   2.778  13.824
26416W        W87837  39.861  43.992   0.818
26417W        W87838  39.933  21.211   0.416
26418W        W87839  13.726  11.697  12.852
26419W        W87840  36.920  11.370  12.353
26420W        W87841  33.976  41.416  10.410
26421W        W87842  30.573  34.605   1.781
26422W        W87843  22.679  16.123   0.841
26423W        W87844  30.014  24.725  13.498
26424W        W87845  18.251  11.709   5.219
26425W        W87846   6.922  24.991   0.803
26426W        W87847  12.230  14.150   4.807
26427W        W87848  16.777  40.510  14.500
26428W        W87849   8.216  38.521   2.416
26429W        W87850  15.324  24.162  10.473
26430W        W87851  14.319  19.187   4.691
26431W        W87852  15.318   8.300   0.735
26432W        W87853  34.107   8.225   2.749
26433W        W87854  25.189  42.431   2.347
26434W        W87855  38.878  44.427  11.055
26435W        W87856  17.663  13.605   9.537
26436W        W87857  41.341   5.372  12.404
26437W        W87858  32.627  28.665  12.443
26438W        W87859   5.888  28.467   4.719
26439W        W87860  14.233  38.872  13.385
26440W        W87861  32.470  19.078  12.837
26441W        W87862   0.371  27.049  10.420
26442W        W87863  15.132   9.218  14.320
26443W        W87864  37.499  26.467  10.454
26444W        W87865  36.389  37.996  11.970
26445W        W87866  41.378   4.806  12.961
26446W        W87867   1.322   3.733  13.827
26447W        W87868   6.335  34.104  12.858
26448W        W87869   9.392  19.195   1.429
26449W        W87870  42.881   7.260   3.219
26450W        W87871   4.328   5.198  10.599
26451W        W87872  27.605  44.421   2.799
26452W        W87873  24.191   3.906   4.244
26453W        W87874  32.572  38.900   0.824
26454W        W87875  22.180   1.872  11.427
26455W        W87876  40.513  15.099   1.835
26456W        W87877  22.554   3.781   2.754
26457W        W87878  14.098  41.510  14.840
26458W        W87879   3.230  16.731  14.508
26459W        W87880   3.871  10.341  12.058
26460W        W87881  10.368  15.149   4.290
26461W        W87882  10.825  43.508  10.460
26462W        W87883  34.614  36.873   1.885
26463W        W87884  17.685  21.198   0.327
26464W        W87885   4.384  14.798  13.838
26465W        W87886  35.432  15.732   2.398
26466W        W87887  26.559  14.784  10.963
26467W        W87888  38.427   6.827   3.843
26468W        W87889  19.637  16.120  12.008
26469W        W87890  23.236  44.351   0.274
26470W        W87891   1.449  14.187   1.806
26471W        W87892   0.967   8.254  12.341
26472W        W87893  36.872  11.625  13.412
26473W        W87894  39.815  33.082   2.773
26474W        W87895  11.264  34.991  12.528
26475W        W87896  43.369  20.763   2.231
26476W        W87897  28.570  33.065   2.299
26477W        W87898  22.682  31.449  14.277
26478W        W87899   8.304   3.327   4.720
26479W        W87900  22.086  14.772   0.263
26480W        W87901  40.432  27.021  14.896
26481W        W87902  14.218  38.452   2.232
26482W        W87903  34.442  42.301  11.029
26483W        W87904  25.128  11.335   2.390
26484W        W87905   1.423   3.318  10.497
26485W        W87906   0.443  24.688   4.839
26486W        W87907  11.337  10.301  11.526
26487W        W87908   9.308  36.065   5.311
26488W        W87909  44.425  27.125  11.513
26489W        W87910  29.969  33.497  13.344
26490W        W87911  28.507   4.822  12.402
26491W        W87912  24.558   2.412  10.981
26492W        W87913  20.089  33.460  14.444
26493W        W87914  29.014  12.744   0.418
26494W        W87915   2.757   2.903  13.419
26495W        W87916   7.727  42.004   4.250
26496W        W87917  34.489  30.648   2.696
26497W        W87918  14.600  40.474   1.374
26498W        W87919  39.026  40.867  13.846
26499W        W87920  39.449  20.238  11.583
26500W        W87921  21.102  19.739   4.189
26501W        W87922  10.236  34.512  14.796
26502W        W87923   3.875   2.435  12.421
26503W        W87924  32.414  37.919  12.571
26504W        W87925  44.438  14.194  13.878
26505W        W87926   3.939  32.073  13.341
26506W        W87927  38.421  38.036   4.314
26507W        W87928  12.179  40.003  10.988
26508W        W87929  14.245  39.497  12.349
26509W        W87930  26.596   2.897   1.704
26510W        W87931   7.878   4.705   3.381
26511W        W87932  19.536  17.303   5.087
26512W        W87933  16.291  23.519   0.835
26513W        W87934   4.273  22.995  11.872
26514W        W87935  16.598  25.659  13.365
26515W        W87936  18.639  25.989   2.210
26516W        W87937  44.791  10.831  11.929
26517W        W87938  39.055  15.815  10.620
26518W        W87939  15.164  30.142  13.404
26519W        W87940  12.748  33.504  14.013
26520W        W87941  18.705  16.731  12.532
26521W        W87942  44.923  18.083  11.413
26522W        W87943   7.708   6.211   0.815
26523W        W87944   9.666  26.507   4.831
26524W        W87945   0.864   6.389   1.338
26525W        W87946  33.480  30.537   9.945
26526W        W87947  11.127  18.545  12.089
26527W        W87948   4.749  28.644  11.064
26528W        W87949  37.521  29.077  10.078
26529W        W87950  18.590  32.439   4.248
26530W        W87951  40.889  24.142   1.353
26531W        W87952  24.662  24.567  11.613
26532W        W87953   3.238  33.411  12.408
26533W        W87954  38.067  30.979  14.308
26534W        W87955  15.231  13.781   1.740
26535W        W87956  43.405  37.897  14.922
26536W        W87957  29.963   3.787  11.943
26537W        W87958  21.653  22.592  14.961
26538W        W87959  35.564  36.999   3.245
26539W        W87960  31.115  21.674   1.836
26540W        W87961  37.493   1.831   1.257
26541W        W87962   3.772   4.803   1.900
26542W        W87963  32.124  11.283   3.863
26543W        W87964  26.540  27.454   1.274
26544W        W87965  31.907  15.204  12.536
26545W        W87966  39.007  32.990   3.644
26546W        W87967  36.467  42.360  13.343
26547W        W87968  39.917  33.575   4.337
26548W        W87969  22.169  11.344   0.796
26549W        W87970  40.360  15.600   3.161
26550W        W87971  33.382  30.973  14.513
26551W        W87972  27.531  33.881   3.773
26552W        W87973  36.015  12.677  12.980
26553W        W87974  21.249  26.474   4.138
26554W        W87975   0.387  33.975   1.874
26555W        W87976  23.547   4.913  12.031
26556W        W87977  30.513  11.173  12.997
26557W        W87978  27.987   1.892  11.961
26558W        W87979  11.707  23.577  12.946
26559W        W87980   9.652  17.619   3.251
26560W        W87981  41.020  19.181  14.869
26561W        W87982  32.116  23.014   4.290
26562W        W87983  22.599  38.840   2.738
26563W        W87984   9.194  28.651   0.458
26564W        W87985  28.441  39.054   3.801
26565W        W87986   0.271  30.003  12.566
26566W        W87987  30.118  25.582  12.355
26567W        W87988  41.996   5.919   2.802
26568W        W87989  42.468   8.817  12.920
26569W        W87990  20.563  29.547   2.721
26570W        W87991  19.672  38.960   4.804
26571W        W87992  32.502  38.557   3.679
26572W        W87993  39.528  40.024   4.183
26573W        W87994  33.575  13.630   1.752
26574W        W87995  18.186  20.733  14.792
26575W        W87996  24.000   7.270   3.780
26576W        W87997  39.883  41.988   3.835
26577W        W87998   3.816  31.049   3.824
26578W        W87999  34.572  15.277   0.928
26579W        W88000  29.561   4.298   4.129
26580W        W88001  35.916  28.033   2.797
26581W        W88002  11.737  12.836  10.570
26582W        W88003  12.770  39.397   0.829
26583W        W88004  44.941  39.501  12.540
26584W        W88005  31.592  12.751  14.828
26585W        W88006   2.292  20.077   4.279
26586W        W88007  21.685  11.687   2.786
26587W        W88008  16.256   2.771   4.634
26588W        W88009   3.777  44.279  14.344
26589W        W88010  14.803   1.425   0.417
26590W        W88011  39.973   7.242   3.263
26591W        W88012  43.342  33.118  11.930
26592W        W88013  33.621  38.453  12.512
26593W        W88014  35.905  44.869   1.277
26594W        W88015   4.321  37.385   3.667
26595W        W88016  18.276  17.747  14.409
26596W        W88017  30.531  41.446   3.765
26597W        W88018   7.891  19.574  12.566
26598W        W88019   8.169  34.960   1.742
26599W        W88020   7.718  30.016   0.942
26600W        W88021  42.006  18.262   1.889
26601W        W88022  28.952  12.241  14.346
26602W        W88023  15.751   6.736  12.374
26603W        W88024  43.390  30.100   4.318
26604W        W88025  39.921  34.974  11.503
26605W        W88026  36.938  17.250   2.244
26606W        W88027   2.442  38.374   3.173
26607W        W88028  22.508  29.110   0.907
26608W        W88029  13.350  33.439  12.469
26609W        W88030  23.591  37.833   2.212
26610W        W88031  40.361  11.813   2.226
26611W        W88032   2.789  40.464   0.777
26612W        W88033  18.701  18.232  11.560
26613W        W88034  38.432  43.838   2.690
26614W        W88035  17.801  39.030  13.934
26615W        W88036  27.503  20.229  14.512
26616W        W88037  31.631  12.278   1.303
26617W        W88038  37.934  23.633   2.234
26618W        W88039   5.380  34.917  14.312
26619W        W88040  14.591   4.365  10.952
26620W        W88041  37.933  33.086  14.883
26621W        W88042  40.800  34.049  13.326
26622W        W88043   6.355  40.021  10.515
26623W        W88044  18.737  41.475  11.473
26624W        W88045   0.298  43.409  12.988
26625W        W88046  42.979  21.087   2.756
26626W        W88047  25.568  35.597   2.299
26627W        W88048   9.829  21.245   0.431
26628W        W88049  14.745  42.828   2.844
26629W        W88050  36.591  20.740  12.079
26630W        W88051  35.929   6.211  12.493
26631W        W88052  14.828  15.578   2.380
26632W        W88053   9.703  40.465   3.724
26633W        W88054  35.039  40.998  11.102
26634W        W88055  23.066  32.972  12.027
26635W        W88056  36.004  39.960   4.763
26636W        W88057  24.559   0.346  10.442
26637W        W88058   6.897  31.897  12.501
26638W        W88059  30.124   2.410  11.529
26639W        W88060   7.685  42.284  13.371
26640W        W88061  20.151  32.012   5.117
26641W        W88062   1.459  23.531  11.047
26642W        W88063   0.487  18.575  14.759
26643W        W88064   8.303  11.627   2.376
26644W        W88065  41.328  31.562   2.248
26645W        W88066  17.102  18.690   1.751
26646W        W88067  30.445  22.151   3.195
26647W        W88068  28.579  41.518  14.508
26648W        W88069   7.296  42.969   5.090
26649W        W88070  38.423  42.794  11.922
26650W        W88071   5.398  31.593  14.969
26651W        W88072  23.209   6.838   3.197
26652W        W88073   2.761  29.926   2.857
26653W        W88074  38.570  36.928  10.992
26654W        W88075  23.121  21.657  12.909
26655W        W88076  11.700  18.094  13.849
26656W        W88077   5.721  42.511  10.620
26657W        W88078  27.019  28.603   1.312
26658W        W88079  30.002   6.708  11.506
26659W        W88080  24.707  22.245   2.328
26660W        W88081   0.849  44.926  12.470
26661W        W88082   3.861  11.347   1.852
26662W        W88083  26.976  38.483   3.268
26663W        W88084   3.768  15.187  12.852
26664W        W88085   3.773   5.247  10.642
26665W        W88086  17.114  42.282   4.603
26666W        W88087   3.729  25.134   3.830
26667W        W88088  36.068  35.484  11.516
26668W        W88089  22.542  38.048   2.777
26669W        W88090   0.853  15.728  13.014
26670W        W88091  40.328  40.038  10.424
26671W        W88092  36.859  37.877  11.410
26672W        W88093   9.865  33.392   0.951
26673W        W88094   4.796  20.159  13.949
26674W        W88095  37.067  40.381   4.295
26675W        W88096  39.934  34.461   1.699
26676W        W88097  12.208  23.127   2.870
26677W        W88098  14.116  43.852   1.452
26678W        W88099  33.073  25.147   3.702
26679W        W88100  32.484  34.513  11.867
26680W        W88101  32.032  10.842   1.315
26681W        W88102  11.803  32.140  11.034
26682W        W88103  26.581   2.830  11.983
26683W        W88104  17.663  13.262   4.187
26684W        W88105   6.372   3.418  12.010
26685W        W88106  29.659   2.863   0.908
26686W        W88107   5.748   5.239  12.412
26687W        W88108  31.020  10.322  10.097
26688W        W88109  23.049   2.444  13.797
26689W        W88110  19.075   3.874  14.761
26690W        W88111  22.224   2.915   3.151
26691W        W88112  16.254  18.053  11.596
26692W        W88113  31.956  20.031  13.961
26693W        W88114   3.827   2.333  11.089
26694W        W88115   9.713   4.442  13.519
26695W        W88116  37.957  20.194   2.231
26696W        W88117  26.189  35.072   4.124
26697W        W88118  40.870  24.484   2.744
26698W        W88119  27.051   0.866  12.521
26699W        W88120   8.296   3.395  10.921
26700W        W88121   2.349  41.960  12.571
26701W        W88122  43.925  34.586   1.269
26702W        W88123  20.266   7.389  12.380
26703W        W88124  31.450  32.423  12.998
26704W        W88125   3.902  21.620   2.230
26705W        W88126  42.516  21.019  10.939
26706W        W88127  36.365  28.584   4.176
26707W        W88128  26.072  43.399   1.448
26708W        W88129  20.550  24.227  14.871
26709W        W88130   9.887  26.045   1.326
26710W        W88131  36.968  23.993  11.495
26711W        W88132  14.664  17.166   0.359
26712W        W88133  43.304  36.943  13.827
26713W        W88134   7.790  21.588  10.941
26714W        W88135  32.590  37.941  10.483
26715W        W88136  30.654   3.415  12.490
26716W        W88137  33.974  21.093   2.260
26717W        W88138  22.536  36.887  12.087
26718W        W88139  27.557  15.250   0.353
26719W        W88140  29.424   2.896  10.609
26720W        W88141   4.945  42.879   3.655
26721W        W88142  34.405   6.711  14.976
26722W        W88143  23.632  23.520   1.916
26723W        W88144  21.543  18.233   2.662
26724W        W88145  25.625  28.648  11.501
26725W        W88146   4.904  42.805   2.184
26726W        W88147  35.860  35.105   2.415
26727W        W88148  37.581   1.953  11.991
26728W        W88149  18.185  31.473  14.824
26729W        W88150  26.019  18.131  10.429
26730W        W88151  40.032  17.745   4.716
26731W        W88152   2.844   3.811   4.173
26732W        W88153  34.897  16.590   4.757
26733W        W88154  18.115  28.085  13.384
26734W        W88155  34.445   2.941   3.337
26735W        W88156  43.368  23.683  14.897
26736W        W88157  32.895   6.341  11.893
26737W        W88158  33.942  39.380   0.802
26738W        W88159  26.614   5.847  11.389
26739W        W88160  24.100  42.023  13.323
26740W        W88161  30.538  37.875   3.343
26741W        W88162  39.025  32.445   3.811
26742W        W88163  27.661  43.457  12.382
26743W        W88164  15.742  10.798   1.410
26744W        W88165  44.975   1.423   4.194
26745W        W88166  17.774  33.064  12.863
26746W        W88167  30.145  32.038   3.253
26747W        W88168  13.606  10.197   9.952
26748W        W88169  19.159  41.474   4.659
26749W        W88170  35.527  20.657  11.549
26750W        W88171  19.635  34.077   0.905
26751W        W88172  15.706   9.809   4.277
26752W        W88173  25.567  15.091  13.477
26753W        W88174  26.158   0.282   4.349
26754W        W88175  11.637  21.577  12.949
26755W        W88176  40.860  29.578   0.898
26756W        W88177  33.598   3.745   2.217
26757W        W88178  33.049  10.372   0.277
26758W        W88179  37.494  10.340   5.131
26759W        W88180   1.945   9.678  12.394
26760W        W88181  14.829  13.743   0.793
26761W        W88182  23.041   1.748  14.406
26762W        W88183  24.639  30.110   2.184
26763W        W88184   0.946  14.213   4.129
26764W        W88185  34.934  28.012  11.561
26765W        W88186   6.341  13.147  13.977
26766W        W88187   5.422   1.915   2.864
26767W        W88188  31.974  28.135  10.929
26768W        W88189   6.783  35.568   1.347
26769W        W88190   9.841  28.486   3.645
26770W        W88191  20.553  15.159  10.977
26771W        W88192  13.332  20.101   1.814
26772W        W88193   5.755  28.174  12.978
26773W        W88194  17.169  17.673  14.841
26774W        W88195   2.817   7.770  12.035
26775W        W88196  29.926  19.642  11.577
26776W        W88197   6.918  25.529  12.419
26777W        W88198  22.058   9.656   4.636
26778W        W88199   8.364  23.712  12.012
26779W        W88200  14.126  40.845  13.391
26780W        W88201  40.983   8.674  10.409
26781W        W88202  18.070  37.483   2.406
26782W        W88203  41.976  29.490  13.966
26783W        W88204  27.059   6.329   3.208
26784W        W88205   3.345  34.978   2.897
26785W        W88206  24.546  17.631   3.316
26786W        W88207  22.546  37.871   0.434
26787W        W88208  22.697  39.554   3.723
26788W        W88209  41.384  41.835   0.428
26789W        W88210  24.487  13.808  12.839
26790W        W88211  42.327  13.298   0.760
26791W        W88212   2.252  18.092   1.746
26792W        W88213  28.572  31.520   4.318
26793W        W88214  13.163  22.998   2.900
26794W        W88215  27.522  30.987  13.027
26795W        W88216  18.243  18.144   0.732
26796W        W88217  36.998   6.740   4.701
26797W        W88218  16.111  15.670  10.048
26798W        W88219  12.797   0.789  12.505
26799W        W88220  18.578   6.819   3.186
26800W        W88221  43.955  24.121  14.905
26801W        W88222  17.786  44.419   4.246
26802W        W88223   0.396   1.435   2.664
26803W        W88224  30.929  25.502  12.835
26804W        W88225  26.688   7.176   0.396
26805W        W88226  29.576  19.563  10.948
26806W        W88227  13.182  35.493   3.378
26807W        W88228  26.097  29.636   2.813
26808W        W88229  43.963  17.759  10.467
26809W        W88230   6.320   3.241   2.331
26810W        W88231  15.091   2.843   0.845
26811W        W88232  42.377  31.145   3.746
26812W        W88233  32.547  19.211  11.889
26813W        W88234  35.595  27.177  12.407
26814W        W88235  18.260  31.057   3.357
26815W        W88236  12.355  41.797   3.865
26816W        W88237  19.766  40.409   4.274
26817W        W88238  33.463  34.915   0.339
26818W        W88239  10.157  37.566  12.888
26819W        W88240  24.003  22.740  12.400
26820W        W88241  14.303  43.990   2.770
26821W        W88242  35.422  38.442   1.784
26822W        W88243  44.950   2.875  13.917
26823W        W88244  24.207  11.220   3.870
26824W        W88245   9.227  34.380   1.743
26825W        W88246  15.326  25.180  10.581
26826W        W88247  31.059  27.182   1.267
26827W        W88248   8.788  31.489  10.508
26828W        W88249  11.351  16.749   4.184
26829W        W88250  36.070   9.178  11.038
26830W        W88251  22.557  22.009  14.432
26831W        W88252  11.232  29.132  11.606
26832W        W88253  24.579  31.119   1.221
26833W        W88254  10.759  18.125   4.231
26834W        W88255   7.727  28.146  13.974
26835W        W88256  18.208  39.398  14.972
26836W        W88257  35.373  33.899   3.322
26837W        W88258  11.349   3.362   3.192
26838W        W88259  30.950  35.415  13.871
26839W        W88260  39.867  31.021  11.122
26840W        W88261  12.249  27.014   0.369
26841W        W88262  16.193  31.435  13.865
26842W        W88263  11.269  36.361  14.304
26843W        W88264  12.224   7.784  10.584
26844W        W88265  21.149  15.304  11.892
26845W        W88266  10.667   8.249  10.618
26846W        W88267  30.490  18.776  13.903
26847W        W88268  30.553  25.598   0.778
26848W        W88269  10.732  37.029  11.078
26849W        W88270  29.448  20.143  13.537
26850W        W88271   1.327  17.615   2.359
26851W        W88272  11.813  18.058   0.315
26852W        W88273   6.714  36.018   4.201
26853W        W88274   2.376  13.253   4.131
26854W        W88275  23.217  44.444  13.496
26855W        W88276  34.989  10.707  12.416
26856W        W88277  31.413  18.715   2.809
26857W        W88278   7.863   6.204   3.153
26858W        W88279   9.189  31.462  12.000
26859W        W88280  25.629  16.082  12.084
26860W        W88281   1.832  21.696   2.673
26861W        W88282  22.241   8.277   1.378
26862W        W88283  43.495  38.402  14.361
26863W        W88284  19.105   5.227   3.632
26864W        W88285   2.734  38.463  13.849
26865W        W88286  35.098  36.442   1.220
26866W        W88287   2.381  31.901   0.844
26867W        W88288  13.195  34.916  12.047
26868W        W88289  13.297  24.219  13.908
26869W        W88290  32.438  20.240   3.865
26870W        W88291   5.789  36.853   4.619
26871W        W88292  40.362   3.722   2.321
26872W        W88293  41.978  30.922   4.665
26873W        W88294  33.455   4.758   1.737
26874W        W88295  26.478   5.208   2.268
26875W        W88296   8.888   4.835   2.226
26876W        W88297  35.960  16.615  14.376
26877W        W88298  38.942   2.260   2.795
26878W        W88299  24.222  25.677   4.770
26879W        W88300   1.450  29.117  13.870
26880W        W88301  14.170  26.501  12.077
26881W        W88302  13.240  30.490  11.530
26882W        W88303  23.541  18.168   3.772
26883W        W88304  41.946   8.252  14.332
26884W        W88305  16.111  43.827  14.511
26885W        W88306   4.442  30.635   3.328
26886W        W88307  41.420  10.165  12.454
26887W        W88308  44.450  44.305   3.658
26888W        W88309   2.798  36.010   3.376
26889W        W88310  37.973   1.850   1.793
26890W        W88311  29.604  30.582  10.018
26891W        W88312  36.401  27.535   3.274
26892W        W88313  22.158   0.430  11.900
26893W        W88314  35.421  26.567  10.960
26894W        W88315  23.686  35.049   1.849
26895W        W88316  44.766  41.036  10.961
26896W        W88317   2.432  34.879   3.370
26897W        W88318  42.811  42.308  11.459
26898W        W88319  37.982  38.891  10.457
26899W        W88320   1.291  17.643   1.704
26900W        W88321   2.384  25.695   0.919
26901W        W88322  14.297  11.647  11.439
26902W        W88323  35.878  20.699   4.214
26903W        W88324  44.356   0.813   1.935
26904W        W88325  23.492  19.145   1.885
26905W        W88326  11.195   9.171  14.931
26906W        W88327  26.652   8.335  12.406
26907W        W88328  14.711  44.440  12.349
26908W        W88329  38.858  15.606  12.989
26909W        W88330   8.333  18.705   3.716
26910W        W88331  26.138  15.198  13.864
26911W        W88332  12.327  24.707   1.725
26912W        W88333  37.889  16.138  10.461
26913W        W88334  34.429  41.862  11.534
26914W        W88335  19.192  38.549  13.935
26915W        W88336  28.005  35.000   4.304
26916W        W88337  25.678   3.221   2.713
26917W        W88338  12.727  22.546   0.833
26918W        W88339  35.105  24.553  13.315
26919W        W88340  31.636   3.318  11.086
26920W        W88341   4.302   9.278   1.356
26921W        W88342  43.980  35.515  12.000
26922W        W88343  20.644   4.789   3.277
26923W        W88344   3.347  16.805   1.769
26924W        W88345  33.412  30.966   4.185
26925W        W88346   2.350  30.426  10.036
26926W        W88347   2.301  25.692   9.470
26927W        W88348   4.349  22.660   3.356
26928W        W88349   0.759  43.770   4.208
26929W        W88350  24.582  14.658   0.897
26930W        W88351  19.258  40.898  13.028
26931W        W88352   4.337  10.847   3.267
26932W        W88353   9.751  36.406  12.905
26933W        W88354  23.578  17.690  10.460
26934W        W88355  19.149   6.801  11.976
26935W        W88356  11.281  25.663   2.295
26936W        W88357  12.338  37.846   0.812
26937W        W88358  43.459   0.384  14.350
26938W        W88359  20.128  15.805   3.866
26939W        W88360  16.225  42.895   3.665
26940W        W88361  39.026  38.535   2.744
26941W        W88362  32.452   8.712  14.895
26942W        W88363  14.337  26.121  11.095
26943W        W88364   9.819  10.314   3.163
26944W        W88365  23.045   4.228   0.453
26945W        W88366   6.734  41.007   2.822
26946W        W88367  23.666  31.592   1.844
26947W        W88368  31.948  10.814   3.293
26948W        W88369   7.388  19.046  14.489
26949W        W88370  21.614  36.052  14.461
26950W        W88371  44.320  31.025   1.764
26951W        W88372  23.527   1.249  12.457
26952W        W88373  18.737   8.284  10.445
26953W        W88374  43.450   0.265  10.940
26954W        W88375  35.464  18.228   4.838
26955W        W88376  33.524  26.534  11.044
26956W        W88377  21.601  36.842  14.309
26957W        W88378  38.359  15.780  13.445
26958W        W88379  30.974   4.703  12.426
26959W        W88380  17.616  38.009   0.897
26960W        W88381  34.586  12.327  11.581
26961W        W88382  44.413  33.958   4.699
26962W        W88383   8.731  15.153  11.435
26963W        W88384  25.495   6.400   0.278
26964W        W88385   7.283  20.228   2.892
26965W        W88386  10.367  18.064   0.435
26966W        W88387   1.923  30.914   1.342
26967W        W88388  29.134  19.601  13.048
26968W        W88389  38.568  18.566  13.505
26969W        W88390   9.885   0.251  11.527
26970W        W88391  10.682  13.242   0.440
26971W        W88392  29.956  33.927   0.436
26972W        W88393  16.675  27.054   4.119
26973W        W88394  21.582  13.647   2.372
26974W        W88395  11.740   6.723   3.313
26975W        W88396  34.421  13.723   4.610
26976W        W88397   9.793   9.167  14.978
26977W        W88398  17.701  21.728   1.327
26978W        W88399  37.076   7.262   0.906
26979W        W88400  37.009  33.107  14.792
26980W        W88401  26.478  29.126  13.902
26981W        W88402  37.546  13.186   4.839
26982W        W88403  32.063  38.914   1.819
26983W        W88404   0.277  25.000   1.382
26984W        W88405  25.618  26.478   2.870
26985W        W88406  15.593  27.061   3.803
26986W        W88407   7.210   1.467   4.252
26987W        W88408  20.535  26.523   1.347
26988W        W88409  40.392  17.128  12.414
26989W        W88410  26.461  10.210  12.496
26990W        W88411   5.896  27.088  13.458
26991W        W88412  43.973   4.233   1.797
26992W        W88413  42.813  44.952  14.860
26993W        W88414  41.802  22.616  11.430
26994W        W88415  15.642  14.814   4.600
26995W        W88416   8.807  15.257   2.216
26996W        W88417  23.722  36.865  12.361
26997W        W88418  11.224  43.377   4.278
26998W        W88419  10.754  25.645   2.748
26999W        W88420  29.545  37.530   1.829
27000W        W88421  31.605  26.578   4.640
27001W        W88422   9.172  13.634   1.764
27002W        W88423  32.446  22.667   3.766
27003W        W88424  40.378  14.694  14.898
27004W        W88425  39.404  35.912   0.446
27005W        W88426  43.408  21.692  10.467
27006W        W88427   2.891  10.709   1.329
27007W        W88428   9.767  12.270   4.808
27008W        W88429   6.849  38.415  12.071
27009W        W88430  17.610   8.367   0.828
27010W        W88431  30.642  29.631  13.371
27011W        W88432  41.317  15.273   5.175
27012W        W88433  16.110   3.333  13.921
27013W        W88434  22.171  37.842   3.706
27014W        W88435   6.279   6.918   1.874
27015W        W88436  29.160  26.983   1.743
27016W        W88437  20.134  19.758  12.532
27017W        W88438  42.495   3.900  12.449
27018W        W88439  14.780   3.389  14.021
27019W        W88440  10.225  41.818   3.349
27020W        W88441  30.588  12.718   2.745
27021W        W88442  36.842  13.771  13.968
27022W        W88443  38.544  36.006   2.893
27023W        W88444   5.258  43.900   3.852
27024W        W88445  43.813   2.403   2.326
27025W        W88446  41.796  31.498  10.469
27026W        W88447   2.434  33.059   2.389
27027W        W88448  27.039  31.996   0.342
27028W        W88449  32.975  21.039  12.441
27029W        W88450  28.600  19.637  13.997
27030W        W88451  15.303  27.466  10.512
27031W        W88452  19.258   9.681   2.261
27032W        W88453  13.198  12.278   3.161
27033W        W88454  28.114  39.486   4.717
27034W        W88455  18.570  20.042   3.209
27035W        W88456  28.523  34.598  11.375
27036W        W88457  27.584   6.828  13.341
27037W        W88458  26.524  41.991  12.958
27038W        W88459  42.456  43.340   2.867
27039W        W88460  17.286  31.916  10.553
27040W        W88461  17.228   6.775   2.813
27041W        W88462  22.577  23.037  13.325
27042W        W88463  44.823  33.078   0.867
27043W        W88464  42.514  18.790   1.269
27044W        W88465  33.985  31.908  10.150
27045W        W88466  43.976  44.339   1.766
27046W        W88467  14.730  44.779  12.531
27047W        W88468  27.102  13.846  12.844
27048W        W88469  42.999  33.010   1.238
27049W        W88470  36.043  38.500  11.425
27050W        W88471  32.063  22.068  13.874
27051W        W88472  23.165  32.897   4.320
27052W        W88473  38.507  42.031   4.175
27053W        W88474  13.230  16.239   0.890
27054W        W88475  26.204  14.120  13.892
27055W        W88476  32.109  35.107   0.824
27056W        W88477   6.248  26.057   5.223
27057W        W88478  38.036  33.451   4.635
27058W        W88479  31.436  42.839  10.915
27059W        W88480  21.522  10.835   3.767
27060W        W88481  18.272  18.172   3.337
27061W        W88482   3.432  14.316  10.991
27062W        W88483  34.952  36.066  13.956
27063W        W88484   3.718  32.101   3.700
27064W        W88485  14.760  40.860  14.904
27065W        W88486  36.983  20.766  12.847
27066W        W88487   2.257  27.987  14.941
27067W        W88488   9.222  34.505  11.940
27068W        W88489  40.433  19.217  14.927
27069W        W88490  44.875  30.539   9.956
27070W        W88491  19.693  16.079   0.466
27071W        W88492  28.545  13.155   2.380
27072W        W88493   1.817  25.663  13.329
27073W        W88494   4.819  17.662  11.527
27074W        W88495  30.955  43.445   3.704
27075W        W88496  11.201  25.485  12.418
27076W        W88497  11.866   5.910   1.441
27077W        W88498  20.581  31.430   4.138
27078W        W88499  34.872  14.181   4.330
27079W        W88500  22.151  10.725  11.040
27080W        W88501   1.845  16.595  12.541
27081W        W88502  13.345  35.957   1.431
27082W        W88503  37.348  31.542   2.705
27083W        W88504  19.162   3.310  13.953
27084W        W88505   0.986   8.830  12.524
27085W        W88506  16.574   5.416  12.946
27086W        W88507  19.608  15.090   1.326
27087W        W88508  29.545  27.567   0.732
27088W        W88509  44.458  31.539  10.488
27089W        W88510   6.207   1.453   2.311
27090W        W88511  39.849  28.168  13.050
27091W        W88512  13.801  29.031  12.038
27092W        W88513  38.988  24.541  11.603
27093W        W88514   8.161  36.365  11.876
27094W        W88515  13.270  43.020  10.608
27095W        W88516  34.997  22.595  14.899
27096W        W88517  33.552   6.326   4.606
27097W        W88518   7.286  36.402   3.152
27098W        W88519  10.837  27.089   3.221
27099W        W88520  37.862   1.256   1.390
27100W        W88521  35.573  43.996  10.625
27101W        W88522  11.235   2.294  11.380
27102W        W88523  33.942  40.416   0.305
27103W        W88524  22.584  41.033   4.254
27104W        W88525  10.675  15.674   0.354
27105W        W88526  27.618   3.728  11.866
27106W        W88527   6.194   2.917   4.145
27107W        W88528   3.771  21.090   3.166
27108W        W88529  20.213  11.663  13.456
27109W        W88530  41.967   7.871   1.273
27110W        W88531  26.050   7.255  13.424
27111W        W88532  34.086  30.432  11.986
27112W        W88533  43.332  28.653  11.544
27113W        W88534  11.224   5.361  11.473
27114W        W88535  20.647  38.567  13.898
27115W        W88536  33.508  33.989  12.554
27116W        W88537  35.594  18.759   0.483
27117W        W88538   0.924  23.635  13.031
27118W        W88539  29.949  30.995  14.803
27119W        W88540  44.407  34.058   1.253
27120W        W88541  37.033   5.798  13.808
27121W        W88542  43.886  35.969  10.416
27122W        W88543  27.539  44.932  10.604
27123W        W88544  37.045  30.063   2.295
27124W        W88545  41.296  41.030  11.465
27125W        W88546  10.311  10.142  10.923
27126W        W88547  38.988  37.476  13.965
27127W        W88548  26.142  15.183   1.360
27128W        W88549   3.241   6.733  11.598
27129W        W88550  16.193  27.068   2.181
27130W        W88551  32.614  21.562  14.509
27131W        W88552  26.991   6.778   3.826
27132W        W88553  19.209  32.395   2.898
27133W        W88554  36.368  43.429  13.883
27134W        W88555  26.051  39.503   3.664
27135W        W88556  11.654   6.732   3.640
27136W        W88557  26.028  35.432  11.979
27137W        W88558  10.218  43.282   4.245
27138W        W88559  25.636  20.230   3.792
27139W        W88560   1.882  18.789   4.127
27140W        W88561  19.231  34.943  14.447
27141W        W88562  12.724  41.351   0.399
27142W        W88563  22.148  34.600  11.442
27143W        W88564  25.978  34.465  12.842
27144W        W88565  29.426  22.626  12.049
27145W        W88566  31.407   0.257   2.693
27146W        W88567   3.785  34.611   3.276
27147W        W88568  33.456  12.770  13.441
27148W        W88569  36.373   2.464  13.820
27149W        W88570  20.237  20.111  11.084
27150W        W88571  21.744  44.294   4.831
27151W        W88572  31.897  36.060  10.586
27152W        W88573  16.740  44.987   1.322
27153W        W88574  30.414  35.871   2.298
27154W        W88575  37.887  40.813  12.873
27155W        W88576  28.122  41.941  14.316
27156W        W88577  25.567  28.075  10.542
27157W        W88578  14.326  18.740   1.350
27158W        W88579  33.959  12.129  11.921
27159W        W88580  34.437   0.478  14.278
27160W        W88581  23.193  20.135   2.690
27161W        W88582   3.818  19.068   0.466
27162W        W88583  40.502  40.828  14.913
27163W        W88584   3.920  38.059  11.445
27164W        W88585   5.740  41.846  12.517
27165W        W88586  10.241  37.465   4.318
27166W        W88587  33.415   9.746   3.346
27167W        W88588  18.202   7.216   2.838
27168W        W88589   9.164   3.900   3.215
27169W        W88590   7.331  38.563   3.364
27170W        W88591  38.943  10.262  10.103
27171W        W88592   6.760  27.455   3.787
27172W        W88593   9.809   5.777  11.102
27173W        W88594   1.482  11.673   2.325
27174W        W88595  20.705  41.812  13.861
27175W        W88596  34.965  31.607   2.689
27176W        W88597   8.713  44.010  11.591
27177W        W88598  41.344   8.688  10.482
27178W        W88599  10.761  38.366  12.444
27179W        W88600   4.845  34.940  12.477
27180W        W88601  39.550   4.759   3.858
27181W        W88602   6.828   2.306  13.399
27182W        W88603  43.508   4.814   4.766
27183W        W88604  23.118   0.293  12.029
27184W        W88605   5.288  41.879   2.389
27185W        W88606  41.003  25.612   0.899
27186W        W88607   0.421  28.450   0.333
27187W        W88608  28.988   5.691  11.902
27188W        W88609  33.542  43.415   0.260
27189W        W88610  26.160  30.160  12.866
27190W        W88611  20.092   4.344  13.522
27191W        W88612  40.412  17.093   4.700
27192W        W88613  25.171  30.516  12.977
27193W        W88614  15.120  26.962   1.225
27194W        W88615   0.421  17.294  13.330
27195W        W88616  33.022  12.764   0.821
27196W        W88617  42.927  18.756   1.907
27197W        W88618  42.349  41.495  11.062
27198W        W88619  10.297   3.840   4.198
27199W        W88620  35.577  39.479  14.898
27200W        W88621  15.287  26.614  11.543
27201W        W88622  24.508   6.758   3.684
27202W        W88623  23.662  41.426  11.093
27203W        W88624  20.653  36.366  14.345
27204W        W88625  21.570  13.146  13.520
27205W        W88626   5.280  16.110  10.406
27206W        W88627  25.189  34.601  10.987
27207W        W88628  13.133  13.340   3.691
27208W        W88629   8.803   3.353  10.640
27209W        W88630   1.895  22.624   4.780
27210W        W88631  22.569  32.603   0.257
27211W        W88632  24.217  44.789   0.344
27212W        W88633  28.046  43.834   0.906
27213W        W88634   0.939  30.138  12.984
27214W        W88635  23.010   5.238   3.633
27215W        W88636  41.941  38.897   0.377
27216W        W88637  15.117  44.859   4.761
27217W        W88638  43.938  31.488   4.324
27218W        W88639   1.890  20.248  13.827
27219W        W88640   5.239   4.379  13.390
27220W        W88641  18.632  38.954  13.486
27221W        W88642   2.963   6.261  12.350
27222W        W88643  24.488  29.563   0.356
27223W        W88644   1.843  25.695  14.903
27224W        W88645  33.400  14.281  12.406
27225W        W88646  23.616  10.241   4.713
27226W        W88647  11.140  24.617   0.269
27227W        W88648   7.370   0.359  12.549
27228W        W88649  14.122  15.697  14.875
27229W        W88650  19.043  35.442   3.650
27230W        W88651  41.310  23.114  13.427
27231W        W88652  28.076   9.187  11.474
27232W        W88653   6.231   6.275   4.151
27233W        W88654  14.819  25.510   4.351
27234W        W88655  37.471   0.357   0.360
27235W        W88656   2.768   5.915  14.449
27236W        W88657  28.992  20.051  11.393
27237W        W88658  32.106   5.867   0.276
27238W        W88659  38.987  30.020  14.493
27239W        W88660  12.298   5.746   0.267
27240W        W88661  30.498  16.622   4.833
27241W        W88662  26.616   0.796  11.486
27242W        W88663  17.709  19.130  12.370
27243W        W88664  31.037  31.052  11.572
27244W        W88665  30.637  27.140   0.748
27245W        W88666  30.140  27.621  11.006
27246W        W88667  12.792   2.766   0.801
27247W        W88668  11.272   5.360  11.887
27248W        W88669  10.293  11.730   0.451
27249W        W88670  13.348  23.720   0.379
27250W        W88671   6.709  20.715   4.659
27251W        W88672  44.293  37.062  13.902
27252W        W88673  36.349  24.009  12.094
27253W        W88674  37.933  39.392  12.536
27254W        W88675  18.592  18.215  10.986
27255W        W88676  12.344  33.895  10.976
27256W        W88677  11.312  28.022  14.381
27257W        W88678  32.060  13.706  11.877
27258W        W88679   5.380  15.235  14.965
27259W        W88680  18.545  25.475   2.793
27260W        W88681  31.097   1.258  11.939
27261W        W88682  20.743   2.459   2.829
27262W        W88683  37.465   7.190  11.494
27263W        W88684  11.704  18.555   1.713
27264W        W88685  12.655  33.935   2.688
27265W        W88686   7.173  25.999  10.027
27266W        W88687  13.342  42.912   3.229
27267W        W88688  12.248  28.556  10.979
27268W        W88689  23.719  41.861   2.755
27269W        W88690  19.646  37.543   4.659
27270W        W88691   5.893  28.594   2.303
27271W        W88692   0.494   7.296  10.559
27272W        W88693  40.504  20.574  11.933
27273W        W88694  32.065  19.231  11.045
27274W        W88695   9.337   6.353   1.862
27275W        W88696  25.603  17.718   4.168
27276W        W88697  11.315  30.456  12.868
27277W        W88698  33.882  36.451   4.781
27278W        W88699  11.283  17.697  11.918
27279W        W88700   3.408   4.375   3.813
27280W        W88701  16.295   4.805  10.473
27281W        W88702  11.734  17.691   3.385
27282W        W88703  27.052  43.349   0.374
27283W        W88704  13.105  39.032  11.473
27284W        W88705   5.295   5.319  13.383
27285W        W88706  36.942  23.085   3.789
27286W        W88707  30.109  27.132  11.872
27287W        W88708  12.138  43.016   4.724
27288W        W88709  15.669  23.583  12.083
27289W        W88710   5.318  34.446   1.873
27290W        W88711  29.102   7.356   3.296
27291W        W88712   7.852   3.837   2.366
27292W        W88713  36.075   7.837  11.580
27293W        W88714  12.686   9.729  12.009
27294W        W88715   6.895  28.065  10.948
27295W        W88716  15.777  38.914   4.716
27296W        W88717  33.015  37.381   4.721
27297W        W88718  18.139   8.823   0.466
27298W        W88719  35.043   9.253  14.477
27299W        W88720  34.923   6.318  10.065
27300W        W88721  21.558  26.463  10.935
27301W        W88722   0.890  23.575   4.204
27302W        W88723  19.061  20.199  13.355
27303W        W88724  33.612  19.231   4.164
27304W        W88725  36.867   7.330  12.381
27305W        W88726   0.318  32.602  10.039
27306W        W88727   0.251  41.360  13.868
27307W        W88728   5.274  22.023   1.886
27308W        W88729  44.364  26.658   9.996
27309W        W88730  23.557  11.365  10.564
27310W        W88731  43.482  20.559   3.244
27311W        W88732  38.871   4.314  13.849
27312W        W88733  10.685  25.502   3.738
27313W        W88734  32.025  17.801  12.827
27314W        W88735  41.382  37.849  10.467
27315W        W88736  34.428   6.236  14.867
27316W        W88737  22.995  39.376   4.203
27317W        W88738  13.204  11.260   2.705
27318W        W88739   6.277   3.276  12.998
27319W        W88740  21.105   4.838  10.072
27320W        W88741  40.479  14.305   0.460
27321W        W88742  42.356  29.616  14.796
27322W        W88743   4.416  31.968   0.767
27323W        W88744  17.579  24.108  10.981
27324W        W88745  12.284  16.209   0.470
27325W        W88746  16.236  16.594   1.448
27326W        W88747  27.489   5.216   1.819
27327W        W88748  24.676  26.090   2.698
27328W        W88749  44.326  32.888   4.748
27329W        W88750  12.163  16.319  10.628
27330W        W88751  10.857  37.351  14.784
27331W        W88752  20.738  16.642   2.860
27332W        W88753   2.889   0.870  12.951
27333W        W88754  23.642  25.164   0.836
27334W        W88755   7.878  18.738   4.281
27335W        W88756  30.928  29.517  14.009
27336W        W88757  41.043  38.069  14.001
27337W        W88758   5.807  10.373  13.329
27338W        W88759  10.377   6.868  13.371
27339W        W88760   4.815  37.566   0.286
27340W        W88761  13.306   9.389   3.639
27341W        W88762  27.549   7.698  13.313
27342W        W88763  12.854  24.009  11.598
27343W        W88764  21.062  19.648  14.509
27344W        W88765   9.284   5.869  11.424
27345W        W88766   0.483  33.532  14.308
27346W        W88767  29.147  23.564  14.478
27347W        W88768   9.877   5.857   0.751
27348W        W88769  26.049  12.733   2.873
27349W        W88770  15.171  36.496   3.147
27350W        W88771  35.558   2.410  13.863
27351W        W88772  12.162  16.737   3.755
27352W        W88773  36.405  29.648   3.743
27353W        W88774  30.653  38.456  11.541
27354W        W88775   9.390  26.071  13.539
27355W        W88776  41.850  42.915  12.833
27356W        W88777  33.108  33.570  11.425
27357W        W88778  32.507  37.063   3.821
27358W        W88779  15.132  34.413  11.909
27359W        W88780  31.148  32.107  15.000
27360W        W88781  41.348  10.288   0.861
27361W        W88782  42.974  19.188   4.653
27362W        W88783  19.674   9.843   2.706
27363W        W88784  40.486  19.575  13.882
27364W        W88785   4.445  25.185   3.210
27365W        W88786  36.064   5.773   3.800
27366W        W88787   1.242  36.922  14.405
27367W        W88788  41.502  37.966  13.951
27368W        W88789  30.476   3.849   1.351
27369W        W88790  26.122  14.269   0.904
27370W        W88791  14.735   4.242  12.949
27371W        W88792  24.569  19.545   0.880
27372W        W88793   0.925   3.375   0.789
27373W        W88794  29.024  42.780   4.132
27374W        W88795  38.416  25.998  11.379
27375W        W88796  16.166  28.173   9.994
27376W        W88797  26.531  22.519   0.297
27377W        W88798  17.282  11.835   3.752
27378W        W88799  19.261   6.707  10.132
27379W        W88800   3.941  28.578   1.232
27380W        W88801  13.211  41.850  10.625
27381W        W88802  34.023   3.440  12.003
27382W        W88803  23.200   7.171  11.588
27383W        W88804  19.130   4.734   4.163
27384W        W88805  25.640  26.483  11.864
27385W        W88806  23.622  11.176  12.894
27386W        W88807   4.219  33.019   4.247
27387W        W88808  40.383   4.781   1.813
27388W        W88809  41.406   9.769   2.318
27389W        W88810  17.188  10.633   1.780
27390W        W88811  12.642   6.272  11.503
27391W        W88812  34.930  23.995   1.253
27392W        W88813   6.879  42.471   0.378
27393W        W88814  38.546  27.497   3.863
27394W        W88815  38.462  16.636   4.623
27395W        W88816  27.957  31.486   4.230
27396W        W88817  40.915   6.820  11.434
27397W        W88818   7.890  36.878   4.184
27398W        W88819  37.912  16.581  11.482
27399W        W88820  22.584  28.568  10.907
27400W        W88821  41.846  43.382  13.509
27401W        W88822  22.220  16.689  10.994
27402W        W88823  24.011  23.020   1.745
27403W        W88824  31.096  33.491  10.406
27404W        W88825  14.670   9.365   0.883
27405W        W88826  19.240  28.978   0.326
27406W        W88827  18.284  44.976  12.465
27407W        W88828  13.636  15.799  13.795
27408W        W88829  37.908   8.403  13.041
27409W        W88830  15.729  38.900   9.954
27410W        W88831  42.318   6.839  10.418
27411W        W88832  30.047  15.732   5.209
27412W        W88833  29.090  23.649   0.337
27413W        W88834  40.426   6.251   1.931
27414W        W88835  30.086  20.162   1.858
27415W        W88836  44.494   6.405  13.797
27416W        W88837  35.094  26.174   4.142
27417W        W88838  32.965  12.802   3.832
27418W        W88839  14.207   9.699   4.646
27419W        W88840  10.668  22.614   4.332
27420W        W88841  13.245  10.258   5.088
27421W        W88842  30.106  21.652  12.004
27422W        W88843  19.538  42.807  14.940
27423W        W88844   9.880   6.839   0.474
27424W        W88845  34.412   0.943  13.913
27425W        W88846   3.854  24.216   3.643
27426W        W88847  13.231   1.383  14.317
27427W        W88848  27.144  39.367  12.015
27428W        W88849  16.232   6.362  12.479
27429W        W88850   6.248  13.644  14.823
27430W        W88851  14.668  26.164   3.657
27431W        W88852   2.351  35.966   0.897
27432W        W88853  28.029   7.211  14.349
27433W        W88854  39.407  31.122  12.531
27434W        W88855  35.889  20.540  14.885
27435W        W88856  12.709  13.717   3.675
27436W        W88857  37.357   8.734   4.290
27437W        W88858  35.541   5.781  10.568
27438W        W88859  39.997  25.636  12.866
27439W        W88860  40.310  35.465  10.545
27440W        W88861  11.179  31.011   4.756
27441W        W88862   2.395  33.581  13.878
27442W        W88863   8.718  12.768  13.869
27443W        W88864  12.643   2.258  13.540
27444W        W88865  21.602  26.643  13.490
27445W        W88866  27.510  37.890  13.863
27446W        W88867  40.530  37.985   2.281
27447W        W88868  28.679  42.882   1.323
27448W        W88869  35.934  16.754  12.949
27449W        W88870  27.142  18.791   3.779
27450W        W88871   7.274   2.422  12.553
27451W        W88872  32.509  31.600  12.889
27452W        W88873  11.369  44.884   0.939
27453W        W88874   1.864   7.829  11.117
27454W        W88875   3.883  23.990  14.444
27455W        W88876  17.091  40.815   4.795
27456W        W88877  36.936  33.461  12.577
27457W        W88878  10.174  21.098   1.294
27458W        W88879  23.614  40.850   1.228
27459W        W88880  17.585  26.059   1.741
27460W        W88881  37.574   2.394   5.298
27461W        W88882  28.561  20.056   4.275
27462W        W88883  13.775  40.924  13.952
27463W        W88884  21.101  43.889   1.254
27464W        W88885   4.813  27.557   4.660
27465W        W88886  36.986  44.381  12.996
27466W        W88887  42.448  40.015  12.995
27467W        W88888   3.923  21.709   3.830
27468W        W88889  19.089  17.614  13.049
27469W        W88890  26.046  40.932   2.292
27470W        W88891  34.033  11.347   9.594
27471W        W88892  22.543  38.880  13.341
27472W        W88893  26.136  29.600  11.076
27473W        W88894  32.411  21.660  11.101
27474W        W88895  18.746  26.548   1.323
27475W        W88896  20.272  18.614  11.960
27476W        W88897  40.321  17.713   1.287
27477W        W88898  25.217  28.543   3.277
27478W        W88899  12.166   5.908   0.804
27479W        W88900  42.304  43.926   2.260
27480W        W88901  16.152  42.015   1.816
27481W        W88902   1.309  26.462  13.793
27482W        W88903   3.370  12.296   1.321
27483W        W88904   0.490  43.768   3.777
27484W        W88905  40.525  26.477  12.398
27485W        W88906  29.544  44.793   3.775
27486W        W88907  25.582  21.103  10.455
27487W        W88908  34.596  11.744   2.328
27488W        W88909  44.474  27.464  10.574
27489W        W88910  28.540   3.348   1.765
27490W        W88911  40.898  24.538  10.533
27491W        W88912   5.230  43.795  12.974
27492W        W88913  30.921   1.410  13.812
27493W        W88914  23.154  13.681  10.628
27494W        W88915  19.537  36.482  11.087
27495W        W88916  28.642   5.380  14.875
27496W        W88917  17.087  11.319  11.415
27497W        W88918  39.836   7.269   1.832
27498W        W88919  36.518   9.282   0.293
27499W        W88920  39.324   5.690   1.288
27500W        W88921  21.738  20.266   3.831
27501W        W88922  33.416  32.392  10.406
27502W        W88923  12.281  29.058   4.838
27503W        W88924  10.177   8.198   5.113
27504W        W88925  32.577  17.767   4.713
27505W        W88926  32.485  20.646   1.421
27506W        W88927  10.365  23.026  13.315
27507W        W88928   8.665  31.054  14.283
27508W        W88929  11.324  35.103  11.605
27509W        W88930  39.858  44.893  13.368
27510W        W88931  30.443  21.072  14.299
27511W        W88932  25.082   6.712   3.728
27512W        W88933  13.842  41.874  13.913
27513W        W88934  23.711   2.466   0.243
27514W        W88935  11.151  25.527   0.823
27515W        W88936  26.047   1.324   4.338
27516W        W88937   8.208  28.609  12.578
27517W        W88938  14.100  39.475  14.501
27518W        W88939  42.840   5.246   4.767
27519W        W88940   5.754  29.665   2.384
27520W        W88941  29.632   9.782   2.699
27521W        W88942  21.048  35.519  11.007
27522W        W88943  12.672  34.544  14.822
27523W        W88944  22.147  12.663   0.326
27524W        W88945  39.500  37.444   0.446
27525W        W88946  13.744  39.930   4.636
27526W        W88947  10.860  34.397   4.269
27527W        W88948  37.467  40.954  10.478
27528W        W88949  30.935  14.132   4.601
27529W        W88950  21.040  33.578   3.300
27530W        W88951  20.182  43.330  11.866
27531W        W88952  37.352  13.762   0.790
27532W        W88953   6.222  44.494  13.445
27533W        W88954  10.779   0.273   4.310
27534W        W88955  40.018  25.105   2.743
27535W        W88956   5.687   0.392  11.066
27536W        W88957  32.552  20.712   4.734
27537W        W88958   0.920   4.436   2.207
27538W        W88959   6.223  27.015   2.891
27539W        W88960  22.615  12.289  14.374
27540W        W88961  30.952   6.782   3.817
27541W        W88962   3.215  34.996  11.092
27542W        W88963  32.535   9.261   2.307
27543W        W88964  38.976  24.164  12.938
27544W        W88965  25.113   3.734  11.570
27545W        W88966  35.862   0.252   2.810
27546W        W88967  19.588  12.763  12.907
27547W        W88968  43.012  19.625  11.450
27548W        W88969  11.837  16.115   0.406
27549W        W88970  18.600  22.509   3.629
27550W        W88971  36.379  10.371  11.919
27551W        W88972  20.057  41.016   4.701
27552W        W88973  15.816  24.173   0.900
27553W        W88974  44.825  16.603  14.344
27554W        W88975   1.371  23.225   4.681
27555W        W88976  14.639   0.865   2.826
27556W        W88977  44.447  28.603   5.317
27557W        W88978  17.585  16.735  12.422
27558W        W88979  20.040  44.347  13.976
27559W        W88980  28.177  34.950  10.579
27560W        W88981  40.453   6.363   1.392
27561W        W88982  23.192  13.670  14.968
27562W        W88983  19.558  39.442   2.275
27563W        W88984   8.374  26.017   3.168
27564W        W88985  12.755  21.656  13.887
27565W        W88986  41.965  44.005   3.317
27566W        W88987  32.430  36.550  11.593
27567W        W88988   2.857   3.775  12.884
27568W        W88989  22.101  27.981  14.480
27569W        W88990  33.602  16.133   4.833
27570W        W88991   1.368  37.889  11.479
27571W        W88992  16.131  43.788   1.934
27572W        W88993   4.924   0.899  13.032
27573W        W88994  32.438   2.247   1.808
27574W        W88995  14.731  30.160   3.755
27575W        W88996  36.852  18.572   1.925
27576W        W88997  44.496  15.235  10.113
27577W        W88998  22.688  16.095  13.063
27578W        W88999  15.628  39.929   1.272
27579W        W89000  17.129   7.194   3.744
27580W        W89001  11.145  44.808   1.292
27581W        W89002  27.083  28.962   1.762
27582W        W89003  35.586   8.290   2.880
27583W        W89004  37.996   8.806  12.453
27584W        W89005  29.157   8.845   4.217
27585W        W89006   1.934  25.158   0.768
27586W        W89007  27.582  37.911  14.462
27587W        W89008  43.010  15.674   3.832
27588W        W89009  37.531  12.120  14.967
27589W        W89010  29.441   1.963  10.004
27590W        W89011  11.372  35.392   3.781
27591W        W89012  38.346   1.386  13.885
27592W        W89013  11.301  38.850   2.746
27593W        W89014   3.875   8.682  11.903
27594W        W89015   9.246  15.176   3.191
27595W        W89016   3.922  35.965   0.960
27596W        W89017   1.807  17.563   4.740
27597W        W89018  15.620  35.507   1.268
27598W        W89019  21.233  16.090  11.003
27599W        W89020  43.877   7.249   1.376
27600W        W89021  23.635  10.183   1.777
27601W        W89022  39.465  21.035  12.541
27602W        W89023  43.945  28.955  13.050
27603W        W89024  31.935  32.059  10.138
27604W        W89025  34.026  36.571  10.411
27605W        W89026  35.102  14.737   3.217
27606W        W89027  12.850  17.151   2.744
27607W        W89028  12.179  24.546   4.763
27608W        W89029  25.472  13.284  10.644
27609W        W89030   3.832  11.249   4.178
27610W        W89031   6.801  26.196   0.328
27611W        W89032  16.123  39.429  10.967
27612W        W89033   1.954  23.114  11.890
27613W        W89034   7.748  36.382   4.806
27614W        W89035  20.601  20.690   2.226
27615W        W89036  37.447  42.894  10.574
27616W        W89037  22.632  42.304  10.635
27617W        W89038  32.487  38.475  12.349
27618W        W89039   3.729  27.662  11.022
27619W        W89040  25.691  25.138  13.867
27620W        W89041  12.720   0.341   3.179
27621W        W89042  20.564  20.679  12.350
27622W        W89043  39.369  31.578   4.732
27623W        W89044  41.465  28.107   5.147
27624W        W89045  11.836   6.186   1.265
27625W        W89046  12.312  12.192   2.868
27626W        W89047  40.038  22.672   1.833
27627W        W89048  34.496   1.425  11.930
27628W        W89049   8.318   2.438   2.713
27629W        W89050  27.496  24.154  13.018
27630W        W89051   2.260  20.116  12.498
27631W        W89052  27.655  25.128  13.984
27632W        W89053  42.294   1.861  14.798
27633W        W89054  27.150   0.350   0.799
27634W        W89055  21.104  38.046  13.973
27635W        W89056  15.084   6.734  14.276
27636W        W89057  34.004  11.862   3.241
27637W        W89058  35.495  37.347   2.351
27638W        W89059   3.338  43.334   0.439
27639W        W89060   8.747  11.368  12.562
27640W        W89061  40.356  37.398   0.293
27641W        W89062  13.693  14.158  10.471
27642W        W89063  10.362  23.705   2.774
27643W        W89064   7.359  11.807  11.047
27644W        W89065   5.302  30.014  11.042
27645W        W89066  36.400  35.570   4.182
27646W        W89067  39.399  30.959   1.311
27647W        W89068  21.113  35.403   1.424
27648W        W89069  36.532  13.124  12.367
27649W        W89070  35.433  37.566   2.857
27650W        W89071  16.164  20.615  11.539
27651W        W89072  20.095  11.189   4.125
27652W        W89073  20.751  40.836  14.839
27653W        W89074  41.492  37.049  12.841
27654W        W89075  30.657  29.168  13.040
27655W        W89076   9.704   0.858   2.879
27656W        W89077  11.734  42.313  12.370
27657W        W89078  10.875  31.044  12.941
27658W        W89079  15.730  11.290   4.669
27659W        W89080   0.311  21.519  13.815
27660W        W89081  41.851  38.862   4.301
27661W        W89082  40.440   3.847  11.938
27662W        W89083  19.095  34.415   4.671
27663W        W89084  30.910  14.266   1.912
27664W        W89085  30.944  34.916  10.430
27665W        W89086   8.724  12.301   2.400
27666W        W89087  21.546  28.565   1.317
27667W        W89088  13.775  30.091  11.426
27668W        W89089  13.744   7.221   4.152
27669W        W89090   9.646  12.781   0.306
27670W        W89091   4.870  15.804  10.519
27671W        W89092   0.981  14.626   3.283
27672W        W89093  14.755  27.190  14.422
27673W        W89094  32.536  31.586  14.805
27674W        W89095  13.106  41.383   1.430
27675W        W89096  42.966  11.867  14.319
27676W        W89097  43.943  34.995   4.249
27677W        W89098  24.528  40.472   0.795
27678W        W89099  21.573  43.440   3.662
27679W        W89100   1.731  32.120  11.408
27680W        W89101  31.915  11.866   0.946
27681W        W89102  36.400   0.404   2.765
27682W        W89103  12.791  30.958  14.017
27683W        W89104  38.050  29.591  13.519
27684W        W89105  42.521  32.494  13.806
27685W        W89106  26.639  42.352  10.154
27686W        W89107   8.373  23.667   4.173
27687W        W89108  31.898  13.170  11.601
27688W        W89109   8.744  26.537   9.994
27689W        W89110   9.272  37.905  13.935
27690W        W89111  17.089   7.839   4.143
27691W        W89112   3.333   0.382  10.934
27692W        W89113  37.940  21.739   1.831
27693W        W89114  33.553  39.511   4.268
27694W        W89115  14.663  13.684  13.013
27695W        W89116  44.351  18.650   1.935
27696W        W89117  31.596  40.972   1.724
27697W        W89118  17.567  40.032   3.638
27698W        W89119  15.682  27.097  10.463
27699W        W89120  20.666  35.502  10.419
27700W        W89121  44.410  39.938   3.853
27701W        W89122   1.874  17.074  12.027
27702W        W89123   8.769  18.178  12.570
27703W        W89124  41.990  36.503   1.423
27704W        W89125  32.578  17.286   0.444
27705W        W89126  40.978  14.274   2.367
27706W        W89127   6.779  23.507  11.032
27707W        W89128  10.153  37.519   1.825
27708W        W89129  25.559  34.375  14.766
27709W        W89130   1.423  43.925  13.794
27710W        W89131   7.211  24.675   0.425
27711W        W89132   0.266  24.519  14.887
27712W        W89133   1.326  33.560   0.465
27713W        W89134  41.531  29.472   0.369
27714W        W89135   3.922  27.605  14.343
27715W        W89136  17.283  15.191  10.923
27716W        W89137  15.327  31.550  11.005
27717W        W89138  33.531  23.201   3.761
27718W        W89139   3.811  14.752   2.217
27719W        W89140   8.399  24.100  14.302
27720W        W89141  14.757  12.216   2.867
27721W        W89142  32.530  44.491  10.549
27722W        W89143  38.423   2.459  14.905
27723W        W89144  31.068   6.323   0.926
27724W        W89145  13.730  29.070  13.411
27725W        W89146   5.757  31.637   1.710
27726W        W89147   8.180   2.780   3.202
27727W        W89148  34.461  19.706  14.483
27728W        W89149  42.352  15.821  13.934
27729W        W89150  17.166  19.719  14.372
27730W        W89151  28.500  18.063  14.483
27731W        W89152   7.865   7.715   0.950
27732W        W89153  24.703  37.974  11.858
27733W        W89154  29.037  41.376   0.796
27734W        W89155  11.738  38.899  11.591
27735W        W89156   6.854   6.902   4.182
27736W        W89157  36.889  40.932   2.232
27737W        W89158  10.234  32.114   3.704
27738W        W89159   0.858  14.649   0.935
27739W        W89160  21.525  16.689   2.703
27740W        W89161   1.347   2.437  11.068
27741W        W89162   9.722  25.968  11.921
27742W        W89163  14.801  34.598  11.514
27743W        W89164  40.382  16.654   1.892
27744W        W89165  42.928   7.301  11.546
27745W        W89166  35.878  29.018   0.940
27746W        W89167  23.078   0.492  10.452
27747W        W89168  26.651  25.585   1.739
27748W        W89169   3.306  44.501  14.993
27749W        W89170  44.822  20.185   4.290
27750W        W89171  16.288  17.574  12.907
27751W        W89172  32.573   4.930  12.459
27752W        W89173  39.863  37.899  13.526
27753W        W89174  27.155  12.847  13.483
27754W        W89175  23.017   3.900   4.813
27755W        W89176   3.921  17.113  10.987
27756W        W89177  12.647   3.237   4.329
27757W        W89178  37.917  36.047   1.786
27758W        W89179  13.618   2.412  12.564
27759W        W89180  24.200  37.491   4.127
27760W        W89181  35.462  41.795   4.656
27761W        W89182  15.758  40.799   3.282
27762W        W89183  18.775   4.355  10.892
27763W        W89184  41.491  41.929   1.431
27764W        W89185  34.033  37.013   3.322
27765W        W89186  22.740  29.077   2.370
27766W        W89187   1.352  41.377  11.594
27767W        W89188  42.521   0.326   3.667
27768W        W89189  14.189   5.760  10.447
27769W        W89190   8.820  31.147   1.874
27770W        W89191  40.462  35.913  12.545
27771W        W89192  40.017  28.104   1.818
27772W        W89193   2.869   0.851  12.404
27773W        W89194  15.771  34.395  12.453
27774W        W89195  16.180  29.089  10.561
27775W        W89196  19.274  18.271   3.785
27776W        W89197  36.089  10.874  14.990
27777W        W89198   0.895  29.945  12.437
27778W        W89199  25.534  20.173   2.849
27779W        W89200  28.623  11.670  14.429
27780W        W89201  25.633  23.514  13.331
27781W        W89202  38.358  10.708  12.922
27782W        W89203  22.086  40.491  12.870
27783W        W89204  17.115  31.561   2.809
27784W        W89205  38.340  20.171   3.322
27785W        W89206   1.467  35.382   1.807
27786W        W89207  44.438  44.407   0.804
27787W        W89208  38.931  36.488  13.869
27788W        W89209  29.552   5.872   2.274
27789W        W89210  15.139  15.322  11.953
27790W        W89211   9.259  43.304  12.021
27791W        W89212  25.669  14.776   4.603
27792W        W89213  26.142  21.246  10.589
27793W        W89214  39.496  11.244   1.413
27794W        W89215  13.625  14.239  14.004
27795W        W89216   6.743  33.941   1.830
27796W        W89217  44.353  20.147   2.358
27797W        W89218  15.821  42.928  10.496
27798W        W89219   3.411  33.057   1.824
27799W        W89220  33.599  12.151   0.334
27800W        W89221   9.184   5.732   4.257
27801W        W89222  41.305  17.207   2.873
27802W        W89223  32.554  12.343   2.663
27803W        W89224  11.238  24.070   1.828
27804W        W89225  41.513  38.377   0.884
27805W        W89226  10.341   9.820   0.278
27806W        W89227  22.506  42.381  14.404
27807W        W89228   4.432  23.527   1.351
27808W        W89229  12.697   3.315  11.900
27809W        W89230  38.996  27.512  11.935
27810W        W89231   3.259  11.139   4.647
27811W        W89232  44.991   8.666  11.511
27812W        W89233  24.550  20.115   1.441
27813W        W89234  22.119  44.009  11.983
27814W        W89235  39.930   5.697   3.279
27815W        W89236   0.844  10.866  11.872
27816W        W89237  35.534  33.063   3.255
27817W        W89238  24.594  28.151  13.830
27818W        W89239   2.822  23.127  11.469
27819W        W89240  24.664  26.027   4.317
27820W        W89241  30.044  39.375  12.057
27821W        W89242  33.940  16.098  13.315
27822W        W89243   9.296  26.552  13.799
27823W        W89244  39.478  26.050   2.352
27824W        W89245  30.156  16.300   0.756
27825W        W89246  13.124  31.554   3.166
27826W        W89247  19.059  27.561  14.317
27827W        W89248  17.206  18.711  10.939
27828W        W89249  27.623   4.927  11.543
27829W        W89250  41.439   2.773  12.445
27830W        W89251  33.012  39.989  11.931
27831W        W89252  15.210  20.710  10.995
27832W        W89253  36.364   7.185   4.167
27833W        W89254   4.287  34.610   3.856
27834W        W89255   1.956  37.059   2.225
27835W        W89256   5.254  16.628  10.560
27836W        W89257  14.771  26.647   3.230
27837W        W89258  38.997  26.064   1.232
27838W        W89259   2.267  22.049  11.876
27839W        W89260   9.310   7.676   4.246
27840W        W89261  17.647   6.421  10.963
27841W        W89262  24.983  36.866   3.226
27842W        W89263  39.007  34.076  12.941
27843W        W89264  15.327  33.430   2.680
27844W        W89265  23.676  31.542  12.042
27845W        W89266  34.574  20.694  14.389
27846W        W89267  34.099  19.075  14.509
27847W        W89268  30.544  39.541  12.867
27848W        W89269  14.208  27.974  14.011
27849W        W89270  22.038  15.133   3.702
27850W        W89271  14.685  14.308  13.966
27851W        W89272   3.408  25.027   2.315
27852W        W89273  39.898   0.984  11.917
27853W        W89274  40.808  28.946  13.316
27854W        W89275  43.352   5.843   1.318
27855W        W89276   9.731  11.767  11.457
27856W        W89277   4.768  15.301  12.864
27857W        W89278  44.262   8.281  12.001
27858W        W89279   2.396  42.838  14.832
27859W        W89280  33.382   7.686   9.963
27860W        W89281   3.352  41.849  12.553
27861W        W89282  38.485   6.825   1.257
27862W        W89283  11.750  12.770   9.925
27863W        W89284  26.502   5.920  13.308
27864W        W89285  16.785  21.054   0.912
27865W        W89286  21.687  15.228   4.183
27866W        W89287  32.124  29.547  11.868
27867W        W89288  34.384  13.185   3.318
27868W        W89289  43.489   0.465   1.914
27869W        W89290  16.627  23.714  13.438
27870W        W89291  23.041   0.860  14.322
27871W        W89292  38.497  24.606  13.431
27872W        W89293  32.581  13.781  10.620
27873W        W89294  37.953  14.809  11.027
27874W        W89295  38.420  15.166   3.781
27875W        W89296  30.600  14.150   0.961
27876W        W89297  30.502  24.987   4.175
27877W        W89298  20.765  19.092  10.538
27878W        W89299  30.584   7.773  11.513
27879W        W89300   6.680  37.019   0.821
27880W        W89301  11.668  32.970  12.042
27881W        W89302  18.604   3.323   0.814
27882W        W89303  34.875  15.194   3.346
27883W        W89304  43.857  25.500  13.868
27884W        W89305   9.785  32.580  11.912
27885W        W89306  36.988  26.089  13.430
27886W        W89307  21.263  16.754  11.874
27887W        W89308  32.001  29.168  13.463
27888W        W89309  11.639  25.043   5.113
27889W        W89310   2.324  23.544   4.235
27890W        W89311  30.113  19.642  13.985
27891W        W89312   5.273  40.054   4.283
27892W        W89313   4.331   4.222  10.435
27893W        W89314   4.828  37.990   4.297
27894W        W89315  22.027  19.183   0.379
27895W        W89316  39.467  27.474   3.789
27896W        W89317   7.220  36.861  12.095
27897W        W89318  15.740  16.212  14.829
27898W        W89319   1.742   5.329   3.382
27899W        W89320  24.016  27.961  11.031
27900W        W89321  21.222   4.715   4.350
27901W        W89322  41.315   0.408   0.904
27902W        W89323  42.933  42.926  12.913
27903W        W89324  23.574   6.693   1.836
27904W        W89325  31.028  16.607   4.822
27905W        W89326  14.201  27.088   2.392
27906W        W89327  12.275  29.475   3.811
27907W        W89328   5.896  31.137  11.401
27908W        W89329   8.721   3.322   1.294
27909W        W89330  27.525  15.634   0.435
27910W        W89331   7.695   2.940   3.704
27911W        W89332  15.713  21.567   2.252
27912W        W89333  35.400  27.137   3.224
27913W        W89334  23.666  23.043  11.383
27914W        W89335  12.692  14.126  11.077
27915W        W89336  20.030  35.085   3.836
27916W        W89337   2.462  14.320  10.507
27917W        W89338  12.216  14.299  14.769
27918W        W89339  40.480   0.811   1.274
27919W        W89340  14.112  39.398   2.329
27920W        W89341  40.836  25.687   2.728
27921W        W89342  34.601  19.274   4.305
27922W        W89343  39.500  27.030  10.515
27923W        W89344  10.793  37.450  13.521
27924W        W89345  34.034  43.794   2.731
27925W        W89346  38.351   9.314   0.806
27926W        W89347  18.709  11.783   2.414
27927W        W89348  31.980  37.388   0.904
27928W        W89349  42.400  36.367  14.510
27929W        W89350  35.058  20.656  12.493
27930W        W89351  15.635  39.044  11.995
27931W        W89352  31.638  22.630  14.283
27932W        W89353  22.676  36.384  11.900
27933W        W89354  25.093  27.195  14.885
27934W        W89355  39.545  30.008   3.151
27935W        W89356  17.241  26.603   0.777
27936W        W89357   5.409  14.213  13.473
27937W        W89358  19.602  41.501   3.374
27938W        W89359  27.539  31.485  11.566
27939W        W89360  17.198  14.611   1.301
27940W        W89361   2.429  31.999   3.641
27941W        W89362   1.276  10.333  13.950
27942W        W89363   7.330   9.680   4.119
27943W        W89364  18.157  39.914  11.858
27944W        W89365  35.598  25.981  12.934
27945W        W89366  41.997   8.866   9.981
27946W        W89367  32.624   3.915   2.219
27947W        W89368  25.032   8.254   4.707
27948W        W89369  32.914  26.564  14.300
27949W        W89370  32.409  38.001   1.784
27950W        W89371  13.259   6.288  11.122
27951W        W89372   8.217  11.177   3.319
27952W        W89373   0.261  43.448  13.983
27953W        W89374  18.133   0.903  13.908
27954W        W89375  34.957  19.057   2.850
27955W        W89376   0.443  13.124  13.312
27956W        W89377  10.376  35.864  11.398
27957W        W89378   6.280  18.120   0.361
27958W        W89379  16.123  38.031   0.768
27959W        W89380  41.815  20.260   2.894
27960W        W89381  39.045  43.369  11.032
27961W        W89382  10.654  14.322   3.861
27962W        W89383   3.310  32.501  13.399
27963W        W89384  28.001  37.499   5.117
27964W        W89385  40.908  25.636   0.337
27965W        W89386   6.274  41.887  14.507
27966W        W89387  37.494   0.932   3.175
27967W        W89388  26.079  25.496   3.338
27968W        W89389  32.132  37.900  12.454
27969W        W89390  29.143   6.228  11.606
27970W        W89391   5.370  20.070   1.224
27971W        W89392  32.526  12.334  13.501
27972W        W89393  27.005  16.162   1.799
27973W        W89394  38.475  27.649  13.355
27974W        W89395  19.678  21.744  11.129
27975W        W89396  25.188  38.899  12.060
27976W        W89397  37.980  14.211   1.294
27977W        W89398  41.868  18.134   3.229
27978W        W89399  10.786  35.461  14.807
27979W        W89400  32.079  30.450  10.960
27980W        W89401  42.925  10.785  10.900
27981W        W89402  28.079  18.220   1.911
27982W        W89403   3.923  18.655   2.239
27983W        W89404  23.042  38.056   4.245
27984W        W89405   3.283  12.741  12.437
27985W        W89406  10.358  14.745  12.935
27986W        W89407  18.729   8.806  10.093
27987W        W89408   5.252  44.347  13.380
27988W        W89409  19.642   1.916   3.270
27989W        W89410   7.318   0.432  13.503
27990W        W89411   9.247  30.456   3.191
27991W        W89412  22.553  11.798   0.785
27992W        W89413  44.831  14.646  12.001
27993W        W89414   3.888   5.836  14.905
27994W        W89415  30.468  30.580  11.885
27995W        W89416   1.903  25.968  11.498
27996W        W89417  21.222  35.360  12.873
27997W        W89418  21.568   4.739   2.849
27998W        W89419   3.746   1.962   9.977
27999W        W89420  12.684  43.349  14.888
28000W        W89421  16.810  28.638  14.764
28001W        W89422  13.819  28.644   0.790
28002W        W89423  17.716  30.063  10.929
28003W        W89424  42.476  31.915  13.019
28004W        W89425  38.405  20.637  14.339
28005W        W89426  12.807  16.771   2.777
28006W        W89427   4.408  20.217   2.714
28007W        W89428  42.431  11.360  12.913
28008W        W89429  42.013   8.227  12.485
28009W        W89430  36.917  10.352   2.317
28010W        W89431  32.621   1.361   3.686
28011W        W89432  23.637  19.769   0.368
28012W        W89433  28.044   6.902  13.338
28013W        W89434  24.080  23.238   2.200
28014W        W89435  24.655  22.142  13.992
28015W        W89436  34.041  31.100   0.919
28016W        W89437  39.007  35.383  13.316
28017W        W89438  39.929  20.179  11.962
28018W        W89439  43.389  14.306   3.836
28019W        W89440  12.257  41.799  14.760
28020W        W89441  30.639  38.515   3.812
28021W        W89442  43.311  38.040  13.532
28022W        W89443  43.361  12.317  13.503
28023W        W89444  43.359   2.814   1.737
28024W        W89445  38.976  20.107   1.724
28025W        W89446  24.563  32.932   4.837
28026W        W89447  22.731   1.440   4.722
28027W        W89448  25.675  26.007   0.254
28028W        W89449  21.076   3.434  11.918
28029W        W89450  18.658  42.997  10.032
28030W        W89451  42.958  12.308  10.451
28031W        W89452  40.458  32.411  12.411
28032W        W89453   8.752  43.018  14.360
28033W        W89454  25.518  26.672  11.048
28034W        W89455   8.192   7.838  10.921
28035W        W89456  32.076  30.449  12.416
28036W        W89457  13.806  31.153   2.352
28037W        W89458  24.195  40.473   2.255
28038W        W89459  40.494  22.190   1.819
28039W        W89460  15.722  41.031  13.973
28040W        W89461  36.373  39.537   3.767
28041W        W89462   0.787  19.056   0.750
28042W        W89463  18.676   0.345   3.258
28043W        W89464  15.772  14.589  10.465
28044W        W89465  21.090  44.006  11.444
28045W        W89466  26.092   4.271  14.818
28046W        W89467   8.366   8.798  10.578
28047W        W89468  36.391  44.270  12.913
28048W        W89469  26.650  25.561  14.359
28049W        W89470   6.321  18.573   2.358
28050W        W89471  26.550  36.507   0.272
28051W        W89472  28.954   3.941  12.012
28052W        W89473  29.154  38.364  14.003
28053W        W89474  42.952  13.163   5.167
28054W        W89475  13.604  34.914   3.684
28055W        W89476   2.807  28.611   3.722
28056W        W89477  10.357  26.970  12.875
28057W        W89478  28.979  44.273  14.945
28058W        W89479  28.019  26.531  14.480
28059W        W89480  20.057  43.413   3.730
28060W        W89481  21.133   3.867  12.344
28061W        W89482  35.004  35.383   1.828
28062W        W89483  36.545  18.176  13.009
28063W        W89484  20.097  40.999   4.296
28064W        W89485   9.234  13.312  12.404
28065W        W89486  38.549  21.539  13.908
28066W        W89487  22.164  30.969  10.951
28067W        W89488  11.211  19.672   5.145
28068W        W89489  22.008  13.669   4.715
28069W        W89490   4.760  34.582  10.080
28070W        W89491  24.009   5.857   1.277
28071W        W89492  37.469  13.658  14.332
28072W        W89493  13.303  27.671  11.855
28073W        W89494  27.581  35.472   0.862
28074W        W89495  10.632   8.401   4.121
28075W        W89496   7.369  25.628   0.735
28076W        W89497  35.575  30.119  13.985
28077W        W89498  26.615  39.869   1.214
28078W        W89499  44.393  38.394  12.421
28079W        W89500  33.992  13.189  14.322
28080W        W89501  24.111  37.542  11.513
28081W        W89502  44.470  19.705   2.852
28082W        W89503   0.321  32.430  12.550
28083W        W89504  21.561  41.525  11.894
28084W        W89505   2.818   4.721   3.693
28085W        W89506  37.078  37.530  13.911
28086W        W89507  39.506  30.016  14.827
28087W        W89508  42.392  21.566  11.523
28088W        W89509  22.705  20.591  13.980
28089W        W89510  34.881  33.545   4.822
28090W        W89511  19.551  37.954  13.446
28091W        W89512  34.064  11.776  13.942
28092W        W89513   5.363  39.560  13.485
28093W        W89514  37.425  19.713  13.872
28094W        W89515  27.016  24.682  11.865
28095W        W89516  44.829  16.094  14.890
28096W        W89517  16.581  30.072  11.958
28097W        W89518  26.961  16.581  14.913
28098W        W89519  20.611   4.936  13.899
28099W        W89520  39.834  32.092  13.826
28100W        W89521  34.481  13.811  10.997
28101W        W89522   6.337  44.011   0.275
28102W        W89523  37.010  42.995   2.398
28103W        W89524  29.579   1.835   0.477
28104W        W89525   3.878   6.411   9.932
28105W        W89526  27.101  18.219  12.481
28106W        W89527  44.963  17.201  12.861
28107W        W89528  28.517  13.200  11.929
28108W        W89529  26.156   5.346   3.806
28109W        W89530  42.939  42.526  10.944
28110W        W89531  29.056  43.816   4.674
28111W        W89532  22.521  43.366   3.224
28112W        W89533  17.137   8.264   4.184
28113W        W89534  33.931  25.180   3.705
28114W        W89535  29.983  41.533  14.826
28115W        W89536  14.274  20.677   3.243
28116W        W89537  30.022   6.265   4.646
28117W        W89538  39.554   7.354  13.515
28118W        W89539   8.161  10.235  13.318
28119W        W89540  33.421  44.791  11.045
28120W        W89541  22.029  39.486  14.345
28121W        W89542   3.430  20.108  11.941
28122W        W89543  35.021  14.105  12.393
28123W        W89544  27.163  16.699   1.294
28124W        W89545   0.284  43.446   2.195
28125W        W89546  14.702  29.631   3.177
28126W        W89547   6.820   8.666  12.866
28127W        W89548  32.451  41.297  14.806
28128W        W89549  38.007  12.244  11.454
28129W        W89550  15.203  32.039  12.565
28130W        W89551  43.306  16.608  11.420
28131W        W89552  21.260  22.203  11.411
28132W        W89553  11.253  40.365  11.450
28133W        W89554  15.171  42.983  10.590
28134W        W89555   7.226  25.167   3.797
28135W        W89556  42.448  38.907   4.256
28136W        W89557  13.743  31.943   2.690
28137W        W89558   8.696   1.885  13.387
28138W        W89559  27.523  32.567  14.280
28139W        W89560  35.430  22.244   3.782
28140W        W89561  15.251   2.257   0.245
28141W        W89562   2.388  21.644   2.769
28142W        W89563   0.913   7.195   3.764
28143W        W89564   0.432  30.635   3.234
28144W        W89565  22.640   8.761   0.878
28145W        W89566  41.313  20.029   0.943
28146W        W89567  22.561  13.119   0.861
28147W        W89568  25.979  40.928   0.946
28148W        W89569  18.658  43.989   3.230
28149W        W89570  27.464  33.398  12.040
28150W        W89571   4.707  14.259  13.930
28151W        W89572  24.014  43.512  12.086
28152W        W89573  22.078   8.250   4.749
28153W        W89574  16.248  44.298  10.072
28154W        W89575  21.529  29.618  10.896
28155W        W89576  31.129  30.557   4.797
28156W        W89577  44.817  24.494   1.423
28157W        W89578   9.747  42.374  14.914
28158W        W89579   0.377   4.323  11.094
28159W        W89580  27.540  35.058   2.665
28160W        W89581  12.650  15.274  13.337
28161W        W89582  39.033  29.646   4.652
28162W        W89583   5.851  41.377   3.315
28163W        W89584  44.825  20.231   2.670
28164W        W89585  35.392  25.003  13.965
28165W        W89586  36.993   9.265  11.497
28166W        W89587   7.681   7.268  11.586
28167W        W89588   2.303  34.926  14.809
28168W        W89589  30.070  40.916  11.441
28169W        W89590  28.649  29.629  10.923
28170W        W89591  30.623  41.918  10.892
28171W        W89592  30.135  14.332  11.072
28172W        W89593  22.184  42.392   1.697
28173W        W89594  14.753   2.333   2.875
28174W        W89595  11.670  27.063  13.384
28175W        W89596  24.137  42.920  10.019
28176W        W89597   6.340  36.396   0.398
28177W        W89598   9.878  34.932   1.242
28178W        W89599  43.798  39.394   1.410
28179W        W89600  29.110  41.370  14.465
28180W        W89601  19.216  16.757   4.282
28181W        W89602  20.028  41.822   2.887
28182W        W89603  42.991  20.632  12.868
28183W        W89604  16.659  34.084  11.006
28184W        W89605  11.731  36.587   1.796
28185W        W89606  11.680  28.184   1.305
28186W        W89607   3.329  37.445  10.895
28187W        W89608   4.850   7.403   3.207
28188W        W89609  40.993  18.589   3.285
28189W        W89610   6.286  42.474   2.716
28190W        W89611  13.819  40.911   4.760
28191W        W89612  33.579  30.522   1.358
28192W        W89613  26.094  22.031  14.482
28193W        W89614  37.395   5.821   2.700
28194W        W89615  40.452  39.029   0.960
28195W        W89616  33.549   6.711   4.673
28196W        W89617  16.117  38.861   0.738
28197W        W89618   3.880  31.079  10.986
28198W        W89619   9.682  30.910  10.466
28199W        W89620   2.852  42.461  10.541
28200W        W89621   2.318  29.490  14.296
28201W        W89622  38.982  13.751   1.409
28202W        W89623  29.051   7.408  13.004
28203W        W89624  31.906   6.347  14.006
28204W        W89625   6.802  21.123   4.120
28205W        W89626  37.888  30.954   3.323
28206W        W89627   3.902  40.901   1.783
28207W        W89628  44.398  18.258  14.290
28208W        W89629  24.187  29.639   3.278
28209W        W89630  24.694  17.291  14.924
28210W        W89631  32.030  43.948   0.418
28211W        W89632  40.306  40.465  10.529
28212W        W89633  30.500  23.104   0.313
28213W        W89634  41.963  43.864   2.331
28214W        W89635  23.019  10.259  13.889
28215W        W89636  34.048   4.831  11.494
28216W        W89637  11.319   0.279   2.202
28217W        W89638  18.060  30.947   4.688
28218W        W89639  37.544  35.084  13.410
28219W        W89640  15.777  28.031  14.462
28220W        W89641  35.369  41.025  10.470
28221W        W89642  24.608  26.058  13.862
28222W        W89643  26.006  10.202  12.095
28223W        W89644  15.743  22.132  13.981
28224W        W89645   6.733  22.660  13.312
28225W        W89646  18.774   5.308  12.451
28226W        W89647  19.713   9.719  14.953
28227W        W89648  12.643  14.215  13.476
28228W        W89649  18.051  11.250   1.723
28229W        W89650  22.548  41.357  13.493
28230W        W89651  31.571  44.002   0.746
28231W        W89652  39.469  25.219   3.654
28232W        W89653  37.345  38.429  13.542
28233W        W89654  13.806  24.157   0.943
28234W        W89655  12.820  17.132  14.276
28235W        W89656  22.535  15.265  14.455
28236W        W89657   3.764  43.300   1.315
28237W        W89658   1.303  38.546  10.609
28238W        W89659  24.047   4.247   0.464
28239W        W89660  29.141  14.189  14.843
28240W        W89661  23.556  27.676  14.949
28241W        W89662  25.193  17.684  11.399
28242W        W89663   9.395   1.355  13.963
28243W        W89664  29.103  32.504  10.417
28244W        W89665  43.994  27.498  10.593
28245W        W89666   1.960   3.377   1.855
28246W        W89667  12.629  13.833   4.710
28247W        W89668   0.289   9.375   4.136
28248W        W89669   7.278  34.553   2.796
28249W        W89670  11.174  40.949  11.902
28250W        W89671  14.178  19.684   3.286
28251W        W89672  40.856  28.173  12.857
28252W        W89673   7.842  32.976  12.026
28253W        W89674  37.084  44.961  12.464
28254W        W89675  24.192   6.192   2.768
28255W        W89676  25.034  13.113   4.746
28256W        W89677  23.036  43.437   4.759
28257W        W89678   0.440  40.451  12.899
28258W        W89679  16.599  34.897   2.206
28259W        W89680  10.848  15.797   1.356
28260W        W89681  14.267  31.018  12.888
28261W        W89682  19.625   5.386  12.475
28262W        W89683  17.124  17.148   0.928
28263W        W89684   7.688  11.673  12.062
28264W        W89685   6.304  23.639  11.400
28265W        W89686  26.526  39.999   3.802
28266W        W89687  21.128  29.936  11.060
28267W        W89688  12.830  30.590   0.800
28268W        W89689   0.904  40.475   4.140
28269W        W89690   2.247   2.450  12.479
28270W        W89691  23.237   7.383  14.355
28271W        W89692  18.671  14.245  12.343
28272W        W89693  17.194  13.675   1.865
28273W        W89694  35.452  38.942   0.368
28274W        W89695  10.367  41.018   3.768
28275W        W89696  16.177  15.747  13.825
28276W        W89697   4.328  12.696  10.508
28277W        W89698  25.185   6.680   0.386
28278W        W89699   1.365  31.105  12.409
28279W        W89700   6.841  40.303   5.199
28280W        W89701  11.267  20.198  10.959
28281W        W89702   9.327   7.866  13.507
28282W        W89703  43.471  14.300   4.304
28283W        W89704  13.277  26.015   4.300
28284W        W89705  24.479  32.479   1.330
28285W        W89706  11.166  10.646  14.410
28286W        W89707  12.683  35.427  14.404
28287W        W89708  37.078  24.536  13.455
28288W        W89709  38.465  37.540  13.966
28289W        W89710   3.352  29.020   4.766
28290W        W89711  22.049   8.259   1.758
28291W        W89712  25.501  10.322   3.755
28292W        W89713  36.437  19.763  14.893
28293W        W89714   3.790  10.699   0.849
28294W        W89715  41.810  40.377  13.439
28295W        W89716  41.354   7.769   2.236
28296W        W89717  43.410  30.078   3.158
28297W        W89718  13.296  23.578  10.044
28298W        W89719  29.989   7.758   0.425
28299W        W89720  12.849  29.496  11.037
28300W        W89721  28.662  16.161   1.269
28301W        W89722  27.049  29.037  11.537
28302W        W89723  26.548  27.190  14.406
28303W        W89724  23.042  18.624  11.084
28304W        W89725   9.184  31.146   2.393
28305W        W89726  42.460  28.946  13.980
28306W        W89727  20.586  21.211  11.045
28307W        W89728   7.777  33.097   3.655
28308W        W89729   7.177  32.961   1.362
28309W        W89730  13.234  23.988   3.237
28310W        W89731  24.216   6.417   3.717
28311W        W89732  37.964   8.216   3.639
28312W        W89733  17.139   7.893   2.754
28313W        W89734   8.674  31.999  10.554
28314W        W89735  29.669  20.116   0.797
28315W        W89736  44.299  22.013  13.478
28316W        W89737  11.639  12.211  10.904
28317W        W89738  14.794   1.890   1.287
28318W        W89739  17.755  13.667   5.668
28319W        W89740  35.577  20.248   0.404
28320W        W89741  41.985   0.477   2.711
28321W        W89742   9.261  29.990  11.030
28322W        W89743  43.780  32.594   2.400
28323W        W89744  27.131  13.640   3.821
28324W        W89745  24.004   5.896   2.742
28325W        W89746  37.500   6.186   0.850
28326W        W89747  38.001   4.229  13.878
28327W        W89748  36.516  23.606   4.308
28328W        W89749  16.803  29.525   2.252
28329W        W89750   0.760  23.168   4.195
28330W        W89751  29.668  26.057  10.434
28331W        W89752  13.696   0.296   1.803
28332W        W89753  26.693  33.131  12.372
28333W        W89754   5.210  23.109  12.025
28334W        W89755  13.109  29.064  14.359
28335W        W89756   4.373  11.702   4.185
28336W        W89757   3.361  27.684   2.761
28337W        W89758   1.357  42.465   0.831
28338W        W89759  40.050  26.192   1.354
28339W        W89760  39.887  41.995   2.678
28340W        W89761  19.212  29.654  13.864
28341W        W89762  26.656  41.321  10.956
28342W        W89763   9.872  22.573   4.276
28343W        W89764  22.732  33.089  13.378
28344W        W89765  25.613  15.681  10.073
28345W        W89766  43.912   7.254  13.794
28346W        W89767  12.787  43.319  13.358
28347W        W89768  19.109  15.096   5.084
28348W        W89769   7.721  29.989   2.277
28349W        W89770  26.508   0.465   0.355
28350W        W89771  17.590  24.137   4.729
28351W        W89772   8.749  28.595  11.077
28352W        W89773   4.872  43.430   0.361
28353W        W89774  33.621  28.023   4.758
28354W        W89775   2.817  26.551  12.073
28355W        W89776   4.379  30.553  13.061
28356W        W89777  28.930  39.430  10.988
28357W        W89778  26.007  31.428  14.979
28358W        W89779  11.727  27.589  11.466
28359W        W89780  14.166  13.256   4.658
28360W        W89781  33.035  20.759   0.346
28361W        W89782   1.866   1.793  12.877
28362W        W89783  43.500  26.201  14.313
28363W        W89784  23.528  40.851  14.012
28364W        W89785  38.871  33.893   4.818
28365W        W89786   2.432  28.005  11.491
28366W        W89787  44.430  34.057  12.387
28367W        W89788   1.263  14.832   3.849
28368W        W89789  14.717  37.849  11.028
28369W        W89790  25.115   3.446  13.019
28370W        W89791  10.726   2.289   1.765
28371W        W89792  20.640   9.321   3.317
28372W        W89793  32.483   5.409  11.551
28373W        W89794  15.090  15.700   3.799
28374W        W89795  34.465  36.897  13.999
28375W        W89796  13.817  15.704  10.596
28376W        W89797  15.257  12.280  14.773
28377W        W89798  12.788   3.297  14.856
28378W        W89799  38.060  27.057  11.444
28379W        W89800  19.644  27.452  12.987
28380W        W89801   2.872  26.663   2.305
28381W        W89802   5.928  32.977   4.241
28382W        W89803  14.257  13.331   2.689
28383W        W89804   5.747  32.064   1.831
28384W        W89805  12.736  43.964  13.517
28385W        W89806  14.730   5.234   2.739
28386W        W89807   2.949  25.651   1.280
28387W        W89808  23.100   5.735   0.294
28388W        W89809  27.132   1.375   1.410
28389W        W89810   3.911  40.514  11.516
28390W        W89811  17.227  18.238   0.915
28391W        W89812  31.628  41.883  14.846
28392W        W89813  34.111  35.465   3.307
28393W        W89814  21.033  25.605   0.727
28394W        W89815   2.821  15.638  11.405
28395W        W89816  36.521  12.855   2.729
28396W        W89817  17.563  30.589   1.807
28397W        W89818  27.646  19.710  12.363
28398W        W89819  36.076  44.942  13.442
28399W        W89820  11.776   0.395  11.939
28400W        W89821  39.916  21.614   1.824
28401W        W89822  41.495  19.113  14.787
28402W        W89823   9.828  18.277  14.364
28403W        W89824  16.109   2.388   2.212
28404W        W89825  42.938   1.919   2.729
28405W        W89826  20.056  30.592  10.151
28406W        W89827  42.328  14.249  13.457
28407W        W89828  41.878   5.869  12.435
28408W        W89829  17.085   8.229   3.233
28409W        W89830  20.668   4.325  14.504
28410W        W89831  20.688   4.750  13.023
28411W        W89832  28.532   7.231   0.813
28412W        W89833  16.193  30.642  14.759
28413W        W89834  10.150  41.497  11.412
28414W        W89835  40.822  25.525  14.002
28415W        W89836   7.667  21.253  11.544
28416W        W89837  23.132  43.910   3.209
28417W        W89838  44.932  26.178  14.005
28418W        W89839  30.604  26.080   3.302
28419W        W89840  10.801  26.028   0.779
28420W        W89841   4.217  20.744   1.388
28421W        W89842  25.479   3.749   0.943
28422W        W89843   6.831  34.561  11.872
28423W        W89844  40.969  35.439   2.406
28424W        W89845  34.997   6.860   3.374
28425W        W89846   6.906  40.361   4.138
28426W        W89847  41.942  28.667  11.941
28427W        W89848  16.787  19.720   0.346
28428W        W89849  27.684  18.061   0.448
28429W        W89850  13.766   9.325  11.428
28430W        W89851  17.584  20.135   2.364
28431W        W89852  12.359  19.727   3.799
28432W        W89853  32.581   7.353  11.446
28433W        W89854  21.193  20.597   3.728
28434W        W89855  29.533  21.194  12.993
28435W        W89856   3.286   8.829   3.294
28436W        W89857  12.294  44.379  11.512
28437W        W89858  34.984  25.114  14.786
28438W        W89859  26.184  12.209  12.482
28439W        W89860  25.553  15.113   4.738
28440W        W89861  37.461  20.190   3.758
28441W        W89862  42.313  19.196  13.832
28442W        W89863  37.379  23.562   4.683
28443W        W89864  43.870  25.495   4.154
28444W        W89865  32.583  38.931   9.984
28445W        W89866   8.833  31.488   4.714
28446W        W89867  16.569  20.592   1.923
28447W        W89868  39.472  35.997   4.308
28448W        W89869   6.419  24.559   0.268
28449W        W89870  25.599  22.533  10.510
28450W        W89871  10.363   3.348  13.002
28451W        W89872  26.485  41.850   1.353
28452W        W89873  14.706  19.082  10.570
28453W        W89874  32.989  30.477  12.921
28454W        W89875  17.561  17.182   2.224
28455W        W89876  22.204  32.425  12.888
28456W        W89877   4.792   4.942   9.960
28457W        W89878  38.485  39.444   0.887
28458W        W89879  16.296   0.851   3.864
28459W        W89880   1.884  35.472  13.887
28460W        W89881  17.235  15.280   0.317
28461W        W89882  30.988  41.340  12.387
28462W        W89883  35.955  35.884   2.327
28463W        W89884  23.177  37.976  12.474
28464W        W89885  35.992  40.856   0.812
28465W        W89886  40.812  41.856  10.630
28466W        W89887   8.395   2.427   1.287
28467W        W89888  17.226  31.953   4.723
28468W        W89889   2.387   1.904   4.122
28469W        W89890   1.307  44.878   3.362
28470W        W89891  23.558  20.591  14.824
28471W        W89892  23.660  10.312   2.754
28472W        W89893  14.591  30.124  11.961
28473W        W89894  40.049   1.963   2.896
28474W        W89895   8.192  11.346  10.903
28475W        W89896  22.180  26.521  12.087
28476W        W89897  31.578   6.240   1.736
28477W        W89898  27.961   5.314  11.033
28478W        W89899   0.855  28.475   0.249
28479W        W89900  44.758  26.532  11.125
28480W        W89901   1.767  33.418   5.602
28481W        W89902  24.692  18.059  14.329
28482W        W89903  16.709  13.148  10.630
28483W        W89904  43.422  22.528  10.629
28484W        W89905  29.093  12.627   0.855
28485W        W89906  40.432   2.734   2.835
28486W        W89907  34.550  18.293  13.433
28487W        W89908   3.900   0.424   3.320
28488W        W89909  22.697  40.019   4.816
28489W        W89910   2.852  12.822   4.692
28490W        W89911   1.807  24.664  13.374
28491W        W89912   1.336  28.929   1.740
28492W        W89913   0.915  11.342   3.254
28493W        W89914  40.317  11.747   1.917
28494W        W89915  40.369  36.086  13.352
28495W        W89916  35.989  33.011  12.081
28496W        W89917  42.523  18.159  14.461
28497W        W89918  43.350  26.591   9.946
28498W        W89919  32.970  32.423   2.316
28499W        W89920  39.842  13.181  11.911
28500W        W89921  42.807   5.429   2.820
28501W        W89922  15.128  15.699   3.183
28502W        W89923  33.440   0.844  10.030
28503W        W89924  34.410  26.024  12.352
28504W        W89925  13.144   3.365   0.303
28505W        W89926   8.816   0.377  13.464
28506W        W89927  44.855  20.051  11.607
28507W        W89928  16.763  42.820  12.524
28508W        W89929  18.761  17.664  12.521
28509W        W89930   8.851  13.731  14.419
28510W        W89931  21.041  38.967   4.166
28511W        W89932  37.477  37.845  12.532
28512W        W89933  40.349  38.824   1.375
28513W        W89934   9.659  27.468  13.017
28514W        W89935  21.597  33.079   4.245
28515W        W89936  33.626  29.495  14.291
28516W        W89937  28.484  36.883  11.500
28517W        W89938   8.852  20.231  12.937
28518W        W89939  13.269  19.057  13.000
28519W        W89940  24.208  14.212   5.267
28520W        W89941  24.045   0.781   1.716
28521W        W89942   2.327  22.672   3.688
28522W        W89943  36.885  43.987  10.926
28523W        W89944  27.152   0.859  13.381
28524W        W89945  14.277  25.061   2.696
28525W        W89946  24.039  13.203   1.876
28526W        W89947  22.057   5.234   0.390
28527W        W89948  39.355  34.935  12.489
28528W        W89949  30.572   6.228   2.239
28529W        W89950  14.146   1.366  13.049
28530W        W89951  37.977  13.258  10.044
28531W        W89952  15.152  13.741   4.691
28532W        W89953  38.969  34.546   2.210
28533W        W89954  21.083   9.275  14.873
28534W        W89955  25.164  33.535  14.333
28535W        W89956   1.885   0.894  10.037
28536W        W89957   7.211  38.053   9.589
28537W        W89958  37.556   2.732   0.282
28538W        W89959  18.234  15.801   1.786
28539W        W89960  11.361   8.818  14.007
28540W        W89961  21.026  37.855   1.212
28541W        W89962   1.735  30.068  13.517
28542W        W89963   9.844  33.428  11.126
28543W        W89964  33.937  33.109   1.840
28544W        W89965  35.943   9.672   2.327
28545W        W89966  40.912  32.535   0.810
28546W        W89967  26.645  31.076   2.204
28547W        W89968  40.420  21.551   2.746
28548W        W89969  35.497  26.631   0.839
28549W        W89970  34.968  22.631  11.465
28550W        W89971   3.727  13.819  11.998
28551W        W89972  37.466  43.793   4.251
28552W        W89973  33.052  14.674  12.437
28553W        W89974   4.367  26.670  14.889
28554W        W89975   9.761  22.517  12.464
28555W        W89976  38.925  32.095  10.005
28556W        W89977  43.317   6.232   3.816
28557W        W89978  29.160  30.987   1.346
28558W        W89979  22.615   6.783   0.924
28559W        W89980  38.333  35.378  14.423
28560W        W89981  11.779   2.888  14.794
28561W        W89982  21.633  17.227  11.938
28562W        W89983  39.883  17.726  11.374
28563W        W89984   0.375  43.783   3.199
28564W        W89985   3.748  29.138   4.674
28565W        W89986   7.261  26.165  14.920
28566W        W89987  32.077  18.782   2.725
28567W        W89988  43.806   3.380  14.422
28568W        W89989  32.555  41.519   3.381
28569W        W89990  33.108  13.782   1.713
28570W        W89991  20.219  17.557   1.347
28571W        W89992   8.165  29.104  10.890
28572W        W89993  23.134  42.419  12.537
28573W        W89994  16.611  39.898   1.917
28574W        W89995  15.638  21.632  14.420
28575W        W89996  20.169  18.156  13.335
28576W        W89997  26.023  18.177  12.469
28577W        W89998  13.808  26.565   0.358
28578W        W89999  19.646  16.169   1.795
28579W        W90000  11.699  43.895   3.265
28580W        W90001   7.684   1.443   4.741
28581W        W90002  12.627  26.461   2.241
28582W        W90003  43.796  31.475  14.802
28583W        W90004  13.657  35.107   0.733
28584W        W90005  28.004  33.888  12.940
28585W        W90006  37.944  11.823  11.407
28586W        W90007  40.327   0.462   1.312
28587W        W90008   1.813  26.974   0.306
28588W        W90009  37.343  30.028  12.532
28589W        W90010  33.521  33.437  10.909
28590W        W90011  44.405  43.851   0.808
28591W        W90012  14.149  14.593   2.391
28592W        W90013   9.379  31.954  12.053
28593W        W90014  27.981  23.563   1.442
28594W        W90015  30.146  42.304   1.756
28595W        W90016  34.585  17.248   3.828
28596W        W90017  30.466  35.987   1.927
28597W        W90018  13.822  25.192   3.291
28598W        W90019  22.526   8.833   3.280
28599W        W90020  21.111  25.056   2.742
28600W        W90021  42.793  25.087   1.427
28601W        W90022  17.197  16.723   3.319
28602W        W90023   8.699  18.098  14.406
28603W        W90024  13.675  24.712   3.182
28604W        W90025  34.467  39.448   4.272
28605W        W90026  17.261   0.450  13.961
28606W        W90027  16.245  29.988   5.275
28607W        W90028  33.408  17.676  12.050
28608W        W90029  23.046   7.666  10.921
28609W        W90030  14.617   3.355   1.754
28610W        W90031  21.175  16.657  11.529
28611W        W90032  40.973   7.211  14.378
28612W        W90033  31.431  16.780   4.306
28613W        W90034  36.347  22.105   0.812
28614W        W90035  18.692  32.996  14.318
28615W        W90036   5.783  44.280   2.721
28616W        W90037   3.938  10.264  10.015
28617W        W90038  13.278  40.838  11.576
28618W        W90039  28.019  26.992  14.829
28619W        W90040  20.584  33.388  11.028
28620W        W90041  34.063  26.664   3.206
28621W        W90042  17.192  11.306  13.998
28622W        W90043  17.112  42.293  12.079
28623W        W90044  29.616  32.118   1.773
28624W        W90045   0.446   5.795   4.837
28625W        W90046  32.063   1.869  10.019
28626W        W90047  19.101  38.901  12.868
28627W        W90048  23.134  37.451  13.362
28628W        W90049   6.192  26.048  11.001
28629W        W90050  43.312  26.985  12.368
28630W        W90051  22.101  22.687  13.023
28631W        W90052  38.834  28.444  10.469
28632W        W90053  38.414  24.573   3.316
28633W        W90054  35.862  27.985   1.701
28634W        W90055   8.249  24.619   1.313
28635W        W90056  30.437   3.368  10.038
28636W        W90057  10.292   4.304  10.443
28637W        W90058   6.409   7.726  14.456
28638W        W90059   1.873  23.732   0.803
28639W        W90060  35.913  11.216  14.467
28640W        W90061  18.265  44.341   1.859
28641W        W90062   4.268  39.047   2.212
28642W        W90063   2.824   6.851  13.834
28643W        W90064  18.056  28.984   3.349
28644W        W90065  40.866   4.414   3.354
28645W        W90066   0.455  30.136   4.639
28646W        W90067  24.072  21.218  10.111
28647W        W90068  16.237  29.554  12.850
28648W        W90069  11.635   6.857  13.028
28649W        W90070  41.433  33.005   3.244
28650W        W90071  19.548  27.027  11.942
28651W        W90072   1.370   1.412   3.285
28652W        W90073   4.252  25.991  10.471
28653W        W90074   2.337  19.707  10.023
28654W        W90075   6.730  21.737   3.359
28655W        W90076  14.097  44.815  12.464
28656W        W90077   6.878  33.461   1.934
28657W        W90078   4.888  16.201  14.326
28658W        W90079  41.876   7.283   2.731
28659W        W90080  41.411   6.866   3.705
28660W        W90081  41.925  31.947  12.421
28661W        W90082   1.388   3.304   0.362
28662W        W90083  40.908   8.244   2.332
28663W        W90084  29.457  15.598   1.731
28664W        W90085  39.444   1.402   2.867
28665W        W90086  22.102  12.855   2.844
28666W        W90087  43.400  11.132   1.724
28667W        W90088  17.670  15.711  13.365
28668W        W90089  13.753  18.204   4.192
28669W        W90090  30.619  40.380   3.316
28670W        W90091   9.167  40.880   0.785
28671W        W90092  29.577  41.318   1.698
28672W        W90093  34.973  15.808   3.183
28673W        W90094  21.542  37.959   1.775
28674W        W90095  30.106  16.283  11.414
28675W        W90096  44.302  23.055  12.563
28676W        W90097  37.990  14.718  13.968
28677W        W90098  11.297  25.123   3.159
28678W        W90099   0.368  41.035  10.467
28679W        W90100  17.571  43.378  14.921
28680W        W90101  17.669  17.248   0.847
28681W        W90102   5.919  32.895   3.352
28682W        W90103   8.860  16.095  11.882
28683W        W90104  18.747  17.071   3.254
28684W        W90105  20.087  39.966  12.938
28685W        W90106  27.058  38.387  11.454
28686W        W90107  16.248  33.552   2.787
28687W        W90108   6.200   1.841   3.657
28688W        W90109   1.761   9.663   0.850
28689W        W90110   8.850   6.184  13.511
28690W        W90111  31.493  29.125  12.441
28691W        W90112  42.844  28.005  13.938
28692W        W90113  20.546  39.315   2.265
28693W        W90114  12.284  23.177  11.093
28694W        W90115  41.028   9.755   4.605
28695W        W90116  25.576  14.110  11.376
28696W        W90117   3.438   9.150   4.803
28697W        W90118  17.110  32.632   9.928
28698W        W90119  13.700  31.598   2.783
28699W        W90120  16.076  24.131   2.861
28700W        W90121   4.893  24.174  11.544
28701W        W90122  44.882  28.125   4.283
28702W        W90123  27.073  25.107   0.868
28703W        W90124  20.195   6.757  11.117
28704W        W90125  23.583  26.638  13.002
28705W        W90126   6.269  40.512  11.098
28706W        W90127   5.725  28.985  14.912
28707W        W90128  37.891  17.182   0.928
28708W        W90129  36.512  31.440  10.520
28709W        W90130  30.109  40.895  11.947
28710W        W90131  27.084   3.302   1.782
28711W        W90132  26.980  17.592   3.858
28712W        W90133  20.174  24.208   2.179
28713W        W90134  27.993  12.717   1.247
28714W        W90135  26.540  22.085   1.868
28715W        W90136  32.410  22.602  10.121
28716W        W90137  36.408  35.514   0.463
28717W        W90138  37.071  39.918  11.057
28718W        W90139  29.645  40.924  12.882
28719W        W90140  23.631  18.139   1.372
28720W        W90141  25.560  13.845   0.922
28721W        W90142  17.756  22.029   2.723
28722W        W90143  16.673  24.063   0.387
28723W        W90144  15.606  18.061   2.315
28724W        W90145   4.798  23.985  14.473
28725W        W90146  22.212  12.765   1.791
28726W        W90147  23.067  27.560  10.573
28727W        W90148   0.434   8.249  13.893
28728W        W90149   9.746  43.300   4.751
28729W        W90150  29.545  43.390   2.368
28730W        W90151   4.851  12.845   1.799
28731W        W90152  10.810  19.189  13.876
28732W        W90153  11.315  13.688   1.747
28733W        W90154  21.049  38.070   2.388
28734W        W90155  26.155  36.063   2.361
28735W        W90156  12.320  30.090  12.855
28736W        W90157  15.185  23.156   4.724
28737W        W90158  24.654  43.904   1.868
28738W        W90159  13.261   3.792  11.518
28739W        W90160  18.255  12.822   1.798
28740W        W90161  18.553  17.280   0.930
28741W        W90162  43.877  23.559   1.895
28742W        W90163   0.480   2.323   4.269
28743W        W90164  39.993  12.774  11.413
28744W        W90165   4.419  19.708  10.440
28745W        W90166  30.023  23.047   0.398
28746W        W90167  21.029  37.869  12.561
28747W        W90168  37.948   6.212  14.988
28748W        W90169  12.754   1.465   1.905
28749W        W90170  44.311  19.640  13.984
28750W        W90171   1.909  15.631  12.887
28751W        W90172  33.438  16.294   3.727
28752W        W90173   3.377  39.020   0.963
28753W        W90174  41.434  40.362  13.867
28754W        W90175  22.140  31.940   4.300
28755W        W90176  33.045  11.358  10.513
28756W        W90177  13.203  19.766  11.547
28757W        W90178  31.057  26.690   0.733
28758W        W90179  39.466  28.468   4.766
28759W        W90180  24.623   1.840  12.054
28760W        W90181  30.556  31.607  13.490
28761W        W90182  25.599  36.526  12.516
28762W        W90183   6.232  35.526  12.047
28763W        W90184   3.241  16.081   4.734
28764W        W90185  31.525  11.754  13.793
28765W        W90186  32.574  11.305   2.360
28766W        W90187  16.180   2.856  12.839
28767W        W90188  44.916  29.100  13.390
28768W        W90189   8.760  14.211   3.745
28769W        W90190  23.146  30.049  13.814
28770W        W90191  23.082  34.557   0.443
28771W        W90192  35.559  31.484  12.847
28772W        W90193  33.079  38.459   2.828
28773W        W90194  33.529  18.276   1.287
28774W        W90195  37.898  32.941   4.267
28775W        W90196  30.095  15.117  14.950
28776W        W90197  29.590   0.249  13.483
28777W        W90198   1.903   0.460   0.814
28778W        W90199  16.590  38.976   0.776
28779W        W90200  18.188  22.175   3.666
28780W        W90201   0.904  19.124  11.029
28781W        W90202  22.589  34.930  14.443
28782W        W90203  24.003  19.666   3.636
28783W        W90204  19.736  36.868  13.873
28784W        W90205  25.078  26.638   4.772
28785W        W90206  26.141  17.083  13.047
28786W        W90207  23.147   2.426  10.973
28787W        W90208  21.723  26.162   2.802
28788W        W90209  27.505  29.507  14.025
28789W        W90210  34.908  12.173  12.930
28790W        W90211  29.005   3.726   0.309
28791W        W90212   2.728   7.893  11.476
28792W        W90213   6.784  36.853   2.392
28793W        W90214   1.399  13.258   1.834
28794W        W90215  22.056  44.930   2.275
28795W        W90216  25.605  13.234   4.148
28796W        W90217   5.373   0.787   3.836
28797W        W90218   0.927  22.214   2.876
28798W        W90219  38.979   5.218   1.246
28799W        W90220  28.174  17.581  11.461
28800W        W90221  32.120   1.822   1.274
28801W        W90222  12.319  22.089  13.473
28802W        W90223  30.967   6.213  10.518
28803W        W90224  41.933  41.925  11.534
28804W        W90225  44.765   9.772   3.277
28805W        W90226   3.937  35.594   0.812
28806W        W90227  22.028   6.769  13.875
28807W        W90228  41.839   0.326  10.092
28808W        W90229  36.496   2.386   1.366
28809W        W90230   9.834   3.935  11.513
28810W        W90231  36.851   4.440   2.741
28811W        W90232  14.135  12.837   2.394
28812W        W90233  12.716   2.733  13.810
28813W        W90234  40.408  38.528   4.287
28814W        W90235   1.243   5.800  14.951
28815W        W90236  28.151  10.256  14.490
28816W        W90237   9.202  22.225   2.404
28817W        W90238   9.683  43.403   1.837
28818W        W90239   0.315   7.777   0.754
28819W        W90240  12.137   3.864  10.464
28820W        W90241   8.753  33.099   0.290
28821W        W90242  33.072  44.966   0.482
28822W        W90243  44.422  17.137  14.340
28823W        W90244  16.683   4.869   1.747
28824W        W90245  23.611  17.150   4.235
28825W        W90246   2.813   2.374   0.802
28826W        W90247   1.259  36.910   4.215
28827W        W90248  15.726  11.698  11.911
28828W        W90249  26.659  31.627   4.217
28829W        W90250  11.839   9.767   3.646
28830W        W90251  28.930   1.320  14.825
28831W        W90252   2.871   9.343   0.412
28832W        W90253   1.335  32.431  14.285
28833W        W90254   2.240   0.925  10.943
28834W        W90255  13.260  24.513   2.800
28835W        W90256  29.167  22.038   1.895
28836W        W90257  40.465   1.464   3.783
28837W        W90258  30.983  11.158   4.333
28838W        W90259   5.912  37.506   3.245
28839W        W90260  36.877   3.800   1.864
28840W        W90261  28.066  32.402  11.046
28841W        W90262  35.035  19.744  10.071
28842W        W90263  39.995  29.132   3.278
28843W        W90264  24.502  12.689  14.892
28844W        W90265  35.081  32.933  10.582
28845W        W90266  21.054  30.460  11.990
28846W        W90267  10.867  36.459   1.271
28847W        W90268   3.218  38.513   4.698
28848W        W90269  24.181  32.088   0.362
28849W        W90270  30.643  15.185   2.729
28850W        W90271  32.951  11.268   2.844
28851W        W90272  22.682  12.703   0.831
28852W        W90273  19.697  30.936   0.897
28853W        W90274  26.167  42.462  11.110
28854W        W90275  40.006  41.801  11.955
28855W        W90276  41.437  19.175   4.221
28856W        W90277  24.666  43.858   2.777
28857W        W90278  41.880  39.427  13.337
28858W        W90279  23.172  20.689   3.369
28859W        W90280  32.616   8.403  14.443
28860W        W90281  42.335   7.265   3.248
28861W        W90282  32.522  31.913   3.330
28862W        W90283  35.464  32.580   1.856
28863W        W90284   1.884   4.860   1.701
28864W        W90285  32.598  28.126  11.028
28865W        W90286  35.471  11.702   2.811
28866W        W90287  16.230  22.096  14.864
28867W        W90288  41.515  20.767   4.114
28868W        W90289  40.886  25.634   2.186
28869W        W90290  16.170  20.629   3.270
28870W        W90291  29.652  43.950   1.285
28871W        W90292  24.088  10.641  13.433
28872W        W90293   2.227  21.185  13.465
28873W        W90294   0.911  40.349   2.793
28874W        W90295  37.423  27.639  11.077
28875W        W90296   2.344  10.794   3.316
28876W        W90297   4.213  17.675   4.786
28877W        W90298  29.564  25.049  12.895
28878W        W90299  16.181  34.514   1.887
28879W        W90300  33.123  44.868   1.911
28880W        W90301  29.161  28.125   4.719
28881W        W90302  23.637  17.307  13.805
28882W        W90303   5.233  31.624  11.955
28883W        W90304  18.114  35.365  10.594
28884W        W90305  13.649  31.082  14.800
28885W        W90306  20.066   9.867   1.889
28886W        W90307  24.611  31.949  12.574
28887W        W90308  32.005  15.688  13.050
28888W        W90309  35.052  42.924   4.638
28889W        W90310  26.063   9.728  14.985
28890W        W90311  43.917  31.904  10.530
28891W        W90312  33.952  18.655   2.389
28892W        W90313   4.260   6.229  13.920
28893W        W90314  24.502  35.365   1.703
28894W        W90315  18.293   6.802  14.394
28895W        W90316  32.126  32.890   2.739
28896W        W90317   7.863  25.532   0.733
28897W        W90318  19.746   5.850   2.401
28898W        W90319  12.634  44.924   3.862
28899W        W90320  10.384  24.110   3.247
28900W        W90321  15.622  15.579  11.483
28901W        W90322  35.054  33.949   0.868
28902W        W90323   0.432  10.744  11.963
28903W        W90324  31.131  22.671  13.907
28904W        W90325  29.994  19.685   1.698
28905W        W90326  31.473  39.973   3.818
28906W        W90327  10.679  30.435  12.504
28907W        W90328   7.903  25.127   3.679
28908W        W90329   0.274  22.069  14.873
28909W        W90330   9.163  16.114   1.909
28910W        W90331  11.331  15.307  13.356
28911W        W90332  23.512  16.615   0.728
28912W        W90333  36.901  31.137  11.411
28913W        W90334  10.791  40.995  10.888
28914W        W90335   0.753   4.743   2.226
28915W        W90336   9.360  15.131  13.820
28916W        W90337  24.705  32.009  14.026
28917W        W90338  33.004  18.210   3.846
28918W        W90339  41.490  18.776   1.897
28919W        W90340   6.419  24.197  14.488
28920W        W90341  10.730  44.830   2.749
28921W        W90342  20.073   9.712   3.752
28922W        W90343  44.490  20.125  13.931
28923W        W90344  38.967  31.898  13.478
28924W        W90345  33.497  13.341   1.374
28925W        W90346  41.930  38.018  12.455
28926W        W90347  27.567   5.243  12.397
28927W        W90348  28.126   9.831  12.892
28928W        W90349   5.694  31.109   2.715
28929W        W90350   5.418  32.578   0.849
28930W        W90351  16.113  23.526  11.549
28931W        W90352  31.906  40.857  12.355
28932W        W90353  37.511  19.620  10.097
28933W        W90354   7.873  17.142   2.782
28934W        W90355  17.159  43.873  10.161
28935W        W90356  39.920  31.588   1.846
28936W        W90357  15.783   6.920   0.318
28937W        W90358  29.469  42.803   4.126
28938W        W90359  33.470  18.646  12.493
28939W        W90360  15.765  15.721  12.406
28940W        W90361  38.994  38.057   4.719
28941W        W90362   4.235  37.943   4.279
28942W        W90363  39.509  10.223  10.578
28943W        W90364  26.700  42.026   4.627
28944W        W90365  24.533  39.823   1.826
28945W        W90366  26.597  33.391   2.247
28946W        W90367   8.224   2.944   2.346
28947W        W90368  20.133  23.015   1.289
28948W        W90369  24.627  12.811   0.914
28949W        W90370  34.408  28.675  12.002
28950W        W90371  40.827  36.851  12.514
28951W        W90372   4.377  11.834   1.787
28952W        W90373  36.491  14.792  11.609
28953W        W90374  44.989  43.273   0.920
28954W        W90375  11.171  35.505   4.655
28955W        W90376  36.012  35.034  12.397
28956W        W90377   4.801  29.615   1.414
28957W        W90378  14.782  29.588   4.295
28958W        W90379   7.310  10.739   1.308
28959W        W90380  30.924  43.876   1.783
28960W        W90381  41.460  17.593   2.394
28961W        W90382   5.726  36.956   9.577
28962W        W90383  10.198  32.461  12.518
28963W        W90384  16.078  36.925  13.880
28964W        W90385  35.029  33.941   2.312
28965W        W90386  24.162  18.725   0.268
28966W        W90387  15.311  36.451   1.237
28967W        W90388  20.134  27.024  11.952
28968W        W90389  19.193  42.916  12.835
28969W        W90390  37.576  33.993   2.279
28970W        W90391   7.831  24.688   0.246
28971W        W90392  12.195  34.051   3.746
28972W        W90393  16.101   6.417  12.830
28973W        W90394  42.808  41.860  14.920
28974W        W90395   9.301   7.370   2.326
28975W        W90396  18.552  17.199  12.488
28976W        W90397  31.442   4.771  12.092
28977W        W90398   0.747  23.222   0.353
28978W        W90399  20.247   2.738   2.682
28979W        W90400  19.658   3.738  14.961
28980W        W90401  22.654   3.926  13.932
28981W        W90402  12.155  29.666   1.359
28982W        W90403  26.481   8.186   3.175
28983W        W90404  41.804  36.545  11.062
28984W        W90405  29.460  25.985  14.491
28985W        W90406  31.970  27.004   2.253
28986W        W90407   2.888  24.981  11.908
28987W        W90408  37.482  27.185  12.372
28988W        W90409  28.591  20.274  10.444
28989W        W90410   4.875   9.861   3.157
28990W        W90411  21.162  16.176  14.920
28991W        W90412  36.841  17.650  14.785
28992W        W90413  30.437  20.201   4.216
28993W        W90414  21.609  14.703  12.856
28994W        W90415  10.822  41.349  11.900
28995W        W90416   6.209  39.530   5.579
28996W        W90417  19.548   5.796   4.737
28997W        W90418   0.268  21.673   4.187
28998W        W90419  29.448   7.707   1.295
28999W        W90420  16.297   2.865  11.431
29000W        W90421  26.694  44.364   1.308
29001W        W90422  38.380  39.410   1.732
29002W        W90423  30.630  14.786   2.389
29003W        W90424  11.726   2.916   1.217
29004W        W90425  19.766  37.022   0.327
29005W        W90426  19.188  29.976   2.734
29006W        W90427   7.345  14.097  14.869
29007W        W90428  20.114  38.330  11.434
29008W        W90429  39.350  28.085   3.291
29009W        W90430   8.342  14.630   2.303
29010W        W90431   6.240  42.839   1.415
29011W        W90432   8.193  10.358   4.329
29012W        W90433  43.359  23.087   3.792
29013W        W90434  19.257   3.933   2.266
29014W        W90435  29.563  25.148   3.678
29015W        W90436  26.567  42.960  13.385
29016W        W90437  29.658  38.344   2.180
29017W        W90438  19.647  19.052  12.358
29018W        W90439  26.191   7.698   3.312
29019W        W90440  38.851  26.042   0.733
29020W        W90441  39.533  11.331  14.924
29021W        W90442   3.765  40.020   3.240
29022W        W90443  16.607  28.979   4.717
29023W        W90444  30.502  36.085  14.458
29024W        W90445  21.715  29.471   4.612
29025W        W90446   9.655  28.629   4.741
29026W        W90447  30.527   2.467   4.799
29027W        W90448  26.149  44.336   4.313
29028W        W90449   5.892  30.448   2.242
29029W        W90450  26.126  17.709  10.436
29030W        W90451  17.305  40.799  10.120
29031W        W90452  44.426   5.881  13.999
29032W        W90453  32.520   5.905  12.419
29033W        W90454  18.109  31.044  14.286
29034W        W90455  11.663  25.638   4.702
29035W        W90456  36.851  30.426  14.284
29036W        W90457   7.813  11.137   4.620
29037W        W90458   4.215  37.528  13.345
29038W        W90459  37.915  33.600  10.429
29039W        W90460   3.733  19.231   2.226
29040W        W90461  29.617   1.377   2.775
29041W        W90462  26.208  40.323   2.687
29042W        W90463  40.381  39.941   2.734
29043W        W90464  15.312  16.093  11.014
29044W        W90465  15.616  24.177   4.350
29045W        W90466  32.952  19.770   1.358
29046W        W90467  33.534  34.931  14.281
29047W        W90468   2.958  21.685  12.027
29048W        W90469  27.600   0.477   2.327
29049W        W90470  15.582   7.254  12.841
29050W        W90471  43.814  25.529   1.735
29051W        W90472  40.024  24.513   1.871
29052W        W90473   9.714  26.193   4.204
29053W        W90474  19.583  27.076  10.566
29054W        W90475  17.572  32.886   0.866
29055W        W90476   7.326  38.382  13.405
29056W        W90477  12.847  13.214   4.183
29057W        W90478   8.218  26.987  14.841
29058W        W90479  43.360   1.457  11.603
29059W        W90480  12.242  14.189  13.443
29060W        W90481   6.902  31.614   0.253
29061W        W90482  16.744  19.256  11.413
29062W        W90483  15.325  29.056  11.995
29063W        W90484   0.762  44.917   4.631
29064W        W90485  28.656  38.489   2.723
29065W        W90486   8.246   9.836   1.744
29066W        W90487  32.630  40.382  14.811
29067W        W90488  25.124  40.474  14.761
29068W        W90489  14.192   2.262   4.294
29069W        W90490  40.958  23.664   3.208
29070W        W90491  41.954   7.404  13.052
29071W        W90492  11.255  41.821  11.939
29072W        W90493   0.849   4.906  14.498
29073W        W90494  36.842   1.919  12.570
29074W        W90495  35.055   3.253   1.366
29075W        W90496  41.519  33.491  10.577
29076W        W90497  42.807  38.869   2.203
29077W        W90498  41.039   8.236  14.998
29078W        W90499   7.781  13.156  13.941
29079W        W90500  42.324  44.331  14.928
29080W        W90501   2.898   9.831   3.305
29081W        W90502  41.346  29.949  10.536
29082W        W90503  35.096  23.040  10.907
29083W        W90504   3.929  30.164  14.922
29084W        W90505  36.449  31.501  14.830
29085W        W90506  38.504  15.651   0.255
29086W        W90507   1.747  37.070   2.813
29087W        W90508   5.417  10.796   0.441
29088W        W90509  38.049   7.295   4.824
29089W        W90510   2.772  29.156   4.664
29090W        W90511  17.597  17.559  11.560
29091W        W90512   1.955  27.585  11.100
29092W        W90513  10.370   9.212   3.167
29093W        W90514  14.321  29.957   0.730
29094W        W90515  37.987   3.738   5.239
29095W        W90516  14.113  32.406   3.668
29096W        W90517  35.410  10.814  11.500
29097W        W90518  43.839  19.233  11.404
29098W        W90519  41.363  16.078  11.962
29099W        W90520  10.176  15.609  13.873
29100W        W90521  28.542  29.518   0.820
29101W        W90522  32.578  27.674  13.497
29102W        W90523  39.846  26.101   3.746
29103W        W90524  32.555   1.953  12.073
29104W        W90525  36.565   5.371  10.577
29105W        W90526  24.036  41.378   4.198
29106W        W90527  14.743  23.647  12.046
29107W        W90528   1.922   4.334  14.313
29108W        W90529  28.459  42.281  13.459
29109W        W90530  15.732  39.984  14.476
29110W        W90531  39.946   6.415   0.916
29111W        W90532   3.767  18.699   0.479
29112W        W90533  19.779  27.498   3.647
29113W        W90534  21.261  39.419  14.470
29114W        W90535  27.557  36.913  11.896
29115W        W90536  29.597   9.375  13.509
29116W        W90537  40.421  29.985  10.645
29117W        W90538   3.780  31.065   2.273
29118W        W90539   3.345  34.583   1.848
29119W        W90540  42.330  20.625   0.417
29120W        W90541   7.669  18.275   2.243
29121W        W90542  24.672  23.651   2.893
29122W        W90543  31.993   0.248  14.473
29123W        W90544  20.096  26.956   2.881
29124W        W90545  28.615  19.211  11.965
29125W        W90546  41.975  40.376  13.975
29126W        W90547  19.180  31.539   2.884
29127W        W90548   9.805  29.055   0.274
29128W        W90549  39.529  43.499   4.745
29129W        W90550  13.812   6.260   0.422
29130W        W90551  22.183  10.865   0.803
29131W        W90552  20.232  15.678   0.328
29132W        W90553   7.199  11.720   4.608
29133W        W90554  23.228  17.568   3.188
29134W        W90555   1.939  44.293   1.932
29135W        W90556  36.480  23.536   3.657
29136W        W90557  38.550   2.889   4.127
29137W        W90558  17.062  35.057   2.188
29138W        W90559  38.452  28.443  10.634
29139W        W90560  30.990   0.305  13.889
29140W        W90561  31.100  19.553  13.471
29141W        W90562  39.980   7.777  11.555
29142W        W90563  37.457  44.282   2.338
29143W        W90564   7.710  14.287   5.273
29144W        W90565  38.552   8.798  12.042
29145W        W90566  39.431  23.050  12.348
29146W        W90567  34.495  26.097   0.831
29147W        W90568  31.545  43.945   4.304
29148W        W90569  16.744  21.186  14.986
29149W        W90570  11.765  14.714  12.851
29150W        W90571   0.494  40.377  14.393
29151W        W90572  14.283  21.638  10.632
29152W        W90573  41.471  11.796   2.276
29153W        W90574  43.488   8.326   0.321
29154W        W90575  10.310  13.294   0.758
29155W        W90576  13.653   0.942   4.178
29156W        W90577   0.395  40.050  10.418
29157W        W90578  24.685  21.627  11.512
29158W        W90579  38.040  30.066   0.283
29159W        W90580  41.843  44.454  10.592
29160W        W90581  12.200  43.860  10.929
29161W        W90582  23.688  38.881   0.426
29162W        W90583   0.822  22.055   3.369
29163W        W90584   3.220  34.099   0.792
29164W        W90585  12.305  27.151  13.982
29165W        W90586  18.174  41.004  14.375
29166W        W90587   6.401  39.353   0.836
29167W        W90588  43.308  39.903  11.926
29168W        W90589  14.786  25.198   4.177
29169W        W90590   1.976  30.565  13.050
29170W        W90591  37.917  35.491  13.508
29171W        W90592  38.402  16.260   1.330
29172W        W90593  44.849  15.304  13.892
29173W        W90594   8.850  44.396   2.237
29174W        W90595  12.164   4.749   1.777
29175W        W90596  29.978  23.732   1.799
29176W        W90597  36.582  34.071   2.760
29177W        W90598   9.863  43.886   1.308
29178W        W90599  21.220  13.742   2.754
29179W        W90600  27.648  28.671   1.398
29180W        W90601  30.615  34.923  10.991
29181W        W90602  33.528  10.308  13.856
29182W        W90603   2.437  35.954   2.307
29183W        W90604   3.318  19.174  13.045
29184W        W90605   3.439  27.962   4.691
29185W        W90606  39.432  17.776  12.094
29186W        W90607  17.297  16.289   0.939
29187W        W90608  37.490   5.429   4.242
29188W        W90609  29.099  18.556   2.783
29189W        W90610  35.392  33.535   1.294
29190W        W90611   3.273  33.415   1.766
29191W        W90612  31.137  38.835  12.392
29192W        W90613   8.382   7.214   1.362
29193W        W90614  37.932   9.851  12.059
29194W        W90615  30.501  27.138  11.012
29195W        W90616  29.064  40.046  10.578
29196W        W90617  11.779  31.604   0.897
29197W        W90618  26.475  27.691  14.878
29198W        W90619  17.659  28.623   2.707
29199W        W90620   7.812  33.581   0.899
29200W        W90621  37.425  37.908   4.289
29201W        W90622  16.270  40.470   1.262
29202W        W90623  40.876  17.687   9.620
29203W        W90624  10.834  33.128   3.192
29204W        W90625  26.660  29.587  13.339
29205W        W90626  21.124  13.105  11.459
29206W        W90627  33.574  22.241   1.334
29207W        W90628  24.599  17.565  14.290
29208W        W90629  22.065  14.734   4.140
29209W        W90630  18.103  29.069  11.089
29210W        W90631  13.220   5.709  13.320
29211W        W90632  11.277  19.126  13.820
29212W        W90633   2.280  17.248   0.344
29213W        W90634  42.028  36.870   3.804
29214W        W90635   9.857  40.824   2.813
29215W        W90636  18.257  16.656   0.734
29216W        W90637  19.220  18.237   3.305
29217W        W90638   0.980   7.308  14.402
29218W        W90639  40.939  39.042   1.387
29219W        W90640   9.231  22.737   0.245
29220W        W90641   8.831   5.890   3.728
29221W        W90642  33.554  38.407   1.295
29222W        W90643  24.125  15.113   2.368
29223W        W90644  44.412   8.830   0.347
29224W        W90645  13.204  37.362   1.282
29225W        W90646  18.069   8.311   2.683
29226W        W90647  33.954  22.609   1.731
29227W        W90648  32.599   8.683  12.571
29228W        W90649  41.434  42.393  13.372
29229W        W90650  26.549  26.687  14.415
29230W        W90651  35.536   9.801  14.297
29231W        W90652  41.338   3.850   3.281
29232W        W90653  19.705  39.434  14.385
29233W        W90654  26.151  16.291  11.522
29234W        W90655  20.667  22.534   1.286
29235W        W90656  37.967  37.997   1.279
29236W        W90657  39.814  31.605   2.826
29237W        W90658  21.562  36.012   1.224
29238W        W90659  21.208  19.679   5.190
29239W        W90660  24.486   2.775   3.362
29240W        W90661   7.696   0.756  12.085
29241W        W90662  24.182  21.531   2.896
29242W        W90663  31.516  23.494  13.513
29243W        W90664  10.342  28.132  12.453
29244W        W90665  23.112   9.191   2.786
29245W        W90666  24.201  37.892   1.284
29246W        W90667  15.243   6.253  10.622
29247W        W90668  28.041  14.163   2.369
29248W        W90669  32.563  29.482  12.443
29249W        W90670  32.471   8.718   3.162
29250W        W90671  44.269  23.702  11.592
29251W        W90672  20.761  36.056  13.322
29252W        W90673   1.322  34.909  14.362
29253W        W90674  39.978   9.761   1.725
29254W        W90675   3.225  36.543  14.974
29255W        W90676  31.505  11.201  11.375
29256W        W90677  39.458  38.888   4.627
29257W        W90678  42.848   2.270  11.972
29258W        W90679   0.450  42.373  10.615
29259W        W90680  44.802   7.787   0.822
29260W        W90681  18.766   6.235  10.122
29261W        W90682  26.209  35.487   3.802
29262W        W90683   4.737  18.585   4.235
29263W        W90684  29.570  10.186  14.479
29264W        W90685  26.175  12.744  13.942
29265W        W90686  21.125  40.546   4.834
29266W        W90687   8.887  21.034  11.416
29267W        W90688  31.133  16.188  11.120
29268W        W90689  31.411  20.710   0.754
29269W        W90690  11.742  25.470  14.294
29270W        W90691   1.360  18.604  11.413
29271W        W90692  26.470  37.533   4.155
29272W        W90693  41.461   6.214  14.937
29273W        W90694  18.760  13.211   2.672
29274W        W90695  17.639  26.195   0.347
29275W        W90696  23.510   2.878   4.657
29276W        W90697  14.621   6.324   1.755
29277W        W90698  39.947  40.377  13.400
29278W        W90699   2.392  30.526   1.241
29279W        W90700   1.254  13.602  11.568
29280W        W90701  43.816  27.072  12.452
29281W        W90702   8.656  11.335  12.066
29282W        W90703  27.058   9.151  14.783
29283W        W90704  38.833  24.574   3.185
29284W        W90705   4.353   4.934   3.637
29285W        W90706   8.667  15.722   4.262
29286W        W90707  38.514  31.570   2.897
29287W        W90708   4.840  12.643  12.492
29288W        W90709   7.227  22.180  14.410
29289W        W90710   4.769  15.685   3.325
29290W        W90711   8.740  43.009   4.235
29291W        W90712  19.110   4.255  12.555
29292W        W90713   1.879   0.277   2.381
29293W        W90714   7.400   2.464  11.522
29294W        W90715  26.051   9.209   3.848
29295W        W90716  27.945  29.109  12.468
29296W        W90717   4.834   4.836   2.661
29297W        W90718  25.597  44.785  12.382
29298W        W90719  26.702  33.469   3.767
29299W        W90720   4.284  10.808  11.960
29300W        W90721   0.764  25.619  12.411
29301W        W90722  35.894  38.507  11.893
29302W        W90723  29.168  32.549   1.223
29303W        W90724  42.004   9.378  13.799
29304W        W90725  31.106  21.529   2.232
29305W        W90726  14.629  44.785   0.849
29306W        W90727  41.837  12.718   4.742
29307W        W90728  44.945  27.668   2.247
29308W        W90729   2.910  17.150   4.637
29309W        W90730  15.157  43.408  10.615
29310W        W90731  40.843  21.696  14.433
29311W        W90732  30.540  26.131  12.030
29312W        W90733   9.824  23.651  12.389
29313W        W90734  11.143  43.487  10.460
29314W        W90735  25.507  19.149   0.432
29315W        W90736  25.611  31.948  13.437
29316W        W90737  42.370  37.088  11.445
29317W        W90738  13.276  19.697   3.372
29318W        W90739  43.858   6.289   2.207
29319W        W90740   5.713  34.996  14.885
29320W        W90741   3.942  31.490   3.311
29321W        W90742   1.317  11.317  10.513
29322W        W90743   5.395   1.446   4.780
29323W        W90744  26.042  40.549  10.974
29324W        W90745   6.815  17.213  11.038
29325W        W90746   2.340  39.893   2.735
29326W        W90747  32.590  15.246   4.124
29327W        W90748  12.838  34.508   1.280
29328W        W90749  30.642   2.808  12.952
29329W        W90750   2.352  15.682  12.084
29330W        W90751   6.718  42.946   3.776
29331W        W90752  38.426  41.509  13.928
29332W        W90753  39.017  16.743  11.968
29333W        W90754  11.716  42.283  10.506
29334W        W90755  22.587   8.343  13.014
29335W        W90756  41.496  17.729  14.374
29336W        W90757  13.684  35.392   1.920
29337W        W90758   7.316  15.233   2.210
29338W        W90759   6.369  39.903   1.751
29339W        W90760   4.801  35.037   2.354
29340W        W90761   7.786   3.811  11.376
29341W        W90762  20.536  28.637  12.457
29342W        W90763  40.893   2.916  13.005
29343W        W90764  36.447  21.035   2.403
29344W        W90765   0.895  15.118   4.699
29345W        W90766  21.567  36.432   3.782
29346W        W90767   3.282  41.402  12.999
29347W        W90768   4.294  35.008  14.910
29348W        W90769   8.198  31.915   1.843
29349W        W90770  29.486  40.043  12.466
29350W        W90771  10.371  42.350  10.546
29351W        W90772  25.975  15.316   3.677
29352W        W90773  34.988  13.124  12.457
29353W        W90774   5.771  41.399   4.288
29354W        W90775  41.538  26.152   1.448
29355W        W90776  29.575  17.795   2.320
29356W        W90777  35.893   6.273   1.880
29357W        W90778  21.615  24.647   0.904
29358W        W90779  13.775  24.701  11.599
29359W        W90780  26.090   0.783  13.051
29360W        W90781  23.683  44.482   3.287
29361W        W90782  39.837  40.869  11.510
29362W        W90783  19.728  17.750  10.916
29363W        W90784  19.765  21.107   2.662
29364W        W90785  37.447  16.173   1.769
29365W        W90786   1.842  33.084  11.551
29366W        W90787   7.722  27.083   0.319
29367W        W90788  13.698  18.747  13.456
29368W        W90789  27.123  35.384   1.849
29369W        W90790  24.102   5.690   2.386
29370W        W90791  42.993  21.070  14.843
29371W        W90792  24.063  20.648   0.266
29372W        W90793  28.144   1.294   9.930
29373W        W90794   3.866  37.532   4.805
29374W        W90795  35.882  29.510   2.273
29375W        W90796  13.613  41.969  14.817
29376W        W90797  16.174   0.329  13.409
29377W        W90798   4.775  37.928   3.150
29378W        W90799  19.712  28.976  13.033
29379W        W90800  27.101  13.276  14.923
29380W        W90801  42.350  25.201   3.732
29381W        W90802  43.805  22.642  14.281
29382W        W90803   4.873  18.079   2.714
29383W        W90804  36.062  44.853  14.513
29384W        W90805  26.015  16.080  14.970
29385W        W90806  15.610  36.961   0.958
29386W        W90807  30.585  13.755  14.869
29387W        W90808   8.387  11.275   4.666
29388W        W90809   2.381  44.434  13.001
29389W        W90810  34.470  12.321  13.381
29390W        W90811   0.480  42.991   5.300
29391W        W90812  39.834  42.810  14.844
29392W        W90813  12.821  19.040   2.180
29393W        W90814  14.275  29.918   3.206
29394W        W90815  22.595  35.091  12.411
29395W        W90816  31.553   8.386   2.794
29396W        W90817   6.330  29.519  11.858
29397W        W90818  40.039  29.975  14.427
29398W        W90819  44.838  25.595   3.660
29399W        W90820   7.713  26.020  13.528
29400W        W90821  15.136   3.434  14.477
29401W        W90822  28.065  15.198  11.411
29402W        W90823   2.436  33.013  14.513
29403W        W90824  31.540  29.588  11.113
29404W        W90825  21.757  22.573   4.687
29405W        W90826  27.575  25.985  10.631
29406W        W90827  34.585  25.981  12.047
29407W        W90828  18.157   8.365  13.389
29408W        W90829  12.659  11.246   2.695
29409W        W90830   0.947  36.538   1.906
29410W        W90831   9.775  15.771  13.494
29411W        W90832  32.033  10.221  10.898
29412W        W90833  10.864  19.735   1.369
29413W        W90834  28.567   7.706   3.222
29414W        W90835  11.765   4.298  10.964
29415W        W90836  29.588  34.986  14.318
29416W        W90837  11.803  13.782  13.532
29417W        W90838  15.114  33.584   0.419
29418W        W90839  42.329  10.252   4.623
29419W        W90840   1.271  41.300  11.009
29420W        W90841  31.425  22.216  10.410
29421W        W90842  22.124  25.632   3.759
29422W        W90843   5.829  42.403   1.275
29423W        W90844  10.372  19.160  11.934
29424W        W90845  25.023  16.206   4.187
29425W        W90846  44.394  22.627   1.804
29426W        W90847  16.750   5.927  12.341
29427W        W90848   8.791   6.188   2.271
29428W        W90849   3.944  25.693  12.995
29429W        W90850   7.266  31.147   3.226
29430W        W90851  13.698  19.119  11.908
29431W        W90852  14.822  11.735  12.554
29432W        W90853  20.247   8.357  12.824
29433W        W90854   1.765   1.910  14.376
29434W        W90855   4.257  43.976  14.005
29435W        W90856   0.977  40.876   3.795
29436W        W90857  18.681  39.406   3.268
29437W        W90858  30.083  24.155   3.685
29438W        W90859  27.467   9.832   4.224
29439W        W90860  42.905   1.902   2.391
29440W        W90861  22.742  34.412   0.256
29441W        W90862   7.237  40.332  12.367
29442W        W90863   1.274   4.226  10.912
29443W        W90864  14.681  26.016  14.759
29444W        W90865  14.104  27.087  14.371
29445W        W90866  15.824  10.353  11.068
29446W        W90867   3.796  41.842   1.395
29447W        W90868  25.541  14.775  14.936
29448W        W90869   5.845   1.439  13.532
29449W        W90870  44.329  44.312  12.577
29450W        W90871   5.393  37.999   2.737
29451W        W90872  30.950  21.023   0.856
29452W        W90873  17.139  39.542   3.210
29453W        W90874  33.922   5.889   4.154
29454W        W90875  11.768  17.127   2.317
29455W        W90876  24.215  31.477   0.925
29456W        W90877  29.142  11.357  10.565
29457W        W90878  14.815  30.647  14.796
29458W        W90879  13.314  22.182  14.286
29459W        W90880  16.129  31.611  12.503
29460W        W90881  29.171  37.501  12.833
29461W        W90882  20.127  21.658  11.968
29462W        W90883  10.337  21.675   0.877
29463W        W90884  11.752   7.303  10.523
29464W        W90885  37.846  20.098   0.850
29465W        W90886   1.278  39.345   1.854
29466W        W90887   9.151   2.767   3.852
29467W        W90888  38.858  44.779  14.014
29468W        W90889  44.384  11.779  12.353
29469W        W90890  36.453  22.997   0.396
29470W        W90891  22.653  43.993  12.052
29471W        W90892  42.374  21.710   2.769
29472W        W90893   6.242  13.686  11.946
29473W        W90894   3.718  32.578  10.062
29474W        W90895  40.379  24.031   0.353
29475W        W90896   8.274  22.712   1.927
29476W        W90897  25.012  20.152  10.609
29477W        W90898  35.076  20.210  10.543
29478W        W90899  38.915  27.500  13.060
29479W        W90900   9.163  33.407  13.469
29480W        W90901  20.169  17.697  11.004
29481W        W90902  39.387   6.260  11.096
29482W        W90903  24.480  39.364   1.418
29483W        W90904  14.170  17.201  12.342
29484W        W90905  24.093   2.365  14.839
29485W        W90906  23.558   2.786  11.599
29486W        W90907  26.466  20.738  12.981
29487W        W90908   6.352   8.204   4.656
29488W        W90909  34.553  33.560   2.344
29489W        W90910  41.820  24.186   3.803
29490W        W90911   5.233  34.568  14.305
29491W        W90912  43.276  36.929  11.083
29492W        W90913  15.822   9.661  12.422
29493W        W90914  29.020  25.653   3.154
29494W        W90915  20.050  25.605   1.814
29495W        W90916   0.407  37.412  12.096
29496W        W90917   7.366  22.577  13.028
29497W        W90918  41.026   3.414  14.766
29498W        W90919   1.276   2.772  11.502
29499W        W90920  19.203  44.761  12.998
29500W        W90921  26.159  36.889   3.237
29501W        W90922  11.731  25.684  12.056
29502W        W90923   4.775  10.378  12.348
29503W        W90924  22.074  17.256  11.560
29504W        W90925  37.840  22.145   2.738
29505W        W90926   8.707  31.006   4.182
29506W        W90927  22.718  34.944   4.650
29507W        W90928  14.186  43.388   4.687
29508W        W90929  22.711  30.627  10.921
29509W        W90930  35.493  37.377   0.889
29510W        W90931  10.151  28.477   3.167
29511W        W90932  15.085  40.027  11.393
29512W        W90933  40.922   7.282  13.331
29513W        W90934  20.211  25.175  10.536
29514W        W90935  23.492  37.049  14.834
29515W        W90936  15.269  41.351  12.027
29516W        W90937  24.610  15.689   2.720
29517W        W90938  33.420  29.582  11.601
29518W        W90939  15.815  29.060  11.915
29519W        W90940  33.061  22.076  11.612
29520W        W90941  31.048  21.124   2.323
29521W        W90942   1.248  26.691   3.755
29522W        W90943   5.429  13.772   0.851
29523W        W90944   5.273  16.130  13.455
29524W        W90945   0.408  19.127   4.711
29525W        W90946  43.974  44.457  14.819
29526W        W90947  20.053  29.919   0.361
29527W        W90948  40.508   5.713   4.130
29528W        W90949   1.249  14.148   4.225
29529W        W90950  11.855  33.085   4.186
29530W        W90951  13.738  34.554   1.216
29531W        W90952   2.821   3.910  10.956
29532W        W90953   6.429  10.367   0.252
29533W        W90954  11.301  41.409  12.431
29534W        W90955  25.561  11.724   4.717
29535W        W90956   3.913  16.090   1.384
29536W        W90957  27.596   9.691   1.861
29537W        W90958  10.273  42.494  13.916
29538W        W90959  17.651  29.467  11.933
29539W        W90960   4.751  32.492  13.418
29540W        W90961  28.168  30.121  10.929
29541W        W90962   2.847   8.201  13.469
29542W        W90963  23.159  14.756  12.547
29543W        W90964   5.328  28.028   2.881
29544W        W90965  37.403  16.082   3.246
29545W        W90966  24.104  29.542  14.010
29546W        W90967  38.327  12.638   1.800
29547W        W90968  43.969  16.083   1.240
29548W        W90969   6.392   4.306   3.797
29549W        W90970  30.055  29.126  13.961
29550W        W90971  18.685  30.456   0.319
29551W        W90972  41.355  26.089   1.883
29552W        W90973  27.530  39.937   1.263
29553W        W90974  13.738  37.945   4.612
29554W        W90975   6.715  20.609   1.903
29555W        W90976  42.420   9.869  13.446
29556W        W90977  34.505   3.252   4.632
29557W        W90978  10.817   2.941  12.521
29558W        W90979  20.755  31.541   3.198
29559W        W90980  38.534  15.245   4.716
29560W        W90981  24.584  10.691   1.868
29561W        W90982   6.246   5.882  13.051
29562W        W90983  42.860  18.188  10.435
29563W        W90984  20.714  34.118  10.996
29564W        W90985  34.605  22.017  10.572
29565W        W90986  35.970   4.280   0.937
29566W        W90987   9.179  26.552   0.342
29567W        W90988   3.331  39.931   1.311
29568W        W90989  42.300  27.013  13.912
29569W        W90990  13.282  14.316   0.280
29570W        W90991   5.855  44.855   1.821
29571W        W90992  26.040  27.597   1.861
29572W        W90993  16.606  29.119  12.967
29573W        W90994  15.774  35.055   0.418
29574W        W90995  19.705  16.278   2.877
29575W        W90996  26.654  19.635  14.431
29576W        W90997  20.179  32.486  10.605
29577W        W90998  30.456  16.576  12.533
29578W        W90999   1.904   8.899  14.995
29579W        W91000  39.365  23.587  13.362
29580W        W91001  26.648  14.657  12.365
29581W        W91002  36.089  12.713   2.702
29582W        W91003  24.580  20.114   4.661
29583W        W91004  40.920  10.827   4.668
29584W        W91005  34.573  11.221  10.644
29585W        W91006   8.355  31.548  13.917
29586W        W91007  13.701  23.729   1.935
29587W        W91008  35.384  10.863   1.903
29588W        W91009   1.366  24.973  14.791
29589W        W91010  12.191  15.311  13.971
29590W        W91011  43.353  40.927  11.882
29591W        W91012  44.921  27.033  12.830
29592W        W91013  30.147  14.209   0.912
29593W        W91014   6.206  18.773  12.923
29594W        W91015  22.187  39.985  12.091
29595W        W91016  27.562  43.813   0.803
29596W        W91017  34.568  36.367   2.300
29597W        W91018   0.299  20.524   0.849
29598W        W91019  22.700   7.839   1.279
29599W        W91020  36.531  41.484  10.093
29600W        W91021  39.554   7.372   2.832
29601W        W91022  11.703  39.869  11.085
29602W        W91023  26.068   2.887   4.740
29603W        W91024   5.797  39.329   3.279
29604W        W91025  24.164  30.451   2.189
29605W        W91026  38.358  32.003  13.828
29606W        W91027  18.732   5.837  14.923
29607W        W91028  31.016  23.134   3.818
29608W        W91029  19.582   7.857  11.973
29609W        W91030  36.506   1.417   0.775
29610W        W91031  18.239  35.508   2.413
29611W        W91032   7.907  32.633  14.509
29612W        W91033  17.245  37.850   1.695
29613W        W91034  28.121  24.215   5.120
29614W        W91035  12.620  28.544   2.672
29615W        W91036  19.138  36.969  12.422
29616W        W91037  21.258  16.756   1.739
29617W        W91038   1.921   3.852  10.644
29618W        W91039   3.783  28.012   3.239
29619W        W91040  32.953  11.166  11.857
29620W        W91041   8.764   6.234  11.083
29621W        W91042  11.256  43.015   5.177
29622W        W91043  32.398   2.890  14.895
29623W        W91044  36.907  27.579   1.884
29624W        W91045  14.184   7.212  12.075
29625W        W91046   3.391  31.485  13.010
29626W        W91047  21.534   5.761  13.819
29627W        W91048   9.323  28.060  10.989
29628W        W91049  43.322  33.446   4.634
29629W        W91050   1.770  16.635   3.193
29630W        W91051  28.505  10.847  13.491
29631W        W91052  35.430  44.432   1.801
29632W        W91053   8.397  10.218   0.773
29633W        W91054  31.049  29.056   2.217
29634W        W91055  24.179  38.836   0.911
29635W        W91056  37.959   6.830  14.913
29636W        W91057  19.580  24.192  13.519
29637W        W91058  19.653  18.565   4.784
29638W        W91059  43.445  36.503   2.264
29639W        W91060  33.454  13.232  10.910
29640W        W91061  23.561   6.784  11.598
29641W        W91062   8.366  28.612   4.688
29642W        W91063  11.208  16.300   3.156
29643W        W91064  25.045   3.772   2.833
29644W        W91065   1.463  42.328   3.188
29645W        W91066   9.754  30.526  12.842
29646W        W91067  22.093   6.872   3.751
29647W        W91068  13.250  30.505   3.153
29648W        W91069  44.781  25.185  14.832
29649W        W91070   7.892  23.674  13.471
29650W        W91071  24.180   3.288   1.361
29651W        W91072   7.905  21.073   2.294
29652W        W91073  43.931  18.668   0.420
29653W        W91074  21.255  11.841   1.899
29654W        W91075  27.659  41.946  11.885
29655W        W91076  11.845   9.748   4.629
29656W        W91077   6.784  23.120  13.023
29657W        W91078   3.860  36.560   0.832
29658W        W91079  42.329   1.336   4.695
29659W        W91080  38.475  23.074  12.551
29660W        W91081  32.932  23.087  14.918
29661W        W91082   7.265  18.594  12.023
29662W        W91083  44.963  14.791   4.836
29663W        W91084  15.197   3.924   2.756
29664W        W91085   5.779  21.098  11.085
29665W        W91086   4.836   6.754  11.070
29666W        W91087  23.569   9.377  11.532
29667W        W91088  25.514  18.735  13.499
29668W        W91089  12.717  18.112   3.363
29669W        W91090  29.032  33.001   3.823
29670W        W91091  24.065   3.925  14.796
29671W        W91092  42.496   9.227  14.489
29672W        W91093   3.730   2.352   2.313
29673W        W91094  17.226  14.195  12.866
29674W        W91095  21.590  28.055  14.500
29675W        W91096  13.743  33.040  13.441
29676W        W91097  21.072  44.796   0.337
29677W        W91098  35.098  28.153  13.414
29678W        W91099  26.539   9.736  13.902
29679W        W91100  41.890  37.579   4.314
29680W        W91101  25.133  35.363   4.752
29681W        W91102   0.840  11.704  10.921
29682W        W91103   3.899  16.139   0.454
29683W        W91104  26.689  28.615   2.682
29684W        W91105  27.642  27.674  13.909
29685W        W91106  31.564  25.147  13.871
29686W        W91107   2.272  12.662   4.717
29687W        W91108  35.471  36.846   2.404
29688W        W91109   2.379   0.963   2.419
29689W        W91110  41.439  10.729  13.413
29690W        W91111  19.562  10.319  11.113
29691W        W91112  37.971  37.494   0.923
29692W        W91113  39.027   1.237  11.988
29693W        W91114   3.884  35.567  10.443
29694W        W91115  25.037  12.192  13.013
29695W        W91116  37.558  20.727   4.749
29696W        W91117  23.007  15.690   4.677
29697W        W91118  11.301   7.245  14.462
29698W        W91119  15.141  14.125  14.828
29699W        W91120  21.069  34.077  11.926
29700W        W91121  32.047  39.848   3.159
29701W        W91122  27.563  41.951  13.898
29702W        W91123  37.337   0.786  11.890
29703W        W91124   7.785  12.638   1.299
29704W        W91125  36.462  29.526   4.161
29705W        W91126  36.451  22.669  10.494
29706W        W91127  37.570  25.106  11.498
29707W        W91128  36.029  16.641   4.327
29708W        W91129  27.088  34.909   1.757
29709W        W91130  17.570  26.518  12.436
29710W        W91131   9.366  24.702   3.689
29711W        W91132   8.701  26.129  12.888
29712W        W91133  12.743  18.216  13.958
29713W        W91134  41.503  21.718   1.760
29714W        W91135  18.619   0.328  12.518
29715W        W91136  13.705  23.493   3.376
29716W        W91137  31.126  36.510   2.311
29717W        W91138  33.602  42.889   4.690
29718W        W91139   8.728   3.323  11.115
29719W        W91140  20.034  23.504   2.325
29720W        W91141  37.575  20.736   3.218
29721W        W91142   0.979  25.969   0.296
29722W        W91143  26.542   0.375   4.664
29723W        W91144  24.984  15.674   3.654
29724W        W91145  29.987  24.517   1.748
29725W        W91146  19.199   8.824  12.893
29726W        W91147  31.081  13.249  11.902
29727W        W91148  38.403  16.651   3.280
29728W        W91149  12.806   8.687   2.730
29729W        W91150   9.169  37.569  14.001
29730W        W91151  30.478   7.911   2.891
29731W        W91152  27.973  40.884  10.947
29732W        W91153  22.629  40.447  10.424
29733W        W91154   3.388  38.382   2.332
29734W        W91155  43.962   3.886  11.562
29735W        W91156  39.917  15.650  12.928
29736W        W91157  19.080  13.756   0.936
29737W        W91158  35.037  19.236   0.891
29738W        W91159  32.632  16.237  11.381
29739W        W91160  25.551   3.451   2.178
29740W        W91161  14.181  39.808  11.547
29741W        W91162  31.913  25.979  11.501
29742W        W91163  17.730  18.705   1.338
29743W        W91164   3.332  37.491  13.871
29744W        W91165  25.989   2.828   0.304
29745W        W91166  21.066  21.590   4.203
29746W        W91167   4.798  23.668   4.831
29747W        W91168  44.334  15.638   0.403
29748W        W91169   1.898   4.300  11.896
29749W        W91170  29.132  18.232   2.833
29750W        W91171  23.088  26.585  11.374
29751W        W91172   2.348  21.157   3.307
29752W        W91173  39.440  30.023  10.587
29753W        W91174  15.283  28.991   4.660
29754W        W91175   0.902  22.666  14.507
29755W        W91176  36.476  20.039  12.903
29756W        W91177  10.876  25.619   2.183
29757W        W91178  26.518  13.789   3.686
29758W        W91179  32.400  10.333  13.021
29759W        W91180   1.355  24.637  14.331
29760W        W91181  37.924  12.726  13.986
29761W        W91182  38.907  30.622   1.228
29762W        W91183   9.855  23.011  14.466
29763W        W91184  32.077  26.064   1.931
29764W        W91185  14.269  39.928  14.414
29765W        W91186  21.240  35.052  12.066
29766W        W91187  39.476  11.742   2.683
29767W        W91188  43.930   0.317   2.862
29768W        W91189  14.757  28.672   2.779
29769W        W91190  34.610  12.752  14.817
29770W        W91191  37.448   2.867  13.393
29771W        W91192  40.435  44.414   4.791
29772W        W91193   8.248  14.259  11.603
29773W        W91194  39.027  22.118   4.655
29774W        W91195  23.148  23.697   2.369
29775W        W91196  16.615  20.225  14.301
29776W        W91197  19.615  21.190   5.167
29777W        W91198  40.434  17.748  12.513
29778W        W91199  27.026  22.137   1.751
29779W        W91200  20.676   0.887   0.377
29780W        W91201   9.873  23.708   0.318
29781W        W91202  27.189  28.455   1.738
29782W        W91203   7.245  42.995   0.743
29783W        W91204  44.827  23.988  14.287
29784W        W91205  40.347  38.967  14.277
29785W        W91206  25.709  29.004   9.952
29786W        W91207  34.615  10.847  11.932
29787W        W91208   0.862  17.226  10.607
29788W        W91209  29.926  44.981  11.469
29789W        W91210  41.516  36.392  14.501
29790W        W91211  34.119  24.078   0.427
29791W        W91212  11.854  30.087   1.271
29792W        W91213  31.133   4.415  12.397
29793W        W91214  44.425  24.611   2.218
29794W        W91215   8.764  40.851   2.843
29795W        W91216  41.957  17.595   2.296
29796W        W91217   2.366   4.737  12.048
29797W        W91218  22.588  27.513   2.754
29798W        W91219  23.166  11.711   1.895
29799W        W91220  32.556  30.645  12.450
29800W        W91221  16.287  21.066  11.121
29801W        W91222  11.816  37.486   1.902
29802W        W91223  33.439  19.617   0.778
29803W        W91224  25.118   5.322  14.512
29804W        W91225  36.846   7.872  12.568
29805W        W91226  30.444  14.300   3.207
29806W        W91227  36.469  34.454   4.607
29807W        W91228  25.993  34.951  13.012
29808W        W91229  27.966   7.410   3.789
29809W        W91230  40.452   4.801   4.275
29810W        W91231  41.886   0.975   2.256
29811W        W91232  38.422   7.894   4.694
29812W        W91233  30.522  18.257  12.870
29813W        W91234  37.498   6.369  14.336
29814W        W91235   8.343  28.055   4.744
29815W        W91236  19.105  14.329  13.917
29816W        W91237   1.926  43.272  12.957
29817W        W91238  33.425   4.842   3.322
29818W        W91239  38.906  16.773   3.360
29819W        W91240  31.055  18.570  10.546
29820W        W91241  20.058  30.436   2.893
29821W        W91242  18.244  18.130   2.293
29822W        W91243   3.921   0.839   5.319
29823W        W91244  23.127  23.108   3.668
29824W        W91245   0.303  11.684   3.791
29825W        W91246  14.230  12.772  10.550
29826W        W91247  26.178  43.986  14.874
29827W        W91248  22.590   0.447   2.417
29828W        W91249  38.351  13.184   4.224
29829W        W91250  17.223  39.065   3.728
29830W        W91251  40.315  31.479  13.796
29831W        W91252  14.102  38.949  14.429
29832W        W91253  43.912  41.426  12.485
29833W        W91254   4.837  14.706  11.529
29834W        W91255   8.287  33.000  13.983
29835W        W91256  20.608  35.403   0.411
29836W        W91257  16.724  13.260   4.337
29837W        W91258  12.851   0.919   3.687
29838W        W91259  36.436  35.015  13.543
29839W        W91260   8.859   1.926  10.596
29840W        W91261  19.769  29.952  11.992
29841W        W91262   1.854  42.372   2.316
29842W        W91263  31.964   5.431  14.888
29843W        W91264   0.826  35.497   4.639
29844W        W91265   7.274  33.518   4.726
29845W        W91266  18.789  24.660  14.358
29846W        W91267   9.754   9.731  10.461
29847W        W91268  41.861   1.856  10.456
29848W        W91269  10.841   4.425  12.930
29849W        W91270   7.699  39.904   3.315
29850W        W91271  42.523  14.213   5.708
29851W        W91272  17.188  39.984  10.922
29852W        W91273  22.164   0.382   1.767
29853W        W91274  36.491  22.671   5.091
29854W        W91275  17.277  11.302   2.341
29855W        W91276  41.924  27.041  14.455
29856W        W91277  40.804  21.567   1.753
29857W        W91278  14.248  16.714   2.870
29858W        W91279  18.652  16.278   1.406
29859W        W91280   1.894  17.291   2.737
29860W        W91281   4.335  20.750   4.305
29861W        W91282  13.643  19.684  12.482
29862W        W91283  19.113  15.241   9.943
29863W        W91284   5.763  18.081   1.919
29864W        W91285  20.198  26.969  12.355
29865W        W91286  23.988  21.098  11.531
29866W        W91287  31.639  26.197   3.259
29867W        W91288  23.658  21.117   1.385
29868W        W91289  31.982  31.484  10.439
29869W        W91290  23.987  19.705  13.363
29870W        W91291   6.899   2.848   3.363
29871W        W91292   8.853   1.270   2.793
29872W        W91293   5.733  20.272  11.445
29873W        W91294  37.528  33.410   5.202
29874W        W91295  13.651  33.598  12.393
29875W        W91296  16.695  12.304   4.302
29876W        W91297   9.198  29.037   3.677
29877W        W91298  43.872   5.730  14.883
29878W        W91299  26.065  42.901   2.396
29879W        W91300   2.733  15.720   3.828
29880W        W91301   7.801   7.893  11.433
29881W        W91302  39.942  16.798  11.865
29882W        W91303  38.440  37.390  11.039
29883W        W91304  40.308  30.606   3.860
29884W        W91305   7.314  41.022  12.483
29885W        W91306  22.572  33.954   1.434
29886W        W91307  12.295  15.239  11.907
29887W        W91308  24.207   3.769   0.246
29888W        W91309  39.446  14.104   2.309
29889W        W91310   3.420   0.475  10.031
29890W        W91311   7.203  33.990  12.531
29891W        W91312   1.896  27.622  13.313
29892W        W91313   6.684  42.827   2.204
29893W        W91314   9.706  36.085  11.540
29894W        W91315  38.063  30.643  12.935
29895W        W91316  16.087  39.906  11.427
29896W        W91317  26.485  23.240  12.085
29897W        W91318  40.040  40.821  10.597
29898W        W91319  39.531  35.104  10.919
29899W        W91320  41.454  17.069   1.236
29900W        W91321  43.443  34.868   4.606
29901W        W91322  19.192  14.657   0.358
29902W        W91323   3.885  27.051   1.362
29903W        W91324  27.948  14.807   0.283
29904W        W91325  36.548  40.923  14.495
29905W        W91326  13.715  10.300   3.753
29906W        W91327  19.726   7.342  13.830
29907W        W91328  10.209  27.040   3.809
29908W        W91329  30.533  41.933   1.280
29909W        W91330  41.449  24.142  13.401
29910W        W91331  27.060  25.503  13.529
29911W        W91332  41.898  43.431   3.259
29912W        W91333  34.477   5.871  10.562
29913W        W91334  43.443  30.079   1.887
29914W        W91335  18.659  41.915  14.962
29915W        W91336  36.046   9.358  13.957
29916W        W91337  37.539  44.895  11.973
29917W        W91338   1.945  25.629  12.520
29918W        W91339  20.757  18.585  10.502
29919W        W91340  44.388  22.677  11.519
29920W        W91341  15.278   5.322   0.773
29921W        W91342  36.588   0.298   2.337
29922W        W91343  14.755  39.356   4.781
29923W        W91344  11.142  10.806   3.246
29924W        W91345  11.851  33.992   0.904
29925W        W91346   2.278  22.587  13.805
29926W        W91347  41.462  39.924  12.865
29927W        W91348  10.721  36.552  12.405
29928W        W91349  10.838  34.543   0.939
29929W        W91350  40.546  21.222  13.799
29930W        W91351  10.229  17.295  10.531
29931W        W91352  20.079  43.355   1.840
29932W        W91353  16.737  25.665  11.578
29933W        W91354  21.587  24.031   4.261
29934W        W91355  32.502  41.983   4.141
29935W        W91356  11.176  15.116  10.434
29936W        W91357  39.835  32.543   0.429
29937W        W91358  20.754  38.979  11.412
29938W        W91359  17.226  29.497   4.804
29939W        W91360  39.042  38.819   5.155
29940W        W91361  15.127  23.986  10.939
29941W        W91362   3.947  17.204  10.081
29942W        W91363  23.552  19.274  11.392
29943W        W91364  35.065  17.770  11.914
29944W        W91365  33.065   9.775  10.893
29945W        W91366  36.911   0.379  13.541
29946W        W91367  36.075  10.283   5.234
29947W        W91368  14.114  21.758   2.191
29948W        W91369  13.131  25.504   0.257
29949W        W91370  39.332  42.478   0.732
29950W        W91371   3.439  28.637  10.581
29951W        W91372   4.891  24.091   1.419
29952W        W91373   4.438   7.700   0.249
29953W        W91374  31.488  19.153   0.733
29954W        W91375   1.412  40.840  12.354
29955W        W91376  42.933  34.597  11.533
29956W        W91377  37.938  32.559  10.457
29957W        W91378   8.227  40.390   4.203
29958W        W91379  34.916  21.142  10.644
29959W        W91380  12.681  37.019  12.941
29960W        W91381  43.436  19.726  10.472
29961W        W91382  18.169  39.892  12.883
29962W        W91383  13.287   2.260   0.265
29963W        W91384   6.335  31.461   1.921
29964W        W91385  22.633   9.273  13.856
29965W        W91386  38.403  38.431   3.188
29966W        W91387   5.695  12.221   2.841
29967W        W91388  29.661  25.204   3.323
29968W        W91389  26.149  31.909  13.955
29969W        W91390  16.259  42.800  10.974
29970W        W91391   8.379  28.139  14.979
29971W        W91392   3.882   1.799  11.953
29972W        W91393  40.490   3.805   3.694
29973W        W91394  29.122  15.646  13.425
29974W        W91395  17.793  18.083  11.532
29975W        W91396  13.127  29.543  13.328
29976W        W91397  24.566  22.087   0.855
29977W        W91398  10.816   3.221  12.944
29978W        W91399  16.585  11.138  11.573
29979W        W91400  40.900  26.696  14.766
29980W        W91401  11.132  13.708  14.820
29981W        W91402  29.509  30.433  10.946
29982W        W91403  15.665  24.609  12.934
29983W        W91404   9.767   8.803   2.676
29984W        W91405  35.587  35.876  12.837
29985W        W91406  43.444  31.921   0.826
29986W        W91407   8.333  35.061  12.347
29987W        W91408  12.275  30.437   2.678
29988W        W91409  21.045  39.909  14.925
29989W        W91410  25.030  13.704   1.781
29990W        W91411  19.135  25.536  13.028
29991W        W91412   7.897  27.078  13.847
29992W        W91413  18.148   4.713  10.026
29993W        W91414  10.867  21.050  12.848
29994W        W91415   9.743  38.061   4.233
29995W        W91416  43.924  26.656  11.521
29996W        W91417  38.351   5.697  12.868
29997W        W91418  18.553  22.031   0.262
29998W        W91419   3.945  40.417   0.783
29999W        W91420  32.995  28.109  14.901
30000W        W91421  20.236  37.881   2.719
30001W        W91422  22.122  12.639  12.506
30002W        W91423  27.581  42.870   2.267
30003W        W91424  11.176  19.202   0.888
30004W        W91425  29.058  17.293  14.286
30005W        W91426  22.212  29.930   1.820
30006W        W91427  14.828  12.854  14.501
30007W        W91428  19.116  38.055   4.333
30008W        W91429   0.452  23.522  12.064
30009W        W91430  10.356  19.093   1.437
30010W        W91431  44.789  26.546  11.404
30011W        W91432  41.502   0.940  12.523
30012W        W91433  10.223  31.026   4.698
30013W        W91434  24.534  38.442   3.816
30014W        W91435  30.078  42.363  14.851
30015W        W91436  17.070  10.846  12.580
30016W        W91437  28.935  25.537   4.167
30017W        W91438  15.657  21.749  12.502
30018W        W91439  16.306  38.866  13.000
30019W        W91440  14.206  24.100   2.276
30020W        W91441  16.726  20.213  11.523
30021W        W91442  18.085  31.462   0.418
30022W        W91443  43.773  20.555  11.392
30023W        W91444  20.541  37.349   3.816
30024W        W91445  36.575  20.200  11.037
30025W        W91446  33.048  34.039  12.929
30026W        W91447  31.998  27.087   3.277
30027W        W91448  29.014  23.545  13.016
30028W        W91449  35.527   4.434   2.215
30029W        W91450  40.361   7.379   3.300
30030W        W91451  32.395  40.342   4.232
30031W        W91452  23.050  30.616  14.304
30032W        W91453   4.899  26.566  11.967
30033W        W91454  16.669  42.816  13.878
30034W        W91455  10.227   7.254  12.090
30035W        W91456   4.229  27.638   1.701
30036W        W91457  31.135  32.054   4.206
30037W        W91458  44.921   9.237  13.938
30038W        W91459  19.237   1.320   3.779
30039W        W91460  26.642   9.253  10.462
30040W        W91461  12.772   9.302   4.829
30041W        W91462  16.624   0.982  14.362
30042W        W91463   3.248  36.930  10.494
30043W        W91464  12.248  22.609  10.980
30044W        W91465  38.840  43.906  14.975
30045W        W91466  29.023  25.524  14.953
30046W        W91467   9.275  40.454   2.198
30047W        W91468  26.131  14.230   1.388
30048W        W91469   0.764   7.667   3.283
30049W        W91470   0.346  39.502   2.740
30050W        W91471   1.967  22.137   1.704
30051W        W91472  29.164  15.669  10.428
30052W        W91473  44.884  40.884   4.194
30053W        W91474  43.429  40.303  10.445
30054W        W91475  36.916  22.176   3.721
30055W        W91476  43.988  21.528  14.951
30056W        W91477  38.057  34.075   4.332
30057W        W91478  42.393  33.507  14.791
30058W        W91479  32.899  11.622  13.520
30059W        W91480  37.401  26.550  12.462
30060W        W91481  12.118  32.398  13.929
30061W        W91482   8.247  41.858   4.798
30062W        W91483  13.736  32.083   2.368
30063W        W91484  23.069  29.564  12.549
30064W        W91485  41.935  33.048  14.975
30065W        W91486  30.159  39.413   3.767
30066W        W91487   2.817  20.100   1.366
30067W        W91488  41.858  35.552   0.776
30068W        W91489  14.312  28.186  13.412
30069W        W91490  41.454   4.259   4.821
30070W        W91491   2.904  33.935   5.666
30071W        W91492  31.621  42.288   0.944
30072W        W91493  30.968   4.377   2.770
30073W        W91494   3.372  29.437  14.377
30074W        W91495  32.487  14.215  12.989
30075W        W91496  13.327   6.860   4.339
30076W        W91497  25.037  10.663  14.994
30077W        W91498  35.405  21.636  10.433
30078W        W91499  35.020   2.333   0.860
30079W        W91500  43.328  12.315   0.292
30080W        W91501   9.723   7.402   4.249
30081W        W91502  37.566  13.334  13.446
30082W        W91503  44.755  40.806   0.771
30083W        W91504  42.314  33.437   1.216
30084W        W91505  14.181   3.863   4.606
30085W        W91506  37.983   9.814  12.443
30086W        W91507  30.631  26.155  12.894
30087W        W91508  33.482  34.962   1.732
30088W        W91509  30.564  19.762  10.932
30089W        W91510  22.172  26.172   2.332
30090W        W91511  20.075   4.865   2.387
30091W        W91512   8.733   1.440  12.946
30092W        W91513   2.728  41.529   0.958
30093W        W91514  38.501  13.690   0.961
30094W        W91515  19.223  18.194   5.148
30095W        W91516  41.418   3.387   3.723
30096W        W91517  30.982  32.899  11.387
30097W        W91518   4.206  26.612  13.441
30098W        W91519  19.776  13.737  11.608
30099W        W91520  17.298  28.122   1.769
30100W        W91521  36.942  20.592  11.558
30101W        W91522  37.928   8.382  12.438
30102W        W91523  42.298  34.597   4.750
30103W        W91524  17.759  27.669   3.714
30104W        W91525  11.271  12.670  12.562
30105W        W91526   6.195  41.968   1.304
30106W        W91527  34.536  13.147   1.927
30107W        W91528  36.080  25.487  12.552
30108W        W91529  42.374  14.250   2.292
30109W        W91530  10.775  31.583   1.760
30110W        W91531   9.844   6.411   0.829
30111W        W91532  31.896  35.096  12.512
30112W        W91533  34.998  25.667   0.431
30113W        W91534  15.601   3.943  12.981
30114W        W91535  16.724   6.233  11.014
30115W        W91536  11.763  26.207  14.381
30116W        W91537  19.733  20.047  13.933
30117W        W91538  21.723  39.052   0.803
30118W        W91539  20.691  17.618  14.430
30119W        W91540  31.593  28.446   4.257
30120W        W91541  23.677   1.477  14.773
30121W        W91542   6.303  26.017  12.524
30122W        W91543  36.559   3.312   1.778
30123W        W91544  17.120   9.266  11.980
30124W        W91545  25.556   5.803   3.711
30125W        W91546  35.415  17.104   4.140
30126W        W91547  12.704  42.438   0.945
30127W        W91548  32.536  42.430  14.853
30128W        W91549  12.817  12.826  13.308
30129W        W91550  33.019  44.326  13.319
30130W        W91551  43.794  37.005  14.893
30131W        W91552  26.078  41.922  14.020
30132W        W91553   1.412  10.184   2.387
30133W        W91554  29.484  22.503   0.263
30134W        W91555  28.510  40.406   0.374
30135W        W91556  25.508  16.206  14.842
30136W        W91557   0.766  22.635   3.684
30137W        W91558  29.558  39.924   4.232
30138W        W91559   3.244  30.529   0.406
30139W        W91560  15.318  40.832   1.415
30140W        W91561  38.894   5.834  14.463
30141W        W91562  39.492  34.008  10.446
30142W        W91563  38.364  30.511  10.976
30143W        W91564  30.042   9.193  11.552
30144W        W91565  34.012  44.006  11.457
30145W        W91566  16.701  26.578   4.713
30146W        W91567  30.043  11.661   2.226
30147W        W91568  21.153  19.588  10.069
30148W        W91569  24.669  19.579   2.698
30149W        W91570  25.523  16.130  13.836
30150W        W91571   6.857   8.292   3.340
30151W        W91572  20.258  28.053  13.348
30152W        W91573  40.013  36.480   0.483
30153W        W91574  35.857  23.075  10.547
30154W        W91575  29.070   9.761   0.957
30155W        W91576  24.185  25.058  14.765
30156W        W91577   9.368  32.061  12.459
30157W        W91578  26.509   4.765  13.314
30158W        W91579  31.108  16.604   2.223
30159W        W91580   6.414  32.131   2.834
30160W        W91581  17.219  17.076   4.720
30161W        W91582  38.068  23.042   4.145
30162W        W91583  14.284  17.155   3.798
30163W        W91584  14.636  22.082   4.785
30164W        W91585  13.729  12.244  13.467
30165W        W91586   7.853  23.493   4.126
30166W        W91587  21.619  39.023  10.137
30167W        W91588  10.263  38.509  11.563
30168W        W91589  36.571  30.955  14.350
30169W        W91590  37.352   4.314  14.837
30170W        W91591  40.008  38.552   2.348
30171W        W91592  18.768  32.101  11.907
30172W        W91593  41.316  19.169  10.944
30173W        W91594  21.565  13.161  11.924
30174W        W91595  10.309  38.543  13.383
30175W        W91596   3.349  43.963  12.446
30176W        W91597  14.696  35.090   0.308
30177W        W91598  36.068  12.705   0.246
30178W        W91599   7.860   0.340   1.339
30179W        W91600  39.431  38.878   2.306
30180W        W91601  21.178   1.306  13.477
30181W        W91602  37.976  30.052  14.026
30182W        W91603  12.857   8.172  12.023
30183W        W91604  25.590  15.728  11.422
30184W        W91605   6.406  39.984   4.265
30185W        W91606   8.290  34.104  14.853
30186W        W91607  32.996   8.779  14.904
30187W        W91608  32.623  21.238   2.313
30188W        W91609   2.458  14.311  14.364
30189W        W91610  38.500   9.752  12.350
30190W        W91611  32.021   0.927  10.627
30191W        W91612  23.992  15.144  11.856
30192W        W91613  26.176  44.934   3.332
30193W        W91614  28.540   2.446  11.044
30194W        W91615  36.573   9.752  12.423
30195W        W91616   9.888  43.340  14.317
30196W        W91617  33.091   5.719  14.466
30197W        W91618   0.297  23.049   4.146
30198W        W91619  24.227  11.640  10.633
30199W        W91620  21.588  36.356  13.014
30200W        W91621  43.864   1.369  14.493
30201W        W91622  20.560  19.209   1.339
30202W        W91623  32.519  35.021  13.884
30203W        W91624  18.713   2.240  13.383
30204W        W91625   3.791  43.891   3.664
30205W        W91626  15.115  44.387  12.054
30206W        W91627  18.140   5.384  13.457
30207W        W91628  17.190   7.695  11.082
30208W        W91629  26.460   5.269  12.859
30209W        W91630   5.255  24.625   1.336
30210W        W91631  38.027   3.379   1.875
30211W        W91632  43.797  26.062  14.404
30212W        W91633  23.728   9.698   3.181
30213W        W91634   6.902   0.468   3.365
30214W        W91635  24.621  42.304   0.280
30215W        W91636   9.186  33.127   1.761
30216W        W91637  42.004  41.026  14.376
30217W        W91638  29.097   6.819   4.278
30218W        W91639   8.870  31.622   0.406
30219W        W91640   3.945  16.620   1.446
30220W        W91641   7.284  23.652   2.844
30221W        W91642  24.973  27.455  12.563
30222W        W91643  21.038  27.132   1.733
30223W        W91644  17.611   7.669  13.049
30224W        W91645   5.337  43.342  12.932
30225W        W91646  24.068  17.637   2.854
30226W        W91647  19.766  41.316  13.965
30227W        W91648  26.034   5.347  14.284
30228W        W91649  11.240  29.588   3.744
30229W        W91650  26.970  37.834   0.425
30230W        W91651   9.224  28.530   1.878
30231W        W91652  39.382   3.306  13.864
30232W        W91653   4.801   0.492  11.089
30233W        W91654  24.226  32.624  10.479
30234W        W91655  44.477  38.958  11.922
30235W        W91656  20.581  10.705   3.653
30236W        W91657  31.437   1.436   2.223
30237W        W91658  14.653   5.722   1.840
30238W        W91659  11.289  43.345   3.752
30239W        W91660   9.794   7.285  10.555
30240W        W91661  27.690  20.760   0.295
30241W        W91662  36.583  24.534   1.724
30242W        W91663  33.409  40.832  14.807
30243W        W91664  15.248   7.707  13.854
30244W        W91665   5.270  27.598   9.991
30245W        W91666  31.149  34.051  10.432
30246W        W91667  35.595  21.070   0.770
30247W        W91668  23.655   8.329  14.776
30248W        W91669  12.776  40.303  11.490
30249W        W91670  44.756  22.626   9.930
30250W        W91671  41.356  33.981   4.147
30251W        W91672  41.467   8.883   4.608
30252W        W91673  18.236  30.419   2.260
30253W        W91674  20.646   6.735   4.650
30254W        W91675  33.551  29.555  13.308
30255W        W91676  17.065  34.496   4.834
30256W        W91677  29.094  14.304  13.963
30257W        W91678  37.037   6.745   0.832
30258W        W91679  18.075   5.721  13.520
30259W        W91680  12.321   5.353  11.388
30260W        W91681  41.428   2.915   2.235
30261W        W91682   4.702   1.283  11.509
30262W        W91683  38.425  16.200  12.411
30263W        W91684  20.651  21.187   4.607
30264W        W91685  16.272  24.154  13.940
30265W        W91686  38.902  41.339   2.704
30266W        W91687   7.403  25.693  14.900
30267W        W91688  10.757  26.521  12.532
30268W        W91689  22.513  14.807  11.116
30269W        W91690  16.087  32.449  14.954
30270W        W91691  37.968  23.569   5.101
30271W        W91692  25.033  43.849  13.842
30272W        W91693  32.040  11.820   1.342
30273W        W91694  33.881  11.680   1.753
30274W        W91695  15.810  38.862   0.438
30275W        W91696  12.293  35.942  11.031
30276W        W91697  10.202  30.961  12.543
30277W        W91698  16.597  29.584  13.387
30278W        W91699  40.896  14.259   9.535
30279W        W91700  24.084  24.128  10.930
30280W        W91701  36.402  33.515  14.339
30281W        W91702  41.359   0.485   2.805
30282W        W91703  39.056  18.775  12.378
30283W        W91704   8.311  42.482   3.703
30284W        W91705  34.378  25.142   4.148
30285W        W91706  33.426  14.785   3.732
30286W        W91707  43.829  10.809  13.389
30287W        W91708   2.463  33.935   3.192
30288W        W91709   8.875  21.681   0.779
30289W        W91710   9.286   5.852  12.945
30290W        W91711   7.720  20.571  10.556
30291W        W91712  17.301   6.690   0.902
30292W        W91713   7.706   4.756   1.726
30293W        W91714  29.127  25.678   1.840
30294W        W91715  37.939  17.256  11.110
30295W        W91716  13.612  40.032   4.128
30296W        W91717  29.167  11.637   4.210
30297W        W91718   5.910  28.185  14.928
30298W        W91719  16.260  12.848   2.761
30299W        W91720  42.992  42.921  14.499
30300W        W91721   2.939  43.507  12.462
30301W        W91722  10.272  34.895   1.815
30302W        W91723  36.962  22.057  12.091
30303W        W91724  36.377  28.556   4.802
30304W        W91725   3.279   7.386  11.092
30305W        W91726  14.272   9.327   4.120
30306W        W91727  15.763  21.213   3.243
30307W        W91728  22.063  41.470  11.866
30308W        W91729  27.173   9.309  11.611
30309W        W91730  19.058  38.994   1.897
30310W        W91731  24.683  12.667   2.788
30311W        W91732   9.813  30.621   4.701
30312W        W91733   3.403   7.366  11.988
30313W        W91734   9.760   9.861   3.297
30314W        W91735  28.670  18.119  13.810
30315W        W91736  29.603  40.015  13.022
30316W        W91737  36.442  15.322   4.688
30317W        W91738  12.808  10.770  11.027
30318W        W91739   2.239  22.536   3.376
30319W        W91740  41.032   5.845   2.218
30320W        W91741  39.409  44.435  13.796
30321W        W91742  40.010  10.304   3.273
30322W        W91743  21.124  44.881   4.799
30323W        W91744  34.584  25.142  13.516
30324W        W91745   0.778   2.420  10.461
30325W        W91746  22.244  11.237   2.755
30326W        W91747  30.607  16.244   1.341
30327W        W91748  25.702  26.186  11.908
30328W        W91749  43.847  24.996  14.811
30329W        W91750   6.856  25.578  11.385
30330W        W91751  40.435  26.960  10.624
30331W        W91752  28.595   3.786  12.427
30332W        W91753  21.619   2.921  13.499
30333W        W91754  19.169  43.814   0.457
30334W        W91755  30.512   0.834  11.445
30335W        W91756   9.231  32.595  11.430
30336W        W91757  36.952  34.430   1.823
30337W        W91758  35.056   2.859  10.484
30338W        W91759  37.840  26.457   0.818
30339W        W91760  22.194  33.420  11.924
30340W        W91761  38.865  39.386  12.528
30341W        W91762  22.051  22.575   1.225
30342W        W91763  20.067  12.116   1.238
30343W        W91764  27.069   3.828   3.834
30344W        W91765  21.591  33.983   0.790
30345W        W91766  32.546  43.803   2.765
30346W        W91767  14.664   6.221  12.869
30347W        W91768  39.456  12.689   2.281
30348W        W91769  18.732  41.483  12.839
30349W        W91770  16.205  15.172   2.209
30350W        W91771  38.913  44.263  13.982
30351W        W91772   6.678   3.937   3.758
30352W        W91773  30.038   3.298  10.578
30353W        W91774  40.538  32.504   4.143
30354W        W91775  17.178  22.579   2.686
30355W        W91776  27.623  37.399  13.814
30356W        W91777  34.007  32.064  12.365
30357W        W91778  11.662  43.394   1.787
30358W        W91779  14.299  18.094   2.812
30359W        W91780  36.037  43.380   2.664
30360W        W91781  17.087   6.881  11.887
30361W        W91782  22.012  11.627  14.497
30362W        W91783   8.349  38.051   0.934
30363W        W91784   0.775  30.467   2.878
30364W        W91785  24.094  35.953   3.319
30365W        W91786  13.763  12.615  13.833
30366W        W91787  27.597  39.986  10.990
30367W        W91788  10.383  17.291  12.862
30368W        W91789  40.049  32.934   4.649
30369W        W91790  31.926  39.052  13.941
30370W        W91791  39.839   8.680  11.062
30371W        W91792  14.267   6.304  11.506
30372W        W91793  20.092  27.580   4.680
30373W        W91794  38.883  10.238   4.740
30374W        W91795  16.806   7.380  10.611
30375W        W91796  40.456  15.321  14.836
30376W        W91797  21.155  14.153  14.906
30377W        W91798  38.359   9.849  13.393
30378W        W91799  22.240  24.011  14.832
30379W        W91800   5.863   1.926   5.595
30380W        W91801  40.823  41.372  10.962
30381W        W91802  38.434   7.228   2.337
30382W        W91803  30.108  40.898   3.320
30383W        W91804  16.113  35.904   4.249
30384W        W91805  42.387  22.070   3.837
30385W        W91806  10.811   6.276   2.251
30386W        W91807  27.559  32.605  12.361
30387W        W91808  26.990  17.683   0.346
30388W        W91809  38.954  18.244   2.859
30389W        W91810   0.306  20.747  14.958
30390W        W91811   5.336  31.930   1.911
30391W        W91812  24.612  37.945  10.548
30392W        W91813   4.419   3.831   3.364
30393W        W91814   1.379  34.489  12.517
30394W        W91815  25.083  26.630   2.775
30395W        W91816   8.761  39.024  11.529
30396W        W91817  31.058  23.213  11.565
30397W        W91818   3.824  27.107  14.384
30398W        W91819  32.562   4.911   4.219
30399W        W91820  32.070  27.016  12.922
30400W        W91821  32.491  37.468  14.794
30401W        W91822  12.236  14.210  14.475
30402W        W91823  13.351  26.604  11.097
30403W        W91824  38.927  12.674   0.377
30404W        W91825  11.770  35.377  12.956
30405W        W91826  33.920  30.035   3.843
30406W        W91827  29.526  25.614  14.332
30407W        W91828  24.484   7.870  14.328
30408W        W91829  10.274  17.634   3.363
30409W        W91830  21.577  28.631   3.700
30410W        W91831  13.134  31.412  13.861
30411W        W91832  21.525   4.286  10.160
30412W        W91833   8.172   5.324  12.353
30413W        W91834  33.618  16.252  10.898
30414W        W91835  20.764  36.567   4.820
30415W        W91836  11.193  17.623   0.738
30416W        W91837  21.109  19.675  14.797
30417W        W91838  13.149  21.748  13.463
30418W        W91839  14.331  28.061   4.148
30419W        W91840  16.780  40.362   0.885
30420W        W91841  30.596  36.372   0.272
30421W        W91842   7.745  17.655  14.997
30422W        W91843  26.627  42.956  11.993
30423W        W91844  41.370  27.977  12.384
30424W        W91845  35.533   5.233  11.461
30425W        W91846  25.599  32.129   2.890
30426W        W91847  16.756  26.159   3.297
30427W        W91848  31.038  34.406   1.249
30428W        W91849   2.368  36.069   3.241
30429W        W91850  37.528   7.756   3.233
30430W        W91851   3.896  12.649   2.337
30431W        W91852  44.401  33.085   5.267
30432W        W91853  23.089  22.143   2.893
30433W        W91854  19.578  20.061  11.060
30434W        W91855  29.956  38.440  10.448
30435W        W91856   7.792  18.120   0.938
30436W        W91857  16.729  36.974   2.761
30437W        W91858  25.999  11.768   3.165
30438W        W91859  35.958  18.761  11.608
30439W        W91860  28.565  26.095  14.841
30440W        W91861  26.171   4.361   3.236
30441W        W91862  28.974  30.470  10.498
30442W        W91863  38.891   0.251   4.163
30443W        W91864   2.292  27.671   1.935
30444W        W91865  19.233   0.834  13.916
30445W        W91866  37.882  32.005   9.979
30446W        W91867  16.305  11.306  14.791
30447W        W91868   3.449  21.571   2.197
30448W        W91869  29.664  41.812  14.852
30449W        W91870  31.460   4.285  10.470
30450W        W91871  11.360  19.219   1.830
30451W        W91872  35.533   6.683  11.607
30452W        W91873   2.886  13.832   1.212
30453W        W91874   2.399  15.763   1.338
30454W        W91875  43.289  15.772  12.998
30455W        W91876  24.151  39.360  11.469
30456W        W91877  14.751  28.063  14.474
30457W        W91878  13.196  30.036   0.963
30458W        W91879  17.766  33.028   4.829
30459W        W91880  13.660  41.870   2.803
30460W        W91881  26.198  25.600  13.048
30461W        W91882  35.490  10.676   2.390
30462W        W91883  13.644  33.475   0.446
30463W        W91884   2.370  44.494   1.298
30464W        W91885  32.435  36.945   4.190
30465W        W91886  34.532  13.307  10.539
30466W        W91887  35.860  36.986  12.932
30467W        W91888   2.422  24.629  13.026
30468W        W91889  25.073  32.403  14.942
30469W        W91890  37.967  34.939   2.878
30470W        W91891   4.890   4.309  14.515
30471W        W91892  12.207  10.166   2.782
30472W        W91893  33.392  37.454  12.495
30473W        W91894  41.357  41.011   2.392
30474W        W91895  26.094  29.505  13.485
30475W        W91896  16.078  25.120  12.560
30476W        W91897  19.652  34.905   1.894
30477W        W91898  24.527   0.865  10.635
30478W        W91899  34.979  26.460   4.236
30479W        W91900  38.331  19.749   1.299
30480W        W91901  33.459  32.610   0.939
30481W        W91902   4.417  31.910   2.418
30482W        W91903  18.693  12.297   9.948
30483W        W91904  40.844  17.645  10.517
30484W        W91905  34.388  28.607  12.353
30485W        W91906   1.251  43.405  14.003
30486W        W91907   5.330   3.236  11.392
30487W        W91908  29.112  34.538   4.648
30488W        W91909  24.655  32.415  12.424
30489W        W91910  42.522   5.687   4.220
30490W        W91911  10.317   8.407  12.068
30491W        W91912  37.528   7.689   1.361
30492W        W91913   3.380  32.581  11.389
30493W        W91914  13.623  22.628   2.378
30494W        W91915   5.851  33.574   2.891
30495W        W91916  38.043   4.866   4.267
30496W        W91917  13.735  41.375  10.961
30497W        W91918  38.367  43.313   0.884
30498W        W91919  31.567  31.901   4.684
30499W        W91920  41.857  41.467   4.655
30500W        W91921  36.536  30.929   3.633
30501W        W91922   7.681  16.191   2.326
30502W        W91923  23.664  43.402   0.269
30503W        W91924  32.423  34.962   3.338
30504W        W91925  21.666  40.357   4.824
30505W        W91926  20.207  36.867  12.006
30506W        W91927  30.009  16.609  12.482
30507W        W91928   9.256  39.965   3.794
30508W        W91929  24.669  19.060   4.316
30509W        W91930  28.930  36.964   1.814
30510W        W91931   3.709  31.911  11.967
30511W        W91932  29.507   0.252  14.904
30512W        W91933  20.753   0.494  11.883
30513W        W91934  41.321  42.397  13.957
30514W        W91935  30.474  25.990  13.848
30515W        W91936   2.441  31.595   3.636
30516W        W91937  19.638  30.138  13.792
30517W        W91938  40.311  13.627  10.615
30518W        W91939  19.063  13.738   5.322
30519W        W91940  35.528  38.449   1.430
30520W        W91941  32.113   6.771  14.905
30521W        W91942  13.208   7.260  11.111
30522W        W91943   3.868  16.718   4.694
30523W        W91944  38.436  17.167   3.860
30524W        W91945   7.275   5.384  12.920
30525W        W91946   9.792  35.401   2.732
30526W        W91947   9.726  35.017   1.931
30527W        W91948   7.890  42.854   2.336
30528W        W91949  23.626   2.785  14.870
30529W        W91950  22.612  30.435   3.735
30530W        W91951  44.389  41.823   4.130
30531W        W91952  14.166   3.896  12.374
30532W        W91953   1.441  26.068  14.980
30533W        W91954  44.463  30.157   4.228
30534W        W91955  41.838  13.215   2.408
30535W        W91956  41.949  11.333  10.526
30536W        W91957   9.237   6.272  13.365
30537W        W91958  28.443  21.543  11.432
30538W        W91959   9.761   8.226   2.832
30539W        W91960  41.859  13.730  14.858
30540W        W91961  16.269  37.533   0.743
30541W        W91962  41.335  20.034  14.487
30542W        W91963  33.592  28.169  13.926
30543W        W91964  33.582  17.794  14.316
30544W        W91965  21.622   2.282   0.822
30545W        W91966  21.121   7.191  10.432
30546W        W91967   2.277  10.262  14.865
30547W        W91968  29.005   5.906   4.229
30548W        W91969  16.645  41.928  12.063
30549W        W91970  30.469  36.989  12.898
30550W        W91971   8.723  14.226   0.859
30551W        W91972  13.129  17.148   2.729
30552W        W91973  15.773  22.726   3.720
30553W        W91974  22.649  36.571  11.061
30554W        W91975   0.778  29.492   0.936
30555W        W91976   2.833  36.382  13.390
30556W        W91977  40.433  36.081   4.182
30557W        W91978  34.604  22.609  11.517
30558W        W91979  31.643  39.409   4.719
30559W        W91980   3.239  20.561   1.838
30560W        W91981   0.417  19.745   3.304
30561W        W91982  41.815  20.111  11.904
30562W        W91983  11.651  12.752   1.287
30563W        W91984  38.396  19.540  14.365
30564W        W91985  36.488  28.136  10.590
30565W        W91986  21.727  43.936  13.495
30566W        W91987  35.552  41.301  13.401
30567W        W91988  14.260   3.896   1.770
30568W        W91989  24.658  19.093  14.303
30569W        W91990  44.343  25.208  11.520
30570W        W91991  40.386  13.669   0.883
30571W        W91992  21.547  17.095  10.924
30572W        W91993  39.348  31.991   1.749
30573W        W91994   2.289  20.681  14.912
30574W        W91995  40.503  39.538  14.828
30575W        W91996  36.493  32.447   3.668
30576W        W91997  17.118  30.150  14.366
30577W        W91998  33.938  21.678  12.563
30578W        W91999  43.342  24.176  12.085
30579W        W92000   2.734  10.818   4.762
30580W        W92001  36.872  40.464   1.340
30581W        W92002  39.486  43.962  14.353
30582W        W92003   2.955  10.656  14.792
30583W        W92004   4.799  33.017   2.201
30584W        W92005  14.330  38.485   4.221
30585W        W92006  19.184   9.288   2.207
30586W        W92007  28.494  44.395   1.401
30587W        W92008  39.000  36.460  10.031
30588W        W92009  37.991   8.247  10.450
30589W        W92010  31.975   9.786  13.798
30590W        W92011  40.355  21.729  11.107
30591W        W92012  39.038  17.079   4.799
30592W        W92013  41.484  27.197   4.343
30593W        W92014  18.227   7.827   0.401
30594W        W92015  24.707   4.345   0.262
30595W        W92016  22.173   1.790  11.109
30596W        W92017   6.723  41.400   2.261
30597W        W92018  38.826  25.156   0.946
30598W        W92019  14.199  33.958  13.481
30599W        W92020  41.432  26.200  13.348
30600W        W92021  28.611  33.986   0.343
30601W        W92022   8.781  35.866  14.405
30602W        W92023  30.488  19.178  12.994
30603W        W92024  11.365  15.108  12.848
30604W        W92025  30.553  11.228   3.271
30605W        W92026   9.254  21.667  13.847
30606W        W92027  36.978   0.882  13.028
30607W        W92028  17.628  11.258  14.394
30608W        W92029  21.204  27.120   4.629
30609W        W92030  30.988  32.909  13.805
30610W        W92031  11.710   5.207  13.533
30611W        W92032  26.587  26.964  14.772
30612W        W92033  16.572   6.776   0.795
30613W        W92034   9.789   6.827   1.304
30614W        W92035   8.851   5.904  14.308
30615W        W92036  41.837  35.007  12.075
30616W        W92037  41.378   4.333   1.341
30617W        W92038   6.314  14.746   3.381
30618W        W92039  18.571   4.770  12.014
30619W        W92040  21.514  17.202  12.993
30620W        W92041   0.397  39.974  12.384
30621W        W92042  25.027   7.181  10.404
30622W        W92043  44.932  14.128   2.895
30623W        W92044  39.962   3.278  10.525
30624W        W92045  12.241  14.779  10.620
30625W        W92046  44.980   1.883  12.960
30626W        W92047   5.786  27.466   2.268
30627W        W92048  15.785  16.718   0.952
30628W        W92049  34.066  26.132  12.962
30629W        W92050   5.772  33.579  13.342
30630W        W92051  44.332  10.383  13.950
30631W        W92052  31.485   7.240  11.518
30632W        W92053   5.399  17.680   1.391
30633W        W92054  30.078   4.755  11.062
30634W        W92055  26.512  13.632   0.885
30635W        W92056   2.725   9.226   1.354
30636W        W92057  38.390  39.392  12.890
30637W        W92058  41.313  24.994  13.958
30638W        W92059   9.779  41.013  13.521
30639W        W92060  11.239  36.351  12.890
30640W        W92061  40.829  37.892  13.487
30641W        W92062  26.968  44.785   2.665
30642W        W92063  16.611  32.459  10.979
30643W        W92064  28.495  34.518  10.624
30644W        W92065   2.931  36.865   4.643
30645W        W92066  20.696   9.865  11.474
30646W        W92067  28.930   0.430  12.025
30647W        W92068  39.327  27.140   1.804
30648W        W92069  19.661  28.445  12.560
30649W        W92070  25.542  34.976   3.841
30650W        W92071  19.720   3.325   2.672
30651W        W92072  42.315  25.630   1.245
30652W        W92073   9.280   3.284  10.445
30653W        W92074  24.547  26.490  14.980
30654W        W92075  36.890   2.925   2.902
30655W        W92076   7.339  24.021  13.944
30656W        W92077  23.173  27.492   1.700
30657W        W92078  13.317  21.136   4.656
30658W        W92079  33.102  10.823  11.927
30659W        W92080  18.234   8.673  11.601
30660W        W92081  11.196   2.384   4.707
30661W        W92082   0.301   7.407  13.042
30662W        W92083   1.758  44.401  11.389
30663W        W92084  39.479   4.205   3.780
30664W        W92085  22.519  10.304  14.284
30665W        W92086  29.069   0.276   3.804
30666W        W92087  32.004  42.826  14.836
30667W        W92088  25.649   4.829  13.372
30668W        W92089  28.181  24.707  12.972
30669W        W92090  41.538  11.854   2.869
30670W        W92091   5.228   6.825  13.794
30671W        W92092  31.137  42.834  13.544
30672W        W92093  19.239  30.077  11.561
30673W        W92094  10.271   6.890  13.961
30674W        W92095  11.851  21.036  11.013
30675W        W92096  23.080  21.546  14.838
30676W        W92097   8.297  26.680   4.625
30677W        W92098  36.046  35.398   1.232
30678W        W92099  25.964   7.235   2.383
30679W        W92100  12.330  20.622  14.002
30680W        W92101  20.134  35.553   4.270
30681W        W92102  29.432  38.503   0.466
30682W        W92103   2.378  26.684   4.732
30683W        W92104  23.030  18.599  12.002
30684W        W92105  42.854  25.607   0.841
30685W        W92106   7.310  18.091   0.764
30686W        W92107  13.815  32.087   0.871
30687W        W92108  31.627  31.402  10.504
30688W        W92109  34.944  15.309  14.468
30689W        W92110  19.115  41.873  14.930
30690W        W92111  31.449  44.760  12.975
30691W        W92112  29.165  44.476   4.809
30692W        W92113   8.382  22.196   0.732
30693W        W92114  17.751  13.338  13.370
30694W        W92115  27.691  43.406   1.820
30695W        W92116  39.940  29.628  14.016
30696W        W92117  10.187  12.717   3.766
30697W        W92118   1.349  39.498  12.069
30698W        W92119   3.221  36.005   2.260
30699W        W92120  12.268  27.165   1.224
30700W        W92121  39.905  21.039  11.585
30701W        W92122  39.379  22.513  14.461
30702W        W92123  13.163  35.385  14.455
30703W        W92124  30.448   7.834   4.826
30704W        W92125  27.132  25.684   1.930
30705W        W92126  24.198  28.675   2.766
30706W        W92127  26.640  27.537   2.313
30707W        W92128  31.427   6.817  13.010
30708W        W92129  33.028  11.787  12.034
30709W        W92130  20.620  34.493   0.252
30710W        W92131  14.289  35.461   1.812
30711W        W92132   8.869   4.356   4.256
30712W        W92133  40.409   7.791  10.998
30713W        W92134  22.205  39.476  10.949
30714W        W92135  19.269  44.458   3.194
30715W        W92136  25.213  20.037   2.827
30716W        W92137   1.818  15.597   0.304
30717W        W92138  17.222  15.126   4.236
30718W        W92139   7.750  22.726  11.942
30719W        W92140   9.378  37.931  12.990
30720W        W92141  37.991  12.153   0.933
30721W        W92142  23.086  27.579  13.861
30722W        W92143  24.590   8.687   4.607
30723W        W92144   3.867  34.062   0.835
30724W        W92145   6.396  38.408   2.755
30725W        W92146  32.520  20.196  12.998
30726W        W92147  23.043  29.435   3.270
30727W        W92148  14.176   0.314  11.032
30728W        W92149  12.283  26.691  14.328
30729W        W92150  34.112   3.392  11.124
30730W        W92151  33.572  25.539   4.149
30731W        W92152   6.287   7.288  12.406
30732W        W92153  14.114   7.823   5.235
30733W        W92154   0.786  14.690   2.315
30734W        W92155  33.961  12.133   1.446
30735W        W92156   5.809   5.342   4.710
30736W        W92157  32.932   0.266  10.967
30737W        W92158  35.951  29.520  14.770
30738W        W92159  37.858  22.551  12.444
30739W        W92160  39.974  14.719   0.801
30740W        W92161  31.058  17.649  12.524
30741W        W92162  30.512  30.478   2.886
30742W        W92163  38.005  29.968   0.943
30743W        W92164  37.467   6.884   2.253
30744W        W92165  31.560  11.736   3.853
30745W        W92166  14.718  34.476  13.862
30746W        W92167  12.660  26.118   0.745
30747W        W92168  41.790  29.145  12.038
30748W        W92169  34.925  19.626   4.325
30749W        W92170  21.611  21.021   1.228
30750W        W92171  23.579  42.909   4.800
30751W        W92172  22.501   9.150   2.736
30752W        W92173   9.265  34.085   0.923
30753W        W92174  38.418  16.254  10.915
30754W        W92175  16.228  30.134   0.326
30755W        W92176   7.740   3.822   3.731
30756W        W92177   6.332  38.820   2.771
30757W        W92178   5.374  37.336   0.964
30758W        W92179  37.504  24.209  11.517
30759W        W92180  40.933  32.603   4.782
30760W        W92181  27.521   4.755   0.745
30761W        W92182  30.123  40.321   4.249
30762W        W92183  39.904   3.742  14.398
30763W        W92184   4.823  23.109  14.429
30764W        W92185  32.964  23.691  12.858
30765W        W92186  17.719  30.518   9.534
30766W        W92187  35.866  37.464  10.597
30767W        W92188  16.263  18.726   2.184
30768W        W92189  17.660  36.493  10.892
30769W        W92190  11.839  36.008  11.559
30770W        W92191  37.416  44.484  10.510
30771W        W92192  34.425  22.177   2.413
30772W        W92193  27.683  31.969  12.518
30773W        W92194  19.218  17.108  11.893
30774W        W92195  39.425  31.045   4.751
30775W        W92196  10.794  44.439  13.521
30776W        W92197  36.913   2.337   2.384
30777W        W92198  22.553  32.401   4.155
30778W        W92199  37.025  33.439   1.935
30779W        W92200  11.845  27.102   0.762
30780W        W92201  13.117  25.633  13.361
30781W        W92202  11.219  14.336   4.158
30782W        W92203  35.020  43.785  12.886
30783W        W92204  39.455  28.462   3.688
30784W        W92205  33.537   9.858   4.774
30785W        W92206  32.049  30.071  14.852
30786W        W92207   3.447  39.509  14.914
30787W        W92208   8.708  17.630  11.400
30788W        W92209  43.005  41.851   4.199
30789W        W92210  25.055   5.252   5.311
30790W        W92211  23.589  39.954  12.508
30791W        W92212  14.757  31.122   3.662
30792W        W92213  22.632  17.264   1.321
30793W        W92214   5.725   1.302  11.989
30794W        W92215  42.334  15.644  10.473
30795W        W92216  13.816  23.071  14.890
30796W        W92217  16.759  29.465  11.443
30797W        W92218  16.600  20.215  14.919
30798W        W92219  23.216  38.505  13.824
30799W        W92220  42.455  28.639   3.851
30800W        W92221   2.835  10.167  13.988
30801W        W92222   9.752  41.957   4.239
30802W        W92223  25.684  32.988  13.791
30803W        W92224   2.365  12.187  13.324
30804W        W92225  37.978  11.195   4.600
30805W        W92226  11.695   8.876   4.618
30806W        W92227  22.736  26.071   2.843
30807W        W92228  33.584  44.002  11.931
30808W        W92229  17.556  19.610   4.324
30809W        W92230  43.404  12.248  12.860
30810W        W92231  29.919  21.206  13.401
30811W        W92232  41.840  40.901  11.409
30812W        W92233  26.633  21.554  11.528
30813W        W92234   3.881  42.401   1.916
30814W        W92235  29.495  39.401   1.449
30815W        W92236  10.198  22.110  13.441
30816W        W92237  25.543   0.816   0.408
30817W        W92238  34.903  42.854  12.517
30818W        W92239   1.420  17.115  12.944
30819W        W92240  40.937  30.131   0.832
30820W        W92241  28.552  37.489   2.287
30821W        W92242   3.410  31.086  13.532
30822W        W92243  10.236   8.861  11.483
30823W        W92244  20.236  31.557  13.915
30824W        W92245   1.886  40.021   1.839
30825W        W92246  10.338  23.528   3.331
30826W        W92247   1.250  26.545   4.194
30827W        W92248  12.291  17.685   3.309
30828W        W92249   2.327  16.608   4.193
30829W        W92250  22.516  10.298   4.192
30830W        W92251  11.626  32.959  11.073
30831W        W92252  10.802  34.491  14.473
30832W        W92253  11.246  41.327  14.375
30833W        W92254  17.099   8.235   0.729
30834W        W92255  31.635   1.441   0.458
30835W        W92256   9.368  31.964  14.366
30836W        W92257  28.624  29.530   2.798
30837W        W92258  17.773   3.908  13.960
30838W        W92259  12.166  26.486  12.391
30839W        W92260  37.506  39.830   2.280
30840W        W92261  38.027  27.691  13.029
30841W        W92262  42.382  23.734  11.455
30842W        W92263   0.295  39.342  12.579
30843W        W92264   2.754  40.930   1.745
30844W        W92265   3.387   8.876   3.791
30845W        W92266  43.791  21.594   1.827
30846W        W92267  16.182  16.756   0.815
30847W        W92268  25.645  22.693   0.445
30848W        W92269   4.931   7.885  10.947
30849W        W92270   4.902   8.190   4.716
30850W        W92271  44.290  27.043   3.801
30851W        W92272  30.487   4.309   2.762
30852W        W92273  37.391  22.626  14.907
30853W        W92274  11.207  12.172   2.345
30854W        W92275  16.148  23.701   1.850
30855W        W92276  32.005  11.220  12.385
30856W        W92277  35.992  15.135  13.849
30857W        W92278  43.771  23.201   3.365
30858W        W92279  21.079   1.377   2.276
30859W        W92280   7.276   8.312   3.852
30860W        W92281  13.210  19.573   5.284
30861W        W92282   0.432   2.387   5.124
30862W        W92283  24.541  14.781  10.425
30863W        W92284  30.920   9.664   3.358
30864W        W92285   5.927   2.452  12.994
30865W        W92286  43.854  31.620  12.842
30866W        W92287  34.926  44.411  12.990
30867W        W92288   6.279  39.395  14.983
30868W        W92289  37.450  26.490   0.341
30869W        W92290  41.839  43.927  11.016
30870W        W92291  29.491  37.844   0.887
30871W        W92292  22.599  26.078   0.793
30872W        W92293  28.129  44.929   2.834
30873W        W92294   1.957   5.877   4.762
30874W        W92295   9.860  22.191  12.552
30875W        W92296  41.891  28.635   3.203
30876W        W92297   7.681  26.176   2.353
30877W        W92298  42.789  26.611   1.446
30878W        W92299  43.455   6.923   4.822
30879W        W92300  40.539  37.978  12.532
30880W        W92301  24.109  33.542   4.634
30881W        W92302  43.509  20.140   4.341
30882W        W92303  20.172  33.555   2.284
30883W        W92304   9.333  27.487   2.857
30884W        W92305  27.108  29.598  12.068
30885W        W92306  31.066  25.112   0.861
30886W        W92307  35.426  42.282  12.918
30887W        W92308  39.053   5.837  14.821
30888W        W92309  24.524  15.794   2.413
30889W        W92310  20.061   6.895   2.274
30890W        W92311  15.306   1.845   1.443
30891W        W92312   9.707   3.225   0.350
30892W        W92313  27.110   7.787   4.161
30893W        W92314   8.657   0.270  10.992
30894W        W92315  27.950   1.736  13.847
30895W        W92316  11.263  34.482  14.469
30896W        W92317  40.810  24.717  13.515
30897W        W92318  38.377  11.721  12.380
30898W        W92319  31.539  30.512  12.070
30899W        W92320  38.483  13.126  13.850
30900W        W92321  28.461  40.827   3.294
30901W        W92322  39.330  40.408  14.345
30902W        W92323  25.133  12.270  10.622
30903W        W92324  23.136  29.487   4.732
30904W        W92325  12.828  39.317   4.233
30905W        W92326  25.496  11.635   0.744
30906W        W92327  13.601  41.368   4.209
30907W        W92328  20.118  23.165  13.346
30908W        W92329   7.225  12.694   3.248
30909W        W92330  13.286  17.066  10.956
30910W        W92331  15.628  13.823   1.248
30911W        W92332  25.684  12.219  10.641
30912W        W92333  29.498  18.781   2.730
30913W        W92334   6.200  32.949  12.858
30914W        W92335  40.929  32.472  12.376
30915W        W92336  44.982  14.604  13.805
30916W        W92337  25.083  37.970  13.057
30917W        W92338  12.304  29.959   1.379
30918W        W92339  33.094  18.065   0.446
30919W        W92340  44.340  31.483  10.155
30920W        W92341  21.050  16.111   3.288
30921W        W92342   2.772   9.652  12.839
30922W        W92343  41.439  37.530  14.861
30923W        W92344  35.944  40.352  11.391
30924W        W92345  25.095  38.966   1.328
30925W        W92346   3.840  27.967   0.299
30926W        W92347  14.676  23.567   9.930
30927W        W92348  18.555  37.968  10.603
30928W        W92349  12.645   7.326  14.436
30929W        W92350  29.430  36.474  12.480
30930W        W92351  31.584  43.458   2.316
30931W        W92352  40.811  38.992  12.079
30932W        W92353   7.278  21.541   3.762
30933W        W92354  39.500  30.536  12.991
30934W        W92355  10.349  17.624  13.413
30935W        W92356  22.713   7.330   0.372
30936W        W92357  36.031   8.674   1.269
30937W        W92358  33.529  23.571   3.312
30938W        W92359  10.235  44.259  12.849
30939W        W92360  37.087  22.152  12.418
30940W        W92361  41.415   7.675   3.714
30941W        W92362  30.475  32.604  13.915
30942W        W92363  16.147  35.414   2.302
30943W        W92364  35.953  15.311   0.817
30944W        W92365  35.972  22.637   4.698
30945W        W92366  33.623  29.052   2.711
30946W        W92367  27.501  18.159   1.875
30947W        W92368  30.012   8.326   2.717
30948W        W92369  43.478  12.778  10.563
30949W        W92370  27.196  27.514   3.703
30950W        W92371  29.433  32.924   1.295
30951W        W92372  32.035  40.388   2.335
30952W        W92373   2.947   7.726  10.896
30953W        W92374   5.335  38.022  13.792
30954W        W92375  27.453  21.072   4.807
30955W        W92376  24.048  41.397   3.287
30956W        W92377  27.164  40.342   0.306
30957W        W92378  16.573  24.674  11.095
30958W        W92379  17.095  35.390   3.704
30959W        W92380  32.450  12.356  14.929
30960W        W92381  18.551  15.650  14.983
30961W        W92382  44.387  40.511   4.792
30962W        W92383  32.115  37.537  13.979
30963W        W92384  28.603  26.639   2.248
30964W        W92385  33.070  10.362  13.991
30965W        W92386  15.085  16.673   4.796
30966W        W92387   2.256  36.514  12.900
30967W        W92388  15.635  26.140   2.777
30968W        W92389  39.914  10.862  14.928
30969W        W92390  16.166  24.037   3.821
30970W        W92391   0.874  22.546  10.030
30971W        W92392  19.747  18.149   2.684
30972W        W92393  26.541  25.981  11.389
30973W        W92394  31.968  23.696   0.432
30974W        W92395  27.545  25.114  11.092
30975W        W92396  35.427  14.776   2.844
30976W        W92397  17.167  29.431   4.203
30977W        W92398   7.747   8.341  13.326
30978W        W92399  43.392  23.205  11.984
30979W        W92400  33.127  41.906  12.359
30980W        W92401  39.835  31.113  12.038
30981W        W92402  11.339  33.562   1.450
30982W        W92403  35.568  12.662   3.803
30983W        W92404  42.025  42.986  14.298
30984W        W92405  36.445  40.979   3.794
30985W        W92406   5.407  34.086   2.666
30986W        W92407  18.172   4.367  11.024
30987W        W92408   4.738   7.736  12.082
30988W        W92409  22.094  39.909   4.655
30989W        W92410  21.017  18.755  14.489
30990W        W92411   3.821   5.904  11.567
30991W        W92412   5.727  23.037   1.835
30992W        W92413   2.431  18.169   3.371
30993W        W92414  19.669  38.566   4.655
30994W        W92415  42.348  20.658  13.793
30995W        W92416  17.663  22.148   4.721
30996W        W92417  42.803  36.544  12.086
30997W        W92418  13.816  28.179   3.233
30998W        W92419  34.501  43.394  10.611
30999W        W92420  28.589  17.167   1.856
31000W        W92421  20.134  33.001  11.118
31001W        W92422  36.869  36.874  13.988
31002W        W92423   4.302   9.279   0.843
31003W        W92424   8.316   9.676   0.377
31004W        W92425   3.240   3.326  12.828
31005W        W92426  15.768  12.135   2.878
31006W        W92427  16.294  11.676  10.142
31007W        W92428  19.203  43.788   4.684
31008W        W92429  34.105  20.265  10.938
31009W        W92430  22.561  38.471   0.354
31010W        W92431   4.841   2.750  11.952
31011W        W92432  14.237  21.714  13.342
31012W        W92433   0.795  15.176  12.935
31013W        W92434  20.167   8.694  12.388
31014W        W92435   2.732  44.351  11.476
31015W        W92436  25.655  22.195  10.417
31016W        W92437  43.445  41.465   4.764
31017W        W92438   9.380  10.683   1.431
31018W        W92439   9.367   7.729  11.421
31019W        W92440  43.896  19.762   2.872
31020W        W92441  39.955   2.863   3.201
31021W        W92442   2.424  14.716   2.802
31022W        W92443  28.982  44.788   3.384
31023W        W92444  15.684  11.731  12.446
31024W        W92445  38.513  24.075   1.735
31025W        W92446  43.805  13.315   0.352
31026W        W92447  39.455  27.644  12.524
31027W        W92448  18.080   3.390  12.386
31028W        W92449   1.822  32.941  12.043
31029W        W92450  26.658  30.464   1.838
31030W        W92451  35.554  38.504   4.241
31031W        W92452  22.711  14.809   1.291
31032W        W92453  38.847  12.844   3.859
31033W        W92454  21.672  10.212   2.299
31034W        W92455  42.506   8.383   2.827
31035W        W92456  44.452   0.940  13.013
31036W        W92457  35.046  32.897   3.857
31037W        W92458  31.588  13.130   9.520
31038W        W92459   3.935   5.304  14.327
31039W        W92460  44.368  36.085   4.600
31040W        W92461   5.291   1.446   3.255
31041W        W92462  18.669  29.028   5.097
31042W        W92463  29.956  41.526  10.463
31043W        W92464   5.812  10.750   4.123
31044W        W92465  14.780  31.409  13.966
31045W        W92466  16.660  32.567  10.449
31046W        W92467  20.158  21.032   2.745
31047W        W92468  11.777  34.040   2.391
31048W        W92469  41.355  19.159   0.872
31049W        W92470  25.551   5.233   4.139
31050W        W92471  29.602  44.758  10.414
31051W        W92472  43.779   7.832  13.971
31052W        W92473  22.556  29.040   1.828
31053W        W92474  38.844  27.680   0.273
31054W        W92475  13.163  25.651   3.217
31055W        W92476  28.451  16.084  14.866
31056W        W92477  35.056  27.654   3.200
31057W        W92478   3.371  30.642  10.642
31058W        W92479  28.517  12.326   3.221
31059W        W92480  26.164  38.520   3.291
31060W        W92481  30.634  24.004  14.909
31061W        W92482   3.838   5.930   4.216
31062W        W92483  23.605  19.608   0.897
31063W        W92484  36.905  22.631   0.830
31064W        W92485  43.801  21.047   2.242
31065W        W92486  19.039   5.753  14.962
31066W        W92487  23.076   7.236  12.570
31067W        W92488  26.594  20.232   5.151
31068W        W92489  16.631  44.863   3.767
31069W        W92490  12.624  10.179   1.903
31070W        W92491  39.395  26.581  11.915
31071W        W92492  17.655  27.147  12.064
31072W        W92493  22.198   2.362  13.441
31073W        W92494  25.196   4.258  11.100
31074W        W92495   6.375  18.056  14.309
31075W        W92496  15.163  34.512  13.420
31076W        W92497  43.977   6.833  14.398
31077W        W92498  22.132  10.734  13.455
31078W        W92499  19.198  42.412   3.229
31079W        W92500  11.308   7.398  11.897
31080W        W92501  17.187  44.463   3.205
31081W        W92502  34.039   7.842   0.862
31082W        W92503  31.629  10.315   9.959
31083W        W92504   3.918   4.252  11.071
31084W        W92505   3.406  20.197  11.040
31085W        W92506  30.014  18.179  12.934
31086W        W92507  37.873  27.648   3.146
31087W        W92508  13.311  17.180  11.867
31088W        W92509   7.244  13.651   1.784
31089W        W92510  24.548  28.544   4.304
31090W        W92511  37.543   5.377   3.191
31091W        W92512  23.086  22.174  10.595
31092W        W92513   9.303   5.299   1.739
31093W        W92514  27.117   0.891  11.408
31094W        W92515  37.459  19.582   4.265
31095W        W92516  10.841   7.855   2.769
31096W        W92517  25.125  41.294  10.613
31097W        W92518  33.066  16.111   0.304
31098W        W92519   4.292  44.421   0.924
31099W        W92520   1.426  29.094   4.784
31100W        W92521  13.266  37.890   0.961
31101W        W92522   0.750  29.000  10.544
31102W        W92523  32.105   3.359   3.181
31103W        W92524  22.712  20.766   9.927
31104W        W92525  41.417  13.184   1.873
31105W        W92526  39.384  22.653  12.823
31106W        W92527  43.883  38.488   1.824
31107W        W92528  12.835  20.208  11.092
31108W        W92529  35.451  40.049  13.344
31109W        W92530  11.663  41.989  12.541
31110W        W92531  43.985  32.422   4.745
31111W        W92532  33.508  39.919   2.738
31112W        W92533   3.366  28.001  10.599
31113W        W92534   3.272  23.055   1.380
31114W        W92535  39.550  15.315  12.363
31115W        W92536  40.014  18.689   4.125
31116W        W92537  35.442  11.692  14.948
31117W        W92538  24.098  32.030  10.420
31118W        W92539  23.132  20.172   1.781
31119W        W92540  22.616   7.268   4.230
31120W        W92541  28.471  20.611   1.761
31121W        W92542  36.841  25.080  11.506
31122W        W92543   0.356   9.824  12.840
31123W        W92544  43.400   2.379   2.404
31124W        W92545  32.980  26.048  13.470
31125W        W92546  24.514  42.864   3.367
31126W        W92547  36.965  25.683   1.447
31127W        W92548  42.469  31.518   0.478
31128W        W92549  27.519  12.186  14.414
31129W        W92550  21.187  11.727   0.481
31130W        W92551  22.136  15.293  11.926
31131W        W92552   5.416   3.725  14.838
31132W        W92553  19.108  22.531   0.823
31133W        W92554  34.038   1.765  13.484
31134W        W92555  21.654  15.120  14.874
31135W        W92556  41.504  22.745  11.047
31136W        W92557  29.648  35.430  13.332
31137W        W92558   6.216  43.343   4.319
31138W        W92559   2.863  13.164   2.394
31139W        W92560  26.537   8.888  13.537
31140W        W92561  30.537  16.152  10.015
31141W        W92562  17.680  11.856  10.607
31142W        W92563   0.939   9.358  13.931
31143W        W92564  17.249  29.423  10.642
31144W        W92565  10.851  20.654  14.950
31145W        W92566  23.236  10.346   4.635
31146W        W92567  42.954   5.331   4.347
31147W        W92568   0.801   3.867  10.075
31148W        W92569  30.990  25.564   4.142
31149W        W92570  21.149  29.977   0.868
31150W        W92571  34.900  24.006   3.378
31151W        W92572   1.784  37.976  10.604
31152W        W92573  39.338  32.490   3.297
31153W        W92574  16.682  22.102  10.628
31154W        W92575   1.944  37.054  13.903
31155W        W92576  29.655  31.534  12.921
31156W        W92577  22.236  23.716  13.907
31157W        W92578  19.144   9.327   3.283
31158W        W92579   6.353  35.604   4.157
31159W        W92580   4.383  30.604   1.433
31160W        W92581  11.243  44.429  11.496
31161W        W92582  21.747  39.315  10.617
31162W        W92583  24.512  25.142  11.374
31163W        W92584   2.825  23.731  13.971
31164W        W92585  25.208  22.013  10.432
31165W        W92586   8.792   8.831  12.408
31166W        W92587  28.674  29.122  13.917
31167W        W92588   9.755  26.647   2.786
31168W        W92589  15.215   6.854  13.374
31169W        W92590   7.753  25.116  13.846
31170W        W92591  14.702   1.958  12.463
31171W        W92592  24.614   8.271   1.696
31172W        W92593   0.848  26.956   4.306
31173W        W92594  27.954  41.798  11.895
31174W        W92595  24.488  22.667  13.452
31175W        W92596   7.896  19.545  13.945
31176W        W92597   1.246  15.800   0.346
31177W        W92598  13.124  27.106  11.422
31178W        W92599   5.254  19.063  10.645
31179W        W92600   2.274  33.593  11.973
31180W        W92601  29.510  18.095  13.876
31181W        W92602   0.305   1.388   1.343
31182W        W92603  41.412  41.294  13.452
31183W        W92604  19.534   0.428   4.710
31184W        W92605  10.343  28.528  12.519
31185W        W92606  19.561   3.938   5.206
31186W        W92607  33.568  18.289   3.638
31187W        W92608  44.316   4.828   1.400
31188W        W92609   0.459  34.434  12.905
31189W        W92610  39.910  18.269  13.383
31190W        W92611   0.371  27.168   4.172
31191W        W92612  34.865  20.588   2.358
31192W        W92613  10.647  16.241  12.961
31193W        W92614  23.589  36.953   0.791
31194W        W92615  29.623  10.763   4.239
31195W        W92616   8.664  18.753   4.260
31196W        W92617  19.607  38.569   1.713
31197W        W92618   3.448  15.171   0.281
31198W        W92619  27.053   0.936   4.674
31199W        W92620  18.724  11.744  12.470
31200W        W92621  35.951  44.414  13.847
31201W        W92622  32.620  31.015   3.784
31202W        W92623  28.647  23.562  14.450
31203W        W92624   8.284  11.727  13.491
31204W        W92625  30.142   6.218   4.257
31205W        W92626  37.007  36.970  10.413
31206W        W92627  39.925  19.564  11.599
31207W        W92628  25.489  34.904  11.119
31208W        W92629  15.801  34.516   1.700
31209W        W92630  35.894   6.706   2.337
31210W        W92631   4.328  26.602   4.737
31211W        W92632  11.199  21.617   1.228
31212W        W92633  23.695  37.416   3.729
31213W        W92634  19.122  39.925  11.578
31214W        W92635  24.581  18.554   1.788
31215W        W92636  33.993  13.710   4.630
31216W        W92637  42.957   5.213   2.298
31217W        W92638  32.100  14.612  14.814
31218W        W92639   5.362  15.719  11.489
31219W        W92640  23.160  26.637   5.111
31220W        W92641  33.580  40.985   2.215
31221W        W92642  16.710  34.973  11.003
31222W        W92643  44.452   7.860   1.328
31223W        W92644   9.259  29.426  11.883
31224W        W92645  27.463  25.547   0.793
31225W        W92646  32.608  21.715   0.939
31226W        W92647  26.630   0.856   0.451
31227W        W92648  34.935  13.702   3.208
31228W        W92649   4.863  33.106  14.862
31229W        W92650  15.591   7.702   1.380
31230W        W92651  11.331  20.599   0.783
31231W        W92652   3.951  11.245   0.324
31232W        W92653  13.332  24.558   1.726
31233W        W92654  25.016   3.761  12.909
31234W        W92655  12.779  14.179   4.220
31235W        W92656  22.243  41.370   2.320
31236W        W92657  18.112  34.902  13.932
31237W        W92658  35.866   6.201  12.046
31238W        W92659  44.940  37.970  11.114
31239W        W92660   7.358   3.289   2.306
31240W        W92661  31.439  28.931  10.626
31241W        W92662   6.288  22.512   3.851
31242W        W92663  35.521  43.796  12.366
31243W        W92664  15.088  10.736  10.427
31244W        W92665  10.383   7.722   1.394
31245W        W92666   2.395  16.631   0.789
31246W        W92667  23.113  27.558   4.138
31247W        W92668  20.535  22.231  10.905
31248W        W92669  10.755  35.998   4.352
31249W        W92670  43.398  37.387   0.945
31250W        W92671  29.138  20.057  10.545
31251W        W92672   1.900  31.055   2.234
31252W        W92673  32.963   5.388  14.495
31253W        W92674   3.709   2.961   2.884
31254W        W92675  36.578   9.821   0.403
31255W        W92676  16.800  25.102  14.777
31256W        W92677  13.813  20.526  12.033
31257W        W92678   0.446  25.661   1.349
31258W        W92679  25.015  38.382  12.988
31259W        W92680  24.632  23.154  13.833
31260W        W92681  11.302  14.275   1.793
31261W        W92682  16.248  13.234  10.999
31262W        W92683   3.802  35.441  11.038
31263W        W92684   5.877  22.039   4.154
31264W        W92685   3.828  40.003   2.353
31265W        W92686   3.428  28.038   0.907
31266W        W92687  17.226   3.288   4.146
31267W        W92688  25.074  44.875   4.187
31268W        W92689  33.464  23.569   4.676
31269W        W92690  25.594  28.003  13.854
31270W        W92691  10.646  17.736   0.883
31271W        W92692  36.513  42.822   1.796
31272W        W92693   8.188  42.381  12.916
31273W        W92694  31.513  23.621  14.979
31274W        W92695  26.979  10.199   1.295
31275W        W92696  23.630  24.017   3.157
31276W        W92697   0.290  28.538   4.709
31277W        W92698  24.546  21.588   1.432
31278W        W92699  18.130  19.595  12.900
31279W        W92700  31.899  20.056  10.482
31280W        W92701  19.070  15.594   5.716
31281W        W92702   8.379  34.091  11.074
31282W        W92703  23.568  13.735  11.893
31283W        W92704  13.172  37.892   0.411
31284W        W92705  32.580  27.468   2.700
31285W        W92706  11.291  35.369  13.906
31286W        W92707  23.035  43.991  11.478
31287W        W92708  30.530  22.669  14.379
31288W        W92709   1.854  28.632  13.359
31289W        W92710  29.494  30.917  11.491
31290W        W92711  43.798  19.058   3.258
31291W        W92712  29.167   1.953  12.509
31292W        W92713  31.624  15.587   2.890
31293W        W92714  34.933  23.714  13.857
31294W        W92715  34.047  15.299   1.888
31295W        W92716  43.270  35.855  12.086
31296W        W92717  32.014  14.785  11.407
31297W        W92718  28.073  16.615   1.933
31298W        W92719  42.826  16.623   1.898
31299W        W92720  31.038  34.402   3.176
31300W        W92721  40.522  21.135   2.246
31301W        W92722  27.143  30.461   3.688
31302W        W92723   8.351  19.632   1.354
31303W        W92724  32.439   1.965   1.445
31304W        W92725  16.318   2.422   0.811
31305W        W92726   3.835  25.135  14.384
31306W        W92727  28.017  40.818   0.906
31307W        W92728   6.265  23.642  12.417
31308W        W92729  44.899  12.755   3.738
31309W        W92730  19.581  13.241   5.151
31310W        W92731  24.192  19.662   1.400
31311W        W92732   4.387  30.429  11.441
31312W        W92733  22.053   3.419   3.350
31313W        W92734  31.948  27.052   0.813
31314W        W92735  37.832  18.158   0.747
31315W        W92736  16.209   1.272   1.285
31316W        W92737  20.230   7.813   3.201
31317W        W92738  30.514   0.285  12.024
31318W        W92739   4.793  19.758   3.647
31319W        W92740  29.555  13.161   2.898
31320W        W92741  16.152  26.600   2.790
31321W        W92742  21.753  37.080  11.859
31322W        W92743  23.695   1.944  10.992
31323W        W92744   6.227  22.017  13.919
31324W        W92745  44.815  11.159  11.087
31325W        W92746   2.296   1.791   2.823
31326W        W92747  17.556  34.923  11.579
31327W        W92748  24.210  36.413   2.878
31328W        W92749  37.923  37.982  13.412
31329W        W92750  12.339  27.082   1.826
31330W        W92751   3.321  12.667  10.481
31331W        W92752  44.800  38.955   1.765
31332W        W92753  13.709  38.465   3.243
31333W        W92754  14.669  18.207   2.181
31334W        W92755  34.399  12.129  10.430
31335W        W92756  40.830   8.267   1.916
31336W        W92757   7.794   9.742  14.397
31337W        W92758  25.008  14.788   2.400
31338W        W92759  44.467  44.873   0.246
31339W        W92760  28.127  26.058   2.808
31340W        W92761  42.507   2.858  11.958
31341W        W92762  23.195  42.958   1.725
31342W        W92763  24.611  21.222   2.664
31343W        W92764  43.291   7.844   1.848
31344W        W92765  40.011   6.819   4.671
31345W        W92766  15.149  36.524  14.828
31346W        W92767  34.068  31.620  10.582
31347W        W92768  37.023  43.419   3.638
31348W        W92769  27.511  30.137   0.889
31349W        W92770   7.327  11.802   1.433
31350W        W92771  40.822   6.298  13.850
31351W        W92772  11.250  44.504  10.631
31352W        W92773  13.203  19.637   2.702
31353W        W92774   0.305  26.145  12.398
31354W        W92775  41.332  32.019   3.331
31355W        W92776  26.583  25.030  13.400
31356W        W92777  36.046   6.280  13.366
31357W        W92778  42.941   2.749  12.035
31358W        W92779  25.637  29.545  10.890
31359W        W92780  38.499  26.597  14.479
31360W        W92781  29.020  13.178   0.443
31361W        W92782  21.688  36.584  10.481
31362W        W92783  28.585   6.774  11.026
31363W        W92784  11.674  31.603  13.431
31364W        W92785  35.073  33.512  14.285
31365W        W92786  39.339   4.864  10.555
31366W        W92787   7.327  22.067   1.416
31367W        W92788   9.233  37.942   9.922
31368W        W92789  19.658   7.245   3.730
31369W        W92790  40.357   7.817  11.950
31370W        W92791  16.091  21.572  14.501
31371W        W92792  25.048  37.855   1.720
31372W        W92793  31.574  36.520   0.427
31373W        W92794  11.696  19.671   3.849
31374W        W92795  38.911   2.245   4.320
31375W        W92796  18.672  25.140  10.066
31376W        W92797  12.130   4.285   0.381
31377W        W92798  31.027  37.975  14.961
31378W        W92799  17.146  28.659   3.192
31379W        W92800  40.364  22.607  12.492
31380W        W92801  12.235  21.143  10.121
31381W        W92802  37.832  18.573  14.440
31382W        W92803  19.114  12.255   4.207
31383W        W92804  24.137  16.075   2.374
31384W        W92805  21.255  10.746   0.429
31385W        W92806  28.974   8.797   2.846
31386W        W92807   6.257  41.868   5.183
31387W        W92808  24.670  35.464  11.061
31388W        W92809   1.459  24.514   5.229
31389W        W92810  20.175  16.660  14.938
31390W        W92811  37.440  24.198   1.432
31391W        W92812   1.807  36.928   1.345
31392W        W92813  13.242  22.155   3.683
31393W        W92814   6.825   9.369  11.564
31394W        W92815   9.340   4.248  11.902
31395W        W92816  27.448  19.736  14.784
31396W        W92817   7.830  33.406  12.405
31397W        W92818   6.347  10.666  12.547
31398W        W92819  21.750   2.445   1.695
31399W        W92820  35.387  16.207  10.455
31400W        W92821  18.240  21.705   4.813
31401W        W92822   5.232  28.970   4.748
31402W        W92823   5.925   0.757  13.403
31403W        W92824  20.219  27.047  14.808
31404W        W92825  41.328   4.855  11.041
31405W        W92826  40.857  30.531  11.593
31406W        W92827  35.054  10.647   0.269
31407W        W92828   1.895   9.827  10.969
31408W        W92829  23.526  42.960   3.869
31409W        W92830  33.446   2.747  14.324
31410W        W92831  36.389  20.571   3.236
31411W        W92832  18.199  38.398  13.415
31412W        W92833  33.924   4.916   2.689
31413W        W92834  27.174   8.724   4.224
31414W        W92835  39.388  34.895  14.388
31415W        W92836   2.471  24.978   3.338
31416W        W92837  12.699  28.086  11.522
31417W        W92838  19.599  37.560  11.939
31418W        W92839  29.528  29.580   1.384
31419W        W92840   7.195  44.386  11.933
31420W        W92841   8.715  39.376   1.728
31421W        W92842  35.068   7.360  14.809
31422W        W92843   6.753  26.574   0.483
31423W        W92844  43.878  17.781  12.980
31424W        W92845  10.180  15.718   0.332
31425W        W92846  25.499  19.220  12.856
31426W        W92847  13.691   2.387   2.206
31427W        W92848  44.977  31.030  12.560
31428W        W92849  14.825  32.934   2.827
31429W        W92850  41.373  38.873   0.371
31430W        W92851  20.675  13.685   4.213
31431W        W92852  29.140  10.733  10.917
31432W        W92853  40.826  16.102   4.346
31433W        W92854  23.595   4.215   4.215
31434W        W92855  22.016  42.475   3.201
31435W        W92856  34.990   2.832  13.867
31436W        W92857  26.115   2.743   4.152
31437W        W92858  32.399  28.956   1.780
31438W        W92859  32.441  42.321  12.342
31439W        W92860  20.044  17.127   9.647
31440W        W92861  37.362  20.676  11.908
31441W        W92862   7.800  33.948   1.724
31442W        W92863  37.876  19.178   4.182
31443W        W92864  21.630   0.277  12.978
31444W        W92865   1.865   8.274   4.666
31445W        W92866  14.245   5.359  10.890
31446W        W92867  28.501  14.200   4.662
31447W        W92868  36.038  10.820   0.467
31448W        W92869  24.115   8.848  11.533
31449W        W92870  36.549   5.808   0.776
31450W        W92871   4.862   0.965  14.326
31451W        W92872  14.604  40.331   1.832
31452W        W92873  11.803  42.011   4.786
31453W        W92874  36.861  25.499   3.676
31454W        W92875   2.914   7.838   4.756
31455W        W92876  13.655  16.683  12.856
31456W        W92877  14.161  19.581  13.927
31457W        W92878   1.975  17.570  13.958
31458W        W92879  43.355   3.868   3.357
31459W        W92880  42.975   1.409   3.332
31460W        W92881  35.398  14.217  12.480
31461W        W92882  11.235  27.656  11.538
31462W        W92883  15.266  18.209  11.456
31463W        W92884   0.927  31.557   1.351
31464W        W92885  13.298  17.595   3.159
31465W        W92886  18.189  32.023   3.262
31466W        W92887  18.246  24.649  10.980
31467W        W92888  31.501  23.691  11.542
31468W        W92889  35.445  12.761   4.286
31469W        W92890  28.441  25.563  12.342
31470W        W92891  10.277   1.285   0.828
31471W        W92892  27.141  34.378  11.088
31472W        W92893  25.095  20.627   2.770
31473W        W92894  16.206   0.403  13.816
31474W        W92895   4.440  17.787  11.856
31475W        W92896  32.542  35.971   2.696
31476W        W92897   5.716  12.677   0.774
31477W        W92898   7.334   8.178  13.934
31478W        W92899   4.380   3.797   1.708
31479W        W92900   5.814  38.898  11.456
31480W        W92901  18.600  29.990  12.473
31481W        W92902  44.263  35.985   2.866
31482W        W92903  35.867   7.285   3.636
31483W        W92904  14.155   8.839  14.854
31484W        W92905  30.000  26.134   1.915
31485W        W92906  35.453  15.320  11.395
31486W        W92907  27.510  18.600   3.303
31487W        W92908   9.828  33.910   3.687
31488W        W92909  21.106  32.576   3.845
31489W        W92910  37.916  11.748  10.947
31490W        W92911  20.712  18.273   0.469
31491W        W92912  30.462  14.805   4.785
31492W        W92913  11.345  14.817  12.905
31493W        W92914  24.116  44.263   0.478
31494W        W92915  19.611   5.357  13.354
31495W        W92916  25.091  24.582  11.964
31496W        W92917   1.936  25.203  12.499
31497W        W92918   6.393  24.054  11.044
31498W        W92919  31.959  20.075   3.367
31499W        W92920  42.416  30.479  12.508
31500W        W92921  12.206  16.168   1.773
31501W        W92922   2.842   1.389   4.232
31502W        W92923  18.621   8.810  14.370
31503W        W92924  31.996  27.167   4.125
31504W        W92925   2.845  32.983  11.439
31505W        W92926  44.971  39.824  11.586
31506W        W92927   0.447   6.329   1.256
31507W        W92928   3.748  40.936  10.920
31508W        W92929  30.504  11.635  10.534
31509W        W92930   5.223   1.746   2.194
31510W        W92931   8.721   0.372  14.790
31511W        W92932  16.180  38.399   2.201
31512W        W92933  15.141  12.663  11.127
31513W        W92934  16.304   8.683  12.944
31514W        W92935  18.083  29.533   1.875
31515W        W92936  18.252  12.762  10.996
31516W        W92937  16.675  33.474   2.385
31517W        W92938  10.759  32.573  10.594
31518W        W92939  34.434  23.630   0.805
31519W        W92940  27.975  22.684  14.863
31520W        W92941  23.495  11.628   4.700
31521W        W92942  32.633  27.192  13.826
31522W        W92943  23.015  43.307  12.080
31523W        W92944  37.024  21.568  14.874
31524W        W92945  17.783  16.680  11.411
31525W        W92946  22.006  16.163   2.312
31526W        W92947  22.513  11.739   4.297
31527W        W92948  43.015  26.666  13.435
31528W        W92949  41.526  42.419  11.931
31529W        W92950   0.987  30.053   1.721
31530W        W92951  11.293  43.391   2.204
31531W        W92952  15.190  10.235   4.606
31532W        W92953  21.544  33.121   4.758
31533W        W92954  16.213  14.750   0.252
31534W        W92955  17.559  27.534  13.544
31535W        W92956   1.871  38.867  10.507
31536W        W92957  35.585  36.587  14.783
31537W        W92958  36.383  30.479   2.179
31538W        W92959   1.294  44.339   4.197
31539W        W92960  44.386  32.977   0.797
31540W        W92961  31.966  16.290   4.598
31541W        W92962   2.789  40.801  13.887
31542W        W92963  19.747   5.807   1.340
31543W        W92964   3.347  32.403  12.857
31544W        W92965  39.363  22.147   0.320
31545W        W92966   5.307  27.651   1.731
31546W        W92967  22.133   1.482   1.335
31547W        W92968  36.390  16.783   1.933
31548W        W92969  20.243  43.799  12.490
31549W        W92970  18.265  40.399  11.902
31550W        W92971  26.694  44.817   3.334
31551W        W92972   9.785  25.187   2.199
31552W        W92973   0.817  44.455   0.943
31553W        W92974  20.642  32.581  10.612
31554W        W92975  41.902  31.993  10.077
31555W        W92976   0.866  27.602  10.496
31556W        W92977  40.842  43.860   2.408
31557W        W92978  44.412  34.103   2.739
31558W        W92979  22.186  33.558   3.871
31559W        W92980  33.591   1.324   2.280
31560W        W92981  31.995  32.986   0.803
31561W        W92982  12.851  15.269   4.218
31562W        W92983  15.180  12.611   1.791
31563W        W92984  32.138  19.118  14.006
31564W        W92985  37.430  23.535  14.295
31565W        W92986  35.055   1.764   0.401
31566W        W92987  24.667  29.050  13.840
31567W        W92988  14.246  25.696   4.275
31568W        W92989  16.201   0.459   1.768
31569W        W92990  34.581   6.871   1.900
31570W        W92991  41.867  16.733  14.416
31571W        W92992  33.456   7.263  10.605
31572W        W92993   5.417  20.721  10.640
31573W        W92994  18.782   4.365  13.860
31574W        W92995  40.051  33.616  14.346
31575W        W92996   0.913  38.954   0.250
31576W        W92997  38.453  40.040  11.066
31577W        W92998  38.446  39.372  12.435
31578W        W92999  34.096  41.410  12.437
31579W        W93000  35.553  25.647   0.341
31580W        W93001  35.538   9.384  14.478
31581W        W93002   6.389   4.931   5.280
31582W        W93003  13.226   1.931  14.972
31583W        W93004  40.949  27.640   1.831
31584W        W93005  25.162   0.297  14.460
31585W        W93006   0.972   0.761   0.764
31586W        W93007  38.936  41.432  14.921
31587W        W93008  38.832   6.320  10.939
31588W        W93009   2.393  11.730  10.548
31589W        W93010   7.376  29.044  12.874
31590W        W93011  17.627   6.823   1.894
31591W        W93012  25.027  23.610  13.396
31592W        W93013   4.939  37.571  13.962
31593W        W93014  10.714  22.099  11.013
31594W        W93015   6.873  39.955  10.535
31595W        W93016  38.499  38.548   2.225
31596W        W93017  15.713   8.307  13.338
31597W        W93018  13.173   4.866   0.265
31598W        W93019  39.957  27.022  13.372
31599W        W93020   9.248  14.220  13.946
31600W        W93021   2.775   5.717   3.845
31601W        W93022  14.109   0.277   3.690
31602W        W93023  33.471  39.945  10.411
31603W        W93024  43.837  22.676  13.340
31604W        W93025   1.870  21.113   1.763
31605W        W93026  27.615   6.326   1.830
31606W        W93027  41.835  21.205   1.350
31607W        W93028  22.514  43.809   1.912
31608W        W93029  17.612  40.952   1.761
31609W        W93030  24.040  41.026   3.688
31610W        W93031  16.211  24.665   4.141
31611W        W93032  27.602  22.995   4.190
31612W        W93033  14.658   2.303   3.385
31613W        W93034   8.702  42.506  14.805
31614W        W93035  40.965   0.852   1.865
31615W        W93036  35.891  39.473   4.226
31616W        W93037   7.764  44.426  10.405
31617W        W93038  21.223  36.442  13.869
31618W        W93039  25.541  28.549   0.390
31619W        W93040  29.635  44.284   2.774
31620W        W93041  44.412  31.504  11.075
31621W        W93042  31.604   4.444   0.479
31622W        W93043  29.169  18.648   1.779
31623W        W93044  41.319  42.476  14.874
31624W        W93045  37.057  15.623   4.127
31625W        W93046  25.171  39.936   0.744
31626W        W93047   2.836  32.427  13.433
31627W        W93048  12.183  44.857  10.520
31628W        W93049  26.459  31.130   1.898
31629W        W93050   7.799  41.020  11.061
31630W        W93051  22.597  30.588  14.935
31631W        W93052  17.115  23.063   0.454
31632W        W93053   0.333   1.298  13.064
31633W        W93054  24.480   0.404   0.289
31634W        W93055  38.349   4.773   4.778
31635W        W93056  41.929  37.959  10.997
31636W        W93057  14.793  12.320  12.089
31637W        W93058  33.987  14.777   0.909
31638W        W93059  21.092  23.032   4.820
31639W        W93060   4.868  37.549   2.677
31640W        W93061  44.945  27.447   0.831
31641W        W93062   1.400  41.383  12.470
31642W        W93063  29.107  18.180  14.416
31643W        W93064  39.972   4.256   3.684
31644W        W93065  15.584  36.872  14.868
31645W        W93066  43.912  21.552  10.599
31646W        W93067  37.912   5.802  12.537
31647W        W93068   1.965  12.265  11.606
31648W        W93069  10.855  36.514   3.234
31649W        W93070   5.801  35.506  13.840
31650W        W93071  20.205  34.061  14.393
31651W        W93072  42.430  17.749   2.351
31652W        W93073  23.652  21.745   0.939
31653W        W93074  38.377  34.956  14.482
31654W        W93075  44.308  12.854   5.310
31655W        W93076  23.093  12.636  13.443
31656W        W93077  33.497   8.400  11.023
31657W        W93078  36.433  26.505   3.330
31658W        W93079  33.922  26.602  12.413
31659W        W93080  17.258  40.962  14.945
31660W        W93081  25.551  19.271  13.912
31661W        W93082   7.171   1.945  12.530
31662W        W93083  20.040  44.815  13.476
31663W        W93084  16.724  31.933   0.962
31664W        W93085  20.615   0.494   4.628
31665W        W93086  41.029  38.485   1.698
31666W        W93087  23.569  36.416   2.241
31667W        W93088  27.605  10.850   1.364
31668W        W93089  40.050  39.491   0.749
31669W        W93090   4.944  10.157   0.477
31670W        W93091  43.476  33.567  10.123
31671W        W93092  33.385  21.757   1.264
31672W        W93093  16.145  42.388   4.836
31673W        W93094  24.169  23.543   0.414
31674W        W93095   8.188  43.910   2.764
31675W        W93096   3.825   1.252   5.734
31676W        W93097  40.510  29.054  14.977
31677W        W93098   9.836  25.633  13.792
31678W        W93099  38.887  41.806  12.077
31679W        W93100  26.574  26.629   3.759
31680W        W93101  13.643  30.165   1.744
31681W        W93102  16.231  22.144  10.518
31682W        W93103  11.335  42.463  11.474
31683W        W93104  19.589  32.526   2.359
31684W        W93105  22.019  22.624   4.282
31685W        W93106  32.498  35.898  12.956
31686W        W93107  44.458  31.464  11.382
31687W        W93108  29.009   9.857  11.486
31688W        W93109   9.211  44.336   2.301
31689W        W93110   8.838  37.069   3.633
31690W        W93111   1.842  22.121   1.329
31691W        W93112  38.832  22.185  14.379
31692W        W93113   3.414  42.950  12.914
31693W        W93114  32.960   4.404  14.477
31694W        W93115  29.636  42.013  12.468
31695W        W93116  30.553  35.519   1.423
31696W        W93117  19.645  42.934  11.596
31697W        W93118  33.991  21.757  11.609
31698W        W93119  15.671  12.281  12.969
31699W        W93120  30.508  13.778   0.341
31700W        W93121  20.102  44.973  12.855
31701W        W93122  24.542  42.873  11.086
31702W        W93123  40.316   8.278  10.482
31703W        W93124   6.210   2.776  12.432
31704W        W93125  34.481  12.643  10.482
31705W        W93126   8.340  38.003   9.993
31706W        W93127  44.412  14.775  12.472
31707W        W93128  19.579  38.335  14.953
31708W        W93129   5.319  31.907   3.289
31709W        W93130  21.157  35.403  14.395
31710W        W93131  10.808   9.779   1.331
31711W        W93132  13.161  36.362   3.176
31712W        W93133  38.388   3.355   3.308
31713W        W93134   0.312   0.336  14.867
31714W        W93135  27.620   0.757  13.862
31715W        W93136  12.349  30.024  14.830
31716W        W93137  16.792   5.383   4.223
31717W        W93138  17.752  36.955   2.748
31718W        W93139  17.084  39.353  12.538
31719W        W93140  32.142   4.271   3.287
31720W        W93141  44.480  27.194   1.904
31721W        W93142  32.468  13.694  11.930
31722W        W93143  36.885  32.399  10.991
31723W        W93144  25.686  34.014   3.638
31724W        W93145  41.842   8.679   3.859
31725W        W93146  13.303   5.421  14.759
31726W        W93147  29.441  12.816  12.385
31727W        W93148  30.431  38.998   0.812
31728W        W93149   0.476  44.926   2.267
31729W        W93150  25.487   3.724   0.314
31730W        W93151  43.768  20.579  10.530
31731W        W93152  44.334  24.080  13.461
31732W        W93153   5.919  28.629   3.211
31733W        W93154   2.352  27.549  14.314
31734W        W93155   3.881  10.180  13.393
31735W        W93156  42.388  41.421  12.451
31736W        W93157  20.762  11.837  11.931
31737W        W93158  15.196  36.507   1.708
31738W        W93159   2.269   6.229  13.959
31739W        W93160  26.493  23.134  11.605
31740W        W93161  34.398  29.109   3.150
31741W        W93162  33.432   4.784   4.786
31742W        W93163   6.220  17.676   3.218
31743W        W93164  37.026  21.042   1.872
31744W        W93165  32.897  21.187   1.711
31745W        W93166   3.931  36.062  11.443
31746W        W93167   2.764  35.996  10.902
31747W        W93168  33.035   6.384  11.042
31748W        W93169  20.606  25.977   0.364
31749W        W93170  37.007  26.567  12.519
31750W        W93171  28.162   6.242  13.443
31751W        W93172  27.554   6.282   4.284
31752W        W93173  33.440  32.001   0.870
31753W        W93174  31.636  44.280   2.362
31754W        W93175  36.400  22.079  12.513
31755W        W93176  29.645   5.372   4.635
31756W        W93177  35.086  35.056   2.675
31757W        W93178  35.894  30.485   1.397
31758W        W93179  33.615  15.153  12.856
31759W        W93180  12.315  39.843   2.695
31760W        W93181   0.277  36.037  12.989
31761W        W93182  30.911  38.482   0.388
31762W        W93183  19.212  38.342   2.740
31763W        W93184   7.221  33.909   3.741
31764W        W93185  37.383   3.459  14.876
31765W        W93186  15.156  35.053  10.627
31766W        W93187  28.057  42.958  11.466
31767W        W93188  16.720   6.742   3.673
31768W        W93189  41.893  23.683   4.296
31769W        W93190  20.523  30.150   3.250
31770W        W93191  18.679  32.587   2.738
31771W        W93192   2.348   3.882  14.875
31772W        W93193   4.903   6.727  13.859
31773W        W93194  42.842  33.978   4.330
31774W        W93195  41.469   3.293   2.698
31775W        W93196  18.275   9.788  14.916
31776W        W93197  21.103   4.808   5.163
31777W        W93198  44.775   6.888   1.401
31778W        W93199  23.721   5.901   1.869
31779W        W93200  31.950  43.493  14.966
31780W        W93201  19.182  20.646  10.470
31781W        W93202   7.752  36.380  10.578
31782W        W93203  26.678   0.435  10.470
31783W        W93204   7.871  28.104  14.838
31784W        W93205  35.385  24.712   2.188
31785W        W93206   3.739  31.983   2.270
31786W        W93207   3.267  21.634   1.276
31787W        W93208  34.437   2.904   1.261
31788W        W93209  38.426  17.699   2.318
31789W        W93210  17.686  35.089  10.951
31790W        W93211   2.408  35.554  12.483
31791W        W93212  20.744  21.598  14.032
31792W        W93213  33.458  43.415   3.308
31793W        W93214  19.138  19.770  12.546
31794W        W93215   3.291  26.489   3.289
31795W        W93216  39.953  12.676   0.836
31796W        W93217  30.052   9.864  11.901
31797W        W93218  21.524  20.095  13.851
31798W        W93219  38.895  43.946  10.148
31799W        W93220  11.709   9.767   0.940
31800W        W93221  19.644  20.565   0.410
31801W        W93222  26.057  34.962  13.487
31802W        W93223  44.933  36.590  14.993
31803W        W93224  12.219  20.231   2.804
31804W        W93225  37.482  27.615   3.686
31805W        W93226  42.002  27.956  13.343
31806W        W93227  20.537  27.951   4.142
31807W        W93228  34.596  38.370  11.025
31808W        W93229  35.067  41.352   2.781
31809W        W93230  40.957   4.444  13.319
31810W        W93231   9.253  27.014   0.395
31811W        W93232   3.947  39.888  14.013
31812W        W93233  14.785  24.712   3.318
31813W        W93234  30.162  25.573  14.437
31814W        W93235  17.173  28.038  13.405
31815W        W93236  38.394   8.236  13.878
31816W        W93237  24.009  13.344   3.382
31817W        W93238  12.212  37.840  14.845
31818W        W93239   4.887  35.409  13.052
31819W        W93240  16.795  36.892  12.050
31820W        W93241  15.641  20.259   1.392
31821W        W93242  37.421  18.714   0.340
31822W        W93243  40.357  18.763   0.899
31823W        W93244  11.787  42.432   1.347
31824W        W93245  29.008  43.293  14.887
31825W        W93246  14.674   2.381  13.914
31826W        W93247   0.861  14.206  13.382
31827W        W93248  16.237  10.375  11.468
31828W        W93249  17.587  40.340   0.291
31829W        W93250   5.769  34.528  14.439
31830W        W93251  41.299  41.818   0.763
31831W        W93252  42.513  34.932   3.682
31832W        W93253  38.949   1.856   3.717
31833W        W93254   8.844  14.161  10.497
31834W        W93255  28.134  20.165   5.263
31835W        W93256  37.379  22.515  10.963
31836W        W93257  13.778  24.696  14.960
31837W        W93258  29.944  34.062   4.325
31838W        W93259  31.514   2.893   3.833
31839W        W93260  43.509  16.684   0.879
31840W        W93261  20.122  35.901  11.541
31841W        W93262  23.220  36.466   3.368
31842W        W93263  44.924  42.856  14.766
31843W        W93264   8.255   7.816  11.458
31844W        W93265  20.736  20.628   1.419
31845W        W93266  15.181  15.134   0.910
31846W        W93267  29.169  44.791  12.917
31847W        W93268  29.486   4.299  14.940
31848W        W93269  32.396  24.507   0.831
31849W        W93270  13.136  29.112   3.333
31850W        W93271  43.471  29.443  14.865
31851W        W93272   4.237   1.761   3.736
31852W        W93273  26.500  39.451  11.948
31853W        W93274  11.783   7.234   1.854
31854W        W93275  32.417  39.999  14.363
31855W        W93276  37.408  12.831   4.640
31856W        W93277  33.438  28.020  13.331
31857W        W93278  43.808  17.657   1.372
31858W        W93279  29.495  38.548  12.866
31859W        W93280  17.735  27.539  12.959
31860W        W93281  20.759   0.295   4.328
31861W        W93282  11.159  33.544  10.432
31862W        W93283   2.916  10.154   2.314
31863W        W93284  21.723  39.493   0.334
31864W        W93285   0.252  19.187   2.844
31865W        W93286  21.633  34.525  10.405
31866W        W93287  15.823   9.660   0.908
31867W        W93288  13.186  40.536  13.994
31868W        W93289  37.924  38.474  14.433
31869W        W93290  42.390  41.988  11.106
31870W        W93291  23.097  25.088   4.163
31871W        W93292  34.406  30.084  12.936
31872W        W93293  40.353  20.139   1.365
31873W        W93294  44.431  19.280  12.428
31874W        W93295  21.053  23.101  10.913
31875W        W93296   2.892  43.418   1.214
31876W        W93297   1.955  13.601   2.313
31877W        W93298  16.089  38.424   1.934
31878W        W93299  44.347   6.872   1.719
31879W        W93300  21.570  29.925   4.607
31880W        W93301  26.628  12.141  11.590
31881W        W93302   6.818  41.345  12.088
31882W        W93303  14.814  21.520  12.413
31883W        W93304  39.502  15.733   2.840
31884W        W93305  20.735  26.624   4.123
31885W        W93306  17.232   3.847   1.331
31886W        W93307  40.810  44.005   0.920
31887W        W93308  36.904  28.016  10.478
31888W        W93309  36.071   8.670  11.373
31889W        W93310  27.070  10.664   4.659
31890W        W93311  31.916   6.773  12.404
31891W        W93312   5.200  26.984   2.251
31892W        W93313  34.913   0.848  11.894
31893W        W93314   5.262  14.747  10.524
31894W        W93315  24.089  17.659  11.123
31895W        W93316  11.775  24.124  14.450
31896W        W93317  38.842   4.326   1.899
31897W        W93318  35.562  41.379  14.971
31898W        W93319  18.112  41.882  14.998
31899W        W93320  36.963  32.554   4.236
31900W        W93321  30.468  26.495   3.297
31901W        W93322  13.236   4.924  13.331
31902W        W93323   3.236  25.148   2.885
31903W        W93324   3.428   4.363  13.427
31904W        W93325  32.392  18.557   2.788
31905W        W93326  40.840   0.291  13.938
31906W        W93327  24.650   5.274   9.662
31907W        W93328  15.326   3.911   3.830
31908W        W93329  13.274   9.818  14.758
31909W        W93330  34.459  19.107  12.921
31910W        W93331   0.833   2.438   2.747
31911W        W93332  32.939  16.631  13.981
31912W        W93333  30.502  32.022  10.040
31913W        W93334   5.280  26.176  14.367
31914W        W93335  38.545  30.627   2.316
31915W        W93336  19.090  13.674   1.437
31916W        W93337  15.248  27.095  10.888
31917W        W93338  16.192   4.864   2.839
31918W        W93339  23.120  18.741   4.180
31919W        W93340  32.054   2.447  12.989
31920W        W93341  12.129   4.919   0.844
31921W        W93342  43.329  35.396   0.336
31922W        W93343  28.960  42.777   3.320
31923W        W93344   1.372  26.512   2.397
31924W        W93345  26.182  33.449  12.454
31925W        W93346  12.704  42.784   3.293
31926W        W93347  16.648  29.104  13.863
31927W        W93348   6.751  31.988   4.822
31928W        W93349  34.533   4.804  12.870
31929W        W93350  11.190   5.243   1.339
31930W        W93351  11.791  44.936  13.399
31931W        W93352  23.581  38.525  12.962
31932W        W93353  39.505  27.564   2.396
31933W        W93354  19.164  36.402  12.036
31934W        W93355  12.228  31.117  12.041
31935W        W93356  15.216  27.963  14.906
31936W        W93357  35.962  38.864  14.435
31937W        W93358  40.530   8.735   0.351
31938W        W93359  44.347  24.141  11.001
31939W        W93360  30.538  43.454  11.120
31940W        W93361  42.000  10.262  13.436
31941W        W93362  17.760  16.726   3.745
31942W        W93363  11.769  39.038   9.932
31943W        W93364   5.785  23.528   4.702
31944W        W93365   0.301   7.345  11.596
31945W        W93366  31.937  27.538  13.404
31946W        W93367   0.279  44.408  14.444
31947W        W93368   4.709   6.218   5.229
31948W        W93369  41.817  22.180  10.584
31949W        W93370  33.904  32.078  14.280
31950W        W93371  12.328   1.840  13.473
31951W        W93372  36.965  28.130   4.354
31952W        W93373   3.235  44.801  14.853
31953W        W93374  33.908   3.308   2.696
31954W        W93375  14.589  33.554   4.764
31955W        W93376  15.807  13.319   0.855
31956W        W93377  15.678  35.545   0.242
31957W        W93378  13.135  19.140   3.366
31958W        W93379   1.297  14.154   3.748
31959W        W93380  13.129   8.167   2.371
31960W        W93381  37.046  14.667  13.979
31961W        W93382   8.721  33.961  13.004
31962W        W93383  19.704  44.452   4.263
31963W        W93384  24.493  32.085  10.902
31964W        W93385  24.492  19.136   2.277
31965W        W93386  30.085  37.475   4.181
31966W        W93387  30.011  19.099  14.911
31967W        W93388   4.784   9.379  12.979
31968W        W93389  18.549  10.686   3.239
31969W        W93390  37.054  20.642   4.345
31970W        W93391  26.011  19.277  13.060
31971W        W93392  34.383  36.384  10.641
31972W        W93393  42.805  35.401   4.820
31973W        W93394  11.138  26.602   3.240
31974W        W93395  26.115   0.422   4.806
31975W        W93396  24.583  37.935   2.300
31976W        W93397   6.206  20.226   2.738
31977W        W93398  18.082  31.045   5.641
31978W        W93399   2.320  19.569   5.277
31979W        W93400  34.986  41.807   0.966
31980W        W93401   2.722  11.796   1.928
31981W        W93402  39.810  20.033   3.310
31982W        W93403  42.433  43.467   0.405
31983W        W93404   0.747   6.354   4.801
31984W        W93405  26.464  14.333   3.733
31985W        W93406  43.018  17.633  11.591
31986W        W93407   5.361  25.203   3.633
31987W        W93408  27.168  12.850   0.387
31988W        W93409  28.997  38.960   2.852
31989W        W93410  17.228  35.886  13.398
31990W        W93411  22.100   9.795   2.416
31991W        W93412  12.117  16.234   2.751
31992W        W93413  33.575  44.400  14.434
31993W        W93414  11.215  43.995   2.695
31994W        W93415  25.557  36.913   4.679
31995W        W93416  14.664  21.133   9.947
31996W        W93417  35.412  27.135   1.923
31997W        W93418   2.436   8.900   0.361
31998W        W93419  29.113  12.244   4.299
31999W        W93420  29.043  44.334  12.907
32000W        W93421  38.975  31.980   3.187
32001W        W93422   4.790  29.436  14.894
32002W        W93423  12.319  38.385   4.182
32003W        W93424   3.877  22.073   1.350
32004W        W93425  31.073  19.215   2.412
32005W        W93426  16.811  36.490   4.329
32006W        W93427  34.936   6.220   4.179
32007W        W93428   2.874   1.335   9.937
32008W        W93429   6.198  23.617   2.745
32009W        W93430  19.576  20.587  14.511
32010W        W93431  28.603  16.136  11.075
32011W        W93432  36.064  10.837  13.354
32012W        W93433  31.121   0.866   4.629
32013W        W93434  38.981  11.852   4.307
32014W        W93435  29.017   8.826  11.478
32015W        W93436   4.707  13.313   3.174
32016W        W93437  39.982  30.021   0.838
32017W        W93438  35.938  34.400   2.356
32018W        W93439  38.859  24.614   1.923
32019W        W93440  19.739  23.157  12.430
32020W        W93441  18.155  20.616   4.298
32021W        W93442  13.170  43.344   3.286
32022W        W93443  20.216   8.222   3.310
32023W        W93444  39.818  34.981   2.184
32024W        W93445  34.888  27.515  14.510
32025W        W93446  14.606  33.605   1.929
32026W        W93447  16.084  38.522  13.308
32027W        W93448  41.423  22.036  14.898
32028W        W93449  15.820   6.402   4.729
32029W        W93450   4.850  31.100   2.219
32030W        W93451  44.486  18.745   5.179
32031W        W93452  26.112  38.006   2.183
32032W        W93453   6.687   8.869  13.502
32033W        W93454   0.830  36.001   4.645
32034W        W93455  10.369  34.867   0.805
32035W        W93456  28.468  14.823  14.967
32036W        W93457  43.309  23.223  13.348
32037W        W93458   4.831  10.813   0.287
32038W        W93459  24.186  29.158  11.539
32039W        W93460  40.461  41.929   4.254
32040W        W93461  35.937  40.326   3.286
32041W        W93462  36.869   6.727   1.764
32042W        W93463  23.672  16.113   0.371
32043W        W93464  22.576  24.041   4.196
32044W        W93465  23.199   8.698  13.541
32045W        W93466   1.263  22.075   3.864
32046W        W93467  25.098  28.006  14.841
32047W        W93468  29.102  25.151   1.753
32048W        W93469  34.470   1.457   3.188
32049W        W93470  37.044  26.518   0.348
32050W        W93471   4.283  28.553  13.052
32051W        W93472  40.040  32.126   0.808
32052W        W93473  37.060  14.243  12.922
32053W        W93474  32.537   3.825   3.352
32054W        W93475  37.924  24.106  12.018
32055W        W93476  12.264  43.304  12.049
32056W        W93477  15.589   4.862  10.569
32057W        W93478   3.903  41.432   4.826
32058W        W93479  38.537  37.361  13.499
32059W        W93480  31.587  40.939  12.836
32060W        W93481  42.970  15.235  11.382
32061W        W93482   2.235  31.149  11.432
32062W        W93483  15.254   0.895  13.940
32063W        W93484   7.317  38.373   3.828
32064W        W93485  34.902  28.532   4.714
32065W        W93486   6.300  12.140   1.242
32066W        W93487  19.248  18.201  13.004
32067W        W93488  27.603  32.905  14.460
32068W        W93489  34.937  43.961   4.654
32069W        W93490  43.497   5.896   3.793
32070W        W93491  15.147  14.136   1.712
32071W        W93492  32.005  14.741  11.994
32072W        W93493  24.612   7.733  12.850
32073W        W93494   3.815  39.879   0.945
32074W        W93495   9.348  38.006  11.488
32075W        W93496   3.318  18.769  11.505
32076W        W93497  36.437  19.709   2.339
32077W        W93498  10.646  43.270   0.448
32078W        W93499  35.958  15.191  13.362
32079W        W93500   9.293  21.565  10.962
32080W        W93501   4.436  28.652   1.432
32081W        W93502  39.505   3.415   4.304
32082W        W93503  40.515  41.872  12.046
32083W        W93504  10.672  40.913  13.367
32084W        W93505  36.544  14.687  13.873
32085W        W93506  19.176  38.525  14.762
32086W        W93507  27.999  12.348  12.577
32087W        W93508  38.500   0.764   4.813
32088W        W93509  34.393  17.701   4.346
32089W        W93510  21.250   2.289   3.648
32090W        W93511  30.024   5.262   3.654
32091W        W93512  38.518  18.262   1.838
32092W        W93513  22.151  35.037   4.244
32093W        W93514  23.210  35.414  14.379
32094W        W93515  14.200  33.904  13.986
32095W        W93516   2.904  22.608  12.480
32096W        W93517  19.281   7.809  13.933
32097W        W93518   5.293  42.915  11.036
32098W        W93519  12.327   5.317   2.246
32099W        W93520  31.426  32.917  12.534
32100W        W93521  12.195  17.671  13.478
32101W        W93522   3.308   7.213   0.262
32102W        W93523  32.459  32.460  14.462
32103W        W93524  42.026   3.793  13.493
32104W        W93525  23.551  31.100  13.464
32105W        W93526  27.946  37.567   0.820
32106W        W93527  15.089  36.953  12.465
32107W        W93528  26.536  23.511   0.895
32108W        W93529  27.978  27.047  12.065
32109W        W93530  31.126  28.553  12.477
32110W        W93531  17.276  19.112  12.954
32111W        W93532  12.847  42.420   3.679
32112W        W93533  32.975  23.536  12.051
32113W        W93534  29.152  13.673   3.369
32114W        W93535  40.917  23.241   0.273
32115W        W93536  17.651  35.907   3.181
32116W        W93537  22.203  43.915   1.796
32117W        W93538  25.117  19.595  10.917
32118W        W93539  19.576  14.123   1.892
32119W        W93540  23.081  27.015  13.918
32120W        W93541  41.411  37.833  11.478
32121W        W93542  24.049   8.853   0.927
32122W        W93543  37.866  34.012   3.701
32123W        W93544  18.619  36.075  14.374
32124W        W93545  32.093  35.022  13.924
32125W        W93546  31.054  13.741   5.210
32126W        W93547   3.331  18.267   2.379
32127W        W93548   2.325  12.215   2.410
32128W        W93549  23.557  24.150   4.188
32129W        W93550  35.886  16.271  12.488
32130W        W93551   3.335  20.617   2.882
32131W        W93552   0.842  18.129   2.248
32132W        W93553  26.194  27.173  11.604
32133W        W93554  27.602  17.627  12.090
32134W        W93555  41.917  40.019   1.237
32135W        W93556  21.027  34.387  10.953
32136W        W93557  28.995  17.695   4.307
32137W        W93558   7.402   5.764  14.882
32138W        W93559  35.036  19.764   0.740
32139W        W93560   0.394  34.898   9.961
32140W        W93561  39.442  33.437  11.446
32141W        W93562  21.219  24.611  11.989
32142W        W93563  20.063  26.045  13.479
32143W        W93564  23.555  25.090  10.536
32144W        W93565  41.003  30.157   4.323
32145W        W93566  29.038  12.261   1.331
32146W        W93567  35.531  30.496  12.525
32147W        W93568  20.249  16.800   4.159
32148W        W93569  42.324  19.049   2.723
32149W        W93570   3.281  25.597   0.860
32150W        W93571   6.401   9.768   2.818
32151W        W93572   8.786  27.488   3.284
32152W        W93573  36.470  18.287  10.418
32153W        W93574   1.459  18.181  11.533
32154W        W93575  28.988  24.018  13.793
32155W        W93576  43.853   6.740  13.943
32156W        W93577  37.498  43.969  13.019
32157W        W93578   5.427  38.354   4.341
32158W        W93579  43.451  37.400   4.725
32159W        W93580  40.323  10.770   3.791
32160W        W93581  27.450  19.704  12.047
32161W        W93582  17.681   7.252  14.394
32162W        W93583  27.611   7.370   4.205
32163W        W93584   9.830  33.935   4.630
32164W        W93585  41.480   0.378  10.450
32165W        W93586  24.175  24.641  11.986
32166W        W93587  30.930  43.283   4.690
32167W        W93588  44.884  25.693  12.949
32168W        W93589  24.223  30.942   1.861
32169W        W93590  39.556  23.015  14.299
32170W        W93591  40.510  14.635  10.541
32171W        W93592  26.468  25.195  13.806
32172W        W93593  17.247  33.063   1.231
32173W        W93594   9.868  27.188  11.936
32174W        W93595  26.651   4.397  14.400
32175W        W93596  37.887   4.896   9.952
32176W        W93597   3.915  17.227   1.215
32177W        W93598  13.164  17.186  12.859
32178W        W93599  33.514  31.574   1.383
32179W        W93600   7.309  35.075   1.849
32180W        W93601  42.990  43.823  14.955
32181W        W93602  16.222  29.142  12.086
32182W        W93603  21.718  41.989   2.808
32183W        W93604  25.157  44.897   3.347
32184W        W93605  17.667  37.964  11.925
32185W        W93606  11.669  43.774   2.668
32186W        W93607  42.799  29.005   4.597
32187W        W93608  35.975  18.248   3.302
32188W        W93609  32.964  19.666  12.484
32189W        W93610   3.919   0.338   5.111
32190W        W93611  35.363  18.634  13.531
32191W        W93612  16.750  24.228  10.975
32192W        W93613  40.829  16.250   0.921
32193W        W93614  30.037  42.967  14.779
32194W        W93615   0.365  38.040  13.391
32195W        W93616  40.855  38.443   0.261
32196W        W93617  18.105  22.035  11.903
32197W        W93618  12.249  22.101   1.783
32198W        W93619  42.302  24.568   1.400
32199W        W93620  37.977  36.442   2.670
32200W        W93621  19.077  16.310   5.599
32201W        W93622  42.777  13.206   0.894
32202W        W93623  21.193  19.608   2.814
32203W        W93624  13.140  44.756   3.147
32204W        W93625   0.929  39.868   2.895
32205W        W93626  33.481  14.327   4.690
32206W        W93627   9.888  22.605   2.785
32207W        W93628   9.377  20.192   0.910
32208W        W93629  27.485   6.281  10.527
32209W        W93630  21.215  25.097  14.394
32210W        W93631  39.817  28.139  13.547
32211W        W93632  40.055  29.079  12.482
32212W        W93633  37.426   3.872  10.932
32213W        W93634   2.767  19.220  14.277
32214W        W93635  28.462   5.228   2.217
32215W        W93636  33.561  42.421   2.347
32216W        W93637  21.020  14.625   1.302
32217W        W93638   5.402  11.311  14.415
32218W        W93639  16.300   8.299   0.244
32219W        W93640   1.333  14.106  12.006
32220W        W93641  41.956  11.733  11.907
32221W        W93642   0.268  18.698  13.973
32222W        W93643  23.087  33.988  13.454
32223W        W93644  15.821  38.377   0.431
32224W        W93645  19.553   2.321   4.155
32225W        W93646   5.437  19.199  10.929
32226W        W93647  42.456  25.177  10.984
32227W        W93648  15.722   4.321  10.978
32228W        W93649  41.833  35.467   4.340
32229W        W93650  43.790  36.552   2.746
32230W        W93651  15.630   6.428   3.227
32231W        W93652  25.199  29.088   1.381
32232W        W93653   9.221  42.418   2.265
32233W        W93654   9.304  14.715   2.669
32234W        W93655  41.979  29.108   4.286
32235W        W93656   7.370  20.116   1.742
32236W        W93657  43.869   5.400  14.420
32237W        W93658  13.733  12.726   4.773
32238W        W93659  19.065   9.182  13.995
32239W        W93660   0.789  21.732  10.888
32240W        W93661  43.898  15.085  12.440
32241W        W93662   2.838  31.909  10.897
32242W        W93663  33.515  10.305  13.424
32243W        W93664  42.020   6.686   4.777
32244W        W93665  33.493  44.919   1.836
32245W        W93666  18.550  26.182  14.469
32246W        W93667  20.240   7.215  13.523
32247W        W93668  42.944   5.370  11.882
32248W        W93669   3.871  28.472  14.976
32249W        W93670  17.555  35.557   4.205
32250W        W93671  42.010  42.313   1.309
32251W        W93672  36.577  11.180  11.469
32252W        W93673  26.615  32.623  11.060
32253W        W93674   6.206  33.406  13.497
32254W        W93675  21.568  29.607   2.804
32255W        W93676  38.404  40.834  10.444
32256W        W93677  29.036  27.673  13.427
32257W        W93678  29.559  30.152   4.712
32258W        W93679  14.647  19.061  11.046
32259W        W93680   1.971  43.991   4.276
32260W        W93681  44.995  41.976   4.121
32261W        W93682  16.119   1.826  11.938
32262W        W93683  33.919  35.932  11.503
32263W        W93684  27.618  15.702  13.416
32264W        W93685   0.475  33.409  11.484
32265W        W93686   3.224  20.722  11.895
32266W        W93687  34.564  28.112   3.183
32267W        W93688  26.468   5.294   4.665
32268W        W93689   1.405  22.519   4.789
32269W        W93690  23.629  32.633   0.268
32270W        W93691  16.315  37.986  14.972
32271W        W93692  24.187  27.076   1.307
32272W        W93693  30.448  33.481   3.201
32273W        W93694  35.913  31.611   4.738
32274W        W93695  29.603  30.089   1.353
32275W        W93696  18.726  31.140   1.772
32276W        W93697   8.250  18.710   2.197
32277W        W93698  30.088  11.641  13.953
32278W        W93699  30.972  33.999   4.248
32279W        W93700  15.277  23.046  13.917
32280W        W93701  14.326  29.618   0.813
32281W        W93702   2.263  24.044  13.439
32282W        W93703  25.073  16.779   1.436
32283W        W93704   0.289  16.234   2.750
32284W        W93705   2.857  37.011  11.380
32285W        W93706  14.621  35.090   2.290
32286W        W93707  43.905  21.086  13.440
32287W        W93708   8.876  31.523  11.508
32288W        W93709   1.758  25.504   0.460
32289W        W93710  18.758  41.367  10.032
32290W        W93711  43.936  44.796   3.784
32291W        W93712  22.549  16.652  10.486
32292W        W93713   0.867   0.750   1.411
32293W        W93714  23.137   3.891  13.847
32294W        W93715  21.641  26.483   3.214
32295W        W93716  42.981  43.515  14.933
32296W        W93717  24.128  19.776  11.539
32297W        W93718  39.424  10.324   3.212
32298W        W93719  28.546  15.646  13.382
32299W        W93720  33.107   5.790  13.355
32300W        W93721  22.667   3.941  12.363
32301W        W93722   7.907  14.293   4.770
32302W        W93723  25.188  21.512  13.823
32303W        W93724  18.751  29.519   3.694
32304W        W93725  18.194   9.235  12.963
32305W        W93726   3.252  30.551  14.430
32306W        W93727   1.909   2.831  12.354
32307W        W93728  33.045   8.892   2.272
32308W        W93729  16.262   3.324   0.274
32309W        W93730  14.647  40.332   2.846
32310W        W93731  32.009  35.881   2.232
32311W        W93732  35.003  38.016   1.749
32312W        W93733  29.150  20.202  12.481
32313W        W93734  35.394  31.130   0.301
32314W        W93735  14.729  34.573   4.742
32315W        W93736  44.832  23.024   1.710
32316W        W93737  44.349  11.164  13.913
32317W        W93738  39.866  41.358   1.378
32318W        W93739   0.460   6.336  12.051
32319W        W93740  17.207  39.487  10.506
32320W        W93741   2.360  23.630   2.398
32321W        W93742  11.704  25.205  12.562
32322W        W93743  35.925  14.716  11.858
32323W        W93744   1.806   1.940   2.274
32324W        W93745  29.456  23.622  12.486
32325W        W93746  27.013  13.149  12.490
32326W        W93747  44.863  35.388  10.478
32327W        W93748  30.009   8.279  13.518
32328W        W93749  10.657  40.051  12.551
32329W        W93750  37.550  23.674   4.194
32330W        W93751   1.790  20.106   3.827
32331W        W93752  36.447   4.823   9.942
32332W        W93753  27.582  16.767   2.263
32333W        W93754   7.243  38.012  13.318
32334W        W93755   2.816   0.766   2.178
32335W        W93756  44.485  14.710   0.450
32336W        W93757   0.802   6.226  11.100
32337W        W93758  33.017  39.992  14.901
32338W        W93759  30.988  11.156   2.800
32339W        W93760  39.555  32.006   3.669
32340W        W93761  40.483  44.772   0.269
32341W        W93762   1.971   2.402   3.659
32342W        W93763  16.224   4.881  14.972
32343W        W93764  12.731  30.423   9.595
32344W        W93765  11.331  25.544   4.227
32345W        W93766   7.373  34.512   1.341
32346W        W93767  22.053   0.751   1.246
32347W        W93768  38.868  34.984   3.713
32348W        W93769  42.291  14.733   2.712
32349W        W93770  10.307  12.674   0.305
32350W        W93771  19.116   6.830  13.309
32351W        W93772  23.632  20.146  13.972
32352W        W93773  24.584  35.979  13.043
32353W        W93774  30.948  35.862   5.154
32354W        W93775  39.862  28.513  12.510
32355W        W93776  39.355  40.889   4.262
32356W        W93777  20.723  16.183  11.540
32357W        W93778   0.463  30.533  11.517
32358W        W93779  39.475  33.109  11.442
32359W        W93780  17.106  39.449  13.868
32360W        W93781  12.155  30.609   3.365
32361W        W93782  33.068  12.308  11.124
32362W        W93783   9.374  19.628   0.931
32363W        W93784  32.121  21.146  11.091
32364W        W93785  36.413  23.608   0.940
32365W        W93786  17.680  16.715   0.257
32366W        W93787  27.130  24.188  12.968
32367W        W93788   0.249  30.413   2.900
32368W        W93789  30.932  31.946  13.508
32369W        W93790  20.547  38.820   3.182
32370W        W93791   0.302   5.244  10.518
32371W        W93792  29.020   4.347   1.258
32372W        W93793  11.145  18.191   3.236
32373W        W93794  30.610   8.871   2.857
32374W        W93795  31.607  26.192   0.800
32375W        W93796  24.075  40.480  13.368
32376W        W93797  20.220  19.211   3.635
32377W        W93798  16.299  19.129  10.999
32378W        W93799   2.338  18.561   5.106
32379W        W93800  41.440   1.325  14.861
32380W        W93801   4.907   7.375  10.594
32381W        W93802  31.993   7.847   3.685
32382W        W93803  30.571  11.847  13.822
32383W        W93804  28.448  13.763   5.667
32384W        W93805  19.255  12.670  14.325
32385W        W93806  10.309  41.826  10.989
32386W        W93807  39.821  12.362  11.466
32387W        W93808  24.590  16.151  12.483
32388W        W93809  23.579  13.218  12.345
32389W        W93810  42.904  22.717  10.541
32390W        W93811  24.137   1.891  10.914
32391W        W93812  32.120  19.571   4.336
32392W        W93813  33.998  10.168   0.477
32393W        W93814  42.404  13.175  13.480
32394W        W93815  12.706   1.432   4.188
32395W        W93816   9.319  22.744  13.482
32396W        W93817   8.165   2.251   0.424
32397W        W93818  30.976  22.690  13.043
32398W        W93819  13.823  12.755  12.903
32399W        W93820  40.460  30.557  11.595
32400W        W93821  36.564  24.043  12.441
32401W        W93822  20.196  39.000  10.123
32402W        W93823  11.749  33.551   0.946
32403W        W93824  39.939   4.912   2.286
32404W        W93825  16.649  16.568   1.902
32405W        W93826  30.505   4.369  14.900
32406W        W93827  37.901  17.599   0.939
32407W        W93828  36.040   3.709  10.940
32408W        W93829  35.567  29.605  10.488
32409W        W93830  16.676   2.782   1.315
32410W        W93831   0.939   8.887  13.944
32411W        W93832  43.459  10.682   4.163
32412W        W93833  25.998  23.181  14.876
32413W        W93834   5.272  43.343   2.761
32414W        W93835  42.447  40.432   0.803
32415W        W93836  33.067  17.792   1.315
32416W        W93837  11.141  21.691   3.230
32417W        W93838   0.842  39.544  12.905
32418W        W93839  11.737  39.063  14.494
32419W        W93840  13.323  39.475   2.782
32420W        W93841  44.838  44.456  10.974
32421W        W93842  39.504  31.524   0.742
32422W        W93843  31.910  11.729  14.775
32423W        W93844   7.354  26.181   0.483
32424W        W93845  26.966  43.986  12.561
32425W        W93846  38.325  44.494   1.808
32426W        W93847   7.781   0.372   0.817
32427W        W93848  20.055  25.612  13.046
32428W        W93849  44.408  10.835  10.574
32429W        W93850  21.618  37.500   0.773
32430W        W93851  17.563  14.137  14.020
32431W        W93852   0.412  25.492  14.026
32432W        W93853  12.657  43.974  14.814
32433W        W93854  30.595  32.906  14.999
32434W        W93855  35.019  16.646  14.800
32435W        W93856   4.703  40.863  12.932
32436W        W93857  14.638  33.098  10.518
32437W        W93858  36.015  38.951   3.325
32438W        W93859  19.547   2.964  10.515
32439W        W93860  24.535   3.857   3.804
32440W        W93861  41.857   0.476  12.396
32441W        W93862  23.561  15.182  11.451
32442W        W93863  26.585  19.546   3.840
32443W        W93864  18.580  30.914  11.882
32444W        W93865  25.528  43.427  10.497
32445W        W93866   6.217  24.223  12.005
32446W        W93867   2.363  37.474  12.951
32447W        W93868  28.952  42.523  12.041
32448W        W93869  20.138  31.618   2.306
32449W        W93870  38.866  26.582  12.065
32450W        W93871  40.407  25.978   2.265
32451W        W93872  28.522  22.558  13.022
32452W        W93873  22.232  14.167  11.973
32453W        W93874  30.137  38.333   1.268
32454W        W93875  11.834  41.811  11.909
32455W        W93876   1.952  11.730   4.784
32456W        W93877  33.984  12.276   5.199
32457W        W93878  21.633  23.579   0.951
32458W        W93879   3.728  33.056  11.042
32459W        W93880  42.811  42.400  10.459
32460W        W93881  23.174  28.075  12.018
32461W        W93882  12.223  18.788  14.292
32462W        W93883   6.280  32.955  11.951
32463W        W93884  44.485   8.274   4.810
32464W        W93885   0.450  35.869   2.334
32465W        W93886   7.234  24.039   4.737
32466W        W93887   0.305  18.631   3.172
32467W        W93888  12.779  42.351  11.032
32468W        W93889  30.093   5.791  14.469
32469W        W93890  27.011  38.373  10.988
32470W        W93891   1.952  33.439   3.653
32471W        W93892  31.503  38.495   0.434
32472W        W93893  41.005  42.992  13.361
32473W        W93894  32.441  27.015  10.928
32474W        W93895   2.762  37.412   2.829
32475W        W93896   0.954  24.681   2.744
32476W        W93897  29.936  10.680   0.411
32477W        W93898   0.317  26.182   4.787
32478W        W93899  19.612   3.902   1.775
32479W        W93900  31.528  35.436  14.009
32480W        W93901  19.060  17.629   3.668
32481W        W93902  41.019  44.784  11.955
32482W        W93903  38.514  36.592  13.352
32483W        W93904  13.169   0.780   0.881
32484W        W93905  33.477   7.268  14.513
32485W        W93906  30.005  10.672  10.445
32486W        W93907   4.829  20.594   3.199
32487W        W93908  24.191   0.794  14.303
32488W        W93909  28.143  22.638  10.929
32489W        W93910  42.955  16.161   4.278
32490W        W93911   9.799  23.675  10.432
32491W        W93912  20.182   9.188  11.601
32492W        W93913  13.609   8.192   2.220
32493W        W93914  29.055  37.409   3.369
32494W        W93915  14.293  43.810   2.348
32495W        W93916  29.089  25.565   3.867
32496W        W93917  27.008  37.962  11.556
32497W        W93918  40.875  24.027   2.386
32498W        W93919   4.706  36.848   1.355
32499W        W93920   1.362  19.092   1.317
32500W        W93921  19.743  34.037  13.859
32501W        W93922  22.117  22.996   2.871
32502W        W93923  26.048  28.566  10.484
32503W        W93924  18.227  22.147  13.806
32504W        W93925   3.344  18.674   3.239
32505W        W93926  27.628  22.244  12.991
32506W        W93927  36.013  33.058   1.755
32507W        W93928  38.974  12.336   3.800
32508W        W93929  22.030   4.337  11.466
32509W        W93930   0.776  43.362  12.458
32510W        W93931   0.793  39.940  11.462
32511W        W93932   0.392   4.806   4.255
32512W        W93933  25.482   5.362  12.452
32513W        W93934  18.054  26.182   3.167
32514W        W93935  19.607  19.697   1.697
32515W        W93936  16.265  14.099   0.733
32516W        W93937   6.860  36.377   2.820
32517W        W93938  30.525   3.281  10.428
32518W        W93939   5.351  44.853  10.549
32519W        W93940  22.617  17.135  14.915
32520W        W93941  40.911  19.628  12.075
32521W        W93942  43.797  16.626   0.821
32522W        W93943   9.341  11.817   9.921
32523W        W93944  39.554  33.520   4.774
32524W        W93945  24.644  26.203  11.890
32525W        W93946  43.447  35.048   3.819
32526W        W93947  42.333  39.347  10.629
32527W        W93948  11.264  26.015   0.287
32528W        W93949  13.775  22.096  12.011
32529W        W93950  12.121  12.326  13.884
32530W        W93951  34.374  26.480   2.246
32531W        W93952  41.478  36.071  13.520
32532W        W93953  11.143   4.296   0.262
32533W        W93954  18.098  27.042   2.776
32534W        W93955  35.902   7.239  14.859
32535W        W93956  29.517  42.033  11.062
32536W        W93957   7.875   9.321   4.706
32537W        W93958  37.436  27.149  13.033
32538W        W93959   7.869  39.867  12.922
32539W        W93960  40.988  14.253  10.507
32540W        W93961  43.328  21.515   2.674
32541W        W93962  35.369  31.493   4.817
32542W        W93963  15.735  37.835  14.359
32543W        W93964  14.206  35.481   2.784
32544W        W93965   6.871  27.029   2.673
32545W        W93966   2.809  41.935  10.452
32546W        W93967  28.019   4.346  13.895
32547W        W93968  10.846  15.612  13.446
32548W        W93969  34.561   9.149   1.300
32549W        W93970  39.335  43.442  13.991
32550W        W93971  15.771  24.668  12.489
32551W        W93972  42.445  38.352   4.165
32552W        W93973  12.684  26.518   0.244
32553W        W93974  31.047   3.405   0.771
32554W        W93975  25.989   7.881   1.696
32555W        W93976   0.824   6.359  13.040
32556W        W93977  15.270   7.359   3.680
32557W        W93978  37.362  26.515   9.921
32558W        W93979   8.780  23.075   4.668
32559W        W93980  35.435  32.445  11.554
32560W        W93981  35.488  27.116  10.541
32561W        W93982  44.849  39.409   2.315
32562W        W93983  24.103  11.252   0.803
32563W        W93984  41.429  22.102   2.746
32564W        W93985  44.503  22.251   0.338
32565W        W93986  18.741   5.820  11.501
32566W        W93987  32.097  24.047  14.991
32567W        W93988  31.967  42.841  11.589
32568W        W93989  44.816   6.699  12.428
32569W        W93990  39.378  43.497  14.845
32570W        W93991  10.211  43.506  12.868
32571W        W93992  15.706  30.922  12.504
32572W        W93993  28.548   5.365   3.763
32573W        W93994   1.312  35.449   1.327
32574W        W93995  14.821  42.829  12.095
32575W        W93996   7.390   9.342  14.279
32576W        W93997  18.147  30.414  12.453
32577W        W93998  25.472   2.342  13.462
32578W        W93999  36.533  37.347   3.257
32579W        W94000   5.719   0.482  12.397
32580W        W94001  39.809  14.231  12.877
32581W        W94002  35.456  38.976  12.999
32582W        W94003  16.211  27.018  11.604
32583W        W94004  36.397   7.721  11.022
32584W        W94005   6.703  32.534  12.833
32585W        W94006   6.191  27.473  11.572
32586W        W94007  41.986  18.260  12.095
32587W        W94008  42.023  13.134  13.839
32588W        W94009  31.647  32.609   1.338
32589W        W94010  13.664   5.726  14.783
32590W        W94011  24.162  30.923   2.784
32591W        W94012  31.403  21.609  11.965
32592W        W94013  42.864  35.896   2.392
32593W        W94014  23.102   0.325   2.413
32594W        W94015  44.412  27.178   3.381
32595W        W94016  21.110   8.210   0.877
32596W        W94017  14.619  36.993   3.731
32597W        W94018   4.737  20.608   3.638
32598W        W94019   5.264  21.238  12.923
32599W        W94020  30.915   1.878   4.156
32600W        W94021  20.126  31.952   1.768
32601W        W94022  28.065  20.155  14.809
32602W        W94023  34.867  16.100   0.270
32603W        W94024   2.731  10.817   2.802
32604W        W94025  13.265  27.150   1.870
32605W        W94026  43.969   8.195   0.289
32606W        W94027  19.669  25.969  12.011
32607W        W94028  12.684  14.802   0.769
32608W        W94029  20.240  11.703  12.017
32609W        W94030  19.161  15.247   4.310
32610W        W94031  31.641  35.089   3.693
32611W        W94032   6.782  43.497   3.316
32612W        W94033  35.001  18.679   0.366
32613W        W94034  39.340  28.178  14.355
32614W        W94035   6.382   0.953   2.796
32615W        W94036  41.534   9.379  12.524
32616W        W94037   2.831  38.379   4.140
32617W        W94038   9.858  17.700   1.756
32618W        W94039  22.722  22.706   4.178
32619W        W94040  32.084  11.633  13.527
32620W        W94041   1.345  28.505  13.040
32621W        W94042  30.463  18.733   0.362
32622W        W94043  31.979  10.173   3.198
32623W        W94044  32.418   7.352   2.385
32624W        W94045  36.574  25.685   0.858
32625W        W94046  18.242   0.464  13.308
32626W        W94047   8.835   5.339   4.177
32627W        W94048  18.761  22.626   2.892
32628W        W94049   0.353  17.750  11.588
32629W        W94050  11.196   9.835  11.052
32630W        W94051  42.830  30.140   4.828
32631W        W94052   4.354  28.582  11.973
32632W        W94053  39.937   6.750  10.453
32633W        W94054  25.170  44.790  14.317
32634W        W94055  15.087  26.042   0.446
32635W        W94056  25.970  41.357   1.777
32636W        W94057   0.472  11.148   1.338
32637W        W94058  31.974   9.785  10.930
32638W        W94059  33.618   0.370  10.522
32639W        W94060   4.725   5.346   1.295
32640W        W94061  16.317  26.643  12.438
32641W        W94062   0.887  31.942   0.252
32642W        W94063  30.538  16.581   3.182
32643W        W94064   3.258  43.495  13.473
32644W        W94065   3.872  10.203   3.339
32645W        W94066  12.744  36.572  12.865
32646W        W94067  43.796  23.584   0.869
32647W        W94068  42.841  40.499   2.302
32648W        W94069  39.032  42.993   3.656
32649W        W94070  29.991  31.034   4.690
32650W        W94071  42.447   4.905   3.720
32651W        W94072  41.977  39.355  10.930
32652W        W94073  11.788  19.259   0.843
32653W        W94074  26.476  33.130   2.662
32654W        W94075   2.467  42.405  10.462
32655W        W94076  44.384  40.006   2.404
32656W        W94077  22.609   1.800  13.028
32657W        W94078  36.535   7.349   3.823
32658W        W94079  12.835  24.116   0.378
32659W        W94080  26.650   3.261  14.810
32660W        W94081  23.669   7.348   5.204
32661W        W94082  27.498  32.904   3.869
32662W        W94083  22.566  37.511  12.895
32663W        W94084  26.671  27.130   4.681
32664W        W94085  40.812  17.254   4.282
32665W        W94086  40.429  42.948  11.470
32666W        W94087  17.642  23.708   4.690
32667W        W94088  26.677  41.798  14.326
32668W        W94089  42.827  39.389   3.681
32669W        W94090   0.913  16.725   0.275
32670W        W94091  39.015  24.633  12.519
32671W        W94092  40.019  13.704   0.475
32672W        W94093  20.748  39.418  13.334
32673W        W94094  31.459   7.670  12.927
32674W        W94095  38.560   6.419   2.365
32675W        W94096  40.515  42.788   0.858
32676W        W94097   4.320  33.968   3.367
32677W        W94098   0.926  33.985  12.534
32678W        W94099   6.747  17.558   1.822
32679W        W94100  23.182  15.632  10.905
32680W        W94101  30.593  26.098   0.928
32681W        W94102  32.590   6.335   4.606
32682W        W94103  32.401  28.435  14.812
32683W        W94104  37.563  13.334  14.394
32684W        W94105  16.251  39.979   2.866
32685W        W94106  16.686   6.684  13.435
32686W        W94107   2.456   8.369   1.738
32687W        W94108  11.709  28.153   2.272
32688W        W94109   0.464  28.070   4.137
32689W        W94110  22.028  24.114  14.445
32690W        W94111  41.939  37.350   0.363
32691W        W94112   8.797  39.045  12.912
32692W        W94113  18.759  34.408  10.059
32693W        W94114  16.290  21.223   4.157
32694W        W94115  13.325  11.783   1.752
32695W        W94116  32.106   7.823   0.936
32696W        W94117  36.903  29.455   3.327
32697W        W94118   6.916  35.400  14.506
32698W        W94119  44.950  44.263   1.726
32699W        W94120  34.088   9.705  12.884
32700W        W94121   8.888  19.096   3.651
32701W        W94122  44.913  11.677   1.213
32702W        W94123  39.387  16.179   0.316
32703W        W94124  25.210  34.407  13.377
32704W        W94125   2.463  16.297   2.186
32705W        W94126  10.315  36.541  13.503
32706W        W94127  42.342   2.458   4.147
32707W        W94128  13.712  29.034   3.832
32708W        W94129  31.917  26.696   0.939
32709W        W94130  42.305  36.564   1.784
32710W        W94131  34.571  21.675  13.872
32711W        W94132  31.461  32.084   5.098
32712W        W94133  27.018   0.338  13.308
32713W        W94134  15.774   6.762   1.313
32714W        W94135  42.315  12.811  11.592
32715W        W94136  44.001  36.034  14.921
32716W        W94137  10.177  24.518   2.388
32717W        W94138  40.473  12.788  14.802
32718W        W94139  36.056  25.690   2.219
32719W        W94140   6.914   8.168   2.897
32720W        W94141  36.954  38.548   3.841
32721W        W94142   9.718  38.417   0.963
32722W        W94143  14.110   3.433  10.542
32723W        W94144  39.024  17.262   0.345
32724W        W94145  38.922  27.097  12.534
32725W        W94146  30.440  12.762  13.808
32726W        W94147  18.648  34.464  13.020
32727W        W94148  23.599  11.368  12.524
32728W        W94149  34.560  20.258   2.187
32729W        W94150   7.875  26.641   9.653
32730W        W94151  42.859  34.090  11.066
32731W        W94152  36.568   7.900  11.922
32732W        W94153  31.454  16.083   0.307
32733W        W94154   4.808  30.043  13.966
32734W        W94155  34.997   7.818  13.993
32735W        W94156  17.092  41.028   1.796
32736W        W94157   8.230  24.061   4.208
32737W        W94158   1.953  20.186   2.842
32738W        W94159  12.359  24.058  10.585
32739W        W94160  33.926  38.884   4.172
32740W        W94161  30.140  27.598   2.674
32741W        W94162  42.980  31.062   4.607
32742W        W94163  36.544  35.006   1.262
32743W        W94164   2.472  42.955   1.302
32744W        W94165  14.634  20.095   4.331
32745W        W94166  30.454  42.031   5.095
32746W        W94167  36.940  30.127   2.824
32747W        W94168  27.506   8.887  10.893
32748W        W94169   8.677  26.652  13.522
32749W        W94170  18.139  18.684  11.602
32750W        W94171   0.849  20.191  11.585
32751W        W94172  38.534  40.925  11.474
32752W        W94173  23.526  31.467   0.890
32753W        W94174  29.937  38.914  13.017
32754W        W94175  11.823  13.744  12.870
32755W        W94176  24.185  22.567   4.329
32756W        W94177   2.960  17.201  11.930
32757W        W94178  42.297  10.759  12.879
32758W        W94179  14.304   3.432   2.837
32759W        W94180  27.583  20.239   3.790
32760W        W94181  12.812  26.087   2.239
32761W        W94182  32.036  32.049  11.067
32762W        W94183   5.409  42.943  13.894
32763W        W94184  33.396   2.384   1.905
32764W        W94185   3.801  22.173   5.770
32765W        W94186  12.285  32.575   2.228
32766W        W94187  27.686  21.236   4.317
32767W        W94188  32.493   9.338  13.415
32768W        W94189  34.512  43.515  12.971
32769W        W94190  15.320  11.188   3.151
32770W        W94191   6.376  44.817  14.329
32771W        W94192  18.636  21.576  11.045
32772W        W94193  16.250   7.852   1.911
32773W        W94194  26.537  44.940   0.932
32774W        W94195   2.367  32.971  13.023
32775W        W94196  20.066  39.022  13.444
32776W        W94197   3.277  41.835   3.810
32777W        W94198  33.530  31.148   2.183
32778W        W94199  10.723  27.122   4.785
32779W        W94200  40.807  42.968  10.443
32780W        W94201  24.511  25.481   2.838
32781W        W94202  37.934   3.767   3.706
32782W        W94203  32.926  29.095  12.838
32783W        W94204  32.086  13.781   2.205
32784W        W94205  17.243  20.165  10.595
32785W        W94206  30.114  12.234  12.047
32786W        W94207  12.282  36.543   3.299
32787W        W94208   8.807   9.875  13.972
32788W        W94209   8.871  12.643  12.954
32789W        W94210   2.955  30.464   5.213
32790W        W94211  20.042  21.691   0.773
32791W        W94212  18.690  21.229   3.791
32792W        W94213  39.368  11.277   9.547
32793W        W94214  41.014  41.309  11.878
32794W        W94215   8.326  34.875  11.016
32795W        W94216  15.138  20.598  11.946
32796W        W94217  25.631  29.001   2.262
32797W        W94218  11.778  16.208  13.913
32798W        W94219  16.307   4.813   1.329
32799W        W94220  31.618   5.297  10.639
32800W        W94221  34.415   7.747   0.414
32801W        W94222  44.961  39.419   4.352
32802W        W94223  32.574   6.762  12.917
32803W        W94224  35.364  17.286  14.408
32804W        W94225  38.881   9.839  14.922
32805W        W94226  40.900  34.559   1.888
32806W        W94227   6.389  36.869   4.775
32807W        W94228   4.410  16.705   0.925
32808W        W94229  28.098  16.257  13.436
32809W        W94230  27.600  11.753   9.925
32810W        W94231  16.225   3.870  14.920
32811W        W94232   7.868  25.639  12.941
32812W        W94233  42.492  34.019  11.984
32813W        W94234  36.488   8.244  14.865
32814W        W94235  34.421  34.090   4.145
32815W        W94236  30.654  10.867  14.853
32816W        W94237  39.394  32.583   0.796
32817W        W94238  26.033  15.815  14.788
32818W        W94239  36.006  44.277   4.211
32819W        W94240   0.873  12.358   1.857
32820W        W94241  10.182  15.730  10.452
32821W        W94242   8.854  16.149   3.824
32822W        W94243  19.638  36.367   3.774
32823W        W94244   7.174  34.916  11.044
32824W        W94245  36.930  36.056   4.707
32825W        W94246  38.941  27.604   0.826
32826W        W94247  41.474  40.437   2.387
32827W        W94248  44.468  34.469  14.975
32828W        W94249   5.360   2.939   2.671
32829W        W94250  25.605  20.118   0.252
32830W        W94251  27.664  24.542   2.372
32831W        W94252   7.329   6.703  14.340
32832W        W94253  33.385  37.982  11.411
32833W        W94254  27.948  36.077  12.834
32834W        W94255  33.924  35.565   4.736
32835W        W94256  36.843   0.767  11.119
32836W        W94257  16.157   2.295   1.287
32837W        W94258  44.941  12.199  12.975
32838W        W94259  29.116  19.125  13.012
32839W        W94260  35.554  14.777  10.485
32840W        W94261   2.306  12.321  11.540
32841W        W94262  36.858  27.531   0.883
32842W        W94263   8.897  21.246   2.374
32843W        W94264  19.777  18.667  10.510
32844W        W94265  15.820  18.588   1.812
32845W        W94266  32.486  26.464   0.922
32846W        W94267  43.358  44.807  11.487
32847W        W94268  30.547  36.475  11.398
32848W        W94269  38.974  33.624   4.653
32849W        W94270   8.377  14.806   0.262
32850W        W94271  23.189  14.673   2.383
32851W        W94272  18.655   5.724  14.466
32852W        W94273   5.856  13.303  12.396
32853W        W94274  43.771  24.578  14.783
32854W        W94275   8.657   4.757   4.726
32855W        W94276  13.759  31.617   1.836
32856W        W94277  21.063  25.603   4.132
32857W        W94278  41.456  16.183   1.362
32858W        W94279  34.010  15.801   2.837
32859W        W94280  15.209  35.448  12.878
32860W        W94281  17.100   8.794  11.097
32861W        W94282  32.608  13.252   2.244
32862W        W94283  19.639  11.689   1.230
32863W        W94284  30.451   9.771   2.770
32864W        W94285   5.748  36.032  14.987
32865W        W94286  17.561  43.797  11.450
32866W        W94287  13.696   7.849  10.585
32867W        W94288  20.694  27.570   0.482
32868W        W94289  29.959   3.813  14.325
32869W        W94290   4.302  28.584   4.827
32870W        W94291   7.206  37.384   2.216
32871W        W94292  14.696  15.748   1.766
32872W        W94293  40.030  34.979  12.426
32873W        W94294  42.522  38.945   3.693
32874W        W94295  11.296  15.756  13.541
32875W        W94296   5.886  40.425  13.921
32876W        W94297   2.801   4.763  12.067
32877W        W94298  42.322   3.812   3.199
32878W        W94299  18.589  18.670  14.461
32879W        W94300  27.460  14.615  13.506
32880W        W94301  39.391   4.793   9.937
32881W        W94302  28.163  17.738   1.844
32882W        W94303  18.751   1.748  10.921
32883W        W94304  20.210  31.548  14.851
32884W        W94305   0.844   2.253   1.767
32885W        W94306  12.199  34.034  11.390
32886W        W94307  24.558  11.259   3.153
32887W        W94308  15.289  11.336   1.701
32888W        W94309  23.049  34.437  13.913
32889W        W94310   7.731   8.189   0.319
32890W        W94311  33.604   7.322  14.893
32891W        W94312  43.941  24.052   0.478
32892W        W94313  18.145  28.930  10.135
32893W        W94314  26.579   3.336  10.981
32894W        W94315  32.935  13.156   1.298
32895W        W94316  19.551   6.337  10.621
32896W        W94317  38.867  34.472  10.970
32897W        W94318  18.103  13.185  11.047
32898W        W94319  32.409  32.994   1.388
32899W        W94320  21.621  38.027   2.237
32900W        W94321  14.153  22.634  13.943
32901W        W94322  27.665  12.236  13.987
32902W        W94323   8.162  33.588   2.249
32903W        W94324  27.639  14.175   2.195
32904W        W94325  42.480  39.495   3.248
32905W        W94326  35.381  24.076   2.405
32906W        W94327  24.166   8.277   3.685
32907W        W94328  35.017  24.617  13.971
32908W        W94329  18.238  25.138  14.765
32909W        W94330  17.582  32.974   1.451
32910W        W94331  31.935  19.285  10.575
32911W        W94332  35.372   1.434  12.907
32912W        W94333  44.840  29.614   4.316
32913W        W94334  20.093  39.061   4.314
32914W        W94335  12.195   7.269  12.089
32915W        W94336   9.304  41.470  10.548
32916W        W94337  26.543   3.283   5.215
32917W        W94338   6.860  38.384   1.704
32918W        W94339   2.733  43.310  14.292
32919W        W94340  22.042  23.097   4.306
32920W        W94341  39.951   3.879  11.451
32921W        W94342  18.547  44.951  14.499
32922W        W94343  12.177  19.141  10.593
32923W        W94344  29.974  24.651  10.492
32924W        W94345  38.550  28.676  14.435
32925W        W94346  43.813  29.430   1.387
32926W        W94347  34.541  20.089  13.014
32927W        W94348  27.584   7.199   3.248
32928W        W94349  31.031  29.623   3.637
32929W        W94350  14.792  10.662  13.032
32930W        W94351  16.257  41.426   0.783
32931W        W94352  29.596  28.649   3.711
32932W        W94353  19.560  20.259   1.868
32933W        W94354   5.230  24.717  12.425
32934W        W94355  29.513   2.890  13.849
32935W        W94356  20.033  39.403  10.586
32936W        W94357  37.005  20.716   2.868
32937W        W94358   8.709   4.231   2.814
32938W        W94359  28.182  41.366   9.986
32939W        W94360  30.490  21.228   3.358
32940W        W94361  16.291  21.224  11.428
32941W        W94362   8.323  14.767   3.383
32942W        W94363   2.300  21.216   4.290
32943W        W94364  18.664  24.707  13.861
32944W        W94365   3.255  30.635   3.315
32945W        W94366  31.046  34.985  13.394
32946W        W94367  30.981  21.733  14.511
32947W        W94368   2.869  35.931  11.566
32948W        W94369  30.490  33.518  14.414
32949W        W94370  42.285   0.914  11.533
32950W        W94371   4.934  17.739  13.929
32951W        W94372  16.235  33.025   4.800
32952W        W94373  28.592  32.900   2.880
32953W        W94374  35.093  28.104  12.952
32954W        W94375  28.988  20.740   0.330
32955W        W94376  32.073  23.589  11.601
32956W        W94377   8.745  16.795  11.380
32957W        W94378   1.384   1.264  13.488
32958W        W94379  28.089   7.324   1.278
32959W        W94380   8.399   2.953  11.975
32960W        W94381  16.599  43.877   0.802
32961W        W94382  19.103  12.123  12.041
32962W        W94383   6.319  41.025   2.312
32963W        W94384   1.973  16.718  14.453
32964W        W94385   2.801  24.658  10.566
32965W        W94386  10.213  26.509   0.246
32966W        W94387   3.327   0.925  14.908
32967W        W94388  32.553  15.319   3.351
32968W        W94389  17.129   9.386   2.755
32969W        W94390  11.270  44.885  14.801
32970W        W94391   3.459  24.981   3.757
32971W        W94392  14.242   4.385   4.747
32972W        W94393   8.833  18.576   1.696
32973W        W94394   8.210  35.408   0.261
32974W        W94395  13.615  13.157   4.734
32975W        W94396  30.487  16.250  12.358
32976W        W94397   1.842  25.614   0.737
32977W        W94398  34.958  28.589  11.967
32978W        W94399  10.196   6.747   4.761
32979W        W94400  25.204  13.274  10.936
32980W        W94401  16.678  43.925   3.187
32981W        W94402  37.553   9.781   0.466
32982W        W94403  34.007   2.421  12.884
32983W        W94404  20.144   8.816  14.790
32984W        W94405  30.125  41.325   1.699
32985W        W94406   4.250  32.130  11.477
32986W        W94407   7.793  31.129   1.246
32987W        W94408  15.185  39.934  14.889
32988W        W94409  10.204  33.931   1.304
32989W        W94410  40.492  24.576   2.348
32990W        W94411  15.116  31.421   9.956
32991W        W94412  16.699   1.962   1.255
32992W        W94413  43.355  22.135  12.471
32993W        W94414  34.531   9.783   4.149
32994W        W94415  27.627  36.933   4.785
32995W        W94416  12.329  29.590   2.300
32996W        W94417  21.581  28.157   2.412
32997W        W94418  38.962  44.372  10.051
32998W        W94419  19.621  18.083   3.375
32999W        W94420  35.865  37.070   2.332
33000W        W94421  33.080  43.826  12.021
33001W        W94422  17.280  36.447   3.291
33002W        W94423   4.390  12.224   4.701
33003W        W94424   7.258  18.143   2.741
33004W        W94425  15.732  21.548   4.662
33005W        W94426  24.060  44.011   4.141
33006W        W94427  33.547  10.754  11.482
33007W        W94428  14.237  44.803  10.987
33008W        W94429  30.968   6.795   2.713
33009W        W94430  16.665  38.060  10.613
33010W        W94431  33.404   0.483   2.405
33011W        W94432  17.704   5.341  12.431
33012W        W94433  11.674  17.250   1.288
33013W        W94434  37.861   5.831  12.973
33014W        W94435  20.029  43.790   0.899
33015W        W94436   6.844  34.414   4.249
33016W        W94437   5.292  10.867   4.299
33017W        W94438   4.334  31.948   0.345
33018W        W94439   6.759  24.559   1.741
33019W        W94440  33.592  21.619  12.394
33020W        W94441  44.790  26.567   2.725
33021W        W94442  17.772  42.853  10.420
33022W        W94443  29.497  15.803   4.177
33023W        W94444  17.662  43.390   0.430
33024W        W94445  12.182  27.090  11.423
33025W        W94446  34.424  35.971  14.417
33026W        W94447  41.866  35.372  13.882
33027W        W94448  12.642  27.538   3.266
33028W        W94449  29.609  36.047   4.183
33029W        W94450  41.962  14.735   0.842
33030W        W94451   6.747   8.760  10.969
33031W        W94452   7.736  18.173   3.174
33032W        W94453  35.937  11.722  12.562
33033W        W94454  21.743  27.117  11.858
33034W        W94455  38.391  39.031   3.813
33035W        W94456  35.362  20.067  12.835
33036W        W94457  32.624  14.727  14.301
33037W        W94458  31.930  19.639  12.991
33038W        W94459  43.299  29.564   0.750
33039W        W94460  38.831   4.728   1.304
33040W        W94461   0.867   5.742  12.579
33041W        W94462  44.769  24.219  13.488
33042W        W94463  43.954  34.107   4.811
33043W        W94464  14.168   2.964   2.225
33044W        W94465  37.065   0.814  14.019
33045W        W94466   6.186  15.762  13.013
33046W        W94467  24.091  10.255  10.961
33047W        W94468  30.439   3.722   4.779
33048W        W94469   6.397  22.199  10.483
33049W        W94470  40.051  17.162   3.721
33050W        W94471   5.767  15.707   2.389
33051W        W94472   3.723  40.429  12.960
33052W        W94473  22.243  28.080  13.362
33053W        W94474  12.243  37.943   3.166
33054W        W94475  33.391  24.173  11.069
33055W        W94476  10.860  12.242  14.334
33056W        W94477   8.684  33.874   2.192
33057W        W94478   9.801  33.503   4.689
33058W        W94479  27.674  18.052  12.538
33059W        W94480  16.628  39.346   4.598
33060W        W94481   7.344  39.559   0.911
33061W        W94482  38.075   7.697   3.270
33062W        W94483  26.588   8.731  11.546
33063W        W94484  30.455  17.217  11.545
33064W        W94485  44.816  13.749   3.728
33065W        W94486  43.398   6.733   2.833
33066W        W94487  15.136  12.288  11.988
33067W        W94488   2.280  10.741   0.462
33068W        W94489   7.760   0.860  12.847
33069W        W94490   5.899  11.286   3.735
33070W        W94491   9.204  42.927   2.901
33071W        W94492  36.864  36.086   0.850
33072W        W94493  37.888  33.508  13.317
33073W        W94494   0.353  36.496  13.854
33074W        W94495  21.024  25.976   0.867
33075W        W94496  22.173   6.759  13.428
33076W        W94497  17.639  33.402   3.643
33077W        W94498  12.232   5.264   1.364
33078W        W94499  43.444   3.394  13.976
33079W        W94500  25.988  37.876  13.443
33080W        W94501  41.528  37.072  10.498
33081W        W94502  38.554  33.623   4.126
33082W        W94503  18.680  29.601   2.360
33083W        W94504  36.047  24.561   0.843
33084W        W94505  26.531  10.200  11.511
33085W        W94506  30.617   8.765   1.935
33086W        W94507   6.717  44.500   0.385
33087W        W94508  31.422  39.822   2.246
33088W        W94509  37.027   9.275   1.730
33089W        W94510   5.261  36.350  10.506
33090W        W94511  28.609  17.582   3.808
33091W        W94512  12.667  28.111  12.895
33092W        W94513  11.127  23.123  13.978
33093W        W94514  31.076  28.132   1.844
33094W        W94515  20.582   9.861  12.928
33095W        W94516  30.918  16.246   4.671
33096W        W94517  31.927  40.869  10.578
33097W        W94518  14.619   6.888  11.113
33098W        W94519   6.856  36.910   1.838
33099W        W94520   6.856  33.480  11.571
33100W        W94521  32.494  28.066   4.156
33101W        W94522  10.186  37.950   4.336
33102W        W94523  18.592   9.677   3.782
33103W        W94524  16.746   3.735  14.892
33104W        W94525  29.927  44.959  14.797
33105W        W94526  24.700   2.748  13.435
33106W        W94527   2.413  31.575   1.731
33107W        W94528  14.817  11.313  12.080
33108W        W94529   4.831  30.016  14.482
33109W        W94530  37.367   1.822   2.189
33110W        W94531  29.040   6.188   2.718
33111W        W94532  19.191  34.578  12.374
33112W        W94533   4.314  15.313  12.368
33113W        W94534   0.989  19.548  11.898
33114W        W94535   5.692  10.299  11.006
33115W        W94536  12.259  29.666   1.855
33116W        W94537   4.430  24.181   0.960
33117W        W94538  44.994  15.773  13.932
33118W        W94539  35.520  14.156   3.680
33119W        W94540  21.035  15.707  14.815
33120W        W94541   6.245  31.032   3.306
33121W        W94542  41.496  25.700   1.220
33122W        W94543  15.231  39.454   2.326
33123W        W94544  23.137   9.698  14.847
33124W        W94545  21.598  19.044  14.928
33125W        W94546   6.302   5.305   1.725
33126W        W94547   7.380  33.934  12.886
33127W        W94548   3.775  11.358  10.967
33128W        W94549  13.241  16.083   2.376
33129W        W94550  15.685  11.726   3.748
33130W        W94551  36.914  34.075   4.174
33131W        W94552  43.470  14.182   4.677
33132W        W94553  25.589  33.050   0.901
33133W        W94554  16.169   2.331  11.864
33134W        W94555   7.806   8.344   2.726
33135W        W94556   1.357  30.619  14.456
33136W        W94557  17.127  37.010  12.837
33137W        W94558  33.472  39.816   3.818
33138W        W94559  15.758  17.141  13.916
33139W        W94560  40.921   6.291  12.932
33140W        W94561  44.856  19.671  11.961
33141W        W94562  16.684   5.794  14.389
33142W        W94563  39.020  29.082   4.349
33143W        W94564  34.046  42.949  10.957
33144W        W94565  41.834  23.010  10.966
33145W        W94566  14.599   7.892  14.312
33146W        W94567  43.322  18.183   1.229
33147W        W94568  21.075   0.273  10.004
33148W        W94569  17.199  31.544  13.941
33149W        W94570  40.400   9.185   0.479
33150W        W94571  27.120  40.448   1.834
33151W        W94572  36.543  20.673  13.501
33152W        W94573  10.321  34.593   1.752
33153W        W94574  42.359   6.808   0.931
33154W        W94575   8.779  37.056   1.357
33155W        W94576  40.313  30.087  11.400
33156W        W94577   4.945   6.368  12.072
33157W        W94578   5.790   1.477   2.805
33158W        W94579  44.261   2.377  10.485
33159W        W94580  37.020  40.355  13.052
33160W        W94581  37.049   5.283  11.587
33161W        W94582  11.281  44.449   2.367
33162W        W94583  11.213  11.632   1.297
33163W        W94584  28.434  32.058   1.279
33164W        W94585   2.436  31.938   0.468
33165W        W94586  36.466   3.354   3.226
33166W        W94587  24.682  30.587   4.749
33167W        W94588  20.689  43.408   0.328
33168W        W94589  23.152  16.602  11.962
33169W        W94590  16.285  13.750  14.317
33170W        W94591   5.698  23.709  11.022
33171W        W94592   6.201  38.328  12.847
33172W        W94593   2.902  39.921   3.376
33173W        W94594  42.332  43.360   3.346
33174W        W94595  15.680   6.261  10.561
33175W        W94596  31.428   1.802   2.235
33176W        W94597  21.116  30.604   2.863
33177W        W94598   8.309  28.625   1.903
33178W        W94599  15.710  44.764   4.690
33179W        W94600  22.078  20.722  14.417
33180W        W94601  28.172  44.956   1.886
33181W        W94602  16.720  13.823   2.694
33182W        W94603   1.299  37.446  14.021
33183W        W94604  43.469  21.604   2.314
33184W        W94605  26.078   4.898   4.161
33185W        W94606  27.453   3.329  14.891
33186W        W94607  13.792  34.978   1.245
33187W        W94608  29.559   3.877   4.602
33188W        W94609  12.315   3.356  10.900
33189W        W94610  42.940  39.952   4.683
33190W        W94611  38.555  33.950  10.943
33191W        W94612   3.809  12.303   2.728
33192W        W94613   6.334  23.494  10.594
33193W        W94614  16.098  37.872   4.173
33194W        W94615  27.448  12.779  10.539
33195W        W94616  10.859  35.467  13.935
33196W        W94617  22.244  19.753   3.229
33197W        W94618  25.670  33.464  13.931
33198W        W94619  36.380  25.565   1.260
33199W        W94620  38.422   6.236  14.406
33200W        W94621  19.755  29.072  14.780
33201W        W94622  39.505  43.476  14.348
33202W        W94623  36.864   0.332  12.491
33203W        W94624   3.459  18.057   3.269
33204W        W94625  10.236  41.872  10.568
33205W        W94626  22.062  24.683  11.480
33206W        W94627  26.954  24.192   3.269
33207W        W94628   3.459  12.296   1.848
33208W        W94629  37.876  41.916  14.337
33209W        W94630  38.547  28.462   0.310
33210W        W94631  13.640  14.191   2.382
33211W        W94632  44.432  39.416  14.323
33212W        W94633  23.690  43.781  11.891
33213W        W94634  28.470  24.553   0.737
33214W        W94635  27.076  27.675   2.337
33215W        W94636  25.503   7.855   2.369
33216W        W94637  42.307  38.548  13.872
33217W        W94638  31.082  35.008   3.340
33218W        W94639  23.586  29.970   0.903
33219W        W94640  42.886  40.507   5.117
33220W        W94641  27.598  17.118   1.914
33221W        W94642  32.626  16.199   4.254
33222W        W94643  36.475   1.323   2.247
33223W        W94644  18.568   8.755   4.825
33224W        W94645  34.491  29.140   0.284
33225W        W94646  41.009  21.696   2.332
33226W        W94647   2.800  22.106  12.532
33227W        W94648  42.837   5.194   1.779
33228W        W94649  34.600  10.382  11.887
33229W        W94650  26.499   7.264  14.795
33230W        W94651  23.490  18.663   0.890
33231W        W94652  44.934  23.624   4.799
33232W        W94653  30.004  37.982   1.342
33233W        W94654  17.672   2.301  14.030
33234W        W94655   8.341  35.018   0.926
33235W        W94656  22.667  14.099   3.641
33236W        W94657  21.172  17.655  10.063
33237W        W94658  11.646  26.478  13.818
33238W        W94659  38.865   1.822   4.701
33239W        W94660  24.007  11.127  14.316
33240W        W94661   5.318   8.740  12.888
33241W        W94662  26.025  35.006   3.729
33242W        W94663  13.668  14.225  13.430
33243W        W94664  44.333   9.225  10.477
33244W        W94665  36.458  20.083  13.534
33245W        W94666  34.986  21.145   1.800
33246W        W94667  18.073  33.021   2.239
33247W        W94668  20.683  29.015   0.250
33248W        W94669  40.855  31.081   4.818
33249W        W94670  39.523  33.563   1.851
33250W        W94671  33.546  39.473   2.206
33251W        W94672   2.264  23.230  13.896
33252W        W94673  12.847  32.118  10.451
33253W        W94674  27.123  27.691   4.263
33254W        W94675  39.333  10.307   0.479
33255W        W94676   0.940  44.479   3.266
33256W        W94677   2.241   4.316   3.775
33257W        W94678  13.267  17.590  12.369
33258W        W94679  43.433  35.909  10.592
33259W        W94680  40.918  26.546  10.609
33260W        W94681  43.987  32.890  11.062
33261W        W94682  32.916  27.191  13.413
33262W        W94683  28.597   8.249  12.073
33263W        W94684  30.499  41.329   9.960
33264W        W94685  32.130  35.903  10.043
33265W        W94686   5.265  26.649  11.584
33266W        W94687  19.629  44.981  12.026
33267W        W94688  33.050  42.920  11.873
33268W        W94689  40.404  23.690  11.562
33269W        W94690  35.533  18.786   0.879
33270W        W94691   0.344  12.755  11.042
33271W        W94692  16.083  39.978   1.366
33272W        W94693  12.693  38.865  13.457
33273W        W94694  14.325  11.213   4.219
33274W        W94695  32.045  31.942   1.915
33275W        W94696  22.575  18.175   1.817
33276W        W94697  15.182  29.561   3.853
33277W        W94698  25.499  43.995  10.629
33278W        W94699   6.341  12.221   4.172
33279W        W94700  32.988  18.557   3.248
33280W        W94701  31.584  35.916   1.387
33281W        W94702   2.435  37.971   3.344
33282W        W94703  28.166  38.908   1.729
33283W        W94704   3.414  43.785   3.629
33284W        W94705  38.881  41.873  12.386
33285W        W94706  36.988  12.845  10.894
33286W        W94707  16.811  28.118  12.437
33287W        W94708  29.545  16.074   3.296
33288W        W94709  25.483  19.130   4.746
33289W        W94710  40.980  10.868  11.896
33290W        W94711  17.192  25.208   4.778
33291W        W94712  34.499   0.892   0.389
33292W        W94713  31.944  21.583   3.186
33293W        W94714   1.950  33.048   0.251
33294W        W94715   7.372   5.857  13.908
33295W        W94716   2.331  19.689  13.473
33296W        W94717  22.581   8.373   4.730
33297W        W94718  37.517  42.507   1.418
33298W        W94719   2.341  18.745   1.845
33299W        W94720   9.855  26.543   0.900
33300W        W94721  26.518  30.933  12.842
33301W        W94722  40.326  25.120  14.276
33302W        W94723  13.206   4.236  14.378
33303W        W94724  22.069  30.062  13.877
33304W        W94725  24.063   6.357   1.768
33305W        W94726  23.027  26.516  12.371
33306W        W94727   6.393  40.310   3.309
33307W        W94728   9.664  21.524   0.343
33308W        W94729  33.963  22.512  11.876
33309W        W94730  40.426   7.241   3.721
33310W        W94731  18.050  33.132   0.853
33311W        W94732   6.362   9.757  12.054
33312W        W94733  18.748   4.358   0.331
33313W        W94734  35.038  13.688  11.483
33314W        W94735  42.949   2.344  13.996
33315W        W94736   3.313   9.731   3.804
33316W        W94737  34.563   8.842  10.974
33317W        W94738  32.042   0.839  11.485
33318W        W94739  14.111  36.024   0.904
33319W        W94740  35.534  44.410  13.955
33320W        W94741  30.620  36.962  10.536
33321W        W94742  29.074  42.481  10.438
33322W        W94743  41.873  12.318  11.409
33323W        W94744   7.808  43.272   0.811
33324W        W94745  17.635  30.978  14.427
33325W        W94746  12.336  34.905  10.478
33326W        W94747   7.681   1.856  14.835
33327W        W94748  41.002   8.286   4.188
33328W        W94749  31.104  32.989   4.632
33329W        W94750   9.288  38.931  13.535
33330W        W94751  26.011  42.384  11.534
33331W        W94752   8.184  17.694  10.556
33332W        W94753  27.484  15.182   2.367
33333W        W94754  43.304  14.707  14.822
33334W        W94755   7.750  26.139   5.634
33335W        W94756  34.424  34.961  13.316
33336W        W94757  23.682  16.713   1.749
33337W        W94758   7.806  40.851   3.221
33338W        W94759  19.226  36.895  13.938
33339W        W94760  30.978  19.607  12.356
33340W        W94761   1.460  34.884  11.566
33341W        W94762  27.984  33.933  13.469
33342W        W94763  40.042  35.585  14.452
33343W        W94764  43.305  18.628  13.358
33344W        W94765   1.795  26.977   0.776
33345W        W94766  18.176   3.448   0.260
33346W        W94767  35.602  36.947  13.035
33347W        W94768  38.477   8.856  13.320
33348W        W94769  14.141   1.432  12.498
33349W        W94770   7.384   5.778   2.392
33350W        W94771  14.743  26.025   1.223
33351W        W94772   3.876  25.978   2.698
33352W        W94773  18.132  30.457  12.030
33353W        W94774  12.239  15.760  14.963
33354W        W94775  21.185  10.164  11.902
33355W        W94776  14.816  19.040  14.849
33356W        W94777  30.473  10.276   2.384
33357W        W94778  13.294  38.484   1.341
33358W        W94779  23.717   7.381   1.834
33359W        W94780  33.428  25.602   2.856
33360W        W94781  32.040   4.437  14.348
33361W        W94782  14.278  28.494  10.499
33362W        W94783   2.403  21.063  11.521
33363W        W94784  28.508  34.965   1.830
33364W        W94785  10.676  25.697  13.361
33365W        W94786  44.773  14.331  12.882
33366W        W94787  34.503  37.839  13.986
33367W        W94788  39.005   8.680   3.845
33368W        W94789   5.828  31.897   0.827
33369W        W94790  13.314  20.227   0.279
33370W        W94791  39.318   5.753   4.832
33371W        W94792  34.097  23.695  12.981
33372W        W94793  17.680  13.798  14.939
33373W        W94794  14.190   9.314   0.897
33374W        W94795  40.871  30.442  14.334
33375W        W94796   3.790  28.663  12.490
33376W        W94797  22.714  15.229   1.900
33377W        W94798  38.377  18.147  12.440
33378W        W94799  40.954  37.925  14.940
33379W        W94800  43.288  12.808   9.483
33380W        W94801  19.721  30.986  14.848
33381W        W94802  13.325  25.193  11.980
33382W        W94803  15.682  39.997   2.897
33383W        W94804  27.475  28.996  12.937
33384W        W94805  39.016  39.356   1.703
33385W        W94806  10.717   4.425   4.739
33386W        W94807  32.441   7.860   4.608
33387W        W94808  16.105  38.021   2.343
33388W        W94809  30.998  21.144  10.022
33389W        W94810  26.472  39.989  13.938
33390W        W94811  32.573  28.512   0.478
33391W        W94812  32.513  37.559  12.453
33392W        W94813  27.160  19.768  10.545
33393W        W94814  22.734  38.911  10.636
33394W        W94815   1.761  12.792  14.411
33395W        W94816  16.234  16.188  11.972
33396W        W94817  34.995  33.078  13.843
33397W        W94818  28.669  15.292  11.919
33398W        W94819  22.172  19.161   2.348
33399W        W94820   8.709   9.833   0.766
33400W        W94821  43.446  27.513  13.870
33401W        W94822  21.192  10.322   2.408
33402W        W94823  39.872  22.712   4.190
33403W        W94824   4.240  42.779  12.915
33404W        W94825   0.948  23.736  12.402
33405W        W94826  26.533  33.118  13.061
33406W        W94827  28.575  34.086   1.298
33407W        W94828  43.405   3.767   2.747
33408W        W94829   5.720  24.038   5.158
33409W        W94830  31.985  22.066  10.099
33410W        W94831   3.329  42.940   1.369
33411W        W94832  32.509  19.193   0.416
33412W        W94833  37.504   9.288  13.469
33413W        W94834  22.594  29.439  14.298
33414W        W94835  18.087   6.388  12.062
33415W        W94836   8.879  30.145   4.796
33416W        W94837   3.888  42.004  13.957
33417W        W94838  39.539   4.748  12.573
33418W        W94839   3.925  38.055  14.280
33419W        W94840  29.032  10.259  12.341
33420W        W94841  43.473  34.051   2.835
33421W        W94842  36.951  35.469   2.206
33422W        W94843  17.122  43.961  14.901
33423W        W94844  40.328  35.999  14.343
33424W        W94845  44.947  20.742  10.509
33425W        W94846   9.763  31.580   0.744
33426W        W94847  37.053  29.965   1.883
33427W        W94848   6.226  34.016   2.793
33428W        W94849  43.825  44.354  12.431
33429W        W94850  41.010   3.820  14.006
33430W        W94851  14.633   5.789   2.683
33431W        W94852  17.608  11.265  10.961
33432W        W94853  11.368  10.359   3.742
33433W        W94854  22.205  31.981  12.453
33434W        W94855  41.507   1.964   4.637
33435W        W94856  37.540   9.325  14.773
33436W        W94857  27.038  12.317  13.957
33437W        W94858  30.061  13.824   1.369
33438W        W94859  27.945  35.475  11.025
33439W        W94860  23.710  34.438  10.635
33440W        W94861  31.460  41.870   3.826
33441W        W94862  12.737  22.663  10.440
33442W        W94863  35.968   5.232   1.412
33443W        W94864  25.684  31.014  11.488
33444W        W94865  12.672   0.431  13.324
33445W        W94866  26.100  24.025  14.942
33446W        W94867   1.876   3.266   2.387
33447W        W94868   4.300  15.740  14.023
33448W        W94869   4.439  34.586  11.591
33449W        W94870  36.848  23.552  11.053
33450W        W94871  10.692  18.184  13.860
33451W        W94872  23.216  19.600   0.292
33452W        W94873  15.754   8.900  10.530
33453W        W94874  11.202  11.219  13.850
33454W        W94875  20.193   0.465  11.448
33455W        W94876  19.129   4.243   2.179
33456W        W94877  24.210  31.967   4.300
33457W        W94878  10.738  13.298   1.859
33458W        W94879  34.114  40.405   4.772
33459W        W94880  17.257  25.158   3.293
33460W        W94881  25.216  20.204   2.331
33461W        W94882  30.504   3.237  13.930
33462W        W94883  38.338  24.107  14.516
33463W        W94884   7.848  44.827  14.800
33464W        W94885  22.695  16.234   1.237
33465W        W94886   5.894  29.599  11.898
33466W        W94887  37.836  30.056   4.307
33467W        W94888  39.518  43.426  12.353
33468W        W94889  18.180  12.732  13.020
33469W        W94890  36.422   4.323  11.527
33470W        W94891  43.010  23.239   4.676
33471W        W94892  30.149  10.752  13.416
33472W        W94893  23.570  28.062   1.823
33473W        W94894  32.917  27.065   4.673
33474W        W94895  40.952  14.788   1.844
33475W        W94896   3.382  18.113  10.623
33476W        W94897  14.138  10.323   4.136
33477W        W94898  23.028  21.091   2.719
33478W        W94899  33.960  11.678   9.972
33479W        W94900   1.282  29.936   9.966
33480W        W94901   4.432  19.158  12.074
33481W        W94902   9.329  44.874  14.012
33482W        W94903  19.620   0.274   2.797
33483W        W94904   8.785   2.258  12.065
33484W        W94905  24.610   2.449   0.481
33485W        W94906  22.224   2.863   5.253
33486W        W94907  41.335   3.954   2.873
33487W        W94908  31.915  39.867  13.830
33488W        W94909   0.788  36.452   4.278
33489W        W94910  34.438  10.309  12.469
33490W        W94911   6.856  25.055   1.742
33491W        W94912  30.945  27.950  12.089
33492W        W94913  31.517  37.944  13.029
33493W        W94914  42.809  43.827   2.277
33494W        W94915   4.370  20.061  12.563
33495W        W94916  14.609   8.180   2.778
33496W        W94917  37.902  27.960   4.647
33497W        W94918  26.203  34.376   2.216
33498W        W94919   0.287   2.386   4.725
33499W        W94920   8.751   2.401  10.468
33500W        W94921  26.528   4.868  12.941
33501W        W94922   7.282  33.392  12.878
33502W        W94923  33.039  28.962   0.249
33503W        W94924  34.079  20.610   3.631
33504W        W94925   5.425  21.115  14.990
33505W        W94926  21.672   7.357  14.775
33506W        W94927  42.358  13.226  12.501
33507W        W94928  39.947  30.599  12.060
33508W        W94929  27.102  30.562  10.645
33509W        W94930  35.941  30.041   2.251
33510W        W94931  39.321  28.523   1.837
33511W        W94932  41.363  22.556  12.449
33512W        W94933  25.210   8.867  13.438
33513W        W94934  13.697  14.106   1.763
33514W        W94935   2.322  36.922   3.243
33515W        W94936  25.210  15.722   0.368
33516W        W94937  19.109  36.855   2.664
33517W        W94938  36.034   3.942  12.412
33518W        W94939  33.421  38.890   9.922
33519W        W94940   2.345  44.945  10.618
33520W        W94941  26.139  27.985  12.463
33521W        W94942  22.196   2.844   0.266
33522W        W94943  19.233  14.800  11.930
33523W        W94944  16.696  36.860   3.254
33524W        W94945  25.969   7.861  13.526
33525W        W94946   2.730  18.217   4.281
33526W        W94947  11.691  43.464   4.610
33527W        W94948  25.091  17.781   0.334
33528W        W94949  32.043  43.330   4.779
33529W        W94950  35.040  36.410   4.308
33530W        W94951  32.451  24.138   3.288
33531W        W94952  36.076  27.645   0.459
33532W        W94953  24.585  11.223   0.834
33533W        W94954  11.843   9.864   0.470
33534W        W94955   3.755  23.568   4.118
33535W        W94956  11.242  29.480  10.523
33536W        W94957  42.777  24.690  13.461
33537W        W94958  21.220  43.973   2.180
33538W        W94959  31.517  38.030  12.002
33539W        W94960   6.207  24.118   4.824
33540W        W94961  17.780  24.206  13.348
33541W        W94962  26.009  25.658   1.871
33542W        W94963  36.097   6.873  13.983
33543W        W94964   5.840  40.409   3.180
33544W        W94965  29.987  39.435  13.931
33545W        W94966  43.779  31.959   0.450
33546W        W94967   5.334  10.381   0.429
33547W        W94968   7.680  14.165  11.392
33548W        W94969  43.447  35.853   3.353
33549W        W94970  12.318  17.715  11.468
33550W        W94971   5.927  43.952   3.190
33551W        W94972  39.344  27.948  10.041
33552W        W94973   8.216  43.502  11.097
33553W        W94974  44.814   2.355  12.966
33554W        W94975  17.664  25.699  11.605
33555W        W94976  14.760  27.192   0.804
33556W        W94977  25.046   3.822  14.438
33557W        W94978   9.311  28.496  14.787
33558W        W94979  19.147   4.819  11.447
33559W        W94980  10.714  32.028  10.917
33560W        W94981  34.509  25.044   3.263
33561W        W94982  28.987  17.165   4.320
33562W        W94983   1.309  43.510  11.582
33563W        W94984  28.989  21.078  12.986
33564W        W94985  42.434  39.552  12.471
33565W        W94986  22.683  34.032  11.957
33566W        W94987  11.208   7.757  13.848
33567W        W94988  21.735   9.737  10.934
33568W        W94989  21.546   0.819   1.354
33569W        W94990  31.495  35.907   4.621
33570W        W94991   1.970  27.639  12.944
33571W        W94992   9.363  17.247   1.417
33572W        W94993  43.916  31.912   4.174
33573W        W94994  14.833   0.417   2.367
33574W        W94995  15.684  38.973   1.725
33575W        W94996  40.857  24.626  12.912
33576W        W94997  18.640   4.801   4.171
33577W        W94998   7.225  29.604  13.407
33578W        W94999   3.818   2.320   1.904
33579W        W95000  32.442  32.031   0.814
33580W        W95001  41.940  25.478   1.224
33581W        W95002   9.188  34.501  14.418
33582W        W95003  29.458  30.129  14.781
33583W        W95004  22.018  31.100   3.804
33584W        W95005  27.676  40.400  11.520
33585W        W95006  23.540  20.058  12.035
33586W        W95007  27.598  40.826   3.373
33587W        W95008  14.715  29.020   3.794
33588W        W95009  27.096  38.866  11.015
33589W        W95010   8.873  31.896   3.834
33590W        W95011  21.103   2.911  11.028
33591W        W95012  37.571  24.024  14.358
33592W        W95013  12.336  38.414  10.927
33593W        W95014   1.731  28.527   1.868
33594W        W95015  26.680  30.964   4.809
33595W        W95016  30.445  37.084   4.719
33596W        W95017   7.366  29.026   1.311
33597W        W95018  31.456  23.022   4.327
33598W        W95019   7.749  19.074  11.448
33599W        W95020   6.328  25.027  11.969
33600W        W95021  34.021   2.733  12.043
33601W        W95022  22.030   0.987  12.865
33602W        W95023  22.244  11.773  14.987
33603W        W95024  20.687  11.319  12.059
33604W        W95025  41.017   2.846  11.520
33605W        W95026  40.887  10.217  10.928
33606W        W95027  27.602  28.653  13.333
33607W        W95028  33.962   5.217  12.399
33608W        W95029  10.755  13.180   0.930
33609W        W95030  28.088  15.736  11.895
33610W        W95031  12.755   8.208   4.244
33611W        W95032  11.810  13.108   9.959
33612W        W95033  11.807  27.148  10.053
33613W        W95034   4.786  13.669   4.122
33614W        W95035  44.384  28.125  12.002
33615W        W95036  22.617  16.692  13.890
33616W        W95037  20.735  10.298   4.334
33617W        W95038  30.028  10.859  11.585
33618W        W95039  38.820   8.361   1.921
33619W        W95040   7.674   6.897   4.154
33620W        W95041  38.546  31.408  14.360
33621W        W95042   2.881  23.066   4.317
33622W        W95043   5.783  33.474  11.545
33623W        W95044  38.536  22.598  12.962
33624W        W95045   1.382  18.230   0.408
33625W        W95046  10.741  18.269   2.734
33626W        W95047   7.355  16.737   4.648
33627W        W95048   3.712   4.281   0.442
33628W        W95049   3.258   4.748  14.506
33629W        W95050  33.925  24.102   3.167
33630W        W95051  44.493   4.833   1.774
33631W        W95052  42.877  44.771   1.876
33632W        W95053   5.329   4.879  13.926
33633W        W95054  27.084  40.991  11.456
33634W        W95055  33.096  25.696   2.805
33635W        W95056  18.712  26.137  14.988
33636W        W95057   5.768  27.533   4.257
33637W        W95058  34.076  20.749  13.514
33638W        W95059  13.702  13.807  13.793
33639W        W95060  24.190  20.118   1.826
33640W        W95061  27.960   0.871  12.918
33641W        W95062  20.211   2.910   3.151
33642W        W95063   0.846  38.437   1.402
33643W        W95064  16.102  15.305   2.819
33644W        W95065   6.270   0.405  12.419
33645W        W95066  43.872  17.593   2.212
33646W        W95067  28.627  36.863  11.903
33647W        W95068  25.506  32.485   2.365
33648W        W95069  33.448  41.299   0.328
33649W        W95070  30.911  35.409  11.956
33650W        W95071  44.866   4.437   3.830
33651W        W95072  35.087  34.079  10.498
33652W        W95073  31.086  10.699  14.351
33653W        W95074  40.984  18.778   0.925
33654W        W95075  29.617  38.074  14.404
33655W        W95076  10.281  36.064   0.365
33656W        W95077  39.983   1.482   2.183
33657W        W95078   7.745  23.043   4.203
33658W        W95079  13.333  10.745  14.292
33659W        W95080  26.681  22.693   1.932
33660W        W95081  39.329  28.109   0.920
33661W        W95082  36.587  14.693  12.387
33662W        W95083  24.174  19.224  12.953
33663W        W95084   8.697  31.995   0.818
33664W        W95085  36.400  29.653  13.838
33665W        W95086  26.545  18.064  12.865
33666W        W95087  34.469  11.733   3.788
33667W        W95088  23.551   4.211  11.500
33668W        W95089  36.534  16.795  10.976
33669W        W95090   8.205   9.702  12.411
33670W        W95091   9.645  17.166  13.384
33671W        W95092  12.794  32.113  14.792
33672W        W95093   5.891   1.957   3.829
33673W        W95094  35.909  37.341   2.771
33674W        W95095  11.622  31.514   0.314
33675W        W95096   1.847  33.442   4.704
33676W        W95097  34.524   9.791  13.049
33677W        W95098   5.192  40.370  10.931
33678W        W95099  16.222  37.900  11.576
33679W        W95100   1.937  24.481   2.883
33680W        W95101   9.735  11.202  12.062
33681W        W95102   2.965  27.043  14.494
33682W        W95103  24.700  33.598  10.499
33683W        W95104  31.142  23.984   4.195
33684W        W95105  39.341  41.038   2.274
33685W        W95106   1.966   6.827  14.420
33686W        W95107   9.343  15.729  14.017
33687W        W95108   6.900  32.983  12.093
33688W        W95109  27.091  26.513  11.935
33689W        W95110  29.060  30.140  12.503
33690W        W95111  37.463  35.446   4.253
33691W        W95112   6.388   8.336  13.991
33692W        W95113  16.164  30.065   1.905
33693W        W95114   3.941  28.963  13.057
33694W        W95115  38.904  43.010   5.230
33695W        W95116   6.300  19.283   4.685
33696W        W95117  11.684   8.766   4.160
33697W        W95118  25.175  37.900  14.357
33698W        W95119  18.768   3.355   2.242
33699W        W95120  43.309  10.191   3.673
33700W        W95121  36.501  27.035  11.527
33701W        W95122  31.444  24.549  12.565
33702W        W95123  33.608  29.131  12.488
33703W        W95124  26.185   1.780   3.701
33704W        W95125  17.611  34.116   5.202
33705W        W95126  22.120  18.575   1.904
33706W        W95127  20.120  17.780  13.933
33707W        W95128  21.258  20.207   1.859
33708W        W95129   6.272   6.369   1.815
33709W        W95130   8.702  25.158   3.690
33710W        W95131  40.493   6.735  14.372
33711W        W95132  25.103  10.142  12.086
33712W        W95133   6.697  24.988   2.679
33713W        W95134   0.408  26.694   1.871
33714W        W95135  13.162  13.599  11.028
33715W        W95136  28.461   8.712  14.372
33716W        W95137  32.556  24.656  13.003
33717W        W95138  10.345  11.779  11.003
33718W        W95139  10.859   8.202  13.544
33719W        W95140  30.033  21.517  11.383
33720W        W95141   7.273  36.563  14.885
33721W        W95142   5.315   5.234  12.072
33722W        W95143  37.838  31.040  14.840
33723W        W95144  38.018  16.719   2.843
33724W        W95145  31.914  36.021  10.934
33725W        W95146  22.157  19.693  12.445
33726W        W95147   6.248  36.886   3.792
33727W        W95148  38.900  32.456  11.033
33728W        W95149  10.722  24.484  11.518
33729W        W95150  23.225  10.752   0.255
33730W        W95151  18.245   5.258   1.820
33731W        W95152  32.993  43.787  14.336
33732W        W95153  32.012  31.999   4.126
33733W        W95154  20.631  17.619   4.255
33734W        W95155  17.070  44.820   4.623
33735W        W95156  23.595  22.557  14.856
33736W        W95157  35.882  13.652  13.443
33737W        W95158  36.092  13.279   4.162
33738W        W95159  29.427  35.973   2.203
33739W        W95160   0.366  36.531   3.659
33740W        W95161  40.878  33.063  10.900
33741W        W95162  27.970  27.111  14.429
33742W        W95163  35.492  25.623  13.440
33743W        W95164  11.780  15.120   0.757
33744W        W95165  11.643  29.540   0.440
33745W        W95166  41.810  15.164  14.761
33746W        W95167  20.035   6.302  14.365
33747W        W95168  41.345  26.206  11.578
33748W        W95169  11.766   3.941  10.530
33749W        W95170  32.545  12.836  14.470
33750W        W95171  22.225  34.394   3.328
33751W        W95172   1.385  12.134   2.769
33752W        W95173  18.178  37.441   1.219
33753W        W95174  12.783  41.467   0.896
33754W        W95175  26.086  35.494  14.405
33755W        W95176   6.682  10.357   1.821
33756W        W95177  35.362  36.588  11.107
33757W        W95178   5.386  22.076   4.635
33758W        W95179  37.046  35.071  14.369
33759W        W95180  33.481  43.786  14.765
33760W        W95181   5.732   4.226  13.399
33761W        W95182   2.244  29.608   9.595
33762W        W95183  24.201  30.622   0.930
33763W        W95184  31.997   0.254   4.698
33764W        W95185  34.485  26.956   1.313
33765W        W95186  22.044  31.402   0.734
33766W        W95187   7.380  22.998   0.942
33767W        W95188  28.979  29.564  14.432
33768W        W95189   0.796  33.563  11.527
33769W        W95190  35.360  26.185  12.448
33770W        W95191   7.856  23.597  13.797
33771W        W95192  18.267  24.681   4.273
33772W        W95193  18.057   3.774  12.923
33773W        W95194   7.270  31.454  12.539
33774W        W95195  37.898  30.999  13.369
33775W        W95196  18.629  28.547   1.388
33776W        W95197   2.277  37.860  11.603
33777W        W95198  28.644  39.032  10.423
33778W        W95199  30.551   5.353   3.250
33779W        W95200  31.574  31.998  14.352
33780W        W95201  19.250  12.635   1.245
33781W        W95202  16.077  35.601  10.523
33782W        W95203  44.968  26.110   1.753
33783W        W95204  18.669  23.627   3.790
33784W        W95205  14.701  30.456   2.839
33785W        W95206   4.331  20.203  13.315
33786W        W95207  26.966  21.739  12.018
33787W        W95208  33.517  43.498  14.332
33788W        W95209  17.237  44.279  13.457
33789W        W95210  40.870  34.471  10.410
33790W        W95211  12.644  23.123  12.087
33791W        W95212  30.010  19.634  10.615
33792W        W95213   6.231  13.147   1.777
33793W        W95214  25.708  39.402   2.666
33794W        W95215  25.596  22.044  12.398
33795W        W95216  34.381  31.094  14.031
33796W        W95217  43.817  39.958   3.781
33797W        W95218  31.563   3.934   0.270
33798W        W95219  39.033  33.993   2.776
33799W        W95220  24.002  24.547   1.846
33800W        W95221  32.907  41.989   0.802
33801W        W95222   2.878  18.744   4.180
33802W        W95223   8.213  25.688   1.236
33803W        W95224  34.397  44.822  13.798
33804W        W95225   1.375  32.891   1.731
33805W        W95226  35.603   5.234   5.229
33806W        W95227  23.667  26.998  10.505
33807W        W95228  15.578   5.406   5.253
33808W        W95229  11.688   5.434   3.739
33809W        W95230   7.345   9.838   2.324
33810W        W95231  32.960  40.497  11.070
33811W        W95232  34.934  22.601   1.728
33812W        W95233   0.872   8.324  14.336
33813W        W95234  11.199  43.810  14.976
33814W        W95235  17.600   9.384   2.311
33815W        W95236  35.937  24.544   1.442
33816W        W95237  43.970  33.578  10.484
33817W        W95238  43.515  15.792   4.786
33818W        W95239  25.031  30.480   2.410
33819W        W95240   8.240  33.474  11.128
33820W        W95241  38.898  22.181   2.793
33821W        W95242  28.638  12.209   9.968
33822W        W95243   9.726  43.802   2.367
33823W        W95244  30.093  37.853   2.389
33824W        W95245  27.192  13.631   4.298
33825W        W95246  24.637  27.652  12.939
33826W        W95247  32.504  39.389   4.295
33827W        W95248  22.612   1.361   2.321
33828W        W95249  22.081   1.251   3.295
33829W        W95250   3.810  12.739  13.545
33830W        W95251  13.786  34.033   0.923
33831W        W95252  43.339  13.674   1.702
33832W        W95253   0.381   1.804   9.932
33833W        W95254  21.693   2.949  14.366
33834W        W95255   6.379  30.965   4.232
33835W        W95256  10.213  17.795  13.871
33836W        W95257  19.658  33.024   3.727
33837W        W95258  40.311  31.627  12.976
33838W        W95259  39.451  31.054  10.475
33839W        W95260  11.837  31.987  10.014
33840W        W95261  14.314  31.060   2.212
33841W        W95262  36.473  29.048   1.883
33842W        W95263   4.731  36.040   4.661
33843W        W95264   6.195  16.665  11.063
33844W        W95265  40.919  35.040  14.899
33845W        W95266  33.387  34.407   0.928
33846W        W95267  29.571   2.282  12.984
33847W        W95268  20.109  12.268   3.712
33848W        W95269  22.144  21.199  11.409
33849W        W95270  35.417  12.162   3.632
33850W        W95271   8.687  26.198   4.729
33851W        W95272  40.407  26.958  11.914
33852W        W95273  42.847  15.689   1.881
33853W        W95274  27.119  41.344   1.792
33854W        W95275  36.063   4.929   0.483
33855W        W95276  36.409  28.946  14.920
33856W        W95277   6.919  11.204   0.363
33857W        W95278  34.445   1.872   2.677
33858W        W95279  22.552   7.683  13.023
33859W        W95280  14.330   5.716   0.365
33860W        W95281   6.691  18.053   2.412
33861W        W95282  22.599  20.567  12.360
33862W        W95283  42.307  33.113  13.378
33863W        W95284  14.655  29.105   0.935
33864W        W95285  26.597  12.211   1.750
33865W        W95286   8.668  16.612  14.957
33866W        W95287  26.968  10.705  14.835
33867W        W95288  42.424  26.096  11.861
33868W        W95289  32.898  21.521  12.459
33869W        W95290  23.681  23.702   4.281
33870W        W95291   5.367   5.826   0.252
33871W        W95292   9.764   5.295   1.278
33872W        W95293  21.120  35.883   3.810
33873W        W95294  10.223   9.225  10.563
33874W        W95295   5.262  42.382  11.048
33875W        W95296  38.963  21.188   0.447
33876W        W95297  30.550  34.510   2.747
33877W        W95298   1.470  14.320   3.146
33878W        W95299  29.120   7.856   4.241
33879W        W95300  42.323  24.724   3.692
33880W        W95301  17.789  35.906  10.510
33881W        W95302  31.950  35.431   3.326
33882W        W95303   8.323  34.371  14.437
33883W        W95304  27.981  22.541   3.200
33884W        W95305  43.937  22.207  13.969
33885W        W95306  32.087  36.505  11.906
33886W        W95307  16.732  12.687  10.614
33887W        W95308  17.589   0.831  13.060
33888W        W95309   6.383  27.467   0.963
33889W        W95310  28.047  41.439  11.031
33890W        W95311   8.691   4.700  11.422
33891W        W95312  33.947   8.253   3.190
33892W        W95313  43.385  33.552   3.297
33893W        W95314  13.746   6.183  12.423
33894W        W95315  35.064  37.510  12.560
33895W        W95316  32.461  17.265   1.834
33896W        W95317   6.340   0.251   9.500
33897W        W95318   6.695   6.271   1.436
33898W        W95319  12.688  44.402   4.703
33899W        W95320  14.810  29.529  10.145
33900W        W95321   7.861   0.477   1.738
33901W        W95322  24.084   0.803  11.095
33902W        W95323  20.168  43.364   0.476
33903W        W95324   1.929   7.274   0.269
33904W        W95325  13.783  29.110   2.408
33905W        W95326   0.371  31.913   2.705
33906W        W95327  33.028  13.663  11.445
33907W        W95328  36.513   6.206   1.930
33908W        W95329  42.962   8.811   3.816
33909W        W95330  38.561  24.689  13.033
33910W        W95331  37.915  26.074   4.735
33911W        W95332  38.016   1.935  11.903
33912W        W95333   7.182  17.737   2.814
33913W        W95334  41.953  44.839   1.898
33914W        W95335  36.953  19.589  12.929
33915W        W95336  24.052   6.228   5.249
33916W        W95337  24.984  40.022  10.490
33917W        W95338  15.596  34.557  13.415
33918W        W95339   7.755   0.397   2.890
33919W        W95340   8.797   6.356  12.487
33920W        W95341  18.562  37.950  11.894
33921W        W95342   9.303  39.039   1.924
33922W        W95343  16.278  28.543   1.868
33923W        W95344  33.559  18.221  11.095
33924W        W95345  25.219  31.463  11.377
33925W        W95346  17.591  12.671  13.433
33926W        W95347  25.970   0.445   0.392
33927W        W95348   6.202   2.937  13.922
33928W        W95349  24.996   4.730   1.916
33929W        W95350   1.921  25.963  10.974
33930W        W95351  32.100  25.211  12.966
33931W        W95352  37.477  41.860   0.891
33932W        W95353  14.183  15.697  14.442
33933W        W95354  21.524   0.950   2.685
33934W        W95355  23.496  39.512  12.921
33935W        W95356  15.208  40.907  11.478
33936W        W95357  38.376  26.676   2.356
33937W        W95358  21.225  34.492   2.860
33938W        W95359   9.837  10.353   2.210
33939W        W95360  18.585   8.258   3.828
33940W        W95361  26.621   3.827  13.983
33941W        W95362   9.833  11.347   1.733
33942W        W95363  19.572   0.377  14.931
33943W        W95364   0.749  24.989  13.435
33944W        W95365  41.533  41.512  11.606
33945W        W95366   7.263  42.404   4.237
33946W        W95367  11.853  32.004   1.886
33947W        W95368  38.997  31.459  13.888
33948W        W95369   9.759  43.285  11.477
33949W        W95370  44.844  20.587  14.772
33950W        W95371  22.087  38.892   3.322
33951W        W95372  20.197  25.160   3.246
33952W        W95373   9.178  12.814  13.042
33953W        W95374  10.313  13.316   4.276
33954W        W95375  40.505  40.463   3.662
33955W        W95376   8.169  15.316  14.762
33956W        W95377  22.064  28.940  11.052
33957W        W95378  22.530  25.472   1.268
33958W        W95379   6.922  43.873   3.360
33959W        W95380   2.917   3.900   2.357
33960W        W95381  29.006  14.617   2.768
33961W        W95382  39.506   0.305   4.239
33962W        W95383  13.324  44.915   2.794
33963W        W95384   7.181   8.342  11.572
33964W        W95385  17.584  42.991  13.058
33965W        W95386  32.110   7.874  13.992
33966W        W95387  34.098  44.363  11.865
33967W        W95388  36.462  36.064   3.345
33968W        W95389  11.831  41.022  11.042
33969W        W95390  33.911   6.195  10.951
33970W        W95391   3.787  27.627   0.936
33971W        W95392  28.496  36.558   0.247
33972W        W95393  29.480  33.026  10.918
33973W        W95394   0.926  42.359  14.931
33974W        W95395  17.724  21.180  12.956
33975W        W95396  29.043  15.591   5.204
33976W        W95397  44.481  30.494  14.766
33977W        W95398  40.321  20.566   4.342
33978W        W95399  32.562   6.291   4.147
33979W        W95400  15.755  27.572   3.718
33980W        W95401   5.800  40.321   2.264
33981W        W95402  39.444  10.758   9.673
33982W        W95403   2.353  38.936  14.889
33983W        W95404  36.413  14.136  13.814
33984W        W95405  34.061  26.018  10.421
33985W        W95406  30.937   9.813  12.514
33986W        W95407  28.614  29.955   3.869
33987W        W95408  11.714  43.855  12.029
33988W        W95409  20.648  39.873   0.406
33989W        W95410  20.206   9.270  13.899
33990W        W95411  31.624  15.164  11.077
33991W        W95412  22.114   0.919  13.446
33992W        W95413  44.262  27.665   4.696
33993W        W95414  32.529  27.681   2.365
33994W        W95415  43.384  29.919  12.857
33995W        W95416  18.603  20.695   4.764
33996W        W95417   4.708   4.358   3.253
33997W        W95418  17.618  22.602   4.255
33998W        W95419  17.115  40.028   3.869
33999W        W95420  40.442  20.738  12.377
34000W        W95421  23.054  23.593  13.436
34001W        W95422  11.832  13.237  14.916
34002W        W95423  22.208  24.517  14.758
34003W        W95424  34.917  11.683   5.306
34004W        W95425   8.774   6.714   3.649
34005W        W95426  29.525  28.680   2.326
34006W        W95427  27.483   0.257  12.441
34007W        W95428  20.177  31.431   3.256
34008W        W95429  28.056  41.009  14.434
34009W        W95430  44.817  10.329   4.160
34010W        W95431  35.039  12.830   2.734
34011W        W95432   9.226  37.002  13.375
34012W        W95433  26.587  34.428   3.165
34013W        W95434   4.385  28.470   0.412
34014W        W95435  20.177  43.889   3.855
34015W        W95436  42.382   3.941  11.382
34016W        W95437  27.164  37.890   0.952
34017W        W95438  23.220  15.201  13.519
34018W        W95439   7.274  39.428  11.436
34019W        W95440  20.588  21.723   2.409
34020W        W95441  42.498  42.783   1.864
34021W        W95442  28.567  37.008   4.312
34022W        W95443   4.808  26.013   5.768
34023W        W95444  37.014  31.579  11.406
34024W        W95445  32.912  12.801   0.299
34025W        W95446  20.199   0.449   1.347
34026W        W95447   4.907  41.976   4.607
34027W        W95448   9.777   6.334   3.812
34028W        W95449  24.229  26.150  12.869
34029W        W95450  33.073   3.721   2.363
34030W        W95451  11.365   4.339   1.744
34031W        W95452  12.675  42.974   4.128
34032W        W95453   5.925   7.378   0.926
34033W        W95454  39.483  31.491  13.403
34034W        W95455  31.133  33.425  11.071
34035W        W95456  27.010  30.018  10.607
34036W        W95457   2.368  39.484   3.864
34037W        W95458  27.992  22.021  13.836
34038W        W95459  35.941  15.320   3.303
34039W        W95460  28.106  31.939   4.677
34040W        W95461  32.535  42.800   0.776
34041W        W95462  36.416  19.123   1.310
34042W        W95463  19.582   7.205  11.858
34043W        W95464  39.392  35.911   4.736
34044W        W95465   9.230  29.554  14.284
34045W        W95466   1.735   9.336   2.708
34046W        W95467  17.134  21.163  11.534
34047W        W95468   2.278  11.337  11.059
34048W        W95469   0.888  39.001   2.786
34049W        W95470  41.507  22.147   0.459
34050W        W95471  25.623   6.787  13.025
34051W        W95472  31.045  22.527   0.792
34052W        W95473   5.780   9.833   4.326
34053W        W95474  18.153  31.127  12.967
34054W        W95475  40.809  30.618  11.951
34055W        W95476  16.629  23.594   4.661
34056W        W95477  40.851  21.598   4.233
34057W        W95478   7.892   6.283   4.146
34058W        W95479  42.005   2.954  10.564
34059W        W95480  40.826   2.818  11.896
34060W        W95481  31.912   7.745   2.732
34061W        W95482  25.676  11.149  11.494
34062W        W95483  31.597  11.180   2.693
34063W        W95484  22.540   8.895  10.913
34064W        W95485   0.972   0.803   0.452
34065W        W95486  25.693  25.981  12.521
34066W        W95487   1.482  14.808  14.281
34067W        W95488  21.543  44.853  11.520
34068W        W95489  25.095   4.758   4.323
34069W        W95490  27.157   1.401  14.451
34070W        W95491  24.547  42.799  12.410
34071W        W95492  21.244  42.913  14.413
34072W        W95493  18.650  36.976   0.803
34073W        W95494   1.395  25.138   4.351
34074W        W95495  34.919  24.139  13.854
34075W        W95496   1.477  27.553   9.659
34076W        W95497  37.354   2.250  11.052
34077W        W95498   0.858  41.362  10.510
34078W        W95499  16.712  26.151  12.361
34079W        W95500  15.705  20.540  14.350
34080W        W95501   7.222   4.263  12.437
34081W        W95502   7.414  42.443  13.380
34082W        W95503   0.868   9.838  11.057
34083W        W95504   5.741  31.642   3.362
34084W        W95505  33.029  25.697   2.257
34085W        W95506  33.052   3.234  12.041
34086W        W95507  10.781   7.709   1.770
34087W        W95508  13.174   9.391  13.840
34088W        W95509  40.872  20.249   4.688
34089W        W95510  31.049  43.974  14.797
34090W        W95511  35.085  35.001   1.251
34091W        W95512  33.595  11.865  14.777
34092W        W95513   7.852  37.429   1.359
34093W        W95514  34.901  22.161  14.442
34094W        W95515  22.736  10.661   3.372
34095W        W95516  24.047  19.209  11.486
34096W        W95517  43.471  17.162   9.938
34097W        W95518  42.972   1.478  12.884
34098W        W95519  26.150  24.669  11.378
34099W        W95520   4.256  28.622   2.721
34100W        W95521  18.616  12.731   3.161
34101W        W95522  12.681  28.949   0.322
34102W        W95523  38.974   4.750  12.828
34103W        W95524   0.968   7.269   1.832
34104W        W95525  17.560  38.926   1.851
34105W        W95526  37.356  13.840  14.874
34106W        W95527   4.393  11.360  14.353
34107W        W95528  42.399  39.932  12.027
34108W        W95529   4.702   0.746   1.750
34109W        W95530  36.982   4.864  14.800
34110W        W95531  13.145  36.994   4.322
34111W        W95532  20.584   3.896  10.892
34112W        W95533   4.389  41.448   4.666
34113W        W95534   6.183   3.282  10.055
34114W        W95535  44.816   5.828  12.048
34115W        W95536  29.983  20.200  11.910
34116W        W95537  39.511  31.008  11.864
34117W        W95538  24.082  43.338  11.017
34118W        W95539  24.002   7.715  12.837
34119W        W95540   9.267  11.820  13.497
34120W        W95541  31.539  23.599   4.343
34121W        W95542  30.425  15.269   3.167
34122W        W95543  37.895  21.043  13.963
34123W        W95544  21.522  10.748   4.183
34124W        W95545   8.237   4.782   3.816
34125W        W95546  30.927  24.707   4.677
34126W        W95547  18.791   6.245   4.655
34127W        W95548  15.181  16.165   0.341
34128W        W95549  28.514  30.581   3.757
34129W        W95550  22.626   2.453   4.278
34130W        W95551  22.545  12.227  11.903
34131W        W95552   6.916  33.109   4.779
34132W        W95553  37.857  28.599   2.866
34133W        W95554  27.084  44.969   0.881
34134W        W95555  36.999  28.955   2.674
34135W        W95556  44.324  19.071   4.771
34136W        W95557  15.199  27.483  14.275
34137W        W95558  33.414  14.821  14.930
34138W        W95559  31.150  35.591  10.633
34139W        W95560  35.404  17.141  10.618
34140W        W95561   1.740   6.914   2.689
34141W        W95562  23.128  41.411   1.708
34142W        W95563  43.939  33.615   1.231
34143W        W95564  43.330  18.256   4.801
34144W        W95565  40.831  21.213   0.319
34145W        W95566  11.373  44.884   4.125
34146W        W95567  11.727  25.128   2.797
34147W        W95568  32.429  33.958  11.010
34148W        W95569  22.108  38.357  11.855
34149W        W95570  36.924   6.882   1.239
34150W        W95571  41.426  43.774   2.820
34151W        W95572  41.825  13.146  12.386
34152W        W95573  11.723  42.995   4.763
34153W        W95574  23.045  26.537   1.906
34154W        W95575  39.011  44.004  13.837
34155W        W95576  33.030  24.134   0.957
34156W        W95577  25.626  43.899   1.318
34157W        W95578   7.697  12.820   2.367
34158W        W95579  37.427   8.322   2.219
34159W        W95580  38.486  22.199  13.909
34160W        W95581  22.995  30.053  14.945
34161W        W95582   2.293  11.642   0.245
34162W        W95583  13.198  40.477  13.420
34163W        W95584  22.550   6.856  13.468
34164W        W95585  35.511  20.542   4.616
34165W        W95586  35.584   2.732  11.067
34166W        W95587  29.131  42.361  11.591
34167W        W95588  22.746  18.614   3.235
34168W        W95589  36.429  21.171  12.418
34169W        W95590  21.052   0.380   0.432
34170W        W95591  22.560   5.314   3.848
34171W        W95592  25.667  30.087   3.839
34172W        W95593  37.461  16.189  13.359
34173W        W95594  10.742  10.869  14.395
34174W        W95595  15.324   5.923  12.931
34175W        W95596  11.292  36.474   2.777
34176W        W95597  15.229   9.298  13.995
34177W        W95598  14.750   3.307  13.410
34178W        W95599  10.660  21.025   0.290
34179W        W95600  13.141  39.954  10.989
34180W        W95601  21.582  42.849   3.713
34181W        W95602  16.153  32.529  11.953
34182W        W95603  43.838  28.445  10.532
34183W        W95604  44.767  21.616  11.888
34184W        W95605  29.493  44.977   2.764
34185W        W95606   4.426  15.780  10.446
34186W        W95607  20.074  20.108   3.774
34187W        W95608  12.152   0.397  14.908
34188W        W95609   3.940   3.769  10.054
34189W        W95610  21.262   5.354  12.851
34190W        W95611  25.536  27.526  12.048
34191W        W95612  20.654  27.016  10.950
34192W        W95613   5.706  43.322  11.389
34193W        W95614  23.555  35.992  12.511
34194W        W95615  22.236  17.586   0.359
34195W        W95616  44.505  16.567   4.772
34196W        W95617  37.072  35.907  11.087
34197W        W95618  15.653  12.804   3.362
34198W        W95619  28.092  40.371   2.241
34199W        W95620  11.801   1.387   0.956
34200W        W95621  35.972  30.079  13.937
34201W        W95622  43.789  11.833   4.114
34202W        W95623   1.877  29.571   1.796
34203W        W95624   3.278  36.003  14.334
34204W        W95625  11.356  38.968   4.283
34205W        W95626   2.322   4.737   2.772
34206W        W95627  39.454  38.567   4.260
34207W        W95628  26.594   7.715   0.841
34208W        W95629  33.076  15.740   3.290
34209W        W95630  30.949   6.724  12.842
34210W        W95631  34.958  23.051  13.792
34211W        W95632  39.374  16.670   2.375
34212W        W95633  23.179  11.192  14.854
34213W        W95634  16.283  30.427   0.252
34214W        W95635  18.595  38.905   3.151
34215W        W95636  32.907   5.328  13.810
34216W        W95637  23.606  22.569  13.477
34217W        W95638   0.456  40.361  11.550
34218W        W95639  43.995  32.398   3.302
34219W        W95640   6.345   4.269   4.754
34220W        W95641  14.821   7.794   2.892
34221W        W95642   0.478  27.181  14.857
34222W        W95643   5.329   3.744   2.751
34223W        W95644  21.238  37.349   2.767
34224W        W95645  17.686   0.983   3.154
34225W        W95646  17.689   0.953  13.348
34226W        W95647  42.015  41.851   4.267
34227W        W95648  39.861  40.523   1.440
34228W        W95649  42.880   5.310   3.859
34229W        W95650  22.189  26.976  14.768
34230W        W95651  19.765  35.000   3.221
34231W        W95652  13.604  25.707   1.271
34232W        W95653  32.939  36.915   4.608
34233W        W95654  40.307  23.014   0.384
34234W        W95655   5.412  12.721   0.783
34235W        W95656  27.560  42.800   4.313
34236W        W95657  44.334  41.868   2.284
34237W        W95658   2.284  42.521   4.666
34238W        W95659  28.014  20.595   1.898
34239W        W95660  17.562  18.114   4.626
34240W        W95661  40.311  35.055  14.907
34241W        W95662  10.678  30.439   4.277
34242W        W95663   9.794  42.992  11.069
34243W        W95664  13.276  43.969  13.041
34244W        W95665  20.134  22.667  13.469
34245W        W95666   5.353  34.056   0.821
34246W        W95667  27.997  40.945  11.973
34247W        W95668  42.445  41.533   2.898
34248W        W95669  40.874  40.884  12.885
34249W        W95670  31.074  37.540  12.833
34250W        W95671   2.804  33.041   4.197
34251W        W95672  33.403  41.321   1.408
34252W        W95673   6.188  29.658  10.047
34253W        W95674  13.348   0.442   9.985
34254W        W95675  32.439  22.627   2.823
34255W        W95676  20.751  10.856  14.296
34256W        W95677  33.117  35.444   2.869
34257W        W95678  28.477  21.669   3.838
34258W        W95679  21.210  10.645   3.327
34259W        W95680  15.300  16.811  12.843
34260W        W95681  26.105  17.563   0.805
34261W        W95682  13.708  24.683   1.814
34262W        W95683  37.551   2.426   0.370
34263W        W95684  33.072  10.313   3.195
34264W        W95685   1.827  26.019   4.759
34265W        W95686  34.980   2.358  13.834
34266W        W95687  17.575   5.858   0.320
34267W        W95688   9.705  23.632   2.771
34268W        W95689  18.716  41.849  13.431
34269W        W95690   6.187  11.806   1.838
34270W        W95691  28.553  38.834  11.107
34271W        W95692  33.441  14.256   1.295
34272W        W95693   8.885  12.697   0.281
34273W        W95694  43.805   5.761   4.793
34274W        W95695  27.000  23.597   1.736
34275W        W95696   0.488  44.332   4.261
34276W        W95697   1.392  17.576  10.999
34277W        W95698   8.798  36.940   0.780
34278W        W95699  31.451  34.039   0.461
34279W        W95700  13.199  29.628  14.385
34280W        W95701  17.660  41.036  12.475
34281W        W95702  15.629  28.949   4.718
34282W        W95703  12.245  27.140   0.895
34283W        W95704  24.990   1.896  11.897
34284W        W95705  24.571  22.651  14.785
34285W        W95706  34.542   5.325   2.724
34286W        W95707   1.908  39.388   1.849
34287W        W95708   9.833  36.843  14.934
34288W        W95709   9.667  27.497   4.127
34289W        W95710  14.340  33.012  10.408
34290W        W95711  18.233  17.111   1.278
34291W        W95712  17.217  43.401   0.274
34292W        W95713   7.763  29.123   3.672
34293W        W95714  17.281  33.919  14.400
34294W        W95715  21.621  26.187  12.062
34295W        W95716  40.046  24.633   4.221
34296W        W95717  31.944   8.799   9.924
34297W        W95718  20.150  16.205  10.559
34298W        W95719  23.561  43.807  12.890
34299W        W95720   2.793  16.084  14.368
34300W        W95721  23.163  40.980   4.334
34301W        W95722  27.656  24.612  13.820
34302W        W95723  14.151  14.647  14.409
34303W        W95724  32.459  19.240  14.018
34304W        W95725  29.140  30.974  11.000
34305W        W95726   2.889  20.095  10.450
34306W        W95727   6.242  40.467  13.947
34307W        W95728  29.542  25.984  12.545
34308W        W95729   2.256   2.268  12.908
34309W        W95730  39.473  12.219   0.467
34310W        W95731   1.245  34.042  11.475
34311W        W95732  21.639   2.732   0.956
34312W        W95733  22.107  28.653   4.342
34313W        W95734   2.903  44.357  12.008
34314W        W95735   7.279  36.492  12.868
34315W        W95736  40.319  41.842   3.704
34316W        W95737  19.131  29.539  14.885
34317W        W95738  27.573   9.674  12.412
34318W        W95739   5.915  37.380  14.398
34319W        W95740  30.116  21.188   1.832
34320W        W95741  36.534  38.968   2.283
34321W        W95742  33.413   3.944  13.048
34322W        W95743  32.105  37.015   2.387
34323W        W95744  22.103  39.518   3.206
34324W        W95745   6.392  42.816  10.628
34325W        W95746  27.027  11.858   9.989
34326W        W95747  11.225  10.720  13.863
34327W        W95748  43.382   0.316  11.539
34328W        W95749  33.466  39.929   3.238
34329W        W95750  10.708  31.409   2.346
34330W        W95751   1.460  41.295   4.748
34331W        W95752   4.436  39.515  14.778
34332W        W95753   2.886   7.208   1.421
34333W        W95754  17.097  27.576  12.076
34334W        W95755  22.747  19.124  14.945
34335W        W95756  14.115  13.806   1.434
34336W        W95757  40.422  24.009  13.438
34337W        W95758   3.230  44.416   1.449
34338W        W95759  36.497  41.853   3.236
34339W        W95760  30.488  32.539   1.794
34340W        W95761  35.973  11.800   2.312
34341W        W95762  21.213  31.548   2.761
34342W        W95763  27.080  39.394  10.508
34343W        W95764  44.757  15.265   0.357
34344W        W95765   6.301  30.447   3.205
34345W        W95766   3.892  15.639   4.219
34346W        W95767  14.805  11.217   4.637
34347W        W95768   7.313  11.134  13.045
34348W        W95769   5.409  44.962  12.396
34349W        W95770  41.846  27.193   4.628
34350W        W95771   5.253  32.590  10.072
34351W        W95772  19.579  38.041   1.706
34352W        W95773  40.473  37.077  11.941
34353W        W95774  18.722  41.964   4.232
34354W        W95775  30.131  24.120  11.386
34355W        W95776   6.703  23.127   0.833
34356W        W95777   6.700  29.025   3.166
34357W        W95778  23.539   9.363   9.618
34358W        W95779   0.825  13.253  13.539
34359W        W95780  31.467  35.484   2.215
34360W        W95781   5.749  39.812  12.005
34361W        W95782  29.124  18.051  11.406
34362W        W95783  22.007  36.412  12.580
34363W        W95784   9.150   8.829   3.677
34364W        W95785  16.274  35.515  11.603
34365W        W95786   0.306   8.176  13.465
34366W        W95787  16.232  43.843  14.990
34367W        W95788   5.408   0.412  13.019
34368W        W95789  35.036  31.089  14.513
34369W        W95790  16.199  35.540  12.408
34370W        W95791   6.729  18.194  12.565
34371W        W95792   8.404  20.137  10.500
34372W        W95793  12.243  31.912   2.325
34373W        W95794  29.451   8.167   0.925
34374W        W95795  16.762  27.492   3.307
34375W        W95796  28.983   1.937   3.358
34376W        W95797  11.281  40.878   1.308
34377W        W95798  38.954   9.711   3.824
34378W        W95799  12.800  24.564  14.955
34379W        W95800   4.800  22.583   0.275
34380W        W95801  42.385  13.697   0.276
34381W        W95802  25.151  24.107   3.148
34382W        W95803  36.347   5.193   0.375
34383W        W95804  33.405   8.869  12.477
34384W        W95805  16.202  36.459   2.890
34385W        W95806   8.875   4.312   3.276
34386W        W95807  15.136  35.916   0.737
34387W        W95808  42.823  42.501   3.665
34388W        W95809  20.600   9.316  13.450
34389W        W95810  35.950  16.266   2.356
34390W        W95811   9.799  27.680   1.912
34391W        W95812   4.394  18.716   2.323
34392W        W95813  20.555  40.921   4.289
34393W        W95814  15.272   4.840   3.822
34394W        W95815  14.707  13.321  14.359
34395W        W95816  35.441  14.652   1.857
34396W        W95817  28.616  12.251   2.245
34397W        W95818  17.096  32.552   1.306
34398W        W95819  27.450   8.301   3.791
34399W        W95820  43.486  22.178   4.747
34400W        W95821  32.891  18.101   3.371
34401W        W95822  40.884  29.080   0.409
34402W        W95823  17.753  39.966   2.256
34403W        W95824   3.725  37.062   4.161
34404W        W95825  13.234  41.321   3.633
34405W        W95826  13.682  12.339   1.212
34406W        W95827  31.562   3.266  14.329
34407W        W95828  42.032   3.387   5.252
34408W        W95829  16.309  11.283   4.149
34409W        W95830  40.418   4.235   0.950
34410W        W95831  13.791   1.420   0.466
34411W        W95832   7.249  25.026  11.453
34412W        W95833  27.989  26.984   1.441
34413W        W95834   6.791  44.834  10.980
34414W        W95835  33.583  34.608   1.267
34415W        W95836  43.280  18.649   2.681
34416W        W95837  28.987   0.338   0.339
34417W        W95838  32.559  31.566  13.936
34418W        W95839   7.173   3.428   0.819
34419W        W95840  37.970   1.778   3.817
34420W        W95841  26.546  31.420   4.777
34421W        W95842  17.166  19.074   2.775
34422W        W95843  29.098  41.477   2.840
34423W        W95844  28.149  35.072   0.476
34424W        W95845  26.607  10.173  14.380
34425W        W95846  23.162  33.563   2.226
34426W        W95847  37.893  41.803  11.503
34427W        W95848  32.432   6.316   3.274
34428W        W95849  13.294  38.339  10.414
34429W        W95850  30.035  20.622   0.834
34430W        W95851  19.664  20.592  10.953
34431W        W95852  18.699  33.998   2.285
34432W        W95853  23.060  14.100  14.350
34433W        W95854   4.283  42.907  11.869
34434W        W95855   4.774  37.531   1.287
34435W        W95856  33.037   0.956  10.441
34436W        W95857  30.013  20.032  11.514
34437W        W95858  23.178   3.262   1.290
34438W        W95859  22.046  27.970  10.567
34439W        W95860  22.082  44.001  13.448
34440W        W95861  39.856  24.644  12.050
34441W        W95862   4.369  29.619  11.496
34442W        W95863  18.075  17.600  10.955
34443W        W95864   6.869   9.656   4.811
34444W        W95865  18.083  22.601  12.469
34445W        W95866   5.880  28.547  13.417
34446W        W95867  10.185  21.556  12.497
34447W        W95868  21.533  27.027   0.742
34448W        W95869  34.589  19.182  13.859
34449W        W95870   2.333  32.953   1.906
34450W        W95871  32.489   7.815   1.383
34451W        W95872  23.132  16.259   1.291
34452W        W95873  32.895  16.707  13.369
34453W        W95874   5.718  34.044   2.317
34454W        W95875  31.566  14.301   2.837
34455W        W95876   0.383   6.769  14.016
34456W        W95877  17.149  37.837  10.427
34457W        W95878  42.911  38.469  12.996
34458W        W95879  12.255  22.711  10.543
34459W        W95880  16.190  14.687   1.730
34460W        W95881   5.752  38.425   2.334
34461W        W95882   9.292  14.684  11.463
34462W        W95883   6.810  15.689  14.304
34463W        W95884   1.294  18.257   1.272
34464W        W95885  21.576  43.471  10.609
34465W        W95886  25.656  33.557   1.763
34466W        W95887   3.226  32.973  12.565
34467W        W95888   7.253  18.772  10.524
34468W        W95889  29.488  35.536  10.922
34469W        W95890  35.519  16.788   3.692
34470W        W95891   5.876   4.408  12.836
34471W        W95892  15.651  29.000   2.402
34472W        W95893   9.221  25.618  14.333
34473W        W95894  15.111  37.477  11.413
34474W        W95895  42.305  41.955  14.974
34475W        W95896  15.260  17.194   2.717
34476W        W95897  12.284   7.738  11.033
34477W        W95898  37.477   2.328  12.487
34478W        W95899  39.996  32.554  14.845
34479W        W95900  42.012  24.517   3.269
34480W        W95901  11.641  43.996  14.024
34481W        W95902  39.538  17.672   3.284
34482W        W95903  11.171  16.773  11.932
34483W        W95904  13.602  22.515  10.553
34484W        W95905  32.528  12.807   3.360
34485W        W95906  32.039  38.906   2.678
34486W        W95907  13.845  31.109   3.648
34487W        W95908  37.883  29.120   3.867
34488W        W95909  44.311  36.862  10.626
34489W        W95910  34.882  44.848   1.399
34490W        W95911   7.677  40.453   0.271
34491W        W95912  34.570   3.305   1.325
34492W        W95913   0.842  13.741  11.518
34493W        W95914  14.177  18.185   1.294
34494W        W95915  19.558  28.185  14.997
34495W        W95916  36.486   8.855   4.645
34496W        W95917  18.712   3.353  13.885
34497W        W95918  34.590  28.458   2.769
34498W        W95919   5.250  23.628   1.247
34499W        W95920  35.365  28.548  10.515
34500W        W95921  19.773  37.044  10.467
34501W        W95922   9.764   5.688   1.273
34502W        W95923  20.087   5.234   2.408
34503W        W95924  20.654   2.954   1.364
34504W        W95925  31.096  12.810  10.463
34505W        W95926  31.019  26.072  11.428
34506W        W95927   5.700  24.123  14.765
34507W        W95928   0.273  28.981  14.885
34508W        W95929  42.516  35.518  13.882
34509W        W95930  22.126  35.960   1.341
34510W        W95931   0.971  19.654  11.440
34511W        W95932  10.787  19.062   3.358
34512W        W95933  17.241  21.696   4.259
34513W        W95934   5.294  23.671  13.886
34514W        W95935  37.866  36.966   4.214
34515W        W95936  30.968   1.390   2.325
34516W        W95937  44.442  17.766   2.886
34517W        W95938   2.734  20.561   3.650
34518W        W95939   0.277  12.644  13.863
34519W        W95940  29.452  18.173  13.453
34520W        W95941  20.144  19.148   0.929
34521W        W95942  13.644  41.302  14.372
34522W        W95943  43.506  28.086  13.055
34523W        W95944   3.841   7.893  11.121
34524W        W95945  20.580  23.668  11.457
34525W        W95946  23.699  13.150   2.848
34526W        W95947  40.524   5.733   3.799
34527W        W95948  22.732   9.288   4.348
34528W        W95949  21.032   6.238  13.357
34529W        W95950   5.339  33.095   1.804
34530W        W95951   2.782  34.409  10.505
34531W        W95952  10.305   9.305   4.634
34532W        W95953  37.895  34.914  11.983
34533W        W95954  24.014  11.241  14.031
34534W        W95955  14.818  12.724  11.435
34535W        W95956  38.538  13.690   1.929
34536W        W95957  36.448   9.387  13.327
34537W        W95958  41.404  15.203   0.373
34538W        W95959  28.448  33.024   4.802
34539W        W95960  35.516  10.322  12.468
34540W        W95961  21.245  14.226  10.999
34541W        W95962  21.263  40.433  12.929
34542W        W95963  41.344  21.518   4.121
34543W        W95964   3.432  21.210  12.461
34544W        W95965  10.835  31.617   1.400
34545W        W95966  29.554   9.352  10.567
34546W        W95967   9.248  28.935   0.439
34547W        W95968  37.369  39.980  14.317
34548W        W95969   0.325  44.329   4.792
34549W        W95970   7.346  43.365   2.236
34550W        W95971  19.696  19.714   2.374
34551W        W95972  43.956  36.090   4.141
34552W        W95973  12.725  11.748   0.892
34553W        W95974  38.935  40.826  11.427
34554W        W95975  17.293  19.637  11.904
34555W        W95976  30.563  27.641   3.869
34556W        W95977  34.873  21.146   0.281
34557W        W95978  28.055  25.489  10.487
34558W        W95979  40.464  23.732   2.714
34559W        W95980  42.475   2.380  11.993
34560W        W95981  40.343  29.930   0.274
34561W        W95982  44.007   0.459  12.055
34562W        W95983  12.649  40.993   0.949
34563W        W95984  36.491  33.058  11.525
34564W        W95985  25.123  23.058  10.412
34565W        W95986  14.711  20.064   2.208
34566W        W95987  16.677  33.897  12.910
34567W        W95988  23.565  37.519  12.552
34568W        W95989  37.486  32.057   4.705
34569W        W95990   2.934   7.242   0.459
34570W        W95991  17.591  40.946  10.451
34571W        W95992  12.645  43.372   0.728
34572W        W95993  26.696   4.733   5.274
34573W        W95994  23.173  11.242  13.811
34574W        W95995  39.382   4.399   2.827
34575W        W95996  26.539  32.421   3.281
34576W        W95997  21.545  41.366  11.525
34577W        W95998   7.767  14.703  14.281
34578W        W95999  28.077   3.434  12.508
34579W        W96000  30.925   5.277  12.976
34580W        W96001  33.953  32.631  10.575
34581W        W96002  19.549  11.175   0.796
34582W        W96003  18.599  11.294  11.582
34583W        W96004   8.341  18.694  14.431
34584W        W96005  25.053  25.520  10.941
34585W        W96006  33.623  23.086  14.358
34586W        W96007  35.503  18.188  10.418
34587W        W96008  30.459  16.182  11.923
34588W        W96009  24.084  33.528   3.799
34589W        W96010  20.604  43.851  12.926
34590W        W96011  24.499  39.879  13.955
34591W        W96012  16.750  12.618   5.222
34592W        W96013  21.536  24.028   0.769
34593W        W96014  20.036  29.470  12.560
34594W        W96015   1.947  10.746   0.885
34595W        W96016  12.156  13.300   2.728
34596W        W96017  11.825  35.521   2.296
34597W        W96018  20.218  23.020   3.177
34598W        W96019  20.703   4.281   4.236
34599W        W96020   8.739  23.220  12.480
34600W        W96021  28.130  33.037   9.949
34601W        W96022  18.775   1.862  10.075
34602W        W96023  18.666  16.674   0.843
34603W        W96024  35.062  17.793  11.480
34604W        W96025  32.452  26.643   3.841
34605W        W96026  10.161  22.200  12.510
34606W        W96027   9.353  38.072  14.836
34607W        W96028  37.507  29.551  11.410
34608W        W96029  10.371  29.075  12.375
34609W        W96030  38.974   7.275   3.768
34610W        W96031  19.694  16.790  14.371
34611W        W96032  43.845  19.551  13.966
34612W        W96033  36.358   1.866  14.403
34613W        W96034   9.368  11.351  14.357
34614W        W96035  36.070   6.323   1.250
34615W        W96036  30.504   3.850  10.953
34616W        W96037  35.047   4.718   1.393
34617W        W96038   0.454   0.961  11.506
34618W        W96039  40.852   3.422   3.838
34619W        W96040  30.473  39.342  11.555
34620W        W96041  26.551   5.288  13.421
34621W        W96042  28.040  33.922  13.851
34622W        W96043  40.930  28.656   2.308
34623W        W96044  32.470  25.158  12.508
34624W        W96045   4.353  25.551   4.155
34625W        W96046  30.020  27.474  14.991
34626W        W96047   0.269  36.479  12.942
34627W        W96048  22.682  15.818  13.970
34628W        W96049  12.265  27.573   4.626
34629W        W96050  44.962   8.820  13.832
34630W        W96051  39.486  25.201   3.293
34631W        W96052  25.183  44.341  10.435
34632W        W96053   3.376   2.254   2.749
34633W        W96054  31.926  41.983  12.899
34634W        W96055   2.931  17.119   0.938
34635W        W96056  27.191  21.164  13.356
34636W        W96057  18.571  36.027  14.893
34637W        W96058  15.253  34.118   3.754
34638W        W96059   8.837  42.457   0.478
34639W        W96060  42.433  14.219  13.931
34640W        W96061   3.854  13.157  14.853
34641W        W96062  44.426  37.411  13.025
34642W        W96063   0.743  24.189   1.228
34643W        W96064  38.981  30.475  11.591
34644W        W96065  31.976  10.376  14.773
34645W        W96066  10.869   4.804   0.762
34646W        W96067  24.490  23.033   0.744
34647W        W96068  31.623  29.626  12.058
34648W        W96069  22.544  12.754   0.351
34649W        W96070  13.277  40.397   4.808
34650W        W96071  17.728  13.605  11.603
34651W        W96072  40.490  34.098  10.520
34652W        W96073  42.872  29.525  13.899
34653W        W96074  39.331  43.810  13.390
34654W        W96075  15.269  35.855  11.028
34655W        W96076   0.751  15.223  13.332
34656W        W96077  12.621   5.436   3.312
34657W        W96078  41.872  22.642  14.017
34658W        W96079  27.112   2.726   4.638
34659W        W96080   0.284  28.981  11.046
34660W        W96081   4.767  26.969   2.313
34661W        W96082   4.701  16.138  12.024
34662W        W96083  15.203  19.751  12.505
34663W        W96084  29.650  42.982  13.880
34664W        W96085  10.174  35.465  12.053
34665W        W96086   6.755   0.862   0.319
34666W        W96087   0.301   3.289   0.946
34667W        W96088  39.513  34.008  12.018
34668W        W96089  12.657  35.437   0.811
34669W        W96090  33.123  38.947  11.544
34670W        W96091  40.512   5.909   3.159
34671W        W96092  40.895  19.556  14.477
34672W        W96093  38.993  26.460   2.349
34673W        W96094  44.406   9.827   0.778
34674W        W96095  32.079  14.769   4.219
34675W        W96096   2.931  37.505  13.896
34676W        W96097   7.767  40.950   0.280
34677W        W96098  31.045  41.301  14.804
34678W        W96099  26.981  27.148   1.917
34679W        W96100  36.397   1.748   3.806
34680W        W96101  11.767  28.947  13.463
34681W        W96102  40.973  29.006  14.837
34682W        W96103   5.347  32.480  12.392
34683W        W96104   6.366  42.427  12.855
34684W        W96105  18.132   1.333   2.353
34685W        W96106  25.088  14.143  12.853
34686W        W96107   0.297  25.161   0.751
34687W        W96108  23.608  29.048  13.919
34688W        W96109  25.165   4.217  14.322
34689W        W96110   3.422  39.942   4.324
34690W        W96111  39.042   9.787  11.054
34691W        W96112   0.466  12.816   1.858
34692W        W96113   3.320  28.946  14.012
34693W        W96114  32.078   0.980   1.742
34694W        W96115  15.093  34.121   2.698
34695W        W96116  41.037  11.323  11.408
34696W        W96117  27.013  30.944   2.748
34697W        W96118  12.322  39.513  13.528
34698W        W96119  28.030  31.142  10.070
34699W        W96120  37.945   1.476  13.308
34700W        W96121  38.554  35.885   1.346
34701W        W96122  22.023   8.249  14.340
34702W        W96123  34.107  23.028   4.276
34703W        W96124  13.105  40.485   2.388
34704W        W96125   1.943   9.286  10.613
34705W        W96126  17.738  10.776  11.870
34706W        W96127  17.687  35.393  14.320
34707W        W96128  37.356  32.629   0.263
34708W        W96129  17.074  22.206  13.364
34709W        W96130  11.852  27.149  11.480
34710W        W96131  20.044  37.915  12.992
34711W        W96132  18.745  27.135  10.526
34712W        W96133  29.501  34.402   1.224
34713W        W96134   5.750  13.290   3.831
34714W        W96135   3.729  40.449  10.012
34715W        W96136  19.196  37.034   0.938
34716W        W96137  38.870  30.519  14.801
34717W        W96138  40.389  16.620  10.446
34718W        W96139   1.877  21.583   3.688
34719W        W96140  21.596  30.910   4.298
34720W        W96141   7.835  35.561   3.355
34721W        W96142  21.586  25.077  14.474
34722W        W96143  34.071  29.141  10.545
34723W        W96144  27.461   6.326   0.476
34724W        W96145   4.219  44.888  11.877
34725W        W96146  21.548  21.209  10.623
34726W        W96147  25.205  14.232   2.273
34727W        W96148  23.562   3.925  11.470
34728W        W96149  17.705   1.868   3.232
34729W        W96150  12.821  32.575  13.884
34730W        W96151  10.248  44.463  14.854
34731W        W96152  13.271  39.348  14.854
34732W        W96153  15.133  41.419   1.798
34733W        W96154   0.898  33.876   0.484
34734W        W96155  29.521   8.805   4.611
34735W        W96156  14.620  16.158  11.427
34736W        W96157  21.199   2.295   2.676
34737W        W96158  22.611  20.038   0.321
34738W        W96159   7.838  28.164   3.177
34739W        W96160   4.928  18.740   2.197
34740W        W96161  23.734  29.976  11.577
34741W        W96162   7.183  22.515  14.028
34742W        W96163   3.749  40.454  12.393
34743W        W96164  35.920   5.222   9.449
34744W        W96165   2.764   0.813   2.863
34745W        W96166  43.439   0.858  10.618
34746W        W96167   0.788   2.228   4.340
34747W        W96168  38.350  44.891  14.835
34748W        W96169  44.420  40.904   1.891
34749W        W96170  22.528  15.806  11.549
34750W        W96171  27.979  17.783   2.743
34751W        W96172  43.930  25.636  11.918
34752W        W96173   7.341  34.874  14.505
34753W        W96174  19.281  18.756  11.593
34754W        W96175  20.592   5.896  11.372
34755W        W96176  31.947  11.241  13.466
34756W        W96177  13.184   8.372   0.447
34757W        W96178   5.859  40.840   0.819
34758W        W96179  32.582   7.679  11.513
34759W        W96180  22.188  32.109   3.263
34760W        W96181   0.392  35.086  11.008
34761W        W96182  15.746  34.440   4.152
34762W        W96183  27.963  13.153   4.121
34763W        W96184  34.603  43.345  11.374
34764W        W96185  13.711   7.763   4.253
34765W        W96186   2.406  33.507   5.681
34766W        W96187  28.158  37.033  12.456
34767W        W96188  12.187  24.053   2.800
34768W        W96189  36.399   2.735   3.231
34769W        W96190  18.071  38.926   0.934
34770W        W96191  40.903  34.491   2.308
34771W        W96192   4.826  34.571   2.334
34772W        W96193  23.021   4.374   5.298
34773W        W96194   3.768  31.401  13.376
34774W        W96195  40.515  33.093   1.260
34775W        W96196  28.121   8.357  12.424
34776W        W96197  37.944  26.191  11.420
34777W        W96198  40.847  32.087  10.514
34778W        W96199   8.715   3.886   0.262
34779W        W96200  24.160  28.973  11.084
34780W        W96201  18.270  36.951  12.876
34781W        W96202  15.803   4.820   1.730
34782W        W96203  15.673  41.922  11.007
34783W        W96204  17.619  34.063   0.891
34784W        W96205  31.079   7.803  10.617
34785W        W96206  32.520  13.220  12.835
34786W        W96207  19.572  20.241  12.844
34787W        W96208  36.388  43.976  14.275
34788W        W96209  42.820  18.756  13.971
34789W        W96210   6.316  23.152  13.899
34790W        W96211  40.369  19.085  10.510
34791W        W96212  26.030  15.249  11.089
34792W        W96213  16.588  24.208  10.614
34793W        W96214  18.652  18.257   2.391
34794W        W96215  34.999  29.544  13.333
34795W        W96216  23.635  23.602   2.326
34796W        W96217  23.144  34.493  10.591
34797W        W96218  31.021  30.982   0.481
34798W        W96219   2.262  36.034   4.353
34799W        W96220  43.309  14.610   3.231
34800W        W96221  18.063  19.642   2.855
34801W        W96222  29.050  24.191  11.459
34802W        W96223  25.542   0.961   3.747
34803W        W96224  37.547  36.894  10.550
34804W        W96225   8.277  35.929   1.821
34805W        W96226  20.097  30.003  10.973
34806W        W96227   9.826  43.401   4.127
34807W        W96228   7.860  29.670  12.957
34808W        W96229  29.660   3.418   3.194
34809W        W96230  35.536   4.249   1.722
34810W        W96231  39.335  10.173  12.998
34811W        W96232  35.522   4.903   1.706
34812W        W96233   3.430   3.942   3.726
34813W        W96234   0.388  16.764  11.941
34814W        W96235  36.551  26.513  13.355
34815W        W96236  29.589  24.185  10.631
34816W        W96237  10.162  24.564  10.413
34817W        W96238  32.406  15.134   2.820
34818W        W96239  40.878  29.142  10.621
34819W        W96240  29.931   9.801  12.503
34820W        W96241  23.069  22.711   0.931
34821W        W96242  29.450  12.773   2.405
34822W        W96243  21.024  30.106  12.376
34823W        W96244  20.149  12.260   1.815
34824W        W96245  10.274  22.709   5.113
34825W        W96246  43.009  30.462   0.441
34826W        W96247   1.745  37.456   0.860
34827W        W96248  14.606  18.558  14.492
34828W        W96249  26.020  41.029  13.352
34829W        W96250  18.268  40.803   3.714
34830W        W96251  36.853   8.197  13.914
34831W        W96252  36.018  22.537   1.795
34832W        W96253  35.438  34.995  12.907
34833W        W96254  11.815  28.478   4.752
34834W        W96255  37.420  13.137  11.040
34835W        W96256  11.204   9.803   1.351
34836W        W96257   3.800  20.598   2.309
34837W        W96258  14.809  15.175  14.001
34838W        W96259  24.011   0.256   2.864
34839W        W96260  30.036  37.046   0.328
34840W        W96261  43.363  40.932  14.342
34841W        W96262  12.157  19.617   0.458
34842W        W96263  31.512  42.293  14.850
34843W        W96264  42.950   2.795  13.490
34844W        W96265   2.393  18.090   4.292
34845W        W96266  43.349  24.200  11.491
34846W        W96267  26.953   9.199   2.892
34847W        W96268  18.193  28.484   3.853
34848W        W96269  33.389  34.960  11.401
34849W        W96270   3.225  40.872  10.457
34850W        W96271   4.708  12.719  11.603
34851W        W96272  39.458  29.497  12.520
34852W        W96273   1.768  43.842   0.740
34853W        W96274  38.479  31.128  12.886
34854W        W96275  36.941  11.782  10.449
34855W        W96276   6.185  17.062  10.111
34856W        W96277  10.744   3.713  13.414
34857W        W96278  40.846   1.387  14.904
34858W        W96279  23.077  32.086   1.712
34859W        W96280  23.723   1.847   2.197
34860W        W96281  33.620  19.115   2.797
34861W        W96282  12.738  32.097   1.410
34862W        W96283  30.530  39.551   4.664
34863W        W96284   3.225  37.077  13.340
34864W        W96285  29.920  20.194   2.347
34865W        W96286  44.009  23.066   1.840
34866W        W96287   2.751  39.881   2.387
34867W        W96288  31.426  13.716  13.882
34868W        W96289   1.317   7.305  11.459
34869W        W96290  21.692  40.447  12.980
34870W        W96291   1.415  10.369  11.513
34871W        W96292  37.529  43.477   1.275
34872W        W96293  29.959  37.471  14.951
34873W        W96294   9.699  29.656   0.846
34874W        W96295   9.314   5.791  13.961
34875W        W96296  39.457   8.339   1.855
34876W        W96297   9.366  17.227  13.463
34877W        W96298  20.637  17.721  12.493
34878W        W96299  43.425  35.890   2.197
34879W        W96300  26.034  29.033   0.395
34880W        W96301  20.699  41.462   2.333
34881W        W96302   6.703  29.038   4.256
34882W        W96303   2.808  24.582   3.702
34883W        W96304  28.978  22.240   4.709
34884W        W96305  26.534  14.632  11.506
34885W        W96306  16.255  43.902  12.833
34886W        W96307  25.981   8.889  13.793
34887W        W96308   6.228  20.546   3.175
34888W        W96309  20.071  24.652  13.922
34889W        W96310  30.132   4.290   3.265
34890W        W96311  16.729  24.633   3.835
34891W        W96312  21.222   9.839  13.387
34892W        W96313   0.425  30.540  13.028
34893W        W96314  10.148  13.729   2.261
34894W        W96315  32.987  31.908  10.615
34895W        W96316  38.915  28.458   0.746
34896W        W96317  19.691  42.365   0.375
34897W        W96318  14.826  36.936  12.928
34898W        W96319   5.707  28.134   1.885
34899W        W96320  31.066  34.116   1.899
34900W        W96321  12.231  22.583   3.733
34901W        W96322   6.741   7.412   4.314
34902W        W96323  23.654  12.332  14.377
34903W        W96324  20.759  40.408   4.233
34904W        W96325  19.143  35.087   3.362
34905W        W96326  26.480  16.594  12.387
34906W        W96327  26.166  22.026   0.459
34907W        W96328  23.671  17.604  13.437
34908W        W96329  16.233  38.542  10.905
34909W        W96330  28.167  18.095  11.021
34910W        W96331  41.464   7.824  14.777
34911W        W96332  26.029  21.648   2.340
34912W        W96333  30.944  25.641   2.262
34913W        W96334  24.560   1.440   2.815
34914W        W96335   2.940  42.350   0.810
34915W        W96336  35.501  23.002  12.046
34916W        W96337  25.694  12.650   1.351
34917W        W96338  21.192  24.072  10.988
34918W        W96339  37.890   3.787   0.270
34919W        W96340   1.326   8.780   2.698
34920W        W96341  16.802  27.587   1.426
34921W        W96342  14.760  42.950  13.824
34922W        W96343  15.708  22.573  11.473
34923W        W96344   5.859  12.857  14.429
34924W        W96345  44.330  40.408  10.908
34925W        W96346  42.932   5.721   0.899
34926W        W96347  26.017  35.017   4.646
34927W        W96348   6.855  37.474  14.868
34928W        W96349  21.098  18.636  13.385
34929W        W96350   6.390  40.002   1.375
34930W        W96351  33.995  13.214   3.245
34931W        W96352   2.399  33.426  13.012
34932W        W96353  32.047  17.188   3.761
34933W        W96354  37.037  17.679   4.332
34934W        W96355  37.058  19.659  12.080
34935W        W96356  20.747  36.918   4.734
34936W        W96357  15.260   6.328   2.306
34937W        W96358  37.561  14.726   2.863
34938W        W96359  31.493  30.127  12.829
34939W        W96360  32.631  13.757  13.010
34940W        W96361  40.519   5.785   4.716
34941W        W96362   6.688  29.660   2.218
34942W        W96363  12.271  41.816  11.035
34943W        W96364  30.454   1.801   3.220
34944W        W96365  22.664  21.699  14.498
34945W        W96366  18.548  25.977   4.755
34946W        W96367  25.215   9.669  13.023
34947W        W96368  36.583   7.291   1.323
34948W        W96369  16.075   8.704   0.920
34949W        W96370   7.906  31.507  13.323
34950W        W96371  12.250  29.515  10.408
34951W        W96372  24.130  13.206   3.659
34952W        W96373   3.291  22.186  14.408
34953W        W96374  39.542  40.426  10.915
34954W        W96375  14.696  44.923   2.719
34955W        W96376   7.295   6.215   2.867
34956W        W96377  35.398  36.434   1.295
34957W        W96378   1.244  43.003  12.923
34958W        W96379  11.284  14.222  10.909
34959W        W96380  15.668  39.465   3.278
34960W        W96381  34.114  39.041  11.934
34961W        W96382   1.975  41.311  14.356
34962W        W96383  43.349   3.311   3.267
34963W        W96384  13.186   5.816   1.287
34964W        W96385  19.635  14.236  12.025
34965W        W96386  13.703  37.012  14.344
34966W        W96387  28.012  22.619   3.645
34967W        W96388  41.440  34.005  13.047
34968W        W96389  33.525   5.318   1.727
34969W        W96390   8.751   3.369   3.846
34970W        W96391  33.433  38.882   4.640
34971W        W96392   6.249  10.696  11.082
34972W        W96393  13.774  21.727   1.892
34973W        W96394  21.736   9.866   2.181
34974W        W96395  24.218   4.377   3.789
34975W        W96396  14.797  21.036   2.224
34976W        W96397  42.381  19.051   1.934
34977W        W96398  28.435  28.047  12.890
34978W        W96399   1.276  17.193  13.890
34979W        W96400  19.699  32.102   5.189
34980W        W96401  14.662   3.939  12.450
34981W        W96402   3.761  38.506  11.429
34982W        W96403   4.352  13.281  11.492
34983W        W96404  14.790  32.061   3.861
34984W        W96405   0.369   1.898   5.241
34985W        W96406  16.313  19.099  10.536
34986W        W96407  20.714  29.987  11.067
34987W        W96408  40.366  35.400   1.899
34988W        W96409  12.684  33.540  11.371
34989W        W96410  30.476  33.043   1.895
34990W        W96411  34.550  29.643  14.417
34991W        W96412  40.837   3.920  10.492
34992W        W96413  43.500  23.628   4.641
34993W        W96414   1.846  27.648   1.257
34994W        W96415  37.871  44.429  11.956
34995W        W96416  37.932   4.311  11.596
34996W        W96417  43.882  21.179  10.443
34997W        W96418  19.091  18.611  10.002
34998W        W96419  43.450  33.429  12.452
34999W        W96420  40.463  19.089   2.342
35000W        W96421   2.246  15.669  13.840
35001W        W96422  36.868  20.526  13.543
35002W        W96423  25.059  30.421   4.632
35003W        W96424  20.548  31.631  12.349
35004W        W96425  20.037  20.256   1.256
35005W        W96426   3.747  22.692  11.938
35006W        W96427   1.884  13.302   4.261
35007W        W96428  38.356  17.615   0.481
35008W        W96429   6.225   7.307  10.053
35009W        W96430  19.766  23.067   1.224
35010W        W96431  20.149  19.739   0.832
35011W        W96432   3.283  36.472  12.504
35012W        W96433  27.033  40.412   2.733
35013W        W96434  16.595  32.128   1.250
35014W        W96435   7.179   7.309   0.773
35015W        W96436  12.316  18.788  12.392
35016W        W96437  44.353  24.510  12.924
35017W        W96438   2.772  32.401   2.741
35018W        W96439  11.762  18.609   3.832
35019W        W96440  33.446  29.140   9.963
35020W        W96441  11.351  37.353   1.315
35021W        W96442  37.351   6.710  14.866
35022W        W96443  14.210  30.495   3.759
35023W        W96444   0.476   6.222  14.000
35024W        W96445  18.579  44.463  12.898
35025W        W96446  11.336  15.276   0.891
35026W        W96447  35.554  18.265  12.528
35027W        W96448   3.715  39.459   0.332
35028W        W96449   5.860  35.011  13.911
35029W        W96450   2.844  10.296   1.354
35030W        W96451  33.473  17.599  11.078
35031W        W96452  31.621  26.145   0.292
35032W        W96453   1.427  22.225  11.545
35033W        W96454  39.031  18.227  12.488
35034W        W96455  42.908  22.193   2.206
35035W        W96456  32.995  35.450  13.857
35036W        W96457   9.702  43.775  13.314
35037W        W96458  21.203  12.662  12.004
35038W        W96459   1.758   0.406   1.709
35039W        W96460   7.755  11.725  14.339
35040W        W96461  26.491   1.757   1.848
35041W        W96462  16.811  44.342  11.968
35042W        W96463   3.767  12.673  14.839
35043W        W96464  27.479  27.660   3.824
35044W        W96465  37.460  28.099  10.988
35045W        W96466  15.175   7.224  13.429
35046W        W96467  21.113  23.237  14.452
35047W        W96468  21.161  22.049   2.283
35048W        W96469  18.694  27.621  12.969
35049W        W96470  30.991  32.423  14.776
35050W        W96471  36.961  17.173  14.802
35051W        W96472   8.378  38.028  11.102
35052W        W96473  37.870  43.975  13.473
35053W        W96474  32.057  43.288   4.323
35054W        W96475   9.351  43.434  13.948
35055W        W96476  26.109  41.413  12.095
35056W        W96477  35.434   8.815   2.706
35057W        W96478  30.552  17.697   2.892
35058W        W96479  32.940  15.203   4.739
35059W        W96480   7.329  44.444  10.914
35060W        W96481  20.688   4.345   0.915
35061W        W96482  38.336   4.842  12.473
35062W        W96483  41.793   9.175  13.056
35063W        W96484  28.161  19.165   3.826
35064W        W96485  25.706   8.234   0.414
35065W        W96486   4.226  17.749  11.021
35066W        W96487  19.261  24.056   0.387
35067W        W96488   3.296  44.823   4.735
35068W        W96489  32.432  32.934   3.702
35069W        W96490  44.953  23.625   2.811
35070W        W96491  20.661  16.150  13.875
35071W        W96492  21.521  15.297   3.214
35072W        W96493  17.225   4.918   5.311
35073W        W96494  21.666   6.784   9.992
35074W        W96495   8.277  44.481  14.839
35075W        W96496  34.995   8.230  13.458
35076W        W96497  22.248  36.976   0.303
35077W        W96498  28.998  25.962   3.670
35078W        W96499  38.336   7.332   3.182
35079W        W96500  43.456  44.329   3.855
35080W        W96501  41.030   0.429  12.504
35081W        W96502  42.461   0.307   1.841
35082W        W96503  37.965  30.481   4.278
35083W        W96504  23.617   8.399  14.516
35084W        W96505   5.383  28.047   4.684
35085W        W96506  19.588  37.842  11.493
35086W        W96507   8.290  35.096   2.695
35087W        W96508  10.701  31.509   3.190
35088W        W96509  15.595  32.550   0.793
35089W        W96510  30.961  39.868  11.413
35090W        W96511   3.850  30.599  11.121
35091W        W96512  38.904  31.422  12.559
35092W        W96513  41.026  29.615  14.850
35093W        W96514  19.254  18.177  12.511
35094W        W96515  43.804  31.549  13.852
35095W        W96516   8.754  10.637  14.400
35096W        W96517  40.335  13.136  13.877
35097W        W96518  13.320  43.846  14.820
35098W        W96519  30.957  28.181   1.284
35099W        W96520  29.571  14.610   1.436
35100W        W96521  40.809  40.535   3.225
35101W        W96522  17.208  21.624  13.056
35102W        W96523  43.825  19.183   0.938
35103W        W96524  38.841   4.921  11.976
35104W        W96525  38.458  20.638  13.489
35105W        W96526  26.610  37.910   2.697
35106W        W96527  22.537  24.008  14.866
35107W        W96528  12.326  20.671   1.814
35108W        W96529  14.331  11.207  14.277
35109W        W96530  37.365  41.027   2.328
35110W        W96531  39.385   2.448   1.916
35111W        W96532   4.740  26.486   1.838
35112W        W96533   5.689  16.106   2.695
35113W        W96534   3.352   7.198  12.906
35114W        W96535  28.156   1.459   2.317
35115W        W96536  25.602  13.722   1.251
35116W        W96537   4.321   0.953  14.386
35117W        W96538  13.143  27.948  13.915
35118W        W96539  17.656  44.410  13.979
35119W        W96540  16.090   0.341  12.373
35120W        W96541  30.519  23.687   1.332
35121W        W96542  25.492  10.303   5.162
35122W        W96543  18.271  17.796   1.769
35123W        W96544  13.175  15.631  12.986
35124W        W96545  21.092  19.207   2.291
35125W        W96546   6.704   1.828   0.932
35126W        W96547   2.277  14.304  10.925
35127W        W96548  18.740  16.678   5.083
35128W        W96549   3.809  42.306  11.557
35129W        W96550  37.453   4.316   4.114
35130W        W96551  27.511  20.214  13.367
35131W        W96552  40.427  33.047   1.751
35132W        W96553  29.143  25.513   0.278
35133W        W96554  33.113  17.234  11.569
35134W        W96555   4.918  43.298   3.240
35135W        W96556   7.387  18.264  12.882
35136W        W96557  28.104  30.502   0.857
35137W        W96558  10.325  11.299   9.994
35138W        W96559  21.739  35.916   3.842
35139W        W96560  27.106  31.982  14.801
35140W        W96561  19.751  40.450   3.818
35141W        W96562  43.438  16.305  13.988
35142W        W96563  18.748  34.010  12.490
35143W        W96564  37.453   3.828  14.980
35144W        W96565  11.733  16.123   4.195
35145W        W96566  14.239  34.446   0.248
35146W        W96567  19.607  11.301   2.349
35147W        W96568  25.484  17.725  12.522
35148W        W96569  23.685  43.507  12.532
35149W        W96570  20.155   5.694  11.598
35150W        W96571  15.295  38.063   0.396
35151W        W96572  33.598  11.262  13.540
35152W        W96573  30.973   3.801  13.529
35153W        W96574  31.016  43.315  13.337
35154W        W96575  28.557  37.880  13.456
35155W        W96576  23.520  23.612  12.339
35156W        W96577  21.235  18.066   5.200
35157W        W96578  15.146  40.816  14.477
35158W        W96579  32.118  43.871  14.892
35159W        W96580   7.208  17.145  12.996
35160W        W96581  40.976  37.085   0.457
35161W        W96582  26.639   3.740   3.209
35162W        W96583  15.139  33.577   9.930
35163W        W96584  44.921  31.513   0.299
35164W        W96585  15.183   9.733   2.269
35165W        W96586  31.439   9.210   3.687
35166W        W96587  43.965  35.486  13.810
35167W        W96588  14.244  16.602  11.512
35168W        W96589  14.614  20.249  10.897
35169W        W96590  36.073   9.363  11.963
35170W        W96591  43.492  27.634  11.906
35171W        W96592  18.777  20.704   0.257
35172W        W96593   1.402   1.744   2.235
35173W        W96594  31.927  36.509   3.767
35174W        W96595  35.406  27.502   2.417
35175W        W96596  24.716  31.611   1.417
35176W        W96597   1.308  27.588  10.603
35177W        W96598  28.047  44.826   4.633
35178W        W96599  17.271  39.947  12.543
35179W        W96600   3.258   6.396   2.769
35180W        W96601  33.879  37.856  10.503
35181W        W96602  15.123  29.949   1.795
35182W        W96603  21.039  29.165  14.927
35183W        W96604   6.303  40.985  12.040
35184W        W96605  25.594  42.322   4.117
35185W        W96606   3.722  43.301   3.344
35186W        W96607   1.357  25.209  14.008
35187W        W96608  15.778   1.322   4.822
35188W        W96609  22.097   7.355   4.669
35189W        W96610  34.408  29.146  13.914
35190W        W96611  20.242  18.650   0.418
35191W        W96612  25.640  30.537   1.919
35192W        W96613   9.861  20.232  12.892
35193W        W96614  22.512  38.958   3.205
35194W        W96615  18.261  29.443   0.474
35195W        W96616  43.765  18.581  14.374
35196W        W96617  18.141   4.441   1.748
35197W        W96618  27.456  14.644  10.432
35198W        W96619  42.418  26.546  12.043
35199W        W96620  12.728  39.337   4.815
35200W        W96621  13.328  21.645  13.051
35201W        W96622  32.582  36.401  12.524
35202W        W96623   1.406  30.565  10.909
35203W        W96624  36.459  14.606  10.895
35204W        W96625  44.959  17.084   4.753
35205W        W96626  39.865  18.156   3.146
35206W        W96627   7.275  35.386  13.942
35207W        W96628  12.122   2.773   1.718
35208W        W96629  35.556  17.584  13.418
35209W        W96630   1.765  36.877   3.172
35210W        W96631  19.279  42.476   1.755
35211W        W96632  16.251   9.340  12.469
35212W        W96633  43.327   0.757  14.850
35213W        W96634  42.931  11.161  13.959
35214W        W96635  36.088   6.698   0.343
35215W        W96636  44.866  30.591  12.995
35216W        W96637  32.138  29.664   5.320
35217W        W96638  37.464  39.967  12.915
35218W        W96639  16.735  34.497   1.769
35219W        W96640  36.426  39.394   3.386
35220W        W96641   6.224  37.028  14.876
35221W        W96642   3.352  29.505   2.892
35222W        W96643  19.737   3.271   1.324
35223W        W96644  18.686  41.024  13.488
35224W        W96645   7.800   2.451  12.932
35225W        W96646  23.152  43.287  11.108
35226W        W96647  35.855  35.456   1.847
35227W        W96648  15.621  31.554   1.247
35228W        W96649  38.430  20.637   0.933
35229W        W96650   5.850  35.576  10.578
35230W        W96651  32.008  16.609   3.651
35231W        W96652  31.477  38.363  11.529
35232W        W96653  38.570  21.115   3.643
35233W        W96654  14.832  44.447  11.462
35234W        W96655  31.616  27.006   3.804
35235W        W96656  20.074   9.229   4.831
35236W        W96657  20.191  26.188  11.983
35237W        W96658  23.140   4.437   4.283
35238W        W96659  36.571  26.557   3.714
35239W        W96660  40.801   8.812   4.232
35240W        W96661  11.309  33.518   1.737
35241W        W96662  16.765  36.572   4.683
35242W        W96663  24.522  29.656   2.192
35243W        W96664  39.880  30.127  13.334
35244W        W96665   6.904  22.049  14.962
35245W        W96666  25.191  34.098   1.446
35246W        W96667  19.064  41.852  14.437
35247W        W96668  26.115  39.061  14.309
35248W        W96669  37.966   3.356  14.423
35249W        W96670   9.775  28.143  11.436
35250W        W96671  14.177  11.699  10.906
35251W        W96672  21.242  24.203  14.936
35252W        W96673  18.136  41.888   2.702
35253W        W96674  29.113  43.314   3.315
35254W        W96675   8.382   5.408  14.280
35255W        W96676   9.889   8.400  11.003
35256W        W96677   9.336   6.780  12.941
35257W        W96678  34.445  40.348   2.194
35258W        W96679  10.777   2.775  11.395
35259W        W96680  35.020   1.351   3.781
35260W        W96681  17.087   2.384   4.224
35261W        W96682  24.684  29.590  14.394
35262W        W96683  40.039  42.282   3.289
35263W        W96684  32.522  30.561   4.829
35264W        W96685  27.614  31.589   3.376
35265W        W96686   0.383  38.876  12.396
35266W        W96687   6.692  36.407  13.408
35267W        W96688  41.823  11.205  13.465
35268W        W96689  21.721   1.871  13.336
35269W        W96690  15.759  37.359  10.917
35270W        W96691  14.206  23.589  11.441
35271W        W96692  37.939  33.059  12.448
35272W        W96693   6.403  21.660   2.334
35273W        W96694   0.270  16.152   4.167
35274W        W96695  34.498  42.837   0.801
35275W        W96696  37.373   1.240  12.955
35276W        W96697  23.188  44.894   4.787
35277W        W96698   8.791  35.022  13.027
35278W        W96699   5.244   8.329   1.921
35279W        W96700  28.128  14.337  13.979
35280W        W96701  42.981   6.869   1.328
35281W        W96702  22.006   4.812   3.172
35282W        W96703  16.732  10.836   4.164
35283W        W96704  18.789  40.946  14.498
35284W        W96705  17.613  12.845   1.442
35285W        W96706   7.900  44.999   4.792
35286W        W96707  22.213  12.321   4.753
35287W        W96708   6.206   0.259   2.792
35288W        W96709   9.754  43.368  13.993
35289W        W96710  42.314  43.277  11.065
35290W        W96711   5.787  29.942   1.861
35291W        W96712  41.987   4.770  11.613
35292W        W96713  14.234   7.256  12.506
35293W        W96714  15.131  26.576  11.105
35294W        W96715  26.017   2.240  11.375
35295W        W96716   4.346  38.434   0.253
35296W        W96717  10.831   1.804  11.392
35297W        W96718   1.470  41.956  14.423
35298W        W96719  10.741  43.974  13.398
35299W        W96720  32.500   1.804   4.335
35300W        W96721  23.085  15.165   3.799
35301W        W96722   1.376  35.870   0.458
35302W        W96723  43.471  30.603  10.440
35303W        W96724  34.039  12.321  13.974
35304W        W96725  14.720   0.780   3.849
35305W        W96726  34.943   6.857  13.032
35306W        W96727  19.674  29.423   1.864
35307W        W96728  11.667  10.857   0.911
35308W        W96729  37.383  25.058   3.258
35309W        W96730  29.514   1.439  11.429
35310W        W96731   4.891  14.331  12.364
35311W        W96732  41.932  19.130  10.515
35312W        W96733   5.854  12.152  10.483
35313W        W96734  25.066   5.896  14.932
35314W        W96735  29.648   7.381  12.915
35315W        W96736  27.625  33.534   3.222
35316W        W96737  38.497  27.138  11.375
35317W        W96738  32.432  27.971  10.027
35318W        W96739  29.436  27.647   1.715
35319W        W96740  22.715  33.626   4.199
35320W        W96741  23.641   9.800   1.264
35321W        W96742   9.838  31.939   0.274
35322W        W96743   7.775  18.620  14.967
35323W        W96744  19.195   2.317   2.409
35324W        W96745  36.375  37.897   4.295
35325W        W96746  23.600   0.400  10.573
35326W        W96747  38.908   2.465   1.754
35327W        W96748  40.448  27.454  14.312
35328W        W96749  35.465   0.416   1.838
35329W        W96750  32.077  22.516   5.284
35330W        W96751  34.904  34.506   1.275
35331W        W96752  17.278  43.819   2.851
35332W        W96753  18.218  27.674  13.408
35333W        W96754  19.126  27.522   0.755
35334W        W96755  44.438  36.414  12.922
35335W        W96756   2.315  23.178  12.473
35336W        W96757  13.246  13.737   1.395
35337W        W96758   2.927  44.463  14.968
35338W        W96759  28.034  40.915  11.547
35339W        W96760  13.285  37.373   0.474
35340W        W96761  20.112  20.596  10.934
35341W        W96762  23.155  33.411   1.331
35342W        W96763  42.333  13.275   1.292
35343W        W96764  42.386  31.966  11.070
35344W        W96765  25.044   1.279  11.604
35345W        W96766  10.201  12.189   1.821
35346W        W96767   7.234  13.173   1.263
35347W        W96768   7.899  14.790   2.308
35348W        W96769  19.578   5.272   4.117
35349W        W96770  10.186  44.802   1.382
35350W        W96771   8.372   9.169   0.764
35351W        W96772  17.169  44.504   3.757
35352W        W96773  26.155  38.327   1.734
35353W        W96774  33.893  20.204  14.980
35354W        W96775  35.893  19.758  12.907
35355W        W96776  34.407  38.501  13.983
35356W        W96777  36.056   1.861   0.275
35357W        W96778   4.309   8.209  12.377
35358W        W96779  19.278  29.018   2.331
35359W        W96780  34.936   7.898   3.802
35360W        W96781  25.558   0.748  13.933
35361W        W96782  32.060  18.219   4.724
35362W        W96783   6.373  12.357  14.762
35363W        W96784  43.830  26.555   1.827
35364W        W96785  31.570  35.469  14.326
35365W        W96786   4.232  22.124  11.597
35366W        W96787  11.657  34.903   0.330
35367W        W96788  26.115  40.338  11.542
35368W        W96789   2.354   2.849  12.530
35369W        W96790  18.287  38.545   1.249
35370W        W96791   6.717  24.690   5.749
35371W        W96792  32.433  42.382   1.851
35372W        W96793  11.174   1.246   2.812
35373W        W96794  15.310   0.880  11.417
35374W        W96795  22.710   2.327  11.471
35375W        W96796  20.241   8.164  14.009
35376W        W96797  16.686  43.298  12.580
35377W        W96798  31.994  18.180  14.300
35378W        W96799  33.503  33.109   0.801
35379W        W96800  43.299  37.514   2.885
35380W        W96801  24.625  34.427   3.195
35381W        W96802  23.167  40.323   0.315
35382W        W96803  21.181  41.921   3.845
35383W        W96804  30.528   5.249   1.285
35384W        W96805  26.630  21.257   2.215
35385W        W96806  11.656   4.739  14.364
35386W        W96807  29.454  13.251  14.881
35387W        W96808  38.502   6.908  12.861
35388W        W96809  10.784  10.226   2.255
35389W        W96810  15.731  10.705   1.746
35390W        W96811  37.982  41.363  13.817
35391W        W96812  15.781   5.226   3.347
35392W        W96813   6.361   5.226   4.127
35393W        W96814  35.060  26.636   1.857
35394W        W96815  14.165  41.914  13.938
35395W        W96816  42.014  11.777  10.448
35396W        W96817  10.358  19.195  13.320
35397W        W96818   5.357  28.107   9.931
35398W        W96819   0.951  39.971   2.316
35399W        W96820  29.612  24.114   0.947
35400W        W96821  22.613  39.821  13.465
35401W        W96822  24.602  22.151  14.505
35402W        W96823  18.731  13.235   4.799
35403W        W96824  24.661  19.613   0.358
35404W        W96825  32.611  43.829   2.293
35405W        W96826  38.846  23.236   1.291
35406W        W96827  26.084  38.002   0.766
35407W        W96828  37.009  12.236   0.833
35408W        W96829   2.355  10.729   4.779
35409W        W96830  15.615  24.639   4.626
35410W        W96831  16.807   1.821   3.851
35411W        W96832   1.952  17.113   4.127
35412W        W96833  40.010  24.016  11.602
35413W        W96834  37.073  16.591  13.517
35414W        W96835  18.586   3.216   0.286
35415W        W96836   8.798   4.781  14.444
35416W        W96837  15.228  29.578  13.960
35417W        W96838  11.722  20.047   4.331
35418W        W96839  39.994  30.453   3.265
35419W        W96840   4.797  23.049   1.910
35420W        W96841  14.804   7.181   4.766
35421W        W96842  12.238   8.370   2.896
35422W        W96843  26.017  22.149   4.696
35423W        W96844  16.620   3.332   0.386
35424W        W96845  13.655  25.048   3.704
35425W        W96846   4.338  19.714   4.720
35426W        W96847  31.945  43.961  12.455
35427W        W96848   7.757  10.321   1.699
35428W        W96849  38.860  30.021   0.900
35429W        W96850  10.173  30.573  13.926
35430W        W96851  10.674  38.418   0.263
35431W        W96852   3.336  39.344   1.812
35432W        W96853   3.424  16.159  12.890
35433W        W96854   2.243  27.684   0.402
35434W        W96855  37.023  19.757   3.345
35435W        W96856  44.383  36.986  14.787
35436W        W96857  29.967   3.835   3.782
35437W        W96858  30.494  33.965  11.523
35438W        W96859  13.112  30.423   1.859
35439W        W96860   6.689   8.826   4.695
35440W        W96861  21.742  19.238  12.966
35441W        W96862  30.152  15.788  12.988
35442W        W96863  40.990  21.074  14.762
35443W        W96864  24.563  29.098   2.847
35444W        W96865  22.710  44.427   1.446
35445W        W96866  37.004  43.393  10.988
35446W        W96867   6.223   2.302   3.652
35447W        W96868  29.125  16.183  11.971
35448W        W96869  36.536  37.466   4.698
35449W        W96870   2.296  23.065  14.315
35450W        W96871  32.018  37.401  12.037
35451W        W96872  37.500   3.266   5.286
35452W        W96873  21.518  44.427  11.067
35453W        W96874   1.921  20.624  14.432
35454W        W96875  15.328   5.768  13.464
35455W        W96876  43.516  16.294  11.127
35456W        W96877   6.203  22.061  10.903
35457W        W96878  16.737  21.047  12.461
35458W        W96879   0.748  11.273   0.476
35459W        W96880  42.836  41.326   2.237
35460W        W96881   8.193  28.523   1.360
35461W        W96882  22.711   0.285   1.834
35462W        W96883  37.472  25.675  14.919
35463W        W96884  21.207   9.831   0.300
35464W        W96885   4.874  28.499   0.853
35465W        W96886  15.320  25.154  11.403
35466W        W96887   3.310  43.823  11.517
35467W        W96888   0.437  32.940  14.299
35468W        W96889  39.461  28.976   1.415
35469W        W96890  23.196  32.047  10.597
35470W        W96891  44.767  10.711   0.727
35471W        W96892  42.438  44.852   2.303
35472W        W96893  39.466  14.772  13.017
35473W        W96894  11.648  32.531  10.547
35474W        W96895  41.998   3.860  14.010
35475W        W96896  19.659  27.087   0.312
35476W        W96897   9.213  20.232   0.438
35477W        W96898  43.515  38.557  14.871
35478W        W96899  33.974  10.329   0.923
35479W        W96900  40.527  11.180   3.339
35480W        W96901  40.851  24.199  14.434
35481W        W96902  39.369  24.711  14.427
35482W        W96903  42.314  34.442  10.438
35483W        W96904  44.403  10.156  12.026
35484W        W96905  39.504  32.617   3.698
35485W        W96906  10.198  40.520  14.906
35486W        W96907  15.689   5.387   4.716
35487W        W96908   3.271   6.227  13.899
35488W        W96909   0.490  31.057   0.380
35489W        W96910   7.178  40.307  11.542
35490W        W96911  39.965  17.586  14.846
35491W        W96912   5.266  33.023  11.531
35492W        W96913  37.937  16.644  12.993
35493W        W96914   9.725  13.188   4.188
35494W        W96915  24.650  42.822   4.348
35495W        W96916  43.996  23.169   2.314
35496W        W96917  14.730  41.420   1.874
35497W        W96918  19.248  43.448   2.394
35498W        W96919  33.957  23.708   0.417
35499W        W96920  16.712  29.627   4.199
35500W        W96921  34.612  32.632   0.295
35501W        W96922  17.165   7.737   3.336
35502W        W96923   3.849  37.997  10.901
35503W        W96924  17.573  40.866   2.777
35504W        W96925   3.861  34.490  12.954
35505W        W96926   7.296  33.388   1.376
35506W        W96927  43.805  13.785  12.838
35507W        W96928   9.185  39.464  14.348
35508W        W96929   0.311   3.249   4.629
35509W        W96930  24.987  31.452   4.640
35510W        W96931  26.670  36.422  13.343
35511W        W96932  22.108  11.684   3.184
35512W        W96933  39.527  14.109   0.354
35513W        W96934  37.498  42.987  13.837
35514W        W96935  44.492  16.100  14.792
35515W        W96936   3.302  42.346  13.848
35516W        W96937  15.086  38.968  14.508
35517W        W96938  38.525  19.101  11.127
35518W        W96939  14.714   4.261  14.947
35519W        W96940  10.857  44.452   1.279
35520W        W96941  31.137   3.429   4.203
35521W        W96942  30.080  25.673   4.328
35522W        W96943  36.083  36.903   0.955
35523W        W96944  21.718  44.830   2.826
35524W        W96945  33.075   0.870   2.398
35525W        W96946   6.809  14.701   4.158
35526W        W96947   5.761  34.081  13.468
35527W        W96948   5.204  26.018   5.134
35528W        W96949  26.095   8.816   4.646
35529W        W96950  30.024   1.294   4.341
35530W        W96951  24.992  43.827   3.206
35531W        W96952  10.319  21.684   1.262
35532W        W96953  38.342  11.676   1.419
35533W        W96954   3.804  27.572   2.718
35534W        W96955  11.364  20.144   2.371
35535W        W96956   6.279  18.285   5.192
35536W        W96957  15.769   0.303   4.626
35537W        W96958  23.053  17.621   2.330
35538W        W96959   6.255   0.817  14.286
35539W        W96960   4.740   8.273  11.038
35540W        W96961  44.272  26.157  11.892
35541W        W96962   4.387   3.348  14.001
35542W        W96963  43.276  44.428  14.821
35543W        W96964  14.114   6.802   1.334
35544W        W96965  43.905  20.726   3.744
35545W        W96966  39.402   9.742  10.531
35546W        W96967  38.521   2.748  10.492
35547W        W96968  21.260  20.589  10.433
35548W        W96969  33.090  36.368  13.819
35549W        W96970  30.503  44.403  12.568
35550W        W96971   9.321  38.407  12.576
35551W        W96972  36.869  41.421  12.356
35552W        W96973  10.218  34.084  13.927
35553W        W96974  24.153  30.043   1.357
35554W        W96975  42.825  16.576  11.024
35555W        W96976  42.388  19.593  14.498
35556W        W96977  36.550  22.657  12.010
35557W        W96978   4.321  42.311   1.816
35558W        W96979   5.271  42.027   1.934
35559W        W96980  28.002   4.288  14.337
35560W        W96981  20.068  31.528   1.824
35561W        W96982   2.729  21.595   4.699
35562W        W96983   9.801  29.957   4.612
35563W        W96984  12.237  11.305  14.959
35564W        W96985  40.858   7.699   3.665
35565W        W96986  10.728  31.148  11.050
35566W        W96987  32.940  19.179  12.488
35567W        W96988   8.249  14.799  11.424
35568W        W96989  10.679  35.037   4.690
35569W        W96990  25.103  43.461   4.722
35570W        W96991  36.051  10.261  12.903
35571W        W96992  43.370   8.329  14.889
35572W        W96993  37.520   2.338  11.531
35573W        W96994  16.643   8.294  13.525
35574W        W96995  44.853   3.292   3.819
35575W        W96996  25.178  35.972   3.342
35576W        W96997   2.836  24.195  10.533
35577W        W96998   9.159  25.194   3.362
35578W        W96999  34.519  18.072  11.493
35579W        W97000   2.313  39.812   1.890
35580W        W97001  32.971  41.395  14.480
35581W        W97002  43.299  35.975   1.825
35582W        W97003  28.115  16.308  12.090
35583W        W97004  18.622  10.225  12.489
35584W        W97005   7.200  28.676  11.433
35585W        W97006  27.978  33.131   2.695
35586W        W97007   1.873   3.709  13.958
35587W        W97008   4.875  37.019   3.167
35588W        W97009  31.990  27.658   3.823
35589W        W97010   6.296  31.560   1.328
35590W        W97011  39.028   3.292   2.210
35591W        W97012  42.031  34.534  11.584
35592W        W97013  25.157  38.516   1.694
35593W        W97014   6.330   2.855   4.638
35594W        W97015  10.800  20.712  10.922
35595W        W97016  44.851  36.065   3.783
35596W        W97017  11.316  24.595  10.610
35597W        W97018  27.160  29.554   0.421
35598W        W97019  18.688  27.520  11.576
35599W        W97020   7.315   6.734  12.005
35600W        W97021  19.174  36.436   3.192
35601W        W97022  44.418  41.795   1.264
35602W        W97023   2.295  15.701   0.462
35603W        W97024  21.205  28.932   4.686
35604W        W97025  34.017  16.152  11.034
35605W        W97026  21.711  10.750  12.414
35606W        W97027  39.524  24.203   3.187
35607W        W97028  21.734   6.783   5.307
35608W        W97029  16.205   1.897  11.008
35609W        W97030  30.620  28.589   1.313
35610W        W97031   8.224  22.721  11.522
35611W        W97032  20.089  41.361   4.838
35612W        W97033  25.521  38.428   3.830
35613W        W97034   5.740  29.120   3.735
35614W        W97035  44.267  22.222   3.630
35615W        W97036  10.218  43.789   0.900
35616W        W97037   4.392  41.315   3.724
35617W        W97038  20.714  31.974  11.883
35618W        W97039  21.021   9.659   4.205
35619W        W97040  35.401  34.568   1.305
35620W        W97041  21.512  17.799  13.993
35621W        W97042  13.836   9.730   2.289
35622W        W97043  15.824  17.793   4.260
35623W        W97044  28.143  29.648  10.612
35624W        W97045  21.026   2.331   0.879
35625W        W97046  13.808  21.156  12.024
35626W        W97047  28.528   9.832   1.851
35627W        W97048  34.952   2.931   0.379
35628W        W97049  42.945  32.609   1.284
35629W        W97050   8.754   5.917   4.208
35630W        W97051   4.278  28.953  10.952
35631W        W97052  26.062  18.156   0.825
35632W        W97053  18.137  35.468   1.334
35633W        W97054  42.408   9.732  13.000
35634W        W97055  20.652  24.172  10.999
35635W        W97056  43.319  17.096   2.248
35636W        W97057   9.703  18.697   3.273
35637W        W97058  29.552  25.214  10.422
35638W        W97059  24.510  40.408   1.287
35639W        W97060  33.529  34.911  12.458
35640W        W97061   4.909  30.587  12.851
35641W        W97062  17.623  27.955  10.130
35642W        W97063   9.385   9.151  14.912
35643W        W97064   5.926   8.307  14.861
35644W        W97065  32.495  34.522  14.488
35645W        W97066  33.476  38.928  14.878
35646W        W97067  33.920   8.175   4.290
35647W        W97068  27.941  22.237   4.230
35648W        W97069  35.895  19.075  11.902
35649W        W97070  31.471  37.567  12.450
35650W        W97071   3.359  24.571   1.293
35651W        W97072  37.911  21.671  11.022
35652W        W97073  40.493   1.858   5.320
35653W        W97074  16.136  10.769  12.550
35654W        W97075  26.532  16.579   2.880
35655W        W97076   9.681  13.273  11.102
35656W        W97077  17.263  30.493   2.183
35657W        W97078   0.448  13.292  10.539
35658W        W97079  21.028  41.815   0.443
35659W        W97080  40.406  17.260  13.401
35660W        W97081   2.896   2.231   2.750
35661W        W97082  24.116  33.587   3.364
35662W        W97083  14.670  44.921   3.732
35663W        W97084  31.100  22.034  11.452
35664W        W97085   7.870  38.330   1.779
35665W        W97086  39.340  22.060  11.103
35666W        W97087  10.383  23.150  12.440
35667W        W97088   4.754  15.644   0.795
35668W        W97089  21.560   9.186   0.898
35669W        W97090  36.519   3.953  12.441
35670W        W97091   2.363  27.639  11.465
35671W        W97092   8.858  41.970  12.914
35672W        W97093  29.019  40.969   3.649
35673W        W97094  21.099   8.885   1.696
35674W        W97095  11.227   5.740   2.184
35675W        W97096  32.402  10.170  14.840
35676W        W97097  16.618   6.321  10.568
35677W        W97098  36.388   2.879   2.366
35678W        W97099  24.035   1.317   1.883
35679W        W97100   2.424   9.726  13.967
35680W        W97101  15.099  40.924   0.269
35681W        W97102  31.951  40.966  14.481
35682W        W97103  17.739  35.019  10.627
35683W        W97104  10.332  26.968   4.792
35684W        W97105  10.334  17.769   4.685
35685W        W97106   4.221   0.915   4.149
35686W        W97107  40.882  12.646  10.907
35687W        W97108   7.361  23.127  13.060
35688W        W97109  29.617   0.951   3.710
35689W        W97110  26.521  11.283  14.843
35690W        W97111  43.418   8.838   5.190
35691W        W97112  32.559  16.073  13.456
35692W        W97113   3.286  41.821  14.364
35693W        W97114  11.719  29.043   9.967
35694W        W97115  29.106  10.668  12.379
35695W        W97116  10.873  30.469   3.635
35696W        W97117  19.075  26.193  14.845
35697W        W97118  11.837  37.013   0.886
35698W        W97119  10.750  10.851   3.257
35699W        W97120   3.884   1.253   2.402
35700W        W97121  27.465  15.680  10.051
35701W        W97122  34.449  16.643   1.373
35702W        W97123   3.864  16.704   3.638
35703W        W97124  22.066   6.256   0.739
35704W        W97125  33.594   6.738  11.100
35705W        W97126  27.035   8.364   3.156
35706W        W97127   7.749  41.898  13.931
35707W        W97128  18.717  19.191   4.120
35708W        W97129  38.912  27.162   0.439
35709W        W97130  32.043  18.700  11.877
35710W        W97131  16.301  33.391   5.762
35711W        W97132  29.939   9.156  12.537
35712W        W97133  23.527  35.369  14.336
35713W        W97134  15.140  18.696   1.296
35714W        W97135  21.734  34.906   3.215
35715W        W97136  30.138   6.263  12.097
35716W        W97137  14.759   0.345  12.095
35717W        W97138   2.294  31.622   0.417
35718W        W97139  40.493  17.276   3.737
35719W        W97140  33.879  30.057  13.879
35720W        W97141  40.402  20.155  14.316
35721W        W97142  30.480  27.552   4.771
35722W        W97143  20.209   1.450  14.460
35723W        W97144  23.520  32.073   2.684
35724W        W97145  22.678  15.151  13.516
35725W        W97146  11.350  14.652  14.456
35726W        W97147  34.562  14.753  12.377
35727W        W97148  26.626  22.525  12.997
35728W        W97149   6.285  14.631  14.496
35729W        W97150  42.835  17.245  14.985
35730W        W97151  29.946  37.577   2.254
35731W        W97152  33.591  32.030  14.312
35732W        W97153  22.518  22.171  10.527
35733W        W97154   6.868  22.249  12.081
35734W        W97155   8.294  38.837  10.994
35735W        W97156   4.860  27.072  12.851
35736W        W97157  25.073  10.827   1.810
35737W        W97158   2.398   6.710  11.524
35738W        W97159  38.850  14.791   3.661
35739W        W97160  21.037  34.505   4.829
35740W        W97161  31.559  37.843   1.814
35741W        W97162   4.806   6.782  12.861
35742W        W97163  17.726   7.370  11.972
35743W        W97164  31.989  11.649  10.404
35744W        W97165  31.143  38.413   3.803
35745W        W97166  11.729   7.197  13.826
35746W        W97167  31.967  15.739  12.075
35747W        W97168   6.362  41.417   3.288
35748W        W97169  37.902  23.590  14.799
35749W        W97170  42.890   5.349  11.431
35750W        W97171   1.403   7.837  14.900
35751W        W97172   3.362  44.942  11.515
35752W        W97173  12.713  27.133  10.603
35753W        W97174  38.868  22.608  10.511
35754W        W97175  18.775   5.318   3.764
35755W        W97176   5.930  14.229  12.092
35756W        W97177  40.831  19.623   2.399
35757W        W97178  33.602  41.917  12.053
35758W        W97179  28.576  28.030   3.633
35759W        W97180  23.018  26.134  13.381
35760W        W97181  22.073   0.321   0.428
35761W        W97182  19.711  37.411  14.786
35762W        W97183  43.358  36.069   0.417
35763W        W97184  17.612  37.417   3.277
35764W        W97185  40.393   7.848  13.053
35765W        W97186   1.362  44.327   1.923
35766W        W97187  38.970  18.746  11.597
35767W        W97188  39.999  23.500  14.974
35768W        W97189   2.228  14.123   0.828
35769W        W97190  11.366   7.182  13.939
35770W        W97191  33.952  28.637  10.988
35771W        W97192   2.289  10.713   3.795
35772W        W97193  21.190  10.678   9.934
35773W        W97194  37.843  22.730  13.495
35774W        W97195  25.554  16.304   2.802
35775W        W97196   0.985   8.847   2.212
35776W        W97197  13.782   2.921   1.768
35777W        W97198  28.519   5.423  11.855
35778W        W97199  43.470  23.599  14.347
35779W        W97200   7.816  25.008  13.391
35780W        W97201  26.560  14.790  13.977
35781W        W97202   6.727  39.819   3.755
35782W        W97203  31.414  14.795   3.181
35783W        W97204   2.878  24.981   1.754
35784W        W97205  40.832   8.837   3.147
35785W        W97206   5.317  20.211  13.041
35786W        W97207  20.218  30.991  12.410
35787W        W97208   1.474  39.054   0.322
35788W        W97209  31.559  11.740  10.902
35789W        W97210  35.476  39.027   3.325
35790W        W97211  23.069  35.001  14.955
35791W        W97212  19.663  18.617  14.477
35792W        W97213   7.870  21.196  12.579
35793W        W97214  11.827  12.691   2.387
35794W        W97215  10.365  18.652  14.794
35795W        W97216  29.640   1.360  14.832
35796W        W97217   5.422  36.568   4.772
35797W        W97218  38.925  21.727  10.978
35798W        W97219  13.807  32.984  14.397
35799W        W97220  41.346  14.635   5.682
35800W        W97221  29.539  42.378   0.893
35801W        W97222  30.489  10.205   1.269
35802W        W97223  14.322  10.692   0.766
35803W        W97224  30.655  36.464   4.624
35804W        W97225  22.685  22.545   1.862
35805W        W97226  10.245  35.533  10.983
35806W        W97227  34.038   6.190  11.582
35807W        W97228  34.933  43.910   1.439
35808W        W97229   3.772   3.932   4.271
35809W        W97230  31.033  37.019  12.568
35810W        W97231   0.928  21.198   1.211
35811W        W97232  44.935  14.735  13.537
35812W        W97233   6.301  32.540   4.161
35813W        W97234  25.035  35.364  14.376
35814W        W97235  22.537   9.759  12.965
35815W        W97236  41.518   2.928   0.334
35816W        W97237  29.984  42.341  10.471
35817W        W97238  32.491  33.051   4.296
35818W        W97239  42.348  23.218   2.193
35819W        W97240  11.259  37.447   4.630
35820W        W97241  33.121  44.433   0.451
35821W        W97242  27.588  10.780  13.447
35822W        W97243  22.139   1.908   2.727
35823W        W97244  12.331  34.114  10.431
35824W        W97245   0.416  35.026   2.312
35825W        W97246   0.328  24.103  14.915
35826W        W97247  20.086   0.966   3.860
35827W        W97248  43.502  33.496   0.398
35828W        W97249  34.049  33.979   4.772
35829W        W97250  38.472   5.917   4.804
35830W        W97251   6.214  30.488  13.900
35831W        W97252   8.857  18.229   2.753
35832W        W97253  39.424  41.373   2.853
35833W        W97254  23.200  43.949  13.343
35834W        W97255  10.219  22.122  12.944
35835W        W97256  15.587  38.369   1.882
35836W        W97257  38.064  27.551  14.492
35837W        W97258   3.892  33.041  14.791
35838W        W97259  15.763  11.777  14.484
35839W        W97260  18.124  17.151  12.407
35840W        W97261  33.599  10.303   1.296
35841W        W97262   0.909   2.843  12.082
35842W        W97263   6.336  42.016   3.847
35843W        W97264  41.025  28.560   3.369
35844W        W97265  16.722  10.337  11.962
35845W        W97266  35.544  42.296  14.784
35846W        W97267  11.634  41.325   0.252
35847W        W97268  13.804  21.244  14.003
35848W        W97269  35.086  28.042   4.181
35849W        W97270  30.434  24.605   0.840
35850W        W97271   0.370  14.693  13.022
35851W        W97272  34.031  35.522   2.275
35852W        W97273  42.866  25.180   0.325
35853W        W97274   7.781  39.935   0.432
35854W        W97275  42.523   7.393   0.895
35855W        W97276  22.605  18.251   2.849
35856W        W97277   2.283  29.978  10.605
35857W        W97278   5.901   7.262   1.726
35858W        W97279  33.919  28.007  13.971
35859W        W97280   5.252  37.552   0.253
35860W        W97281  19.603  24.481  13.944
35861W        W97282  24.608  24.977  12.560
35862W        W97283  42.887  43.395  10.626
35863W        W97284   4.707  14.158  10.100
35864W        W97285  33.084   0.467  12.887
35865W        W97286   7.337  35.374   2.238
35866W        W97287  33.620   9.279  14.418
35867W        W97288  15.299   9.780   2.724
35868W        W97289  44.761  33.508   2.814
35869W        W97290  21.075  10.260   0.252
35870W        W97291  15.697   9.294   3.303
35871W        W97292   7.827  41.032   0.740
35872W        W97293  29.113  29.568  14.999
35873W        W97294  24.720  27.582   0.904
35874W        W97295   6.777  28.565   4.333
35875W        W97296  34.606  28.524   0.447
35876W        W97297   0.288  26.153   2.218
35877W        W97298  44.306  18.666  14.297
35878W        W97299  23.018   8.404  10.137
35879W        W97300  12.640  35.532  10.921
35880W        W97301  42.460  37.418  13.418
35881W        W97302  37.360  13.349   1.779
35882W        W97303  21.756  44.278  12.027
35883W        W97304   7.284   9.216   3.202
35884W        W97305  28.621  33.584  10.438
35885W        W97306  31.958  29.102   0.924
35886W        W97307  15.275  37.409   0.828
35887W        W97308  10.170  11.800   3.318
35888W        W97309  30.921  26.992  11.947
35889W        W97310  32.025  35.588   0.951
35890W        W97311  33.599   0.809   0.365
35891W        W97312  21.082  14.630   3.763
35892W        W97313  41.440  16.227  12.506
35893W        W97314  27.462  36.393  12.028
35894W        W97315  22.517  16.766   0.294
35895W        W97316  14.196  18.668  14.822
35896W        W97317  20.058  35.861   4.269
35897W        W97318   8.227  23.492  10.915
35898W        W97319   3.781   6.265   2.198
35899W        W97320  38.985  16.659   4.736
35900W        W97321  16.812  42.933   1.280
35901W        W97322   8.308  35.534  12.350
35902W        W97323   2.359   8.208  14.784
35903W        W97324  15.148  17.693  12.864
35904W        W97325  21.696  26.482   0.323
35905W        W97326   2.760   6.304  14.462
35906W        W97327  21.215  39.482   5.118
35907W        W97328  25.644   5.927   1.290
35908W        W97329  15.116  39.039  13.796
35909W        W97330   5.710  37.991  13.892
35910W        W97331  11.177  34.418  11.604
35911W        W97332  23.111  10.647   3.651
35912W        W97333  40.513  16.180   5.109
35913W        W97334   1.343  31.967   1.896
35914W        W97335  40.489  24.717  14.320
35915W        W97336  29.107   2.444  10.435
35916W        W97337  18.576  30.156   0.787
35917W        W97338  29.047  10.264   2.397
35918W        W97339  40.421  38.878  12.420
35919W        W97340  36.371  12.779   4.163
35920W        W97341  30.962  40.358   0.955
35921W        W97342  44.986  28.623   0.270
35922W        W97343  24.107  29.960  14.419
35923W        W97344  25.982  39.982   3.275
35924W        W97345  20.657  15.599   2.331
35925W        W97346   9.871  11.658   1.880
35926W        W97347   2.903  18.786   0.879
35927W        W97348  32.029   9.363   0.482
35928W        W97349  43.786  30.418   4.200
35929W        W97350   4.800  34.956   1.706
35930W        W97351  44.757   4.385  10.434
35931W        W97352  39.922   5.863  12.019
35932W        W97353   6.252   5.833  11.001
35933W        W97354   4.407   7.218  13.801
35934W        W97355  28.568  23.081  10.903
35935W        W97356  43.837  29.523  12.914
35936W        W97357  44.297   9.650   4.763
35937W        W97358  41.297  44.973  12.560
35938W        W97359  39.923  28.494   1.446
35939W        W97360  30.486  10.701   1.374
35940W        W97361  19.767  12.291   4.271
35941W        W97362   7.345   1.320  10.642
35942W        W97363  42.307  32.047   0.418
35943W        W97364  35.014  37.335   1.842
35944W        W97365   0.272   2.746  12.870
35945W        W97366  37.527  14.639  13.948
35946W        W97367  30.103   1.950   4.266
35947W        W97368   8.401  31.499  14.925
35948W        W97369  12.658  24.181   2.294
35949W        W97370  43.943  16.144  10.573
35950W        W97371   7.860  28.996   2.731
35951W        W97372   4.337   6.345  11.057
35952W        W97373   3.353   3.216  13.536
35953W        W97374  34.008  23.687   2.774
35954W        W97375   2.257  14.819   1.451
35955W        W97376  12.206   0.360   2.322
35956W        W97377  10.231   1.935  11.112
35957W        W97378  38.390  25.486  13.905
35958W        W97379  34.524   8.298   4.835
35959W        W97380  28.970   8.237   0.818
35960W        W97381   0.833   5.737  12.969
35961W        W97382  39.936   3.288   2.812
35962W        W97383   9.726   9.158   0.251
35963W        W97384  20.713  31.012  14.788
35964W        W97385  12.342  17.283   3.705
35965W        W97386  36.376   7.223   0.253
35966W        W97387  19.569  39.370   3.814
35967W        W97388  43.814   3.843  12.004
35968W        W97389  19.597  39.952  14.002
35969W        W97390  26.003  31.112  13.356
35970W        W97391  42.986  32.484   3.311
35971W        W97392  33.095  31.446  14.429
35972W        W97393  13.825  13.148  11.877
35973W        W97394   4.423  20.572   3.844
35974W        W97395  23.154  12.302   2.821
35975W        W97396  28.479   8.759   3.252
35976W        W97397  16.119  32.129   3.219
35977W        W97398   9.234  30.029  14.917
35978W        W97399   2.464   7.855   4.716
35979W        W97400  43.309  31.491  10.561
35980W        W97401  16.187  34.589   4.736
35981W        W97402   2.457  12.278   2.833
35982W        W97403  18.264  25.657  11.439
35983W        W97404  41.332  41.501  10.898
35984W        W97405  14.256   7.207   0.459
35985W        W97406   9.220  32.055   4.652
35986W        W97407  26.457  11.227  11.064
35987W        W97408  26.578   9.215  13.374
35988W        W97409  30.965   1.785  11.087
35989W        W97410  29.583   4.217  12.951
35990W        W97411  16.103  34.501  13.035
35991W        W97412  28.635  22.091   0.918
35992W        W97413  43.319  42.473  11.108
35993W        W97414  31.003  14.321   5.116
35994W        W97415  23.665   3.457  14.797
35995W        W97416  25.556  31.613   4.349
35996W        W97417  10.822  23.236  11.395
35997W        W97418  25.632  29.056   4.734
35998W        W97419  10.834  28.521  11.420
35999W        W97420  37.988  34.383   0.835
36000W        W97421  16.593  44.284   1.228
36001W        W97422  32.004  34.431   4.756
36002W        W97423   5.267  32.123   3.659
36003W        W97424   4.845  10.671  14.772
36004W        W97425   5.761   8.869   1.867
36005W        W97426  14.715  44.950  11.956
36006W        W97427  16.127  40.396  11.524
36007W        W97428   5.915  40.469   1.357
36008W        W97429   6.869  34.942   2.386
36009W        W97430  10.275   8.239   0.258
36010W        W97431  13.603  42.315  12.061
36011W        W97432  13.613   0.328  14.384
36012W        W97433   8.292   7.415   0.843
36013W        W97434  37.904  22.607   1.830
36014W        W97435   1.331  16.126   1.227
36015W        W97436  12.782  11.301   0.928
36016W        W97437  43.014  35.091   3.191
36017W        W97438  36.354  36.863   2.248
36018W        W97439  17.776   5.787  10.615
36019W        W97440  41.851  36.854  13.875
36020W        W97441  18.054   5.333  10.434
36021W        W97442   1.977   1.368   5.271
36022W        W97443  28.541  20.229   3.747
36023W        W97444  37.042  23.534  13.966
36024W        W97445  11.625  44.300   2.689
36025W        W97446  21.645  32.074   1.724
36026W        W97447  29.499  31.132   2.713
36027W        W97448  39.927  21.671  11.537
36028W        W97449  27.666  20.211  14.767
36029W        W97450  44.322  24.180   3.236
36030W        W97451  33.088  22.087   1.292
36031W        W97452  33.541  43.370  11.070
36032W        W97453  39.867  44.814   0.928
36033W        W97454   2.850  29.603  10.538
36034W        W97455  25.963  23.081  11.395
36035W        W97456  37.022   4.779   3.232
36036W        W97457  34.086   6.873  11.402
36037W        W97458  26.533  44.839   1.305
36038W        W97459   2.430  26.085  10.150
36039W        W97460   9.202  26.567   3.167
36040W        W97461  36.472  36.094   1.783
36041W        W97462  14.663  41.303   0.950
36042W        W97463  35.010  42.974   1.822
36043W        W97464  34.498  35.073   3.329
36044W        W97465   4.315  22.640   4.606
36045W        W97466  19.576  36.529  13.026
36046W        W97467  12.758  10.202  14.820
36047W        W97468   2.811  16.774   0.897
36048W        W97469   1.808  37.956  13.404
36049W        W97470  13.214  14.596  13.501
36050W        W97471  43.808   7.265   0.451
36051W        W97472  35.024  38.543   2.837
36052W        W97473  27.996   6.407  11.546
36053W        W97474  29.062  34.097  12.906
36054W        W97475  10.764  33.605  13.971
36055W        W97476   4.392  14.162   0.433
36056W        W97477  11.185  22.612  14.337
36057W        W97478  10.666  36.474  14.377
36058W        W97479  34.898   7.787  14.910
36059W        W97480  23.097   9.779   2.228
36060W        W97481  37.849   3.346  12.405
36061W        W97482  35.890  20.767  14.375
36062W        W97483  18.662  25.144  11.547
36063W        W97484  43.916  12.733  13.361
36064W        W97485  40.418  42.426  14.394
36065W        W97486   1.374  13.215   0.819
36066W        W97487  36.577  13.690  11.885
36067W        W97488  21.115  44.295   4.752
36068W        W97489  26.111  14.671  11.864
36069W        W97490  32.479  22.637  13.936
36070W        W97491  27.535  32.890  13.904
36071W        W97492  34.556  19.089  10.496
36072W        W97493   3.876  36.557   4.660
36073W        W97494  28.008  27.046   3.385
36074W        W97495   8.797  44.283  12.844
36075W        W97496   0.253  26.662   2.693
36076W        W97497  39.884  13.207  11.574
36077W        W97498  25.210   7.340  11.434
36078W        W97499  23.609   3.271  11.977
36079W        W97500  33.518  16.105  11.895
36080W        W97501  35.443  23.657   3.264
36081W        W97502  40.839   2.377  13.873
36082W        W97503  29.175   8.194   0.287
36083W        W97504  34.006  13.180  12.377
36084W        W97505  17.285  41.482  11.518
36085W        W97506   5.929   1.303  11.105
36086W        W97507  20.709  42.468   1.408
36087W        W97508  32.923  10.873   2.294
36088W        W97509  14.292  28.631   2.220
36089W        W97510  18.721   9.743   1.807
36090W        W97511  32.530  18.263   2.832
36091W        W97512  34.605  37.861   1.295
36092W        W97513  21.041   6.200  14.901
36093W        W97514  33.115  18.210   0.852
36094W        W97515  22.066  24.617   2.205
36095W        W97516  25.081  15.328   2.392
36096W        W97517  23.182  25.614   0.424
36097W        W97518  17.669  15.798   1.236
36098W        W97519   5.236   8.211   2.204
36099W        W97520   6.230  31.604   0.732
36100W        W97521   8.684  26.187  11.474
36101W        W97522  43.454  11.800  13.344
36102W        W97523   1.765  44.838   1.732
36103W        W97524   1.922  27.192   4.353
36104W        W97525  12.300  35.370   2.760
36105W        W97526  14.332  32.891   1.879
36106W        W97527  10.832  21.601  14.497
36107W        W97528   7.241  23.495  13.507
36108W        W97529  29.659  31.560  14.918
36109W        W97530   7.271  39.330  13.821
36110W        W97531  11.335  23.698  12.368
36111W        W97532  17.781  36.940  14.940
36112W        W97533  35.421  40.002  10.449
36113W        W97534  18.241  38.967   2.363
36114W        W97535  42.295  35.455   2.735
36115W        W97536  33.426  38.457   2.194
36116W        W97537  19.190  32.081   0.794
36117W        W97538  27.563   2.793   1.749
36118W        W97539  18.120   5.726   0.730
36119W        W97540  42.933  28.172   4.329
36120W        W97541   6.810  33.493  10.610
36121W        W97542  32.124   3.951   4.202
36122W        W97543  40.847  18.054  10.468
36123W        W97544  21.740  21.512   0.903
36124W        W97545   1.771  38.475   3.679
36125W        W97546  42.355  15.315   0.881
36126W        W97547   8.816  41.026   0.475
36127W        W97548  37.926  20.683   1.769
36128W        W97549  31.899  30.909  13.496
36129W        W97550  11.301  25.505  11.608
36130W        W97551  30.467   1.468   3.658
36131W        W97552  33.121  42.426  10.543
36132W        W97553  25.176  41.983  10.427
36133W        W97554   8.219  21.052  10.443
36134W        W97555  34.435  15.791  13.020
36135W        W97556  11.300  26.686   4.641
36136W        W97557   2.820   7.743   1.732
36137W        W97558  19.063  28.574  10.465
36138W        W97559  10.656   4.436  13.444
36139W        W97560  39.494  44.268   4.276
36140W        W97561  32.015  38.459  12.494
36141W        W97562  10.647  27.951   4.745
36142W        W97563  17.234  41.030  10.422
36143W        W97564  30.911  14.626   3.162
36144W        W97565  31.999   7.298  13.349
36145W        W97566  27.497   0.853  11.488
36146W        W97567  36.426  26.044  12.379
36147W        W97568  19.243  38.329   0.880
36148W        W97569  10.315   0.330  13.321
36149W        W97570  14.824  31.106   1.743
36150W        W97571  39.031  44.392  13.026
36151W        W97572   7.270  42.382  12.869
36152W        W97573  22.087  15.705   1.243
36153W        W97574  18.625   7.317   1.779
36154W        W97575  16.282  20.240  11.104
36155W        W97576  23.046   7.673  12.570
36156W        W97577  26.539  41.489   3.638
36157W        W97578  34.899  28.662  12.505
36158W        W97579  44.389  18.632  12.427
36159W        W97580  42.356  25.566  13.033
36160W        W97581  16.280  28.530  10.895
36161W        W97582  17.150  39.823   2.370
36162W        W97583  16.248   2.817   1.281
36163W        W97584  25.068  33.056   3.298
36164W        W97585  22.144  43.918  13.829
36165W        W97586   7.257  28.943  12.067
36166W        W97587   7.851  36.482  14.994
36167W        W97588  24.177  16.574   1.850
36168W        W97589  15.133  12.346   4.707
36169W        W97590  14.721  24.192  13.038
36170W        W97591  39.433   2.732  11.905
36171W        W97592   0.810  41.873  13.051
36172W        W97593  31.982  26.076   4.747
36173W        W97594  39.027   7.903   2.721
36174W        W97595   1.430   6.873   4.620
36175W        W97596   0.778  37.872  13.922
36176W        W97597  21.687  15.775   9.940
36177W        W97598  18.622  36.999  13.831
36178W        W97599  11.673   5.899   1.802
36179W        W97600  32.092   4.336   2.862
36180W        W97601   5.906   4.436  12.085
36181W        W97602  35.468  39.445   0.251
36182W        W97603  18.773  40.864  14.891
36183W        W97604  24.715   6.730   4.344
36184W        W97605  29.969  35.862  14.853
36185W        W97606  14.245  40.433   4.125
36186W        W97607  23.695  10.678  13.883
36187W        W97608  37.371   6.855   2.883
36188W        W97609   3.414   0.837  11.991
36189W        W97610  21.158  20.049  12.093
36190W        W97611  28.040  14.146  13.064
36191W        W97612   9.389  38.875   1.423
36192W        W97613  26.159  31.543   0.251
36193W        W97614  36.352  31.486   4.332
36194W        W97615  12.120  21.169  12.835
36195W        W97616   7.290   1.862  11.059
36196W        W97617   5.334  32.610   3.315
36197W        W97618   2.238  36.926   2.768
36198W        W97619   6.276  44.813   2.895
36199W        W97620  26.179  24.067   3.343
36200W        W97621   4.420  36.403   1.833
36201W        W97622  28.601  24.038  13.391
36202W        W97623  32.466  21.657  12.562
36203W        W97624  10.766  33.049   1.401
36204W        W97625  12.817   1.252  11.056
36205W        W97626  27.626  20.597   3.694
36206W        W97627  12.130  13.264  13.063
36207W        W97628  18.074  16.648  11.119
36208W        W97629  24.139  14.267  13.824
36209W        W97630  27.648   2.726   0.846
36210W        W97631  19.550  23.665  14.822
36211W        W97632  19.533  24.990   1.890
36212W        W97633  39.522  23.632   2.417
36213W        W97634  13.197   0.974  12.411
36214W        W97635  38.037   5.774   2.317
36215W        W97636  21.713  26.049  13.481
36216W        W97637  38.967  10.727   3.204
36217W        W97638  18.069   2.466  13.530
36218W        W97639   1.756   9.333   1.318
36219W        W97640  34.585  36.968  11.440
36220W        W97641  10.761  29.167   3.350
36221W        W97642   8.722  42.411  13.513
36222W        W97643  29.622  25.990  13.308
36223W        W97644  10.146   6.197  14.377
36224W        W97645  18.781  27.498   2.182
36225W        W97646  36.477  38.954  11.945
36226W        W97647  38.343  32.071   1.705
36227W        W97648  23.660  25.037  13.415
36228W        W97649   8.873  12.302  14.406
36229W        W97650   3.421  11.274  10.160
36230W        W97651  27.648  11.630  14.890
36231W        W97652  11.697   2.725  13.402
36232W        W97653  24.063  35.603  14.871
36233W        W97654  43.860  35.981   0.884
36234W        W97655  40.819  35.453   1.357
36235W        W97656  19.591  25.551   2.884
36236W        W97657  34.555  16.631   2.863
36237W        W97658  42.321  38.915  13.537
36238W        W97659  15.644  44.427  13.022
36239W        W97660  20.572  44.786  11.114
36240W        W97661  16.201  12.825   4.307
36241W        W97662  26.110  31.052   2.286
36242W        W97663   7.786   9.849   2.804
36243W        W97664  20.728  18.781   3.278
36244W        W97665  10.254  36.469   0.878
36245W        W97666  32.001  21.641  14.469
36246W        W97667   6.277   3.951   4.235
36247W        W97668  29.643  17.290   4.693
36248W        W97669  22.616  26.620   0.840
36249W        W97670   1.909  25.196   4.267
36250W        W97671  39.380  20.037  13.981
36251W        W97672  27.119  23.133  13.048
36252W        W97673  33.591  12.290  10.042
36253W        W97674  35.898  20.132  12.871
36254W        W97675   3.737   4.937  14.350
36255W        W97676  28.065   6.795  10.462
36256W        W97677  42.490  19.712  10.510
36257W        W97678  29.447  31.996  13.989
36258W        W97679  29.565   5.722  14.016
36259W        W97680   3.388  12.156   2.326
36260W        W97681  41.833  29.949   0.833
36261W        W97682   8.237  43.017  12.478
36262W        W97683  25.552  35.505  10.950
36263W        W97684   1.810  36.097   1.834
36264W        W97685   0.480  10.271  14.512
36265W        W97686  20.204  40.912   2.266
36266W        W97687  12.748  26.994   4.725
36267W        W97688  37.861  14.815  10.521
36268W        W97689  29.035  22.675   3.361
36269W        W97690   2.393  21.579  14.879
36270W        W97691  15.763  37.924   3.699
36271W        W97692   5.283   2.231  10.991
36272W        W97693  28.101   7.759  14.791
36273W        W97694  12.220  12.221   4.221
36274W        W97695  13.334   9.747   2.397
36275W        W97696  17.634  34.066   1.218
36276W        W97697   0.776  12.619   3.667
36277W        W97698  38.922   8.257  11.090
36278W        W97699  24.527  14.618  14.996
36279W        W97700   0.914  44.983  14.483
36280W        W97701   8.776  23.519   4.658
36281W        W97702   1.812  22.590   3.319
36282W        W97703   6.317  20.056  13.460
36283W        W97704   7.204   4.880  11.432
36284W        W97705   1.476  22.695   0.439
36285W        W97706   4.783  19.268  12.357
36286W        W97707  28.466   7.192   1.933
36287W        W97708  44.990  41.438  14.856
36288W        W97709  33.968   2.257   4.158
36289W        W97710  10.382  11.127   4.233
36290W        W97711  16.746   0.919  12.066
36291W        W97712  13.229  11.681  13.032
36292W        W97713  14.153  29.118   5.798
36293W        W97714   0.392  37.011  14.856
36294W        W97715  29.579  22.687  14.786
36295W        W97716  41.835  25.480   4.743
36296W        W97717  21.039  12.277  13.334
36297W        W97718  27.550  12.274   2.382
36298W        W97719   9.172  33.396   2.197
36299W        W97720  12.220   1.897   0.880
36300W        W97721  10.778  38.865   5.567
36301W        W97722  42.002  42.442  13.355
36302W        W97723   6.304  28.083  11.494
36303W        W97724   5.835  36.964   2.320
36304W        W97725   4.755   2.895   3.722
36305W        W97726  37.351  43.918   3.357
36306W        W97727   8.352  25.104  11.488
36307W        W97728  40.508  23.036   1.332
36308W        W97729  34.080   6.257   0.752
36309W        W97730  17.238  40.543  12.577
36310W        W97731  20.522  36.525   4.236
36311W        W97732   4.874  37.458  11.083
36312W        W97733  33.409  37.499  11.380
36313W        W97734  22.186   2.731   1.709
36314W        W97735  34.381  39.851  14.954
36315W        W97736  14.175  36.097  12.938
36316W        W97737  18.707  21.597  10.607
36317W        W97738  13.688  18.656  12.426
36318W        W97739  32.142  11.808  12.044
36319W        W97740  36.584  35.018  11.920
36320W        W97741   9.272  14.834  10.536
36321W        W97742  19.762  40.833  13.836
36322W        W97743  28.608  41.894   1.880
36323W        W97744  34.615  34.595   3.636
36324W        W97745  21.084  44.005  10.482
36325W        W97746   4.267  15.091   4.179
36326W        W97747  37.028  20.539  14.919
36327W        W97748  44.896  34.612   2.273
36328W        W97749  33.954  11.673   3.717
36329W        W97750  34.924  44.429   2.242
36330W        W97751  31.463  42.913   4.254
36331W        W97752  28.171  43.469  12.846
36332W        W97753  31.515  14.170   2.199
36333W        W97754  18.776   0.777   0.834
36334W        W97755  36.057  26.959  14.862
36335W        W97756  27.449  25.693   1.438
36336W        W97757   4.226  20.590   2.186
36337W        W97758  30.002  30.578   2.815
36338W        W97759  19.156   0.351   3.772
36339W        W97760  29.018  11.638  11.034
36340W        W97761   3.452  20.247   2.185
36341W        W97762  31.568   9.261   4.250
36342W        W97763  17.069   5.810   2.376
36343W        W97764  44.987  20.730   2.901
36344W        W97765   3.449  25.043  12.422
36345W        W97766   7.308  15.763   4.299
36346W        W97767  31.076  39.065  13.448
36347W        W97768  19.617  33.454   5.120
36348W        W97769  35.368  35.411  13.403
36349W        W97770  16.161   3.274  14.887
36350W        W97771  16.648   3.328  10.915
36351W        W97772  17.091  40.940  13.450
36352W        W97773  24.017  31.091  12.999
36353W        W97774  21.683  16.571  11.474
36354W        W97775   8.181  20.565  11.609
36355W        W97776   6.689  25.648   5.654
36356W        W97777  29.073  30.920  13.481
36357W        W97778   0.485   5.885  13.004
36358W        W97779  44.485   1.816  12.386
36359W        W97780   3.265  26.180  13.412
36360W        W97781  16.783   3.925  13.389
36361W        W97782  41.295  16.671  12.492
36362W        W97783  27.641  33.066   4.163
36363W        W97784  27.649   1.481  14.314
36364W        W97785  19.771  17.721  14.861
36365W        W97786  12.281  12.689  14.981
36366W        W97787  42.920  32.011   0.322
36367W        W97788   0.271  29.129   3.236
36368W        W97789  31.426  36.850  12.967
36369W        W97790  41.411  26.622  14.414
36370W        W97791  29.457   1.845   3.325
36371W        W97792  43.955  13.288  14.390
36372W        W97793   1.920  35.927   4.787
36373W        W97794  32.464  11.736  12.074
36374W        W97795   5.914   5.713  13.500
36375W        W97796  39.039  26.655   4.735
36376W        W97797  33.523  39.999  14.368
36377W        W97798  18.684  22.683   1.213
36378W        W97799   3.885  18.579   4.638
36379W        W97800   5.388  33.879  14.988
36380W        W97801  30.540  28.164  14.003
36381W        W97802  10.208  22.740  13.513
36382W        W97803  24.480  37.057  13.002
36383W        W97804  20.617  22.212   2.780
36384W        W97805  28.629  41.857  11.428
36385W        W97806   9.288  19.616  13.865
36386W        W97807  39.323  20.622  12.515
36387W        W97808   9.263   4.870   2.800
36388W        W97809  44.367  27.644   1.845
36389W        W97810  22.661  24.504  12.443
36390W        W97811  27.156  13.263  11.542
36391W        W97812   2.305   5.817   9.972
36392W        W97813  42.360   4.429  11.457
36393W        W97814  42.347  14.258   3.705
36394W        W97815   3.753   7.198  12.037
36395W        W97816  23.584  25.563  14.972
36396W        W97817   9.836   1.737   4.222
36397W        W97818   3.354   8.807  13.814
36398W        W97819  44.397  31.488  14.345
36399W        W97820  11.146   0.895   2.407
36400W        W97821  35.989  34.612  11.860
36401W        W97822  42.003  10.672   3.337
36402W        W97823   7.799  38.010  13.981
36403W        W97824   4.718  19.204  13.367
36404W        W97825  31.448   6.762   0.401
36405W        W97826  11.674  17.780   3.824
36406W        W97827  22.681  32.605   4.760
36407W        W97828   4.726   2.288  14.982
36408W        W97829  26.476  12.616   2.220
36409W        W97830  12.314  16.600  13.953
36410W        W97831  38.894  30.621  14.420
36411W        W97832  24.979  37.473  11.016
36412W        W97833  25.604   0.293   1.811
36413W        W97834  20.673  25.085  10.486
36414W        W97835   6.706  10.759   2.696
36415W        W97836   5.916  13.701   0.394
36416W        W97837  32.997   0.368  13.444
36417W        W97838  37.833  33.600  14.449
36418W        W97839   2.834  36.430   0.853
36419W        W97840   2.866   6.376  12.909
36420W        W97841  20.152  37.448   0.838
36421W        W97842  19.748   6.763  14.886
36422W        W97843  40.891  24.979   3.820
36423W        W97844  12.290  35.988   0.894
36424W        W97845  25.619  22.602  11.062
36425W        W97846  21.236  18.117  10.132
36426W        W97847  30.514   5.902  12.445
36427W        W97848   8.389   5.354   1.250
36428W        W97849   8.286   2.780  12.396
36429W        W97850   1.900  18.694  11.452
36430W        W97851   1.348  34.613   4.824
36431W        W97852  16.251  41.441  12.414
36432W        W97853  37.033  33.503  11.586
36433W        W97854  28.989  28.487   3.268
36434W        W97855  23.188  39.489  13.548
36435W        W97856  42.294   2.275   3.156
36436W        W97857  23.699  17.711  11.110
36437W        W97858  31.989  26.604  12.576
36438W        W97859   6.244  16.163  14.945
36439W        W97860  36.986  41.906  12.887
36440W        W97861  21.039  10.696  14.797
36441W        W97862   1.775  32.410   5.189
36442W        W97863  21.516  15.204  12.551
36443W        W97864   2.887   2.260   1.298
36444W        W97865  16.124  10.706   3.864
36445W        W97866  14.176  40.838   0.452
36446W        W97867  10.367  33.449  10.914
36447W        W97868  28.129   3.435  11.589
36448W        W97869  42.907  40.336  10.915
36449W        W97870  27.663  12.721  11.411
36450W        W97871  42.327  16.627   0.244
36451W        W97872   7.729  22.593   2.670
36452W        W97873   7.329  31.462  13.869
36453W        W97874  36.033  25.052   4.236
36454W        W97875   4.443  14.749  12.059
36455W        W97876  24.645  20.724   2.750
36456W        W97877  37.044  35.054   3.211
36457W        W97878  21.034   3.238  14.333
36458W        W97879  41.036  42.458  13.935
36459W        W97880   8.669  23.581   2.807
36460W        W97881  44.991  31.405  13.904
36461W        W97882  12.256   8.294   4.324
36462W        W97883  23.673  36.571   2.888
36463W        W97884  12.616  16.807   3.196
36464W        W97885  37.345  21.179  11.435
36465W        W97886  44.932   5.320  13.390
36466W        W97887  41.950  35.956  11.473
36467W        W97888   7.688  30.148  13.520
36468W        W97889  38.908  21.750   4.124
36469W        W97890  10.835  14.216  10.891
36470W        W97891  34.019  37.988  11.507
36471W        W97892   6.397  39.423  12.035
36472W        W97893  43.428  38.851  12.400
36473W        W97894  20.533  34.889  11.039
36474W        W97895  26.526  20.728   3.764
36475W        W97896  29.465  24.722   4.831
36476W        W97897  21.577  22.562  11.500
36477W        W97898  13.793  39.367  10.970
36478W        W97899   9.374  30.937  14.789
36479W        W97900  30.129   4.363   3.823
36480W        W97901  15.299  30.912   2.814
36481W        W97902  18.632  17.192  10.952
36482W        W97903  18.244  42.807   4.742
36483W        W97904  35.404  19.254   1.918
36484W        W97905  32.460  26.139  11.858
36485W        W97906  28.607  14.226  12.549
36486W        W97907  35.979  11.707   4.722
36487W        W97908  38.385  18.274   1.354
36488W        W97909  29.161  22.083  10.952
36489W        W97910  33.070  42.319  14.836
36490W        W97911  18.754  43.976  12.093
36491W        W97912  16.601  33.620   2.839
36492W        W97913  39.342  33.478  10.481
36493W        W97914   5.284  10.640   1.781
36494W        W97915  40.540  32.965  12.027
36495W        W97916  21.030  14.325  12.543
36496W        W97917  13.714   3.870   0.939
36497W        W97918   9.392   0.346  12.529
36498W        W97919  25.102  43.943  10.515
36499W        W97920   0.933   3.843  12.474
36500W        W97921   4.232   4.881   5.206
36501W        W97922  44.899  18.711  12.080
36502W        W97923  13.728  20.212  10.605
36503W        W97924  18.586  32.503   4.827
36504W        W97925  22.632   5.782  11.965
36505W        W97926   1.374  20.120  10.448
36506W        W97927  34.917   3.375   0.827
36507W        W97928  13.266   2.402  10.498
36508W        W97929  14.824  24.716   3.808
36509W        W97930  43.003  42.907  13.447
36510W        W97931  43.963  42.009   2.350
36511W        W97932  15.329  35.973  10.634
36512W        W97933   5.275  32.897   1.231
36513W        W97934  42.347  34.396   2.842
36514W        W97935   8.386  21.252  13.879
36515W        W97936  13.228  22.615   3.213
36516W        W97937  28.996  43.284   1.828
36517W        W97938  15.637  38.490  13.327
36518W        W97939  34.384  34.499   2.663
36519W        W97940  44.297  28.964  10.092
36520W        W97941   5.780  14.777  13.508
36521W        W97942  32.600  29.104   0.326
36522W        W97943  43.327   6.873  14.940
36523W        W97944  18.225   8.669   1.717
36524W        W97945  20.072  35.890   3.232
36525W        W97946  37.869  18.656   1.405
36526W        W97947   4.712  44.445  14.787
36527W        W97948  10.847  21.251   4.604
36528W        W97949  22.742  29.506   3.259
36529W        W97950  26.199  30.455  11.445
36530W        W97951  25.528  30.439  14.909
36531W        W97952   3.914  39.432  10.492
36532W        W97953   7.801   0.297   5.267
36533W        W97954  14.220  36.570   1.229
36534W        W97955   7.735  27.953  13.512
36535W        W97956  14.624  26.083   4.334
36536W        W97957  33.076  25.192   3.345
36537W        W97958   9.714  26.992   2.669
36538W        W97959  25.996  33.912  14.011
36539W        W97960  16.213   8.727  13.869
36540W        W97961  20.631  11.361   1.433
36541W        W97962  18.109   8.395  12.072
36542W        W97963  44.943  41.835  12.097
36543W        W97964  37.929  42.513   0.818
36544W        W97965  20.681  38.933   1.735
36545W        W97966  42.359   0.400  14.019
36546W        W97967  33.911   2.936  14.500
36547W        W97968  38.992  31.985  14.792
36548W        W97969  33.087   9.871  14.999
36549W        W97970   8.405  15.805  10.967
36550W        W97971  11.184   4.300  12.092
36551W        W97972   4.876   9.665   2.372
36552W        W97973  35.068  36.002  12.087
36553W        W97974  40.441   4.251   1.211
36554W        W97975  38.454  40.022   0.954
36555W        W97976   1.761   1.966   1.340
36556W        W97977  19.285   9.395   0.804
36557W        W97978  44.462  37.973  11.861
36558W        W97979  19.563  22.664   2.743
36559W        W97980  11.696  30.557  10.040
36560W        W97981   9.762  30.003  11.116
36561W        W97982  13.644  42.793   9.973
36562W        W97983   1.750  11.222   3.792
36563W        W97984  24.567  19.711   3.147
36564W        W97985  19.658  33.505  12.563
36565W        W97986  20.202  42.951   3.210
36566W        W97987  33.103  39.345  14.453
36567W        W97988  21.728   8.262   0.246
36568W        W97989   7.275  18.625  13.467
36569W        W97990  23.141  25.988  14.421
36570W        W97991   0.346  37.837  13.897
36571W        W97992  19.674  37.082   2.258
36572W        W97993  43.770  29.088   3.787
36573W        W97994  40.047  28.965  14.973
36574W        W97995   2.951   3.744   0.355
36575W        W97996  23.501  12.801   2.319
36576W        W97997  29.921  37.033   3.316
36577W        W97998   0.873  23.627   4.801
36578W        W97999  21.689  32.947   0.843
36579W        W98000   6.183   1.273  12.892
36580W        W98001  14.336  43.957  14.934
36581W        W98002  33.614  43.000  12.439
36582W        W98003  24.045   3.408  10.914
36583W        W98004   7.368  39.957   2.837
36584W        W98005  15.702   0.388   2.297
36585W        W98006   8.673  41.324  11.572
36586W        W98007  13.744  23.627   2.329
36587W        W98008  31.456  43.512  10.976
36588W        W98009  13.722  26.996   2.744
36589W        W98010  42.282  18.750  14.419
36590W        W98011  39.324  33.952   4.115
36591W        W98012  20.706  42.349  12.899
36592W        W98013  10.670  31.033   3.768
36593W        W98014   5.712  33.458   0.403
36594W        W98015  40.828  35.989   3.176
36595W        W98016  25.059  37.429  14.293
36596W        W98017  24.710  42.470  10.584
36597W        W98018   1.378  37.509  10.968
36598W        W98019  35.526  44.305   4.797
36599W        W98020  33.024   1.757   1.738
36600W        W98021  42.361  32.555  14.355
36601W        W98022  42.425  26.495  13.922
36602W        W98023  25.639  38.869   3.658
36603W        W98024  12.211   3.864   4.634
36604W        W98025  38.906  42.355  14.286
36605W        W98026  12.176  42.857  13.847
36606W        W98027  30.988  25.218  10.598
36607W        W98028  33.028  44.472  14.428
36608W        W98029   1.841  31.149  10.433
36609W        W98030  38.948  23.180  14.442
36610W        W98031  25.990   4.882   2.267
36611W        W98032  20.553  22.090  11.998
36612W        W98033  17.668  37.927   2.294
36613W        W98034   0.282  38.406  11.570
36614W        W98035   8.833  24.528   1.697
36615W        W98036  36.507  10.779   1.852
36616W        W98037   8.898  15.702  12.378
36617W        W98038  39.317  23.569   1.739
36618W        W98039  10.167   0.400  11.559
36619W        W98040  19.559  18.640  12.831
36620W        W98041  34.428  39.005  11.588
36621W        W98042  34.431  29.519   4.186
36622W        W98043   5.436  13.158  13.014
36623W        W98044  27.995  32.421   2.311
36624W        W98045  39.832  24.173   2.284
36625W        W98046  34.448  30.545  12.579
36626W        W98047  41.978  43.280  14.841
36627W        W98048   6.419  19.635  10.534
36628W        W98049  20.197  22.035   4.631
36629W        W98050   9.813  23.732   3.286
36630W        W98051  14.707  38.500  13.475
36631W        W98052  31.053  30.516  14.317
36632W        W98053  18.262  43.290   3.662
36633W        W98054  22.706  35.931  10.951
36634W        W98055   6.255   5.198   2.407
36635W        W98056  27.620   1.831   2.386
36636W        W98057  33.969  36.590   3.825
36637W        W98058  20.653   8.224  10.147
36638W        W98059  17.253  13.197  14.989
36639W        W98060  15.788   0.887   1.881
36640W        W98061  31.529   9.248   0.841
36641W        W98062  32.560   3.353  12.031
36642W        W98063   5.287   6.776  13.453
36643W        W98064   3.747  24.197  11.392
36644W        W98065  24.216  38.488   4.155
36645W        W98066  14.296  10.843   0.479
36646W        W98067  44.927  13.624  10.932
36647W        W98068  16.587  21.736   4.253
36648W        W98069  26.578  15.649   3.338
36649W        W98070  22.165  24.566   3.317
36650W        W98071  42.363  26.042   3.308
36651W        W98072  34.046   7.732  14.996
36652W        W98073  11.653   5.210  10.034
36653W        W98074  30.082  32.504  11.530
36654W        W98075  13.271  18.562   0.758
36655W        W98076  29.485  13.783   5.132
36656W        W98077   7.707  12.280   4.261
36657W        W98078  16.146  41.293   2.369
36658W        W98079  37.468  14.238   3.170
36659W        W98080   9.645  37.013   3.212
36660W        W98081  11.754  30.999   1.362
36661W        W98082  10.190  33.460   1.353
36662W        W98083   4.802  11.203   9.985
36663W        W98084  27.479  26.656  14.428
36664W        W98085  20.540  34.370  14.286
36665W        W98086  28.591  40.342  14.411
36666W        W98087  24.723  19.277  12.932
36667W        W98088   0.790  17.063  14.867
36668W        W98089  41.299  20.589  14.299
36669W        W98090  16.677  44.994   2.687
36670W        W98091   5.203  29.153   2.664
36671W        W98092  11.309  39.903   1.722
36672W        W98093  22.501  23.062  10.575
36673W        W98094  13.686  31.968  13.903
36674W        W98095  42.449  40.035   3.747
36675W        W98096  39.401  33.020  14.980
36676W        W98097  12.227  10.694   4.750
36677W        W98098  26.637   8.264  12.995
36678W        W98099  13.143  42.353  14.909
36679W        W98100  32.455  37.414  11.923
36680W        W98101  14.766  24.978  13.957
36681W        W98102  41.854  39.040  12.491
36682W        W98103  43.498  26.526   3.293
36683W        W98104  41.802  28.608   1.322
36684W        W98105  19.169  12.168  10.090
36685W        W98106   7.327  11.274   2.335
36686W        W98107  16.212  25.511   2.265
36687W        W98108   8.769   3.947  13.792
36688W        W98109  19.589   2.231  12.857
36689W        W98110  23.075  32.098   5.095
36690W        W98111   1.963  33.917   9.989
36691W        W98112  18.123  23.679   3.174
36692W        W98113  18.783  12.338   3.190
36693W        W98114  14.180   4.409   4.229
36694W        W98115  39.983  36.957   0.367
36695W        W98116  33.947  29.535  13.444
36696W        W98117  27.555  31.058  11.911
36697W        W98118  19.150  16.584   1.906
36698W        W98119  14.125  37.835   3.678
36699W        W98120   6.817  17.104   1.778
36700W        W98121  25.545  30.490  11.899
36701W        W98122  11.128   3.810   4.701
36702W        W98123  41.963   5.383   0.325
36703W        W98124  13.131  28.018  14.759
36704W        W98125  39.427  11.821   5.251
36705W        W98126  43.395  32.086  11.515
36706W        W98127  33.920  40.390  12.440
36707W        W98128   4.393  13.614  13.399
36708W        W98129   7.201  23.016   0.404
36709W        W98130  17.263  15.156  11.948
36710W        W98131   9.217   3.331   3.821
36711W        W98132   5.922  12.838   0.472
36712W        W98133  29.590  44.816  14.446
36713W        W98134   4.306   5.927   3.268
36714W        W98135  38.354  32.450   4.603
36715W        W98136  18.065  34.077  12.450
36716W        W98137  44.817  38.844  11.444
36717W        W98138   6.194   0.415  10.137
36718W        W98139   3.286  39.429   0.391
36719W        W98140  34.052   9.661   4.760
36720W        W98141  25.634  33.608  14.378
36721W        W98142  11.626  11.146   2.283
36722W        W98143   8.897   7.194   3.163
36723W        W98144  23.184  24.052  12.909
36724W        W98145  27.504  36.383   0.912
36725W        W98146   7.176  33.061   0.964
36726W        W98147  42.028  44.467   4.207
36727W        W98148   2.860  19.623  13.318
36728W        W98149  42.431  34.079   3.254
36729W        W98150   6.800  40.028  11.379
36730W        W98151  31.624  37.442   5.130
36731W        W98152  17.663  10.634   1.419
36732W        W98153  44.334   4.279   4.610
36733W        W98154  11.722  25.096  12.089
36734W        W98155  14.158  22.638   1.449
36735W        W98156  20.216  21.611   1.906
36736W        W98157  14.675   9.765  10.917
36737W        W98158   0.914  23.046  12.456
36738W        W98159  14.168  31.997   2.698
36739W        W98160   0.461  31.498  11.919
36740W        W98161  32.406  41.363  11.419
36741W        W98162  35.410  25.012   4.635
36742W        W98163  27.948  18.701  14.478
36743W        W98164  27.613   8.328   2.866
36744W        W98165  15.306   0.909   0.901
36745W        W98166  38.552  31.015  13.884
36746W        W98167  43.869  40.859  10.515
36747W        W98168   2.964   6.295   2.255
36748W        W98169  19.103  11.726  11.075
36749W        W98170  15.302   7.205   3.348
36750W        W98171   7.316  43.946  14.861
36751W        W98172  20.698  14.815   3.275
36752W        W98173  44.924   3.254  12.477
36753W        W98174  13.649  32.121  14.409
36754W        W98175  15.242  20.034   3.831
36755W        W98176  36.442  22.243   4.120
36756W        W98177  21.742   3.293  12.923
36757W        W98178  38.832   2.775   0.851
36758W        W98179   4.270   6.389   2.774
36759W        W98180  37.909  13.337   1.822
36760W        W98181   6.850   9.389   0.450
36761W        W98182   7.702  26.565  14.972
36762W        W98183  27.630  18.648  14.374
36763W        W98184  36.447  11.292  13.364
36764W        W98185  12.629  15.670  10.423
36765W        W98186  34.455  14.226  11.891
36766W        W98187  15.090  36.090  11.557
36767W        W98188  18.234  19.682  11.393
36768W        W98189  24.614  12.793   2.230
36769W        W98190   4.938  36.586   5.321
36770W        W98191  41.327   1.414  13.038
36771W        W98192   9.830  42.973   3.721
36772W        W98193   2.289   1.878  13.454
36773W        W98194  14.259  10.381   0.744
36774W        W98195   1.783  41.895  12.468
36775W        W98196   2.366  23.216   5.659
36776W        W98197  32.121   2.365  14.986
36777W        W98198  41.400   7.212  14.988
36778W        W98199  34.095  35.944   0.473
36779W        W98200   9.226   2.777   2.245
36780W        W98201   9.287  15.652   0.277
36781W        W98202  16.609   8.310   4.271
36782W        W98203  33.427  27.096  13.437
36783W        W98204  24.609  37.447   0.812
36784W        W98205   5.818   7.234   3.336
36785W        W98206  18.562  42.327  13.453
36786W        W98207  15.138  30.634  12.408
36787W        W98208   9.235  42.969   1.411
36788W        W98209  28.491  17.204   2.849
36789W        W98210  35.365  34.517   4.215
36790W        W98211  27.007  20.104   4.193
36791W        W98212  12.843  38.884  12.558
36792W        W98213  43.343  24.559   4.337
36793W        W98214  32.947  38.045  12.467
36794W        W98215  42.395  32.030  11.457
36795W        W98216  18.585  20.544   0.904
36796W        W98217  39.531  21.062  10.022
36797W        W98218  43.770   4.906  14.860
36798W        W98219  22.563  35.905   5.183
36799W        W98220  33.106   8.177   3.206
36800W        W98221  24.674  14.210  12.495
36801W        W98222  44.503  29.030  10.538
36802W        W98223  12.681   4.705   1.410
36803W        W98224  15.755  39.062  12.858
36804W        W98225  16.626   7.347   4.639
36805W        W98226   8.253  14.765  14.422
36806W        W98227  41.882  34.563  14.943
36807W        W98228   3.740   4.432   0.770
36808W        W98229  18.208  29.134  13.800
36809W        W98230  22.089  30.505  13.905
36810W        W98231  27.593  23.064   3.258
36811W        W98232  43.449  25.997   3.156
36812W        W98233  31.612   0.979   3.350
36813W        W98234  26.654  18.237  10.445
36814W        W98235  17.596  25.695   1.342
36815W        W98236  18.558  20.251   1.906
36816W        W98237  21.174   5.279   3.819
36817W        W98238  12.614  35.083   2.833
36818W        W98239  26.687  17.682  10.421
36819W        W98240  43.839  38.824  14.388
36820W        W98241  33.481  12.178   4.249
36821W        W98242   3.334  34.532  12.073
36822W        W98243  29.958  17.301  13.404
36823W        W98244  19.171  23.730  10.638
36824W        W98245  19.588  36.572  14.959
36825W        W98246   3.408  21.159   0.281
36826W        W98247  12.210  28.613  13.362
36827W        W98248  11.277  44.347   1.215
36828W        W98249   7.732  24.077   2.811
36829W        W98250  41.842  30.081   3.732
36830W        W98251  26.061  11.342   2.228
36831W        W98252   2.350  19.203   3.371
36832W        W98253  43.953  14.322   4.631
36833W        W98254  37.058  14.312  13.491
36834W        W98255  23.105  43.787   4.167
36835W        W98256  10.281  28.463  11.945
36836W        W98257  15.249  26.054  10.470
36837W        W98258  20.747  36.936   2.325
36838W        W98259  35.937  43.454  14.299
36839W        W98260  30.911  10.864  10.507
36840W        W98261  43.493   0.309   0.815
36841W        W98262   3.908  28.625  12.013
36842W        W98263  35.589  28.125  12.916
36843W        W98264  20.178  33.507   2.845
36844W        W98265  38.397  17.288  14.002
36845W        W98266   5.367  12.203  14.763
36846W        W98267  28.588  12.856  11.609
36847W        W98268  29.060  41.298  14.817
36848W        W98269   4.712  18.545  10.439
36849W        W98270  13.793  44.343  13.876
36850W        W98271  13.256  18.561   1.870
36851W        W98272   3.396  13.660  14.960
36852W        W98273  41.538  17.594  13.958
36853W        W98274  18.743  16.285   4.754
36854W        W98275   2.780  33.936  13.536
36855W        W98276   0.313  25.095   3.233
36856W        W98277  32.052  29.021   3.790
36857W        W98278  35.420  43.007  11.549
36858W        W98279  32.117  15.188  10.898
36859W        W98280  34.943   9.207   1.313
36860W        W98281   1.965  36.540  12.543
36861W        W98282  14.716  28.044  11.414
36862W        W98283  31.919  19.103   2.285
36863W        W98284  13.301   1.788  10.469
36864W        W98285  21.214  22.539  14.944
36865W        W98286   5.401  10.704  12.401
36866W        W98287  36.507  20.104   1.381
36867W        W98288  34.108   7.880  10.926
36868W        W98289   4.286  43.441   4.820
36869W        W98290   8.798  33.432   4.170
36870W        W98291  17.135  23.233   2.689
36871W        W98292  26.670  24.121  12.555
36872W        W98293  23.157  23.067   3.315
36873W        W98294  44.315  30.030   3.807
36874W        W98295  44.283  40.377   2.832
36875W        W98296  38.371  25.663   2.759
36876W        W98297  35.856  28.056  12.950
36877W        W98298  12.125  40.834   2.794
36878W        W98299  17.259  10.191   0.878
36879W        W98300  36.561  12.614   1.726
36880W        W98301  17.105  11.745  12.565
36881W        W98302  40.951  38.881   2.846
36882W        W98303  21.584  12.662   4.796
36883W        W98304  28.931  19.106  12.544
36884W        W98305  31.597   0.493  12.830
36885W        W98306  28.163  19.648   0.368
36886W        W98307   1.809  35.093   4.618
36887W        W98308   8.867  35.989  13.371
36888W        W98309   8.681  20.267  14.364
36889W        W98310  38.400  24.047   4.832
36890W        W98311  19.659  10.731   1.437
36891W        W98312  44.817   1.869  13.439
36892W        W98313  40.917  18.146   0.838
36893W        W98314  42.811   9.652  10.132
36894W        W98315  43.817  21.225   3.155
36895W        W98316   4.910   6.256  11.493
36896W        W98317  21.086  16.748   4.314
36897W        W98318   7.787  26.994   9.994
36898W        W98319  40.415   4.258   2.317
36899W        W98320   7.822  30.953   4.114
36900W        W98321   8.758  23.691  13.877
36901W        W98322  27.020  27.595  14.348
36902W        W98323  41.466  28.058  13.024
36903W        W98324  19.067   9.219  14.322
36904W        W98325  13.750   9.723  11.585
36905W        W98326  18.293  25.620   1.349
36906W        W98327  33.101  19.228  14.785
36907W        W98328  21.098   5.736   0.287
36908W        W98329  18.580  41.034   3.860
36909W        W98330  25.488  41.535  14.828
36910W        W98331  29.066  29.578   2.816
36911W        W98332  31.124  40.913  10.935
36912W        W98333  21.123  42.316   4.234
36913W        W98334   7.279  30.930  14.967
36914W        W98335   7.731  25.613  10.902
36915W        W98336  22.569  34.415   2.294
36916W        W98337   1.927  22.648  11.402
36917W        W98338  17.628   8.852  10.635
36918W        W98339  28.966  28.035  14.396
36919W        W98340  41.003  34.958   0.961
36920W        W98341  36.570  11.784  10.930
36921W        W98342   9.237  27.162  13.324
36922W        W98343  42.983   1.905  10.559
36923W        W98344  34.104  43.936  13.523
36924W        W98345  43.810  32.923   2.894
36925W        W98346  10.196  18.742  14.386
36926W        W98347   4.847  10.748  12.570
36927W        W98348  28.536  37.341   1.770
36928W        W98349  29.007  34.580   4.143
36929W        W98350  29.646  43.918   4.833
36930W        W98351  23.558  27.034   3.776
36931W        W98352   2.423  36.361   2.347
36932W        W98353  19.660  41.373  12.560
36933W        W98354  31.965  16.762   4.304
36934W        W98355  32.499  16.147  14.315
36935W        W98356  40.933  13.151  14.807
36936W        W98357  42.338  22.064  10.601
36937W        W98358  18.115  12.324   5.096
36938W        W98359  28.471   9.693   2.849
36939W        W98360  22.163  11.677  13.900
36940W        W98361   0.360  14.632  11.543
36941W        W98362   7.340  22.210  11.047
36942W        W98363   1.961   6.903  12.979
36943W        W98364   2.915  32.921  12.019
36944W        W98365  13.809   7.667   2.216
36945W        W98366  37.513  30.942   2.902
36946W        W98367  32.619  24.025   1.311
36947W        W98368   4.775  27.019   4.308
36948W        W98369  29.445  19.573   1.217
36949W        W98370   8.323  34.111  13.903
36950W        W98371  19.576  16.103  12.525
36951W        W98372  15.245   7.704  10.484
36952W        W98373  15.209  24.227   3.631
36953W        W98374  20.718  42.955   4.161
36954W        W98375  15.633  31.579   9.483
36955W        W98376   8.664  13.622   0.914
36956W        W98377  44.816  23.666   3.288
36957W        W98378   0.435  10.160  12.491
36958W        W98379   7.853   6.185  12.827
36959W        W98380  30.608  29.079  13.858
36960W        W98381  33.905  30.922  14.389
36961W        W98382  22.027  17.790  11.880
36962W        W98383  30.053  39.873  14.782
36963W        W98384  25.118  33.049   0.787
36964W        W98385  33.041  43.272   3.347
36965W        W98386  10.652  39.045  12.515
36966W        W98387   4.395  24.223  12.536
36967W        W98388  24.090  28.986  14.292
36968W        W98389  25.007  33.610   1.917
36969W        W98390  32.989  25.606   3.291
36970W        W98391  33.969  44.411  12.951
36971W        W98392   8.781  40.912  14.793
36972W        W98393  31.554  10.754   2.765
36973W        W98394  18.277   4.918  11.975
36974W        W98395  39.844  41.838   4.835
36975W        W98396  40.362  31.082   4.163
36976W        W98397   6.778  20.608  13.940
36977W        W98398   3.263  40.992  13.898
36978W        W98399   5.767  36.063   1.408
36979W        W98400  24.509  31.478  12.479
36980W        W98401  38.499  35.389   1.222
36981W        W98402  38.432  10.164  12.959
36982W        W98403  23.086  39.560   3.701
36983W        W98404  15.085  15.745  10.107
36984W        W98405  32.584  21.667   2.862
36985W        W98406  38.344  36.414  14.364
36986W        W98407  30.983  15.684  11.034
36987W        W98408   2.726   8.358  10.443
36988W        W98409   8.196   0.900   1.732
36989W        W98410  19.055  25.568  10.890
36990W        W98411  35.058  37.483   5.151
36991W        W98412  37.393   7.246  12.906
36992W        W98413  11.719  28.088   4.676
36993W        W98414  20.161   3.453  10.918
36994W        W98415   1.436   7.350  14.407
36995W        W98416  15.626  21.156  10.528
36996W        W98417   9.332   7.387  13.907
36997W        W98418  15.581  43.427   2.859
36998W        W98419  35.487  45.000   0.873
36999W        W98420  22.537  28.641   2.257
37000W        W98421   6.324   2.248   2.750
37001W        W98422  39.010   1.346   1.709
37002W        W98423  16.117   6.841   2.268
37003W        W98424  29.603  37.870   3.674
37004W        W98425  42.887  31.095   2.229
37005W        W98426  28.962  10.643   3.677
37006W        W98427  42.938  39.991  14.991
37007W        W98428  17.229   4.942   4.798
37008W        W98429   1.910  43.465   2.326
37009W        W98430  43.451   2.420  10.586
37010W        W98431   5.360   3.773  10.915
37011W        W98432  28.491  17.648  13.983
37012W        W98433  24.984  40.881   2.850
37013W        W98434   8.712  32.503  12.438
37014W        W98435  44.261   9.708   2.372
37015W        W98436  17.643  27.044  13.367
37016W        W98437   9.256  44.768   0.952
37017W        W98438   0.979  44.388  12.859
37018W        W98439   9.194  29.451  10.543
37019W        W98440   8.811   8.711  14.484
37020W        W98441  40.511   9.373   4.266
37021W        W98442   7.740  17.239   4.160
37022W        W98443   2.859  36.527   1.850
37023W        W98444   8.293  21.084   3.637
37024W        W98445  30.916   9.859   1.792
37025W        W98446  25.078  26.142   3.247
37026W        W98447  44.815  23.084  10.428
37027W        W98448  25.117  16.140   1.703
37028W        W98449  38.963  13.224  11.435
37029W        W98450  11.161  32.114   9.956
37030W        W98451  26.971  32.044  10.573
37031W        W98452  21.210   4.921  11.524
37032W        W98453  30.031   9.696   2.730
37033W        W98454   3.236  32.951   0.895
37034W        W98455   9.678  20.715   4.182
37035W        W98456  10.160  20.680   4.179
37036W        W98457   0.743  38.560  12.998
37037W        W98458  38.051   3.890   2.330
37038W        W98459  21.251  38.361  11.112
37039W        W98460  25.633  29.670  13.455
37040W        W98461  25.485   8.873  13.041
37041W        W98462  17.596  16.107  14.926
37042W        W98463  34.032  32.526   0.933
37043W        W98464   0.311  35.900   0.926
37044W        W98465  23.153  28.647   1.731
37045W        W98466  14.720   9.751   0.772
37046W        W98467  32.114  31.559  11.865
37047W        W98468   6.803  13.690   4.296
37048W        W98469  10.701  40.309  10.432
37049W        W98470  40.837  25.699   4.304
37050W        W98471  43.826  19.617  10.419
37051W        W98472  18.275  28.043   1.404
37052W        W98473  12.308  12.808   1.326
37053W        W98474  42.293  37.338  11.017
37054W        W98475  39.529  40.489   2.336
37055W        W98476  29.438  19.576  11.393
37056W        W98477  39.544   6.424  14.333
37057W        W98478  32.412   8.249  11.060
37058W        W98479  15.698  42.824  10.051
37059W        W98480  33.426   0.417   0.803
37060W        W98481  15.736  18.278   1.833
37061W        W98482  41.834   3.803   4.681
37062W        W98483  36.917  11.795   0.897
37063W        W98484  22.544   3.219   1.261
37064W        W98485  31.010   9.227  13.438
37065W        W98486  16.188  38.912  11.597
37066W        W98487  43.302  36.392   3.312
37067W        W98488  31.644  25.041  11.031
37068W        W98489  14.100  20.558   4.622
37069W        W98490  16.132  16.724  13.335
37070W        W98491  11.702  34.450   1.714
37071W        W98492   7.262  42.328   4.733
37072W        W98493  40.006  30.537  11.075
37073W        W98494  24.177  42.012  11.412
37074W        W98495  28.143  11.815   1.407
37075W        W98496  19.548  31.008   4.773
37076W        W98497   8.203  17.089   3.229
37077W        W98498  25.692  36.843   1.922
37078W        W98499  31.549   5.817  10.569
37079W        W98500  33.929   6.271   2.415
37080W        W98501  36.569   8.254  12.994
37081W        W98502   5.934  30.991  14.995
37082W        W98503  14.794  19.734  10.452
37083W        W98504  16.657  33.512  11.125
37084W        W98505   0.272   4.823  11.482
37085W        W98506  10.148   7.236  14.384
37086W        W98507   5.200  20.200  14.996
37087W        W98508  44.374  25.200  12.513
37088W        W98509  27.448   2.371   2.864
37089W        W98510  38.342  20.157  11.403
37090W        W98511  15.728  33.417  12.086
37091W        W98512  26.495  22.204   0.466
37092W        W98513  38.056  33.896   2.269
37093W        W98514  35.862  40.358   0.924
37094W        W98515  15.722   0.914   4.322
37095W        W98516  25.158  17.235  14.857
37096W        W98517  35.072  27.963   5.156
37097W        W98518   6.815  19.217   1.882
37098W        W98519  15.601  20.228  11.530
37099W        W98520  13.664  16.248   4.352
37100W        W98521  44.876  36.974   0.481
37101W        W98522  22.064  40.006   3.350
37102W        W98523   3.358   4.343   0.832
37103W        W98524  25.166  35.073   4.256
37104W        W98525  43.466  15.606   5.150
37105W        W98526  21.721  25.102  10.904
37106W        W98527  23.515  27.559   1.423
37107W        W98528  43.363   2.731   3.759
37108W        W98529  42.407  20.219  13.960
37109W        W98530   9.209  10.783   4.248
37110W        W98531  34.950   6.829   3.753
37111W        W98532   7.828  34.002  11.441
37112W        W98533  28.558  35.927   0.361
37113W        W98534  21.626  24.573  14.427
37114W        W98535  32.585  29.964  13.039
37115W        W98536  13.684  17.792   3.831
37116W        W98537  19.552   1.796  10.584
37117W        W98538  33.511  14.772   1.741
37118W        W98539  42.989  43.916  14.341
37119W        W98540  24.573  30.538  10.446
37120W        W98541  38.389  20.058   1.928
37121W        W98542  27.962  40.356  13.514
37122W        W98543  30.123  17.654   1.935
37123W        W98544   8.195  35.980   1.261
37124W        W98545  18.781  31.150  13.376
37125W        W98546  27.986  10.239   3.289
37126W        W98547  42.844  29.617  10.413
37127W        W98548  17.114  13.346  12.560
37128W        W98549  15.739  30.415  14.947
37129W        W98550  29.638  43.314   3.674
37130W        W98551   0.946  43.924  13.913
37131W        W98552  12.324  43.467  11.502
37132W        W98553   5.379  36.944  14.348
37133W        W98554  35.871  31.456   1.381
37134W        W98555  26.583  37.074  14.506
37135W        W98556   3.864   9.389  11.083
37136W        W98557  32.502  15.180  10.987
37137W        W98558   8.314   3.925  11.983
37138W        W98559  14.166  20.064   3.372
37139W        W98560  36.856  39.408  12.080
37140W        W98561  39.498  27.547  14.395
37141W        W98562  35.384  26.616  11.535
37142W        W98563  13.643  27.983  12.925
37143W        W98564  29.654  16.243  10.888
37144W        W98565  22.630   6.417  11.395
37145W        W98566  35.436  27.644  11.471
37146W        W98567   0.953   1.449  13.520
37147W        W98568   5.765  25.641   9.647
37148W        W98569  44.429   0.876  13.433
37149W        W98570  24.682  10.740  14.829
37150W        W98571  33.118  19.754   3.702
37151W        W98572  31.983   3.285   0.901
37152W        W98573  11.234  30.558  10.523
37153W        W98574  20.230   6.200  11.510
37154W        W98575  31.897  22.013  12.569
37155W        W98576  26.030  25.483  11.409
37156W        W98577  27.633  35.459  11.377
37157W        W98578   5.692   0.257   4.227
37158W        W98579   6.865  39.955  12.573
37159W        W98580  13.164  41.830   1.766
37160W        W98581  22.640  44.917   0.794
37161W        W98582  20.621  41.010   2.233
37162W        W98583   5.907  31.021  10.457
37163W        W98584  21.194  40.849  11.404
37164W        W98585   3.791  38.449   4.601
37165W        W98586  20.091  11.272   1.386
37166W        W98587   3.316  23.628   3.738
37167W        W98588  21.747  11.217   3.669
37168W        W98589  24.519  23.155   2.347
37169W        W98590  27.486   4.380  14.770
37170W        W98591  29.161  21.706  14.932
37171W        W98592  24.135  29.531  11.921
37172W        W98593  43.433  11.140   3.237
37173W        W98594  36.935  26.688   3.161
37174W        W98595  23.057   8.255  13.827
37175W        W98596  19.149  28.602  13.932
37176W        W98597  16.228   9.778  10.640
37177W        W98598   8.281  18.183   4.716
37178W        W98599   0.464  15.257   2.664
37179W        W98600  28.127  39.385  12.499
37180W        W98601  20.161   9.745  11.069
37181W        W98602  31.130  21.202   4.312
37182W        W98603  32.605  44.985   1.880
37183W        W98604  20.098   5.913  14.810
37184W        W98605   8.793  17.175   2.890
37185W        W98606  27.117  33.035  14.307
37186W        W98607  36.885   9.654  14.782
37187W        W98608   9.890   6.788  14.302
37188W        W98609   6.723  11.221  11.549
37189W        W98610  41.963   1.256  14.395
37190W        W98611  33.079  39.333   3.688
37191W        W98612  43.345   9.338  14.465
37192W        W98613  44.938   7.326  14.772
37193W        W98614  30.606  34.462  12.982
37194W        W98615  28.453  44.782  11.433
37195W        W98616  43.902  29.085   0.859
37196W        W98617  40.480  15.150  12.035
37197W        W98618   7.831  33.013  11.409
37198W        W98619  35.463  44.872   4.810
37199W        W98620  43.772  43.979   3.193
37200W        W98621  25.995  27.039  13.047
37201W        W98622  14.669  27.179   1.880
37202W        W98623  23.605  34.926   0.456
37203W        W98624  29.946   3.786  12.416
37204W        W98625  28.007  14.180   0.902
37205W        W98626  23.210  37.011  14.928
37206W        W98627  39.959   4.859  11.502
37207W        W98628  37.361  22.717   0.478
37208W        W98629  33.434  41.997   3.794
37209W        W98630   3.455  29.992  13.373
37210W        W98631  44.333  25.616   1.440
37211W        W98632  41.435   1.284   0.358
37212W        W98633  16.705  44.880   0.399
37213W        W98634  40.907  10.753   0.416
37214W        W98635   3.430  14.119   2.357
37215W        W98636   6.374  14.647   2.186
37216W        W98637  26.636  40.903   0.900
37217W        W98638  27.188   5.796  11.899
37218W        W98639   0.890  23.074  13.979
37219W        W98640   0.743   1.421   0.377
37220W        W98641  41.805  12.638  12.346
37221W        W98642  28.061   4.320   0.347
37222W        W98643  34.568  17.756   4.662
37223W        W98644  33.477  12.305   9.607
37224W        W98645   0.947  12.128  13.359
37225W        W98646  22.204  31.415   1.267
37226W        W98647  34.534   6.908   4.810
37227W        W98648  24.640  37.051  13.976
37228W        W98649  21.636   8.686   5.205
37229W        W98650   6.900  32.508  10.423
37230W        W98651  20.064  22.744  12.944
37231W        W98652  17.275  27.593  13.927
37232W        W98653  43.012  25.163   3.838
37233W        W98654  20.135   7.888  14.959
37234W        W98655  42.783  10.653   4.195
37235W        W98656   0.337  41.301  14.382
37236W        W98657  32.436   5.891  10.986
37237W        W98658  33.417  26.969   1.933
37238W        W98659  10.262  29.518   2.856
37239W        W98660  17.581  33.509   4.623
37240W        W98661  36.536  15.802  14.959
37241W        W98662  23.018  19.198  12.417
37242W        W98663   3.844  14.150  10.889
37243W        W98664  16.203  17.572  10.975
37244W        W98665  42.780  21.051   5.299
37245W        W98666  32.079   2.400  11.597
37246W        W98667   1.326  11.211   0.272
37247W        W98668  19.554  41.012   0.806
37248W        W98669  15.323  21.098   2.309
37249W        W98670  20.028   1.325   4.598
37250W        W98671   9.292  29.483   3.822
37251W        W98672  39.542   3.449   2.324
37252W        W98673   9.318  18.215   0.403
37253W        W98674  41.816  42.989   5.317
37254W        W98675  11.762  19.041  11.596
37255W        W98676   6.705  12.268  12.357
37256W        W98677  21.650  40.509  10.917
37257W        W98678  41.491  22.713   3.676
37258W        W98679  25.965  41.505  10.516
37259W        W98680  33.938  19.658   4.351
37260W        W98681  39.842   8.235   4.155
37261W        W98682  11.740  10.766  14.959
37262W        W98683  20.630   2.450   3.815
37263W        W98684  23.995  32.953   0.900
37264W        W98685  21.645  25.659   2.887
37265W        W98686  32.092  23.718   1.324
37266W        W98687  15.187  20.612   1.400
37267W        W98688  44.457  12.278   0.816
37268W        W98689  43.506  34.608   0.447
37269W        W98690  17.705  29.120   4.310
37270W        W98691  34.466  33.012   2.349
37271W        W98692  29.432  15.158  14.513
37272W        W98693  29.637  39.533  13.005
37273W        W98694   8.236  28.571   3.270
37274W        W98695   4.876  29.116   0.763
37275W        W98696  15.585   1.248   3.262
37276W        W98697  16.314  29.655  11.866
37277W        W98698  32.502  31.545  14.434
37278W        W98699  43.844  20.570  14.450
37279W        W98700  44.903  19.575  12.877
37280W        W98701  23.571   0.326  12.854
37281W        W98702  24.994  36.419  14.883
37282W        W98703   4.208  11.365   2.783
37283W        W98704  32.967  28.100  13.317
37284W        W98705  28.068  32.446  11.874
37285W        W98706   3.339  41.875   5.268
37286W        W98707   5.248  34.596   1.393
37287W        W98708   6.851  19.648   3.270
37288W        W98709  31.118  34.515  10.908
37289W        W98710  22.726  18.295   4.167
37290W        W98711  43.310  44.775   4.699
37291W        W98712  33.078  25.177   0.442
37292W        W98713  30.105  28.468  13.990
37293W        W98714   7.261  15.660  11.093
37294W        W98715  37.997  37.548   4.767
37295W        W98716  41.360  24.193   2.891
37296W        W98717   6.290  27.604  13.973
37297W        W98718  23.164   0.792   3.674
37298W        W98719  26.694  32.625  11.419
37299W        W98720  28.650  13.340   2.880
37300W        W98721   0.887  38.503   4.300
37301W        W98722  33.968  18.699  11.925
37302W        W98723  18.571   7.417  11.507
37303W        W98724  34.394  13.302   4.345
37304W        W98725  37.059  20.524   2.209
37305W        W98726  35.412  29.041  10.645
37306W        W98727  29.431  36.942  13.420
37307W        W98728  36.360  31.078  10.499
37308W        W98729  33.453  24.547   2.303
37309W        W98730   1.850  27.685   3.301
37310W        W98731   1.916   1.333  13.844
37311W        W98732  15.182  11.163  12.888
37312W        W98733   0.854  35.513  14.399
37313W        W98734  29.166  34.885   0.483
37314W        W98735  39.989  41.321  13.329
37315W        W98736   3.363  38.018  13.362
37316W        W98737  25.160  24.040   1.904
37317W        W98738  36.919   8.876   2.303
37318W        W98739  16.126  43.359   0.794
37319W        W98740  12.680  31.419   2.342
37320W        W98741  37.384   5.345   2.364
37321W        W98742  24.595  13.197  13.451
37322W        W98743   2.859  30.470   1.905
37323W        W98744  23.554  11.208  14.990
37324W        W98745  30.479  40.857   4.692
37325W        W98746   1.411  30.600  12.918
37326W        W98747  23.529   7.785  13.313
37327W        W98748  32.915  36.093  13.467
37328W        W98749  44.894   3.409  12.936
37329W        W98750  20.610  39.869  11.891
37330W        W98751  28.095   1.245  14.951
37331W        W98752  16.806   6.814   1.266
37332W        W98753  24.708  13.122  11.434
37333W        W98754  19.117  11.198   2.844
37334W        W98755  30.129  35.544  11.053
37335W        W98756  35.073   7.384   1.396
37336W        W98757  26.598  37.437   3.677
37337W        W98758   1.900  12.117   0.836
37338W        W98759  29.144  10.745   4.328
37339W        W98760  36.089  11.345  10.538
37340W        W98761   1.242  43.370  14.826
37341W        W98762  18.554  15.777  13.334
37342W        W98763  10.814  44.448   0.942
37343W        W98764  29.061  14.098   0.440
37344W        W98765  12.312  11.857  11.527
37345W        W98766  20.146   5.809   0.364
37346W        W98767  10.646  31.987   4.230
37347W        W98768  27.163  26.179   4.737
37348W        W98769  18.623   3.442  10.588
37349W        W98770  31.126  37.416   4.759
37350W        W98771  18.646  35.962   5.230
37351W        W98772  32.889   6.884  13.529
37352W        W98773  15.222   8.368  14.929
37353W        W98774   5.194  13.794  14.428
37354W        W98775  37.472  33.000   1.295
37355W        W98776  17.175  11.845  14.315
37356W        W98777   2.734  21.112   0.952
37357W        W98778   3.390  42.294  12.972
37358W        W98779   1.337  25.510  12.411
37359W        W98780  22.635   8.242  11.873
37360W        W98781  12.667   8.737   0.466
37361W        W98782   9.216  16.681   0.847
37362W        W98783   4.892   1.862  14.407
37363W        W98784   1.880  18.208  10.497
37364W        W98785  22.211  35.550  11.007
37365W        W98786   3.802  38.486   0.280
37366W        W98787  24.196  28.151   4.664
37367W        W98788   7.735  28.557   4.207
37368W        W98789  14.158   2.921  14.903
37369W        W98790  13.790  24.116  11.522
37370W        W98791  12.195   8.259  12.395
37371W        W98792   4.886   4.943   2.342
37372W        W98793  41.819  11.657  12.447
37373W        W98794   3.319  16.692  10.616
37374W        W98795  40.885  11.804   5.797
37375W        W98796  32.985  22.516  11.982
37376W        W98797  14.604  20.107   2.817
37377W        W98798  44.443  36.845   2.277
37378W        W98799  35.443  23.566   4.781
37379W        W98800  12.230  42.426   4.216
37380W        W98801  15.795  28.027   3.251
37381W        W98802  24.192  32.429   4.266
37382W        W98803   4.870  15.824   5.247
37383W        W98804   8.222  42.301   4.687
37384W        W98805   9.885  23.989   3.151
37385W        W98806   0.797  18.593   1.705
37386W        W98807  18.295  11.277  13.908
37387W        W98808  12.698  28.496   2.330
37388W        W98809   2.723  43.941  10.423
37389W        W98810  24.539  38.997   1.761
37390W        W98811  26.186   2.410   3.246
37391W        W98812  32.604   4.337  11.088
37392W        W98813  30.996   1.240  14.885
37393W        W98814   1.905   8.841  13.333
37394W        W98815  31.988  26.672  13.477
37395W        W98816   8.889  27.636   1.804
37396W        W98817   7.782  36.077   4.329
37397W        W98818   4.273   8.395  12.902
37398W        W98819  17.218  21.535   3.252
37399W        W98820  17.595  34.974   3.704
37400W        W98821   2.807  25.985  13.007
37401W        W98822  15.804  44.009   0.441
37402W        W98823   8.793   6.222   3.763
37403W        W98824  20.635  39.006   2.225
37404W        W98825  17.177   5.365   4.643
37405W        W98826   6.204   2.873   9.977
37406W        W98827  36.371  36.425   2.851
37407W        W98828   2.757  16.181   0.886
37408W        W98829   0.904  15.822   5.143
37409W        W98830  39.902  27.539   3.827
37410W        W98831   5.245   7.870   4.804
37411W        W98832  37.077  23.567   3.319
37412W        W98833  33.506  28.138   1.436
37413W        W98834  27.187  39.381   4.135
37414W        W98835  11.829  18.597  14.500
37415W        W98836  24.704  27.037  13.966
37416W        W98837  23.177   9.710   2.816
37417W        W98838  31.629  27.955   1.926
37418W        W98839   2.950  27.460  11.372
37419W        W98840  23.584   7.233  14.352
37420W        W98841  12.845   1.253   2.317
37421W        W98842  20.144   5.256   3.825
37422W        W98843   1.458  28.058   1.303
37423W        W98844  34.980  15.587   1.770
37424W        W98845   0.288   5.834  10.624
37425W        W98846   4.219   5.430  14.968
37426W        W98847  13.683  24.035  14.969
37427W        W98848  33.569  40.987  14.288
37428W        W98849  36.042   3.885  10.085
37429W        W98850  23.128  14.219   3.858
37430W        W98851  13.734  18.787   4.808
37431W        W98852   4.871  40.405   4.211
37432W        W98853   0.789   0.753   4.326
37433W        W98854   8.808  36.522   3.747
37434W        W98855  33.035  18.087  12.095
37435W        W98856  37.042   1.442   2.897
37436W        W98857  23.681  27.585   1.721
37437W        W98858  15.231  33.566   4.179
37438W        W98859  34.599  37.538   4.277
37439W        W98860   5.776   5.348  11.895
37440W        W98861   6.220  18.102   0.854
37441W        W98862   4.437  15.698   2.208
37442W        W98863  24.227  11.848  12.025
37443W        W98864  26.664   2.245   2.794
37444W        W98865   2.928  23.152  11.979
37445W        W98866  41.416   9.784  12.534
37446W        W98867  41.300  10.666  11.559
37447W        W98868  15.771  13.792   0.317
37448W        W98869  43.395  40.921   1.719
37449W        W98870  18.055  10.876  14.455
37450W        W98871  43.895  27.647  11.048
37451W        W98872  44.339  37.882  11.450
37452W        W98873  13.695  41.801   0.752
37453W        W98874   4.363  39.333  13.910
37454W        W98875  42.365  33.526  10.601
37455W        W98876  30.626  20.212  11.052
37456W        W98877  13.845  44.948   4.803
37457W        W98878   4.431   8.264  11.414
37458W        W98879  27.998  18.267  11.435
37459W        W98880   2.921   9.756   0.284
37460W        W98881  43.791  22.241   2.205
37461W        W98882  36.933   7.713  12.040
37462W        W98883  10.240  24.047  13.988
37463W        W98884  14.647   8.325   4.671
37464W        W98885  18.114  30.160  14.378
37465W        W98886  13.787  42.014  11.547
37466W        W98887  30.974  10.325   2.742
37467W        W98888  34.003  32.124   1.402
37468W        W98889  44.491   0.310   2.285
37469W        W98890  11.855   8.845   3.244
37470W        W98891  19.241  21.736   4.788
37471W        W98892  28.466  23.992  11.862
37472W        W98893  41.804   0.941  11.890
37473W        W98894   3.812  34.530  12.381
37474W        W98895   4.321  42.473  14.837
37475W        W98896   5.262  23.155  10.440
37476W        W98897  22.095  27.485   0.775
37477W        W98898  18.674  34.085  14.798
37478W        W98899   5.312  29.965   2.785
37479W        W98900  40.427  15.765   9.469
37480W        W98901   8.382  12.781   3.696
37481W        W98902  20.766   4.316   3.695
37482W        W98903  17.249  13.638   3.271
37483W        W98904  12.813   3.828  10.499
37484W        W98905  14.778  11.868   1.298
37485W        W98906  31.596  37.523   4.712
37486W        W98907  36.410  31.958   1.926
37487W        W98908  20.190  34.574  14.015
37488W        W98909  28.496   7.887   3.733
37489W        W98910  23.495  44.765  10.587
37490W        W98911  41.791  18.781   1.314
37491W        W98912   6.329   8.725   0.454
37492W        W98913  38.896   6.810   1.285
37493W        W98914  37.857  32.540   3.838
37494W        W98915   9.266  30.571   2.200
37495W        W98916  14.295  22.718   3.233
37496W        W98917   7.720  43.900   0.732
37497W        W98918   5.746  38.348  12.856
37498W        W98919   5.333  31.507  12.495
37499W        W98920  35.910  19.149   1.213
37500W        W98921  27.190   4.432   2.211
37501W        W98922  13.315  23.660  11.961
37502W        W98923  36.537  20.602   0.784
37503W        W98924  32.486   2.760  12.457
37504W        W98925  19.592  24.509   1.816
37505W        W98926  17.295  15.701   4.321
37506W        W98927   7.774   1.875   1.858
37507W        W98928   8.344   1.826  11.597
37508W        W98929  28.449   4.932  13.850
37509W        W98930   5.396  13.286  14.499
37510W        W98931  22.217   3.279   1.735
37511W        W98932  14.229  39.038   2.230
37512W        W98933  41.497  13.708   2.768
37513W        W98934  15.685  38.565   2.336
37514W        W98935  36.569  44.459  10.434
37515W        W98936  31.524  25.610   3.729
37516W        W98937  22.196  23.531  11.952
37517W        W98938  34.505   0.429   9.987
37518W        W98939   8.185   2.295  13.052
37519W        W98940   7.322  17.158   0.483
37520W        W98941  32.906  43.335  10.970
37521W        W98942  21.517   8.899  12.011
37522W        W98943  30.001  38.869   2.299
37523W        W98944  42.478   9.314  14.913
37524W        W98945  41.462  43.801  12.993
37525W        W98946  12.360  34.986   4.814
37526W        W98947  16.632   2.751  13.930
37527W        W98948  43.293  32.102   3.206
37528W        W98949  12.188  21.607   3.264
37529W        W98950  34.591   6.343  11.523
37530W        W98951  33.047  11.819  12.478
37531W        W98952  29.515  44.455  11.575
37532W        W98953  21.647  37.547  10.407
37533W        W98954  36.508   9.701  12.907
37534W        W98955  40.888  27.022   2.792
37535W        W98956  26.646  14.827   3.237
37536W        W98957  38.475  28.680  14.952
37537W        W98958  32.117  15.280  10.622
37538W        W98959  11.831  43.011  10.485
37539W        W98960  39.456  44.869   1.774
37540W        W98961  41.384  15.616  14.919
37541W        W98962  39.928  17.156   4.767
37542W        W98963  11.630  26.519   3.851
37543W        W98964  14.275  26.024   3.217
37544W        W98965  19.585  38.905   1.255
37545W        W98966   5.890   7.180  12.360
37546W        W98967   7.851  11.165  12.534
37547W        W98968  14.746  11.250   0.785
37548W        W98969  32.930   5.404   3.649
37549W        W98970   6.856  12.236   2.300
37550W        W98971  38.886  11.852   2.664
37551W        W98972  29.154  36.849  11.398
37552W        W98973  42.524  38.395   1.245
37553W        W98974   5.852  12.336   0.382
37554W        W98975  26.201  17.114  12.428
37555W        W98976  39.840  23.006  13.826
37556W        W98977  28.554  24.125  14.487
37557W        W98978  12.697  32.099  12.453
37558W        W98979  12.804  41.917   0.796
37559W        W98980  35.425  22.691   4.760
37560W        W98981   9.239  10.832  13.831
37561W        W98982  32.930  29.997   4.246
37562W        W98983  31.411  22.644  14.895
37563W        W98984  17.636  10.670   0.469
37564W        W98985  39.380  16.696  14.791
37565W        W98986  15.753  17.637  11.438
37566W        W98987  17.249  18.053   2.789
37567W        W98988  21.021  35.519  12.486
37568W        W98989  39.532   6.765   4.695
37569W        W98990  40.943  39.836   1.434
37570W        W98991  28.543  33.937  12.963
37571W        W98992  28.489  16.572   0.334
37572W        W98993  11.188   6.724   1.820
37573W        W98994  34.968  40.919  14.899
37574W        W98995  32.561   1.900  10.100
37575W        W98996   4.358  17.265  12.488
37576W        W98997   9.192  33.029   0.388
37577W        W98998  18.669  25.584  10.607
37578W        W98999  12.168  31.946   9.963
37579W        W99000  26.160  14.641   4.658
37580W        W99001  30.552  37.895  13.987
37581W        W99002   6.918  33.571   0.924
37582W        W99003  27.114  30.569   4.683
37583W        W99004  29.138  16.092   2.850
37584W        W99005  23.644  41.971  12.995
37585W        W99006  25.632  12.167  12.900
37586W        W99007  44.949  43.866   4.655
37587W        W99008   3.738  10.677  13.409
37588W        W99009  14.193   3.266  12.945
37589W        W99010  31.064  44.773  12.514
37590W        W99011  26.598  44.763  13.370
37591W        W99012  20.215  10.215   4.722
37592W        W99013   8.269  33.620  11.613
37593W        W99014  10.167  10.243   3.302
37594W        W99015   3.870  36.460  10.605
37595W        W99016  39.987  11.644   4.674
37596W        W99017   1.870   4.791   3.312
37597W        W99018  35.067  32.567   3.718
37598W        W99019   0.465   1.823  14.786
37599W        W99020  41.473  23.061   3.767
37600W        W99021  40.320   3.807  12.484
37601W        W99022  22.091  43.792   3.185
37602W        W99023  23.491  25.517   0.848
37603W        W99024  26.164  24.063  11.456
37604W        W99025  24.699  15.287   4.306
37605W        W99026  17.306  17.214  12.435
37606W        W99027  11.832   3.252   1.857
37607W        W99028  38.401  42.847  11.613
37608W        W99029   8.841   6.748  14.971
37609W        W99030   0.440  29.489   2.387
37610W        W99031  26.070  35.597   0.351
37611W        W99032  35.088  40.536  11.612
37612W        W99033  18.067  33.104   4.325
37613W        W99034  39.829  33.926  12.991
37614W        W99035  10.188   4.264  12.438
37615W        W99036  24.068  23.736   2.316
37616W        W99037  10.677  25.179   1.818
37617W        W99038  36.059  30.941   4.618
37618W        W99039  16.796  23.028  12.885
37619W        W99040  25.053   7.878   1.394
37620W        W99041  23.568   8.747  11.995
37621W        W99042  26.636  21.564  14.790
37622W        W99043  34.406  19.593   0.361
37623W        W99044  34.590  11.340  12.576
37624W        W99045  26.980  26.671   4.332
37625W        W99046   9.169   4.811   3.365
37626W        W99047  32.936   1.373  10.119
37627W        W99048  41.820  42.327  14.760
37628W        W99049  18.676  11.867   5.084
37629W        W99050  32.526   4.242  13.004
37630W        W99051  43.950  31.513   3.770
37631W        W99052  21.112  34.428   1.245
37632W        W99053   6.909  43.819  13.350
37633W        W99054  27.691  10.835   1.913
37634W        W99055  43.411  30.147  11.961
37635W        W99056   3.791  10.151   2.181
37636W        W99057  36.509   9.815   2.391
37637W        W99058  34.378  25.057   2.751
37638W        W99059  41.027  19.564  12.479
37639W        W99060  43.999  21.533  14.290
37640W        W99061  12.799  42.469  11.916
37641W        W99062  13.700   0.394   0.947
37642W        W99063   9.667  21.180  12.444
37643W        W99064  25.581  31.948  14.993
37644W        W99065  27.691  38.863  14.409
37645W        W99066  13.646  26.559   3.345
37646W        W99067  24.041  12.739   2.371
37647W        W99068  30.474  35.399  14.879
37648W        W99069  38.994   8.724   5.096
37649W        W99070  29.631   7.269   1.863
37650W        W99071  19.700  11.249  12.903
37651W        W99072  19.585  40.386  12.996
37652W        W99073  27.182   0.346   1.259
37653W        W99074  38.361   8.781  11.103
37654W        W99075  34.586   4.211   2.683
37655W        W99076  37.998  39.843  14.830
37656W        W99077  11.760  24.623  11.940
37657W        W99078  25.621  33.594  12.356
37658W        W99079  30.447   5.761   2.259
37659W        W99080  17.211  41.911   0.434
37660W        W99081  15.632  15.755   3.646
37661W        W99082  37.009  17.707   2.786
37662W        W99083   7.237  38.978   1.896
37663W        W99084   2.885  13.175  13.405
37664W        W99085   8.879  43.476   3.170
37665W        W99086  12.177  32.007  13.371
37666W        W99087  21.731  25.473  10.636
37667W        W99088  34.472   9.370  12.491
37668W        W99089   8.217  38.529  14.936
37669W        W99090  24.210  26.076   4.708
37670W        W99091  29.493  22.501  12.372
37671W        W99092   3.415  15.695   3.694
37672W        W99093  43.363   9.173  10.416
37673W        W99094  33.603  25.011  13.491
37674W        W99095  17.586  23.122   3.341
37675W        W99096  19.537  42.983   4.343
37676W        W99097   9.865  41.912  13.491
37677W        W99098  14.151  32.979  14.425
37678W        W99099  34.519   3.914   0.766
37679W        W99100  36.419  34.550  14.434
37680W        W99101   6.765  11.644   0.336
37681W        W99102  16.692  21.741  11.540
37682W        W99103   6.270   8.815  13.869
37683W        W99104   6.420  17.747  13.916
37684W        W99105  34.420  39.513  13.931
37685W        W99106  28.534  31.062   2.891
37686W        W99107  30.124  38.871   0.894
37687W        W99108  24.540  42.409   0.888
37688W        W99109  24.107  38.071  12.939
37689W        W99110   4.849   5.855   4.652
37690W        W99111  26.531  42.028   3.705
37691W        W99112  11.143  33.951  14.432
37692W        W99113  25.167  28.087  12.427
37693W        W99114  43.516  24.593   0.247
37694W        W99115  39.423  29.938  12.527
37695W        W99116  23.721  11.230   0.402
37696W        W99117  10.660  18.155   1.799
37697W        W99118   7.887  29.499   4.344
37698W        W99119   1.258   4.845   4.677
37699W        W99120  31.624  19.148   4.606
37700W        W99121  27.603  34.459  14.769
37701W        W99122   4.859  40.386   2.861
37702W        W99123   4.939  30.459   5.210
37703W        W99124   2.866  30.533   4.138
37704W        W99125   9.156  40.370   4.664
37705W        W99126   5.438  36.547   0.800
37706W        W99127  33.098  13.764   4.806
37707W        W99128   4.270  42.032   2.387
37708W        W99129  33.391  24.021  13.813
37709W        W99130   0.959  43.950   3.858
37710W        W99131  29.990  11.182  10.435
37711W        W99132  26.972  23.060   2.751
37712W        W99133  42.006   7.853   1.885
37713W        W99134   9.316  17.089  11.109
37714W        W99135  35.543  22.550   1.898
37715W        W99136  27.137   4.411  14.279
37716W        W99137  44.869  11.323  13.955
37717W        W99138  36.893  15.624   1.238
37718W        W99139   0.823   5.309   4.625
37719W        W99140   4.351  35.596  10.635
37720W        W99141  33.956   2.891   4.198
37721W        W99142   1.481  24.204  14.933
37722W        W99143  13.707  21.750  13.376
37723W        W99144  40.861   3.300   5.170
37724W        W99145  27.555  41.020  10.459
37725W        W99146   7.696  31.001  14.940
37726W        W99147  32.004   2.306  12.470
37727W        W99148  11.786  34.896  14.334
37728W        W99149  32.531   9.355  12.856
37729W        W99150  23.165  13.728  12.837
37730W        W99151   0.967  24.500  10.472
37731W        W99152   5.796  26.106  13.873
37732W        W99153  37.549  16.094  12.472
37733W        W99154   8.166  40.432   1.307
37734W        W99155  14.676  32.113  13.389
37735W        W99156  43.867   9.885   1.821
37736W        W99157  23.670  20.738   3.170
37737W        W99158  32.886  38.934   4.309
37738W        W99159  16.079  37.014  14.823
37739W        W99160  20.097  41.898   4.197
37740W        W99161  42.443   1.363  14.853
37741W        W99162   5.408  37.421   3.731
37742W        W99163  16.123  23.578   2.716
37743W        W99164  20.151   6.752   0.736
37744W        W99165  25.688  36.483  14.323
37745W        W99166  34.058  23.069  11.972
37746W        W99167  39.339   4.832   0.863
37747W        W99168   4.308  10.652  10.466
37748W        W99169   0.317  33.950  14.004
37749W        W99170  10.700  35.998   0.906
37750W        W99171   1.434  36.009   0.737
37751W        W99172   9.295  19.046  12.824
37752W        W99173   8.346  34.386   1.430
37753W        W99174  31.629  40.433  12.081
37754W        W99175  19.695   9.713   1.769
37755W        W99176  26.124  25.598   3.868
37756W        W99177  12.144  39.374   4.694
37757W        W99178  23.111  36.061  13.538
37758W        W99179   3.787  23.028  11.529
37759W        W99180  22.133  19.092  12.431
37760W        W99181  14.612  20.709  13.393
37761W        W99182   3.933  18.641   2.874
37762W        W99183   4.883  32.032   5.276
37763W        W99184  25.485   0.926   0.770
37764W        W99185   2.404  40.459  13.956
37765W        W99186  33.392   4.762  11.968
37766W        W99187   6.375  20.728   2.417
37767W        W99188   5.210  23.496  12.854
37768W        W99189   6.235  19.613  13.313
37769W        W99190  35.895  35.507   2.879
37770W        W99191  20.751  14.102  11.969
37771W        W99192   6.816  43.501   2.196
37772W        W99193  38.915   4.257   2.262
37773W        W99194   9.672  23.139  12.016
37774W        W99195  32.395  26.179  13.316
37775W        W99196  28.505  19.185  12.434
37776W        W99197  17.717  29.150  11.060
37777W        W99198  15.150  22.133   4.832
37778W        W99199  29.508  10.822   4.614
37779W        W99200   4.886  18.193   1.309
37780W        W99201  28.939  34.965  11.604
37781W        W99202  18.614  40.309   4.138
37782W        W99203  43.371  44.787   2.822
37783W        W99204  24.594  40.354   1.865
37784W        W99205   5.329  26.529   4.180
37785W        W99206   9.661  30.569  13.423
37786W        W99207  39.896  35.493   4.330
37787W        W99208  22.715  12.763   3.657
37788W        W99209  41.293  33.482   2.321
37789W        W99210  43.867  30.075  10.406
37790W        W99211  34.900  28.656  14.901
37791W        W99212   9.191  42.439   5.781
37792W        W99213  25.966   0.982  11.102
37793W        W99214   6.727  36.051  11.390
37794W        W99215  33.925  24.197  12.550
37795W        W99216  35.539  13.773   4.334
37796W        W99217  39.398  18.201   4.711
37797W        W99218   2.783  21.245  11.899
37798W        W99219   0.975  13.145  10.977
37799W        W99220  33.024  31.910  12.823
37800W        W99221  41.939  15.807  13.321
37801W        W99222  14.167  21.742  11.520
37802W        W99223  15.313  16.632  11.407
37803W        W99224  43.950  24.537   3.170
37804W        W99225   1.766  16.212   4.297
37805W        W99226  17.113   4.356   2.350
37806W        W99227  41.958  32.604  11.556
37807W        W99228  33.983  37.015  14.508
37808W        W99229  44.333  13.144  11.524
37809W        W99230  41.866  23.031   4.620
37810W        W99231  40.426  11.280  11.985
37811W        W99232  40.407  23.175  11.587
37812W        W99233   2.311   7.269   2.815
37813W        W99234   6.919   8.681   0.856
37814W        W99235  19.615  16.089  11.598
37815W        W99236   1.378  21.166  13.883
37816W        W99237  24.222  44.463   3.761
37817W        W99238  31.416   6.794   2.706
37818W        W99239  30.499  29.023   4.812
37819W        W99240  35.037  36.993   1.392
37820W        W99241  26.599  15.161   4.765
37821W        W99242   4.839  39.882  13.496
37822W        W99243   3.322  21.687  14.898
37823W        W99244  15.310  18.722  12.984
37824W        W99245  26.169  21.224   4.668
37825W        W99246  42.433  27.978  14.309
37826W        W99247  19.157  37.547   1.302
37827W        W99248  30.118  26.584   3.326
37828W        W99249  22.619  33.091  10.929
37829W        W99250  39.329  26.671   3.162
37830W        W99251  22.218  37.080  12.984
37831W        W99252   4.260  13.790  12.902
37832W        W99253  40.949  44.935   3.228
37833W        W99254  22.638  30.602  12.049
37834W        W99255  19.172  13.835   4.698
37835W        W99256  37.920  41.319  13.034
37836W        W99257  40.525   0.881   2.690
37837W        W99258  26.494   8.769   4.164
37838W        W99259  28.131  29.542   1.210
37839W        W99260   1.774  33.973  12.065
37840W        W99261  31.965  34.059  11.922
37841W        W99262   3.243  27.522   0.748
37842W        W99263  14.626   7.678  14.924
37843W        W99264   2.871  42.365   1.780
37844W        W99265  24.202   0.906   4.337
37845W        W99266   7.736  24.662   3.243
37846W        W99267  19.592  20.537  14.999
37847W        W99268  29.169  33.416   2.376
37848W        W99269  20.171  17.269  12.909
37849W        W99270   6.398  17.709  14.280
37850W        W99271  24.062  29.618   4.641
37851W        W99272  27.147  35.402   3.366
37852W        W99273   2.906  13.616   2.792
37853W        W99274  15.618   5.325   3.828
37854W        W99275  12.268  20.068   0.769
37855W        W99276  12.841  19.159   2.882
37856W        W99277  42.517  21.214  14.991
37857W        W99278  29.969  29.988   3.216
37858W        W99279   2.435   9.358   0.309
37859W        W99280   3.447   6.207   0.315
37860W        W99281  43.867  33.504  14.767
37861W        W99282  28.488  40.998   3.725
37862W        W99283   6.372  15.159  10.533
37863W        W99284  12.840  13.774  10.583
37864W        W99285   6.884  31.934   1.294
37865W        W99286  39.041  15.618  11.129
37866W        W99287  28.974  17.086   3.204
37867W        W99288  10.330   8.862  13.015
37868W        W99289   8.806  44.772  12.475
37869W        W99290  34.516  41.028  10.891
37870W        W99291  26.996  36.533  11.861
37871W        W99292  16.701  21.522  13.833
37872W        W99293  20.750   4.916   5.285
37873W        W99294  31.471  36.565   0.914
37874W        W99295  12.320  34.114   0.267
37875W        W99296   0.960   0.492   5.084
37876W        W99297  35.509  44.356   2.702
37877W        W99298  23.206  37.535  10.443
37878W        W99299  35.886  40.865  14.923
37879W        W99300  13.662   4.325  10.972
37880W        W99301  29.063  35.954  12.085
37881W        W99302  25.626  42.293   1.298
37882W        W99303  17.106  25.619   1.410
37883W        W99304   4.449  19.696  11.099
37884W        W99305  28.658  23.635   3.337
37885W        W99306  16.076   3.761   4.229
37886W        W99307  22.570  38.527   3.216
37887W        W99308  24.521  24.515  11.914
37888W        W99309  29.444  14.137   3.846
37889W        W99310  12.746  15.321   2.901
37890W        W99311   1.855  31.109   4.122
37891W        W99312  22.249   8.814  13.036
37892W        W99313  38.483  30.525  12.526
37893W        W99314  21.712   0.331   2.900
37894W        W99315  38.900  20.697  10.511
37895W        W99316  30.538  34.406  11.473
37896W        W99317  39.399  36.019  14.775
37897W        W99318  21.533   7.183  11.596
37898W        W99319  26.533  11.372   9.969
37899W        W99320  20.668  28.088   1.360
37900W        W99321  18.690  18.695  10.478
37901W        W99322   2.239  12.625   2.326
37902W        W99323   9.291  15.261   4.739
37903W        W99324  22.234  35.425   0.395
37904W        W99325  41.471  27.659   4.186
37905W        W99326  17.794  11.341   3.860
37906W        W99327  40.433  40.533  12.966
37907W        W99328  41.379   2.750   1.783
37908W        W99329   2.796  19.563   2.181
37909W        W99330  25.575  29.017   3.226
37910W        W99331  14.778  25.627  10.975
37911W        W99332  33.532  13.646   3.230
37912W        W99333   2.742  40.487  14.326
37913W        W99334  15.123  12.188   2.250
37914W        W99335  11.254   3.254  10.644
37915W        W99336  38.413  42.876  14.926
37916W        W99337   2.928  16.078   4.120
37917W        W99338   6.181  22.176   0.315
37918W        W99339  21.246   3.814  13.400
37919W        W99340  13.132   9.358  13.387
37920W        W99341  16.597   4.230  12.339
37921W        W99342  23.071   8.789  14.764
37922W        W99343   4.929   2.867  10.471
37923W        W99344  23.702  16.155  11.975
37924W        W99345  10.698  41.927   9.545
37925W        W99346   2.964  39.484   4.798
37926W        W99347  18.690  33.548   5.243
37927W        W99348  24.125   8.207  11.444
37928W        W99349  12.733  15.241   1.265
37929W        W99350   6.697  25.681   3.649
37930W        W99351  24.175  39.049  11.893
37931W        W99352  26.701  23.726   1.356
37932W        W99353  27.657   9.206   4.774
37933W        W99354  31.960  24.187   3.154
37934W        W99355   0.355   2.720  14.510
37935W        W99356  37.352  35.429  13.834
37936W        W99357  43.870  38.498   2.292
37937W        W99358  41.521  14.266  12.561
37938W        W99359  34.928  23.083   0.360
37939W        W99360  44.442  20.039   0.334
37940W        W99361  33.006  32.439  12.397
37941W        W99362  17.660  10.714   3.195
37942W        W99363  28.538  13.290   5.756
37943W        W99364  37.035   2.424   1.827
37944W        W99365  15.108   9.382   1.868
37945W        W99366  38.067  28.041   1.738
37946W        W99367  27.555  27.490  13.485
37947W        W99368  39.494  36.092  11.562
37948W        W99369  18.069  39.491  13.512
37949W        W99370   9.792  25.528   4.705
37950W        W99371  16.669  10.225  14.457
37951W        W99372   6.214  10.141   2.247
37952W        W99373  40.947  36.379  11.453
37953W        W99374  41.011  12.686   5.146
37954W        W99375  17.746  21.230  11.490
37955W        W99376  16.738  14.302   9.491
37956W        W99377  40.940  17.175   1.212
37957W        W99378   1.926   3.723   0.830
37958W        W99379  29.611  30.032  12.548
37959W        W99380  12.175   4.343   1.280
37960W        W99381  19.761  19.195  12.843
37961W        W99382  12.333  17.182  11.068
37962W        W99383   1.945  11.248   1.698
37963W        W99384  30.436   7.723   2.405
37964W        W99385  33.451   2.948   2.877
37965W        W99386   5.252  30.909  14.871
37966W        W99387  38.064   2.269   0.428
37967W        W99388   9.234  10.242  11.434
37968W        W99389  34.969  44.454  11.502
37969W        W99390  30.658   0.304  10.544
37970W        W99391  22.229  40.016  10.945
37971W        W99392  40.021  27.635  12.432
37972W        W99393  19.732  12.711   1.921
37973W        W99394  44.483   6.862   0.456
37974W        W99395   6.854   8.670  13.996
37975W        W99396  43.832   5.245   4.128
37976W        W99397  26.160  34.492   4.629
37977W        W99398  35.574   8.840   3.754
37978W        W99399  38.855  35.573   2.237
37979W        W99400   8.783   5.895  11.127
37980W        W99401  27.978  25.635   4.351
37981W        W99402  20.596  18.202  11.593
37982W        W99403  44.899   7.689  13.987
37983W        W99404   0.771  26.107   0.815
37984W        W99405  10.638  19.668   5.248
37985W        W99406  22.655  32.112  13.012
37986W        W99407  42.448  11.683   2.327
37987W        W99408   4.930  36.939  14.292
37988W        W99409   8.832   1.387  14.026
37989W        W99410  43.939  36.555   1.924
37990W        W99411   6.742  32.891   2.287
37991W        W99412  12.269  37.085  10.418
37992W        W99413   0.430  21.752  14.387
37993W        W99414  32.031  10.373   3.671
37994W        W99415   6.283  27.048   4.196
37995W        W99416  35.389  35.478  12.500
37996W        W99417  16.166  12.276  13.480
37997W        W99418  20.136  42.320   1.264
37998W        W99419  43.438  43.988  10.899
37999W        W99420   9.670  37.002   4.700
38000W        W99421  17.127  24.192  13.961
38001W        W99422  20.672  43.957   1.863
38002W        W99423  33.000  41.838  14.464
38003W        W99424   3.951   8.874   5.147
38004W        W99425  36.867   0.382   0.923
38005W        W99426  36.987   1.744   2.838
38006W        W99427   8.735  35.368   4.749
38007W        W99428   9.738  41.339  11.946
38008W        W99429  33.576  17.720  13.327
38009W        W99430  40.043  26.558  13.000
38010W        W99431  27.956   3.857   0.903
38011W        W99432   5.696   6.810  13.531
38012W        W99433   5.713  19.663   1.256
38013W        W99434   9.242  18.089   2.870
38014W        W99435  27.031   4.316   3.755
38015W        W99436   6.778   2.270   2.729
38016W        W99437  11.365  29.992   4.779
38017W        W99438  26.693  43.410   0.450
38018W        W99439  25.967  24.597  13.949
38019W        W99440  25.549  14.322  13.491
38020W        W99441  38.975   5.418   4.657
38021W        W99442   3.782   4.841  10.106
38022W        W99443  16.235  38.954   3.220
38023W        W99444  15.736  35.927  11.586
38024W        W99445  11.801  26.176  13.491
38025W        W99446  15.301  31.898   0.918
38026W        W99447  34.932  28.030   2.798
38027W        W99448  29.001   1.805  14.372
38028W        W99449  15.159  43.807   3.351
38029W        W99450  17.571  23.569   0.292
38030W        W99451  37.946  10.656   1.815
38031W        W99452  20.670  13.181   1.749
38032W        W99453   4.447   6.240  13.395
38033W        W99454   8.699  35.602  10.531
38034W        W99455  19.779  42.476  10.577
38035W        W99456  25.155  35.586  11.966
38036W        W99457  35.941  36.399   2.674
38037W        W99458   7.414  33.999  14.918
38038W        W99459  33.453  36.970   0.929
38039W        W99460  43.766  22.243   4.204
38040W        W99461  32.959  42.446  11.470
38041W        W99462   3.779  31.592  11.466
38042W        W99463   2.742  21.647  12.440
38043W        W99464  12.751   8.365  13.440
38044W        W99465  21.561  11.631  12.371
38045W        W99466  43.324   0.401   2.204
38046W        W99467  43.987  30.642  12.344
38047W        W99468  33.583  34.089   4.233
38048W        W99469   9.871  10.318  10.591
38049W        W99470  43.365   3.410   4.668
38050W        W99471  26.672  21.538  10.464
38051W        W99472  25.626   1.972  11.968
38052W        W99473  25.191   1.945   4.737
38053W        W99474  41.324   5.723  12.836
38054W        W99475  21.105   7.704   1.913
38055W        W99476  42.998  34.570   4.184
38056W        W99477   4.258  23.507  12.836
38057W        W99478  27.667  42.935  13.855
38058W        W99479  43.454  10.739  12.492
38059W        W99480  15.212   9.251   1.317
38060W        W99481  23.591   8.890  10.041
38061W        W99482  17.134  19.584   4.193
38062W        W99483  39.446  42.935  12.995
38063W        W99484  33.980   0.938  13.047
38064W        W99485  33.079  33.610  10.641
38065W        W99486   7.245  32.400   3.700
38066W        W99487  18.786  28.056   0.921
38067W        W99488  13.775  16.651  14.893
38068W        W99489  26.488   6.749  11.373
38069W        W99490  13.335  30.533  14.007
38070W        W99491  25.642  23.656   0.262
38071W        W99492  24.990  41.503   3.808
38072W        W99493   6.844   5.704   3.222
38073W        W99494  24.560  12.148   1.399
38074W        W99495  37.005   0.462  11.876
38075W        W99496  18.703  44.284  13.507
38076W        W99497   7.289  16.197   3.688
38077W        W99498  26.122  33.085   3.861
38078W        W99499  42.467  22.089   0.934
38079W        W99500   5.706  19.623  13.839
38080W        W99501  33.896  29.508  11.937
38081W        W99502  41.795  41.943   0.435
38082W        W99503  44.850  21.136   4.118
38083W        W99504  44.410  28.186  11.424
38084W        W99505  17.746   6.794   2.228
38085W        W99506  13.111   9.209  13.032
38086W        W99507  11.296  35.458   3.197
38087W        W99508  33.108  32.556  11.893
38088W        W99509  30.517  39.528   4.352
38089W        W99510  28.584   4.786   3.146
38090W        W99511  32.127  21.119  14.453
38091W        W99512  36.880   6.795   3.783
38092W        W99513   3.235  21.218  14.942
38093W        W99514  37.523   0.755   5.108
38094W        W99515  17.273  20.259  13.909
38095W        W99516  32.449   3.298   1.373
38096W        W99517  38.041  18.117   2.785
38097W        W99518   4.906  35.515  12.527
38098W        W99519  25.122  30.935  13.913
38099W        W99520   2.778   6.416  10.935
38100W        W99521   5.704  16.700  12.038
38101W        W99522  39.343  22.707   0.432
38102W        W99523   4.208  30.089  12.523
38103W        W99524  24.043  41.422   9.969
38104W        W99525  44.436  32.028  14.457
38105W        W99526   7.733  10.726  14.885
38106W        W99527  32.098  33.569   4.812
38107W        W99528   7.721  37.047  14.505
38108W        W99529  32.035  13.804  11.498
38109W        W99530  13.203  27.177   1.288
38110W        W99531  24.044  15.767   0.807
38111W        W99532  37.976  36.844  13.538
38112W        W99533  21.175  37.542   1.899
38113W        W99534   5.852  19.687   2.823
38114W        W99535  14.303  42.778  12.865
38115W        W99536  41.382  44.484   2.837
38116W        W99537  27.128   6.235  13.514
38117W        W99538   9.819  25.105  14.278
38118W        W99539  38.365   4.341   2.766
38119W        W99540  43.415  17.243   4.806
38120W        W99541   3.788  30.079   1.861
38121W        W99542  11.194   7.676  12.479
38122W        W99543  17.099  42.808   3.721
38123W        W99544  41.853  21.529   1.423
38124W        W99545  27.071  22.238  12.555
38125W        W99546  33.603   9.674  13.350
38126W        W99547   5.337  40.531  11.405
38127W        W99548   2.296   4.899  12.521
38128W        W99549  41.386   5.351   4.615
38129W        W99550  22.090  21.561   0.917
38130W        W99551   9.298  28.022  13.037
38131W        W99552  39.986  12.116   4.284
38132W        W99553  27.066  39.517  13.525
38133W        W99554   4.327  12.691  11.950
38134W        W99555  19.162   8.671  12.535
38135W        W99556  38.536  11.285  13.797
38136W        W99557  36.995  19.152  10.571
38137W        W99558  28.452   8.366   2.222
38138W        W99559   6.345  35.482   3.274
38139W        W99560  26.600  12.856  12.427
38140W        W99561  41.473  44.879   1.916
38141W        W99562  20.628   2.283   4.833
38142W        W99563   0.289  31.012   1.399
38143W        W99564  40.478  14.224   4.801
38144W        W99565  44.862  38.840   0.264
38145W        W99566  17.252  28.982  12.047
38146W        W99567  44.886  43.974  11.061
38147W        W99568   0.481  31.420  13.449
38148W        W99569  37.926  19.569   2.708
38149W        W99570   0.976  26.605   1.797
38150W        W99571  35.587  35.965   2.675
38151W        W99572   6.283   4.710   2.276
38152W        W99573  25.666  19.174   3.375
38153W        W99574  28.076  20.097  13.396
38154W        W99575  18.057  41.470   4.795
38155W        W99576  31.961  31.911   5.090
38156W        W99577  10.181  33.525   4.829
38157W        W99578  34.887  32.050   4.770
38158W        W99579   4.372  28.116   3.294
38159W        W99580   1.434  12.138   4.820
38160W        W99581   5.263  42.945  10.444
38161W        W99582  22.098  20.632   2.680
38162W        W99583   2.362  40.842   0.421
38163W        W99584  38.371  38.537  12.038
38164W        W99585  17.686   3.724   1.405
38165W        W99586   0.747  14.123  11.527
38166W        W99587  21.181   1.736   1.738
38167W        W99588  22.637   9.235  10.059
38168W        W99589  17.650   7.224   4.117
38169W        W99590  27.563  19.665  11.014
38170W        W99591  21.237   0.339   4.703
38171W        W99592   4.425  10.174   0.451
38172W        W99593  28.166  12.273   2.305
38173W        W99594  33.390  37.494   2.732
38174W        W99595  14.229   7.250   2.798
38175W        W99596   4.379   0.913   9.549
38176W        W99597  14.643  22.567   3.776
38177W        W99598  37.016  34.916  10.446
38178W        W99599  22.202  23.010  11.967
38179W        W99600  28.650  10.858   0.253
38180W        W99601  42.876  36.424   5.318
38181W        W99602   1.978   9.221  12.903
38182W        W99603   8.871  44.500   2.781
38183W        W99604   8.225  34.464  14.914
38184W        W99605   3.248  13.283  13.820
38185W        W99606  10.163  35.914  10.017
38186W        W99607  11.267  12.804   4.132
38187W        W99608   2.269  19.121  12.988
38188W        W99609   5.759  39.391  13.041
38189W        W99610   5.850   1.758   1.286
38190W        W99611  41.464  26.520   4.319
38191W        W99612  39.021   9.772  13.011
38192W        W99613  43.273  37.397  11.536
38193W        W99614  41.881   8.190   4.631
38194W        W99615  19.251  22.658   0.310
38195W        W99616  29.596  39.436  12.502
38196W        W99617  27.100  41.295  13.492
38197W        W99618  32.141  17.660   4.189
38198W        W99619  19.167  13.611  14.862
38199W        W99620   0.423  17.086  14.495
38200W        W99621   1.300  37.447  14.891
38201W        W99622  16.612  28.593  13.933
38202W        W99623   7.851  33.923  13.308
38203W        W99624  21.513  10.741   1.445
38204W        W99625  23.180  31.122   1.294
38205W        W99626  13.777  10.710  11.047
38206W        W99627   2.468   9.839  14.333
38207W        W99628  18.630   4.325   4.608
38208W        W99629  28.089  30.515   3.256
38209W        W99630  13.193   8.743  10.005
38210W        W99631  22.252  26.606   2.199
38211W        W99632  25.169  21.737   3.781
38212W        W99633  34.106  11.789  10.565
38213W        W99634   2.802  11.861   4.608
38214W        W99635   9.862  16.605   0.803
38215W        W99636   7.381  34.456  10.904
38216W        W99637  36.444  35.464  13.852
38217W        W99638   6.325  41.960   0.848
38218W        W99639  22.221  11.360   2.213
38219W        W99640  15.118  21.071  13.905
38220W        W99641  35.055  37.392  11.515
38221W        W99642  12.682  44.883   4.248
38222W        W99643  34.441  14.590   2.858
38223W        W99644  22.667  38.408  14.434
38224W        W99645  18.296  31.646  13.402
38225W        W99646  12.345  17.679   4.342
38226W        W99647   2.838   6.892   1.731
38227W        W99648   0.479  23.510   0.766
38228W        W99649  28.150  38.488   2.717
38229W        W99650   9.792  13.205   4.616
38230W        W99651  34.376   8.793  14.304
38231W        W99652  19.735  11.200  11.533
38232W        W99653   2.406  42.800   0.482
38233W        W99654  26.062   0.773  14.989
38234W        W99655  18.075  30.072  14.785
38235W        W99656   5.316   3.905   4.751
38236W        W99657  44.793  18.686  13.863
38237W        W99658   5.703  33.878   0.274
38238W        W99659   6.783   6.903   3.302
38239W        W99660  25.219  31.568  13.001
38240W        W99661  16.136  18.115   1.913
38241W        W99662  32.987   5.916  11.970
38242W        W99663  43.337  19.560   4.679
38243W        W99664  16.755   8.828   2.202
38244W        W99665   4.251  10.153  11.406
38245W        W99666   8.815  24.691  14.959
38246W        W99667  26.101  26.208   4.216
38247W        W99668  11.708  28.654  11.873
38248W        W99669  23.592  15.594  14.026
38249W        W99670  27.189   2.254  14.940
38250W        W99671  41.423  41.469   4.609
38251W        W99672  42.489   3.456  10.529
38252W        W99673  44.478  13.786  10.488
38253W        W99674  19.225  33.501   2.393
38254W        W99675  27.167  17.246  11.406
38255W        W99676  32.568  10.260   4.120
38256W        W99677  20.237  28.004  13.843
38257W        W99678   3.914  43.276  11.520
38258W        W99679  39.895  11.637  13.310
38259W        W99680  24.718   8.398  14.018
38260W        W99681   6.328   1.871  10.098
38261W        W99682  22.601  15.110  11.548
38262W        W99683  21.124  27.555   1.867
38263W        W99684   8.774  29.499   2.707
38264W        W99685   0.800  35.408   3.666
38265W        W99686  23.710   4.253  11.075
38266W        W99687  23.624  20.732   4.683
38267W        W99688  29.509  10.326   3.152
38268W        W99689  17.780  40.535  12.998
38269W        W99690  17.734  37.451   0.898
38270W        W99691  14.679  37.535   2.832
38271W        W99692  35.469  22.502  12.340
38272W        W99693   1.411  26.537  11.954
38273W        W99694  40.330   3.372  13.446
38274W        W99695   5.418  33.524   9.467
38275W        W99696  43.936  24.000   3.690
38276W        W99697   7.310  34.372  11.557
38277W        W99698  11.135  41.505   0.368
38278W        W99699  15.094  39.509  12.498
38279W        W99700  10.863  17.758  13.344
38280W        W99701  17.195  41.040  12.361
38281W        W99702  29.069  40.919  12.396
38282W        W99703  29.603  26.677   2.846
38283W        W99704  21.177  32.994  13.531
38284W        W99705   1.383  42.478   2.303
38285W        W99706  29.502   5.208   0.286
38286W        W99707   2.380   3.350  11.958
38287W        W99708  22.595   1.263  13.496
38288W        W99709  22.181  27.499  11.456
38289W        W99710  12.223   5.341  13.310
38290W        W99711   4.756  42.874   1.264
38291W        W99712  11.772  19.683   1.788
38292W        W99713  17.190   1.867   1.444
38293W        W99714   1.976  19.224   4.776
38294W        W99715  11.859   9.659  11.919
38295W        W99716   4.422   6.895   0.854
38296W        W99717  18.568  30.549  13.880
38297W        W99718  41.015   4.861  12.366
38298W        W99719  29.097  44.329  13.491
38299W        W99720  28.032  17.768   9.974
38300W        W99721  10.682  27.447  13.498
38301W        W99722  22.019  32.544  10.474
38302W        W99723   6.362  43.337  13.041
38303W        W99724   7.734  29.103  11.974
38304W        W99725  33.998  40.463   2.783
38305W        W99726  39.961  25.563   3.227
38306W        W99727  32.065  32.989  11.405
38307W        W99728  30.138  22.583  14.852
38308W        W99729  33.625  42.454   1.818
38309W        W99730   1.265  35.865   2.260
38310W        W99731  12.701   1.845  14.372
38311W        W99732   0.356  13.695   4.344
38312W        W99733  36.065  23.145   1.738
38313W        W99734  31.925   7.384   2.759
38314W        W99735  28.579  27.540   1.323
38315W        W99736   3.225   1.474  12.446
38316W        W99737  36.009  33.387   0.341
38317W        W99738  43.280  44.496  13.501
38318W        W99739   6.209   2.445   0.927
38319W        W99740   8.822   2.874   1.284
38320W        W99741  26.695  28.533   3.821
38321W        W99742   3.925  12.208   4.718
38322W        W99743   7.888  33.991   4.306
38323W        W99744  19.134  35.884  13.828
38324W        W99745  13.143  33.612  14.026
38325W        W99746  33.410  21.516   3.635
38326W        W99747  43.806  37.539  14.438
38327W        W99748   8.318  27.673   1.754
38328W        W99749  24.983   7.799   1.818
38329W        W99750  25.126   7.409  12.412
38330W        W99751   9.783  22.655  14.880
38331W        W99752  22.672  40.419  12.563
38332W        W99753  23.628  32.552  10.902
38333W        W99754  16.109  13.114  11.598
38334W        W99755   0.841  11.136   4.268
38335W        W99756  40.512  37.943  13.486
38336W        W99757  37.466  23.719  13.360
38337W        W99758  30.571  44.442   4.201
38338W        W99759  10.665   3.321   4.613
38339W        W99760  40.480  17.211  11.058
38340W        W99761   6.336  10.259   1.440
38341W        W99762  25.009   6.862  11.119
38342W        W99763  21.647  40.445  14.507
38343W        W99764  38.442  40.331   3.852
38344W        W99765  29.593  23.685  10.994
38345W        W99766   8.208  28.440   2.788
38346W        W99767  26.483  22.704   3.742
38347W        W99768  35.968   5.854   1.733
38348W        W99769  20.758   3.879  12.033
38349W        W99770  25.052  38.895   1.848
38350W        W99771  26.191   9.316   3.383
38351W        W99772  31.981  22.076   1.362
38352W        W99773  19.222  11.331  13.850
38353W        W99774   3.864  16.300  12.891
38354W        W99775  25.008  35.517  13.863
38355W        W99776   0.466  22.160   0.345
38356W        W99777   1.840  32.966  11.035
38357W        W99778  26.141   5.283   4.216
38358W        W99779  12.784  11.735  11.122
38359W        W99780  43.398  18.668  13.979
38360W        W99781   2.961  40.444  11.450
38361W        W99782  32.115  13.202  12.952
38362W        W99783  37.427  33.876   3.820
38363W        W99784  11.652  16.616   0.408
38364W        W99785  33.458   1.792   3.817
38365W        W99786  36.909  39.409  14.382
38366W        W99787  26.700  16.270  10.585
38367W        W99788  12.268  43.879   1.346
38368W        W99789   4.789  44.943  10.448
38369W        W99790   7.364  28.016   3.814
38370W        W99791   6.736  38.361  14.964
38371W        W99792  20.058  23.154  11.032
38372W        W99793   6.745  20.090   1.887
38373W        W99794  44.907  27.136  13.384
38374W        W99795  41.484   8.362  11.560
38375W        W99796  16.185  10.321   4.206
38376W        W99797  29.495  39.995  14.882
38377W        W99798  35.958  29.520  13.366
38378W        W99799  29.429   1.766   0.780
38379W        W99800  32.092   3.893   2.844
38380W        W99801  16.672  26.968  10.601
38381W        W99802   6.770   9.801  10.566
38382W        W99803  32.087  14.111   4.681
38383W        W99804  18.077   7.889  14.799
38384W        W99805   4.837  42.376  12.874
38385W        W99806  10.201  13.753  11.866
38386W        W99807   4.325  30.431   3.639
38387W        W99808  37.568  29.035   4.191
38388W        W99809   7.208  40.309  11.054
38389W        W99810  30.049  40.026   2.335
38390W        W99811  19.258  31.004   2.761
38391W        W99812  10.676  25.052   4.624
38392W        W99813   8.202  38.397  11.055
38393W        W99814   8.679  36.429   1.342
38394W        W99815  10.849  20.528   4.282
38395W        W99816  14.104   5.268  12.983
38396W        W99817  23.125  16.160  10.563
38397W        W99818  11.829  26.494   1.782
38398W        W99819  33.119  43.423   1.288
38399W        W99820   3.822  13.329   1.220
38400W        W99821  15.104  22.521   0.327
38401W        W99822  28.081  28.599   3.233
38402W        W99823   3.385  32.918   3.271
38403W        W99824   0.454   0.819   3.682
38404W        W99825  40.388  39.975   3.769
38405W        W99826  21.546  36.577  12.386
38406W        W99827  24.523  17.685  11.376
38407W        W99828  34.120  37.532   1.778
38408W        W99829  12.185  17.149  10.626
38409W        W99830  15.732  21.128   0.338
38410W        W99831  41.889  32.136  11.913
38411W        W99832  17.573  33.388  10.890
38412W        W99833  11.199   5.821   0.294
38413W        W99834  31.981   7.681   1.395
38414W        W99835  29.173  28.102   2.311
38415W        W99836   2.465  42.792   4.306
38416W        W99837  10.349  28.605   1.859
38417W        W99838  38.548  19.279   1.368
38418W        W99839  17.105   4.911   4.283
38419W        W99840  16.219   7.853   3.264
38420W        W99841  16.752  22.157   2.808
38421W        W99842  32.042   1.744  12.035
38422W        W99843  29.012   6.740   1.377
38423W        W99844  10.256  40.010  10.492
38424W        W99845  17.556  25.047   4.174
38425W        W99846  24.521  40.986   1.214
38426W        W99847   5.789  14.815  13.046
38427W        W99848   7.686  20.177  13.011
38428W        W99849   5.224  21.179  11.408
38429W        W99850  37.851  37.078  12.543
38430W        W99851   1.876  15.197  11.860
38431W        W99852  32.898  36.963   2.868
38432W        W99853  44.351  15.739   4.347
38433W        W99854   2.966   2.918   3.765
38434W        W99855   1.471  23.612  13.369
38435W        W99856  40.341   9.248  12.864
38436W        W99857  39.494  15.818  10.946
38437W        W99858  12.149  32.004  13.032
38438W        W99859  44.450   4.213   1.234
38439W        W99860   5.898  15.614  10.628
38440W        W99861  13.272  17.173   5.183
38441W        W99862  21.259  35.362   2.207
38442W        W99863  29.068  37.904  11.501
38443W        W99864  42.432   5.406  13.956
38444W        W99865  23.210  10.212   3.799
38445W        W99866  14.609  23.156  13.470
38446W        W99867  42.472   4.894  11.449
38447W        W99868  25.681   5.242  11.381
38448W        W99869   1.422   3.338  11.587
38449W        W99870  39.385  44.323   2.867
38450W        W99871  35.497  36.890  14.380
38451W        W99872   7.306  19.122  13.796
38452W        W99873   1.920  41.386   0.852
38453W        W99874  23.063  29.126   4.778
38454W        W99875   9.183  11.225   3.684
38455W        W99876  30.937   6.205  12.430
38456W        W99877  36.934   8.188   0.319
38457W        W99878   3.751   4.903  10.893
38458W        W99879  32.913   7.886   2.291
38459W        W99880  18.051  39.059   3.221
38460W        W99881  41.506  20.227   4.307
38461W        W99882  41.485   9.316   2.690
38462W        W99883  16.798   7.674   4.609
38463W        W99884  32.530  30.110  14.871
38464W        W99885  25.684   0.365  13.385
38465W        W99886  22.200  32.098   4.834
38466W        W99887  27.044  18.248  11.913
38467W        W99888  20.712  24.673   2.732
38468W        W99889   8.728  25.605  14.943
38469W        W99890  10.346  15.731   3.683
38470W        W99891  25.061  38.025  13.477
38471W        W99892  37.461  21.525   2.696
38472W        W99893  38.490  13.833  12.975
38473W        W99894  30.023  44.961   3.276
38474W        W99895  26.659  36.061   0.744
38475W        W99896   2.869  44.337   3.176
38476W        W99897   5.823  18.240  14.370
38477W        W99898  11.324   1.416  13.953
38478W        W99899  22.114   5.409   3.298
38479W        W99900  30.460  11.847  10.018
38480W        W99901   3.384  10.789   0.895
38481W        W99902  29.603   3.380   2.231
38482W        W99903  42.940   0.905  13.508
38483W        W99904  37.948  43.941   0.253
38484W        W99905  21.718  36.437   1.418
38485W        W99906  17.081  34.075  13.945
38486W        W99907  23.563  14.096   4.689
38487W        W99908  40.549  41.507   1.225
38488W        W99909  18.760  28.452   2.835
38489W        W99910  38.332  37.990   1.276
38490W        W99911  14.789  38.425  14.800
38491W        W99912  21.610  29.616  13.019
38492W        W99913  14.610  20.760   1.777
38493W        W99914  35.415  40.537   3.724
38494W        W99915  21.080  24.159  12.888
38495W        W99916   0.264  25.599  14.419
38496W        W99917  41.037  26.203  13.400
38497W        W99918  44.874   2.455   2.249
38498W        W99919  21.699   6.682  12.473
38499W        W99920   7.849  27.050   1.283
38500W        W99921   7.330  24.721  10.931
38501W        W99922  30.657  35.925   3.694
38502W        W99923  40.421  19.604   0.778
38503W        W99924   0.920  23.210  10.641
38504W        W99925  34.596  43.422  14.473
38505W        W99926  21.231  40.397   0.896
38506W        W99927   4.877  31.439  13.062
38507W        W99928  42.904  23.570  10.905
38508W        W99929  10.296  42.843  13.374
38509W        W99930  41.441  32.028  12.003
38510W        W99931  14.791  28.933   2.291
38511W        W99932  15.179   9.733   3.374
38512W        W99933   5.281  28.951  12.914
38513W        W99934  40.373  15.196   3.380
38514W        W99935  44.498   5.194   4.256
38515W        W99936  24.201  31.528  10.535
38516W        W99937  42.447  23.667  12.510
38517W        W99938  28.181   0.874   0.945
38518W        W99939  11.166  27.011  13.945
38519W        W99940  21.245  32.424   3.230
38520W        W99941  42.875  19.243   3.187
38521W        W99942  41.969  40.848   2.280
38522W        W99943   0.254  36.361   1.822
38523W        W99944  30.511  36.877   1.266
38524W        W99945   2.318  20.614   2.230
38525W        W99946  32.989  20.733   2.414
38526W        W99947  24.654  11.216  12.068
38527W        W99948  25.088  14.152  13.308
38528W        W99949  42.999   7.704   3.190
38529W        W99950  19.667  11.162   3.274
38530W        W99951  28.652   3.903   0.827
38531W        W99952  21.174   1.898   4.331
38532W        W99953  15.796  42.784   3.255
38533W        W99954  12.334  28.060  12.034
38534W        W99955  38.400  17.749  14.876
38535W        W99956  20.670  42.490   2.667
38536W        W99957  37.060  43.950  12.438
38537W        W99958  14.699  12.637   3.371
38538W        W99959  27.680  37.433  10.523
38539W        W99960  10.845  13.129  13.998
38540W        W99961   4.309  43.410  13.001
38541W        W99962  24.509   1.870  13.410
38542W        W99963  14.285  23.232  14.336
38543W        W99964  31.017  12.158  12.874
38544W        W99965  23.012  41.900   2.795
38545W        W99966  30.637  19.773   0.374
38546W        W99967   2.408  13.310   1.335
38547W        W99968  24.011  18.112   4.735
38548W        W99969  39.028   5.915  12.546
38549W        W99970   8.831  27.640  13.407
38550W        W99971   6.802   6.268   3.807
38551W        W99972  29.957  21.699   3.791
38552W        W99973  24.167  34.530   0.371
38553W        W99974   6.316  13.226   3.732
38554W        W99975  19.152  28.649  11.486
38555W        W99976   8.386  27.167   0.862
38556W        W99977  35.513  27.062  14.296
38557W        W99978  16.719  38.442   0.293
38558W        W99979  36.089  27.162  11.014
38559W        W99980  41.915  32.436  14.904
38560W        W99981  36.091  17.598   2.364
38561W        W99982   9.694   8.358  13.412
38562W        W99983  20.734  18.190  11.866
38563W        W99984   0.845  15.787  10.092
38564W        W99985  43.848   9.385   1.832
38565W        W99986  36.586  20.046  14.499
38566W        W99987   6.378  18.607   0.939
38567W        W99988  36.017  13.153  14.446
38568W        W99989   8.297   1.408  13.840
38569W        W99990  29.539  21.593   0.414
38570W        W99991  34.869   4.332   4.339
38571W        W99992  44.431   0.793   0.779
38572W        W99993   0.295   7.407   0.820
38573W        W99994  25.641  11.629   5.128
38574W        W99995   6.222  22.234  12.359
38575W        W99996  19.054   8.797   2.897
38576W        W99997  20.091  24.547   4.806
38577W        W99998  41.795   2.801  13.395
38578W        W99999  27.680   7.803   2.182
38579W        W    0   3.814  44.759  12.450
38580W        W    1  39.907  14.117  13.422
38581W        W    2  21.571  38.434  14.948
38582W        W    3   0.964  42.792   5.113
38583W        W    4  13.649  30.064  12.034
38584W        W    5  23.219  31.488  10.553
38585W        W    6   2.376  17.781   4.645
38586W        W    7   5.792  39.359   4.318
38587W        W    8  31.591   3.891  13.476
38588W        W    9  16.152  17.292  11.109
38589W        W   10  10.712  33.449   4.344
38590W        W   11  22.173  14.717   0.739
38591W        W   12  16.709  28.488  11.071
38592W        W   13  24.722  19.134  13.894
38593W        W   14   3.259  36.524  10.993
38594W        W   15  25.540  26.027  11.551
38595W        W   16   9.655  10.233   2.783
38596W        W   17  14.268  15.116  14.893
38597W        W   18  10.327   0.917   4.221
38598W        W   19  10.697  27.673  14.278
38599W        W   20  42.814  40.366  13.310
38600W        W   21   0.362  15.147  12.991
38601W        W   22  27.140  39.455   2.224
38602W        W   23   5.305   9.665  11.965
38603W        W   24  15.735  22.042   1.754
38604W        W   25  32.121  40.507   1.807
38605W        W   26   7.246  35.433   3.767
38606W        W   27   9.388  24.491  12.518
38607W        W   28  27.073  42.919   0.904
38608W        W   29   6.343  13.188   5.251
38609W        W   30  43.842   5.753   3.711
38610W        W   31  17.106   6.871  10.498
38611W        W   32  15.781   3.243   5.228
38612W        W   33  43.873  43.782   2.401
38613W        W   34  39.015  37.943   5.194
38614W        W   35  33.951   9.225   0.738
38615W        W   36  21.597   3.924  12.016
38616W        W   37  30.573  44.342  12.002
38617W        W   38  15.154  30.483  11.018
38618W        W   39  23.591  14.138  12.393
38619W        W   40   7.824  18.144  10.152
38620W        W   41  20.636   1.733   3.825
38621W        W   42  16.761  33.610   1.823
38622W        W   43  33.386  19.664   1.833
38623W        W   44  36.477  42.287  14.324
38624W        W   45  44.867  22.107  14.922
38625W        W   46   5.737  16.125   4.728
38626W        W   47  35.542  24.065   4.213
38627W        W   48  33.385  17.193  14.895
38628W        W   49  28.592  13.264  14.492
38629W        W   50  22.196  12.844   2.332
38630W        W   51   4.720   7.240   1.330
38631W        W   52  12.832  24.144  12.424
38632W        W   53  24.163  14.190   0.394
38633W        W   54  18.207   5.862   2.875
38634W        W   55  11.814  18.130  10.488
38635W        W   56  13.276  34.514   4.173
38636W        W   57  23.084   2.886  10.956
38637W        W   58  16.112   6.420  13.805
38638W        W   59  16.183  31.569   0.908
38639W        W   60  15.175  38.517  11.472
38640W        W   61   2.365  34.422   5.308
38641W        W   62  10.855   4.830   4.282
38642W        W   63  30.433  16.760  13.424
38643W        W   64   0.412  22.162  11.498
38644W        W   65   9.860  35.903  13.338
38645W        W   66  25.173  25.039   3.868
38646W        W   67   1.397   9.694  10.578
38647W        W   68  18.742   1.455  13.468
38648W        W   69  30.649  42.977  10.537
38649W        W   70   5.397  22.612  13.959
38650W        W   71  18.158  11.784  12.570
38651W        W   72  32.015  26.544   1.740
38652W        W   73  29.027   0.486  14.018
38653W        W   74   8.208  31.633   0.383
38654W        W   75   9.163  29.612   1.893
38655W        W   76  24.661  23.997  11.095
38656W        W   77  42.780   9.360   4.684
38657W        W   78   1.394  33.526   3.161
38658W        W   79  15.228  15.602  14.945
38659W        W   80  15.224  39.428   1.430
38660W        W   81   4.285  21.139   0.433
38661W        W   82  13.843  17.758   0.300
38662W        W   83  11.233  27.574   3.766
38663W        W   84  16.613  35.970   2.669
38664W        W   85  26.678   7.411   2.713
38665W        W   86  23.726  42.344   2.332
38666W        W   87  35.475  33.877   2.747
38667W        W   88  37.040  26.496   2.739
38668W        W   89  23.571   8.345   0.356
38669W        W   90  12.828  18.735   2.319
38670W        W   91  12.362  20.728  10.466
38671W        W   92  23.556   9.665  11.088
38672W        W   93  34.526   5.200  11.382
38673W        W   94  11.293   9.657  12.825
38674W        W   95  21.149   6.829  11.932
38675W        W   96  36.466  44.292   0.854
38676W        W   97  33.402  31.034   4.609
38677W        W   98  17.263   9.189  10.896
38678W        W   99   2.453  20.765  14.404
38679W        W  100  21.226  40.429   2.257
38680W        W  101  37.976  37.467  13.477
38681W        W  102  32.455  22.600  13.315
38682W        W  103   0.333   8.774   4.153
38683W        W  104  17.090   6.191   1.238
38684W        W  105   8.775  28.443  13.449
38685W        W  106  18.622  18.064  13.950
38686W        W  107  34.094   2.302   2.735
38687W        W  108  11.813  39.065  11.879
38688W        W  109  32.955  15.813  14.821
38689W        W  110   0.346   2.920  13.792
38690W        W  111   9.268  39.815  12.487
38691W        W  112  34.970  31.498   3.268
38692W        W  113  42.410  28.462  13.307
38693W        W  114  16.701  16.646  10.627
38694W        W  115  21.044  11.328  13.986
38695W        W  116  35.963  43.404   0.248
38696W        W  117   7.181  17.105  13.401
38697W        W  118  38.559  12.177  12.068
38698W        W  119  29.153  32.927  14.762
38699W        W  120   9.266  33.989   4.265
38700W        W  121  41.498   2.772  14.842
38701W        W  122  24.588  37.863  14.497
38702W        W  123  10.372   6.391  10.996
38703W        W  124  11.662  29.600  10.594
38704W        W  125  33.924   3.897  10.470
38705W        W  126  22.709  18.547  14.446
38706W        W  127  11.740  32.108   4.768
38707W        W  128  44.480  33.414   3.721
38708W        W  129  25.561  15.183  14.943
38709W        W  130  34.454   7.736  11.105
38710W        W  131   1.453  43.353   1.835
38711W        W  132  24.632  23.135  12.499
38712W        W  133  27.595  31.075  11.524
38713W        W  134  28.985  32.603  14.498
38714W        W  135   1.243  11.280  13.036
38715W        W  136   9.277   3.820   4.839
38716W        W  137  17.130  21.076   9.982
38717W        W  138  12.278  33.117  13.387
38718W        W  139   8.173  42.803  10.411
38719W        W  140  24.139  36.857   4.694
38720W        W  141  36.562   1.821   5.094
38721W        W  142   3.356  13.219   3.222
38722W        W  143  14.668  35.034  11.976
38723W        W  144  40.386  15.729  13.489
38724W        W  145   0.473  29.938   4.183
38725W        W  146  27.592   2.321  11.911
38726W        W  147   7.909   7.712   2.845
38727W        W  148  29.941  44.488  12.018
38728W        W  149  29.994   5.768  11.102
38729W        W  150  32.634  39.843   2.899
38730W        W  151   8.278  33.601  14.337
38731W        W  152  43.923  26.986   1.835
38732W        W  153  13.303  29.442  12.922
38733W        W  154  14.207  34.546  13.887
38734W        W  155  44.908  26.021  12.427
38735W        W  156  40.524   7.411  11.954
38736W        W  157  44.909  40.312  11.552
38737W        W  158  26.626   7.791  12.393
38738W        W  159   2.229  35.497   3.852
38739W        W  160   4.930   4.775  14.025
38740W        W  161  36.437  39.933   4.731
38741W        W  162  17.280  42.899   4.321
38742W        W  163  41.345  35.424  10.641
38743W        W  164  40.964  13.687  13.872
38744W        W  165   3.778  37.342   3.186
38745W        W  166  22.237  36.939  12.414
38746W        W  167   0.865  39.417   2.670
38747W        W  168  17.598  27.651  10.541
38748W        W  169  40.306  25.531   3.855
38749W        W  170   6.789  36.506   0.368
38750W        W  171   2.369   2.891   1.295
38751W        W  172  44.466  22.747  14.278
38752W        W  173  15.761   5.283  11.952
38753W        W  174  31.451  34.590  11.119
38754W        W  175   1.788  37.507   3.679
38755W        W  176  27.649   7.414   0.339
38756W        W  177  34.547  41.875  13.367
38757W        W  178  23.178  32.102   1.291
38758W        W  179  17.165  38.904  14.498
38759W        W  180  24.104  35.863  10.580
38760W        W  181  33.121  10.251  10.643
38761W        W  182  37.571   5.838   4.807
38762W        W  183  16.203   2.746  13.921
38763W        W  184  11.239   9.325   2.243
38764W        W  185  24.546  10.367  11.428
38765W        W  186  37.506   3.842   2.351
38766W        W  187  43.499  20.678  11.403
38767W        W  188  18.790  39.412  12.559
38768W        W  189   2.258  30.612   0.775
38769W        W  190   5.751  22.084   1.338
38770W        W  191  27.493  29.002  13.864
38771W        W  192  12.808  14.153  13.833
38772W        W  193   3.765  22.646  13.496
38773W        W  194  11.629  43.412  11.007
38774W        W  195  14.708  37.358  12.971
38775W        W  196   1.418  13.609   0.371
38776W        W  197  17.563  23.233   1.899
38777W        W  198  35.461  26.041   2.320
38778W        W  199   2.348  34.526  14.019
38779W        W  200  25.698   0.250  13.055
38780W        W  201  21.546  24.647  11.119
38781W        W  202  28.671  27.451   4.349
38782W        W  203  11.736  39.415   1.393
38783W        W  204  17.672  43.828   0.916
38784W        W  205  10.322  34.449  11.037
38785W        W  206   2.803  37.978  13.479
38786W        W  207  22.131  34.969  11.463
38787W        W  208  37.504  20.108   2.285
38788W        W  209  38.886   2.233  12.991
38789W        W  210  21.232  15.322  14.428
38790W        W  211  25.148  30.164   3.666
38791W        W  212  34.568  12.639   2.868
38792W        W  213  44.264  17.150   3.284
38793W        W  214  18.762  13.322  14.839
38794W        W  215   1.921  24.069  12.555
38795W        W  216  18.626  37.074   4.746
38796W        W  217  18.106  10.357   3.285
38797W        W  218  23.570  29.631  12.873
38798W        W  219   9.256  41.889   1.250
38799W        W  220  16.265  29.129   3.731
38800W        W  221  17.617   7.416   1.699
38801W        W  222   8.327  33.011  14.369
38802W        W  223   7.406   8.184  14.364
38803W        W  224   3.340  10.268   9.968
38804W        W  225  19.585  21.139   2.397
38805W        W  226  33.511  34.998  11.074
38806W        W  227  24.034  22.178   1.852
38807W        W  228  22.641  17.628  12.875
38808W        W  229  30.146   3.335  12.359
38809W        W  230   8.273   0.770  13.540
38810W        W  231  24.007  12.216   4.346
38811W        W  232   8.809  26.031   4.258
38812W        W  233  22.212  16.311   5.113
38813W        W  234  41.015  12.615  12.487
38814W        W  235  38.958  23.040  10.939
38815W        W  236  32.127  15.728   3.167
38816W        W  237  28.044   7.383  10.639
38817W        W  238  21.670  20.273   1.224
38818W        W  239  25.076  27.592  14.904
38819W        W  240  12.649  33.431   1.228
38820W        W  241  19.246   0.411  10.537
38821W        W  242  41.931  30.442   1.778
38822W        W  243  39.321  34.969   4.769
38823W        W  244  34.371  41.917   0.852
38824W        W  245  39.896  10.869   4.597
38825W        W  246  16.776  27.676   0.778
38826W        W  247  32.631  16.770  12.458
38827W        W  248  19.749   3.903  12.438
38828W        W  249  22.612  40.997  13.829
38829W        W  250   1.334  39.042  10.462
38830W        W  251   3.833   9.248  13.335
38831W        W  252   6.294  25.564  11.538
38832W        W  253   0.953  10.374   5.221
38833W        W  254   3.919  43.499   0.454
38834W        W  255  19.741  31.473   1.430
38835W        W  256  32.048  17.234   1.899
38836W        W  257  18.747  44.902  13.416
38837W        W  258  36.393  43.432  12.919
38838W        W  259  16.600   0.803   4.620
38839W        W  260  20.671   6.313  12.416
38840W        W  261  32.093  42.318  11.414
38841W        W  262  22.519  39.046   9.995
38842W        W  263   9.317  39.820  11.406
38843W        W  264  16.688  31.952   3.700
38844W        W  265  31.092  44.844  11.393
38845W        W  266  23.667   9.751   2.671
38846W        W  267  37.394   2.819   3.298
38847W        W  268  15.253  12.624   3.730
38848W        W  269  25.026  41.826  12.517
38849W        W  270  36.863  22.638  10.533
38850W        W  271  39.997  35.367   0.735
38851W        W  272  30.926   7.227  13.947
38852W        W  273   9.175   9.851   2.261
38853W        W  274  10.167  25.150  11.933
38854W        W  275  10.834  10.829  13.829
38855W        W  276  19.177  23.001  14.280
38856W        W  277  41.788  12.625   1.293
38857W        W  278  40.811   4.743   0.743
38858W        W  279   6.241  15.191  11.875
38859W        W  280  13.823  26.972   1.838
38860W        W  281  25.997  28.463  12.911
38861W        W  282   1.385  39.376   1.405
38862W        W  283   2.801  36.978  10.970
38863W        W  284   7.179   6.209   3.181
38864W        W  285   4.216  44.338   2.199
38865W        W  286  36.461  41.897   2.304
38866W        W  287   9.687  19.546   2.662
38867W        W  288  13.162  31.900   4.737
38868W        W  289  17.560  41.802   4.614
38869W        W  290  13.780   1.896   3.294
38870W        W  291  13.211  30.047   4.279
38871W        W  292  25.977  13.632   0.881
38872W        W  293  41.942  29.432  11.064
38873W        W  294  29.998   4.894  13.841
38874W        W  295  34.447  17.067   2.233
38875W        W  296   4.285  19.160   3.201
38876W        W  297  34.999  18.685  11.079
38877W        W  298  41.311  34.409  11.492
38878W        W  299  38.053   0.437   3.159
38879W        W  300  30.513   0.348  14.493
38880W        W  301  19.768  34.395   3.248
38881W        W  302  22.629  34.988   1.246
38882W        W  303  23.695  11.161   2.671
38883W        W  304  14.249  40.978  10.912
38884W        W  305  17.214  20.543   2.333
38885W        W  306  26.485  31.946   4.685
38886W        W  307  44.441  32.997   1.323
38887W        W  308  31.448  29.014  14.937
38888W        W  309  23.715  15.688  14.908
38889W        W  310   7.910   7.706   2.276
38890W        W  311  36.946  43.453   0.422
38891W        W  312  27.559  19.648   2.377
38892W        W  313  38.509  41.423   1.797
38893W        W  314  42.485  17.269   0.479
38894W        W  315  34.078  20.257   0.742
38895W        W  316   4.355  44.770  13.371
38896W        W  317  26.621  12.619  10.459
38897W        W  318  20.632  31.063   3.704
38898W        W  319  37.530  19.263   4.126
38899W        W  320  11.622  35.949  11.119
38900W        W  321   5.714  43.919  13.496
38901W        W  322  18.787   1.419   4.177
38902W        W  323   8.892  30.920   0.834
38903W        W  324  15.169  25.665   0.737
38904W        W  325  33.940  21.244   0.356
38905W        W  326  15.222  39.381  14.408
38906W        W  327  22.551  16.643   2.250
38907W        W  328  43.338  42.502   1.279
38908W        W  329  37.010  23.209  14.882
38909W        W  330   0.949  10.674  11.461
38910W        W  331  13.814  41.992   1.856
38911W        W  332   6.396  42.882   0.431
38912W        W  333  32.036  34.443   4.330
38913W        W  334   7.173  30.028   4.695
38914W        W  335   6.790  31.618  13.847
38915W        W  336  26.675  10.858   2.296
38916W        W  337  12.700  18.557  14.784
38917W        W  338  31.115  34.994  10.921
38918W        W  339  33.923  29.594  14.402
38919W        W  340   9.650   9.815  13.412
38920W        W  341  34.442  30.586  11.486
38921W        W  342  27.602  29.467  12.898
38922W        W  343  43.294  11.207  10.418
38923W        W  344  10.643  10.654  12.465
38924W        W  345  14.100  37.860   0.452
38925W        W  346  22.678  14.598  12.486
38926W        W  347  21.608  39.447  14.833
38927W        W  348   4.933  35.038  14.901
38928W        W  349   3.954  20.631   1.298
38929W        W  350  27.134   3.305  13.053
38930W        W  351   0.935  30.984   0.940
38931W        W  352  15.208  23.239  12.849
38932W        W  353  31.501  15.592   1.777
38933W        W  354   8.822  39.424  14.449
38934W        W  355  22.716  41.939  13.321
38935W        W  356  14.690  20.595   1.315
38936W        W  357   2.853  13.254   2.668
38937W        W  358   7.898  24.139  14.292
38938W        W  359  25.517  35.422   0.338
38939W        W  360  13.264  28.945   4.811
38940W        W  361  33.065  13.178   0.928
38941W        W  362  19.569  43.020  10.960
38942W        W  363  37.505  35.510  12.459
38943W        W  364  28.612  43.979  11.942
38944W        W  365  18.771   1.915   3.707
38945W        W  366  22.740  13.142   2.325
38946W        W  367   1.420   5.336   0.384
38947W        W  368  33.568  34.041   1.448
38948W        W  369  37.066  13.175  13.409
38949W        W  370  32.921  25.979  12.934
38950W        W  371  21.604  42.388   2.666
38951W        W  372   1.459  29.554   4.771
38952W        W  373  18.080  26.667  12.918
38953W        W  374  28.068  23.672  13.807
38954W        W  375  15.237  18.637  14.482
38955W        W  376   1.331  33.037   1.270
38956W        W  377  18.181  30.925  10.631
38957W        W  378  20.609  14.785   1.727
38958W        W  379  44.492   3.310   4.831
38959W        W  380  22.725  41.035   3.842
38960W        W  381  16.234  33.615  13.387
38961W        W  382  32.903  27.974  13.950
38962W        W  383  13.179  42.000  11.948
38963W        W  384  43.278  21.184  12.398
38964W        W  385  37.879   0.820   0.379
38965W        W  386  36.565  34.868  14.408
38966W        W  387  20.704   0.846   1.710
38967W        W  388  43.919  38.022  14.442
38968W        W  389  30.413  44.754   3.175
38969W        W  390  11.868  40.980   0.849
38970W        W  391  34.091  33.042   3.172
38971W        W  392  38.072   1.418   2.346
38972W        W  393  44.292  18.764  12.836
38973W        W  394  33.450  41.979  10.445
38974W        W  395  22.178  11.372  10.925
38975W        W  396   8.812  10.744   0.930
38976W        W  397  28.144  30.560   1.768
38977W        W  398  33.388  13.839   0.477
38978W        W  399  21.227  22.529  10.934
38979W        W  400  35.540   5.800  13.027
38980W        W  401  18.053  25.172  14.309
38981W        W  402  30.086  16.769   1.352
38982W        W  403  39.048  20.244  14.771
38983W        W  404  19.056  39.499   4.775
38984W        W  405   2.472  44.817   4.809
38985W        W  406  44.399  36.007   0.766
38986W        W  407  22.722  33.924  11.057
38987W        W  408  17.306  26.203  13.027
38988W        W  409  22.639  33.385   0.779
38989W        W  410   6.720  25.714  14.956
38990W        W  411   1.325  39.372   2.835
38991W        W  412  15.701  15.757   1.363
38992W        W  413  13.695   7.345   2.256
38993W        W  414  26.118  17.657  12.842
38994W        W  415  20.627  31.017  14.461
38995W        W  416   9.689  36.521   3.804
38996W        W  417  25.137  23.626  13.007
38997W        W  418   0.406  15.579   4.620
38998W        W  419  25.220   6.375  11.007
38999W        W  420  34.568  33.590  12.407
39000W        W  421  33.923  27.618   0.801
39001W        W  422  18.782  18.697   3.829
39002W        W  423   5.322   9.392  11.104
39003W        W  424  14.327   1.918   4.176
39004W        W  425  23.163  44.342  11.867
39005W        W  426  25.113   9.821   0.921
39006W        W  427  18.686  43.002   3.159
39007W        W  428  24.166  17.284  12.393
39008W        W  429  34.605  27.678   3.782
39009W        W  430   0.298  29.473   2.709
39010W        W  431   5.760  32.976  11.526
39011W        W  432  28.608  44.284   3.824
39012W        W  433  30.989   1.877   0.872
39013W        W  434  28.596  11.704  12.438
39014W        W  435  40.849  43.863  14.346
39015W        W  436   0.958  24.111   1.855
39016W        W  437  13.231  21.655   0.326
39017W        W  438  18.244  12.354   0.791
39018W        W  439   3.831  40.516   0.361
39019W        W  440  10.331  32.620  13.006
39020W        W  441  33.529   5.843   2.377
39021W        W  442  29.512  44.382   0.932
39022W        W  443  24.585  24.104  13.504
39023W        W  444  35.408  34.034   1.421
39024W        W  445  36.944  34.953   0.957
39025W        W  446  18.284   3.764   4.635
39026W        W  447  17.672  37.374   2.903
39027W        W  448  21.228  22.739  14.477
39028W        W  449  44.891  36.842  10.441
39029W        W  450  21.625  11.139   4.692
39030W        W  451   6.425  37.516   2.760
39031W        W  452  37.359  37.082   3.229
39032W        W  453  42.949   4.882   1.446
39033W        W  454  39.819  44.833  12.851
39034W        W  455  25.640   0.249  11.588
39035W        W  456  28.055  41.865   3.235
39036W        W  457  15.265  29.563  10.468
39037W        W  458   5.284  44.841   2.754
39038W        W  459  17.738  25.688   0.810
39039W        W  460  44.351  37.888   3.764
39040W        W  461  11.249  23.683   0.461
39041W        W  462  23.494  39.547   4.308
39042W        W  463  43.904  27.167   3.310
39043W        W  464  31.476   4.905  11.502
39044W        W  465  19.219  37.519   4.768
39045W        W  466  38.826  35.391   5.233
39046W        W  467  18.567  13.810   2.269
39047W        W  468  41.526  34.472   0.399
39048W        W  469  32.427  43.471  12.026
39049W        W  470  27.079   5.884  13.515
39050W        W  471  35.508   9.869  12.350
39051W        W  472  39.928   1.327   0.922
39052W        W  473   2.936  39.044  14.982
39053W        W  474   6.919  10.861   4.293
39054W        W  475  37.509  21.572  14.325
39055W        W  476  41.883  43.815  14.814
39056W        W  477  24.723   7.742   0.885
39057W        W  478  43.348  23.064   4.151
39058W        W  479  15.235  15.118  12.527
39059W        W  480  11.830   4.914   4.222
39060W        W  481  15.750   7.277   4.604
39061W        W  482  24.568  35.534  11.475
39062W        W  483   8.272  10.161   0.354
39063W        W  484  25.470   6.922   5.236
39064W        W  485  39.887  21.193   3.768
39065W        W  486  10.832  29.947   2.263
39066W        W  487  21.048  26.088  13.960
39067W        W  488  36.456  12.773  10.064
39068W        W  489  37.970   5.379  10.976
39069W        W  490  23.680  29.485  13.876
39070W        W  491  43.365  34.436   1.725
39071W        W  492  32.931   7.292   0.391
39072W        W  493  40.919  41.322  12.990
39073W        W  494  18.268  38.352   2.787
39074W        W  495   4.786  19.742  14.834
39075W        W  496  14.293  34.382  11.422
39076W        W  497  37.997   9.177   0.274
39077W        W  498   7.830   8.311   2.368
39078W        W  499  16.712  13.138   1.256
39079W        W  500  28.941   6.917  13.839
39080W        W  501  35.456  20.744   0.361
39081W        W  502  34.111   1.359  12.010
39082W        W  503  23.650  14.247   0.344
39083W        W  504   7.398  23.633   3.739
39084W        W  505  15.740  12.759   2.305
39085W        W  506   7.311  18.781  14.356
39086W        W  507  13.671  31.983  11.025
39087W        W  508  25.593   9.734   2.205
39088W        W  509  24.197  39.553   0.930
39089W        W  510  25.061  21.588  12.462
39090W        W  511  39.890  31.043   2.884
39091W        W  512  24.603  42.345   2.803
39092W        W  513  37.527  38.063  13.886
39093W        W  514  41.993  12.789  13.977
39094W        W  515  11.644  35.406  10.930
39095W        W  516  22.006   7.173  11.086
39096W        W  517  41.507  30.092   3.327
39097W        W  518  19.721  34.559   4.266
39098W        W  519  10.152  30.598  14.279
39099W        W  520   4.236  43.413   1.769
39100W        W  521  33.048  44.448   3.808
39101W        W  522   5.914  37.377   4.625
39102W        W  523  24.051  17.142   4.183
39103W        W  524  33.409   6.878   0.409
39104W        W  525  15.174  13.307  11.019
39105W        W  526  12.153   1.751  14.889
39106W        W  527   4.743   4.279   9.674
39107W        W  528  44.380  21.049   2.850
39108W        W  529   8.723  30.161  14.001
39109W        W  530  11.126  17.596  14.421
39110W        W  531  42.426   5.853  14.502
39111W        W  532  11.650  36.059   1.746
39112W        W  533  22.124  10.836   2.256
39113W        W  534  28.929   5.835   3.164
39114W        W  535   2.779  16.290   3.669
39115W        W  536   6.198  33.604  12.523
39116W        W  537  38.527  12.677  10.083
39117W        W  538  30.005  40.826   3.807
39118W        W  539  25.598  15.109   2.306
39119W        W  540   5.284  29.661  11.923
39120W        W  541  30.941  33.475   4.235
39121W        W  542  18.728  35.493  14.981
39122W        W  543  26.677  17.122   0.913
39123W        W  544  39.951   8.841   4.697
39124W        W  545   3.457   2.398  11.913
39125W        W  546   4.892  35.889   2.404
39126W        W  547  30.048  43.406  12.898
39127W        W  548  17.250  34.906   4.327
39128W        W  549  20.198  12.794   1.299
39129W        W  550  40.442  21.110   1.226
39130W        W  551  21.712  31.095   1.722
39131W        W  552   1.833  27.991   2.227
39132W        W  553   8.196  15.317   4.125
39133W        W  554  38.478  44.300   3.376
39134W        W  555  35.947  30.431  13.044
39135W        W  556  31.446  19.658  12.422
39136W        W  557  41.480  36.993   3.811
39137W        W  558   8.709  22.017   2.179
39138W        W  559  32.524  13.699  14.421
39139W        W  560   9.881  32.921   1.795
39140W        W  561  23.119  19.699  13.454
39141W        W  562  21.118   4.223  10.977
39142W        W  563  23.162  28.436   1.287
39143W        W  564   4.387   6.334   9.923
39144W        W  565   7.789  37.380   4.796
39145W        W  566  19.259  35.491   0.343
39146W        W  567  12.201  43.978   2.695
39147W        W  568  20.643  42.358   0.911
39148W        W  569  29.031  30.460  14.939
39149W        W  570   1.238  10.744   4.271
39150W        W  571  43.508  19.047  14.380
39151W        W  572   2.341   6.344   2.325
39152W        W  573  37.909  29.579  13.953
39153W        W  574  40.354   7.759   1.227
39154W        W  575  28.538  38.390   4.317
39155W        W  576   9.287  40.453   1.297
39156W        W  577  20.155   1.975   0.818
39157W        W  578   5.827  21.539   0.814
39158W        W  579  22.504  18.609   4.212
39159W        W  580  40.304  22.595   2.848
39160W        W  581  20.524  23.057  10.615
39161W        W  582  19.256  39.930   4.215
39162W        W  583   3.287  43.811   2.180
39163W        W  584  42.513  37.080  14.314
39164W        W  585  12.359  37.371  13.403
39165W        W  586  18.697  34.029   3.364
39166W        W  587  40.356  42.912   4.654
39167W        W  588   8.842  24.119   3.705
39168W        W  589  25.498  17.068   0.780
39169W        W  590  23.617  17.233  10.519
39170W        W  591  27.173  42.438  13.475
39171W        W  592   0.267  38.021   2.289
39172W        W  593  38.499  40.039  14.915
39173W        W  594   3.730  20.272  11.897
39174W        W  595  23.142  41.440   0.316
39175W        W  596  11.755   6.283   2.375
39176W        W  597  14.339  29.990  11.862
39177W        W  598   6.303   7.275  13.802
39178W        W  599  31.507  31.413   2.903
39179W        W  600  37.055  34.536   4.184
39180W        W  601   7.203  31.903  11.596
39181W        W  602   3.901  14.789   4.291
39182W        W  603  36.562  21.662   4.810
39183W        W  604  28.020  20.092   3.708
39184W        W  605  17.272  20.111  12.056
39185W        W  606  14.238  13.602  12.353
39186W        W  607  43.834  33.546   3.224
39187W        W  608  20.579  37.073  12.949
39188W        W  609  31.038   9.693  10.630
39189W        W  610  24.977  14.094   4.160
39190W        W  611  37.867   5.844  14.410
39191W        W  612  33.603  33.505   3.199
39192W        W  613  35.577  26.958   3.814
39193W        W  614  26.084  29.565  11.424
39194W        W  615  32.551  24.570   1.832
39195W        W  616  25.579  26.611  14.914
39196W        W  617  44.281  17.751   1.413
39197W        W  618  27.580   3.370   4.708
39198W        W  619  43.012  11.323  14.860
39199W        W  620  24.180  26.169   4.288
39200W        W  621   3.432   9.157   2.211
39201W        W  622  27.595   4.319  13.027
39202W        W  623   0.260  27.096   0.253
39203W        W  624  16.139  25.050  12.089
39204W        W  625  19.100  35.859  14.911
39205W        W  626   5.906  19.122   1.358
39206W        W  627  28.441  36.984   3.809
39207W        W  628  39.864  15.581   4.612
39208W        W  629   3.831  38.027  12.357
39209W        W  630  24.673  20.606  10.630
39210W        W  631  37.949   2.472   3.641
39211W        W  632  40.302  31.107   1.783
39212W        W  633  42.516  37.388  12.453
39213W        W  634  10.360  40.983   3.368
39214W        W  635  18.700  27.092  11.957
39215W        W  636  18.596  26.465  12.899
39216W        W  637  11.223  25.506   1.835
39217W        W  638  18.114  21.710  12.524
39218W        W  639  33.878   8.822  13.538
39219W        W  640  17.595   3.841  14.940
39220W        W  641  11.285  18.183  14.939
39221W        W  642  42.000  40.365  14.448
39222W        W  643   6.764  26.181  13.938
39223W        W  644  28.987  11.273   0.966
39224W        W  645  43.932  39.351  11.385
39225W        W  646  21.672  31.644  10.640
39226W        W  647  30.456  18.264   1.387
39227W        W  648  17.062  33.560   1.751
39228W        W  649  22.725  25.000   5.227
39229W        W  650   1.843  34.970   1.286
39230W        W  651   3.279   3.387   1.437
39231W        W  652  26.492  11.635  12.976
39232W        W  653  28.167  44.872  11.047
39233W        W  654  40.538  38.915  13.949
39234W        W  655   2.340  20.736   0.821
39235W        W  656  43.003  32.527   1.815
39236W        W  657   5.720  11.246  14.482
39237W        W  658  44.998   7.192  10.506
39238W        W  659  42.353  32.474   4.607
39239W        W  660  29.483  42.309  10.560
39240W        W  661  20.205  29.098   4.767
39241W        W  662  38.419   8.193  10.612
39242W        W  663  10.332   4.379  14.844
39243W        W  664  44.260  23.616  14.781
39244W        W  665  11.751  39.904  10.459
39245W        W  666  14.159  36.557   3.347
39246W        W  667  38.500  19.156  13.483
39247W        W  668  14.830  26.684  11.099
39248W        W  669   0.801   5.772   2.403
39249W        W  670  40.498  25.541  14.473
39250W        W  671  25.680  27.596  13.006
39251W        W  672   8.828  25.212   1.728
39252W        W  673  36.003   1.966  14.770
39253W        W  674   7.375  12.184   0.474
39254W        W  675  30.967  17.129  12.866
39255W        W  676  32.963   7.771   3.367
39256W        W  677   4.339  28.946   4.181
39257W        W  678  33.402  25.481   1.286
39258W        W  679  11.642  38.528   9.939
39259W        W  680  21.057  14.704   2.672
39260W        W  681   3.248  16.715  13.491
39261W        W  682  12.215  10.187   3.824
39262W        W  683  14.143  15.658  13.362
39263W        W  684   6.758  14.819  10.444
39264W        W  685  44.444  35.599  11.126
39265W        W  686   2.869  28.638  13.539
39266W        W  687  22.239  32.114   2.745
39267W        W  688  28.606  30.613   2.287
39268W        W  689   5.920  31.919   3.775
39269W        W  690  22.118   5.699  13.878
39270W        W  691  23.586  32.626   1.891
39271W        W  692  18.637   5.204   2.195
39272W        W  693  22.009  36.847   0.957
39273W        W  694  33.490  28.681  13.377
39274W        W  695  40.797  31.029   0.767
39275W        W  696   1.312  35.988   3.346
39276W        W  697  20.578  30.957  13.983
39277W        W  698  43.498  25.981  10.555
39278W        W  699  39.883  20.722   4.299
39279W        W  700  24.666   8.235  13.009
39280W        W  701  36.847  15.686   3.741
39281W        W  702  12.767  12.660   2.313
39282W        W  703  16.689  21.615   4.627
39283W        W  704  17.760  11.772   3.148
39284W        W  705  31.991  32.438  13.465
39285W        W  706   2.769  17.273  14.489
39286W        W  707  15.195  11.623   0.753
39287W        W  708   1.322  34.958   2.774
39288W        W  709  38.887  40.534   0.445
39289W        W  710  35.024   2.862  10.075
39290W        W  711  34.447   2.938  13.402
39291W        W  712  38.870  44.976   4.635
39292W        W  713  10.371  32.458  10.432
39293W        W  714  22.581  40.531   2.888
39294W        W  715   6.904  29.041  12.346
39295W        W  716   4.911  26.657  11.437
39296W        W  717  32.939  31.119  10.411
39297W        W  718  40.512  10.203  12.532
39298W        W  719  34.864  39.453  12.408
39299W        W  720  11.372  27.515  10.905
39300W        W  721   4.378  19.649   1.377
39301W        W  722  14.738  39.522  13.799
39302W        W  723  16.230  39.497  14.956
39303W        W  724  42.779  21.100  13.955
39304W        W  725   2.894  15.267  11.102
39305W        W  726  17.093  28.487   1.734
39306W        W  727  16.119  17.679   0.947
39307W        W  728   7.178  17.112  12.368
39308W        W  729  22.727  37.575  10.059
39309W        W  730  37.018   3.339   1.934
39310W        W  731  13.242  37.569   0.911
39311W        W  732  20.566  36.561  12.530
39312W        W  733   7.372   1.423  14.911
39313W        W  734  14.758  38.046  14.869
39314W        W  735  43.427  26.550  14.501
39315W        W  736   4.876  28.497   4.296
39316W        W  737  12.722  36.855  11.067
39317W        W  738   2.756  35.893   1.697
39318W        W  739  43.844  26.153  10.570
39319W        W  740  12.304  17.790  14.857
39320W        W  741   9.822  43.856  12.870
39321W        W  742  12.247  11.240  11.604
39322W        W  743  43.987  32.941  14.988
39323W        W  744  17.626  44.310   2.366
39324W        W  745  24.645  14.106   0.918
39325W        W  746   3.280   5.291  14.384
39326W        W  747  11.197  27.489   2.273
39327W        W  748   0.794  26.541  13.482
39328W        W  749   0.851  25.041   3.645
39329W        W  750   4.250   8.350   3.195
39330W        W  751  19.178  13.207  13.545
39331W        W  752   7.394   6.845   4.736
39332W        W  753   0.431  15.201   4.309
39333W        W  754   8.230  34.554   0.422
39334W        W  755  22.684   7.271  12.876
39335W        W  756   8.771  24.580  10.912
39336W        W  757  12.767  37.381   2.758
39337W        W  758  38.995  43.013   4.672
39338W        W  759  35.367  15.687  14.904
39339W        W  760  44.921  31.950  11.470
39340W        W  761  26.485  10.805   3.665
39341W        W  762  22.522  16.272   5.260
39342W        W  763  31.522   5.267   0.894
39343W        W  764   6.726  20.272  13.909
39344W        W  765  26.601  18.670  12.851
39345W        W  766  36.483  14.826   1.356
39346W        W  767  15.205   7.410   4.636
39347W        W  768  24.708  33.946  10.555
39348W        W  769  21.734  34.079  11.443
39349W        W  770   4.401  31.562  12.937
39350W        W  771   6.404  35.087   0.791
39351W        W  772  35.373  33.407  12.480
39352W        W  773  25.668  24.589   4.179
39353W        W  774  22.721  37.913   3.677
39354W        W  775  28.931  32.075  11.569
39355W        W  776  27.640  28.560  12.362
39356W        W  777  37.525  19.770  10.487
39357W        W  778  40.384  33.406  14.511
39358W        W  779  38.935  23.559   2.758
39359W        W  780  17.754  29.972  12.000
39360W        W  781   4.287  19.150  11.397
39361W        W  782  39.947   3.833  14.830
39362W        W  783  19.120   3.376   1.905
39363W        W  784  40.860  20.040  12.067
39364W        W  785  11.729  39.385  14.336
39365W        W  786  16.236  18.554   0.398
39366W        W  787  44.335  24.722   1.375
39367W        W  788   7.377  38.839  14.502
39368W        W  789  28.484  28.176   1.354
39369W        W  790  43.421  14.331  10.041
39370W        W  791   2.751  44.317  10.555
39371W        W  792  37.540  20.045  14.854
39372W        W  793  10.268  23.163  13.964
39373W        W  794  19.778  23.133   2.204
39374W        W  795  39.377  14.317   1.873
39375W        W  796  43.800  14.747  14.500
39376W        W  797  15.242  26.529   3.259
39377W        W  798  21.649   3.429  13.482
39378W        W  799   2.471  36.514   4.352
39379W        W  800  37.922  29.935  12.951
39380W        W  801  18.122  44.851  14.787
39381W        W  802  18.711  44.962   4.286
39382W        W  803  15.802   9.841   2.283
39383W        W  804  44.972  12.209   4.349
39384W        W  805  32.981  13.208   2.336
39385W        W  806  12.232  38.074   3.750
39386W        W  807   6.223   9.714  12.529
39387W        W  808   7.838  39.891   1.244
39388W        W  809  32.602   9.277   0.253
39389W        W  810  19.554  20.649   3.793
39390W        W  811  20.603  15.729   3.797
39391W        W  812  30.119  39.908   1.436
39392W        W  813  40.491   0.350   4.832
39393W        W  814  33.931  44.388  14.999
39394W        W  815  31.490  20.558   3.828
39395W        W  816   7.904  33.579  13.835
39396W        W  817  25.572   2.924  11.017
39397W        W  818  29.164   3.448   3.161
39398W        W  819  33.993  14.220   3.225
39399W        W  820  29.483   5.321   3.279
39400W        W  821  32.924   6.420  14.857
39401W        W  822  32.585  33.598  12.076
39402W        W  823  35.062  34.501   2.223
39403W        W  824  35.939  40.506  10.428
39404W        W  825  33.035  36.020  11.422
39405W        W  826  21.070  43.800  14.909
39406W        W  827  25.638  26.541   5.214
39407W        W  828   4.830   6.183  13.929
39408W        W  829  14.655  24.555  11.941
39409W        W  830  33.531  23.183  11.490
39410W        W  831  41.307   5.800  11.885
39411W        W  832   0.302  30.014  13.359
39412W        W  833  19.771  31.591  10.147
39413W        W  834  33.989  27.545  14.821
39414W        W  835  40.867  44.477  11.455
39415W        W  836  27.941  20.079  11.863
39416W        W  837  19.597  24.495   0.438
39417W        W  838  39.461  42.364  13.521
39418W        W  839  27.467  29.126  14.322
39419W        W  840  42.008   6.909   0.906
39420W        W  841  43.494  10.154   2.858
39421W        W  842  17.721   3.259   1.236
39422W        W  843  15.621  28.449   1.309
39423W        W  844  41.333  20.161  14.847
39424W        W  845  35.027   6.184  11.385
39425W        W  846  25.604  35.492  13.481
39426W        W  847  39.037  33.043   0.738
39427W        W  848  23.648   2.746   2.895
39428W        W  849  31.519  18.168   0.278
39429W        W  850  39.848  15.311  12.511
39430W        W  851  34.586  19.538   2.685
39431W        W  852  42.842  13.699  11.383
39432W        W  853  41.452  36.475  12.993
39433W        W  854   5.797  36.013   1.781
39434W        W  855  28.441   2.791  14.486
39435W        W  856  10.818  39.056   0.355
39436W        W  857  13.737  43.896  11.983
39437W        W  858  15.280  25.058   3.676
39438W        W  859  37.849  44.465   2.322
39439W        W  860  27.604  44.997   3.303
39440W        W  861  30.649  39.851  11.129
39441W        W  862   4.765  15.115   3.740
39442W        W  863   0.271  15.620  14.855
39443W        W  864  39.914  33.111  12.526
39444W        W  865  17.589  43.785  14.407
39445W        W  866   6.706  11.199  12.460
39446W        W  867   5.309  22.079   0.907
39447W        W  868   2.952  13.162   3.685
39448W        W  869  30.496  37.034  10.975
39449W        W  870  20.534  16.270   2.377
39450W        W  871  39.534  26.056   1.405
39451W        W  872  39.991  39.826   3.635
39452W        W  873  10.812  27.599   1.303
39453W        W  874  31.465   3.415  13.012
39454W        W  875  37.529   0.362  11.442
39455W        W  876  13.748  35.916  11.906
39456W        W  877   7.401   8.659  14.276
39457W        W  878  18.104  22.692   2.378
39458W        W  879  17.615   2.236   1.787
39459W        W  880  10.249  11.725  11.563
39460W        W  881  22.585  12.190  13.009
39461W        W  882  26.535   9.722   3.264
39462W        W  883  40.940  15.192   4.790
39463W        W  884  39.816  36.391  12.443
39464W        W  885  38.036  10.145   1.398
39465W        W  886  17.301  26.649   1.412
39466W        W  887  44.794  17.134  12.073
39467W        W  888  39.967  40.514   0.371
39468W        W  889   8.660   2.791  14.372
39469W        W  890  38.395  16.713   4.188
39470W        W  891   2.909  27.158   1.304
39471W        W  892  35.584  39.974  12.577
39472W        W  893  26.070  16.284  13.946
39473W        W  894  37.531  16.114   0.273
39474W        W  895   2.750  41.969   3.212
39475W        W  896  24.066  41.812   4.213
39476W        W  897   7.717   9.866  12.010
39477W        W  898  12.224  41.843  13.530
39478W        W  899  39.498  24.004   0.801
39479W        W  900  16.597   2.317  10.457
39480W        W  901  28.982   3.414  12.544
39481W        W  902  18.056   2.419  12.417
39482W        W  903  44.846  29.557  13.314
39483W        W  904   5.822  31.432  12.340
39484W        W  905   3.356  11.274   3.276
39485W        W  906  30.519  20.153   4.795
39486W        W  907  40.309  10.635   4.774
39487W        W  908  18.172  32.413   1.367
39488W        W  909  23.549  34.118  10.941
39489W        W  910  35.027  35.996  11.389
39490W        W  911  30.023  39.456   4.676
39491W        W  912  41.793   3.295   1.285
39492W        W  913   2.431  39.474  12.430
39493W        W  914  39.422  34.030   2.737
39494W        W  915  31.004  41.534   3.364
39495W        W  916  25.515  15.591   4.145
39496W        W  917   0.391   4.719  14.365
39497W        W  918  22.642  19.232   4.664
39498W        W  919   3.952  43.989  13.891
39499W        W  920  32.515  22.543   1.436
39500W        W  921   5.219   2.761  11.499
39501W        W  922   8.705  34.019   1.897
39502W        W  923  22.708   2.721  11.117
39503W        W  924  29.135  38.395  12.060
39504W        W  925   4.281  39.328  12.530
39505W        W  926  23.092  30.967  14.285
39506W        W  927  29.609  31.104   4.810
39507W        W  928   0.899  11.210  14.512
39508W        W  929  33.588  36.091   0.335
39509W        W  930  33.938  10.333  10.951
39510W        W  931  38.893  39.962  11.976
39511W        W  932  24.120  25.517   4.290
39512W        W  933   0.765  27.949   2.860
39513W        W  934  21.141  18.592   3.367
39514W        W  935  38.372  43.373   2.885
39515W        W  936  30.149  32.471   3.783
39516W        W  937  20.151  42.520  12.859
39517W        W  938  32.041  30.010  11.093
39518W        W  939  42.520  24.584   0.775
39519W        W  940  12.349  26.162  14.028
39520W        W  941  13.635  11.744   1.434
39521W        W  942  41.407  35.912   1.764
39522W        W  943   0.299  28.573  14.396
39523W        W  944  24.091  10.306  12.086
39524W        W  945   5.245   9.301  13.528
39525W        W  946   0.435   3.324   2.180
39526W        W  947  33.511  16.172  10.585
39527W        W  948  10.676  19.228  11.905
39528W        W  949  29.940  18.055  11.482
39529W        W  950  26.097  17.634  11.514
39530W        W  951   5.209  21.624   3.704
39531W        W  952  34.874  17.581   0.366
39532W        W  953  11.838  35.966  10.593
39533W        W  954  17.680  16.726  11.950
39534W        W  955  14.175  24.544   1.867
39535W        W  956  11.626  35.919  12.373
39536W        W  957  17.562  18.296   1.441
39537W        W  958  15.296  25.001   0.268
39538W        W  959  18.612  13.230  12.873
39539W        W  960  12.845  15.585  11.127
39540W        W  961   5.199  14.122   4.352
39541W        W  962  33.501  12.843  14.503
39542W        W  963  42.346  35.922   2.704
39543W        W  964   7.363  40.422   2.799
39544W        W  965  18.551  19.070   4.704
39545W        W  966  11.170  28.495  14.393
39546W        W  967  44.898  31.948  13.880
39547W        W  968  10.713  41.988   0.770
39548W        W  969  11.723  19.183   3.283
39549W        W  970  18.672  31.445   0.808
39550W        W  971   7.269  24.175  12.383
39551W        W  972  31.483  37.378   0.396
39552W        W  973  25.208  35.386   1.238
39553W        W  974  10.686  28.094   1.756
39554W        W  975  29.018   8.370  10.494
39555W        W  976  35.524  44.371  10.623
39556W        W  977   7.746  18.783   4.625
39557W        W  978  24.180  41.938  10.952
39558W        W  979  42.393  24.117   4.833
39559W        W  980   6.811  12.647  10.416
39560W        W  981  31.033   7.861  13.835
39561W        W  982  22.106  39.401   0.755
39562W        W  983   2.875  39.911  12.386
39563W        W  984  12.162   7.798   3.277
39564W        W  985  44.432  27.960  13.427
39565W        W  986  20.056  30.495   2.394
39566W        W  987  34.563  35.936   1.383
39567W        W  988  10.838  18.685  14.508
39568W        W  989  43.478  43.314   4.721
39569W        W  990  19.755  11.709   3.753
39570W        W  991  17.560  34.546  11.954
39571W        W  992  17.187   6.384   1.865
39572W        W  993  41.416  21.121  10.624
39573W        W  994  12.322  34.486   0.800
39574W        W  995   8.692   9.683   1.766
39575W        W  996  44.278  28.981  14.466
39576W        W  997  41.427  42.938  11.995
39577W        W  998  31.478  17.724  14.979
39578W        W  999  23.612   7.739   2.788
39579W        W 1000   0.455  20.074  13.448
39580W        W 1001  39.482  17.242  11.462
39581W        W 1002  22.151  44.351   0.278
39582W        W 1003  41.037  22.623  10.952
39583W        W 1004  10.704   8.835   2.344
39584W        W 1005  32.976  32.540   3.860
39585W        W 1006  44.289  24.166  12.567
39586W        W 1007  15.700  27.115  14.307
39587W        W 1008  20.577   6.249   5.789
39588W        W 1009   5.389  11.758  12.537
39589W        W 1010  15.172  37.847   3.855
39590W        W 1011  19.561   6.865  10.911
39591W        W 1012  34.089  24.199   4.623
39592W        W 1013   0.453  41.019   1.856
39593W        W 1014  11.270  16.732   1.742
39594W        W 1015  36.455  34.901   4.626
39595W        W 1016  19.707   5.729   0.764
39596W        W 1017  38.883  28.617  13.004
39597W        W 1018  14.707  41.027  12.857
39598W        W 1019   0.933  43.805   2.870
39599W        W 1020   0.275   5.406  13.308
39600W        W 1021  20.159  33.519  11.428
39601W        W 1022   6.832   3.922   0.243
39602W        W 1023  39.859   0.959   2.673
39603W        W 1024  35.377  33.127   2.804
39604W        W 1025  24.719  36.004   4.179
39605W        W 1026  40.350   4.707   1.268
39606W        W 1027  24.136  36.419  11.386
39607W        W 1028  37.966   6.205  12.560
39608W        W 1029   8.407  36.054  13.917
39609W        W 1030  38.416   4.436  13.792
39610W        W 1031  39.415  39.889  12.517
39611W        W 1032   7.815  15.723   1.348
39612W        W 1033  25.196  31.108  14.921
39613W        W 1034   2.384  42.798  13.817
39614W        W 1035  31.011  41.505  11.578
39615W        W 1036  43.955  17.801  14.967
39616W        W 1037  12.802  18.057   1.878
39617W        W 1038   1.962  27.103  14.983
39618W        W 1039  17.236  41.352  10.014
39619W        W 1040  40.487  25.004   3.384
39620W        W 1041  40.872  41.332   2.385
39621W        W 1042  37.909  20.065   2.690
39622W        W 1043  43.512  31.097  10.917
39623W        W 1044  11.645  22.534  11.508
39624W        W 1045  10.877  29.512  12.873
39625W        W 1046  15.637   0.287  13.307
39626W        W 1047  14.615   6.856  12.517
39627W        W 1048   4.295  20.135   1.367
39628W        W 1049  34.572   1.863   0.877
39629W        W 1050   8.768  44.785   2.345
39630W        W 1051  17.191  43.374   1.720
39631W        W 1052  25.687  29.051  11.572
39632W        W 1053  39.391  44.833  12.940
39633W        W 1054   5.768  11.156  11.568
39634W        W 1055  28.598  37.912  11.386
39635W        W 1056  30.024  44.990  14.315
39636W        W 1057  38.340  31.107   0.375
39637W        W 1058  35.944  35.554  10.491
39638W        W 1059  35.921  10.829   2.353
39639W        W 1060  26.526   4.283  13.357
39640W        W 1061  14.663   9.868   0.454
39641W        W 1062  27.594  12.702   2.259
39642W        W 1063  22.635   0.339  14.328
39643W        W 1064   7.228   6.715   1.428
39644W        W 1065  31.941  35.994   3.165
39645W        W 1066  43.773   5.203  14.875
39646W        W 1067  36.365   2.268   4.152
39647W        W 1068  18.260  44.294   1.311
39648W        W 1069   1.743  40.454   4.264
39649W        W 1070  15.206   4.323  12.549
39650W        W 1071  14.283  23.077   0.890
39651W        W 1072  33.564  37.049   3.330
39652W        W 1073  10.308  10.167  10.059
39653W        W 1074  42.308  28.549  12.079
39654W        W 1075   7.221  11.228  14.342
39655W        W 1076   4.826   4.391   0.751
39656W        W 1077  38.964   4.936  14.014
39657W        W 1078  36.397   7.353   0.858
39658W        W 1079  21.572  17.268  13.534
39659W        W 1080   3.404  17.227   1.711
39660W        W 1081  42.004  42.825  12.554
39661W        W 1082  17.226   2.825   4.292
39662W        W 1083  13.199  21.209  12.923
39663W        W 1084  14.309  14.222  11.981
39664W        W 1085  10.857  11.702   2.825
39665W        W 1086  43.871  18.191   4.732
39666W        W 1087  40.055  33.895   1.747
39667W        W 1088  43.782   1.359   1.287
39668W        W 1089  31.614  27.972  14.354
39669W        W 1090  25.569  19.571   0.873
39670W        W 1091  28.549  20.183  12.998
39671W        W 1092  40.483  41.882  12.431
39672W        W 1093  29.517   4.364  14.394
39673W        W 1094  13.168  10.862  11.529
39674W        W 1095  32.034  10.296  12.530
39675W        W 1096  31.044  37.888   2.806
39676W        W 1097  29.167  15.171   1.367
39677W        W 1098   1.251  17.765  11.602
39678W        W 1099  23.217  36.573  12.433
39679W        W 1100  36.009  26.610  10.982
39680W        W 1101  29.642  21.649  13.831
39681W        W 1102  41.849  17.089   2.840
39682W        W 1103   6.804  27.146   4.341
39683W        W 1104  16.293  17.260   9.999
39684W        W 1105  38.409  43.814  14.888
39685W        W 1106  18.064  41.787   2.179
39686W        W 1107  17.118  38.352  10.463
39687W        W 1108  32.969   3.449  12.467
39688W        W 1109  40.917  34.529   0.439
39689W        W 1110   6.189  15.731   1.807
39690W        W 1111  13.709   6.805  11.569
39691W        W 1112  24.707  25.040  10.928
39692W        W 1113   3.258  13.299   4.286
39693W        W 1114  27.014   9.667   2.242
39694W        W 1115   9.247  29.120  10.123
39695W        W 1116  39.983  43.984  12.970
39696W        W 1117  28.533  37.946  11.857
39697W        W 1118  30.504  25.700  14.454
39698W        W 1119  38.048  33.505   0.353
39699W        W 1120  14.834   5.225  11.425
39700W        W 1121  21.725   6.688   0.799
39701W        W 1122  12.320  39.851  12.440
39702W        W 1123   4.833  22.688   3.670
39703W        W 1124  21.551  26.174   1.256
39704W        W 1125  25.196  26.107  13.931
39705W        W 1126   6.802  14.793   1.444
39706W        W 1127   2.409  20.761  11.529
39707W        W 1128   6.918   3.310  12.543
39708W        W 1129  39.398  35.438   0.866
39709W        W 1130  33.894   6.279   9.983
39710W        W 1131  33.069  43.497  13.983
39711W        W 1132  29.083   6.238  14.849
39712W        W 1133  38.063   0.947   2.855
39713W        W 1134  30.618  18.578   3.273
39714W        W 1135  44.362  20.642  10.635
39715W        W 1136   1.377  19.746  13.344
39716W        W 1137  30.090  34.609   2.739
39717W        W 1138   6.356   2.887  12.969
39718W        W 1139  24.146  16.113  14.815
39719W        W 1140  43.294   2.380  13.376
39720W        W 1141  17.148  27.969  10.892
39721W        W 1142  23.695  21.597   2.830
39722W        W 1143  39.370   7.851   1.362
39723W        W 1144  41.958  31.464   3.864
39724W        W 1145   7.844   9.838   2.338
39725W        W 1146  21.740  23.530  12.349
39726W        W 1147  29.942  42.316   4.233
39727W        W 1148  36.870  15.133   0.925
39728W        W 1149  27.509   6.414   3.693
39729W        W 1150  31.004  14.186   0.410
39730W        W 1151  34.976  14.107  10.014
39731W        W 1152   3.367  29.961   1.912
39732W        W 1153  42.943  24.566   3.361
39733W        W 1154  19.233  28.004  13.901
39734W        W 1155  29.565  29.173   4.284
39735W        W 1156   9.373  17.571   0.353
39736W        W 1157  39.556  18.590  13.451
39737W        W 1158   2.437   7.201   3.296
39738W        W 1159  14.623  17.566   4.266
39739W        W 1160  42.419   7.399   4.725
39740W        W 1161  33.495  36.852  10.915
39741W        W 1162   7.226  23.502   1.702
39742W        W 1163  25.187   3.788   3.677
39743W        W 1164  27.456  24.038   2.345
39744W        W 1165  26.007  31.088  14.371
39745W        W 1166   8.864  12.776   1.245
39746W        W 1167  11.702  44.993  13.001
39747W        W 1168  43.285  40.442   2.397
39748W        W 1169  24.695  38.494  11.450
39749W        W 1170  40.309  25.199   2.665
39750W        W 1171   1.829  14.150   2.699
39751W        W 1172  25.474  14.288   2.242
39752W        W 1173  32.529  18.209  12.036
39753W        W 1174  34.096  40.009   2.666
39754W        W 1175  26.184  25.601  10.625
39755W        W 1176   6.811   5.253   3.698
39756W        W 1177  18.738  32.612   3.378
39757W        W 1178   0.857  26.050  12.022
39758W        W 1179  15.176   2.880  10.453
39759W        W 1180   7.215  28.656   4.119
39760W        W 1181  13.236  41.801   3.793
39761W        W 1182  27.610  16.290   4.756
39762W        W 1183  37.066  21.512   1.842
39763W        W 1184  25.536  14.142   4.276
39764W        W 1185   1.762  15.096  10.438
39765W        W 1186  41.293  12.318  13.043
39766W        W 1187  24.497   5.929  12.905
39767W        W 1188  26.510  29.607  12.870
39768W        W 1189  19.165  39.919  11.937
39769W        W 1190  23.183  37.978   2.810
39770W        W 1191  27.578  13.316   3.654
39771W        W 1192  38.036  43.270   3.774
39772W        W 1193   4.918  23.727  12.893
39773W        W 1194  11.182   7.382   0.901
39774W        W 1195  23.524  43.875  14.354
39775W        W 1196  36.576  27.600  14.901
39776W        W 1197  19.631  14.686  13.436
39777W        W 1198  33.928  43.514   2.858
39778W        W 1199  37.542  17.643  14.495
39779W        W 1200   1.342  15.208   3.843
39780W        W 1201  14.696  39.492   3.634
39781W        W 1202  22.052   8.732   2.703
39782W        W 1203  20.629  21.626   3.637
39783W        W 1204  36.421  40.505  10.966
39784W        W 1205   1.851  43.420   3.714
39785W        W 1206  35.862  31.628  14.338
39786W        W 1207  43.792  15.743  10.605
39787W        W 1208  34.420   2.958   1.710
39788W        W 1209  25.121  25.142   0.461
39789W        W 1210   8.863   5.858   4.825
39790W        W 1211  16.167  13.108   0.316
39791W        W 1212   5.362  40.981   3.822
39792W        W 1213   7.331   4.335   3.710
39793W        W 1214  23.236  34.595   3.355
39794W        W 1215  36.444   2.335  14.827
39795W        W 1216  20.717  20.717   2.693
39796W        W 1217  22.088  30.161  13.340
39797W        W 1218  39.061  15.769   3.679
39798W        W 1219  31.036   9.223   4.272
39799W        W 1220  32.041  16.757  13.004
39800W        W 1221  35.556   2.865  14.508
39801W        W 1222  14.807  12.338   0.928
39802W        W 1223  16.077  36.408  11.606
39803W        W 1224   3.816  20.226  14.474
39804W        W 1225   4.720  20.686  13.941
39805W        W 1226  23.560   6.233  11.530
39806W        W 1227  19.661  39.339  14.766
39807W        W 1228  15.290  31.021   1.289
39808W        W 1229  27.096  38.933  12.384
39809W        W 1230   3.435  36.497   1.418
39810W        W 1231  12.726  27.508  13.017
39811W        W 1232  18.702  27.522   1.349
39812W        W 1233  31.082   4.839  10.967
39813W        W 1234   5.319  42.389   3.686
39814W        W 1235  39.948  16.119   4.158
39815W        W 1236  21.051   4.289   3.849
39816W        W 1237   6.809  31.540   2.752
39817W        W 1238   1.437  12.305   4.319
39818W        W 1239   4.340  42.470  10.448
39819W        W 1240   4.241  29.532  13.483
39820W        W 1241  44.421  24.157   4.194
39821W        W 1242   3.388  31.084  14.510
39822W        W 1243   1.420  44.829   0.456
39823W        W 1244  24.679   3.343   0.850
39824W        W 1245   5.281  43.377   4.636
39825W        W 1246   2.745   0.488   0.333
39826W        W 1247  33.944  19.586   3.676
39827W        W 1248  18.177  38.556  11.519
39828W        W 1249  20.767  14.211  14.468
39829W        W 1250  44.813  13.223  11.065
39830W        W 1251  23.695  19.248  13.933
39831W        W 1252  17.155  43.016   9.946
39832W        W 1253  14.718  31.093  11.999
39833W        W 1254  30.555  23.571   4.729
39834W        W 1255  42.441  23.231  12.408
39835W        W 1256  18.683  12.328  10.630
39836W        W 1257  25.979  22.134  11.911
39837W        W 1258  28.518  19.241  13.313
39838W        W 1259  38.998   8.862   1.928
39839W        W 1260  36.932  43.770  12.074
39840W        W 1261   5.704  17.783   4.324
39841W        W 1262   1.892  13.164   1.713
39842W        W 1263  33.130  23.112   4.794
39843W        W 1264  29.591   2.748  11.431
39844W        W 1265  31.592  20.132   3.387
39845W        W 1266  43.348  23.680   2.816
39846W        W 1267  15.591  37.984  13.311
39847W        W 1268  24.087  29.104   1.836
39848W        W 1269  25.667  28.138  14.983
39849W        W 1270   2.322  43.474   3.774
39850W        W 1271  26.098  44.806   3.672
39851W        W 1272   7.670  36.918   2.870
39852W        W 1273  12.131  10.377  11.129
39853W        W 1274  11.366  41.831  14.435
39854W        W 1275  28.093  41.361   4.721
39855W        W 1276  36.507   4.425   0.438
39856W        W 1277  30.051  28.499  14.327
39857W        W 1278  26.002  29.576   1.267
39858W        W 1279  34.964   0.813   2.715
39859W        W 1280   6.915  32.612  11.465
39860W        W 1281  39.394   0.427   1.318
39861W        W 1282  18.184  32.952   4.669
39862W        W 1283  29.149  43.270   2.798
39863W        W 1284   1.431  34.911   3.319
39864W        W 1285   8.163  12.128  10.501
39865W        W 1286  21.593  12.184   2.305
39866W        W 1287  28.934  18.545   4.183
39867W        W 1288  44.895   6.333  12.992
39868W        W 1289  21.621  27.074   3.166
39869W        W 1290  35.586  25.184  12.552
39870W        W 1291   2.897  18.196   3.145
39871W        W 1292   2.227  38.375   1.214
39872W        W 1293  44.455  36.455   4.321
39873W        W 1294  24.021  30.137  13.883
39874W        W 1295  40.470  17.255   1.388
39875W        W 1296  22.020  24.081   0.853
39876W        W 1297  11.267  36.447   3.654
39877W        W 1298   3.724  13.322   4.615
39878W        W 1299   5.338  43.950   2.713
39879W        W 1300  36.563  29.979  13.829
39880W        W 1301  14.651  30.519   3.819
39881W        W 1302  16.189  26.190   2.685
39882W        W 1303  10.847  19.136   0.481
39883W        W 1304   6.215  29.433  11.434
39884W        W 1305  25.553   5.302   2.256
39885W        W 1306  34.477  19.545  12.575
39886W        W 1307   9.720  33.121   0.894
39887W        W 1308  11.715   8.661   0.244
39888W        W 1309   8.671  41.937   4.745
39889W        W 1310  41.032  35.534  11.566
39890W        W 1311  37.385  20.173   4.302
39891W        W 1312  15.607  28.556  13.833
39892W        W 1313  29.169  37.942   1.269
39893W        W 1314  31.127  13.219   4.184
39894W        W 1315  27.580  19.139  11.486
39895W        W 1316  41.838  32.014  14.444
39896W        W 1317  40.930  40.494  13.843
39897W        W 1318  29.138  24.226   1.374
39898W        W 1319  37.446  18.762  14.823
39899W        W 1320  39.439  23.677   3.238
39900W        W 1321  23.640   3.938   3.179
39901W        W 1322  36.004  38.008   2.369
39902W        W 1323  41.433  21.101  12.342
39903W        W 1324  31.537  29.001   4.131
39904W        W 1325  32.116  39.965  12.563
39905W        W 1326  24.007  19.634  14.328
39906W        W 1327  34.948  14.187  14.392
39907W        W 1328  12.854  38.886  10.491
39908W        W 1329  40.908  44.776   4.693
39909W        W 1330  38.496  14.172   1.900
39910W        W 1331  19.238   5.845  12.876
39911W        W 1332  10.766   9.754   2.234
39912W        W 1333   8.180  12.237  11.097
39913W        W 1334  23.714  28.023   2.764
39914W        W 1335   3.437  27.558   1.211
39915W        W 1336   7.308  26.119   9.552
39916W        W 1337  37.027   0.402  11.470
39917W        W 1338  23.091   2.921   1.852
39918W        W 1339   8.667  14.240   3.247
39919W        W 1340   8.321  33.427  12.969
39920W        W 1341   8.334  31.110   0.292
39921W        W 1342   3.399  17.583   2.327
39922W        W 1343   9.663  44.484  14.804
39923W        W 1344  30.562  34.401  14.502
39924W        W 1345  10.322  22.702   1.218
39925W        W 1346  28.512   2.943  14.851
39926W        W 1347  16.610  34.067  13.475
39927W        W 1348  42.376   9.808  11.077
39928W        W 1349  42.324  33.080  11.425
39929W        W 1350  37.011  37.450   0.770
39930W        W 1351   4.414   1.474   3.656
39931W        W 1352  19.042  30.489  13.516
39932W        W 1353  25.156  26.627   2.280
39933W        W 1354   4.220  25.193   4.196
39934W        W 1355  33.067  31.974   1.889
39935W        W 1356  40.869  35.417   4.663
39936W        W 1357  19.154  15.817  11.975
39937W        W 1358   9.855   9.819  12.494
39938W        W 1359  32.133  22.210   0.396
39939W        W 1360  12.635  20.113  12.571
39940W        W 1361  44.265  18.751   4.230
39941W        W 1362  23.108  39.906  13.434
39942W        W 1363  39.858  16.801   0.919
39943W        W 1364   0.248  37.480  13.312
39944W        W 1365  11.766  26.613   2.337
39945W        W 1366  20.688  38.427   1.915
39946W        W 1367   1.423   5.702  12.868
39947W        W 1368  39.502  23.989   0.483
39948W        W 1369  32.090   4.873   4.354
39949W        W 1370  13.341  43.407  10.407
39950W        W 1371  13.158  26.526  12.944
39951W        W 1372  37.912   2.751   2.835
39952W        W 1373  31.956  21.032   2.268
39953W        W 1374  43.012  13.841   2.850
39954W        W 1375  20.108   9.675  11.978
39955W        W 1376  32.987  29.478   0.757
39956W        W 1377  17.736   5.725  12.966
39957W        W 1378  11.305   4.447   2.874
39958W        W 1379   0.443  23.230  13.012
39959W        W 1380  10.690  26.503   1.698
39960W        W 1381  34.082  35.867   1.401
39961W        W 1382  27.197   4.240  13.879
39962W        W 1383  29.085  12.838  12.424
39963W        W 1384  34.973  37.435   4.653
39964W        W 1385  23.206  10.150   1.297
39965W        W 1386  23.057   4.205   2.269
39966W        W 1387  20.040  26.147   1.817
39967W        W 1388  15.770   7.220   0.286
39968W        W 1389  24.150  17.765  11.400
39969W        W 1390  27.464   8.671   1.837
39970W        W 1391  20.694  36.098   0.456
39971W        W 1392  39.848   9.807   3.247
39972W        W 1393   2.917  40.542   1.341
39973W        W 1394   4.394  20.556   3.226
39974W        W 1395  18.187  15.709   0.893
39975W        W 1396   5.906  43.834  12.526
39976W        W 1397  38.869  12.843   0.731
39977W        W 1398   9.334  30.995  13.979
39978W        W 1399  29.625  27.101  11.390
39979W        W 1400  39.464   5.771  13.478
39980W        W 1401  23.712   2.768  10.630
39981W        W 1402  34.611  33.914  13.801
39982W        W 1403  26.651  27.179   0.737
39983W        W 1404  10.183  27.570  13.010
39984W        W 1405  33.097  38.366   0.318
39985W        W 1406  33.523  22.742  14.809
39986W        W 1407   7.707  43.283  14.943
39987W        W 1408  40.003  27.522   4.326
39988W        W 1409  14.640  29.618   3.730
39989W        W 1410  36.909  16.634   1.725
39990W        W 1411  36.414   2.436  12.573
39991W        W 1412  24.486  19.732   4.207
39992W        W 1413  42.489  39.354  12.830
39993W        W 1414  19.578  40.380   0.852
39994W        W 1415  26.171  14.666  14.951
39995W        W 1416  17.559  19.662   0.756
39996W        W 1417   7.250   7.888  12.999
39997W        W 1418  14.834  27.115  11.918
39998W        W 1419  14.802  41.384  12.952
39999W        W 1420   4.717  14.740   0.362
40000W        W 1421  42.804  27.655   3.379
40001W        W 1422  23.237   0.938   3.247
40002W        W 1423  17.730  40.869   3.697
40003W        W 1424  13.327  10.147  11.549
40004W        W 1425  43.885  34.962   2.195
40005W        W 1426  20.132  40.427  12.907
40006W        W 1427  39.065  36.934   1.436
40007W        W 1428  35.968   1.900  14.384
40008W        W 1429  42.995  42.880  10.605
40009W        W 1430  27.530  11.803  11.900
40010W        W 1431  39.375  32.512  13.028
40011W        W 1432   6.867  41.342   0.932
40012W        W 1433  35.079  29.617   1.237
40013W        W 1434   6.213  19.269  13.389
40014W        W 1435  31.963  39.026  11.406
40015W        W 1436  17.779  43.992  12.088
40016W        W 1437  19.270  23.086  11.409
40017W        W 1438  25.219  40.379   4.817
40018W        W 1439   8.820  34.031  13.957
40019W        W 1440  35.407  20.042  13.862
40020W        W 1441  21.532   8.185  14.332
40021W        W 1442   6.768   3.295  12.937
40022W        W 1443   3.255  29.539  14.770
40023W        W 1444  23.614  22.177   3.675
40024W        W 1445  43.780  40.493  11.372
40025W        W 1446   0.441   1.278  14.346
40026W        W 1447  44.350  21.688   4.182
40027W        W 1448  38.916   7.787   0.740
40028W        W 1449   0.427  30.163   1.883
40029W        W 1450  28.147  27.574  10.935
40030W        W 1451  22.556  11.676   1.449
40031W        W 1452  44.449  11.722  11.885
40032W        W 1453   5.754  28.971   0.397
40033W        W 1454   8.385   7.787   4.707
40034W        W 1455  16.303  30.000   2.370
40035W        W 1456  19.665   5.279  12.870
40036W        W 1457  31.618  34.591   2.416
40037W        W 1458  34.508  17.273   2.705
40038W        W 1459  25.124  21.555  11.587
40039W        W 1460  29.487  30.434  13.058
40040W        W 1461  39.559  13.730  12.096
40041W        W 1462  22.618  29.528   0.467
40042W        W 1463  31.496  42.886   0.436
40043W        W 1464  38.494  12.285  13.027
40044W        W 1465   3.345  37.352   4.301
40045W        W 1466  23.050  22.598   2.255
40046W        W 1467  33.073  10.138   2.711
40047W        W 1468  24.145  35.985  12.556
40048W        W 1469  15.152   7.314  11.901
40049W        W 1470   8.387   7.890   3.659
40050W        W 1471  24.027   7.687  14.366
40051W        W 1472  34.457  37.519   0.947
40052W        W 1473  24.217   5.321   0.270
40053W        W 1474  33.401   6.327   1.873
40054W        W 1475   1.381  33.060   4.173
40055W        W 1476   0.264  17.229  12.921
40056W        W 1477   1.852   7.224  12.830
40057W        W 1478  27.134  39.027  13.421
40058W        W 1479  36.089  24.560   0.249
40059W        W 1480  23.546   6.835   0.478
40060W        W 1481  16.662  37.397   0.386
40061W        W 1482   0.909  14.667  12.371
40062W        W 1483   3.337  11.668   4.308
40063W        W 1484   8.302   3.429  14.497
40064W        W 1485  23.678  22.694  12.939
40065W        W 1486  12.307  27.495   2.261
40066W        W 1487  12.844  30.562   5.683
40067W        W 1488  32.519  31.082   3.359
40068W        W 1489  15.818  24.721  11.899
40069W        W 1490  37.458  29.661   2.787
40070W        W 1491  22.122  29.124   0.319
40071W        W 1492   3.247  43.794  14.855
40072W        W 1493  23.624  33.431  13.538
40073W        W 1494  41.340  18.158   2.699
40074W        W 1495  11.866  36.537  14.334
40075W        W 1496   9.297  24.722   1.830
40076W        W 1497  18.190  36.933   3.755
40077W        W 1498   2.321  23.671  12.979
40078W        W 1499  32.609  33.877   0.408
40079W        W 1500  10.252  14.171  14.814
40080W        W 1501  26.191  33.997   2.762
40081W        W 1502  24.571   3.284   4.617
40082W        W 1503  28.556   2.945  10.612
40083W        W 1504   4.798  40.875  11.918
40084W        W 1505  19.615  33.529  14.873
40085W        W 1506  42.956  11.760  11.961
40086W        W 1507  43.382  35.455  11.969
40087W        W 1508   2.960  27.197   1.771
40088W        W 1509   3.352   2.389   3.240
40089W        W 1510   2.882   4.310   3.666
40090W        W 1511  42.422   3.711   4.198
40091W        W 1512  38.363  44.377  10.536
40092W        W 1513  10.316  15.110  10.918
40093W        W 1514  44.976  12.260  12.070
40094W        W 1515   3.233  30.115  11.100
40095W        W 1516  27.075  10.814   3.869
40096W        W 1517  37.063  42.891  12.056
40097W        W 1518  42.988  21.159   1.922
40098W        W 1519  15.188  23.038   3.221
40099W        W 1520   1.277  16.720  12.078
40100W        W 1521   6.288  14.177   3.637
40101W        W 1522  14.110  29.015  11.073
40102W        W 1523  42.802  40.846   0.412
40103W        W 1524  11.710   2.777   3.841
40104W        W 1525  26.553  37.889   0.444
40105W        W 1526  12.199  41.335   4.757
40106W        W 1527  44.399   5.408  13.393
40107W        W 1528   5.261  28.115   3.805
40108W        W 1529  41.401  19.154   0.476
40109W        W 1530   1.370  31.569  13.458
40110W        W 1531  22.588  42.383  14.799
40111W        W 1532   8.260  35.018  11.406
40112W        W 1533  14.227  27.611   4.801
40113W        W 1534  19.207  17.766   1.701
40114W        W 1535  24.180  26.493   0.964
40115W        W 1536   1.387   1.869  13.943
40116W        W 1537  19.103  14.183   1.239
40117W        W 1538  23.583  34.456   2.790
40118W        W 1539  13.641  39.403   4.260
40119W        W 1540  41.809  16.279  12.082
40120W        W 1541  42.457  31.931   1.802
40121W        W 1542   8.336  36.842   4.735
40122W        W 1543  29.587   9.813   1.869
40123W        W 1544  23.990   2.298  14.379
40124W        W 1545  26.639  35.055   0.894
40125W        W 1546  29.947  31.930  13.833
40126W        W 1547   8.356   4.895  14.861
40127W        W 1548   8.706  29.120  10.409
40128W        W 1549  34.997   7.881  13.394
40129W        W 1550  14.282  40.996   2.379
40130W        W 1551  41.012   8.869   4.601
40131W        W 1552  26.592  41.316   2.769
40132W        W 1553  16.080  14.285  10.475
40133W        W 1554  43.352   2.764  12.524
40134W        W 1555   3.787  20.584   1.776
40135W        W 1556  42.415  33.039   2.709
40136W        W 1557  31.530  27.534  11.607
40137W        W 1558  32.125  16.712  12.079
40138W        W 1559  32.068  43.401  11.504
40139W        W 1560  25.096  30.159   3.170
40140W        W 1561  25.660  29.488  12.486
40141W        W 1562  29.043  18.741   0.777
40142W        W 1563  36.561  26.676   1.815
40143W        W 1564  21.669  13.130   3.248
40144W        W 1565  42.952  32.910  10.962
40145W        W 1566  41.424  15.650   3.777
40146W        W 1567  41.798  21.217   2.322
40147W        W 1568  29.066  43.510  11.496
40148W        W 1569  13.832  14.265   3.366
40149W        W 1570   3.839   8.258  14.447
40150W        W 1571  18.701  42.352  10.627
40151W        W 1572  18.275  14.132  11.510
40152W        W 1573  24.680  14.193   4.196
40153W        W 1574  43.908  10.262   2.821
40154W        W 1575  26.168  14.609  12.388
40155W        W 1576  30.610  28.015  14.895
40156W        W 1577  24.715  13.793  12.040
40157W        W 1578  20.560  30.094  13.431
40158W        W 1579  44.383  34.039  14.920
40159W        W 1580   8.716   4.700  12.060
40160W        W 1581  36.495   3.346   2.860
40161W        W 1582  12.850  44.976   3.156
40162W        W 1583   3.250  35.956  11.030
40163W        W 1584  39.371  38.876  12.579
40164W        W 1585  23.196  15.823  13.490
40165W        W 1586  26.533  31.135  14.483
40166W        W 1587   1.337  40.530  10.502
40167W        W 1588  20.180  41.314  12.541
40168W        W 1589  12.140  14.817   0.772
40169W        W 1590  11.655  37.471  11.045
40170W        W 1591  36.914  42.894   4.173
40171W        W 1592   7.327  19.556   2.335
40172W        W 1593  26.581  36.416  14.897
40173W        W 1594  32.557  30.433   1.301
40174W        W 1595  22.583  24.987  14.968
40175W        W 1596  33.461  13.786   3.785
40176W        W 1597   9.681  23.120  14.993
40177W        W 1598   6.729  28.978   4.630
40178W        W 1599  11.799  29.501  12.580
40179W        W 1600  10.865  31.998  12.830
40180W        W 1601  39.063  29.003  12.035
40181W        W 1602  26.604  10.867   1.734
40182W        W 1603   4.240  44.006   5.770
40183W        W 1604  44.817   9.368  12.966
40184W        W 1605   5.831  24.171  14.405
40185W        W 1606  32.588  12.187  11.384
40186W        W 1607  15.291  32.477   5.578
40187W        W 1608  11.797   8.205  13.991
40188W        W 1609  13.181  23.728  13.834
40189W        W 1610   7.841   1.972  13.958
40190W        W 1611   0.895   8.368   0.295
40191W        W 1612  29.642   3.812   0.308
40192W        W 1613   0.305  15.619   2.324
40193W        W 1614  26.556   3.767  13.478
40194W        W 1615  31.554  14.725  13.506
40195W        W 1616   6.816  34.090  14.889
40196W        W 1617  11.351   9.654   0.392
40197W        W 1618   3.852  10.796  12.920
40198W        W 1619  19.172  20.254   2.874
40199W        W 1620  15.280   6.404   3.850
40200W        W 1621   5.202  27.582   2.352
40201W        W 1622  17.071  19.177  11.534
40202W        W 1623  20.035  20.222  13.373
40203W        W 1624  33.885  22.687  13.048
40204W        W 1625   6.835  24.696   5.224
40205W        W 1626  10.286  21.722  12.918
40206W        W 1627   1.319  13.262   2.726
40207W        W 1628   2.867  36.911   2.324
40208W        W 1629   8.163  24.615   0.847
40209W        W 1630  41.298  11.278  11.527
40210W        W 1631  27.985   6.297   3.280
40211W        W 1632  24.071  36.450   0.761
40212W        W 1633  38.344  33.125   2.244
40213W        W 1634   0.743   9.815  12.579
40214W        W 1635   8.379  43.353  13.825
40215W        W 1636  25.970  35.401  13.871
40216W        W 1637  37.855  31.943   2.687
40217W        W 1638  23.659  36.048   1.311
40218W        W 1639  14.095   0.973  12.562
40219W        W 1640  15.297  30.977  11.099
40220W        W 1641  15.594  25.019  11.516
40221W        W 1642  26.595  13.712  11.462
40222W        W 1643  16.772  13.146   4.809
40223W        W 1644  34.466   5.261   0.392
40224W        W 1645  11.217  44.757  12.440
40225W        W 1646  21.173  44.786   3.230
40226W        W 1647  40.450  41.905  14.449
40227W        W 1648   0.367  20.525   1.927
40228W        W 1649   5.428   4.940   3.659
40229W        W 1650  17.140  18.782  13.468
40230W        W 1651  23.200  38.873  14.848
40231W        W 1652  12.773   3.716  14.800
40232W        W 1653   4.286   9.714   0.260
40233W        W 1654  32.070  33.578   2.272
40234W        W 1655  36.973  41.790  13.938
40235W        W 1656  19.715  10.726  11.949
40236W        W 1657  20.693  39.812  13.001
40237W        W 1658   6.403  23.531  13.485
40238W        W 1659  31.024  11.655  13.350
40239W        W 1660  22.149  29.460  10.645
40240W        W 1661  25.055  22.725  11.971
40241W        W 1662  21.628  34.872   3.856
40242W        W 1663   4.378  19.698  14.374
40243W        W 1664  36.900  38.967   3.640
40244W        W 1665  20.042   6.748   5.657
40245W        W 1666  16.316  33.384   4.216
40246W        W 1667   2.253   9.184  14.421
40247W        W 1668  22.232  17.131   1.871
40248W        W 1669   1.277  24.038  10.993
40249W        W 1670  35.382   5.329  13.967
40250W        W 1671  13.641   0.944   2.258
40251W        W 1672   0.365  41.987  12.832
40252W        W 1673  41.449  30.508  11.477
40253W        W 1674  24.680  39.011  11.044
40254W        W 1675  26.208  41.306   2.410
40255W        W 1676  32.933  34.560  13.976
40256W        W 1677  32.103   9.294   4.129
40257W        W 1678  34.016  33.624   3.349
40258W        W 1679  41.843  33.577  12.840
40259W        W 1680  29.524  22.581  11.449
40260W        W 1681  14.205   4.869   5.228
40261W        W 1682  38.516  29.469   1.342
40262W        W 1683  29.040  44.967   1.928
40263W        W 1684  23.187  31.136   4.276
40264W        W 1685  24.098  38.365   3.712
40265W        W 1686  42.794  19.722   4.662
40266W        W 1687  32.975  21.667   2.893
40267W        W 1688  42.030  43.398   4.188
40268W        W 1689  16.674  19.632   3.262
40269W        W 1690   0.971   7.303  11.459
40270W        W 1691  42.414  43.968   1.425
40271W        W 1692  29.015  33.930   1.277
40272W        W 1693  24.715   6.352   5.214
40273W        W 1694  32.539  24.138   4.342
40274W        W 1695   5.918  35.478   1.853
40275W        W 1696  30.028  17.126  12.857
40276W        W 1697   3.807  18.657   3.763
40277W        W 1698  21.585  21.140   0.947
40278W        W 1699  16.239  39.984  13.396
40279W        W 1700  31.588  44.385   0.739
40280W        W 1701  15.281   6.183  11.927
40281W        W 1702   7.263   7.805  14.459
40282W        W 1703   1.445  40.419  12.415
40283W        W 1704   9.839   3.337   5.286
40284W        W 1705  39.893   3.760   2.801
40285W        W 1706  38.037  19.566  12.489
40286W        W 1707  16.784  22.109   0.256
40287W        W 1708  11.712  13.212  10.493
40288W        W 1709  40.828  11.721   2.824
40289W        W 1710  33.007   3.337   2.866
40290W        W 1711  31.605   9.714  10.080
40291W        W 1712  39.391  23.110   2.884
40292W        W 1713  11.302  22.195   3.158
40293W        W 1714   0.813  10.777   1.212
40294W        W 1715   2.460  21.702  14.019
40295W        W 1716  24.142   1.384  13.307
40296W        W 1717  15.813  28.179  13.461
40297W        W 1718  11.170  25.618   3.272
40298W        W 1719  11.148  33.919  13.339
40299W        W 1720  43.502  23.636  12.001
40300W        W 1721  11.708  22.062  12.871
40301W        W 1722   7.314  14.664  12.949
40302W        W 1723  41.035   7.200   2.327
40303W        W 1724  17.753   9.837  12.047
40304W        W 1725   4.350  36.957  12.828
40305W        W 1726  42.469  20.110  12.949
40306W        W 1727  26.104  20.656   3.188
40307W        W 1728  23.220  38.059  12.848
40308W        W 1729   7.402  33.941  10.437
40309W        W 1730  29.499  35.856  12.551
40310W        W 1731  39.822   9.180   1.298
40311W        W 1732  38.987   0.468  10.978
40312W        W 1733   0.475  33.564  11.932
40313W        W 1734  43.004   5.819  11.403
40314W        W 1735  27.557  38.927  10.422
40315W        W 1736   0.911   4.361  12.009
40316W        W 1737   5.278   5.737  12.370
40317W        W 1738  25.137  17.752  14.879
40318W        W 1739  27.466  27.541  12.015
40319W        W 1740  26.546   4.419  12.350
40320W        W 1741  23.543  40.542   2.879
40321W        W 1742  26.466  17.646   0.295
40322W        W 1743   9.174  21.198   2.289
40323W        W 1744  31.551  16.598  14.805
40324W        W 1745  18.233  10.675   4.733
40325W        W 1746  38.483  43.371   4.122
40326W        W 1747   8.739  19.203   0.955
40327W        W 1748  10.875   4.825   2.780
40328W        W 1749   5.276  31.642   3.366
40329W        W 1750  13.317  10.743  12.883
40330W        W 1751   1.780  19.733  14.823
40331W        W 1752  43.020  43.357  13.512
40332W        W 1753  36.580  39.396  14.414
40333W        W 1754   5.933  34.375   0.879
40334W        W 1755  10.790   0.954  10.944
40335W        W 1756  31.623  17.722   2.283
40336W        W 1757  20.644   3.712   2.741
40337W        W 1758  31.512  18.600   1.338
40338W        W 1759  34.973  13.278   3.268
40339W        W 1760  36.888  25.037   0.811
40340W        W 1761  29.602  27.950   1.344
40341W        W 1762  10.213  12.610   2.321
40342W        W 1763  10.178   0.773   1.402
40343W        W 1764   0.340  41.030  11.590
40344W        W 1765  34.411  20.765   3.636
40345W        W 1766  28.575  20.228   0.814
40346W        W 1767  40.051   3.828   4.196
40347W        W 1768   4.214   8.800   2.261
40348W        W 1769   2.793  44.905  13.320
40349W        W 1770  11.274  27.483  14.807
40350W        W 1771  10.281  14.333  12.403
40351W        W 1772  39.836  31.516  13.049
40352W        W 1773   7.261  24.223  14.423
40353W        W 1774  42.507  42.329   0.456
40354W        W 1775  32.899  36.089  12.467
40355W        W 1776  37.500   1.793  10.539
40356W        W 1777   6.761   7.214   1.279
40357W        W 1778   1.850  36.037   0.472
40358W        W 1779  18.737  19.644   4.769
40359W        W 1780   2.846   4.405   0.768
40360W        W 1781  16.760  17.656  11.588
40361W        W 1782  10.855  14.831   2.410
40362W        W 1783   8.363  10.642   4.742
40363W        W 1784  43.790  27.971  13.533
40364W        W 1785  37.510  30.610  10.946
40365W        W 1786   3.746  20.708  10.506
40366W        W 1787  37.975  29.048  13.000
40367W        W 1788  29.933  14.616   0.909
40368W        W 1789  30.593  24.055   4.148
40369W        W 1790  24.688  42.883  14.373
40370W        W 1791  44.885  24.590   2.825
40371W        W 1792  22.192  10.673   4.182
40372W        W 1793  36.564   7.693   3.684
40373W        W 1794  28.147   7.815   1.731
40374W        W 1795   6.863   8.268   4.753
40375W        W 1796  10.384  26.680   1.304
40376W        W 1797  22.196  27.942  12.057
40377W        W 1798   4.786  21.543  11.542
40378W        W 1799  15.594  33.064  12.858
40379W        W 1800   7.697  40.379  13.887
40380W        W 1801  31.137  32.983   3.835
40381W        W 1802   9.314  12.790  13.853
40382W        W 1803  31.934  43.386   5.208
40383W        W 1804  22.076   5.771   2.724
40384W        W 1805  19.268  38.378  13.512
40385W        W 1806  16.809  30.958  14.383
40386W        W 1807  43.871  12.323   1.451
40387W        W 1808  18.077   3.390  10.582
40388W        W 1809  41.511  27.950   2.381
40389W        W 1810  29.566  27.141  12.882
40390W        W 1811   1.407  31.907   0.340
40391W        W 1812   4.387  28.929   3.264
40392W        W 1813  40.998   8.174  11.978
40393W        W 1814  33.397  20.699  13.016
40394W        W 1815  21.605   3.822   1.881
40395W        W 1816  17.109  44.317   2.240
40396W        W 1817  24.179  22.071  11.430
40397W        W 1818   9.735   6.882  11.454
40398W        W 1819  27.953  40.494  14.841
40399W        W 1820  27.957  23.734  11.886
40400W        W 1821  27.455  26.579  11.602
40401W        W 1822  12.308  31.404   4.231
40402W        W 1823  13.178  29.967  13.980
40403W        W 1824  36.524  25.088  13.524
40404W        W 1825  25.967  20.548  12.094
40405W        W 1826  42.813   6.222   3.661
40406W        W 1827  31.114   1.409   4.322
40407W        W 1828  12.337  32.438   5.207
40408W        W 1829  28.044   8.892  11.586
40409W        W 1830  30.091  44.295  14.839
40410W        W 1831  20.590   9.212  10.440
40411W        W 1832  23.645   1.325  14.364
40412W        W 1833  32.009  13.814  14.799
40413W        W 1834  38.452  36.079  13.374
40414W        W 1835   3.756  30.603   5.234
40415W        W 1836   7.277  21.165   4.134
40416W        W 1837   1.358   6.205   0.410
40417W        W 1838  39.508  12.221   2.309
40418W        W 1839  11.196  11.209   4.295
40419W        W 1840  17.234  34.911  10.034
40420W        W 1841  35.901  39.975  14.904
40421W        W 1842  13.629  41.301  12.430
40422W        W 1843  21.589  41.407   0.361
40423W        W 1844  36.001  17.210  13.979
40424W        W 1845  13.742  44.418  14.778
40425W        W 1846  19.634  13.697   0.393
40426W        W 1847  31.102  24.506   0.857
40427W        W 1848  18.169  35.099   0.844
40428W        W 1849  35.537   8.874   1.359
40429W        W 1850  25.612  44.265   2.417
40430W        W 1851  22.628  20.692  11.090
40431W        W 1852   6.783   4.733   4.802
40432W        W 1853  16.157   1.798   1.303
40433W        W 1854  39.532   8.350  13.452
40434W        W 1855  21.136  27.158  13.458
40435W        W 1856   7.863   3.858  10.501
40436W        W 1857  24.556  17.727  11.080
40437W        W 1858  17.120  36.958   2.705
40438W        W 1859  39.899   5.336   4.218
40439W        W 1860   4.875  33.933  10.065
40440W        W 1861  34.383  15.134  12.934
40441W        W 1862  16.591  29.080  10.929
40442W        W 1863   1.949  28.966  13.511
40443W        W 1864  14.788  35.938  10.911
40444W        W 1865  37.890  33.016  10.534
40445W        W 1866  17.182  11.217   3.709
40446W        W 1867   7.872   5.439   0.829
40447W        W 1868   9.740  33.553   2.239
40448W        W 1869   7.258  34.876   3.643
40449W        W 1870  29.160  24.687   0.882
40450W        W 1871  18.109  40.469   3.179
40451W        W 1872  15.329  42.480  11.429
40452W        W 1873  38.445  30.553  12.083
40453W        W 1874  28.026   1.891   2.382
40454W        W 1875  42.475  11.255  13.874
40455W        W 1876  42.776  33.382  10.973
40456W        W 1877  21.571  28.141   4.163
40457W        W 1878   4.421   9.259   4.149
40458W        W 1879  12.798  20.149  14.329
40459W        W 1880  14.601  25.708  11.594
40460W        W 1881   4.239  43.896   4.770
40461W        W 1882  12.825  16.078  11.903
40462W        W 1883  35.924  15.228   4.705
40463W        W 1884  26.186  29.107  14.971
40464W        W 1885  29.041   2.884   1.818
40465W        W 1886  19.214  30.460  11.959
40466W        W 1887  25.130  32.445   3.268
40467W        W 1888  27.010  29.642   1.878
40468W        W 1889  28.549  29.559  10.499
40469W        W 1890   9.344  25.035  13.023
40470W        W 1891  22.997  34.021  12.431
40471W        W 1892  32.050   4.704  13.903
40472W        W 1893  43.838  43.969  12.960
40473W        W 1894   3.787  18.087   2.228
40474W        W 1895  25.586  44.933  14.957
40475W        W 1896  20.729  40.335  12.841
40476W        W 1897   1.476  39.017   2.273
40477W        W 1898  39.365  28.676  14.389
40478W        W 1899   2.294  33.423   2.716
40479W        W 1900  42.914  11.335  10.604
40480W        W 1901   4.277  37.082   2.884
40481W        W 1902   2.435   4.245   2.896
40482W        W 1903   1.418  36.903  11.584
40483W        W 1904   8.213  23.034   4.796
40484W        W 1905  14.704   2.813   0.804
40485W        W 1906  22.630  38.536   3.645
40486W        W 1907  43.968   8.683  11.542
40487W        W 1908  38.032   9.267  12.970
40488W        W 1909  15.658   3.878  13.463
40489W        W 1910  40.841  32.024  12.836
40490W        W 1911  21.593  32.398  12.080
40491W        W 1912  39.401  17.295   4.750
40492W        W 1913   2.771  38.981  13.480
40493W        W 1914   1.869  34.941   0.816
40494W        W 1915   1.932  41.417  10.414
40495W        W 1916   4.740  19.698   0.325
40496W        W 1917  32.406  26.555  13.805
40497W        W 1918   3.384  17.716  10.435
40498W        W 1919  11.865  14.185   3.150
40499W        W 1920  29.040  21.724   2.824
40500W        W 1921   6.692   6.326  12.948
40501W        W 1922  22.652   2.282  13.429
40502W        W 1923  14.635  22.039  13.029
40503W        W 1924   0.986  21.044   2.802
40504W        W 1925  12.168  17.282  12.074
40505W        W 1926   5.433   9.260   2.686
40506W        W 1927  34.975  27.152  12.402
40507W        W 1928  34.039  38.414   3.305
40508W        W 1929  30.908  26.982   0.251
40509W        W 1930  38.859  43.316   0.474
40510W        W 1931  39.060  39.333  10.527
40511W        W 1932  12.681  31.516   0.258
40512W        W 1933  16.174  28.157   0.741
40513W        W 1934   0.845  36.930  11.484
40514W        W 1935  42.289   8.402   3.310
40515W        W 1936  41.440  36.873  12.579
40516W        W 1937  18.121  33.592   4.197
40517W        W 1938   6.248  21.059  14.016
40518W        W 1939  14.776  29.988  12.566
40519W        W 1940   0.248  25.127  13.050
40520W        W 1941  13.341  21.738  13.803
40521W        W 1942  40.038  11.795  13.833
40522W        W 1943  25.693  19.571  11.070
40523W        W 1944  10.836   1.357   4.677
40524W        W 1945  34.477  40.348  11.532
40525W        W 1946  28.185  23.011   5.181
40526W        W 1947  31.008  13.140  13.483
40527W        W 1948  12.167   4.350   2.195
40528W        W 1949   6.918   0.370  14.402
40529W        W 1950   5.725  36.516   2.305
40530W        W 1951  29.633  41.346  10.098
40531W        W 1952  41.871  43.474   4.724
40532W        W 1953  38.863  17.108   5.152
40533W        W 1954  29.965  33.038   3.809
40534W        W 1955  17.677  25.007  10.464
40535W        W 1956  26.023  28.593   3.236
40536W        W 1957  29.037   7.405  10.952
40537W        W 1958  36.448  28.445  12.484
40538W        W 1959  43.403  11.694  10.575
40539W        W 1960  31.093  20.646   3.757
40540W        W 1961  25.211  31.000  11.115
40541W        W 1962   0.428  22.021  10.939
40542W        W 1963  34.546  43.316   0.463
40543W        W 1964   1.868  32.462   0.289
40544W        W 1965   0.377  38.842   4.232
40545W        W 1966   7.194  23.085   3.156
40546W        W 1967  14.301   8.365  13.356
40547W        W 1968  19.170  31.585   3.648
40548W        W 1969  29.949  16.699   0.948
40549W        W 1970  26.674  38.038  13.314
40550W        W 1971  25.695   9.187   1.711
40551W        W 1972   4.782  20.134  11.886
40552W        W 1973  15.619   9.378   3.650
40553W        W 1974   2.439  16.253   3.841
40554W        W 1975  39.452  15.137  13.312
40555W        W 1976  29.065  38.839  10.984
40556W        W 1977  37.832  43.840  10.436
40557W        W 1978  27.596  27.182   3.346
40558W        W 1979   9.659  34.568  13.370
40559W        W 1980  27.990  44.342  13.360
40560W        W 1981  15.241   8.234  11.480
40561W        W 1982  30.998  43.430  13.957
40562W        W 1983   3.329  12.731  13.426
40563W        W 1984   0.490  17.171  11.054
40564W        W 1985  39.424  15.170  13.944
40565W        W 1986  14.239  11.173  12.504
40566W        W 1987  32.083  39.963   0.928
40567W        W 1988  21.019   2.834   1.232
40568W        W 1989   2.913  44.868   9.973
40569W        W 1990  12.151  24.482  14.316
40570W        W 1991   8.800  30.654   3.680
40571W        W 1992  12.345  14.776   2.184
40572W        W 1993  23.699  42.016  10.563
40573W        W 1994   6.243   3.875  13.014
40574W        W 1995  20.203  43.353  13.494
40575W        W 1996  38.943  35.370   3.212
40576W        W 1997  32.957  27.153   1.242
40577W        W 1998  21.707  28.636  11.019
40578W        W 1999  21.750   5.271   3.344
40579W        W 2000  41.465   6.415  11.066
40580W        W 2001  40.040   2.730   0.832
40581W        W 2002   4.377  14.754  11.071
40582W        W 2003  31.979  21.228  12.022
40583W        W 2004   0.483  31.000  13.350
40584W        W 2005  44.331  34.013  14.388
40585W        W 2006  16.075  41.037   0.726
40586W        W 2007   4.365   4.230  10.005
40587W        W 2008  15.756  37.384  12.415
40588W        W 2009   1.247   4.269   4.834
40589W        W 2010  34.932  12.272  10.994
40590W        W 2011  43.376   4.939  13.363
40591W        W 2012   0.406  15.659   3.802
40592W        W 2013  14.114   1.932   3.791
40593W        W 2014  15.207  17.068  12.827
40594W        W 2015  21.255  10.319   3.822
40595W        W 2016  26.562  11.298   2.790
40596W        W 2017  13.615  36.923   2.297
40597W        W 2018  31.439  23.044  13.484
40598W        W 2019   9.733  31.438  11.430
40599W        W 2020  30.564   1.968   4.733
40600W        W 2021  23.210   1.264  14.485
40601W        W 2022  39.053  36.029   1.754
40602W        W 2023  22.534  42.022   2.780
40603W        W 2024  15.667  15.194  11.446
40604W        W 2025  42.005   0.478   4.738
40605W        W 2026   3.442   6.701  12.425
40606W        W 2027  21.092   0.285   1.842
40607W        W 2028  21.655  16.075  10.898
40608W        W 2029  20.706  41.504  11.458
40609W        W 2030  19.240   6.190   1.297
40610W        W 2031  33.063  13.785   0.345
40611W        W 2032  41.944  19.543   2.710
40612W        W 2033   1.263  34.521  11.492
40613W        W 2034  29.620  38.833   1.753
40614W        W 2035  27.185  39.442   0.959
40615W        W 2036  12.725  28.061  12.374
40616W        W 2037  34.526  24.153   3.855
40617W        W 2038  16.132  43.503  10.502
40618W        W 2039  42.509  12.672  11.016
40619W        W 2040  18.784  33.030   1.381
40620W        W 2041  10.748  16.160   4.706
40621W        W 2042  41.407   5.830  13.798
40622W        W 2043  10.645  15.281  11.518
40623W        W 2044  43.839   4.265   2.279
40624W        W 2045   5.781  19.707  13.473
40625W        W 2046  41.981   1.818   4.312
40626W        W 2047  31.070   5.717   4.220
40627W        W 2048  20.218  42.950   1.733
40628W        W 2049  17.204  33.411   1.231
40629W        W 2050   8.899   0.374  10.027
40630W        W 2051  18.264  39.821  13.866
40631W        W 2052  32.032   7.191  13.055
40632W        W 2053  40.006  14.162  11.492
40633W        W 2054   7.872  13.211   1.764
40634W        W 2055  34.030  19.230   4.692
40635W        W 2056  12.357   8.849  12.412
40636W        W 2057  21.701  16.135  14.006
40637W        W 2058   3.780  23.608   4.836
40638W        W 2059  29.994  36.892   1.843
40639W        W 2060  41.461  43.288   0.295
40640W        W 2061  15.259  31.566  13.455
40641W        W 2062  42.510   5.738   3.380
40642W        W 2063  34.984  25.504  12.973
40643W        W 2064  17.274  12.855  11.928
40644W        W 2065   0.977   7.756  11.860
40645W        W 2066  42.524  24.056   3.801
40646W        W 2067   0.803  18.683  13.493
40647W        W 2068  36.028  43.901   1.251
40648W        W 2069  19.585   8.169   3.829
40649W        W 2070  27.661   8.226   4.650
40650W        W 2071  42.463  12.346   3.162
40651W        W 2072  17.738  34.413   4.671
40652W        W 2073  22.238  42.030  13.798
40653W        W 2074  17.300  16.635   4.671
40654W        W 2075  35.096   3.458   3.871
40655W        W 2076  36.581  21.730   0.446
40656W        W 2077  25.527   8.398   1.875
40657W        W 2078  43.894  41.851   1.728
40658W        W 2079  37.393  38.920  11.991
40659W        W 2080  41.861  15.757  14.866
40660W        W 2081  15.267   8.173  12.509
40661W        W 2082   6.785   2.849  14.950
40662W        W 2083  34.117  23.025   3.222
40663W        W 2084  14.597   1.272   1.312
40664W        W 2085  12.650  16.717  10.612
40665W        W 2086   9.696  28.652  14.413
40666W        W 2087  16.576  32.928  11.589
40667W        W 2088  15.797  41.851   3.181
40668W        W 2089  20.121  28.658   2.182
40669W        W 2090  18.683  21.160   2.683
40670W        W 2091  22.698   9.185  10.404
40671W        W 2092  22.220   9.371  13.381
40672W        W 2093  28.941  37.443   1.432
40673W        W 2094   9.337  24.051  14.285
40674W        W 2095  40.822  26.574   0.286
40675W        W 2096  38.429  42.919   4.150
40676W        W 2097  12.627  21.750  10.979
40677W        W 2098   3.894   7.244  14.311
40678W        W 2099  11.765  32.515  10.996
40679W        W 2100  25.480  40.823   1.212
40680W        W 2101   3.286   7.249   2.722
40681W        W 2102  38.821  15.188  14.458
40682W        W 2103  33.525  26.091  14.853
40683W        W 2104  25.155  27.554   2.869
40684W        W 2105  18.143  32.461  11.902
40685W        W 2106  27.963  28.178  14.032
40686W        W 2107  35.030  43.477  11.929
40687W        W 2108  34.480  39.492  12.990
40688W        W 2109  11.149  30.103   3.848
40689W        W 2110  22.600  10.869  13.410
40690W        W 2111  42.883  12.641   3.697
40691W        W 2112  17.747  32.968   3.189
40692W        W 2113  33.417  18.705   0.268
40693W        W 2114  12.143  15.242   4.291
40694W        W 2115  32.609  19.256   2.774
40695W        W 2116  38.441  10.185   3.649
40696W        W 2117  10.345  42.465   3.302
40697W        W 2118   5.231  17.293  10.485
40698W        W 2119  32.006  29.081  13.892
40699W        W 2120  35.360  36.080   3.726
40700W        W 2121   5.901  41.932  13.516
40701W        W 2122   2.919   0.829   3.662
40702W        W 2123   6.780  26.617  10.623
40703W        W 2124  35.594  39.471  12.361
40704W        W 2125  23.019  42.972   1.444
40705W        W 2126  42.393  44.289  11.473
40706W        W 2127   9.287  28.148  11.512
40707W        W 2128  38.476  43.318  11.885
40708W        W 2129  40.914   4.363  14.976
40709W        W 2130  38.862  35.975   2.264
40710W        W 2131  11.761  32.062  13.396
40711W        W 2132  32.919  13.759   3.634
40712W        W 2133  19.251  29.553  11.420
40713W        W 2134  29.530   4.345  13.830
40714W        W 2135   0.808  44.274  10.404
40715W        W 2136  16.654  43.447   1.425
40716W        W 2137  27.975  36.962  10.481
40717W        W 2138  44.407  41.991   0.954
40718W        W 2139  12.713  14.690  14.455
40719W        W 2140  21.176  31.057  11.374
40720W        W 2141  18.187  24.156   3.647
40721W        W 2142  27.112  37.848  13.548
40722W        W 2143  18.080  13.785   0.285
40723W        W 2144  10.803  21.577  12.946
40724W        W 2145  15.771  25.969  10.574
40725W        W 2146  14.743  36.356  14.361
40726W        W 2147  22.726  27.055   0.871
40727W        W 2148  22.163  20.715   3.843
40728W        W 2149  33.414  17.253   1.336
40729W        W 2150   6.262  35.889  14.981
40730W        W 2151  14.176  12.707   1.368
40731W        W 2152  44.928  24.213   2.762
40732W        W 2153  27.053  32.085  10.898
40733W        W 2154  11.624   7.182   3.268
40734W        W 2155  23.201   0.884  12.958
40735W        W 2156  25.668  12.611   0.388
40736W        W 2157  41.848  26.697   1.228
40737W        W 2158  33.556  35.045   2.318
40738W        W 2159  20.132   8.191   2.263
40739W        W 2160  17.756  27.079   4.327
40740W        W 2161  43.884  34.096  11.901
40741W        W 2162  29.156  16.110   3.367
40742W        W 2163  34.448  16.604  14.930
40743W        W 2164  24.160  28.458   2.313
40744W        W 2165  31.060  31.546   3.296
40745W        W 2166  30.004  21.198   3.862
40746W        W 2167  40.051  21.616   3.159
40747W        W 2168  39.830  39.472  14.953
40748W        W 2169  10.779  31.570  10.578
40749W        W 2170  15.110   3.215   1.701
40750W        W 2171  25.135  43.375   1.240
40751W        W 2172  11.786  23.637  13.518
40752W        W 2173  44.759  34.070  14.350
40753W        W 2174  19.175   4.378   1.814
40754W        W 2175  40.369  12.131   5.582
40755W        W 2176  15.801  28.079  10.496
40756W        W 2177  39.540  25.118   1.788
40757W        W 2178   5.704  33.077   0.341
40758W        W 2179  43.499   2.943   2.359
40759W        W 2180  21.677   9.645   1.396
40760W        W 2181  42.854   1.283   1.732
40761W        W 2182  21.616   1.838  12.036
40762W        W 2183  29.541  20.244   1.214
40763W        W 2184  31.068  33.418   1.359
40764W        W 2185  12.231  41.531  12.486
40765W        W 2186   2.413  35.544   0.466
40766W        W 2187  24.058  28.632   1.246
40767W        W 2188   8.778  41.390   2.740
40768W        W 2189  26.504  26.537   9.961
40769W        W 2190  33.907  35.955  12.415
40770W        W 2191  17.243  16.114   0.334
40771W        W 2192  27.949  21.646   3.742
40772W        W 2193  13.117  14.794  11.109
40773W        W 2194  40.395  42.962  11.893
40774W        W 2195   0.365  17.163   1.861
40775W        W 2196  33.957  12.615   4.284
40776W        W 2197  17.269  29.953   2.796
40777W        W 2198   2.342  11.644  13.918
40778W        W 2199  41.865  41.346  12.875
40779W        W 2200   3.799  41.906  14.885
40780W        W 2201  13.605  28.072   2.254
40781W        W 2202  22.194  27.644  10.615
40782W        W 2203   3.906  44.844   4.311
40783W        W 2204  29.933  44.438  13.953
40784W        W 2205   9.842  17.683   4.284
40785W        W 2206  16.311   7.899   4.667
40786W        W 2207  39.827  20.145  12.496
40787W        W 2208  42.433  27.986   1.434
40788W        W 2209  12.832  32.965   2.775
40789W        W 2210   8.839  27.972   4.345
40790W        W 2211  19.109  10.358  13.962
40791W        W 2212  11.352  25.495   4.615
40792W        W 2213   2.927  18.548   3.721
40793W        W 2214   8.182   7.743  14.974
40794W        W 2215  11.203  12.308  10.566
40795W        W 2216  31.492  14.779  11.414
40796W        W 2217  26.161   5.827  14.888
40797W        W 2218  44.910  12.846  10.988
40798W        W 2219  35.378  40.013   1.279
40799W        W 2220  41.481  23.594   0.376
40800W        W 2221  32.021  21.145  14.981
40801W        W 2222  28.178  37.417  13.847
40802W        W 2223  33.902  24.578  13.000
40803W        W 2224  19.099  12.823   2.703
40804W        W 2225  21.040  38.527   1.851
40805W        W 2226  25.049  22.736  11.016
40806W        W 2227  18.707  11.158   1.342
40807W        W 2228  36.914  39.940   4.781
40808W        W 2229  15.254  42.377  12.912
40809W        W 2230  29.449  37.531  14.431
40810W        W 2231  13.323  27.988  13.408
40811W        W 2232  21.704  11.275  13.315
40812W        W 2233  21.029  38.346   2.374
40813W        W 2234  28.959  31.971   1.743
40814W        W 2235  16.754  30.944   0.364
40815W        W 2236  36.382   8.231  11.066
40816W        W 2237  31.935   8.893   0.426
40817W        W 2238   6.901  21.525   2.872
40818W        W 2239  23.155   5.770   1.409
40819W        W 2240  37.427   2.334   9.963
40820W        W 2241  14.259  13.740   4.270
40821W        W 2242  18.594  26.535  12.474
40822W        W 2243  20.661  23.505   4.343
40823W        W 2244  42.401  25.052   2.700
40824W        W 2245  42.828  38.871   3.835
40825W        W 2246  34.492  20.661  14.909
40826W        W 2247  37.419  18.721  13.433
40827W        W 2248  28.510   7.248  11.094
40828W        W 2249  21.723   1.311  14.497
40829W        W 2250  40.914  41.339  14.490
40830W        W 2251  11.773   5.794  14.888
40831W        W 2252  44.953  43.959  12.580
40832W        W 2253  38.486  10.381  14.335
40833W        W 2254  15.723   6.392   4.329
40834W        W 2255   9.304  23.551  11.039
40835W        W 2256   7.222   3.779   9.607
40836W        W 2257  32.055  33.967  11.521
40837W        W 2258  13.775  12.775   1.709
40838W        W 2259  35.446  24.180  10.983
40839W        W 2260  17.635  41.411  14.456
40840W        W 2261  11.363  10.322  13.379
40841W        W 2262  32.904  22.060  10.595
40842W        W 2263   7.313  28.177   0.871
40843W        W 2264  36.549  42.922  12.394
40844W        W 2265  27.463  11.777   1.858
40845W        W 2266  37.904  37.385   3.281
40846W        W 2267  28.555  15.788  11.116
40847W        W 2268   4.883   5.197   0.355
40848W        W 2269   1.936   5.813   2.218
40849W        W 2270  40.919  24.223  12.389
40850W        W 2271   8.876   9.290   1.276
40851W        W 2272  40.493  21.538  12.412
40852W        W 2273   7.667  14.775   1.759
40853W        W 2274  39.420  16.084  12.986
40854W        W 2275  44.935  18.662  12.483
40855W        W 2276  43.991  17.209  10.985
40856W        W 2277  23.171  29.032   4.216
40857W        W 2278  22.106  31.619  12.895
40858W        W 2279  20.187  40.428   4.654
40859W        W 2280  33.945  17.075  12.908
40860W        W 2281  33.974   9.875  10.625
40861W        W 2282  27.563  13.231  14.395
40862W        W 2283  38.413  32.513  10.926
40863W        W 2284  37.986  16.607  13.372
40864W        W 2285  37.572  26.019  11.928
40865W        W 2286   1.743  39.365  10.510
40866W        W 2287  24.551  30.023  13.867
40867W        W 2288   1.255  12.760  14.855
40868W        W 2289  16.310  20.185  13.950
40869W        W 2290  13.173   3.928   3.162
40870W        W 2291  21.548  25.992   4.690
40871W        W 2292  23.733   0.475  13.795
40872W        W 2293  12.175   5.339  14.302
40873W        W 2294  13.732  19.709  10.644
40874W        W 2295   5.198   7.305  11.897
40875W        W 2296   6.286   2.411   2.382
40876W        W 2297  30.038  29.936   2.871
40877W        W 2298  23.219  37.400   1.852
40878W        W 2299  12.674  33.555  10.524
40879W        W 2300  26.671  29.141  14.828
40880W        W 2301  16.773  14.321  12.526
40881W        W 2302  28.546  26.999   3.672
40882W        W 2303  21.630  28.971  14.422
40883W        W 2304  38.007  42.402   1.253
40884W        W 2305  34.109  13.247  11.091
40885W        W 2306  22.510  44.283   4.691
40886W        W 2307  13.776  16.802   1.373
40887W        W 2308   6.191  36.486  13.878
40888W        W 2309  19.275  16.595  10.129
40889W        W 2310  37.830  17.250   1.373
40890W        W 2311  39.388  30.933  10.939
40891W        W 2312  20.274  11.273   1.837
40892W        W 2313  11.766  41.021  12.347
40893W        W 2314  16.591  42.440   4.223
40894W        W 2315   3.736  23.614  13.803
40895W        W 2316  19.628  19.623   2.822
40896W        W 2317   1.809  36.589  14.325
40897W        W 2318  35.434  42.938   2.775
40898W        W 2319  15.254  19.684  13.536
40899W        W 2320  34.482   3.258  13.494
40900W        W 2321  33.390  15.214  10.910
40901W        W 2322  24.109  24.185   2.898
40902W        W 2323  26.696  35.990   2.753
40903W        W 2324  18.710  21.686   0.284
40904W        W 2325  21.111  40.378   4.194
40905W        W 2326  23.145   8.346  13.512
40906W        W 2327  39.374  40.906  11.451
40907W        W 2328  33.038  34.474   4.819
40908W        W 2329   3.862   9.843  11.533
40909W        W 2330   2.811  19.069   3.715
40910W        W 2331   4.238  15.176  11.553
40911W        W 2332   2.277   3.862  14.358
40912W        W 2333  44.476   5.860   4.240
40913W        W 2334  30.000  44.844   4.192
40914W        W 2335  27.970  23.145  11.001
40915W        W 2336  27.130  30.453   0.947
40916W        W 2337  14.188  24.677  10.618
40917W        W 2338  21.190  18.596   0.870
40918W        W 2339   2.928  39.886   4.228
40919W        W 2340  31.438  27.062   1.732
40920W        W 2341  29.603  21.656   1.730
40921W        W 2342  12.762  39.537  14.838
40922W        W 2343  26.981  10.248  11.020
40923W        W 2344  22.184  38.038   1.232
40924W        W 2345  26.471  19.628  14.959
40925W        W 2346  28.964  14.250  10.422
40926W        W 2347  39.809  20.599   1.400
40927W        W 2348  44.313  23.046   3.193
40928W        W 2349  17.211  31.097   1.287
40929W        W 2350  34.006  14.126  10.913
40930W        W 2351  13.710   4.787  14.837
40931W        W 2352  43.477  16.589   2.690
40932W        W 2353  19.598  35.021   2.880
40933W        W 2354   3.313  42.813  12.413
40934W        W 2355   1.839  34.870  14.511
40935W        W 2356   4.837  43.328   2.226
40936W        W 2357  20.587  33.082   3.216
40937W        W 2358  15.586  17.222   4.330
40938W        W 2359  39.553  44.329  12.899
40939W        W 2360  24.120  31.590   1.368
40940W        W 2361   5.215  16.659   4.124
40941W        W 2362  38.904  21.082   1.256
40942W        W 2363   1.873  32.978   3.633
40943W        W 2364  29.542   6.384  14.321
40944W        W 2365   9.254  21.635   2.781
40945W        W 2366   6.195  17.639   3.821
40946W        W 2367   3.750   6.328  14.339
40947W        W 2368  31.897  38.057  12.862
40948W        W 2369  17.066  26.053   4.143
40949W        W 2370  24.635  25.036   4.142
40950W        W 2371  42.428  37.536  11.485
40951W        W 2372  43.327   6.781   0.338
40952W        W 2373  28.528  35.023  12.088
40953W        W 2374  42.880  37.576   4.174
40954W        W 2375  16.693   9.312   1.425
40955W        W 2376   1.917  14.285  14.768
40956W        W 2377  14.688  12.793   1.279
40957W        W 2378  26.612  25.513   5.164
40958W        W 2379  20.647  34.930  13.482
40959W        W 2380  29.968  31.601  13.861
40960W        W 2381  30.006  22.612   1.748
40961W        W 2382   7.695  29.478  13.890
40962W        W 2383  13.699  37.959   1.407
40963W        W 2384  26.550  34.488   4.280
40964W        W 2385  44.878   6.218   3.644
40965W        W 2386  10.334  13.122  13.373
40966W        W 2387  21.622  33.511   0.819
40967W        W 2388  42.828  29.080   0.301
40968W        W 2389  12.846  33.608   9.600
40969W        W 2390   4.837   7.845  10.508
40970W        W 2391  35.034   8.257   3.647
40971W        W 2392  26.645  12.754  10.031
40972W        W 2393  26.141  42.976  12.836
40973W        W 2394  13.625  20.719   2.815
40974W        W 2395  44.996  37.003  12.394
40975W        W 2396  22.506  14.695  14.394
40976W        W 2397  21.151  13.815   1.396
40977W        W 2398  39.985  30.506   4.778
40978W        W 2399  22.566  37.494   3.772
40979W        W 2400   6.331   7.399   3.222
40980W        W 2401  13.248  30.036   1.251
40981W        W 2402  44.860  40.961  12.053
40982W        W 2403   8.854  24.084   1.404
40983W        W 2404  25.662  13.822  12.865
40984W        W 2405  37.031  15.676   1.871
40985W        W 2406  39.031   7.275  12.999
40986W        W 2407   6.921  24.679  14.856
40987W        W 2408  16.189  21.085   3.339
40988W        W 2409   0.961  40.402  13.491
40989W        W 2410  22.130  39.369   4.834
40990W        W 2411  13.623   8.209  11.507
40991W        W 2412  29.609  25.981   3.729
40992W        W 2413  19.610   5.801  12.410
40993W        W 2414  33.992  12.684   1.411
40994W        W 2415  21.188  14.740  14.017
40995W        W 2416  24.570  25.046  13.318
40996W        W 2417  37.849  37.846   2.253
40997W        W 2418  26.969  38.947   4.223
40998W        W 2419  32.517  23.114   1.316
40999W        W 2420  23.533  44.288   3.672
41000W        W 2421  36.483  44.764   1.905
41001W        W 2422  17.610   8.300   3.766
41002W        W 2423  37.074   9.820   4.722
41003W        W 2424  41.823  35.989  13.362
41004W        W 2425  34.909  41.865   4.682
41005W        W 2426  44.935  43.990   0.463
41006W        W 2427  35.052   6.326  13.995
41007W        W 2428   7.319  26.498  10.548
41008W        W 2429  40.939  17.584  12.365
41009W        W 2430  15.220  29.107   3.782
41010W        W 2431   7.414  27.639   0.921
41011W        W 2432  29.576  38.013  12.932
41012W        W 2433  14.148  33.900   2.693
41013W        W 2434   8.232  31.457  10.481
41014W        W 2435   0.924  20.726  14.929
41015W        W 2436  10.731  43.914  10.601
41016W        W 2437  16.602  37.485   1.797
41017W        W 2438  12.794   0.848  13.372
41018W        W 2439  26.463   0.748   2.765
41019W        W 2440  31.054   9.206   1.925
41020W        W 2441  29.584   5.395  13.002
41021W        W 2442  18.118  15.590  14.920
41022W        W 2443  31.923   9.711   4.721
41023W        W 2444  17.671  18.057   3.260
41024W        W 2445  13.330  15.252  10.555
41025W        W 2446  40.860   1.775  10.925
41026W        W 2447  44.760  22.016   1.289
41027W        W 2448   7.711  10.219  11.943
41028W        W 2449   9.837  39.965   2.901
41029W        W 2450   0.456  13.600   3.807
41030W        W 2451   9.870  35.981  10.992
41031W        W 2452  33.482  39.895  11.113
41032W        W 2453   6.229  43.410  13.533
41033W        W 2454  20.051   2.294  11.484
41034W        W 2455  33.489  20.073  12.363
41035W        W 2456   1.839  22.996  12.968
41036W        W 2457  13.127   3.297   3.198
41037W        W 2458   3.335  40.421   2.403
41038W        W 2459  34.104  44.434  12.475
41039W        W 2460   6.806   3.232   0.772
41040W        W 2461  10.217  33.130  11.976
41041W        W 2462  30.444  32.943  10.915
41042W        W 2463  26.988  21.679   3.811
41043W        W 2464  11.160  20.526  11.507
41044W        W 2465  24.622  14.182  11.051
41045W        W 2466  39.414   3.868  11.540
41046W        W 2467  12.187   5.846   1.916
41047W        W 2468   9.358  21.607  14.499
41048W        W 2469  27.159  24.082  14.864
41049W        W 2470  14.136   2.430   0.416
41050W        W 2471  30.487  24.680   2.338
41051W        W 2472   3.298  38.019  14.929
41052W        W 2473  18.684  29.129   0.442
41053W        W 2474  20.074  35.502  12.470
41054W        W 2475   2.940   1.449   5.802
41055W        W 2476  32.986  41.008   1.724
41056W        W 2477   1.448   4.850  12.515
41057W        W 2478   0.486   4.928   3.825
41058W        W 2479  25.166  24.661  12.432
41059W        W 2480  39.931  42.838  11.447
41060W        W 2481  21.238  36.464   0.912
41061W        W 2482  27.189   0.937   2.190
41062W        W 2483  31.470   7.770   3.640
41063W        W 2484  42.328  31.931  14.277
41064W        W 2485  21.112  28.675  12.530
41065W        W 2486  30.090  26.084  13.426
41066W        W 2487  36.349  39.419  13.518
41067W        W 2488  40.475  43.839  10.438
41068W        W 2489  38.530  19.046   3.165
41069W        W 2490  42.450  23.504  14.817
41070W        W 2491  42.389   5.864  14.987
41071W        W 2492   4.765  42.361  13.841
41072W        W 2493  22.673  22.662   0.934
41073W        W 2494  13.199   0.452  13.846
41074W        W 2495  11.623  29.938   0.439
41075W        W 2496   1.952   8.700  11.447
41076W        W 2497  11.229  24.214   0.857
41077W        W 2498   5.925  33.547  12.867
41078W        W 2499  32.058  31.906  10.481
41079W        W 2500  26.699  27.618   3.810
41080W        W 2501  15.194   2.388   3.338
41081W        W 2502   1.870  14.597   1.829
41082W        W 2503  13.203  18.195  10.080
41083W        W 2504   0.451  12.331  12.385
41084W        W 2505  35.416  40.810  11.894
41085W        W 2506  26.576  36.509   3.352
41086W        W 2507  39.556  34.091  14.901
41087W        W 2508  14.286   6.295   4.132
41088W        W 2509  41.491  30.448  13.009
41089W        W 2510   7.324  38.049  12.096
41090W        W 2511  44.806  35.385   0.419
41091W        W 2512  23.569  23.553  11.015
41092W        W 2513  14.142  33.563   0.459
41093W        W 2514  24.981  35.003  12.951
41094W        W 2515  24.716   9.258  14.785
41095W        W 2516  14.735  24.213  10.994
41096W        W 2517   4.310  13.346  13.867
41097W        W 2518  14.828  22.998   3.870
41098W        W 2519   7.890  11.210  11.937
41099W        W 2520  33.469   6.757  12.459
41100W        W 2521  10.201  15.110   1.328
41101W        W 2522  39.923  41.979  14.944
41102W        W 2523  35.482  11.774  12.463
41103W        W 2524  17.095  38.072  14.923
41104W        W 2525   9.266   4.914   0.940
41105W        W 2526  41.339  10.149   2.388
41106W        W 2527  19.646  16.591  13.544
41107W        W 2528  30.011  39.037   0.257
41108W        W 2529  32.129  44.494  13.400
41109W        W 2530  35.879   7.889  11.058
41110W        W 2531  26.687  31.629  11.865
41111W        W 2532  37.335  10.149  11.111
41112W        W 2533  33.942  42.440  14.985
41113W        W 2534   6.335  14.105  11.484
41114W        W 2535   5.264   3.718   2.279
41115W        W 2536  29.969  20.213   3.712
41116W        W 2537   0.302  14.682   1.235
41117W        W 2538  24.099  12.638  14.008
41118W        W 2539  39.368  16.285   0.876
41119W        W 2540  40.982  36.080   2.673
41120W        W 2541   3.753  23.631  14.770
41121W        W 2542  41.374   5.771   4.274
41122W        W 2543  24.583  11.796  11.920
41123W        W 2544  20.732  36.091   3.804
41124W        W 2545  12.135   8.750   1.822
41125W        W 2546  22.126  44.894   4.752
41126W        W 2547   7.282  23.143  10.974
41127W        W 2548  15.195  14.659   2.248
41128W        W 2549  41.926   5.811   1.312
41129W        W 2550  20.763  13.669  12.992
41130W        W 2551  24.090  16.782  13.383
41131W        W 2552   5.416  23.140  13.002
41132W        W 2553   6.365  14.692  11.882
41133W        W 2554  32.531  30.425  12.977
41134W        W 2555  17.585  32.468   1.451
41135W        W 2556  13.176   2.866  13.544
41136W        W 2557   6.394  20.595  14.968
41137W        W 2558   4.918   4.827   3.341
41138W        W 2559  25.982  33.554  10.980
41139W        W 2560   4.730  16.316   1.838
41140W        W 2561   8.377  37.045   5.769
41141W        W 2562  39.868  36.086  11.937
41142W        W 2563   5.337  22.164  14.832
41143W        W 2564  12.335  23.161  12.879
41144W        W 2565  17.295  44.988  14.798
41145W        W 2566  28.652  37.940   0.915
41146W        W 2567  30.975  24.647  13.044
41147W        W 2568  32.981  43.915   3.722
41148W        W 2569  23.075  15.705   2.303
41149W        W 2570  14.205  24.663   3.857
41150W        W 2571  12.709   9.829   0.926
41151W        W 2572  11.139  18.050   0.306
41152W        W 2573  16.114  37.960  13.342
41153W        W 2574  32.907  22.083   0.286
41154W        W 2575  36.931  24.485  10.632
41155W        W 2576  36.535  31.902   4.620
41156W        W 2577  18.226  26.596   2.752
41157W        W 2578  34.904  35.445  13.987
41158W        W 2579  24.203  19.544   2.241
41159W        W 2580  24.576  33.914  11.855
41160W        W 2581  39.919  26.542  11.127
41161W        W 2582   5.864  38.876   5.792
41162W        W 2583  40.906  24.670   1.357
41163W        W 2584   6.810  12.662   0.824
41164W        W 2585  10.774  22.520  10.028
41165W        W 2586  31.627   0.811   1.353
41166W        W 2587  35.978  14.654  14.997
41167W        W 2588  28.612  38.442  13.878
41168W        W 2589   2.331  13.143  14.884
41169W        W 2590   2.723  31.959  11.479
41170W        W 2591  33.570   5.379  14.356
41171W        W 2592  24.124  41.851  14.840
41172W        W 2593  39.535   3.267   2.864
41173W        W 2594  12.633  12.188  10.470
41174W        W 2595  21.165  16.749  14.947
41175W        W 2596   9.252  42.342   3.265
41176W        W 2597  36.038   2.845  14.767
41177W        W 2598  13.254   6.775  13.901
41178W        W 2599  26.627   2.820   3.691
41179W        W 2600  12.249  33.539  13.937
41180W        W 2601   9.760  37.457   1.913
41181W        W 2602  14.319  39.417   3.347
41182W        W 2603   1.770   7.713   2.812
41183W        W 2604  26.192  14.735   1.887
41184W        W 2605   2.235  18.595  14.333
41185W        W 2606  21.095   6.740   1.387
41186W        W 2607   1.857  13.721   0.902
41187W        W 2608  30.575  17.063  10.891
41188W        W 2609  31.929  11.334   4.736
41189W        W 2610   5.434  37.959   0.835
41190W        W 2611   6.274  15.309  13.928
41191W        W 2612  42.818  25.137   4.666
41192W        W 2613  23.111  39.392   0.826
41193W        W 2614  29.456  12.692  14.390
41194W        W 2615  29.990   6.848  13.947
41195W        W 2616  10.877  41.011  14.974
41196W        W 2617  26.056  30.513   2.738
41197W        W 2618   4.856  28.644  12.924
41198W        W 2619  44.365  16.651  10.897
41199W        W 2620  33.496  14.780   0.249
41200W        W 2621  41.844  33.430  12.461
41201W        W 2622  44.897   1.409   0.355
41202W        W 2623  22.232  37.545   0.378
41203W        W 2624  21.714  30.926   0.250
41204W        W 2625  19.139  32.129  12.574
41205W        W 2626  10.797  32.433   0.384
41206W        W 2627  19.649  28.045  11.928
41207W        W 2628  39.376   7.862  13.057
41208W        W 2629  35.900  24.220   4.716
41209W        W 2630   7.336  38.028   1.298
41210W        W 2631  42.949  43.845   1.725
41211W        W 2632  11.297  26.649  12.979
41212W        W 2633   0.479   2.452  12.044
41213W        W 2634  36.366   8.852  11.094
41214W        W 2635  20.071  42.348   0.425
41215W        W 2636   4.884  22.082   4.271
41216W        W 2637  33.011  12.124  13.822
41217W        W 2638  15.662  30.071   3.658
41218W        W 2639  10.351  13.721  13.936
41219W        W 2640  22.210  31.998  10.541
41220W        W 2641  31.970  15.813   4.216
41221W        W 2642  37.430  11.301   3.328
41222W        W 2643  32.002  10.776   0.798
41223W        W 2644  23.621  42.919  11.008
41224W        W 2645  24.985   7.904  12.407
41225W        W 2646   2.874  23.059   0.437
41226W        W 2647  27.057  12.242   4.683
41227W        W 2648  29.576  28.541  11.452
41228W        W 2649  24.061  23.171   3.186
41229W        W 2650   2.820  38.405  12.543
41230W        W 2651  13.145  23.540   2.266
41231W        W 2652  19.110   2.726   4.139
41232W        W 2653  15.682  31.566   3.350
41233W        W 2654   2.728  29.457  13.533
41234W        W 2655  44.977  31.935   3.816
41235W        W 2656  34.044  18.636   4.207
41236W        W 2657  35.472   5.797  14.999
41237W        W 2658  11.338   6.878  13.881
41238W        W 2659   5.199  17.690  13.359
41239W        W 2660  17.297  39.971  14.873
41240W        W 2661  43.394   0.914   3.804
41241W        W 2662  33.403  18.259  13.939
41242W        W 2663  39.467  34.008   3.705
41243W        W 2664  20.642  32.072   0.756
41244W        W 2665  15.641  35.505   1.770
41245W        W 2666  16.288  27.115   1.706
41246W        W 2667   0.381  14.796  14.293
41247W        W 2668  10.249  10.190  12.081
41248W        W 2669  27.073  24.029  10.949
41249W        W 2670  34.867   5.737   9.597
41250W        W 2671   2.952  23.706  13.539
41251W        W 2672   2.888   0.329  13.360
41252W        W 2673  19.652   9.193  14.419
41253W        W 2674  14.645  20.146   1.424
41254W        W 2675  30.449  12.733   4.623
41255W        W 2676   7.679  12.163  13.496
41256W        W 2677  11.326  35.084   1.726
41257W        W 2678  30.605  24.540  13.382
41258W        W 2679  42.307  22.188  14.789
41259W        W 2680  25.695  42.288   0.307
41260W        W 2681  15.129  32.984   1.244
41261W        W 2682   9.691  31.056   2.852
41262W        W 2683  13.609  22.519  13.801
41263W        W 2684  37.383  10.861   3.668
41264W        W 2685  22.198   3.791  10.050
41265W        W 2686  11.800   0.976   3.677
41266W        W 2687  37.415  40.442  14.011
41267W        W 2688  32.111  39.884   1.888
41268W        W 2689  43.965  40.516   2.803
41269W        W 2690  16.156  39.553   3.862
41270W        W 2691   7.272  11.306   2.752
41271W        W 2692  40.465  29.525   0.841
41272W        W 2693  19.561  22.239   3.772
41273W        W 2694   0.952  21.058  12.372
41274W        W 2695   2.249  20.687   1.742
41275W        W 2696   0.293  14.191   3.247
41276W        W 2697  37.910  19.276  10.541
41277W        W 2698   8.703  40.420   1.813
41278W        W 2699  35.007  35.869   4.174
41279W        W 2700  31.521  42.304  13.492
41280W        W 2701  27.676  24.713   3.808
41281W        W 2702  41.824  38.396  12.569
41282W        W 2703  29.149  15.194  13.056
41283W        W 2704   5.392  17.127  10.940
41284W        W 2705  38.369  14.804  12.515
41285W        W 2706   0.794  15.107   2.684
41286W        W 2707  19.064  18.050  10.125
41287W        W 2708   9.351  32.907  11.931
41288W        W 2709   8.879   3.377  12.007
41289W        W 2710   2.293  30.472   3.791
41290W        W 2711  15.656  36.386   2.813
41291W        W 2712  25.562  17.300   9.955
41292W        W 2713  28.545  20.765  14.923
41293W        W 2714  18.702   2.903  13.810
41294W        W 2715  24.149  12.691  12.825
41295W        W 2716  31.995  24.151  12.935
41296W        W 2717   2.956  19.177   1.417
41297W        W 2718  23.500  28.480  10.623
41298W        W 2719  15.201  13.215  12.371
41299W        W 2720  12.623  42.931  14.776
41300W        W 2721  30.137  21.034   0.793
41301W        W 2722  32.104  12.326   3.288
41302W        W 2723  39.372  32.892   1.701
41303W        W 2724  32.512  21.037   3.675
41304W        W 2725  18.198   8.722  14.290
41305W        W 2726  40.303   0.879   4.724
41306W        W 2727  20.110  39.012  11.442
41307W        W 2728  43.469  25.003   2.391
41308W        W 2729  35.860  29.973   4.795
41309W        W 2730  38.862  30.985  11.003
41310W        W 2731  22.665  19.601  14.408
41311W        W 2732  16.645  24.714   2.193
41312W        W 2733  31.642  32.477   1.740
41313W        W 2734  40.419  35.539  14.458
41314W        W 2735  43.350  20.658   2.825
41315W        W 2736  14.798  21.171  12.848
41316W        W 2737  12.119  17.662  10.974
41317W        W 2738  34.990  39.008   2.408
41318W        W 2739   8.244  12.149  12.378
41319W        W 2740  42.499  41.041  14.892
41320W        W 2741  25.190  22.663  11.590
41321W        W 2742  23.044  13.743   0.741
41322W        W 2743  20.136   8.825  13.982
41323W        W 2744  34.108  44.496   0.404
41324W        W 2745  28.971  24.688  12.912
41325W        W 2746  32.447  36.347   3.368
41326W        W 2747  32.473  26.569   2.678
41327W        W 2748  40.521  22.145   0.872
41328W        W 2749  42.358  19.181  12.441
41329W        W 2750  24.493   2.885   1.213
41330W        W 2751   5.918  13.672  13.837
41331W        W 2752  19.082  40.393   3.371
41332W        W 2753   4.853  35.065  11.925
41333W        W 2754  19.757  17.665  12.857
41334W        W 2755  15.772  39.998  11.388
41335W        W 2756  23.148  24.211  11.010
41336W        W 2757  40.036  29.963   0.371
41337W        W 2758  32.472  17.619  13.422
41338W        W 2759  31.507   3.456   0.872
41339W        W 2760  19.728   5.866  12.051
41340W        W 2761   8.244   0.883  14.962
41341W        W 2762  17.099  17.305  14.910
41342W        W 2763   1.859  43.291   0.959
41343W        W 2764   1.969   6.278   2.413
41344W        W 2765   6.317  40.013   2.204
41345W        W 2766  39.380  43.395   3.711
41346W        W 2767  17.273  11.677  10.483
41347W        W 2768  32.968   9.242   3.376
41348W        W 2769   4.310  11.159  13.449
41349W        W 2770  43.297  32.477   2.670
41350W        W 2771  26.545  15.756   2.326
41351W        W 2772  32.892  29.944  12.857
41352W        W 2773  14.728  11.773   0.290
41353W        W 2774  11.677   4.208  14.009
41354W        W 2775   2.286   7.902  13.043
41355W        W 2776  18.656  36.507  12.083
41356W        W 2777  27.506   7.896  14.484
41357W        W 2778  42.883  12.321   2.260
41358W        W 2779   9.742  15.822   0.286
41359W        W 2780  35.063  18.685   5.120
41360W        W 2781  41.815  23.197   2.888
41361W        W 2782  27.014  41.379   3.686
41362W        W 2783  39.057  27.528  14.826
41363W        W 2784  26.181  35.971  11.111
41364W        W 2785  17.678  11.784   1.281
41365W        W 2786  28.640  13.640  11.049
41366W        W 2787  29.087  25.112   1.381
41367W        W 2788  29.972  13.198   1.393
41368W        W 2789  37.987   7.887   0.736
41369W        W 2790   4.368   1.892  13.037
41370W        W 2791   0.759   4.906  12.035
41371W        W 2792   8.741  33.054  11.092
41372W        W 2793  28.639  39.483   1.390
41373W        W 2794  24.047   3.934   3.721
41374W        W 2795   6.276  26.106  14.324
41375W        W 2796  36.401  29.078   0.307
41376W        W 2797  20.157   4.829   4.334
41377W        W 2798  13.658  21.229  11.032
41378W        W 2799  21.024  17.801   4.654
41379W        W 2800  36.483   3.364  13.509
41380W        W 2801   5.716  38.377   1.798
41381W        W 2802  25.598  29.933  11.077
41382W        W 2803   7.795  26.141  12.511
41383W        W 2804   4.891  31.012  10.598
41384W        W 2805  25.621   9.853   1.932
41385W        W 2806  14.220  17.221  12.830
41386W        W 2807  43.480  10.725  10.585
41387W        W 2808  43.937   2.783  11.563
41388W        W 2809  31.647  32.944   3.701
41389W        W 2810  29.505  36.940  10.937
41390W        W 2811  16.290  33.593   5.169
41391W        W 2812   2.888   7.354   2.747
41392W        W 2813  24.116  16.257   3.258
41393W        W 2814  34.374  11.777  13.020
41394W        W 2815  27.503  10.332  11.425
41395W        W 2816  10.697  28.678   4.162
41396W        W 2817   4.721  25.703   0.462
41397W        W 2818   2.232   3.238  11.065
41398W        W 2819  31.566  39.856   4.620
41399W        W 2820  11.278  39.903   0.372
41400W        W 2821  12.760  15.134   4.776
41401W        W 2822  43.942  12.126   3.330
41402W        W 2823  25.639  30.161  12.894
41403W        W 2824   8.841  41.846  12.577
41404W        W 2825  15.291  16.692   2.787
41405W        W 2826   0.785  33.031  14.021
41406W        W 2827  43.982  42.879   1.257
41407W        W 2828   3.403  21.551   1.855
41408W        W 2829  14.681  31.605   3.299
41409W        W 2830   1.841  29.067  12.912
41410W        W 2831  11.863  24.987   4.150
41411W        W 2832  39.375  10.755   2.375
41412W        W 2833  40.902  17.669   0.258
41413W        W 2834  35.429  18.148   1.374
41414W        W 2835  36.554  25.672   1.827
41415W        W 2836  22.562  16.661   3.235
41416W        W 2837   1.382  25.068  12.386
41417W        W 2838  28.175  17.693  10.483
41418W        W 2839   6.730  21.193  14.929
41419W        W 2840  21.564  34.931  12.933
41420W        W 2841   4.246  19.106  13.446
41421W        W 2842  26.575   9.187   0.299
41422W        W 2843   5.698  18.775   0.761
41423W        W 2844  16.224  21.593  11.582
41424W        W 2845  25.199  26.627  10.441
41425W        W 2846  34.107  34.986   4.664
41426W        W 2847  42.419  11.864   0.842
41427W        W 2848  22.216   4.827  11.438
41428W        W 2849  11.811  10.221   4.771
41429W        W 2850   3.373  25.974   1.898
41430W        W 2851  32.613  19.544   3.654
41431W        W 2852  15.201   1.789  10.955
41432W        W 2853  29.074  14.751   1.877
41433W        W 2854  23.587  26.559  14.390
41434W        W 2855  15.610   1.913   4.203
41435W        W 2856  40.884  20.660   3.224
41436W        W 2857  29.551  36.868  10.555
41437W        W 2858   0.831  37.437  10.526
41438W        W 2859  41.960  24.147  13.891
41439W        W 2860  28.636   8.789   1.336
41440W        W 2861  13.656  42.364  12.417
41441W        W 2862  38.898  32.391  12.480
41442W        W 2863  10.662  24.226   4.173
41443W        W 2864  24.486  32.635  13.502
41444W        W 2865  32.511  42.999   0.270
41445W        W 2866   4.774  27.034  14.316
41446W        W 2867   4.397  25.087  11.379
41447W        W 2868  17.718  19.145   1.213
41448W        W 2869  12.610  30.528   1.233
41449W        W 2870  15.756  38.970   1.377
41450W        W 2871  34.916  17.605   3.362
41451W        W 2872  37.482  30.956  11.573
41452W        W 2873  12.839  12.676  10.553
41453W        W 2874   3.320  26.650  12.045
41454W        W 2875   9.304  11.285   4.324
41455W        W 2876  22.145   0.289   2.786
41456W        W 2877  11.258   0.359  13.448
41457W        W 2878   1.760  29.458  10.492
41458W        W 2879  17.706  29.946   3.701
41459W        W 2880  30.983  21.564  10.558
41460W        W 2881   7.746  39.059   2.692
41461W        W 2882  33.924  11.653   2.273
41462W        W 2883  32.428  43.441  11.109
41463W        W 2884  35.958   3.406  11.981
41464W        W 2885  20.761  35.411   1.217
41465W        W 2886  28.051  25.569   3.356
41466W        W 2887   5.844   5.717  10.996
41467W        W 2888  41.905  44.267   2.886
41468W        W 2889  38.403  43.826   1.329
41469W        W 2890  13.768  20.237  10.899
41470W        W 2891  41.930  14.121  13.529
41471W        W 2892  22.140  26.188  14.024
41472W        W 2893   4.758  35.548   2.785
41473W        W 2894  10.160  21.521   2.190
41474W        W 2895  24.998  30.127   1.855
41475W        W 2896  21.561  18.715   0.749
41476W        W 2897   0.879  39.490  11.860
41477W        W 2898  16.247  20.151  12.472
41478W        W 2899  17.288  35.969  12.848
41479W        W 2900  22.687  10.173  11.118
41480W        W 2901  43.860  14.720  10.900
41481W        W 2902  37.015  17.660  13.859
41482W        W 2903  16.148   2.833   0.277
41483W        W 2904  38.852  24.134   1.804
41484W        W 2905  23.520  20.533  12.387
41485W        W 2906   4.815  13.336   1.826
41486W        W 2907  34.555  23.221  14.501
41487W        W 2908  19.539  20.142  14.847
41488W        W 2909  21.252  15.620   1.389
41489W        W 2910   1.362   8.746  12.393
41490W        W 2911  16.118   5.729  12.348
41491W        W 2912   5.273  28.642   4.766
41492W        W 2913   9.845  36.857   1.342
41493W        W 2914  12.685   2.332  10.931
41494W        W 2915   9.671  11.850  13.922
41495W        W 2916   9.163  30.427   1.212
41496W        W 2917   3.865  19.144  14.844
41497W        W 2918  20.253   5.865  14.372
41498W        W 2919  12.820  33.444  10.097
41499W        W 2920  13.760  24.071  12.453
41500W        W 2921  29.029  44.914  11.057
41501W        W 2922  38.993   0.463  12.430
41502W        W 2923  18.196   7.250  12.075
41503W        W 2924  19.264   4.421  12.891
41504W        W 2925  14.624  37.399   0.919
41505W        W 2926  24.991  17.255  12.355
41506W        W 2927  37.030  11.184   3.197
41507W        W 2928   9.736  40.480  12.094
41508W        W 2929  36.406  14.835   0.745
41509W        W 2930  23.092   2.352   0.896
41510W        W 2931   6.390  34.518  11.934
41511W        W 2932  37.936  41.971   3.686
41512W        W 2933  43.880   6.727  14.973
41513W        W 2934  23.183  38.873  13.031
41514W        W 2935   8.381  39.420   1.379
41515W        W 2936  14.274  21.049   1.790
41516W        W 2937   4.751  41.975   2.802
41517W        W 2938  27.126  17.723   4.305
41518W        W 2939  35.895  32.920   4.806
41519W        W 2940  31.561  12.267   1.767
41520W        W 2941  42.397  12.786   3.698
41521W        W 2942  13.157  24.141   4.118
41522W        W 2943   2.892  39.505   4.336
41523W        W 2944  24.664  44.264  14.322
41524W        W 2945   3.444   3.932   2.273
41525W        W 2946  39.387  35.463  11.949
41526W        W 2947  29.164   4.809   1.841
41527W        W 2948  23.121  34.491  14.995
41528W        W 2949  29.527  26.104   4.824
41529W        W 2950  15.782  23.012   2.816
41530W        W 2951  16.729  20.630  14.300
41531W        W 2952  18.190  23.131  14.482
41532W        W 2953   6.416  11.756   2.801
41533W        W 2954  14.682   9.361  13.993
41534W        W 2955   3.326   9.378  13.864
41535W        W 2956   6.231   9.885   2.341
41536W        W 2957  28.061  24.484   0.379
41537W        W 2958  31.006   9.374   1.295
41538W        W 2959  40.483  40.409   2.778
41539W        W 2960  23.553  13.733   0.462
41540W        W 2961  32.138  28.588   2.281
41541W        W 2962  24.499   0.759  13.062
41542W        W 2963  44.299  42.956   9.988
41543W        W 2964  29.102  26.077  12.379
41544W        W 2965  14.156  34.945  12.449
41545W        W 2966   0.358   7.267   3.821
41546W        W 2967  37.442  15.589  13.985
41547W        W 2968  14.832  30.468   3.161
41548W        W 2969  28.592  16.189   3.355
41549W        W 2970  40.334   1.876   3.278
41550W        W 2971  23.998  40.434  14.843
41551W        W 2972   8.362  34.520   3.849
41552W        W 2973  20.131  14.290  14.823
41553W        W 2974  30.073   4.387   1.219
41554W        W 2975  31.066  12.795   4.742
41555W        W 2976  15.323  21.114  12.525
41556W        W 2977  25.475  26.166  14.498
41557W        W 2978  37.482   9.827  14.419
41558W        W 2979  26.121  26.051  13.429
41559W        W 2980   9.315  15.278  11.010
41560W        W 2981  10.727  26.190  13.925
41561W        W 2982  33.008   0.299   1.395
41562W        W 2983  37.840  35.956   3.325
41563W        W 2984  27.574  29.016   1.221
41564W        W 2985  24.029   6.274  14.302
41565W        W 2986   0.772  36.093  14.341
41566W        W 2987  14.262   4.229  13.957
41567W        W 2988  15.717  29.473  11.080
41568W        W 2989   5.232  28.088   1.857
41569W        W 2990   5.304  29.972  12.461
41570W        W 2991  17.275  11.856   5.321
41571W        W 2992  10.159   7.339   1.828
41572W        W 2993  21.244  22.533   0.846
41573W        W 2994  29.490  35.972   4.685
41574W        W 2995  25.088  43.989   4.258
41575W        W 2996  29.555  37.579  14.847
41576W        W 2997   1.886   9.860   3.153
41577W        W 2998  35.891  42.903  13.016
41578W        W 2999  39.904   5.215  12.922
41579W        W 3000  15.286  39.993   2.673
41580W        W 3001   1.402  38.075  14.507
41581W        W 3002   1.918  19.124  13.482
41582W        W 3003   3.804   6.820   1.250
41583W        W 3004  37.031  32.057   2.847
41584W        W 3005  22.575  15.271  12.414
41585W        W 3006   6.845  32.035   0.292
41586W        W 3007  35.956  11.867  10.487
41587W        W 3008  14.138  28.174  12.560
41588W        W 3009  38.413   9.158   1.221
41589W        W 3010   7.346  40.041  12.563
41590W        W 3011  20.160  18.735  10.072
41591W        W 3012  12.332  37.914  11.417
41592W        W 3013  44.465  13.611  12.533
41593W        W 3014  22.236  19.549  13.369
41594W        W 3015  19.207  32.568  11.411
41595W        W 3016  42.330   9.867   0.945
41596W        W 3017   0.400  22.079   0.727
41597W        W 3018  36.954   7.762   2.211
41598W        W 3019   9.205  12.776  10.622
41599W        W 3020  13.756  40.850   3.263
41600W        W 3021  30.958  20.247  11.440
41601W        W 3022  33.550  39.398  14.954
41602W        W 3023  10.773  38.368  13.019
41603W        W 3024  40.030  32.065  11.372
41604W        W 3025  14.207  22.037  14.475
41605W        W 3026  35.107  14.338   0.474
41606W        W 3027  26.024  12.134  14.389
41607W        W 3028  12.635  41.295   1.778
41608W        W 3029  34.092  19.040   0.780
41609W        W 3030  16.807  33.098   1.771
41610W        W 3031  29.661  26.654   1.855
41611W        W 3032  24.584  17.224   3.382
41612W        W 3033   2.450   0.892  12.398
41613W        W 3034  17.269   0.968  14.277
41614W        W 3035  29.965  10.251  10.026
41615W        W 3036  12.172   1.773  11.465
41616W        W 3037  29.926  36.515  11.534
41617W        W 3038  20.681   1.739   3.241
41618W        W 3039  38.968  31.405  14.788
41619W        W 3040  26.080  37.022  14.836
41620W        W 3041  42.811   3.780  13.308
41621W        W 3042  36.514   8.848  13.362
41622W        W 3043  40.991  21.681  14.905
41623W        W 3044  10.782  12.294   0.424
41624W        W 3045   9.255  35.877  10.636
41625W        W 3046  39.005  19.174   2.314
41626W        W 3047  32.568  19.627  13.472
41627W        W 3048  42.032  19.585   2.389
41628W        W 3049  44.925   5.262  13.960
41629W        W 3050  11.865  26.458  12.073
41630W        W 3051  14.703  31.583   2.845
41631W        W 3052  13.131  28.165  12.046
41632W        W 3053  21.529  37.034   0.862
41633W        W 3054   1.732  36.022  13.031
41634W        W 3055  22.553  30.445   9.956
41635W        W 3056  13.300   1.810   2.245
41636W        W 3057  37.955  17.631  14.501
41637W        W 3058   5.894  33.081  14.400
41638W        W 3059  17.233   5.404   1.879
41639W        W 3060  18.617  15.148   2.735
41640W        W 3061  38.401  32.909   0.957
41641W        W 3062  34.554   3.358   5.250
41642W        W 3063  26.685   5.387  12.428
41643W        W 3064  29.511  34.914  12.503
41644W        W 3065   1.931  20.219  14.928
41645W        W 3066   1.300  21.709   3.320
41646W        W 3067   6.834  29.535   4.598
41647W        W 3068  42.824  19.689   3.370
41648W        W 3069  38.929  12.676  12.877
41649W        W 3070  25.676  39.368   0.343
41650W        W 3071  31.896   1.358  12.981
41651W        W 3072  13.341  17.152   4.766
41652W        W 3073  33.391  35.567  14.957
41653W        W 3074  42.423   7.188  12.855
41654W        W 3075   3.914  18.199  11.061
41655W        W 3076  10.153  10.284   1.851
41656W        W 3077  36.375  44.957  13.058
41657W        W 3078  15.248  43.016   9.960
41658W        W 3079  23.025   5.772  12.547
41659W        W 3080  23.081  36.585   2.378
41660W        W 3081  11.820  34.458   3.853
41661W        W 3082   8.819  13.126   0.752
41662W        W 3083  40.389   5.845  14.783
41663W        W 3084  26.570  13.318   4.332
41664W        W 3085  13.720   6.741   3.298
41665W        W 3086  34.601  19.137   1.357
41666W        W 3087   0.845  35.383   1.746
41667W        W 3088  18.134  25.982  14.382
41668W        W 3089   4.770   9.680   2.863
41669W        W 3090  26.120  32.980  11.448
41670W        W 3091   0.801   9.166  12.968
41671W        W 3092   5.231  13.669   1.310
41672W        W 3093  25.598  34.409  10.406
41673W        W 3094  38.509   0.901   3.186
41674W        W 3095  14.743  38.952   2.698
41675W        W 3096   7.701  35.401   4.651
41676W        W 3097  33.466  20.581  14.822
41677W        W 3098  16.141  16.230  14.350
41678W        W 3099  36.039  15.639   0.432
41679W        W 3100   7.316   4.218  10.589
41680W        W 3101   0.937  12.615  13.835
41681W        W 3102  29.038  19.176   0.765
41682W        W 3103  28.169   4.894   0.388
41683W        W 3104  32.090  14.273   1.278
41684W        W 3105  35.068  25.119  11.035
41685W        W 3106  35.501  28.151  13.826
41686W        W 3107  14.723  28.663   3.193
41687W        W 3108  41.351  42.825   4.154
41688W        W 3109  16.661  41.862  13.931
41689W        W 3110  12.729  33.016  13.013
41690W        W 3111  10.755  40.505   2.325
41691W        W 3112  26.473  13.348  11.471
41692W        W 3113  31.445  23.158  10.470
41693W        W 3114  10.223   8.266  14.461
41694W        W 3115  38.434  27.539   1.858
41695W        W 3116   2.956  44.912   1.313
41696W        W 3117  33.044  23.706   4.630
41697W        W 3118   8.716   1.953  11.969
41698W        W 3119  32.408   4.703  14.383
41699W        W 3120  20.603  31.067   4.728
41700W        W 3121  10.236  32.628   2.269
41701W        W 3122  31.446  41.400  10.563
41702W        W 3123  40.536  29.598   1.719
41703W        W 3124  25.472  20.247  12.005
41704W        W 3125  16.256  19.579  13.962
41705W        W 3126  39.502  41.350  13.485
41706W        W 3127  42.347  22.601   2.815
41707W        W 3128  15.084  22.151   2.892
41708W        W 3129   6.735  39.874   2.357
41709W        W 3130  11.347  31.008   4.216
41710W        W 3131   4.856  38.057   1.750
41711W        W 3132  20.529   5.197   0.288
41712W        W 3133   4.750   3.778   1.736
41713W        W 3134  25.578  20.526  11.883
41714W        W 3135  13.752  16.085   0.277
41715W        W 3136  21.741   9.205   2.257
41716W        W 3137  25.212  41.856  13.877
41717W        W 3138  10.751  26.006   4.791
41718W        W 3139  36.010  19.717  11.100
41719W        W 3140  13.672   5.392  11.862
41720W        W 3141  20.702   2.779   0.849
41721W        W 3142  30.429   4.361  12.353
41722W        W 3143  17.622  22.076  13.523
41723W        W 3144  13.682  28.968   4.133
41724W        W 3145  35.406  32.098  11.950
41725W        W 3146  12.712  25.032  13.875
41726W        W 3147  17.136   3.333  10.450
41727W        W 3148  27.562  14.209  10.627
41728W        W 3149  24.525  24.230   2.880
41729W        W 3150  43.772  36.942  10.958
41730W        W 3151  34.603  18.176   4.601
41731W        W 3152  11.692  16.803  10.435
41732W        W 3153  21.038  38.340  14.921
41733W        W 3154  44.405  24.556   3.269
41734W        W 3155  27.040   8.359  13.806
41735W        W 3156  42.414  26.166   2.857
41736W        W 3157  16.752  12.275  13.480
41737W        W 3158  37.467  28.039  14.981
41738W        W 3159  13.231  36.371  12.972
41739W        W 3160   5.281  41.336   5.137
41740W        W 3161   4.879  24.047   0.907
41741W        W 3162  25.581  30.641   2.362
41742W        W 3163  11.276  36.854  13.894
41743W        W 3164   3.799   8.843  14.503
41744W        W 3165  25.127  15.735  11.957
41745W        W 3166  24.516   5.920  14.348
41746W        W 3167  13.233  12.319  12.062
41747W        W 3168  26.493  43.420  10.616
41748W        W 3169  10.379  36.022   1.745
41749W        W 3170  15.202   0.259   1.887
41750W        W 3171  12.745   6.249   1.878
41751W        W 3172  39.407  11.822   0.431
41752W        W 3173  10.356   0.806  14.355
41753W        W 3174   9.729   2.432   0.793
41754W        W 3175  12.806  37.543  11.083
41755W        W 3176  30.487  30.510   3.819
41756W        W 3177   5.752   8.373  11.029
41757W        W 3178  16.225  29.160   4.161
41758W        W 3179  19.732   1.950   4.661
41759W        W 3180  40.451  21.623  14.788
41760W        W 3181   3.926   0.358   2.298
41761W        W 3182  42.834   5.303  14.843
41762W        W 3183  20.754  43.485  13.855
41763W        W 3184  24.493   6.757  11.417
41764W        W 3185  17.730  22.729   0.903
41765W        W 3186  36.411   3.260  10.953
41766W        W 3187  36.014  27.175   4.757
41767W        W 3188  43.999  13.220   0.729
41768W        W 3189  42.917  32.128   3.372
41769W        W 3190   3.795   7.222  12.977
41770W        W 3191  22.503  43.297   4.780
41771W        W 3192   3.788  22.203   9.508
41772W        W 3193  27.685  35.091   4.800
41773W        W 3194  22.136  36.368  13.525
41774W        W 3195   1.425  40.950  12.854
41775W        W 3196  28.088  28.028  10.624
41776W        W 3197  39.977  26.177  10.640
41777W        W 3198  31.518  42.962   2.743
41778W        W 3199   9.884  36.417  12.473
41779W        W 3200  37.929   4.867   3.310
41780W        W 3201  13.218  42.985   4.184
41781W        W 3202   2.282  10.280   3.341
41782W        W 3203  16.779   8.708   3.280
41783W        W 3204  35.567  29.487   4.157
41784W        W 3205  19.596  39.938   0.310
41785W        W 3206  34.380  31.110  14.955
41786W        W 3207  41.324  34.068   1.727
41787W        W 3208   4.820  38.947   5.276
41788W        W 3209  38.349  34.000  12.050
41789W        W 3210  29.441  40.383   1.252
41790W        W 3211  39.448  26.599  10.569
41791W        W 3212  23.026  14.113   4.657
41792W        W 3213  36.913  35.571  11.515
41793W        W 3214  39.408  32.457   2.708
41794W        W 3215  19.221  23.115   0.413
41795W        W 3216  22.132  41.437  13.986
41796W        W 3217   0.797  24.634  11.492
41797W        W 3218  19.580  28.674   4.625
41798W        W 3219   5.906  21.606   3.282
41799W        W 3220  10.304  32.932  13.471
41800W        W 3221  42.317  20.581   2.302
41801W        W 3222  35.368  14.664  11.940
41802W        W 3223  37.902  26.199   1.418
41803W        W 3224  38.407  13.242  14.503
41804W        W 3225  40.320  12.131  11.400
41805W        W 3226  10.188  11.631  10.559
41806W        W 3227  44.914   8.326  14.779
41807W        W 3228  33.913   6.797  14.991
41808W        W 3229  23.587  34.980  13.493
41809W        W 3230  14.194  10.781  11.466
41810W        W 3231  41.876  42.943  10.600
41811W        W 3232   0.973  42.913  14.010
41812W        W 3233  33.935  43.986  11.877
41813W        W 3234  12.149   9.669   4.615
41814W        W 3235  23.542  43.018  13.423
41815W        W 3236  17.676  35.495  10.634
41816W        W 3237   5.274  36.869   2.673
41817W        W 3238  36.482  20.054   2.178
41818W        W 3239  32.049   4.795  14.294
41819W        W 3240  38.490   2.727  12.493
41820W        W 3241   1.906  36.876   4.198
41821W        W 3242  32.405  13.744   0.937
41822W        W 3243   4.816  29.155  14.827
41823W        W 3244  12.353  11.741   0.319
41824W        W 3245   1.809  34.895  13.524
41825W        W 3246  24.496  21.689   3.699
41826W        W 3247  38.042  32.886   0.411
41827W        W 3248  43.436  34.994  10.562
41828W        W 3249  31.014   4.323  13.899
41829W        W 3250   6.407  14.254   4.712
41830W        W 3251   7.701  16.730   2.704
41831W        W 3252  36.098  43.492  10.632
41832W        W 3253  32.062   5.759   1.873
41833W        W 3254  13.310   8.663   0.892
41834W        W 3255  25.601   2.323  10.924
41835W        W 3256  39.965  24.606  13.443
41836W        W 3257  15.241  14.190  12.057
41837W        W 3258  10.863  39.346  13.954
41838W        W 3259  41.381  30.599   2.206
41839W        W 3260  38.333  32.399   1.826
41840W        W 3261  22.047  37.470  11.977
41841W        W 3262  22.524  44.277   2.357
41842W        W 3263   2.961  42.842   0.839
41843W        W 3264  17.677   0.963  13.871
41844W        W 3265   5.912  36.070  13.485
41845W        W 3266  25.174  12.208   1.926
41846W        W 3267  16.079  36.028  12.372
41847W        W 3268  25.638  24.128   1.301
41848W        W 3269   6.833  35.408  11.057
41849W        W 3270  24.481   0.780  13.827
41850W        W 3271  44.897  44.880   4.246
41851W        W 3272  23.587  43.919   3.793
41852W        W 3273  44.854  13.306   4.121
41853W        W 3274  17.684  31.988  14.894
41854W        W 3275  19.182  32.936  11.598
41855W        W 3276  22.631   8.168  14.858
41856W        W 3277  31.467  26.003  12.360
41857W        W 3278   0.393  29.502  11.458
41858W        W 3279  10.231   9.155   1.931
41859W        W 3280  20.528  16.606   1.319
41860W        W 3281  31.418  30.930  10.974
41861W        W 3282   2.879  12.306   3.787
41862W        W 3283   5.837  24.025  12.959
41863W        W 3284   2.794  27.634   3.698
41864W        W 3285  40.500  29.068  12.001
41865W        W 3286  43.441  25.218   4.224
41866W        W 3287  37.470  33.117  12.413
41867W        W 3288   4.759  26.658   5.612
41868W        W 3289  42.930  11.171  10.963
41869W        W 3290  42.434  27.032  13.041
41870W        W 3291  42.475  31.622  14.354
41871W        W 3292  38.406  33.888  10.532
41872W        W 3293   6.877  21.516  11.563
41873W        W 3294  17.659  21.703  14.324
41874W        W 3295  40.478   9.226   3.224
41875W        W 3296  27.133   7.416   2.672
41876W        W 3297  20.701  24.976  13.859
41877W        W 3298  29.040  43.850   0.299
41878W        W 3299  40.911  42.294   1.373
41879W        W 3300  34.060   1.904  14.763
41880W        W 3301   7.194  39.972  14.368
41881W        W 3302  23.055  14.125  11.601
41882W        W 3303  44.934  32.983   3.787
41883W        W 3304  39.884  21.188  14.316
41884W        W 3305  16.115  22.244  13.936
41885W        W 3306  29.569  33.122   4.290
41886W        W 3307  34.891   0.366   2.206
41887W        W 3308  21.183   7.781  12.003
41888W        W 3309  44.492  30.069  10.134
41889W        W 3310   6.738  17.656  12.570
41890W        W 3311  12.824  20.030  13.491
41891W        W 3312  31.587  38.343  10.980
41892W        W 3313  38.984  41.042   0.923
41893W        W 3314  20.046  27.457   3.233
41894W        W 3315  32.534  23.530  10.938
41895W        W 3316  36.010  41.853  11.540
41896W        W 3317   2.755  27.022   0.958
41897W        W 3318  22.204  14.123   3.852
41898W        W 3319  22.523  20.554  12.843
41899W        W 3320  13.725  21.595  14.947
41900W        W 3321   7.326   7.348   4.778
41901W        W 3322  34.093  22.649   3.248
41902W        W 3323  26.045  29.071  12.856
41903W        W 3324  30.136  16.657  13.956
41904W        W 3325  34.121  30.967  14.003
41905W        W 3326  33.469  14.334  11.882
41906W        W 3327  30.558  30.076   2.663
41907W        W 3328  18.151  10.716  12.380
41908W        W 3329   5.887  31.962  11.506
41909W        W 3330   7.402  34.551   2.303
41910W        W 3331   0.253  21.512   3.385
41911W        W 3332  39.867  32.000  14.773
41912W        W 3333   5.306   6.217   0.862
41913W        W 3334  41.032  27.942  13.430
41914W        W 3335  18.207  12.166   2.411
41915W        W 3336  34.889  19.078   1.373
41916W        W 3337  16.125  42.421  11.059
41917W        W 3338   0.764  42.988   3.236
41918W        W 3339  12.355  38.983  14.911
41919W        W 3340  28.547  37.467  14.764
41920W        W 3341  26.179  19.597  10.976
41921W        W 3342  42.902  33.027   2.234
41922W        W 3343  21.535  17.155   4.273
41923W        W 3344  22.134  26.130  11.414
41924W        W 3345  39.811  34.401  14.792
41925W        W 3346  44.501   6.191  13.434
41926W        W 3347   7.733  11.283   1.727
41927W        W 3348   8.833  17.719  11.009
41928W        W 3349   7.876  14.192   0.923
41929W        W 3350  35.021  41.835   1.241
41930W        W 3351   6.297  42.838  11.072
41931W        W 3352  43.794  11.260  10.990
41932W        W 3353  25.208  35.943   4.715
41933W        W 3354  23.123  25.030   1.284
41934W        W 3355  14.319  35.086  11.561
41935W        W 3356  10.772  38.565   2.743
41936W        W 3357  34.389  44.970  13.433
41937W        W 3358  42.845  16.617  10.510
41938W        W 3359  14.769  41.308   4.222
41939W        W 3360  24.622  18.091   4.288
41940W        W 3361  13.253   7.689  11.091
41941W        W 3362  25.051   9.249  11.587
41942W        W 3363  27.011  24.707   1.704
41943W        W 3364   2.780  39.880  14.850
41944W        W 3365  16.309  22.534   4.743
41945W        W 3366  15.163   6.682   0.933
41946W        W 3367   9.660   8.392   3.839
41947W        W 3368   0.277   5.201  14.924
41948W        W 3369  34.032  20.559   4.123
41949W        W 3370  24.609  34.503  11.937
41950W        W 3371  36.458  10.654   3.862
41951W        W 3372  19.633  33.113  14.309
41952W        W 3373   1.831  27.467   3.757
41953W        W 3374  11.755  15.742  10.639
41954W        W 3375  31.561  33.533   2.353
41955W        W 3376   2.305  26.633   0.384
41956W        W 3377  16.301  25.155   0.297
41957W        W 3378  18.687   5.435   2.763
41958W        W 3379   0.865  42.384   2.766
41959W        W 3380  36.415  12.299  14.510
41960W        W 3381  42.370  19.064   3.296
41961W        W 3382  26.020  36.926   2.399
41962W        W 3383   4.415  40.393   2.781
41963W        W 3384  37.074  41.424   0.735
41964W        W 3385  29.644  25.128   2.801
41965W        W 3386   0.254  42.494   4.173
41966W        W 3387  30.580  43.956  12.013
41967W        W 3388  17.710  32.406  12.485
41968W        W 3389   8.203  37.465   5.165
41969W        W 3390   5.748  23.530  14.009
41970W        W 3391  29.099  18.595  12.955
41971W        W 3392  18.100  39.436   4.613
41972W        W 3393  26.123  40.514  12.579
41973W        W 3394  12.178  36.517  11.114
41974W        W 3395  24.056  35.012  13.343
41975W        W 3396  39.859  33.129   1.824
41976W        W 3397   7.212  17.108  11.513
41977W        W 3398  40.362  44.362  11.977
41978W        W 3399   0.794  24.062  13.334
41979W        W 3400   0.866   8.810  11.612
41980W        W 3401  15.578  14.192  14.820
41981W        W 3402   0.941  37.031  13.950
41982W        W 3403  38.826  18.651   4.736
41983W        W 3404   3.331   6.284   4.803
41984W        W 3405  17.724   0.913  12.554
41985W        W 3406  38.416  14.806   2.894
41986W        W 3407  44.880  23.177   2.336
41987W        W 3408   7.732   5.702   2.815
41988W        W 3409  32.495  29.159  13.366
41989W        W 3410  29.100  19.773   0.255
41990W        W 3411   4.232  38.344   0.883
41991W        W 3412  25.549  38.548  14.032
41992W        W 3413  22.205  40.927  14.891
41993W        W 3414  16.134  40.042  13.902
41994W        W 3415   4.272  12.721  11.003
41995W        W 3416  34.388  22.577  12.977
41996W        W 3417   4.854  18.182   0.282
41997W        W 3418  13.667  29.490   1.306
41998W        W 3419   2.305  41.945  14.788
41999W        W 3420  24.013  20.700   4.817
42000W        W 3421   0.362  41.404   1.797
42001W        W 3422  24.077   7.234   2.778
42002W        W 3423  19.766  33.554   4.156
42003W        W 3424  19.154  24.199   0.774
42004W        W 3425  24.673  38.517  14.804
42005W        W 3426  15.647  21.216  12.917
42006W        W 3427  38.363  27.075   0.968
42007W        W 3428  13.633   5.346  11.557
42008W        W 3429  18.727  21.677   3.301
42009W        W 3430  25.969  15.670   3.782
42010W        W 3431  13.181   9.876  14.002
42011W        W 3432  10.379  42.344  10.128
42012W        W 3433  21.153  19.110  10.551
42013W        W 3434   6.257  35.409   1.308
42014W        W 3435  39.883   4.261  11.051
42015W        W 3436  35.904  19.284   4.665
42016W        W 3437  18.689  28.488  14.799
42017W        W 3438  29.062  34.508   2.811
42018W        W 3439  31.599  35.561   0.879
42019W        W 3440   9.351  28.157  13.998
42020W        W 3441  25.118  29.141  11.051
42021W        W 3442  11.660  14.172   3.721
42022W        W 3443  36.915  14.153   4.255
42023W        W 3444  13.839  35.557  14.296
42024W        W 3445   1.957   5.747   2.841
42025W        W 3446  39.440  32.894  12.390
42026W        W 3447  36.858   3.363  14.962
42027W        W 3448  35.379  10.357  14.921
42028W        W 3449  42.338   3.433  13.885
42029W        W 3450   4.773  29.602   5.111
42030W        W 3451   1.469  22.092  13.379
42031W        W 3452  41.013  19.048   4.764
42032W        W 3453  36.902  33.044   1.699
42033W        W 3454  38.540  34.373   2.803
42034W        W 3455  27.179  34.957   2.251
42035W        W 3456   9.179  29.472  13.383
42036W        W 3457  11.847  30.557   0.921
42037W        W 3458  44.887  17.195   4.244
42038W        W 3459  23.577   8.663  11.608
42039W        W 3460  38.393  26.626  14.848
42040W        W 3461  16.233  41.029   1.398
42041W        W 3462  23.653  12.769   0.421
42042W        W 3463  25.661  37.486  12.500
42043W        W 3464  12.683  40.921  13.328
42044W        W 3465   3.458  17.620   1.423
42045W        W 3466  32.602   9.859   1.907
42046W        W 3467  19.691  44.922  11.589
42047W        W 3468   9.291  44.464  13.802
42048W        W 3469   7.349  19.115   4.690
42049W        W 3470  32.420  33.593   0.732
42050W        W 3471   2.880  38.067   0.407
42051W        W 3472  11.751  20.615   9.951
42052W        W 3473  42.810  24.127   1.710
42053W        W 3474   8.796   6.724  10.459
42054W        W 3475  14.615   1.745  11.442
42055W        W 3476  31.438  18.148  13.500
42056W        W 3477  25.599  15.280  13.936
42057W        W 3478   6.893  19.643   2.308
42058W        W 3479  19.561  21.128  14.949
42059W        W 3480  30.914   0.781  11.557
42060W        W 3481  17.714  38.431  12.089
42061W        W 3482  29.504  38.932   4.749
42062W        W 3483   9.647   2.839  11.559
42063W        W 3484  13.600  29.575  13.003
42064W        W 3485  41.413  33.957   0.253
42065W        W 3486  15.138  26.533   5.152
42066W        W 3487   2.281  39.865   2.203
42067W        W 3488   7.864  13.225  14.439
42068W        W 3489  15.323   8.690  12.033
42069W        W 3490   6.726  30.917   3.363
42070W        W 3491  22.722  14.728   0.781
42071W        W 3492  34.061  31.472   3.833
42072W        W 3493   1.837  26.961  12.942
42073W        W 3494   1.279   6.250   3.303
42074W        W 3495  27.015   1.855   0.270
42075W        W 3496  25.161  32.957   1.801
42076W        W 3497   3.858  12.679   1.251
42077W        W 3498  32.946  24.036   4.333
42078W        W 3499  13.277   7.323   0.923
42079W        W 3500  18.127  38.458  14.370
42080W        W 3501  11.357  12.840  13.977
42081W        W 3502  40.459  37.850  12.839
42082W        W 3503  17.762  35.409   1.895
42083W        W 3504  31.008  41.928   3.855
42084W        W 3505   4.771  17.284  13.310
42085W        W 3506   8.342  30.125  10.938
42086W        W 3507  40.033  41.991  12.884
42087W        W 3508  37.850  29.653   2.346
42088W        W 3509  35.564  12.286   2.679
42089W        W 3510  18.659  35.942  10.117
42090W        W 3511  40.024  24.993  10.520
42091W        W 3512  26.519   9.236  10.920
42092W        W 3513  14.179  15.316  13.477
42093W        W 3514  12.611  26.500  12.914
42094W        W 3515  10.794  15.625   4.318
42095W        W 3516  19.135   9.375  11.862
42096W        W 3517   3.422   2.284   3.796
42097W        W 3518  38.412  18.238   4.202
42098W        W 3519  27.571  40.045   2.207
42099W        W 3520   1.328  23.048   3.315
42100W        W 3521  23.521  40.336   4.194
42101W        W 3522   8.184  43.419   3.233
42102W        W 3523   1.959  14.273  10.504
42103W        W 3524   7.305  41.823   4.126
42104W        W 3525  13.266  29.566   2.678
42105W        W 3526  28.132   2.314   3.352
42106W        W 3527  13.170  36.851  12.862
42107W        W 3528  39.473   0.321  10.494
42108W        W 3529  11.326  10.199  12.961
42109W        W 3530  27.994  15.824   2.717
42110W        W 3531   8.789  40.395  12.981
42111W        W 3532  19.122  29.611   2.815
42112W        W 3533  14.232  34.971   4.744
42113W        W 3534  24.983   8.325   4.229
42114W        W 3535  32.468  29.161  10.895
42115W        W 3536  42.031   0.796   1.280
42116W        W 3537   3.809  16.184   2.299
42117W        W 3538  27.072  30.945  11.984
42118W        W 3539   6.791  21.036  10.978
42119W        W 3540  33.893  44.266   3.288
42120W        W 3541  25.052   2.753  10.440
42121W        W 3542   8.746  44.281  14.863
42122W        W 3543  28.044  39.343  14.781
42123W        W 3544  44.484   9.832   3.690
42124W        W 3545  11.671   0.978  12.939
42125W        W 3546  11.749  41.979  13.806
42126W        W 3547  35.452  37.982   2.212
42127W        W 3548  44.453  11.281   2.416
42128W        W 3549  28.056  10.785  13.919
42129W        W 3550  16.727  20.648  14.807
42130W        W 3551  21.705  10.372   3.238
42131W        W 3552  15.103  29.635  14.438
42132W        W 3553  17.743  36.460  11.595
42133W        W 3554   0.339  36.457   1.425
42134W        W 3555  40.507  35.046   4.635
42135W        W 3556  22.038  10.222   3.295
42136W        W 3557   3.838  25.680  12.061
42137W        W 3558   6.822  13.685   4.723
42138W        W 3559  41.917  38.871  11.561
42139W        W 3560  12.646  18.687  13.406
42140W        W 3561   6.230  44.276   2.269
42141W        W 3562  17.184  27.451  11.601
42142W        W 3563   3.441  17.735  13.529
42143W        W 3564   6.257  23.181  11.522
42144W        W 3565  34.592   0.489   2.303
42145W        W 3566  16.169  25.107  11.092
42146W        W 3567  25.121   9.699  11.071
42147W        W 3568  13.297   5.227   0.473
42148W        W 3569  14.305  36.491  14.462
42149W        W 3570   9.299  27.447  10.489
42150W        W 3571  41.376  20.686  12.475
42151W        W 3572  16.756  28.594   4.125
42152W        W 3573  18.235  43.389   2.382
42153W        W 3574   7.753  14.311   4.144
42154W        W 3575   7.228  27.143  14.314
42155W        W 3576   5.773  39.827   2.274
42156W        W 3577  10.152   4.733   1.449
42157W        W 3578   6.403  32.914  11.434
42158W        W 3579  34.936   4.713  14.846
42159W        W 3580  12.183  30.092  13.468
42160W        W 3581   5.431  33.035  14.997
42161W        W 3582  42.332  11.278   0.455
42162W        W 3583  12.293  12.148  11.911
42163W        W 3584   4.807  18.279   3.305
42164W        W 3585  41.301  27.599  11.105
42165W        W 3586   1.794  15.689   2.714
42166W        W 3587  43.362  15.245   5.216
42167W        W 3588  43.786  11.130  13.942
42168W        W 3589   6.850  39.348   0.376
42169W        W 3590  27.567  34.527  11.497
42170W        W 3591   5.247  39.976  11.982
42171W        W 3592   4.876  39.059   2.809
42172W        W 3593  22.996  32.052  14.328
42173W        W 3594  33.491   0.434   1.814
42174W        W 3595  24.046  18.116  13.062
42175W        W 3596  21.125   7.365  13.972
42176W        W 3597   1.793   4.728  11.396
42177W        W 3598  34.053   0.399  14.323
42178W        W 3599  14.776  36.940   2.232
42179W        W 3600  14.814  34.369  14.382
42180W        W 3601  41.408  13.754  13.414
42181W        W 3602  40.872  44.282  13.804
42182W        W 3603  29.443  12.334   1.785
42183W        W 3604  15.772  18.092  11.960
42184W        W 3605  20.130  30.517  14.952
42185W        W 3606  34.969  13.727  14.956
42186W        W 3607   0.743  13.720  14.985
42187W        W 3608  18.752  27.592   0.908
42188W        W 3609  22.660  40.483  11.930
42189W        W 3610  34.952  13.674  13.400
42190W        W 3611  44.360  11.185   3.865
42191W        W 3612  27.504  38.553  12.911
42192W        W 3613   2.351   3.396   4.812
42193W        W 3614   5.385   8.319   0.481
42194W        W 3615  32.568  21.066   0.355
42195W        W 3616  35.507   8.213   1.391
42196W        W 3617  14.183  19.550   0.825
42197W        W 3618   3.930  34.021  10.975
42198W        W 3619  17.565  31.443   4.727
42199W        W 3620   6.183  30.594   1.723
42200W        W 3621  15.094   5.795  10.901
42201W        W 3622  44.761   6.403   0.432
42202W        W 3623   1.382  28.486   1.357
42203W        W 3624  13.662  38.992   1.428
42204W        W 3625  22.140  10.766   1.778
42205W        W 3626  40.541  12.776  11.385
42206W        W 3627  28.658  28.102   0.437
42207W        W 3628  24.084   4.721  12.979
42208W        W 3629   9.776  30.622  14.022
42209W        W 3630  39.821  18.729  11.408
42210W        W 3631  38.921  37.580   3.641
42211W        W 3632  25.114  39.949  11.962
42212W        W 3633  25.638  16.758  13.379
42213W        W 3634  29.049  25.066  12.959
42214W        W 3635   7.674  37.481  10.493
42215W        W 3636  41.880   1.443  12.868
42216W        W 3637  43.492   8.735  10.118
42217W        W 3638   0.466  39.856   0.886
42218W        W 3639  42.371  11.344  11.463
42219W        W 3640  18.746  23.713  10.585
42220W        W 3641  30.949  30.564   5.138
42221W        W 3642  28.577   8.887  14.986
42222W        W 3643  29.160   9.877  13.943
42223W        W 3644  14.719  40.039  13.395
42224W        W 3645  41.908   4.905   0.309
42225W        W 3646  32.000  37.440   3.797
42226W        W 3647   9.744   0.960   3.722
42227W        W 3648  26.544  14.266   1.374
42228W        W 3649  41.338  28.678  14.480
42229W        W 3650  20.176   6.218   0.256
42230W        W 3651  35.077  15.200  14.839
42231W        W 3652   3.747   1.787   0.959
42232W        W 3653  13.158   0.986  11.039
42233W        W 3654  11.129  42.924  10.963
42234W        W 3655  28.105  39.549   4.352
42235W        W 3656  12.281  39.520  14.480
42236W        W 3657  29.164  32.919  12.904
42237W        W 3658   1.928  37.350   0.438
42238W        W 3659  28.651  26.176   4.643
42239W        W 3660   8.763  37.951  14.823
42240W        W 3661   6.269  24.616  13.968
42241W        W 3662  11.303  27.550   4.148
42242W        W 3663  43.341  31.940  12.861
42243W        W 3664  30.088   9.281   2.288
42244W        W 3665   3.251  17.794   3.354
42245W        W 3666  28.599  20.132   4.618
42246W        W 3667  21.631  37.409  14.369
42247W        W 3668   2.775  13.233  12.946
42248W        W 3669   7.760  22.714  13.857
42249W        W 3670  34.041  35.872   3.186
42250W        W 3671  23.598  41.403   2.862
42251W        W 3672   7.734  37.372   2.269
42252W        W 3673  13.201  12.136   1.426
42253W        W 3674  43.016  40.436  13.977
42254W        W 3675   1.245  40.364   0.308
42255W        W 3676  19.100  10.253   4.131
42256W        W 3677  23.683  41.006  11.018
42257W        W 3678  29.553  32.402  12.014
42258W        W 3679  27.976  19.603   3.159
42259W        W 3680  23.621  34.415  11.059
42260W        W 3681  40.492  30.009  12.887
42261W        W 3682   8.876  18.265  11.904
42262W        W 3683  33.468  39.012   1.903
42263W        W 3684  14.220  27.454   0.409
42264W        W 3685  11.184  14.666   1.828
42265W        W 3686  19.101   1.384   2.669
42266W        W 3687  37.915  30.560  12.048
42267W        W 3688  28.961  19.065  13.391
42268W        W 3689   3.457  25.562   2.823
42269W        W 3690  43.934  41.351   2.309
42270W        W 3691  43.310   7.239   4.806
42271W        W 3692   0.439  35.556   3.326
42272W        W 3693  41.406   8.731   1.749
42273W        W 3694  14.604  19.713  14.328
42274W        W 3695   1.794  39.558   0.408
42275W        W 3696  16.631   1.383  13.033
42276W        W 3697  18.651  36.079  11.385
42277W        W 3698   0.752   3.362   4.623
42278W        W 3699  38.884  38.077  14.315
42279W        W 3700  11.221  10.312  11.861
42280W        W 3701  40.864  36.856   4.323
42281W        W 3702  12.349  27.153  12.371
42282W        W 3703   8.791  19.266  14.831
42283W        W 3704  22.677  39.472  12.864
42284W        W 3705  26.623  43.783  13.397
42285W        W 3706  34.008  18.243   1.406
42286W        W 3707  32.902  22.550  14.434
42287W        W 3708   3.955  23.165  13.934
42288W        W 3709  16.602  11.350  11.003
42289W        W 3710  11.339  21.679   0.301
42290W        W 3711  25.620   7.350  12.019
42291W        W 3712  10.356  39.349   1.806
42292W        W 3713   1.788  22.247   2.261
42293W        W 3714  18.066   7.260  12.375
42294W        W 3715  31.432  37.038  11.597
42295W        W 3716  39.053   5.931  10.919
42296W        W 3717  41.431   0.974  10.638
42297W        W 3718  15.691  19.570  14.344
42298W        W 3719  30.095  40.495  12.961
42299W        W 3720  41.425  36.865   2.347
42300W        W 3721   5.363  21.635   4.764
42301W        W 3722   9.294   6.349   4.827
42302W        W 3723  14.317  16.802   0.933
42303W        W 3724  17.734  43.764   2.402
42304W        W 3725   5.274  27.073  10.048
42305W        W 3726  12.347  42.802  11.120
42306W        W 3727  44.008  35.910   1.308
42307W        W 3728  28.483  43.957   1.727
42308W        W 3729  32.541  42.011   2.664
42309W        W 3730  12.728  40.818  14.510
42310W        W 3731  12.843  30.628   2.350
42311W        W 3732  30.030   0.249  12.004
42312W        W 3733  36.377  31.978  14.904
42313W        W 3734   7.397  44.426  13.026
42314W        W 3735  23.658   6.822   4.626
42315W        W 3736  15.594  39.000   0.745
42316W        W 3737   4.854  13.770  13.430
42317W        W 3738  26.591  21.742   2.757
42318W        W 3739  40.804   6.879   4.638
42319W        W 3740  37.575  18.052  12.844
42320W        W 3741   1.422  29.161  10.604
42321W        W 3742   0.266   2.966   4.696
42322W        W 3743  24.187   8.747   1.752
42323W        W 3744  38.956  12.782  13.509
42324W        W 3745   8.293  20.677  10.984
42325W        W 3746  14.810  34.513   2.365
42326W        W 3747  15.317  41.389  11.501
42327W        W 3748   8.675  14.626  11.495
42328W        W 3749  44.899   0.792  11.963
42329W        W 3750  11.728  41.793  14.388
42330W        W 3751  16.708  42.370   0.482
42331W        W 3752  15.696  26.624  13.405
42332W        W 3753  42.443  22.744  12.992
42333W        W 3754  13.277  33.622  11.024
42334W        W 3755  18.149  23.491   1.224
42335W        W 3756  40.510  33.614   2.394
42336W        W 3757  23.729  25.549  10.622
42337W        W 3758  24.530  40.972   0.450
42338W        W 3759  44.272   7.292  14.343
42339W        W 3760   0.946  38.483   3.280
42340W        W 3761  41.356  17.195  12.520
42341W        W 3762  21.196  42.519  13.446
42342W        W 3763  39.828  21.577  13.892
42343W        W 3764   1.813  42.394  12.463
42344W        W 3765  41.348  37.079   2.854
42345W        W 3766  30.639  30.423  11.383
42346W        W 3767  42.309   4.711   3.216
42347W        W 3768  44.407  40.498  12.955
42348W        W 3769   4.830   8.849   2.721
42349W        W 3770  26.469  15.202  12.422
42350W        W 3771  12.169  27.122   4.678
42351W        W 3772  36.948   8.797   2.802
42352W        W 3773  28.491  20.591  13.839
42353W        W 3774  41.904   6.366  13.395
42354W        W 3775  43.281  28.113   3.747
42355W        W 3776  31.078  41.410  13.493
42356W        W 3777   8.258  36.864   0.806
42357W        W 3778  38.329  39.970   2.217
42358W        W 3779  15.165  12.813   4.654
42359W        W 3780   0.486  15.668   0.307
42360W        W 3781  23.194  27.187   2.381
42361W        W 3782   7.273   8.853  12.993
42362W        W 3783  10.668  44.460  14.890
42363W        W 3784  21.621  38.413   2.898
42364W        W 3785  28.488  31.036  10.517
42365W        W 3786  30.435  24.980  10.403
42366W        W 3787  37.340  14.204  10.949
42367W        W 3788  22.234  40.023   1.903
42368W        W 3789  41.028  23.054  11.076
42369W        W 3790  32.390   7.196   4.720
42370W        W 3791  18.749  38.429   1.378
42371W        W 3792  17.795  21.151   4.616
42372W        W 3793   4.916  41.309   0.794
42373W        W 3794  43.327  43.298  11.389
42374W        W 3795  43.897  18.178  11.086
42375W        W 3796   8.871  19.192  13.422
42376W        W 3797  21.040  25.562   1.730
42377W        W 3798  27.576  34.032   3.362
42378W        W 3799  33.593   6.686  14.350
42379W        W 3800  28.550  27.971   0.747
42380W        W 3801  23.038  31.512  11.565
42381W        W 3802  42.444  29.638  10.616
42382W        W 3803  44.432  21.578  13.360
42383W        W 3804  16.581  31.940  12.436
42384W        W 3805   8.775  33.594   3.663
42385W        W 3806  27.539  26.115   2.662
42386W        W 3807  33.020  39.938   3.348
42387W        W 3808  25.507  27.684   1.321
42388W        W 3809  38.989  18.720   1.431
42389W        W 3810  35.863  26.062   1.402
42390W        W 3811  40.427  40.435   0.924
42391W        W 3812  17.770  26.613  10.008
42392W        W 3813  15.266  29.506   1.365
42393W        W 3814  42.801   7.737   0.397
42394W        W 3815  25.622   9.391   2.274
42395W        W 3816  15.225   9.174  12.963
42396W        W 3817  40.011  15.273  13.361
42397W        W 3818  44.949  39.842  12.828
42398W        W 3819   5.395  35.955  14.435
42399W        W 3820  18.165  23.489   4.299
42400W        W 3821  31.012  36.389  12.867
42401W        W 3822  34.098   2.784  12.387
42402W        W 3823  15.773  34.517   1.393
42403W        W 3824  35.423  35.909  11.864
42404W        W 3825   0.359  14.747   0.878
42405W        W 3826  31.505  36.915  13.849
42406W        W 3827  38.520  43.431  10.629
42407W        W 3828  22.067  40.424   3.703
42408W        W 3829  15.697  16.714   0.470
42409W        W 3830  32.534  31.462   1.809
42410W        W 3831   4.765  31.520  13.841
42411W        W 3832  24.715   7.665   4.308
42412W        W 3833  24.587  16.688  10.424
42413W        W 3834  25.217  11.257  14.817
42414W        W 3835  14.315  15.757  12.520
42415W        W 3836  11.723   8.741  13.929
42416W        W 3837  38.527  33.383  11.423
42417W        W 3838  25.962  10.227  12.342
42418W        W 3839  15.223  31.962   3.798
42419W        W 3840  21.194  43.901   2.744
42420W        W 3841  17.691  28.177   0.819
42421W        W 3842  16.740  10.876  14.426
42422W        W 3843  30.584  22.170  12.865
42423W        W 3844  19.584  14.671   3.742
42424W        W 3845  12.610  21.568   4.218
42425W        W 3846  33.935  40.416  13.960
42426W        W 3847   2.916  35.429   2.191
42427W        W 3848  12.705  15.118  11.512
42428W        W 3849  39.488  44.999   1.281
42429W        W 3850  28.601  31.030  12.941
42430W        W 3851   1.755   6.240   3.669
42431W        W 3852   2.906   8.775   4.145
42432W        W 3853  22.190  17.184  13.429
42433W        W 3854  21.090  20.035   1.304
42434W        W 3855  31.542   9.692   0.811
42435W        W 3856  36.979  12.764  14.956
42436W        W 3857  10.259  20.137   2.360
42437W        W 3858  22.098  40.531  12.465
42438W        W 3859  32.947  20.540   4.181
42439W        W 3860  24.173   3.351  12.531
42440W        W 3861  39.409  23.218   0.309
42441W        W 3862   6.261  34.445   0.247
42442W        W 3863  36.415  15.624   4.608
42443W        W 3864  14.674  44.924  13.801
42444W        W 3865  41.001  11.354   9.526
42445W        W 3866  35.918  28.128  14.294
42446W        W 3867  43.975  31.110   3.239
42447W        W 3868  40.055  15.707  11.893
42448W        W 3869  31.548  13.700  14.922
42449W        W 3870  34.981  31.959  10.107
42450W        W 3871  32.964  14.791   3.174
42451W        W 3872  35.911   3.741   3.160
42452W        W 3873   1.852  31.402  12.570
42453W        W 3874  42.386  36.844  10.962
42454W        W 3875  43.003   1.470  14.358
42455W        W 3876  14.323  23.112  12.082
42456W        W 3877  24.689  19.613  11.997
42457W        W 3878  26.016  15.235   0.758
42458W        W 3879  17.131  37.971   4.690
42459W        W 3880   4.742  29.110   4.135
42460W        W 3881  14.299  43.355   0.376
42461W        W 3882  34.089  26.494   0.397
42462W        W 3883   0.756  25.988   4.155
42463W        W 3884  29.521  43.310  12.430
42464W        W 3885  16.090  33.015  13.508
42465W        W 3886  19.096  22.201  11.909
42466W        W 3887  25.108  28.507   0.314
42467W        W 3888  40.502  12.252   5.319
42468W        W 3889  42.905  38.854   0.253
42469W        W 3890  34.981  23.161   0.959
42470W        W 3891  29.012   8.749   1.744
42471W        W 3892   6.389   0.965   4.817
42472W        W 3893  10.706  33.954  10.559
42473W        W 3894  38.036   7.401  11.519
42474W        W 3895  11.281  11.302  11.007
42475W        W 3896  11.211   6.350   2.737
42476W        W 3897  14.645  19.587  13.463
42477W        W 3898  34.377  24.524  12.469
42478W        W 3899   8.403  43.371   0.740
42479W        W 3900   6.677   5.251  10.521
42480W        W 3901   2.384  34.887  12.058
42481W        W 3902   1.834  34.488  11.129
42482W        W 3903  25.153  31.406  11.058
42483W        W 3904  33.388   1.895   2.800
42484W        W 3905   7.905  31.136  12.504
42485W        W 3906  26.078  24.090   2.750
42486W        W 3907  11.313  33.459  12.504
42487W        W 3908  22.560  16.145   4.653
42488W        W 3909  43.947  12.850   1.862
42489W        W 3910  10.785  42.004   1.718
42490W        W 3911  14.738  26.592   2.363
42491W        W 3912  31.122  38.471   3.340
42492W        W 3913  38.348  35.878  11.406
42493W        W 3914  12.159  12.324   3.219
42494W        W 3915  40.327  21.148   4.755
42495W        W 3916  21.567  26.148   0.942
42496W        W 3917  24.501  19.675   2.395
42497W        W 3918  24.615   5.228   5.609
42498W        W 3919  18.060  31.512  11.127
42499W        W 3920  32.945  16.797   2.776
42500W        W 3921   8.174  26.534  11.065
42501W        W 3922  33.616  21.099  13.376
42502W        W 3923  15.753  43.446  12.080
42503W        W 3924   1.875  34.467  12.473
42504W        W 3925  10.767   7.185   3.371
42505W        W 3926  15.161  44.923  12.435
42506W        W 3927  42.950  12.237   4.293
42507W        W 3928  37.938  40.810  13.932
42508W        W 3929  30.560   9.700   1.761
42509W        W 3930   9.718   7.729   3.802
42510W        W 3931  11.725  16.257   4.833
42511W        W 3932  31.434  33.905  12.872
42512W        W 3933  33.000  23.702  10.638
42513W        W 3934  29.012   1.322  13.946
42514W        W 3935  19.247   4.785  14.932
42515W        W 3936  16.790   9.256  11.066
42516W        W 3937  42.809  40.455   1.339
42517W        W 3938  34.907   2.226   2.259
42518W        W 3939  29.164  18.125  11.100
42519W        W 3940  44.490   9.322   1.252
42520W        W 3941  42.840  17.766   3.329
42521W        W 3942  14.684  36.000  14.945
42522W        W 3943   5.877  40.405  10.594
42523W        W 3944  14.311  19.161  11.502
42524W        W 3945   6.695  39.504  13.355
42525W        W 3946  36.006  16.623   0.862
42526W        W 3947  30.157  29.132  14.503
42527W        W 3948  14.810   5.414   0.322
42528W        W 3949  41.318  18.277  10.930
42529W        W 3950   6.826  42.431  11.467
42530W        W 3951  16.137  12.829   4.620
42531W        W 3952   0.261  41.985   1.897
42532W        W 3953  21.142  26.469   5.230
42533W        W 3954   5.406   9.154  11.448
42534W        W 3955  39.974  14.602  12.509
42535W        W 3956  16.284  27.672  12.833
42536W        W 3957   3.955  35.384  14.930
42537W        W 3958   7.843   1.972   3.344
42538W        W 3959  13.253  35.103   1.778
42539W        W 3960  38.898  23.090   4.213
42540W        W 3961  14.273  44.436  11.607
42541W        W 3962  30.629  30.924   0.434
42542W        W 3963   6.778  44.401  14.009
42543W        W 3964  32.946   4.819  14.282
42544W        W 3965  17.295   5.788  13.345
42545W        W 3966  23.190  29.931   3.319
42546W        W 3967  20.175  35.556  14.946
42547W        W 3968  42.968  37.882   4.737
42548W        W 3969  14.760  41.489   9.926
42549W        W 3970  32.992  26.596   3.721
42550W        W 3971  40.319  13.194  14.472
42551W        W 3972  38.971  41.793   0.256
42552W        W 3973   8.212  13.720   4.349
42553W        W 3974  15.318  29.945   1.301
42554W        W 3975  27.511  20.097   2.227
42555W        W 3976  24.510  39.911   2.190
42556W        W 3977  11.786  42.908  12.910
42557W        W 3978  41.399  42.971   4.664
42558W        W 3979  36.029  31.962   1.361
42559W        W 3980  34.950  25.188   0.418
42560W        W 3981  36.068  23.026   4.684
42561W        W 3982  15.648  26.052  12.090
42562W        W 3983  23.232  17.124  14.784
42563W        W 3984  36.515  13.186  11.951
42564W        W 3985  42.402  16.113   3.230
42565W        W 3986  32.927  37.878  12.916
42566W        W 3987  17.604  40.971   4.752
42567W        W 3988  42.284  20.222   3.750
42568W        W 3989  43.461  12.164  10.569
42569W        W 3990  32.053  22.182   2.346
42570W        W 3991  12.758  39.018   3.857
42571W        W 3992   8.264  11.365  12.521
42572W        W 3993  27.117  30.069   1.764
42573W        W 3994  26.499  14.203  14.860
42574W        W 3995  13.202  15.185  12.979
42575W        W 3996  43.462  24.194   9.967
42576W        W 3997  24.210   4.718   1.784
42577W        W 3998  30.081   2.918  14.003
42578W        W 3999  42.913   0.876   4.350
42579W        W 4000   5.850   0.988   3.225
42580W        W 4001  24.139  11.626  11.105
42581W        W 4002  23.622  17.586   0.447
42582W        W 4003   8.779   9.689   2.856
42583W        W 4004  44.850  29.092  11.053
42584W        W 4005  34.463  26.466   3.362
42585W        W 4006  24.035  32.524  13.857
42586W        W 4007  15.279  42.387   3.369
42587W        W 4008  41.820  24.618   3.674
42588W        W 4009  14.597   4.817   2.184
42589W        W 4010   1.301   9.686   1.807
42590W        W 4011   6.793  24.216   1.249
42591W        W 4012   4.890  20.660  14.429
42592W        W 4013  15.789   6.780  14.873
42593W        W 4014   3.378   2.938  14.474
42594W        W 4015  10.678  21.102  10.450
42595W        W 4016  27.061  31.509  10.496
42596W        W 4017  40.048   7.768  12.046
42597W        W 4018  20.579  21.515  12.417
42598W        W 4019   5.286  20.576  12.346
42599W        W 4020   6.773  27.447   1.795
42600W        W 4021   1.861  30.480  13.912
42601W        W 4022  32.103  35.364   4.637
42602W        W 4023  40.987  23.215  14.944
42603W        W 4024  33.073   0.380   2.333
42604W        W 4025  12.749  40.825  11.987
42605W        W 4026  25.975   6.741  13.367
42606W        W 4027   0.408  17.111  12.354
42607W        W 4028  17.646   4.801  11.372
42608W        W 4029   6.696   1.363  12.030
42609W        W 4030   7.790  22.614   1.360
42610W        W 4031  30.470  14.095  13.331
42611W        W 4032  31.127  19.079  10.910
42612W        W 4033  44.265  28.164   1.909
42613W        W 4034  12.247  21.709  11.526
42614W        W 4035  40.491  11.343  14.780
42615W        W 4036   6.201  42.027  12.992
42616W        W 4037  41.504  19.273  12.412
42617W        W 4038  42.881  44.838   2.665
42618W        W 4039  18.128  24.221  12.001
42619W        W 4040  35.024  25.584   2.334
42620W        W 4041  16.598  17.307   0.728
42621W        W 4042  25.058  18.753  11.030
42622W        W 4043  41.309  39.554  13.829
42623W        W 4044   6.215  15.167   3.764
42624W        W 4045  18.632  11.333   4.672
42625W        W 4046  42.022  27.950   4.270
42626W        W 4047   7.783  24.531  10.970
42627W        W 4048  42.326  10.727   1.277
42628W        W 4049   0.970  26.645  14.994
42629W        W 4050  13.148   6.404   4.798
42630W        W 4051  36.041  19.262   4.342
42631W        W 4052   5.719  20.734  14.422
42632W        W 4053  43.013  27.536  12.531
42633W        W 4054  30.911  38.850   3.187
42634W        W 4055  36.947  33.446   3.774
42635W        W 4056  26.074  11.837   3.827
42636W        W 4057  28.149  31.041  13.363
42637W        W 4058  38.429  17.152   1.797
42638W        W 4059   9.379  30.500   0.841
42639W        W 4060  29.440  38.911   1.306
42640W        W 4061  37.501  21.187   4.231
42641W        W 4062  42.481  24.704  14.478
42642W        W 4063  36.882  36.050  13.364
42643W        W 4064   4.416  14.331  11.860
42644W        W 4065  24.580  22.240   2.814
42645W        W 4066   6.415  13.208  14.398
42646W        W 4067  39.063  40.405  14.968
42647W        W 4068  36.427  18.663  12.031
42648W        W 4069   4.242  11.689  14.492
42649W        W 4070  19.091  39.968   0.328
42650W        W 4071  34.048  42.488  11.943
42651W        W 4072  17.791  12.769   1.838
42652W        W 4073  36.894  31.146  12.454
42653W        W 4074  39.826  15.239  10.584
42654W        W 4075  35.419  23.532   1.744
42655W        W 4076  17.598  43.410  11.018
42656W        W 4077   1.954  21.232  12.376
42657W        W 4078   3.770  10.768  14.955
42658W        W 4079   3.357  20.264   4.351
42659W        W 4080  32.928  29.017   2.344
42660W        W 4081  14.137  40.797   2.691
42661W        W 4082  30.080  14.620  14.354
42662W        W 4083  22.164  24.688   1.825
42663W        W 4084  18.055  39.362  12.554
42664W        W 4085  18.261  36.428  13.483
42665W        W 4086  22.010  41.794   1.439
42666W        W 4087  16.651  32.992  13.840
42667W        W 4088  34.877  33.914  11.925
42668W        W 4089  27.110  20.721  12.443
42669W        W 4090  43.849   0.976   3.254
42670W        W 4091  28.525   0.428   3.814
42671W        W 4092  25.205  17.681  10.535
42672W        W 4093  42.966  40.316   0.383
42673W        W 4094  29.615  15.644  13.806
42674W        W 4095   2.365  43.981   1.739
42675W        W 4096   8.355  11.733  13.020
42676W        W 4097  40.931  18.659   3.648
42677W        W 4098  25.599  19.575  10.104
42678W        W 4099  37.876  40.304  10.483
42679W        W 4100  11.200   1.746  10.574
42680W        W 4101  24.076  21.712   0.827
42681W        W 4102  29.038  33.588   0.765
42682W        W 4103  39.024  35.585  14.990
42683W        W 4104  11.349  43.338  13.843
42684W        W 4105  25.169  29.628  14.801
42685W        W 4106   8.295  38.853   2.707
42686W        W 4107  44.284  24.690  14.513
42687W        W 4108  38.869   6.398   3.164
42688W        W 4109  42.309  13.278   4.827
42689W        W 4110   5.348  23.102   2.859
42690W        W 4111  25.194   5.365  11.121
42691W        W 4112   8.204  18.766  10.626
42692W        W 4113  38.366  25.131  10.931
42693W        W 4114  27.524  16.118  12.026
42694W        W 4115  43.786  28.092  10.616
42695W        W 4116  26.098  19.143   3.733
42696W        W 4117  44.963  39.828  10.617
42697W        W 4118  42.894  36.961  14.868
42698W        W 4119  23.661   6.207   9.668
42699W        W 4120  32.011   5.863   1.293
42700W        W 4121  35.946  13.291  12.397
42701W        W 4122   4.364   9.699   3.742
42702W        W 4123  29.139   4.773  13.792
42703W        W 4124  25.968   9.825  11.894
42704W        W 4125  13.646  34.952  10.572
42705W        W 4126  24.144   5.404  13.063
42706W        W 4127   2.836  16.794   3.638
42707W        W 4128   0.768   3.292   2.220
42708W        W 4129  44.270   9.809   3.213
42709W        W 4130   0.915  32.600   3.753
42710W        W 4131  20.229  40.016  14.427
42711W        W 4132   8.848  43.847   2.398
42712W        W 4133  25.535  37.056  10.889
42713W        W 4134  40.458  12.355   4.190
42714W        W 4135  17.573  12.341  14.814
42715W        W 4136  18.672  16.261  12.448
42716W        W 4137  37.444  44.841   1.782
42717W        W 4138   5.249  21.083  10.419
42718W        W 4139  37.074   1.887   9.924
42719W        W 4140  44.334  43.302  12.566
42720W        W 4141   4.768  14.749   2.817
42721W        W 4142   5.911   3.903  13.005
42722W        W 4143  33.010  40.373  11.411
42723W        W 4144  14.198  25.497   0.391
42724W        W 4145  19.740  30.908   3.695
42725W        W 4146  34.945  27.983  14.899
42726W        W 4147  27.552  12.334  12.869
42727W        W 4148  38.932   9.252  11.972
42728W        W 4149  19.764  26.566   2.727
42729W        W 4150   9.702  30.540  10.602
42730W        W 4151  13.741   3.792  14.481
42731W        W 4152  37.502  11.152  11.551
42732W        W 4153   4.209  43.448  12.383
42733W        W 4154  28.525  36.093   1.883
42734W        W 4155   8.213   8.666   4.283
42735W        W 4156  15.734   5.197  11.088
42736W        W 4157  22.678  25.172   0.406
42737W        W 4158  40.876  44.359  14.919
42738W        W 4159  39.405  18.256  13.856
42739W        W 4160  41.043  42.416  10.602
42740W        W 4161  16.760  30.436  13.927
42741W        W 4162   9.167  37.006  12.837
42742W        W 4163  29.919   2.294  14.285
42743W        W 4164  39.533   0.924  14.277
42744W        W 4165  39.009  23.734  14.835
42745W        W 4166  29.642  27.954   4.651
42746W        W 4167  17.772  44.883  10.626
42747W        W 4168  23.180  21.551   0.263
42748W        W 4169   5.415   3.741   3.305
42749W        W 4170  32.914  11.293  14.300
42750W        W 4171   6.718   8.284   3.794
42751W        W 4172   5.859  15.165  13.459
42752W        W 4173  26.688  16.292   2.286
42753W        W 4174  22.109  38.827   2.898
42754W        W 4175  43.441  25.690   3.752
42755W        W 4176  35.399   5.211  13.482
42756W        W 4177  22.568  28.958  11.542
42757W        W 4178   1.395  43.873   4.728
42758W        W 4179   1.408  12.763  11.391
42759W        W 4180  17.295  16.786   0.384
42760W        W 4181   8.660   4.247   0.912
42761W        W 4182  27.971  26.025   4.237
42762W        W 4183  10.193  29.625  13.514
42763W        W 4184  21.031  15.266   2.404
42764W        W 4185   4.890  24.110   4.120
42765W        W 4186   6.391  29.980   1.704
42766W        W 4187  16.147   3.354  11.079
42767W        W 4188  31.931   7.204   3.689
42768W        W 4189  29.604  18.257   4.330
42769W        W 4190  17.089   8.748  14.331
42770W        W 4191  12.156  38.348  13.865
42771W        W 4192   2.448  39.970  13.813
42772W        W 4193  25.533  37.028  12.430
42773W        W 4194  20.666   5.722  14.294
42774W        W 4195  17.561   5.711   3.706
42775W        W 4196  22.744   1.815   0.381
42776W        W 4197  17.227  34.528   3.804
42777W        W 4198  12.211   0.300  11.549
42778W        W 4199   8.742  22.559   1.352
42779W        W 4200  22.061  35.454   3.857
42780W        W 4201  32.885  14.701   1.702
42781W        W 4202  38.899  23.071  12.014
42782W        W 4203  21.746  26.511   1.851
42783W        W 4204  37.889  11.201   0.312
42784W        W 4205   5.292  24.018   0.811
42785W        W 4206  37.927  28.163  10.999
42786W        W 4207  42.892   7.245   0.432
42787W        W 4208  20.240  12.746  14.326
42788W        W 4209  19.670   7.864   3.356
42789W        W 4210  29.467   3.749   3.385
42790W        W 4211  11.827   3.711   4.281
42791W        W 4212  22.026  17.232   0.763
42792W        W 4213   2.790  39.404  11.562
42793W        W 4214  38.008  25.038  13.938
42794W        W 4215  26.590  13.810   0.366
42795W        W 4216  38.381  27.979   0.458
42796W        W 4217  30.501  12.233  11.512
42797W        W 4218   5.808  43.379  12.940
42798W        W 4219  33.006  26.173   3.757
42799W        W 4220  31.402  44.463  14.906
42800W        W 4221  33.023  33.506  14.396
42801W        W 4222  41.826  18.074  10.608
42802W        W 4223  39.813  12.167  11.102
42803W        W 4224  19.576  35.913  12.503
42804W        W 4225  25.537   0.363   2.240
42805W        W 4226  38.899  19.656   3.178
42806W        W 4227  10.149   8.749   5.205
42807W        W 4228  17.739   5.268  14.947
42808W        W 4229   4.896  33.891  12.359
42809W        W 4230  12.777   5.267   0.964
42810W        W 4231  37.555  31.970   3.865
42811W        W 4232  25.109  13.609  13.308
42812W        W 4233  17.144  32.032  14.312
42813W        W 4234   3.304   1.775   3.280
42814W        W 4235  30.446  30.056  13.392
42815W        W 4236  10.210   6.393  12.095
42816W        W 4237  33.925  43.413  14.909
42817W        W 4238  24.501  38.538  14.448
42818W        W 4239   1.386   0.345  14.373
42819W        W 4240  17.151   5.866  10.408
42820W        W 4241   6.264  21.567   3.241
42821W        W 4242  42.873  32.012  14.338
42822W        W 4243  12.681  10.780   3.333
42823W        W 4244  18.767  29.053   4.754
42824W        W 4245  25.591   1.461  14.353
42825W        W 4246  44.261  14.833   1.877
42826W        W 4247  39.315   9.156   2.768
42827W        W 4248  42.842  43.513   0.954
42828W        W 4249   7.312  17.708  12.843
42829W        W 4250  25.655  42.396  12.351
42830W        W 4251  40.395   3.254   0.863
42831W        W 4252  27.992  31.975   1.295
42832W        W 4253  33.566  18.670  11.063
42833W        W 4254  11.778  26.582  14.375
42834W        W 4255  19.151  44.981   2.734
42835W        W 4256  14.296  16.665   1.311
42836W        W 4257  23.568  33.067   2.406
42837W        W 4258  11.697  40.375  12.093
42838W        W 4259  11.702  12.222  12.088
42839W        W 4260  29.143  28.499  11.493
42840W        W 4261  35.929  13.641  14.907
42841W        W 4262  41.031   1.860  13.937
42842W        W 4263  30.639  37.575  13.350
42843W        W 4264  32.888  42.810   2.195
42844W        W 4265  34.087  41.995   0.962
42845W        W 4266  30.008  24.993   1.331
42846W        W 4267  44.381  10.268  14.793
42847W        W 4268   6.868   4.286  13.512
42848W        W 4269   2.287  34.382   2.731
42849W        W 4270  39.400   3.400   1.279
42850W        W 4271  10.152   0.757  13.310
42851W        W 4272  21.052   7.264   1.232
42852W        W 4273  31.534  42.281  14.021
42853W        W 4274  35.601  41.357   3.378
42854W        W 4275  36.857  38.355   2.846
42855W        W 4276  36.049  24.984   2.849
42856W        W 4277  38.072  19.150  14.494
42857W        W 4278  20.746  13.214  11.867
42858W        W 4279  37.078   1.406   3.767
42859W        W 4280  32.981  13.794   2.879
42860W        W 4281  25.659   4.937   9.624
42861W        W 4282  19.771   2.459   2.685
42862W        W 4283   6.690  29.953  10.942
42863W        W 4284  26.617  27.113   3.661
42864W        W 4285  21.227   3.237  14.916
42865W        W 4286  10.827   4.388  11.491
42866W        W 4287   8.208  37.848  13.912
42867W        W 4288   8.850   3.905   1.788
42868W        W 4289  34.988  10.211  12.549
42869W        W 4290  32.637  39.034  10.962
42870W        W 4291  36.978  44.870  13.883
42871W        W 4292  19.753  24.999   0.272
42872W        W 4293   3.880   3.895   2.722
42873W        W 4294  24.207  16.123   4.779
42874W        W 4295  12.291  33.567   1.843
42875W        W 4296  30.511  21.167  12.568
42876W        W 4297  40.995   8.896  14.356
42877W        W 4298  28.055  44.873  12.428
42878W        W 4299  14.825  12.748  13.915
42879W        W 4300  19.723  37.413   1.854
42880W        W 4301   9.166  20.096   4.220
42881W        W 4302  35.057  23.042  11.458
42882W        W 4303  11.868  22.533   2.881
42883W        W 4304  36.073  44.439   0.873
42884W        W 4305   0.491   8.837   1.270
42885W        W 4306   7.883  12.333  14.449
42886W        W 4307  38.865   8.872  10.924
42887W        W 4308  40.040  33.016  11.507
42888W        W 4309  14.106  31.642   3.787
42889W        W 4310  22.650  11.328  14.326
42890W        W 4311   9.298  19.726  11.948
42891W        W 4312  42.507  18.763  12.365
42892W        W 4313  16.653   8.710   1.846
42893W        W 4314  21.223  30.552  11.441
42894W        W 4315  33.427  35.941  14.452
42895W        W 4316  19.642   4.262   4.775
42896W        W 4317  37.864  14.105  13.812
42897W        W 4318   0.248   6.801   0.827
42898W        W 4319  14.769  11.199  14.341
42899W        W 4320  44.011  11.795  11.106
42900W        W 4321  26.537  35.928   0.404
42901W        W 4322  35.103  34.552   0.956
42902W        W 4323  15.233  38.056   2.796
42903W        W 4324  10.791  35.474   4.119
42904W        W 4325  42.527  37.038  11.944
42905W        W 4326  27.993  43.931  12.526
42906W        W 4327  19.754   5.301  13.797
42907W        W 4328  33.606  39.053  11.378
42908W        W 4329  20.182  33.049   3.864
42909W        W 4330   1.292   1.373   1.796
42910W        W 4331  33.601   6.354  12.006
42911W        W 4332  22.570  33.514   2.376
42912W        W 4333  44.326  34.043   1.795
42913W        W 4334  12.345  26.074   3.320
42914W        W 4335  41.033  25.682  12.464
42915W        W 4336   4.205  22.142  14.828
42916W        W 4337   0.819  33.437  12.557
42917W        W 4338  35.859  37.927  13.508
42918W        W 4339  13.253   0.908   3.232
42919W        W 4340  41.954   1.867  12.063
42920W        W 4341   9.849  39.018  11.889
42921W        W 4342  40.362  21.233  10.448
42922W        W 4343  14.204  33.480  14.487
42923W        W 4344  23.217  40.015   1.432
42924W        W 4345  15.274  29.062  10.901
42925W        W 4346  13.140   4.810  11.030
42926W        W 4347  29.592  15.792   2.680
42927W        W 4348  27.561  23.036  13.030
42928W        W 4349  18.082   7.789   2.732
42929W        W 4350  26.565  18.597  14.305
42930W        W 4351  33.440  29.951  12.862
42931W        W 4352  36.420  28.670  10.416
42932W        W 4353  27.581  34.975  10.512
42933W        W 4354  41.449  22.743   3.249
42934W        W 4355  17.177  42.369   0.797
42935W        W 4356   5.225  34.526   4.172
42936W        W 4357  10.181  24.145   0.823
42937W        W 4358  36.463  37.072   0.359
42938W        W 4359  17.673  29.027  12.494
42939W        W 4360  35.872  32.452  13.851
42940W        W 4361   9.799  33.582   1.244
42941W        W 4362  33.079  31.041  12.035
42942W        W 4363  27.594   4.228  11.073
42943W        W 4364  14.260  26.031  11.488
42944W        W 4365  14.664  25.213   3.846
42945W        W 4366   2.856  28.440   0.332
42946W        W 4367  23.676  42.789  12.973
42947W        W 4368  21.123  43.771   0.900
42948W        W 4369   3.781  13.148  11.447
42949W        W 4370   0.895  28.632  13.963
42950W        W 4371  19.683  34.061   3.150
42951W        W 4372  43.319  27.005  12.993
42952W        W 4373  29.005  17.624   1.286
42953W        W 4374  26.499  27.942  10.890
42954W        W 4375   5.359  33.422   2.701
42955W        W 4376   4.821  40.403  12.918
42956W        W 4377  33.549  29.055  11.372
42957W        W 4378  14.680  12.339   1.241
42958W        W 4379   2.957  16.194  11.566
42959W        W 4380   3.399  41.334   0.823
42960W        W 4381  22.525  30.506  10.456
42961W        W 4382  22.672  19.774   0.940
42962W        W 4383  12.357  30.487   0.247
42963W        W 4384  12.657  35.470  11.956
42964W        W 4385   5.747  21.119  11.976
42965W        W 4386  28.574  18.091   1.228
42966W        W 4387  20.124  25.101  11.124
42967W        W 4388  29.587  35.361  12.367
42968W        W 4389  37.550  24.689  10.410
42969W        W 4390  42.473  12.356  10.612
42970W        W 4391  39.935  38.329  10.967
42971W        W 4392  28.160  34.071  14.360
42972W        W 4393  35.369   5.295  10.468
42973W        W 4394  24.563  13.777   2.323
42974W        W 4395   0.258  34.397   4.673
42975W        W 4396  32.424  43.867   1.445
42976W        W 4397   9.388  14.212   2.305
42977W        W 4398   9.786   8.778  10.602
42978W        W 4399   4.714  11.158   0.267
42979W        W 4400  35.400  43.479  11.051
42980W        W 4401  28.594  37.850  12.558
42981W        W 4402  32.544   5.823   0.324
42982W        W 4403  32.479  19.732   0.829
42983W        W 4404  37.859  34.518   3.342
42984W        W 4405  30.582   8.698  10.928
42985W        W 4406  33.895  15.649   3.179
42986W        W 4407  18.602  29.476   2.709
42987W        W 4408  32.612  31.480   0.878
42988W        W 4409   7.329  27.953   2.759
42989W        W 4410  43.284  29.464   4.667
42990W        W 4411  24.078  27.160   0.444
42991W        W 4412  37.575  20.708   1.354
42992W        W 4413  33.620   7.835  13.840
42993W        W 4414  28.553  20.143   3.319
42994W        W 4415  12.728  28.580   4.810
42995W        W 4416   1.479  30.915  12.989
42996W        W 4417  34.053  21.739   3.386
42997W        W 4418  13.833  23.677  13.399
42998W        W 4419  24.184  10.255   2.319
42999W        W 4420  19.581   3.903   2.184
43000W        W 4421  15.693  14.193  12.086
43001W        W 4422  19.191  42.918   1.806
43002W        W 4423   7.238   4.804   4.670
43003W        W 4424  18.185   2.745   3.823
43004W        W 4425  14.633   4.395  12.549
43005W        W 4426  16.247   4.418   4.659
43006W        W 4427  23.558  23.681   3.290
43007W        W 4428  43.455  40.901   2.206
43008W        W 4429   2.373  21.237   1.388
43009W        W 4430  30.108  10.286   3.266
43010W        W 4431  31.098  10.676   5.243
43011W        W 4432   4.297  28.059   3.752
43012W        W 4433  14.627  35.933  12.528
43013W        W 4434  42.371  27.601  11.097
43014W        W 4435   8.732  30.000   3.215
43015W        W 4436  26.469  35.886   4.724
43016W        W 4437  29.136   2.802  12.927
43017W        W 4438   6.916  17.088   0.840
43018W        W 4439  26.955  41.017   3.697
43019W        W 4440  31.086  10.318   4.177
43020W        W 4441  28.461  15.271  11.521
43021W        W 4442  44.336  25.087   4.809
43022W        W 4443  26.514  14.728   4.766
43023W        W 4444  32.480  11.804   4.235
43024W        W 4445  20.142  15.589   2.697
43025W        W 4446  44.768   4.705   1.231
43026W        W 4447  18.638  17.645  10.463
43027W        W 4448  21.151   7.822  13.376
43028W        W 4449  11.268  20.214  12.854
43029W        W 4450  28.147   3.752  11.437
43030W        W 4451  37.052  24.560  10.936
43031W        W 4452  36.021  34.930  14.274
43032W        W 4453  18.122  29.163   1.739
43033W        W 4454  26.511   2.332  14.506
43034W        W 4455  22.166  31.128   4.742
43035W        W 4456   9.702  30.931  11.120
43036W        W 4457  14.129  21.066   5.263
43037W        W 4458  16.100  30.971   0.961
43038W        W 4459  14.772  42.473   1.399
43039W        W 4460  10.238  37.469  11.383
43040W        W 4461   2.377  44.794  13.376
43041W        W 4462   4.727  23.124  11.498
43042W        W 4463  39.546  23.563   4.600
43043W        W 4464  39.556  10.333  12.015
43044W        W 4465  21.148  15.655  14.295
43045W        W 4466  16.652  10.378   5.196
43046W        W 4467  18.276  23.492  11.460
43047W        W 4468  39.447  38.861   0.298
43048W        W 4469  40.812  11.202   1.258
43049W        W 4470  22.124   0.904  11.398
43050W        W 4471   1.937  23.576   3.844
43051W        W 4472  38.432   5.925   2.297
43052W        W 4473  22.533  18.635  11.513
43053W        W 4474   5.234  29.077  10.521
43054W        W 4475  22.021  38.559  12.997
43055W        W 4476  31.918   4.277  12.045
43056W        W 4477  41.429  11.764  11.514
43057W        W 4478  13.116  30.549  14.287
43058W        W 4479  14.235  23.557   4.613
43059W        W 4480  29.019  35.998  14.872
43060W        W 4481  43.911  38.521  12.452
43061W        W 4482  21.709  11.208  14.886
43062W        W 4483  15.708  29.603   3.813
43063W        W 4484  23.063   4.821   1.701
43064W        W 4485  43.436  10.260  11.961
43065W        W 4486  36.969  28.934   2.404
43066W        W 4487  25.530  39.953   1.336
43067W        W 4488  24.165  37.979   3.258
43068W        W 4489  32.952  34.543   4.264
43069W        W 4490   2.256  17.283  14.925
43070W        W 4491  10.205   8.890  13.494
43071W        W 4492   0.965  18.080   4.143
43072W        W 4493  12.178   4.914   4.192
43073W        W 4494  34.013  24.094   4.277
43074W        W 4495  29.619   0.758  11.411
43075W        W 4496  35.969  27.045   4.146
43076W        W 4497  36.474  43.924   0.942
43077W        W 4498  43.786  18.141   0.292
43078W        W 4499  44.810   7.710  14.450
43079W        W 4500   2.876  33.921  14.380
43080W        W 4501  20.193  41.405   1.744
43081W        W 4502  22.735  17.698   2.708
43082W        W 4503  34.981  38.536   4.644
43083W        W 4504  34.903  23.541   3.750
43084W        W 4505  22.223   7.818   0.957
43085W        W 4506  39.332  38.561  14.500
43086W        W 4507  35.404  18.647  11.611
43087W        W 4508  41.339  25.574   4.273
43088W        W 4509  10.182  38.493   2.359
43089W        W 4510  18.698  19.121   3.207
43090W        W 4511  32.461   6.893   3.847
43091W        W 4512  33.129   5.399   2.844
43092W        W 4513  37.366  44.959  11.444
43093W        W 4514  17.204  28.952  10.039
43094W        W 4515  26.538  36.542  11.418
43095W        W 4516   0.924  41.039   1.793
43096W        W 4517  25.488   6.424  12.080
43097W        W 4518  38.436  34.579   2.385
43098W        W 4519   6.701  15.632   3.740
43099W        W 4520  21.662   4.814  12.017
43100W        W 4521   9.709  26.035   4.812
43101W        W 4522  16.093   9.858  12.879
43102W        W 4523  19.058  33.544   3.180
43103W        W 4524  30.001  11.151  10.129
43104W        W 4525  27.090  19.775   2.373
43105W        W 4526  35.542  33.545   1.906
43106W        W 4527  20.063  35.414   3.869
43107W        W 4528  26.025  14.143   1.822
43108W        W 4529  44.957  26.608  12.390
43109W        W 4530  35.428   0.799  14.475
43110W        W 4531  41.973  36.567   0.289
43111W        W 4532  39.828  27.975  11.118
43112W        W 4533  38.895  30.101   1.903
43113W        W 4534  11.827  38.905   2.419
43114W        W 4535  22.583   7.274  11.980
43115W        W 4536  33.944  14.622  11.545
43116W        W 4537  38.390   1.263  13.009
43117W        W 4538  34.521  20.046   1.827
43118W        W 4539   2.737  33.959  14.908
43119W        W 4540   3.285  42.386   4.181
43120W        W 4541  31.945   9.290  14.012
43121W        W 4542  10.210  27.029  11.452
43122W        W 4543  44.761  22.662  12.858
43123W        W 4544   5.360  25.503  14.959
43124W        W 4545  41.991  10.278   4.684
43125W        W 4546   5.346  14.105  14.505
43126W        W 4547  13.669  38.887   1.817
43127W        W 4548  18.621  22.130  13.487
43128W        W 4549  10.870  25.565   4.164
43129W        W 4550  34.382  18.735  10.996
43130W        W 4551   5.415  20.700  11.591
43131W        W 4552  33.564  44.989  12.059
43132W        W 4553   4.710  28.990   1.832
43133W        W 4554  26.590  28.049   1.431
43134W        W 4555   4.372  20.581   4.676
43135W        W 4556  23.554   9.886   1.706
43136W        W 4557   4.749  21.046   1.829
43137W        W 4558  43.463  43.784  14.355
43138W        W 4559  14.181  38.543   0.413
43139W        W 4560   2.428  32.124  12.893
43140W        W 4561   9.697   8.673  11.509
43141W        W 4562  18.122  43.015  11.393
43142W        W 4563  16.312   7.230  11.027
43143W        W 4564  24.510   7.395  13.992
43144W        W 4565  18.159   0.957  10.891
43145W        W 4566  14.108  33.433  11.919
43146W        W 4567  10.665  27.646   2.764
43147W        W 4568  12.277  12.646   2.846
43148W        W 4569   9.744  27.486   2.320
43149W        W 4570  14.631   4.429   1.895
43150W        W 4571  15.109  20.752  13.308
43151W        W 4572  27.973  20.639  12.887
43152W        W 4573   8.701  15.751  11.464
43153W        W 4574  23.600  31.030   3.722
43154W        W 4575  24.982  35.936  13.931
43155W        W 4576  36.881   4.395   3.336
43156W        W 4577  25.496  14.273   5.132
43157W        W 4578  11.193  21.157  13.896
43158W        W 4579   9.855  40.894  11.558
43159W        W 4580   3.274  30.129   4.295
43160W        W 4581  24.180  16.717  13.936
43161W        W 4582  18.782   7.336  12.051
43162W        W 4583  35.474  17.609   0.811
43163W        W 4584  39.858  43.903   3.775
43164W        W 4585  24.563   9.261  13.332
43165W        W 4586  41.005  36.558  14.932
43166W        W 4587  30.604  33.511  12.087
43167W        W 4588  12.780  24.149   3.350
43168W        W 4589  14.291  29.982  14.507
43169W        W 4590  13.844  34.409   4.143
43170W        W 4591  13.114  39.360  11.512
43171W        W 4592  10.225  10.258  11.518
43172W        W 4593  27.167  16.730  13.329
43173W        W 4594   8.318  40.847   3.326
43174W        W 4595  35.456  32.999   0.866
43175W        W 4596  40.449  18.114   2.237
43176W        W 4597   1.318  18.771   0.958
43177W        W 4598   1.871  13.350   4.646
43178W        W 4599  27.963  21.693   3.155
43179W        W 4600  11.792  31.052  14.810
43180W        W 4601  28.087  29.629   3.333
43181W        W 4602  31.538  42.006  11.481
43182W        W 4603   5.245  31.459   2.865
43183W        W 4604  40.533  32.566  11.475
43184W        W 4605  33.015   3.405   3.227
43185W        W 4606  37.459  29.172  11.514
43186W        W 4607  33.412   0.779   4.131
43187W        W 4608   6.699  22.553   0.934
43188W        W 4609  30.561  30.617   0.933
43189W        W 4610  23.689   8.831  12.964
43190W        W 4611  23.684  22.998  12.553
43191W        W 4612  32.495  36.058   3.310
43192W        W 4613  11.637  24.695   2.419
43193W        W 4614   8.776   3.946  12.062
43194W        W 4615  23.646  42.824   0.258
43195W        W 4616  43.913  37.544  10.934
43196W        W 4617   7.875  28.627   2.380
43197W        W 4618  32.102  25.117  13.359
43198W        W 4619  22.628  25.651   3.637
43199W        W 4620  19.176  18.244  10.425
43200W        W 4621  18.623  38.494   4.730
43201W        W 4622  10.771  15.770  10.903
43202W        W 4623  28.017   2.952  13.431
43203W        W 4624   8.209  32.139  10.978
43204W        W 4625  10.633  10.811  13.368
43205W        W 4626  40.976  11.234  14.331
43206W        W 4627  13.272  13.650   3.741
43207W        W 4628  29.625   7.248  10.979
43208W        W 4629   3.430   0.815  14.456
43209W        W 4630   7.401  26.701   1.309
43210W        W 4631  36.500  23.490  14.295
43211W        W 4632  16.138  41.031   2.209
43212W        W 4633  15.610   4.393   1.858
43213W        W 4634  12.357  39.924  11.572
43214W        W 4635   8.828  19.266  11.039
43215W        W 4636  16.091  33.614  11.926
43216W        W 4637  11.206  34.470   3.797
43217W        W 4638  29.509  25.472   1.384
43218W        W 4639  34.464  40.548  14.501
43219W        W 4640   9.704  34.603   1.420
43220W        W 4641  33.587  35.386  12.521
43221W        W 4642  26.979  21.223   2.286
43222W        W 4643  25.217  33.471   4.615
43223W        W 4644  33.062   7.842  12.054
43224W        W 4645  38.965  16.767   0.748
43225W        W 4646  20.223  37.336   9.968
43226W        W 4647  19.059  20.234  14.503
43227W        W 4648  12.691  12.133  13.364
43228W        W 4649   1.265   9.176  13.830
43229W        W 4650   6.284  10.643   2.229
43230W        W 4651   8.162   6.699  13.454
43231W        W 4652   6.856  34.905  13.857
43232W        W 4653  23.660  12.683  11.510
43233W        W 4654   2.237   8.760   1.895
43234W        W 4655  16.175  44.360   3.743
43235W        W 4656  32.598  40.878  12.997
43236W        W 4657  28.153  12.245  10.936
43237W        W 4658  40.984   2.947  13.402
43238W        W 4659  39.056  43.793  10.484
43239W        W 4660  28.589  13.716  10.159
43240W        W 4661  19.599  24.998   4.287
43241W        W 4662  40.538  41.533   0.907
43242W        W 4663  22.034  27.685  11.946
43243W        W 4664  13.839  22.184   1.433
43244W        W 4665  34.455  10.232  14.346
43245W        W 4666   5.341  10.361  12.870
43246W        W 4667  41.884  42.003  14.981
43247W        W 4668  31.937  21.194  10.436
43248W        W 4669  28.609  32.140   0.836
43249W        W 4670  35.502  35.971  10.970
43250W        W 4671  42.907  13.188  10.028
43251W        W 4672   0.799  19.684   1.716
43252W        W 4673  16.271  15.818   0.919
43253W        W 4674  24.490  19.053   3.376
43254W        W 4675  37.417  10.875  14.006
43255W        W 4676  27.160   1.288   0.397
43256W        W 4677  43.828  27.094   4.121
43257W        W 4678  40.901  17.639   4.677
43258W        W 4679   5.768   6.788  14.907
43259W        W 4680  12.283  25.677   3.855
43260W        W 4681  43.292   1.432   4.686
43261W        W 4682  28.621  17.779   2.758
43262W        W 4683  22.103   1.919  13.471
43263W        W 4684  17.091  31.046  13.031
43264W        W 4685  37.904  42.477   2.858
43265W        W 4686  19.769  39.458  12.047
43266W        W 4687  28.514  40.843   1.715
43267W        W 4688  13.149   5.322  11.556
43268W        W 4689   8.779  20.590   0.737
43269W        W 4690  29.140   6.736  13.017
43270W        W 4691  34.536  18.579   1.376
43271W        W 4692  28.129   5.745   2.822
43272W        W 4693  17.668   7.264   2.412
43273W        W 4694  43.932   7.847   1.709
43274W        W 4695  36.917  39.006   4.632
43275W        W 4696  14.720  31.000  13.852
43276W        W 4697  19.583  11.276   5.166
43277W        W 4698  43.986   6.365  13.387
43278W        W 4699  15.746  19.162  14.328
43279W        W 4700  34.442  24.645   4.740
43280W        W 4701   0.349  39.440   3.663
43281W        W 4702   9.689  23.184   4.179
43282W        W 4703  39.324   8.370  14.353
43283W        W 4704   8.394   3.857   4.650
43284W        W 4705   2.851  10.702  11.971
43285W        W 4706  30.025  12.279   0.276
43286W        W 4707  31.080  42.287   2.817
43287W        W 4708  24.151   1.734  12.421
43288W        W 4709  21.176  14.183  12.831
43289W        W 4710  44.439  41.854  10.406
43290W        W 4711   7.773  37.389   2.828
43291W        W 4712  33.010  41.520   1.792
43292W        W 4713  10.264  32.520   1.378
43293W        W 4714   9.696  15.691   1.342
43294W        W 4715  14.129  14.743  11.058
43295W        W 4716  13.734   3.453  13.513
43296W        W 4717  29.492   1.963   4.259
43297W        W 4718  22.703   5.850  14.295
43298W        W 4719  32.919  38.543  13.894
43299W        W 4720   5.752   1.451   1.736
43300W        W 4721  35.427  19.241   0.750
43301W        W 4722  32.982  20.683  14.328
43302W        W 4723  30.149   8.843   0.305
43303W        W 4724  14.277  38.942  12.937
43304W        W 4725  33.957   1.329  10.947
43305W        W 4726  39.484  24.681   0.850
43306W        W 4727  12.192  13.653   0.933
43307W        W 4728   0.331   0.328   2.386
43308W        W 4729  37.943  23.693  12.403
43309W        W 4730  42.955  43.447   3.830
43310W        W 4731  29.496  25.665   2.715
43311W        W 4732  19.218  38.406   0.458
43312W        W 4733  15.665  14.334   1.718
43313W        W 4734  15.732  42.780   4.237
43314W        W 4735   2.945  14.222  12.936
43315W        W 4736  35.524  32.926  11.947
43316W        W 4737  16.257  44.439   1.279
43317W        W 4738   7.819  15.607  10.487
43318W        W 4739  11.861  22.582  14.500
43319W        W 4740  15.790  26.527  12.399
43320W        W 4741  33.551   7.385  13.951
43321W        W 4742  40.945  28.146  13.909
43322W        W 4743  21.546  37.046  11.068
43323W        W 4744  32.497  30.616   2.394
43324W        W 4745  29.452  19.685   4.824
43325W        W 4746  14.158  23.649  13.937
43326W        W 4747  10.142  13.741  10.988
43327W        W 4748  41.366   4.884  11.443
43328W        W 4749   5.387   5.293   3.290
43329W        W 4750  36.581  16.168  12.884
43330W        W 4751   8.315  42.344  13.416
43331W        W 4752  14.215  34.979  10.095
43332W        W 4753  16.209  10.819   3.254
43333W        W 4754  18.719  21.159   0.830
43334W        W 4755  14.222   6.701  13.401
43335W        W 4756  26.569  32.544  14.011
43336W        W 4757  29.087   4.803  12.346
43337W        W 4758  30.479  22.676   1.399
43338W        W 4759   2.798  41.931  12.506
43339W        W 4760  24.146  17.792  12.070
43340W        W 4761   7.349  27.530  10.996
43341W        W 4762  29.488  43.979   0.460
43342W        W 4763  12.355  42.956  11.477
43343W        W 4764   7.358  40.803   4.647
43344W        W 4765  17.649  11.142   2.324
43345W        W 4766  11.149   1.261  11.881
43346W        W 4767   6.727  29.153  10.994
43347W        W 4768  10.636  40.037  14.986
43348W        W 4769  32.018  43.278  12.439
43349W        W 4770  32.134  20.638   2.385
43350W        W 4771  23.165  38.962  12.369
43351W        W 4772   2.301  20.709  13.939
43352W        W 4773   7.365  19.704  14.994
43353W        W 4774  37.516  28.099   0.288
43354W        W 4775  17.150  19.735   2.269
43355W        W 4776   5.361   8.865   0.329
43356W        W 4777   6.871  44.448   4.728
43357W        W 4778  22.685  12.353  12.477
43358W        W 4779  44.793   5.354  14.453
43359W        W 4780  41.942  19.620  10.109
43360W        W 4781  26.986  22.658  14.434
43361W        W 4782   6.323  38.409  14.841
43362W        W 4783  23.083  25.549  14.811
43363W        W 4784  16.767   1.957  14.346
43364W        W 4785   0.348   2.382  13.448
43365W        W 4786  41.901  29.552   1.435
43366W        W 4787   9.196   5.908  10.539
43367W        W 4788   4.794  28.109  13.478
43368W        W 4789  32.943   1.401   3.719
43369W        W 4790  15.115  11.310  13.958
43370W        W 4791  28.051  37.439  11.436
43371W        W 4792  26.590   0.745  11.946
43372W        W 4793  19.557  19.679  10.541
43373W        W 4794  44.003  31.594  10.905
43374W        W 4795  24.118  21.539  13.004
43375W        W 4796   8.299  31.488   2.781
43376W        W 4797  27.575   3.281   0.323
43377W        W 4798  23.108  14.700  11.948
43378W        W 4799   2.317  22.013   4.164
43379W        W 4800  22.627  34.939  13.503
43380W        W 4801   6.311   5.387   2.871
43381W        W 4802  40.914   8.326  10.892
43382W        W 4803  22.162   1.751   1.895
43383W        W 4804   1.795  44.346   1.290
43384W        W 4805   4.837  44.475  11.601
43385W        W 4806  35.085   5.860  13.895
43386W        W 4807  23.162  19.178   0.903
43387W        W 4808  28.679  42.924  11.459
43388W        W 4809  41.016  40.838  13.942
43389W        W 4810   1.845  15.623   4.269
43390W        W 4811  30.491   2.324  14.999
43391W        W 4812  21.072  34.379  10.414
43392W        W 4813  21.155  26.102  13.342
43393W        W 4814  34.577   4.281   3.793
43394W        W 4815  41.367  16.168  14.938
43395W        W 4816   2.245  22.178   0.867
43396W        W 4817  22.232  15.786  11.996
43397W        W 4818  27.460  24.168   1.395
43398W        W 4819   6.302  23.121   0.935
43399W        W 4820   8.890  12.219  12.868
43400W        W 4821   7.258   8.853  13.801
43401W        W 4822  34.063  12.704   3.700
43402W        W 4823  39.328  12.806  10.010
43403W        W 4824   4.448  23.493   1.859
43404W        W 4825  23.992  35.056  14.796
43405W        W 4826   2.785  21.172   0.395
43406W        W 4827  33.526   4.214  13.844
43407W        W 4828  22.157  12.342  13.895
43408W        W 4829  39.910  19.076   3.188
43409W        W 4830   8.264  35.919   3.681
43410W        W 4831  41.462  20.598  10.508
43411W        W 4832   0.775  34.489   1.750
43412W        W 4833  31.402  37.043  14.941
43413W        W 4834  10.194   8.796   3.243
43414W        W 4835  29.454  43.979   1.771
43415W        W 4836  41.010  25.174  10.923
43416W        W 4837  28.981  18.784   0.266
43417W        W 4838  32.454  15.235  12.519
43418W        W 4839   9.241  40.891   1.286
43419W        W 4840   1.915   0.366   3.676
43420W        W 4841  25.473   1.809   4.785
43421W        W 4842  25.144   2.265  11.961
43422W        W 4843  18.265  36.396  11.552
43423W        W 4844  34.029  20.073   2.199
43424W        W 4845  22.714   8.773   4.733
43425W        W 4846  40.380   6.210  13.357
43426W        W 4847  31.094  30.488   1.863
43427W        W 4848  37.343  23.091   3.758
43428W        W 4849   6.189  12.830   9.973
43429W        W 4850  39.335  24.145  12.921
43430W        W 4851   5.741  37.484   1.899
43431W        W 4852  20.686  25.532  12.399
43432W        W 4853  34.035   3.351   0.391
43433W        W 4854   5.221  30.080  12.843
43434W        W 4855  21.221   1.264   3.817
43435W        W 4856  10.837   5.891  14.846
43436W        W 4857   9.831  10.801  13.903
43437W        W 4858  35.924  23.545  13.428
43438W        W 4859   9.301   2.902  12.575
43439W        W 4860  41.876  12.173   0.456
43440W        W 4861   1.442   8.385   1.315
43441W        W 4862  16.080  11.261   3.145
43442W        W 4863  38.942  10.336  11.483
43443W        W 4864  30.139  18.155   1.353
43444W        W 4865  20.041  30.094  14.877
43445W        W 4866   7.215  30.549   4.624
43446W        W 4867  17.792  35.876  11.948
43447W        W 4868   9.881  34.401  11.585
43448W        W 4869  44.475  40.431  14.345
43449W        W 4870  25.624   3.883   1.369
43450W        W 4871  18.228   7.224  13.383
43451W        W 4872  26.525   2.792  13.465
43452W        W 4873  32.917  34.877  11.053
43453W        W 4874  42.445  33.091  11.923
43454W        W 4875  29.602  15.307  13.968
43455W        W 4876  16.104  15.798  12.455
43456W        W 4877  24.128  36.519  14.877
43457W        W 4878  34.453  18.596   4.210
43458W        W 4879  19.694  20.741   0.936
43459W        W 4880   9.169  26.653   0.782
43460W        W 4881  25.653  32.599  14.351
43461W        W 4882  16.784  23.600   0.850
43462W        W 4883   3.807   3.848   1.224
43463W        W 4884  37.518  31.931  10.935
43464W        W 4885  26.514  29.049   2.866
43465W        W 4886  42.404  40.480   4.639
43466W        W 4887   4.422  37.530  13.883
43467W        W 4888  28.133   0.262   4.332
43468W        W 4889  20.685  38.350  11.050
43469W        W 4890  13.702  44.778   0.837
43470W        W 4891  39.951  27.974   4.198
43471W        W 4892   8.844  12.669   0.774
43472W        W 4893   1.260  41.533   2.401
43473W        W 4894   9.731   9.340   1.356
43474W        W 4895   6.207  16.311   0.736
43475W        W 4896   6.733   0.328   4.612
43476W        W 4897  13.839  11.166   2.281
43477W        W 4898  37.497  22.163   0.399
43478W        W 4899  23.200   7.273   0.283
43479W        W 4900  41.401  14.145  14.476
43480W        W 4901  26.579  37.477   0.873
43481W        W 4902   1.893  23.994  13.496
43482W        W 4903  18.109  18.686   0.375
43483W        W 4904   0.976  12.844   1.277
43484W        W 4905  25.642  12.273  14.455
43485W        W 4906  33.936  18.255   0.450
43486W        W 4907  25.557  23.111   1.340
43487W        W 4908  39.000  37.061  10.086
43488W        W 4909  12.118  24.589  11.923
43489W        W 4910  32.922  19.661   2.364
43490W        W 4911  38.063  29.093   0.356
43491W        W 4912  16.775  11.127   0.249
43492W        W 4913  14.100  37.887   2.204
43493W        W 4914  42.810  31.026  11.460
43494W        W 4915  20.114  33.978  13.469
43495W        W 4916   3.925  32.393   3.688
43496W        W 4917  38.971   6.899   1.785
43497W        W 4918  31.120  21.247  10.612
43498W        W 4919  19.645  41.537  11.993
43499W        W 4920  42.932  27.988   1.326
43500W        W 4921   1.477  36.945  13.862
43501W        W 4922  36.430   0.954  12.008
43502W        W 4923   1.355  37.063  11.090
43503W        W 4924  42.349   1.896  12.475
43504W        W 4925  44.783  20.584  10.979
43505W        W 4926  42.027  21.179   2.854
43506W        W 4927  25.974   7.829  12.956
43507W        W 4928  32.541  26.983   4.674
43508W        W 4929   1.954  44.466   3.158
43509W        W 4930  19.665  15.225   3.228
43510W        W 4931  23.570  26.186   4.135
43511W        W 4932   9.285  43.435   4.274
43512W        W 4933   5.296  42.518   4.132
43513W        W 4934   0.410   9.322  11.920
43514W        W 4935  22.192   8.358  13.475
43515W        W 4936  43.775  29.135  11.987
43516W        W 4937  25.563   6.786   4.114
43517W        W 4938  22.211  19.076   0.849
43518W        W 4939  24.090  36.494  10.564
43519W        W 4940  44.809  34.943   3.771
43520W        W 4941  36.064  10.841  12.061
43521W        W 4942   1.347   9.818   0.477
43522W        W 4943  32.952  40.933   1.290
43523W        W 4944  28.168   2.322   4.685
43524W        W 4945  30.584  33.047   2.416
43525W        W 4946  44.380  39.024   2.331
43526W        W 4947   7.367   1.975  14.406
43527W        W 4948   5.307  30.473   1.897
43528W        W 4949  20.570   8.735   3.367
43529W        W 4950   3.762  16.296  12.462
43530W        W 4951  32.088   0.344  13.959
43531W        W 4952  33.538  26.175  10.537
43532W        W 4953  24.507  26.987  12.888
43533W        W 4954   3.217  39.520   3.763
43534W        W 4955  24.531   3.258   2.890
43535W        W 4956  43.495   6.228  10.609
43536W        W 4957  17.280  10.349   1.807
43537W        W 4958   2.953  35.405   3.308
43538W        W 4959   4.404  36.007  12.466
43539W        W 4960   1.389  42.434   0.374
43540W        W 4961  29.537  13.617   4.626
43541W        W 4962  42.946  12.306  14.288
43542W        W 4963   9.150  33.122  14.815
43543W        W 4964  35.507   7.796  14.405
43544W        W 4965   3.287  24.073  13.043
43545W        W 4966   9.373   2.308  13.933
43546W        W 4967  19.570  29.475   4.124
43547W        W 4968  10.803   6.912   3.708
43548W        W 4969  17.658  34.983  13.466
43549W        W 4970  21.718  12.240   1.850
43550W        W 4971  26.951  39.491  13.827
43551W        W 4972  12.660  30.938  11.983
43552W        W 4973  41.374  22.623   4.629
43553W        W 4974  23.179   1.333   2.706
43554W        W 4975  18.580  13.675  13.988
43555W        W 4976  33.889  23.679   1.381
43556W        W 4977  21.738  11.675   4.741
43557W        W 4978  10.841  17.125   2.852
43558W        W 4979  11.165  40.466   9.673
43559W        W 4980  40.011  22.211   4.727
43560W        W 4981  12.752   1.417   0.914
43561W        W 4982   3.460   5.741  10.016
43562W        W 4983  36.033  18.150  11.947
43563W        W 4984  40.883   3.919   4.682
43564W        W 4985  13.690  30.114   5.136
43565W        W 4986   9.644  31.960  10.986
43566W        W 4987   7.749   4.817  12.390
43567W        W 4988  43.892  37.377   0.846
43568W        W 4989  13.752  40.018  13.825
43569W        W 4990   6.817  16.812   1.858
43570W        W 4991  30.557  34.931   1.346
43571W        W 4992  24.504  25.493   1.779
43572W        W 4993  20.211  31.030  13.309
43573W        W 4994  27.975  10.328   0.953
43574W        W 4995  27.139   5.373  13.021
43575W        W 4996   7.800  44.313  12.537
43576W        W 4997  13.128  30.415   4.305
43577W        W 4998  35.541  17.286   1.377
43578W        W 4999   4.761   0.464  10.544
43579W        W 5000  29.462   7.669   1.927
43580W        W 5001  36.467   1.755  14.956
43581W        W 5002   1.862  31.433   4.249
43582W        W 5003  35.981  10.862  14.304
43583W        W 5004  17.623   6.862   4.678
43584W        W 5005  26.479   0.829  13.425
43585W        W 5006  35.411  34.957  14.867
43586W        W 5007  20.655  20.743  13.348
43587W        W 5008  35.510  29.594   1.808
43588W        W 5009  32.912   3.921  10.618
43589W        W 5010  32.002  18.137   2.389
43590W        W 5011   7.889  29.056   0.481
43591W        W 5012  21.039  43.812  13.896
43592W        W 5013   9.728  27.006   1.214
43593W        W 5014  31.119  26.655   3.283
43594W        W 5015  15.784  40.524  11.904
43595W        W 5016  13.713  28.624   3.805
43596W        W 5017  22.168  28.681  10.567
43597W        W 5018  21.173  27.064  11.910
43598W        W 5019  43.469  21.128  13.350
43599W        W 5020  31.017  14.235   1.395
43600W        W 5021  40.926   9.165   4.820
43601W        W 5022   3.342  19.629  12.972
43602W        W 5023   2.846  36.903  14.459
43603W        W 5024   2.892  40.888  12.411
43604W        W 5025   2.437  24.024   4.735
43605W        W 5026  20.138  14.738   2.385
43606W        W 5027  41.822  24.980  10.446
43607W        W 5028  42.876  32.618   4.749
43608W        W 5029   5.222   3.384  13.469
43609W        W 5030  44.915   4.914   2.807
43610W        W 5031   5.836  16.751  11.509
43611W        W 5032  36.349  38.947   1.840
43612W        W 5033  16.775  16.256  13.479
43613W        W 5034  22.086  36.877  10.476
43614W        W 5035  24.099  41.894  12.927
43615W        W 5036  40.539  40.044   2.391
43616W        W 5037   0.864   6.793   3.320
43617W        W 5038  41.848  32.943   2.839
43618W        W 5039   2.729  26.019  14.304
43619W        W 5040  14.213  26.478   1.253
43620W        W 5041  38.415  38.878   1.694
43621W        W 5042   4.747  16.793   4.116
43622W        W 5043  16.080  11.168   3.830
43623W        W 5044  36.846   0.379  10.577
43624W        W 5045  40.430  13.645   2.364
43625W        W 5046   6.774  15.294   3.854
43626W        W 5047   0.381  35.081   3.841
43627W        W 5048  35.100  37.392  14.765
43628W        W 5049  18.291  31.456   1.448
43629W        W 5050  32.050   3.859  11.102
43630W        W 5051  33.041  14.181   1.808
43631W        W 5052  42.994  32.105   2.283
43632W        W 5053  19.203  38.397   4.687
43633W        W 5054  35.430  36.367  10.493
43634W        W 5055  29.085  12.335   2.260
43635W        W 5056  37.060  24.122  11.952
43636W        W 5057  32.506  18.613   4.787
43637W        W 5058  36.068  39.444   3.269
43638W        W 5059  24.005   0.402  12.389
43639W        W 5060  44.881  14.598  12.485
43640W        W 5061  21.643  38.866   1.285
43641W        W 5062  23.539   0.924  12.886
43642W        W 5063  25.636   0.866   1.746
43643W        W 5064  29.502  41.864   3.869
43644W        W 5065   8.689  39.349   3.154
43645W        W 5066  20.554  34.974   3.239
43646W        W 5067  14.238  33.391   3.702
43647W        W 5068  17.695  44.485  10.589
43648W        W 5069   8.364  38.047  13.385
43649W        W 5070   2.466  37.968   0.880
43650W        W 5071   9.206  42.437  11.080
43651W        W 5072  30.558  38.498  11.973
43652W        W 5073  38.861  24.569  10.945
43653W        W 5074  37.005  16.714   4.139
43654W        W 5075  21.635   4.870   1.225
43655W        W 5076  27.553  24.188   0.318
43656W        W 5077  32.616  10.257   2.678
43657W        W 5078  27.528   0.750  12.427
43658W        W 5079  42.482   0.964  11.983
43659W        W 5080  19.763  33.476  10.524
43660W        W 5081  24.568  32.529   2.683
43661W        W 5082  40.840  11.683   1.257
43662W        W 5083  37.472  10.356  10.089
43663W        W 5084  17.258  43.505  11.609
43664W        W 5085  24.665  26.029   1.840
43665W        W 5086  35.935  35.070   3.750
43666W        W 5087  27.627  14.142  11.528
43667W        W 5088  12.856  14.641   0.374
43668W        W 5089  33.605  40.839  13.346
43669W        W 5090  31.517  36.056  14.826
43670W        W 5091  41.342   5.279   3.281
43671W        W 5092   1.953  24.686  11.533
43672W        W 5093   5.779  29.600  10.513
43673W        W 5094  33.094  13.267  13.427
43674W        W 5095  16.712   8.802  11.459
43675W        W 5096  24.145   6.357   5.762
43676W        W 5097  12.195  44.304  14.482
43677W        W 5098  24.212  14.182   3.680
43678W        W 5099  36.571   0.426  14.000
43679W        W 5100  19.191  32.102   0.431
43680W        W 5101   8.684  27.014  11.501
43681W        W 5102  36.354  41.426  12.521
43682W        W 5103  13.662  36.922   4.630
43683W        W 5104  31.613  13.602   2.704
43684W        W 5105  22.115  16.765  13.445
43685W        W 5106   2.355  37.043  11.486
43686W        W 5107  11.713  18.621   3.372
43687W        W 5108  24.110  34.078  13.983
43688W        W 5109  39.349  19.239  12.039
43689W        W 5110  41.321  10.193   0.420
43690W        W 5111  22.572  44.265  14.997
43691W        W 5112  11.162  38.380   4.338
43692W        W 5113  32.897  16.578   2.293
43693W        W 5114  34.050  35.005  12.861
43694W        W 5115  11.301  26.045  13.894
43695W        W 5116  24.217   9.865   1.854
43696W        W 5117  31.443  12.784  13.328
43697W        W 5118  25.974  10.834   1.915
43698W        W 5119   5.723   9.224  11.483
43699W        W 5120   9.665   3.439   2.850
43700W        W 5121  16.310  12.833  10.556
43701W        W 5122  19.283  25.148  11.053
43702W        W 5123  29.924  10.296  11.097
43703W        W 5124  11.750  20.120   4.650
43704W        W 5125  41.487   4.883  12.421
43705W        W 5126  26.125   1.456  14.281
43706W        W 5127  40.350  42.495  12.898
43707W        W 5128   9.656  37.853  14.497
43708W        W 5129  37.064  14.285   3.781
43709W        W 5130  44.504  17.136  12.862
43710W        W 5131  15.088  16.722   0.812
43711W        W 5132  15.248  29.981  11.109
43712W        W 5133   5.727  32.970  14.765
43713W        W 5134  24.138  19.226  10.910
43714W        W 5135  32.469  10.869   2.790
43715W        W 5136  17.252  28.140   0.892
43716W        W 5137  24.588  35.961  13.427
43717W        W 5138  33.449  25.208  13.960
43718W        W 5139  12.161  10.861  12.445
43719W        W 5140   1.845  41.984   3.654
43720W        W 5141  18.092  10.252  11.877
43721W        W 5142  32.142  17.612  11.510
43722W        W 5143  27.047  43.360   3.151
43723W        W 5144  21.674  22.206  11.086
43724W        W 5145  41.985   7.348  12.376
43725W        W 5146  38.828  28.670  10.982
43726W        W 5147  27.603  21.553   1.389
43727W        W 5148  17.657  32.089   5.200
43728W        W 5149   8.833   6.205  12.876
43729W        W 5150  10.158  32.438   0.298
43730W        W 5151  42.517  17.561   4.274
43731W        W 5152  35.424  43.778   4.732
43732W        W 5153   9.375  20.127  12.978
43733W        W 5154   3.416   9.152  11.497
43734W        W 5155  15.220  34.937   1.796
43735W        W 5156  27.166  38.561   4.620
43736W        W 5157  13.761  20.727  11.011
43737W        W 5158  26.485  34.443  12.380
43738W        W 5159  27.469   6.702   0.421
43739W        W 5160  13.223   9.279   4.750
43740W        W 5161  42.454  23.188  12.899
43741W        W 5162  19.230   6.268  11.090
43742W        W 5163  18.595  21.034  13.473
43743W        W 5164  40.539  15.704   2.668
43744W        W 5165  15.216  13.708   2.810
43745W        W 5166   2.912  21.119  10.925
43746W        W 5167  34.933  33.903  13.995
43747W        W 5168  31.137  33.518   0.437
43748W        W 5169  41.325  32.630  12.978
43749W        W 5170  43.510   5.829  13.358
43750W        W 5171   4.308  35.404   4.796
43751W        W 5172  30.617  27.611  12.963
43752W        W 5173  16.628  30.910  12.876
43753W        W 5174   3.794   2.828  14.998
43754W        W 5175  25.651  22.207  11.404
43755W        W 5176   8.189  20.206   1.752
43756W        W 5177  32.033  21.070   3.359
43757W        W 5178  43.352   3.249  12.461
43758W        W 5179  13.207  37.385  13.897
43759W        W 5180  38.478  40.835  11.964
43760W        W 5181  40.435  32.035   2.879
43761W        W 5182  30.096  26.088  14.778
43762W        W 5183  24.074  13.745  14.016
43763W        W 5184   2.309  38.059  13.807
43764W        W 5185  33.939  10.699   1.376
43765W        W 5186  43.296   9.811   1.826
43766W        W 5187  43.294  35.530  13.309
43767W        W 5188  40.454   8.810   3.858
43768W        W 5189  14.197  15.788  11.047
43769W        W 5190  19.733   2.442   3.865
43770W        W 5191  11.719  38.857  10.910
43771W        W 5192  24.199  36.495   2.267
43772W        W 5193  44.987  19.540  13.321
43773W        W 5194  12.320  32.465  12.502
43774W        W 5195  21.733  32.390   2.350
43775W        W 5196   4.799  27.130   0.947
43776W        W 5197  43.338  38.414  12.984
43777W        W 5198   6.874   6.403  13.519
43778W        W 5199  42.838   6.743   0.932
43779W        W 5200  24.590  12.205   2.412
43780W        W 5201  20.651  11.148  11.554
43781W        W 5202  21.240   6.920   4.148
43782W        W 5203   2.317  37.542   0.935
43783W        W 5204  33.613  22.227   3.820
43784W        W 5205  29.618  37.974  13.949
43785W        W 5206  19.602  22.193   0.809
43786W        W 5207  25.633  41.006  12.472
43787W        W 5208  14.609  11.652   0.820
43788W        W 5209  43.406  23.994   0.344
43789W        W 5210  37.409   4.855   5.173
43790W        W 5211  39.849  40.474  11.402
43791W        W 5212  29.066  35.015   1.437
43792W        W 5213  41.299  30.573   2.880
43793W        W 5214   1.850  34.025  11.016
43794W        W 5215  26.195  28.980  10.465
43795W        W 5216  12.806   3.827  11.535
43796W        W 5217  41.510  44.925  14.902
43797W        W 5218  41.396   9.394  14.418
43798W        W 5219  33.407  33.501  14.401
43799W        W 5220  23.157  40.329   3.378
43800W        W 5221  26.096  15.323  10.457
43801W        W 5222  20.746   3.744   0.252
43802W        W 5223  23.514   9.175  13.361
43803W        W 5224  28.642  36.446   4.640
43804W        W 5225  43.989   1.416   0.431
43805W        W 5226  33.013  37.942  11.864
43806W        W 5227   9.844  13.193   2.391
43807W        W 5228  21.740   9.678  13.368
43808W        W 5229  14.618  21.743  14.321
43809W        W 5230   7.181  10.328   3.146
43810W        W 5231   8.281  16.675  12.521
43811W        W 5232  37.339  20.064  11.520
43812W        W 5233  14.721  41.804   0.917
43813W        W 5234  22.646  21.544   4.209
43814W        W 5235   6.337  10.201  14.011
43815W        W 5236  43.964   9.213  11.042
43816W        W 5237  12.315   8.743  12.887
43817W        W 5238  23.660  14.590  11.859
43818W        W 5239  25.626  21.055   3.842
43819W        W 5240   8.734  17.299   5.301
43820W        W 5241  22.170  40.349   1.890
43821W        W 5242   7.195  42.512  12.541
43822W        W 5243  26.546  41.413  12.487
43823W        W 5244  35.563  15.180  14.508
43824W        W 5245  24.539  44.858   2.244
43825W        W 5246  38.370   8.657   3.731
43826W        W 5247  22.702   0.453  10.634
43827W        W 5248  26.993   8.376  13.326
43828W        W 5249   1.447  27.622   0.287
43829W        W 5250   7.776  13.732  13.376
43830W        W 5251  12.316  19.548  12.881
43831W        W 5252   6.313  33.624  13.919
43832W        W 5253   4.871  29.035   2.332
43833W        W 5254  26.543   8.208  14.511
43834W        W 5255   3.297  19.105  11.918
43835W        W 5256  12.314  30.152   2.674
43836W        W 5257  12.687   5.878   4.781
43837W        W 5258  23.108  39.317  10.413
43838W        W 5259   6.289   2.442  12.406
43839W        W 5260   1.246  21.626  11.441
43840W        W 5261  29.921  18.626  13.351
43841W        W 5262  21.094   5.293  14.285
43842W        W 5263  23.165  31.541  13.033
43843W        W 5264  41.319  30.001   0.466
43844W        W 5265  27.955  24.141   4.645
43845W        W 5266  15.677  22.070  10.918
43846W        W 5267  33.476  23.498   0.874
43847W        W 5268   2.963  20.747   4.688
43848W        W 5269  37.051  41.962  14.897
43849W        W 5270   4.311   6.872  14.938
43850W        W 5271  40.013  23.080  10.527
43851W        W 5272   6.805  22.126  13.398
43852W        W 5273  42.395  17.566   4.672
43853W        W 5274   7.864  17.220  12.020
43854W        W 5275   8.713   9.379   5.135
43855W        W 5276  25.530  42.326  14.326
43856W        W 5277  13.231  14.194   5.244
43857W        W 5278  14.668   9.788  11.864
43858W        W 5279  10.246  10.848   2.787
43859W        W 5280  34.527  11.303   1.772
43860W        W 5281  23.990  44.774   0.846
43861W        W 5282  20.191   5.216  14.369
43862W        W 5283  14.160   4.730  10.898
43863W        W 5284   4.250  37.002  14.942
43864W        W 5285  34.407  19.095  10.944
43865W        W 5286   6.731  20.714  14.385
43866W        W 5287   9.319   0.840   4.822
43867W        W 5288  33.021  27.502  14.328
43868W        W 5289  20.178  37.407   4.726
43869W        W 5290  15.235   6.380   4.620
43870W        W 5291  35.401   0.808  13.509
43871W        W 5292  28.104   6.279   4.263
43872W        W 5293   3.373  43.889  13.024
43873W        W 5294  27.510   0.443  14.004
43874W        W 5295  22.176  14.121   4.799
43875W        W 5296  23.577  29.078   3.710
43876W        W 5297  42.831  10.876   2.779
43877W        W 5298  26.619  22.107  13.391
43878W        W 5299  21.632   9.211  10.574
43879W        W 5300  30.426  40.006   2.849
43880W        W 5301  41.922   8.749  13.814
43881W        W 5302  34.934  33.985   4.622
43882W        W 5303  27.100  10.726  12.838
43883W        W 5304  40.461  38.416   2.689
43884W        W 5305  12.822  37.960   4.773
43885W        W 5306  43.845  28.052  13.875
43886W        W 5307  12.176  25.097  11.448
43887W        W 5308  34.078  23.999  12.999
43888W        W 5309   1.482  39.926  11.607
43889W        W 5310  16.693  32.547  14.364
43890W        W 5311   2.789  17.101   0.296
43891W        W 5312   0.332  20.141   1.701
43892W        W 5313   3.769  28.124  12.569
43893W        W 5314  15.168  27.994   2.207
43894W        W 5315  34.013  26.571  11.457
43895W        W 5316   5.741  31.544   4.186
43896W        W 5317   5.303  19.673   2.877
43897W        W 5318  31.626  27.465   2.723
43898W        W 5319  38.565  34.994  10.983
43899W        W 5320  22.170  42.925  12.957
43900W        W 5321  15.591  27.172  13.505
43901W        W 5322  37.899  39.916  12.090
43902W        W 5323  11.782  44.326  12.976
43903W        W 5324  15.101  42.906   4.259
43904W        W 5325  28.515   4.328  12.833
43905W        W 5326   7.868   8.294  13.002
43906W        W 5327  34.922  12.160  11.547
43907W        W 5328   8.224  37.566  12.867
43908W        W 5329   9.695   5.740   4.169
43909W        W 5330  19.721  41.888   3.239
43910W        W 5331  31.086  18.617  13.324
43911W        W 5332  26.463  14.096  11.095
43912W        W 5333  34.099   5.354  11.375
43913W        W 5334   3.731  43.316  12.878
43914W        W 5335   3.760  38.918  10.405
43915W        W 5336   9.244  44.990  12.939
43916W        W 5337  16.576  21.632   1.767
43917W        W 5338  37.900  22.059  10.600
43918W        W 5339  28.055  14.747  10.914
43919W        W 5340  16.590  39.859   4.641
43920W        W 5341  13.342   7.867   4.735
43921W        W 5342  37.565   5.389   4.724
43922W        W 5343  25.642  17.145   3.789
43923W        W 5344  36.502  39.946  10.527
43924W        W 5345  34.926  23.077   2.210
43925W        W 5346  34.579   4.266   0.481
43926W        W 5347  32.448  41.413  14.486
43927W        W 5348  25.044  40.959   4.165
43928W        W 5349  42.450  34.996  11.395
43929W        W 5350  44.782  19.081  10.900
43930W        W 5351  20.749  21.166  11.935
43931W        W 5352  25.575  43.799  13.324
43932W        W 5353  15.811   4.858  12.420
43933W        W 5354  32.930  16.215   3.307
43934W        W 5355   9.863   7.416  14.868
43935W        W 5356   9.723   5.275  13.866
43936W        W 5357  33.607  39.018  12.877
43937W        W 5358  37.903   9.699  11.612
43938W        W 5359  22.240  29.565   0.821
43939W        W 5360  41.516  11.813  13.533
43940W        W 5361   2.377   8.736   9.971
43941W        W 5362  28.100  12.806  13.384
43942W        W 5363  42.303  29.476  13.313
43943W        W 5364  39.913  41.945  10.467
43944W        W 5365  43.467  20.045  14.027
43945W        W 5366  37.071  28.149  12.905
43946W        W 5367  14.097  25.508   1.734
43947W        W 5368  36.466  15.609  13.506
43948W        W 5369  12.741   4.767   2.863
43949W        W 5370   7.802   7.345  11.904
43950W        W 5371  31.464  20.616  12.409
43951W        W 5372  29.571  41.423  13.003
43952W        W 5373  39.966   0.760  14.332
43953W        W 5374  18.677  39.438   4.248
43954W        W 5375  17.575  16.570  13.986
43955W        W 5376  39.964   7.363  13.984
43956W        W 5377  13.133   7.211  12.990
43957W        W 5378  26.065  17.074   2.367
43958W        W 5379  19.070   1.736   1.251
43959W        W 5380  34.985   3.349   2.867
43960W        W 5381  38.379  19.071  12.440
43961W        W 5382  13.808  31.935  13.061
43962W        W 5383  44.805  33.581  12.955
43963W        W 5384  33.016  29.139   3.301
43964W        W 5385  22.011   9.741  11.001
43965W        W 5386   0.465   9.329   0.734
43966W        W 5387  14.606  24.039   1.330
43967W        W 5388   2.255  39.914  12.828
43968W        W 5389  42.350  36.073   3.211
43969W        W 5390  35.434  15.587  13.455
43970W        W 5391   0.444  38.343  13.392
43971W        W 5392  26.512  15.165  14.947
43972W        W 5393  32.946  15.760  13.851
43973W        W 5394  43.943   7.270  13.368
43974W        W 5395   9.694  13.798  13.057
43975W        W 5396  29.514  15.272  13.471
43976W        W 5397  23.092  11.246   1.307
43977W        W 5398   6.293   1.912  12.459
43978W        W 5399  42.391  12.163  13.399
43979W        W 5400  34.063  13.647  13.395
43980W        W 5401  30.018  20.757   2.312
43981W        W 5402  17.122  14.747   9.534
43982W        W 5403  30.454  38.934  12.898
43983W        W 5404  18.638  35.992   3.289
43984W        W 5405  40.896  23.625  10.570
43985W        W 5406   9.343  28.485   0.964
43986W        W 5407  19.609  25.106  10.985
43987W        W 5408   3.850  16.780  14.349
43988W        W 5409  19.118   7.176  11.493
43989W        W 5410  22.566  14.775   4.625
43990W        W 5411  20.146  36.424  10.959
43991W        W 5412  33.991  11.781  13.373
43992W        W 5413  22.734   7.262  11.394
43993W        W 5414  34.599  16.203   4.320
43994W        W 5415  31.139  42.856   3.711
43995W        W 5416  15.154  21.075   4.171
43996W        W 5417   1.755  10.171   2.242
43997W        W 5418  28.929  24.204   2.688
43998W        W 5419  21.153  42.387   4.759
43999W        W 5420   1.953  32.980   4.272
44000W        W 5421  39.995  23.580  11.907
44001W        W 5422  41.519  22.531  10.458
44002W        W 5423  26.685  22.551   1.306
44003W        W 5424  11.261  42.808   0.464
44004W        W 5425   8.729   5.780   1.816
44005W        W 5426   7.905  32.555  13.823
44006W        W 5427  42.443  43.812  10.593
44007W        W 5428   5.907  44.982   3.638
44008W        W 5429  26.563  35.526  14.445
44009W        W 5430  14.812  30.457   1.908
44010W        W 5431   6.753  15.672  11.897
44011W        W 5432  24.612  23.727   1.797
44012W        W 5433   4.925   6.268  14.855
44013W        W 5434  35.549  25.069  11.518
44014W        W 5435  34.463   4.439   4.153
44015W        W 5436  37.535  23.174  13.826
44016W        W 5437  25.979  17.277  14.787
44017W        W 5438  32.502  35.568   0.867
44018W        W 5439  25.624  26.161   4.642
44019W        W 5440  29.437  35.487  13.053
44020W        W 5441  24.161  42.871  13.508
44021W        W 5442  14.649   7.417   3.836
44022W        W 5443  19.196  24.628  11.415
44023W        W 5444  13.253  33.886   4.641
44024W        W 5445   3.736  23.670  10.638
44025W        W 5446  31.480  27.026  14.880
44026W        W 5447   1.318  11.137  13.466
44027W        W 5448  23.012   3.759  14.343
44028W        W 5449  34.435   3.440  14.424
44029W        W 5450  30.954  15.101  13.314
44030W        W 5451  29.014  43.418  10.529
44031W        W 5452  40.922   5.256  14.929
44032W        W 5453  12.762  44.343   0.772
44033W        W 5454  35.433   3.319  14.896
44034W        W 5455  31.133  11.161   3.777
44035W        W 5456  29.098  23.663   3.340
44036W        W 5457   7.727  15.697  10.915
44037W        W 5458  43.912  38.391   1.326
44038W        W 5459  44.894  17.760  11.892
44039W        W 5460  39.383  33.420   0.952
44040W        W 5461  35.479   4.787   0.272
44041W        W 5462  32.445  38.906   1.877
44042W        W 5463  42.986  35.100  12.532
44043W        W 5464  18.092  33.579  11.097
44044W        W 5465  17.236  22.632  13.512
44045W        W 5466  33.512  42.872  13.354
44046W        W 5467  22.654  29.575   1.355
44047W        W 5468  41.497  19.632   0.779
44048W        W 5469  25.972  38.903   4.214
44049W        W 5470   7.867  34.105   2.708
44050W        W 5471  12.753  13.352   4.673
44051W        W 5472   4.819  14.242  14.472
44052W        W 5473   5.744   3.772  11.995
44053W        W 5474  38.532  30.580   0.912
44054W        W 5475   9.209  44.483  10.894
44055W        W 5476   9.750  32.486  13.826
44056W        W 5477  28.531  11.253  14.325
44057W        W 5478  12.807  33.876   1.862
44058W        W 5479   0.823   7.874  14.322
44059W        W 5480  18.287  18.700   2.200
44060W        W 5481  23.134  44.489  14.404
44061W        W 5482   3.407   8.655   1.821
44062W        W 5483  33.959  42.380   4.224
44063W        W 5484   8.270  42.293  10.953
44064W        W 5485  25.180  13.603   4.329
44065W        W 5486  20.764  15.301  11.412
44066W        W 5487  22.247  14.797   2.337
44067W        W 5488  11.665  41.514  11.889
44068W        W 5489  25.069  15.700   4.269
44069W        W 5490  28.126  35.076  13.463
44070W        W 5491  34.967   5.343  11.504
44071W        W 5492   0.358  37.352  11.121
44072W        W 5493  11.203  10.151  13.844
44073W        W 5494  41.789   8.774   5.103
44074W        W 5495  19.090  32.555  13.326
44075W        W 5496  32.448  11.631   1.358
44076W        W 5497  36.990  20.103   3.815
44077W        W 5498  40.013  12.754  13.954
44078W        W 5499  38.545  27.470  11.017
44079W        W 5500  40.500  19.131   3.264
44080W        W 5501  23.216   0.981  10.951
44081W        W 5502  40.535  16.806   0.274
44082W        W 5503  42.299  18.195   0.892
44083W        W 5504  23.537  13.654  11.083
44084W        W 5505  19.614  21.139  13.505
44085W        W 5506   7.681  23.058  11.448
44086W        W 5507  40.875  20.573  12.512
44087W        W 5508  15.097   0.486   4.704
44088W        W 5509  24.625  33.467   3.854
44089W        W 5510  41.968  26.149   4.783
44090W        W 5511  21.105  21.170   4.658
44091W        W 5512  38.395  27.602   4.609
44092W        W 5513  13.747  42.776   2.730
44093W        W 5514  30.989  29.570  10.578
44094W        W 5515  31.538  27.659   2.187
44095W        W 5516  33.926  36.955  10.993
44096W        W 5517  13.221  32.471  10.519
44097W        W 5518  22.511  12.116   1.372
44098W        W 5519  14.795  17.128  12.483
44099W        W 5520   5.378  20.568   0.483
44100W        W 5521  19.574   9.757  11.977
44101W        W 5522  21.629  34.508   4.115
44102W        W 5523  36.856  34.473  13.504
44103W        W 5524  18.267  26.997  13.442
44104W        W 5525   4.797  17.229  12.095
44105W        W 5526   3.935  18.155   1.234
44106W        W 5527  33.938  18.071  13.338
44107W        W 5528  25.101  27.531   3.694
44108W        W 5529  30.594   9.712   3.742
44109W        W 5530   5.883  20.551  10.907
44110W        W 5531   9.874  14.191  13.798
44111W        W 5532   5.429  12.661  10.992
44112W        W 5533  12.244  19.590   3.157
44113W        W 5534  40.869  33.062   1.777
44114W        W 5535  42.360  26.642   1.437
44115W        W 5536   3.356  23.493  13.040
44116W        W 5537  36.018  31.479  12.422
44117W        W 5538  21.043   8.688   2.675
44118W        W 5539  27.949  12.691   0.304
44119W        W 5540  28.518  38.494   1.737
44120W        W 5541  18.562  25.677   0.455
44121W        W 5542  43.384  37.552  14.772
44122W        W 5543   9.369  30.570  13.816
44123W        W 5544  41.446  25.533  14.872
44124W        W 5545  13.117  23.619   1.751
44125W        W 5546   4.839  11.372  13.041
44126W        W 5547  35.399  28.082   2.796
44127W        W 5548   1.853  28.998   5.185
44128W        W 5549  33.907  39.959   1.814
44129W        W 5550  39.553   7.233  13.864
44130W        W 5551   1.967  22.714   2.770
44131W        W 5552  41.369  29.100   3.145
44132W        W 5553   1.354  31.921   2.830
44133W        W 5554   1.424  37.899   3.804
44134W        W 5555  15.112  10.677   1.928
44135W        W 5556  35.601  16.680  10.414
44136W        W 5557   3.358  14.621   2.674
44137W        W 5558  31.413  32.951  12.070
44138W        W 5559  36.504  38.944   0.831
44139W        W 5560  34.997  31.467   4.606
44140W        W 5561  26.155   8.394  13.398
44141W        W 5562  44.953  40.943  10.410
44142W        W 5563  23.579  28.648  12.892
44143W        W 5564  11.266  16.261   3.859
44144W        W 5565  17.610  25.068   2.223
44145W        W 5566  39.893  40.323  13.796
44146W        W 5567  36.917   3.284   2.269
44147W        W 5568  30.970  39.445  11.041
44148W        W 5569  10.228  36.485   3.785
44149W        W 5570   8.308  27.196   2.326
44150W        W 5571   2.378   2.397   3.205
44151W        W 5572  20.241   0.446  12.073
44152W        W 5573  37.452   1.848  11.471
44153W        W 5574   8.216  30.561   2.412
44154W        W 5575  42.371  17.608   0.894
44155W        W 5576  43.300  27.180   2.867
44156W        W 5577  17.253  23.996  12.080
44157W        W 5578  24.986  15.313  10.515
44158W        W 5579  11.146  31.982  12.090
44159W        W 5580  18.204  39.502  12.001
44160W        W 5581  27.595  41.926   2.690
44161W        W 5582  14.778  34.439   0.303
44162W        W 5583  24.539   6.286   1.224
44163W        W 5584  29.138  29.554  13.886
44164W        W 5585  32.612   4.346   2.179
44165W        W 5586  43.302  36.937  10.540
44166W        W 5587  18.113  36.995  13.876
44167W        W 5588  36.062  42.499   3.683
44168W        W 5589  42.930  36.561  10.474
44169W        W 5590   8.853  19.242   4.778
44170W        W 5591  27.194   3.722  13.398
44171W        W 5592  15.720  35.086   5.609
44172W        W 5593  39.850  34.974   1.211
44173W        W 5594  38.507  28.002   4.200
44174W        W 5595  40.391  34.382  14.946
44175W        W 5596  18.294  24.596  12.377
44176W        W 5597  10.317  23.648  11.086
44177W        W 5598  19.703  44.992  13.922
44178W        W 5599  20.551  14.208   2.786
44179W        W 5600  43.851  13.803  13.344
44180W        W 5601  37.340   0.904   1.346
44181W        W 5602  24.073  37.058   3.340
44182W        W 5603  41.917  10.193  12.406
44183W        W 5604   2.930  18.232  12.436
44184W        W 5605   3.223   2.763   2.662
44185W        W 5606  33.446  43.360   0.933
44186W        W 5607   0.373  38.326   3.153
44187W        W 5608  21.024  31.455   0.257
44188W        W 5609  29.036  30.138   3.172
44189W        W 5610   7.397   8.374   2.687
44190W        W 5611   1.864  25.182   3.755
44191W        W 5612  43.462  36.347   2.836
44192W        W 5613   8.390  24.064   3.804
44193W        W 5614  27.456  42.939  10.461
44194W        W 5615   6.831  12.661   1.415
44195W        W 5616  22.242  41.528  12.387
44196W        W 5617   8.780   2.261   3.668
44197W        W 5618  38.963   4.206   0.891
44198W        W 5619  24.182  40.994  12.882
44199W        W 5620  12.352  44.884  10.909
44200W        W 5621  26.547  43.947   0.896
44201W        W 5622  12.156   4.390  14.901
44202W        W 5623   5.915   8.682   2.295
44203W        W 5624  13.764  10.712   1.338
44204W        W 5625  13.809  18.221  14.866
44205W        W 5626  20.170  14.748  13.484
44206W        W 5627  33.009   3.764  14.830
44207W        W 5628  38.327  18.271  12.073
44208W        W 5629  12.745  21.654   1.352
44209W        W 5630   0.284  17.724  12.977
44210W        W 5631  44.977  17.297   3.338
44211W        W 5632  30.071  44.806   1.441
44212W        W 5633  29.114   1.780  11.104
44213W        W 5634  16.652  31.947   4.803
44214W        W 5635   4.865  35.395   3.735
44215W        W 5636  14.589  12.265  13.387
44216W        W 5637  35.079  30.656  12.422
44217W        W 5638   9.789   2.288  13.064
44218W        W 5639  41.841   2.236   1.234
44219W        W 5640  13.324  17.256  12.571
44220W        W 5641   0.785  36.482   1.305
44221W        W 5642  14.643   0.410   1.414
44222W        W 5643  25.478   3.822   2.704
44223W        W 5644  15.176  11.855   0.444
44224W        W 5645   9.318  23.648   3.241
44225W        W 5646  42.921  13.124  11.394
44226W        W 5647  17.190  11.235   9.982
44227W        W 5648  30.413  43.916   9.923
44228W        W 5649  22.096  17.303  12.969
44229W        W 5650  43.789  10.719   2.258
44230W        W 5651   7.820  23.714   4.732
44231W        W 5652  44.464  43.897  14.311
44232W        W 5653   9.860  20.116   1.711
44233W        W 5654  21.708   5.251  12.987
44234W        W 5655   6.879  11.248   0.731
44235W        W 5656  14.126  15.167   2.733
44236W        W 5657   5.420  17.725  11.026
44237W        W 5658  37.872  13.734   5.102
44238W        W 5659  41.478  33.032   1.424
44239W        W 5660  19.623  34.437  10.063
44240W        W 5661  17.709  42.282  10.617
44241W        W 5662  39.032  20.719   0.297
44242W        W 5663  23.993  43.503   0.814
44243W        W 5664   2.731  34.074  12.977
44244W        W 5665  24.702  41.518   1.333
44245W        W 5666   3.848  17.589  12.451
44246W        W 5667  24.560  27.072   1.243
44247W        W 5668  14.776  38.344  11.423
44248W        W 5669   3.790  26.182   2.208
44249W        W 5670  30.530  44.484  13.496
44250W        W 5671   3.718   0.911   4.610
44251W        W 5672   2.470  13.339  13.959
44252W        W 5673  15.754  31.613  14.366
44253W        W 5674   0.426  23.013  11.973
44254W        W 5675  28.566  19.685  14.388
44255W        W 5676  15.668   1.262  11.461
44256W        W 5677  14.102   7.406   0.756
44257W        W 5678  11.818   8.165  12.086
44258W        W 5679   7.395  11.728   3.806
44259W        W 5680   9.364   5.868   4.690
44260W        W 5681  28.090  34.953  11.987
44261W        W 5682  25.683   8.772   1.825
44262W        W 5683  40.859  21.206   4.256
44263W        W 5684  39.411  16.698   0.858
44264W        W 5685  18.663  22.697   5.297
44265W        W 5686  17.605  25.552  14.781
44266W        W 5687   1.340  10.316  14.334
44267W        W 5688  33.006  33.602   3.237
44268W        W 5689   8.326  27.972  11.474
44269W        W 5690  26.553   9.807  12.536
44270W        W 5691  36.484  32.128   2.753
44271W        W 5692  32.549  16.240   2.838
44272W        W 5693   0.950  30.419  13.487
44273W        W 5694  33.612   4.926   0.868
44274W        W 5695  18.081   2.730  11.933
44275W        W 5696  18.666  37.883   3.692
44276W        W 5697  26.632   0.791   4.698
44277W        W 5698  42.344  15.136   5.313
44278W        W 5699  31.063  18.260   3.758
44279W        W 5700  11.848   8.827  11.393
44280W        W 5701  34.046  14.738  14.390
44281W        W 5702  31.071   4.874  14.811
44282W        W 5703   0.980  34.489  10.998
44283W        W 5704  34.043  36.399  14.844
44284W        W 5705   4.284   2.230   0.310
44285W        W 5706  28.141  28.078   1.788
44286W        W 5707   2.312   2.463  13.471
44287W        W 5708  17.611  37.842   1.929
44288W        W 5709  35.413  14.624  14.473
44289W        W 5710  38.351   3.902  12.895
44290W        W 5711  22.624  32.001  11.394
44291W        W 5712  10.750  40.962   3.754
44292W        W 5713  13.157  31.540   1.700
44293W        W 5714   7.413  39.512  11.957
44294W        W 5715   0.817  23.655  12.044
44295W        W 5716  44.919  14.226   0.881
44296W        W 5717  20.639   1.749   2.799
44297W        W 5718   5.308  30.137   0.361
44298W        W 5719  25.567   5.896  10.561
44299W        W 5720  43.501  35.950  12.436
44300W        W 5721  17.616  20.531   2.856
44301W        W 5722  36.520  32.051   9.997
44302W        W 5723  26.680  13.727  14.949
44303W        W 5724  21.618   8.391   9.563
44304W        W 5725  44.910  11.795  10.912
44305W        W 5726  26.651  45.000   2.691
44306W        W 5727   6.335  22.516  12.505
44307W        W 5728  18.247   4.306   2.261
44308W        W 5729  24.082  34.028   0.796
44309W        W 5730  22.585  12.357   1.862
44310W        W 5731  39.944  17.662   0.427
44311W        W 5732  15.092  32.402   0.951
44312W        W 5733  36.391  37.075   3.825
44313W        W 5734  26.196  26.008   1.382
44314W        W 5735  14.743  20.603  12.440
44315W        W 5736   1.835  32.944  12.535
44316W        W 5737   8.187  38.970  13.033
44317W        W 5738  41.315  43.022  12.551
44318W        W 5739  38.570  27.619  13.925
44319W        W 5740  35.583   0.473   3.699
44320W        W 5741  41.035   3.925   1.750
44321W        W 5742  22.018  12.334   1.277
44322W        W 5743  17.746   6.184  12.892
44323W        W 5744   9.781   2.328   1.397
44324W        W 5745  38.001  14.624   1.242
44325W        W 5746  42.444   2.733   4.299
44326W        W 5747  20.078  35.477  12.976
44327W        W 5748   8.657  27.073   0.748
44328W        W 5749  27.057  15.202   2.808
44329W        W 5750  20.707  23.514  12.914
44330W        W 5751  36.397  41.341  12.890
44331W        W 5752   8.315  14.201   1.269
44332W        W 5753  10.835  30.073  14.965
44333W        W 5754  32.552   5.207   0.847
44334W        W 5755  15.087  15.162   2.822
44335W        W 5756  34.898  33.456  14.848
44336W        W 5757  13.700  23.691  12.562
44337W        W 5758  26.620   4.381   2.417
44338W        W 5759  15.663  35.894  11.089
44339W        W 5760  40.841   2.318   2.419
44340W        W 5761   9.212   8.659  13.360
44341W        W 5762   5.421  16.248   2.797
44342W        W 5763  41.836  11.867  11.070
44343W        W 5764  18.620  44.781  13.914
44344W        W 5765  19.539   2.877  14.017
44345W        W 5766  14.264  22.174  10.968
44346W        W 5767  28.660  21.525  14.388
44347W        W 5768  17.164  39.873  11.956
44348W        W 5769  42.933  35.439  13.466
44349W        W 5770   2.744  21.560   0.336
44350W        W 5771  20.695   1.944   1.279
44351W        W 5772  15.231  28.966  11.405
44352W        W 5773  19.777  13.688  10.973
44353W        W 5774  22.525  29.949   0.869
44354W        W 5775  26.498  41.894   2.761
44355W        W 5776  32.508  16.308   1.218
44356W        W 5777   1.251   1.743   3.820
44357W        W 5778  17.616   6.305  12.490
44358W        W 5779  21.036   6.312   3.260
44359W        W 5780  39.998  20.706   2.181
44360W        W 5781  11.645   9.691  12.946
44361W        W 5782   9.154  13.605  13.473
44362W        W 5783  18.244  16.268   3.811
44363W        W 5784  17.116  37.486  12.993
44364W        W 5785  20.727   8.351   0.932
44365W        W 5786  14.324   8.763  12.363
44366W        W 5787  35.448   5.329  12.072
44367W        W 5788  35.548  19.593  12.831
44368W        W 5789  33.603   9.336  11.554
44369W        W 5790  24.634   1.280   0.865
44370W        W 5791   3.419  26.539  12.372
44371W        W 5792  42.435  28.046  11.896
44372W        W 5793   7.286  14.780  12.534
44373W        W 5794  34.033  25.622   0.828
44374W        W 5795  16.206  13.752   4.810
44375W        W 5796  32.109   4.229  13.321
44376W        W 5797  41.325  12.803  12.454
44377W        W 5798   4.211  39.314  10.491
44378W        W 5799  37.008  15.183   1.246
44379W        W 5800   3.788   2.364  13.893
44380W        W 5801   5.270  11.136   2.267
44381W        W 5802  33.929  10.753   4.710
44382W        W 5803  31.943   4.813   3.270
44383W        W 5804  40.524  16.122  11.449
44384W        W 5805  10.244  33.128  11.032
44385W        W 5806  25.064  39.540  13.516
44386W        W 5807  41.992  21.697   2.184
44387W        W 5808   9.858  28.103   4.175
44388W        W 5809  24.689   4.392   0.776
44389W        W 5810  35.980  33.054   1.250
44390W        W 5811  31.611  43.811   1.905
44391W        W 5812  10.835  19.114   1.429
44392W        W 5813  21.218  42.981  13.915
44393W        W 5814  22.223   2.406  14.427
44394W        W 5815  21.673  23.730   4.634
44395W        W 5816  25.003   4.413  12.028
44396W        W 5817  25.619   6.741   4.770
44397W        W 5818  38.864  43.936   3.840
44398W        W 5819  36.956  25.494   4.728
44399W        W 5820  33.929   3.338   4.250
44400W        W 5821   5.773   7.287   3.658
44401W        W 5822  11.835  25.631  10.968
44402W        W 5823  15.149   1.331   1.307
44403W        W 5824  15.133  41.430  14.807
44404W        W 5825  32.441  38.510   0.730
44405W        W 5826  30.628  25.598   2.361
44406W        W 5827  15.697  20.734   4.256
44407W        W 5828   4.824   4.320  11.940
44408W        W 5829  35.883   7.746  14.935
44409W        W 5830   7.257  14.755   0.799
44410W        W 5831   8.287  35.382   1.304
44411W        W 5832  16.797  41.416  10.626
44412W        W 5833  38.970   0.863  14.294
44413W        W 5834  28.158  32.897   4.712
44414W        W 5835  20.092  31.646  13.388
44415W        W 5836  13.185  16.251  11.865
44416W        W 5837  22.157  29.152  13.541
44417W        W 5838   9.689   9.734   2.793
44418W        W 5839  36.469   4.713   1.350
44419W        W 5840  42.438  18.203   3.386
44420W        W 5841  24.046  28.537   4.121
44421W        W 5842  17.115  32.422   5.293
44422W        W 5843  21.027  36.879  12.440
44423W        W 5844  35.505  41.447   3.697
44424W        W 5845  12.661  25.215   3.147
44425W        W 5846  12.354  39.326   4.248
44426W        W 5847  15.651  20.669  10.532
44427W        W 5848  22.611  41.962  12.522
44428W        W 5849   5.238  38.334   2.270
44429W        W 5850  42.866  29.961  11.901
44430W        W 5851  11.679   9.368  14.787
44431W        W 5852   4.447  14.592  14.363
44432W        W 5853  13.124  40.453  12.531
44433W        W 5854   3.452  43.327  10.442
44434W        W 5855  42.024  21.260   5.105
44435W        W 5856  21.581   0.339   3.208
44436W        W 5857  16.566  15.678   3.759
44437W        W 5858  24.017  25.592   0.282
44438W        W 5859  19.641  24.977  14.003
44439W        W 5860  13.809  18.726   2.307
44440W        W 5861  16.652  12.772  12.533
44441W        W 5862   1.745  32.077  13.371
44442W        W 5863  16.150  27.986   0.300
44443W        W 5864  41.996  19.547   0.322
44444W        W 5865  24.194  20.559   1.389
44445W        W 5866  41.344  21.607   3.275
44446W        W 5867   7.363  13.214   2.746
44447W        W 5868  35.885  14.118   2.260
44448W        W 5869  34.514   7.706   2.677
44449W        W 5870   3.385  20.663   0.924
44450W        W 5871   4.296  44.323  10.153
44451W        W 5872  17.190  32.116  11.380
44452W        W 5873  33.065   9.692   0.819
44453W        W 5874  30.437  44.331   0.869
44454W        W 5875  33.494  12.769   3.248
44455W        W 5876   1.246  34.600   2.400
44456W        W 5877   4.739  38.051  13.025
44457W        W 5878  20.197   6.886   3.668
44458W        W 5879   2.901  41.403  10.898
44459W        W 5880  11.800  29.041   3.652
44460W        W 5881   5.809   6.708  14.455
44461W        W 5882  35.865   8.341  11.088
44462W        W 5883  14.796  36.054  13.438
44463W        W 5884  42.856  21.749   1.340
44464W        W 5885   8.850  40.315   3.198
44465W        W 5886   5.353  37.502   1.702
44466W        W 5887  20.698   9.190   1.410
44467W        W 5888  18.787   4.800  12.845
44468W        W 5889   5.193  18.092   3.220
44469W        W 5890  32.068  44.854  11.541
44470W        W 5891  26.513   8.883   3.816
44471W        W 5892   8.894  32.518  13.016
44472W        W 5893  22.670  24.481  11.937
44473W        W 5894  34.400  33.018  14.311
44474W        W 5895   9.246   5.194  10.465
44475W        W 5896   5.234   7.891  11.478
44476W        W 5897   4.408   9.278  13.351
44477W        W 5898  33.982  25.214   0.409
44478W        W 5899  19.729  15.249   2.280
44479W        W 5900  42.904  20.079  12.474
44480W        W 5901  30.533  40.387   4.761
44481W        W 5902  38.440  35.097   2.899
44482W        W 5903   8.752  36.482  10.614
44483W        W 5904  36.556  37.878   4.624
44484W        W 5905  14.813  39.838  11.546
44485W        W 5906  35.940   2.856   3.855
44486W        W 5907  29.472  41.855  11.889
44487W        W 5908  25.616  40.447   3.151
44488W        W 5909  34.490  32.415  13.461
44489W        W 5910  32.997  36.395  13.473
44490W        W 5911  30.559  10.750   4.171
44491W        W 5912  19.594   9.765   3.770
44492W        W 5913  10.357  39.877   0.785
44493W        W 5914  28.008  13.291  11.017
44494W        W 5915  23.619  13.804   2.661
44495W        W 5916  42.419  18.544   2.262
44496W        W 5917  23.586  15.794  10.545
44497W        W 5918  21.178  10.150   5.315
44498W        W 5919  40.954  34.108  11.516
44499W        W 5920  21.233   3.773   2.415
44500W        W 5921  11.182  12.157  12.082
44501W        W 5922   2.761   6.419   4.169
44502W        W 5923  27.463  26.115   4.118
44503W        W 5924  19.609  17.097   1.700
44504W        W 5925  23.104   4.386  11.093
44505W        W 5926  18.166  23.585   0.826
44506W        W 5927   5.366   7.380   0.897
44507W        W 5928  15.245  22.130  12.969
44508W        W 5929  39.851   8.349   2.674
44509W        W 5930  36.360  38.368  11.571
44510W        W 5931  18.722  40.335  10.498
44511W        W 5932  32.903  20.538  11.082
44512W        W 5933  34.119  27.530  14.344
44513W        W 5934  33.599  16.084  12.354
44514W        W 5935  10.155  22.043   3.846
44515W        W 5936  10.267   5.332  11.537
44516W        W 5937  32.475  37.516  13.419
44517W        W 5938  26.699  14.298   0.248
44518W        W 5939  10.347  12.729   0.930
44519W        W 5940  27.095  26.564   3.234
44520W        W 5941  17.130  11.703  13.851
44521W        W 5942  36.494  35.527   2.314
44522W        W 5943  36.015  10.830  11.561
44523W        W 5944  24.633  32.486  14.024
44524W        W 5945  41.366  14.805  14.335
44525W        W 5946  37.381  39.048   3.869
44526W        W 5947  24.139   2.880   2.739
44527W        W 5948  37.022  17.685   1.271
44528W        W 5949  13.166   6.230  12.494
44529W        W 5950  21.536   0.843  11.112
44530W        W 5951   2.962  40.352   1.857
44531W        W 5952   6.856  23.069  11.084
44532W        W 5953  33.450  26.190   2.294
44533W        W 5954  14.668   8.225  14.981
44534W        W 5955  31.410  34.525   1.234
44535W        W 5956  12.258  42.413  12.975
44536W        W 5957  14.294  12.264   1.890
44537W        W 5958  25.587   2.272   2.307
44538W        W 5959  16.723  23.514  12.020
44539W        W 5960  44.837   8.218  13.949
44540W        W 5961  40.338  15.799   3.674
44541W        W 5962  28.178  44.874   3.215
44542W        W 5963  33.986  12.325   0.962
44543W        W 5964   5.752  23.077  10.896
44544W        W 5965  40.050  44.269  10.588
44545W        W 5966  36.880  22.678  11.955
44546W        W 5967  35.011  18.059   3.795
44547W        W 5968  30.985   6.919  13.878
44548W        W 5969  12.615  32.428  10.605
44549W        W 5970   6.753   4.304   0.925
44550W        W 5971  41.456  19.112   1.316
44551W        W 5972   7.202   7.379  12.034
44552W        W 5973  24.634  36.405   0.295
44553W        W 5974  14.791  31.410  13.512
44554W        W 5975  23.550  30.426   3.689
44555W        W 5976  10.700  22.562  10.922
44556W        W 5977  17.591  21.140  12.486
44557W        W 5978  32.553   0.941   0.444
44558W        W 5979  31.106  34.560  14.314
44559W        W 5980   4.406  27.473   9.511
44560W        W 5981  26.479   2.363   1.740
44561W        W 5982   7.300  19.176   1.835
44562W        W 5983  44.773  18.270  10.891
44563W        W 5984  13.690  43.478  11.475
44564W        W 5985  25.058  29.575   4.652
44565W        W 5986  40.419  10.839  14.015
44566W        W 5987   2.861   5.724   2.870
44567W        W 5988   1.291   1.874   9.529
44568W        W 5989  13.148  44.335   4.161
44569W        W 5990  17.186  36.534  13.540
44570W        W 5991  23.523  10.377  14.874
44571W        W 5992  37.911  15.823  13.411
44572W        W 5993   3.359  16.662  10.980
44573W        W 5994  41.924  24.524   2.786
44574W        W 5995  28.478   6.232  10.931
44575W        W 5996   9.797   9.270  11.496
44576W        W 5997  14.220   3.222   2.182
44577W        W 5998   6.238  19.238   2.296
44578W        W 5999  25.084   5.927   2.665
44579W        W 6000   5.411  41.951   4.115
44580W        W 6001  29.064   8.205   1.394
44581W        W 6002   1.933   8.895  11.890
44582W        W 6003  21.735  36.476  14.417
44583W        W 6004  21.757  15.636   3.244
44584W        W 6005  31.601  34.571  13.045
44585W        W 6006  29.989  14.264   1.851
44586W        W 6007  21.519  31.407   4.832
44587W        W 6008  40.488  37.070   2.858
44588W        W 6009  34.439   2.417  14.818
44589W        W 6010  35.429  41.965  10.933
44590W        W 6011  12.718  13.824   0.827
44591W        W 6012  15.646  38.895  13.500
44592W        W 6013  18.184  21.749  11.605
44593W        W 6014  39.350  11.317   4.752
44594W        W 6015   7.183   1.732  11.889
44595W        W 6016  26.058  20.567  14.971
44596W        W 6017  19.583   7.211  12.431
44597W        W 6018  20.656   5.302   1.886
44598W        W 6019  14.664  34.013   4.196
44599W        W 6020  24.181  19.604   3.159
44600W        W 6021   8.399   3.389   1.883
44601W        W 6022  39.033   5.210   1.800
44602W        W 6023  30.005   5.824  13.869
44603W        W 6024   3.246  29.139  14.838
44604W        W 6025   6.893  17.288   1.234
44605W        W 6026  43.466  31.941   1.914
44606W        W 6027  44.775  24.577  13.444
44607W        W 6028   4.235  14.114   1.359
44608W        W 6029   3.366  27.551  13.054
44609W        W 6030  24.982   9.154   2.704
44610W        W 6031  29.544  20.228  11.989
44611W        W 6032  29.446  32.450  13.807
44612W        W 6033  23.592  33.064   4.672
44613W        W 6034  24.644  26.689  12.938
44614W        W 6035  14.781  40.041   2.813
44615W        W 6036  41.919  41.983   4.736
44616W        W 6037  14.669  27.581  10.509
44617W        W 6038  31.150   7.836  11.590
44618W        W 6039   7.270  27.198   2.371
44619W        W 6040   9.391  30.040  10.457
44620W        W 6041   2.362  17.576   3.345
44621W        W 6042  42.777   2.834   3.672
44622W        W 6043  23.639   5.889  13.469
44623W        W 6044   4.294  35.951   3.308
44624W        W 6045  24.980   8.896   3.769
44625W        W 6046   0.911  17.219   3.781
44626W        W 6047   9.370  42.363  14.435
44627W        W 6048   0.430  29.127  13.933
44628W        W 6049  26.672  15.228   1.778
44629W        W 6050  15.774  11.660   0.428
44630W        W 6051  15.795   7.271   0.768
44631W        W 6052   3.738  39.845  12.506
44632W        W 6053  44.498  28.515  14.400
44633W        W 6054  29.977  11.306   9.574
44634W        W 6055  40.869  12.237   4.283
44635W        W 6056  35.472  23.072  10.948
44636W        W 6057  25.991   1.415   0.453
44637W        W 6058  11.328  28.079  14.781
44638W        W 6059  11.190  39.387   3.771
44639W        W 6060  31.974  41.904   2.259
44640W        W 6061  43.338  18.230  10.607
44641W        W 6062  38.873   0.748  14.991
44642W        W 6063  21.261  42.880  12.491
44643W        W 6064  21.081  24.581  10.990
44644W        W 6065  30.068  33.421   1.758
44645W        W 6066  43.466  38.473   2.340
44646W        W 6067  19.202  39.353  14.875
44647W        W 6068  21.699  13.707  11.414
44648W        W 6069  17.187  26.030   4.612
44649W        W 6070  41.434   2.289  11.990
44650W        W 6071  33.911  41.989  13.844
44651W        W 6072  18.132  30.479  11.092
44652W        W 6073  12.791  28.983   2.249
44653W        W 6074  16.078   5.750   2.368
44654W        W 6075  22.008  37.967   0.283
44655W        W 6076  38.955  32.056   3.832
44656W        W 6077  15.590   2.830  11.602
44657W        W 6078  43.015  36.922   0.796
44658W        W 6079  38.330   2.227   1.313
44659W        W 6080  15.768  18.698   0.871
44660W        W 6081  36.352  12.822   4.768
44661W        W 6082  23.126  10.361  11.925
44662W        W 6083  40.016  17.237  12.858
44663W        W 6084  22.550  32.436   3.741
44664W        W 6085   9.230  15.284  12.560
44665W        W 6086  31.568  41.293  12.571
44666W        W 6087  10.383  13.320   2.213
44667W        W 6088  35.538  20.197  14.883
44668W        W 6089  25.521  20.190  12.824
44669W        W 6090  20.705  19.716  12.454
44670W        W 6091  44.386  18.186  11.496
44671W        W 6092  33.930  25.169  14.934
44672W        W 6093   4.831   8.764   4.178
44673W        W 6094  42.919  35.456  13.852
44674W        W 6095  38.455  38.503  12.493
44675W        W 6096  16.143  36.394  10.982
44676W        W 6097  24.058  38.846   2.231
44677W        W 6098  25.566  38.385   2.186
44678W        W 6099  20.270  24.626   3.855
44679W        W 6100  38.438  34.498  11.452
44680W        W 6101  22.117  27.945   1.727
44681W        W 6102  27.126   5.363   1.885
44682W        W 6103  10.649  20.750  10.515
44683W        W 6104  42.418  10.799   3.639
44684W        W 6105  41.520  21.183   3.839
44685W        W 6106  36.549  43.470   3.695
44686W        W 6107   3.871  18.660  11.021
44687W        W 6108  33.101   4.899   4.162
44688W        W 6109  10.149  34.026  10.520
44689W        W 6110   1.428  28.476   5.628
44690W        W 6111  27.051  43.359   3.702
44691W        W 6112  37.370   4.402  13.508
44692W        W 6113  42.000  43.493   0.858
44693W        W 6114  43.459  18.052   1.863
44694W        W 6115   8.383  19.744  10.459
44695W        W 6116  36.464   7.313  12.871
44696W        W 6117   1.426   7.358   0.733
44697W        W 6118   0.765  17.065   0.831
44698W        W 6119  31.990  27.575  14.478
44699W        W 6120  25.665  24.674   0.879
44700W        W 6121  42.312  16.648  13.871
44701W        W 6122   3.404   7.897   3.283
44702W        W 6123  33.950  22.157   3.865
44703W        W 6124  44.954   1.472  10.469
44704W        W 6125  17.791  16.184   1.325
44705W        W 6126  28.461   7.179   3.716
44706W        W 6127  26.647  11.691   1.338
44707W        W 6128   1.286  44.304  11.888
44708W        W 6129  34.874  29.460   1.935
44709W        W 6130  40.356  11.168   4.339
44710W        W 6131  32.555  37.920   2.296
44711W        W 6132  35.093   4.425  13.383
44712W        W 6133  42.393  38.979   3.300
44713W        W 6134  30.589  11.313   5.700
44714W        W 6135  13.673   8.845   2.364
44715W        W 6136  15.602  16.116  14.515
44716W        W 6137  10.650  21.186  12.054
44717W        W 6138  14.143  29.957   3.630
44718W        W 6139  27.112  41.851  10.454
44719W        W 6140   3.738  15.657   1.931
44720W        W 6141  39.841  25.579   4.770
44721W        W 6142   6.231  40.878   1.274
44722W        W 6143   8.716   5.269  13.813
44723W        W 6144   5.346  24.480   2.726
44724W        W 6145  20.610  27.649   0.913
44725W        W 6146   0.391   5.775  13.354
44726W        W 6147  19.125   1.441  13.059
44727W        W 6148  15.188  28.548  14.786
44728W        W 6149  32.938   1.973  11.534
44729W        W 6150  16.719  30.147   1.706
44730W        W 6151   2.751  34.043   9.491
44731W        W 6152  19.555   2.251  12.053
44732W        W 6153  37.424  39.472   3.830
44733W        W 6154  16.795  10.678  10.496
44734W        W 6155  30.040  20.639   1.443
44735W        W 6156  17.623  29.518  11.002
44736W        W 6157  31.593  19.042   1.779
44737W        W 6158  14.799  27.959  10.933
44738W        W 6159   4.719  44.491  13.486
44739W        W 6160  44.008  32.090  14.492
44740W        W 6161  11.226  10.821   4.673
44741W        W 6162  15.233   9.702  13.883
44742W        W 6163  21.201  35.429   3.704
44743W        W 6164  44.973  20.641  12.450
44744W        W 6165  23.564  38.344  11.535
44745W        W 6166  13.695  40.510  14.908
44746W        W 6167  29.085  13.715  13.037
44747W        W 6168  34.588  22.564   4.752
44748W        W 6169   4.911   1.325   3.701
44749W        W 6170  35.951  33.451   5.181
44750W        W 6171  14.643  40.875   4.301
44751W        W 6172  16.724  15.749  14.443
44752W        W 6173  17.704   9.256   0.250
44753W        W 6174  17.122   7.795  13.543
44754W        W 6175  44.325  28.118  10.612
44755W        W 6176  20.247   1.256  12.368
44756W        W 6177   1.917   2.913   1.758
44757W        W 6178  15.807  15.788  10.419
44758W        W 6179  27.635   3.906   2.308
44759W        W 6180  15.673  23.021   0.337
44760W        W 6181  40.385  42.836  14.291
44761W        W 6182  41.499  20.055  11.036
44762W        W 6183  29.996  10.703   5.750
44763W        W 6184  13.332  36.022   0.743
44764W        W 6185  37.512  12.235   1.812
44765W        W 6186  29.026  43.485  13.033
44766W        W 6187  27.461  44.785   0.776
44767W        W 6188  30.926  19.087  12.073
44768W        W 6189  38.343  17.267   0.333
44769W        W 6190  20.525  41.883   4.661
44770W        W 6191  20.566  35.003   2.203
44771W        W 6192  39.039  23.058   2.818
44772W        W 6193  23.544  38.902  12.379
44773W        W 6194  15.783   8.353   4.151
44774W        W 6195  43.334  12.778  11.508
44775W        W 6196  21.540  25.066   2.700
44776W        W 6197  11.129  26.039  14.838
44777W        W 6198   7.316   5.694   1.823
44778W        W 6199   6.729  28.013   2.754
44779W        W 6200  24.230   1.398  12.862
44780W        W 6201  22.062  10.824  14.982
44781W        W 6202  42.320  20.548  10.966
44782W        W 6203  26.085  41.863  14.823
44783W        W 6204  31.558  17.598   0.943
44784W        W 6205  32.103  11.657  11.509
44785W        W 6206  19.712  15.578   0.924
44786W        W 6207   4.334   5.934  14.427
44787W        W 6208  26.672  10.833   4.742
44788W        W 6209  29.509   4.942  11.416
44789W        W 6210  15.739  13.704  11.589
44790W        W 6211   1.748  13.626   4.125
44791W        W 6212   6.900  18.644  14.340
44792W        W 6213  31.622   7.798   1.751
44793W        W 6214   1.961  18.545  14.950
44794W        W 6215  32.023  29.602   2.762
44795W        W 6216  28.014   0.337  11.021
44796W        W 6217  22.145  27.526  13.001
44797W        W 6218  15.629  43.274  12.981
44798W        W 6219  36.524  21.197   0.473
44799W        W 6220  33.049  44.842  13.469
44800W        W 6221  19.170   9.301  11.403
44801W        W 6222  44.278  33.505  12.036
44802W        W 6223   7.316  20.664   2.266
44803W        W 6224  19.158  12.243  12.375
44804W        W 6225  13.180  28.566  12.579
44805W        W 6226  18.571  24.979  12.529
44806W        W 6227   2.806  38.879  14.467
44807W        W 6228  37.545  10.768  10.536
44808W        W 6229   6.184  18.270  12.049
44809W        W 6230  36.388  29.056  12.557
44810W        W 6231  32.466  25.060  12.988
44811W        W 6232  24.524  17.796   0.388
44812W        W 6233  35.518  11.768   0.729
44813W        W 6234  18.056  16.271  13.533
44814W        W 6235  30.908  25.004   1.338
44815W        W 6236  20.531  22.722   1.710
44816W        W 6237  25.050   5.924   5.658
44817W        W 6238  29.626  17.756  10.433
44818W        W 6239   9.652  27.138   3.329
44819W        W 6240   6.345  11.709   0.729
44820W        W 6241  10.729   0.934  11.867
44821W        W 6242   8.320  24.571  13.427
44822W        W 6243  27.964  41.935   0.294
44823W        W 6244  19.624  11.629  13.028
44824W        W 6245   6.865  29.606  12.371
44825W        W 6246  29.434  44.789   3.284
44826W        W 6247  41.344  17.141  14.890
44827W        W 6248  33.478  35.962  10.053
44828W        W 6249   8.210  43.834   1.300
44829W        W 6250  36.870  17.618  10.889
44830W        W 6251  41.474  35.883  12.068
44831W        W 6252  28.579  21.700   3.212
44832W        W 6253  36.930  31.443   4.170
44833W        W 6254  43.907   6.757  12.947
44834W        W 6255  26.458  20.584   0.904
44835W        W 6256  17.703  17.204   4.252
44836W        W 6257   7.407   0.436   0.730
44837W        W 6258  19.162  22.177  14.975
44838W        W 6259  35.018  33.491   0.741
44839W        W 6260  31.506  36.067  10.900
44840W        W 6261  14.166  33.589  12.916
44841W        W 6262  28.984  26.978   3.847
44842W        W 6263  10.868  43.441   0.949
44843W        W 6264   0.383  17.768  11.883
44844W        W 6265  37.954   8.404  13.862
44845W        W 6266  30.074  28.186  13.942
44846W        W 6267   5.733   7.413  13.966
44847W        W 6268   9.308  13.211  13.949
44848W        W 6269   8.805  14.258  13.006
44849W        W 6270  32.455  17.296  12.073
44850W        W 6271   0.489  40.471   2.815
44851W        W 6272  14.128   1.283   4.155
44852W        W 6273   0.385  26.508   3.351
44853W        W 6274  27.579  34.395  13.382
44854W        W 6275  38.863   9.808   4.772
44855W        W 6276  30.543  43.396   4.706
44856W        W 6277  16.135  22.219   2.228
44857W        W 6278  28.148  13.152   5.312
44858W        W 6279  42.407  13.322  10.067
44859W        W 6280  42.514  24.076   3.155
44860W        W 6281  34.097  22.249  11.575
44861W        W 6282  33.425  37.072   2.252
44862W        W 6283  14.262  33.397  10.956
44863W        W 6284   4.274  36.369   3.382
44864W        W 6285  17.070  36.557   4.775
44865W        W 6286  21.190  24.648   1.923
44866W        W 6287  13.687  24.562   0.270
44867W        W 6288   5.260   2.410   4.310
44868W        W 6289  32.413  10.653  13.831
44869W        W 6290  19.201  11.292   3.315
44870W        W 6291  12.338  44.973   2.291
44871W        W 6292   1.342  36.919   3.326
44872W        W 6293  26.978   6.231   2.693
44873W        W 6294  38.343  24.515  12.094
44874W        W 6295  18.761  43.292  12.556
44875W        W 6296  23.542   7.394   2.397
44876W        W 6297  12.719  12.223   1.742
44877W        W 6298  13.288   8.294  10.912
44878W        W 6299   6.735  29.963  14.003
44879W        W 6300  41.954  42.815   4.738
44880W        W 6301  44.463  24.481  13.852
44881W        W 6302   5.818  35.048  12.018
44882W        W 6303  11.821  28.508   2.880
44883W        W 6304   9.858  39.489  12.373
44884W        W 6305  12.259  17.113  13.038
44885W        W 6306  42.003   9.345   1.383
44886W        W 6307  34.057  20.743   1.391
44887W        W 6308  11.654  40.381   2.783
44888W        W 6309  10.705  12.201  13.872
44889W        W 6310  32.476  32.127  13.519
44890W        W 6311   3.324  29.922  12.930
44891W        W 6312  27.642   7.260   2.758
44892W        W 6313   0.330  36.052  13.476
44893W        W 6314   5.724   2.272   0.924
44894W        W 6315  33.571   4.876   3.854
44895W        W 6316  39.010  26.040  10.429
44896W        W 6317  34.967  18.255   4.242
44897W        W 6318   7.736  26.105  11.022
44898W        W 6319  24.669  40.990  13.870
44899W        W 6320  42.347  25.168   4.169
44900W        W 6321  22.556  40.527   3.211
44901W        W 6322  42.825   0.328   3.353
44902W        W 6323  31.993  28.586   2.671
44903W        W 6324  44.914   0.778   2.771
44904W        W 6325   1.863   2.943  14.974
44905W        W 6326  44.807  24.478   4.191
44906W        W 6327  20.608  35.532  12.395
44907W        W 6328  34.465  26.501  10.494
44908W        W 6329  14.172   7.317  13.844
44909W        W 6330   6.834   3.372  10.043
44910W        W 6331   2.916  37.028   3.830
44911W        W 6332  11.637  23.011   0.848
44912W        W 6333   2.735  12.150   4.794
44913W        W 6334  31.449  39.368  12.989
44914W        W 6335   2.331  10.770   2.363
44915W        W 6336   9.690  31.098   3.248
44916W        W 6337  16.580  22.146   1.727
44917W        W 6338  42.426  29.099   0.857
44918W        W 6339   8.691  41.379   2.250
44919W        W 6340   9.207   2.397  12.531
44920W        W 6341   8.695  41.884   5.310
44921W        W 6342  16.645  35.019   0.327
44922W        W 6343   2.765  35.413   5.629
44923W        W 6344  24.608  23.618  13.345
44924W        W 6345  43.358   9.686  13.421
44925W        W 6346  28.580  11.688   0.912
44926W        W 6347  22.699  12.257   2.295
44927W        W 6348  16.315  43.321   4.276
44928W        W 6349   1.931   7.694  11.953
44929W        W 6350  25.572  19.699  12.059
44930W        W 6351  32.080  40.828  14.783
44931W        W 6352   5.735  13.252   1.921
44932W        W 6353  43.012   2.240   3.843
44933W        W 6354  20.231  21.734  10.538
44934W        W 6355  31.143  40.852  10.611
44935W        W 6356   0.283   6.218   3.818
44936W        W 6357  31.052   3.808  14.362
44937W        W 6358  44.263  32.590   0.765
44938W        W 6359  35.983  10.633  10.458
44939W        W 6360  27.033  31.485   4.182
44940W        W 6361  25.665  19.075   1.280
44941W        W 6362  36.913  26.037   2.265
44942W        W 6363  25.101  19.766  12.938
44943W        W 6364  34.926  19.561   5.291
44944W        W 6365  21.189  44.968   1.416
44945W        W 6366  22.133  21.053  12.410
44946W        W 6367  21.249   3.294   4.180
44947W        W 6368  14.745  29.979  10.429
44948W        W 6369  17.706   7.791  11.912
44949W        W 6370  28.141  31.084   4.293
44950W        W 6371   0.370   1.944   4.758
44951W        W 6372  28.149  11.253   2.799
44952W        W 6373   6.204  28.107   1.223
44953W        W 6374   9.653  29.488   1.920
44954W        W 6375   0.875  17.155  10.014
44955W        W 6376  33.039  42.805   3.256
44956W        W 6377  22.545  17.749  13.863
44957W        W 6378  25.575   9.263  14.999
44958W        W 6379  34.400  38.833  13.908
44959W        W 6380  33.548  22.123  13.864
44960W        W 6381  13.778   9.382  11.014
44961W        W 6382  10.704  13.676   4.648
44962W        W 6383  42.351  16.582   1.223
44963W        W 6384  43.355  28.523   0.259
44964W        W 6385  43.873  15.235  10.986
44965W        W 6386  31.128   8.381  12.553
44966W        W 6387  21.602  28.061   0.401
44967W        W 6388  17.557  44.976   2.688
44968W        W 6389   4.331  23.015  13.311
44969W        W 6390  21.580   2.300  11.872
44970W        W 6391  38.327  16.717   0.867
44971W        W 6392   3.766   1.774  10.463
44972W        W 6393  15.812  31.007  11.554
44973W        W 6394   0.255  10.353  14.980
44974W        W 6395  14.784  28.935  11.423
44975W        W 6396  19.112  34.538  13.452
44976W        W 6397  43.407  33.916  11.397
44977W        W 6398   2.249   5.415  14.771
44978W        W 6399  44.797  27.005   1.397
44979W        W 6400  27.009  39.443  14.402
44980W        W 6401  36.474  32.927   0.886
44981W        W 6402  13.350  33.455   2.855
44982W        W 6403   7.405  20.214  11.542
44983W        W 6404   1.735  16.573   4.785
44984W        W 6405  28.651   0.322   1.876
44985W        W 6406  38.453   3.716  11.038
44986W        W 6407   6.299  42.320  14.956
44987W        W 6408  41.450  17.713   4.292
44988W        W 6409  41.876  26.456  14.344
44989W        W 6410  28.986  36.589  13.969
44990W        W 6411  20.253  31.604  11.089
44991W        W 6412  44.387  40.421  10.420
44992W        W 6413   3.903   0.774  10.539
44993W        W 6414  40.501  28.116   4.159
44994W        W 6415  21.238  23.096   0.412
44995W        W 6416  34.982  30.952  10.582
44996W        W 6417  21.213  23.714   3.858
44997W        W 6418  15.668  10.379   1.235
44998W        W 6419  18.624  20.535  11.078
44999W        W 6420   5.868  42.805  11.569
45000W        W 6421  30.975  35.451   4.772
45001W        W 6422  31.637  33.425  12.968
45002W        W 6423   1.292  39.813   2.250
45003W        W 6424  21.160  20.723  14.018
45004W        W 6425   5.760   1.940   1.731
45005W        W 6426   6.725  10.143   3.279
45006W        W 6427  18.089   5.888  10.517
45007W        W 6428  19.122  40.421   0.898
45008W        W 6429  11.688  13.642  11.039
45009W        W 6430  41.795  26.589   4.728
45010W        W 6431  26.661  37.468   2.349
45011W        W 6432  40.361  37.368   1.712
45012W        W 6433   4.815  24.504  11.402
45013W        W 6434  35.537  28.651  13.327
45014W        W 6435   5.231  10.154   0.824
45015W        W 6436  28.995  34.416   3.706
45016W        W 6437  10.728   1.929   4.721
45017W        W 6438  43.513  24.010   2.407
45018W        W 6439   1.274  16.304   0.286
45019W        W 6440  42.365  14.697   4.748
45020W        W 6441  22.710   0.970  13.971
45021W        W 6442  17.666  14.255  14.341
45022W        W 6443  12.817  13.731  13.457
45023W        W 6444   4.809   0.880   3.187
45024W        W 6445   0.325   9.819   2.320
45025W        W 6446   4.907   2.861  14.374
45026W        W 6447  11.746  44.285   3.693
45027W        W 6448  13.796  21.733  13.889
45028W        W 6449  36.889   3.406   2.812
45029W        W 6450  43.772  23.592   1.298
45030W        W 6451  17.643  29.614   3.337
45031W        W 6452   2.399  36.943  11.048
45032W        W 6453  28.561   5.707  13.400
45033W        W 6454  35.023  34.100  10.938
45034W        W 6455  43.775   2.829   2.758
45035W        W 6456  42.924  23.219   4.305
45036W        W 6457  44.308  27.994   3.386
45037W        W 6458  28.104   0.770   0.264
45038W        W 6459  44.923  13.735   1.815
45039W        W 6460  44.260  22.701   4.761
45040W        W 6461   1.925  14.249   0.397
45041W        W 6462  36.587  26.124   0.783
45042W        W 6463  15.264  15.294   2.403
45043W        W 6464  17.767   7.742  12.345
45044W        W 6465  10.665  32.453   1.220
45045W        W 6466   1.941   0.804  10.416
45046W        W 6467  30.157  18.768   3.343
45047W        W 6468  33.980   8.786   2.407
45048W        W 6469  12.258  28.064   3.244
45049W        W 6470   5.753  11.624   1.736
45050W        W 6471   2.744   0.448   2.777
45051W        W 6472  39.065  30.943  12.837
45052W        W 6473  35.950  39.427  14.446
45053W        W 6474  43.905   8.250  11.876
45054W        W 6475  24.656  21.230  13.464
45055W        W 6476   2.954  22.698   3.337
45056W        W 6477  11.623  42.993   4.319
45057W        W 6478  41.510   0.452   0.411
45058W        W 6479   8.393  25.614  13.041
45059W        W 6480   1.443   9.156  12.357
45060W        W 6481  19.212  22.229  11.458
45061W        W 6482  35.492  44.283  11.885
45062W        W 6483   5.393   2.328   1.370
45063W        W 6484  27.141  17.802  14.392
45064W        W 6485  16.659  24.694  12.494
45065W        W 6486  17.171  13.777  13.842
45066W        W 6487  41.954  34.873   5.297
45067W        W 6488  29.153  32.629   1.831
45068W        W 6489  33.478  33.113  13.316
45069W        W 6490  17.711  43.895  13.059
45070W        W 6491  18.648   3.293   3.680
45071W        W 6492  30.121   8.243  14.847
45072W        W 6493  11.134  30.536   1.404
45073W        W 6494  32.455  44.406   3.805
45074W        W 6495  15.766   3.890  10.558
45075W        W 6496   1.846   3.877  12.906
45076W        W 6497  42.347  39.048  10.623
45077W        W 6498   3.306  42.956  14.385
45078W        W 6499  39.378   9.807  12.527
45079W        W 6500  36.348  38.421   1.442
45080W        W 6501  25.157  29.559   4.286
45081W        W 6502   8.399  36.373  11.591
45082W        W 6503  31.924  34.477   1.766
45083W        W 6504  34.425  18.623   3.632
45084W        W 6505   0.323   6.235   3.155
45085W        W 6506  13.731  21.717   2.833
45086W        W 6507  20.595  24.153   4.793
45087W        W 6508  12.767  11.260  13.818
45088W        W 6509  35.433  37.843  12.401
45089W        W 6510  23.539  10.687  12.365
45090W        W 6511  16.313  24.618   0.954
45091W        W 6512  18.754  12.159  13.883
45092W        W 6513  25.217  23.604   1.880
45093W        W 6514  18.557   4.876  10.536
45094W        W 6515  43.370  14.616   2.883
45095W        W 6516  11.678  11.325  11.088
45096W        W 6517  13.297  34.602  10.448
45097W        W 6518  41.963   8.679  12.562
45098W        W 6519  33.565  42.807  11.066
45099W        W 6520  12.242  19.774  11.554
45100W        W 6521   5.274  36.855   3.780
45101W        W 6522   0.931  35.399   0.841
45102W        W 6523  34.011   9.352   1.317
45103W        W 6524  25.086  32.039  11.407
45104W        W 6525   2.909  43.385   3.177
45105W        W 6526  31.099  38.035   0.925
45106W        W 6527  44.478  24.665   0.794
45107W        W 6528  16.281  44.898   0.484
45108W        W 6529   4.364  42.447  11.005
45109W        W 6530  12.760  12.168   0.959
45110W        W 6531  25.508  25.530   0.479
45111W        W 6532  20.184   5.807   1.405
45112W        W 6533  19.231   7.387   4.128
45113W        W 6534  12.238  18.276  12.085
45114W        W 6535   5.439  37.836  13.437
45115W        W 6536  13.693  32.032   0.339
45116W        W 6537  16.291  22.109  12.958
45117W        W 6538  17.262  27.126   4.279
45118W        W 6539  30.127  24.618  11.522
45119W        W 6540  35.560  21.635  14.011
45120W        W 6541  41.333  10.874   3.152
45121W        W 6542  43.296  15.664   2.861
45122W        W 6543  31.917  11.861  14.372
45123W        W 6544  24.163  20.724   2.702
45124W        W 6545  35.953   0.420  14.854
45125W        W 6546  21.527   0.287   3.649
45126W        W 6547  33.042  30.559  14.449
45127W        W 6548  27.557   5.690  11.072
45128W        W 6549  29.155   1.966  12.090
45129W        W 6550  31.077  15.760  14.391
45130W        W 6551  24.578  28.146  12.563
45131W        W 6552  42.905  18.578   1.302
45132W        W 6553   5.206  31.574  10.948
45133W        W 6554  24.197  33.417  14.840
45134W        W 6555  33.909  15.238   2.353
45135W        W 6556  11.679  41.384  13.345
45136W        W 6557  10.874  27.649   4.813
45137W        W 6558  16.112   4.898  13.884
45138W        W 6559  28.590   1.731   0.775
45139W        W 6560   0.433  14.271   4.829
45140W        W 6561  34.117  28.980   2.682
45141W        W 6562  13.628  41.036  11.537
45142W        W 6563  26.571  24.021   1.697
45143W        W 6564  19.268  36.861  13.388
45144W        W 6565   9.726  12.304   0.834
45145W        W 6566  12.847  42.482  14.368
45146W        W 6567  12.762  22.160  12.465
45147W        W 6568  44.985   6.765   4.342
45148W        W 6569  12.740  26.996  12.540
45149W        W 6570  34.074  13.330  12.042
45150W        W 6571  23.608   7.720  12.086
45151W        W 6572  15.585  24.202   3.171
45152W        W 6573   3.243  10.227   1.810
45153W        W 6574  37.028  12.318   1.405
45154W        W 6575  30.039  12.210  14.984
45155W        W 6576  36.536  13.624   3.364
45156W        W 6577  27.638  32.496  11.523
45157W        W 6578  38.503   9.660   3.226
45158W        W 6579  33.906  37.550  12.893
45159W        W 6580  21.200  10.772   0.775
45160W        W 6581  34.023  22.661  14.894
45161W        W 6582   5.831  16.156   1.701
45162W        W 6583  40.358  34.977   1.858
45163W        W 6584  27.000  29.587   1.422
45164W        W 6585  43.876  34.399  13.489
45165W        W 6586  43.863  32.126   4.629
45166W        W 6587  32.991   7.708  11.518
45167W        W 6588  40.876  12.845  12.840
45168W        W 6589   8.821  17.087   3.861
45169W        W 6590  26.193  22.581   0.427
45170W        W 6591  35.021  38.468   1.857
45171W        W 6592   0.358  44.271  13.925
45172W        W 6593  15.155  26.112  11.127
45173W        W 6594  21.129  11.850  14.926
45174W        W 6595  36.351   3.215  10.486
45175W        W 6596  13.293  42.914   0.344
45176W        W 6597  21.224  32.476   2.882
45177W        W 6598  26.184  19.590  11.387
45178W        W 6599  17.229  39.833  13.471
45179W        W 6600  11.726   1.811   3.297
45180W        W 6601  31.038   6.687   4.217
45181W        W 6602  17.252  25.591  11.538
45182W        W 6603  40.435  31.996   1.696
45183W        W 6604  22.013  35.547  14.838
45184W        W 6605  18.632  38.895  10.638
45185W        W 6606  38.362  42.408   1.776
45186W        W 6607   2.852  40.831   1.244
45187W        W 6608   6.233  43.441  14.357
45188W        W 6609   2.447  41.943  11.069
45189W        W 6610  44.939  14.236  11.514
45190W        W 6611  26.650  41.455   4.646
45191W        W 6612  35.008  33.007  10.904
45192W        W 6613  41.345  41.424   0.252
45193W        W 6614  32.534  11.163   3.795
45194W        W 6615  21.638   3.318   0.404
45195W        W 6616  11.305  18.217   4.728
45196W        W 6617  36.513  37.502   0.433
45197W        W 6618  28.566   3.240   1.279
45198W        W 6619   4.380  35.080   2.341
45199W        W 6620  27.964  35.871  14.776
45200W        W 6621  27.018   5.277  14.422
45201W        W 6622  38.964   7.191   4.638
45202W        W 6623  28.527  36.992  14.417
45203W        W 6624  21.191   8.221   2.327
45204W        W 6625  36.042  42.341   4.725
45205W        W 6626  10.821   5.378   3.714
45206W        W 6627  34.415  11.313   0.311
45207W        W 6628  41.960  28.471  14.963
45208W        W 6629   7.699  22.636  13.410
45209W        W 6630  39.433   0.390   3.337
45210W        W 6631   8.733   9.270   2.350
45211W        W 6632  42.385  14.111  11.402
45212W        W 6633   8.294  27.054  11.044
45213W        W 6634  14.605  28.448  11.579
45214W        W 6635   7.890   2.748   2.818
45215W        W 6636  15.640  32.907  13.930
45216W        W 6637   4.443   4.285  14.514
45217W        W 6638  43.430  35.473  14.396
45218W        W 6639  44.471  17.284   3.782
45219W        W 6640   0.767   8.659  13.503
45220W        W 6641  14.113  11.239   1.357
45221W        W 6642   1.396  10.642   1.698
45222W        W 6643   9.797  30.489  14.487
45223W        W 6644  24.021   8.194   3.372
45224W        W 6645  37.463   5.845  12.020
45225W        W 6646   8.766   9.810  14.867
45226W        W 6647  27.466  36.928   2.315
45227W        W 6648  24.480  35.537   2.747
45228W        W 6649  15.731  34.446   3.745
45229W        W 6650  37.571   4.432  13.942
45230W        W 6651  12.668   3.923  12.008
45231W        W 6652  18.703  29.459   3.275
45232W        W 6653  42.330  44.437   3.344
45233W        W 6654   5.216   0.752  12.941
45234W        W 6655  11.317  11.630   3.652
45235W        W 6656  24.179  40.377  14.449
45236W        W 6657  37.495  33.045   4.258
45237W        W 6658   9.656  25.662   3.264
45238W        W 6659  35.560  31.082  13.311
45239W        W 6660   2.393  22.732  10.919
45240W        W 6661   5.297  40.990   4.188
45241W        W 6662   3.837  36.495   1.296
45242W        W 6663  31.475  42.444  11.519
45243W        W 6664  36.386  24.102   4.204
45244W        W 6665  26.514  42.354  11.894
45245W        W 6666  10.659   0.833  10.573
45246W        W 6667  40.374  16.131   4.292
45247W        W 6668  15.648  41.001  12.037
45248W        W 6669  19.112   4.706  12.850
45249W        W 6670  36.478   1.868   2.180
45250W        W 6671  39.868  20.543  10.475
45251W        W 6672  14.278  37.389  10.939
45252W        W 6673  32.997  27.447   2.839
45253W        W 6674  23.114  18.290   3.841
45254W        W 6675  26.596   7.731   4.189
45255W        W 6676  22.217   1.301  12.352
45256W        W 6677  15.674   3.224  10.536
45257W        W 6678  28.549  39.384   0.249
45258W        W 6679  29.028  13.607   0.269
45259W        W 6680  30.524  37.458  12.957
45260W        W 6681   7.810  21.588  12.866
45261W        W 6682  16.125  10.222  10.061
45262W        W 6683  22.040  20.089  11.612
45263W        W 6684   4.298  40.974  14.320
45264W        W 6685  32.924  17.169   1.721
45265W        W 6686  14.201  29.110  11.931
45266W        W 6687  43.393   5.413   4.258
45267W        W 6688  19.651  29.583   1.399
45268W        W 6689  21.512  38.848  11.956
45269W        W 6690  22.511  27.167  12.943
45270W        W 6691   5.898   8.348   1.872
45271W        W 6692  29.626  43.988  10.930
45272W        W 6693  21.018  12.214  14.995
45273W        W 6694  39.507  16.649   4.115
45274W        W 6695  26.102  21.645   4.726
45275W        W 6696  12.621   7.277  13.457
45276W        W 6697  38.437  14.761   1.292
45277W        W 6698  31.012  22.705   3.734
45278W        W 6699   5.799  13.119  10.630
45279W        W 6700   2.928  14.097  11.053
45280W        W 6701  10.822  38.858  10.074
45281W        W 6702   2.834  36.474   2.265
45282W        W 6703  38.479  43.913  13.823
45283W        W 6704  27.651  23.678   1.433
45284W        W 6705  27.579   0.434   3.737
45285W        W 6706   0.981  23.499   1.931
45286W        W 6707  44.489  15.720  10.624
45287W        W 6708   0.891   0.257   4.834
45288W        W 6709  30.563  21.693  13.001
45289W        W 6710  31.605   2.297   0.290
45290W        W 6711  14.229  27.447  14.360
45291W        W 6712  11.752  30.607   4.827
45292W        W 6713  36.871  35.024   1.804
45293W        W 6714  16.722  44.900  14.766
45294W        W 6715  20.647   0.447   3.279
45295W        W 6716  41.444  38.950  13.847
45296W        W 6717  15.621  39.542  11.431
45297W        W 6718  34.579  21.722  10.935
45298W        W 6719  29.536  20.768  14.420
45299W        W 6720  43.487  39.914   4.340
45300W        W 6721  18.618   1.408  13.880
45301W        W 6722  25.628  44.460  14.861
45302W        W 6723  26.605  19.138  10.976
45303W        W 6724   0.417  44.807  14.909
45304W        W 6725   0.869  15.281  10.903
45305W        W 6726  44.950  41.944   4.777
45306W        W 6727   0.774  24.668   2.346
45307W        W 6728  21.082  43.485  13.949
45308W        W 6729  24.605  14.195   4.793
45309W        W 6730  33.392  22.043  11.390
45310W        W 6731  40.452   6.782   2.678
45311W        W 6732  31.995  28.493  11.406
45312W        W 6733  40.844  11.626  11.084
45313W        W 6734  29.633  10.650  13.969
45314W        W 6735   4.698  33.471   2.196
45315W        W 6736  36.360  43.913  10.556
45316W        W 6737  39.506  17.153   2.185
45317W        W 6738  12.640   8.812  11.445
45318W        W 6739  24.063   9.289   0.865
45319W        W 6740  42.362  10.656   0.815
45320W        W 6741  44.341  43.801  13.502
45321W        W 6742  42.009  38.922   1.878
45322W        W 6743  32.917  13.175  13.053
45323W        W 6744  43.920  14.187  13.399
45324W        W 6745  24.139   1.772  13.341
45325W        W 6746  37.410  32.418   1.716
45326W        W 6747  10.293  31.635   4.612
45327W        W 6748  39.443  33.969   1.835
45328W        W 6749  25.181   5.286   2.408
45329W        W 6750  22.158  12.362  12.988
45330W        W 6751  33.944  33.108  12.976
45331W        W 6752   4.929  32.543  13.960
45332W        W 6753  17.249  43.277  10.561
45333W        W 6754  24.017  32.616   4.659
45334W        W 6755  34.988   9.168   0.830
45335W        W 6756   6.911   6.696   4.807
45336W        W 6757  42.031  39.320   3.249
45337W        W 6758  15.241  10.328  12.831
45338W        W 6759  38.345  38.330  11.025
45339W        W 6760  23.607  15.596   0.301
45340W        W 6761  22.717  43.270  12.059
45341W        W 6762   6.725  24.169   3.848
45342W        W 6763  11.261   0.395  12.424
45343W        W 6764  11.753  35.085   9.968
45344W        W 6765  35.025  39.342   1.406
45345W        W 6766  37.878  29.931   2.822
45346W        W 6767  41.006  42.004   2.875
45347W        W 6768  30.503  43.456   4.138
45348W        W 6769   0.761  29.546   2.380
45349W        W 6770  10.343  40.542   4.151
45350W        W 6771  43.504  22.618   4.202
45351W        W 6772  16.728  11.273   3.202
45352W        W 6773   2.816  33.595  11.102
45353W        W 6774  21.104  41.473   4.253
45354W        W 6775  20.093  34.465   2.407
45355W        W 6776   1.829  40.909   1.337
45356W        W 6777  17.298  34.446   4.260
45357W        W 6778  19.065   5.698   2.782
45358W        W 6779  40.520  19.574   4.220
45359W        W 6780  31.597  13.733   5.300
45360W        W 6781  18.563  34.958   5.302
45361W        W 6782  43.425  18.184  11.505
45362W        W 6783  18.195   1.261  11.591
45363W        W 6784  12.728   1.260  10.596
45364W        W 6785  33.595  44.821  13.802
45365W        W 6786  11.167   8.171   0.845
45366W        W 6787   8.886  32.100  13.002
45367W        W 6788  32.076  29.972  14.427
45368W        W 6789  19.173  15.748  12.955
45369W        W 6790  38.943  34.994   1.425
45370W        W 6791  24.128  32.541  12.401
45371W        W 6792  44.385   8.689  13.898
45372W        W 6793   2.420  19.636   1.344
45373W        W 6794  35.585   3.226  12.073
45374W        W 6795  28.962   3.250  12.858
45375W        W 6796  19.537  36.917   4.610
45376W        W 6797  40.852   4.935   3.737
45377W        W 6798   9.879  10.219  11.543
45378W        W 6799  42.446  41.039  13.827
45379W        W 6800  17.176   5.422   3.263
45380W        W 6801   7.295  37.033  14.009
45381W        W 6802  23.494  20.225  10.945
45382W        W 6803  39.341  34.536  13.984
45383W        W 6804  23.601  30.481   2.390
45384W        W 6805  17.722  29.555  13.875
45385W        W 6806  27.625   2.723   2.361
45386W        W 6807  20.756  16.128  12.439
45387W        W 6808  39.482  12.335  10.602
45388W        W 6809   1.760  26.547   0.440
45389W        W 6810  20.142  22.035   1.765
45390W        W 6811  26.684  28.494  12.974
45391W        W 6812   3.809   7.801  11.591
45392W        W 6813  44.397  32.551   5.126
45393W        W 6814  39.936  10.792   4.200
45394W        W 6815  25.195  24.685  13.890
45395W        W 6816   9.811  12.678   0.766
45396W        W 6817   8.681  32.595  13.971
45397W        W 6818  16.638  30.989   1.253
45398W        W 6819   3.416  39.321  11.488
45399W        W 6820   5.845   8.896   1.401
45400W        W 6821   6.755  30.425   2.349
45401W        W 6822  39.548  31.575   0.361
45402W        W 6823  38.009   0.920   4.284
45403W        W 6824  41.873  16.262  11.058
45404W        W 6825  14.296  41.899   3.330
45405W        W 6826  18.627  15.236   1.728
45406W        W 6827  27.054  34.950   1.278
45407W        W 6828  32.587  30.565  13.878
45408W        W 6829  12.722  38.542  10.498
45409W        W 6830  39.316  22.539   2.832
45410W        W 6831  40.397  34.382   1.403
45411W        W 6832  43.779  25.658  12.480
45412W        W 6833  44.805  35.398   2.398
45413W        W 6834   2.912  31.628  11.405
45414W        W 6835  43.443   8.212  12.576
45415W        W 6836  42.453  41.902  11.393
45416W        W 6837   5.717  22.681  14.022
45417W        W 6838  37.447  43.788   0.888
45418W        W 6839  25.636  28.102   1.867
45419W        W 6840  23.211  43.374   2.377
45420W        W 6841  24.591  28.023   2.744
45421W        W 6842  22.744  32.582  13.544
45422W        W 6843  43.498  30.521   3.867
45423W        W 6844  35.037  26.007  12.890
45424W        W 6845  18.698   1.441   0.424
45425W        W 6846  12.118  12.626  13.852
45426W        W 6847  20.183  43.319  12.475
45427W        W 6848  35.022  26.025   2.885
45428W        W 6849   3.857  32.123  12.354
45429W        W 6850  23.138   3.828  13.459
45430W        W 6851  20.553  36.908  11.503
45431W        W 6852  39.480   6.192   0.383
45432W        W 6853   2.766  32.129  13.315
45433W        W 6854  37.495   1.919   0.924
45434W        W 6855  35.554   8.748  10.471
45435W        W 6856  26.470  20.703  10.568
45436W        W 6857  30.633   2.234   3.759
45437W        W 6858  41.457  42.424   1.790
45438W        W 6859  23.110  19.080   2.857
45439W        W 6860   1.923  39.978  14.917
45440W        W 6861  24.646  38.893   0.263
45441W        W 6862   4.712  12.306   1.921
45442W        W 6863  25.128  14.602   0.274
45443W        W 6864  36.874   2.914  11.548
45444W        W 6865   8.872  12.297  11.058
45445W        W 6866  20.718   9.360  12.428
45446W        W 6867  21.629   7.211   4.238
45447W        W 6868  25.164   6.236  12.835
45448W        W 6869  28.584  43.925   3.169
45449W        W 6870  10.178  35.591  14.814
45450W        W 6871  44.460  29.527   0.923
45451W        W 6872  31.470  22.035   4.715
45452W        W 6873  42.838  18.705  14.392
45453W        W 6874  44.003  18.609  14.820
45454W        W 6875   3.371  42.778  11.029
45455W        W 6876   4.401  43.846  12.572
45456W        W 6877  19.161  43.317   0.900
45457W        W 6878  36.406  34.529   1.217
45458W        W 6879  27.458  30.130  12.891
45459W        W 6880  38.396   8.226   1.852
45460W        W 6881   0.822  27.468  11.945
45461W        W 6882  40.383  37.875  14.506
45462W        W 6883   5.932  24.066   9.527
45463W        W 6884   7.298  17.793  11.113
45464W        W 6885  26.017   4.707   4.713
45465W        W 6886  18.555  36.008   2.372
45466W        W 6887   1.429   4.724  14.311
45467W        W 6888  16.213   7.878  10.437
45468W        W 6889  13.185  43.299  14.778
45469W        W 6890  11.761  34.473   4.655
45470W        W 6891   3.382   3.450   3.856
45471W        W 6892  21.705  24.598  11.907
45472W        W 6893   1.365  16.604  11.096
45473W        W 6894  36.996  13.329  12.043
45474W        W 6895  22.682   9.298  14.492
45475W        W 6896  12.302  21.603   1.216
45476W        W 6897  32.021   5.888   0.793
45477W        W 6898   3.830  21.737  12.003
45478W        W 6899   3.805   9.346  14.782
45479W        W 6900  11.254  31.903  12.908
45480W        W 6901  15.588  28.021   3.682
45481W        W 6902   0.300  12.327   3.670
45482W        W 6903  42.348  14.765  10.899
45483W        W 6904  44.923  24.989   3.686
45484W        W 6905   3.899   7.287   3.653
45485W        W 6906  31.918  42.950   2.809
45486W        W 6907  13.768   6.321   2.893
45487W        W 6908  13.802  25.983   0.735
45488W        W 6909  43.401  30.125   2.743
45489W        W 6910  34.496  44.902  12.018
45490W        W 6911   5.370  38.444  11.430
45491W        W 6912  24.037  34.938   3.157
45492W        W 6913  27.523  23.117   1.210
45493W        W 6914  13.710  34.540   3.810
45494W        W 6915   1.756  22.722  13.488
45495W        W 6916   7.359   4.741   0.293
45496W        W 6917  15.296  42.873  11.460
45497W        W 6918  30.024  36.090  12.948
45498W        W 6919  17.169  31.422  11.603
45499W        W 6920  27.485  16.206   2.845
45500W        W 6921  11.806  16.773  13.489
45501W        W 6922  31.453  24.576  14.433
45502W        W 6923   7.200  13.203   2.199
45503W        W 6924   4.820  43.394   0.942
45504W        W 6925   4.944  25.972  13.420
45505W        W 6926  23.620  26.968  10.965
45506W        W 6927  26.499  42.000   4.161
45507W        W 6928  40.518  17.798  13.450
45508W        W 6929  21.704   8.249   4.177
45509W        W 6930  16.137  25.670  13.882
45510W        W 6931  15.091  17.085  11.557
45511W        W 6932  17.125  33.997   2.341
45512W        W 6933  13.319  30.477   0.926
45513W        W 6934   5.806  20.231   1.930
45514W        W 6935  17.247  43.489   2.291
45515W        W 6936  40.822  41.949   4.184
45516W        W 6937   6.370   3.953   0.478
45517W        W 6938  38.368  15.739   2.238
45518W        W 6939  18.184  16.138  10.506
45519W        W 6940   9.254  41.494   1.285
45520W        W 6941  16.789   8.679   4.275
45521W        W 6942  20.654  12.662   3.359
45522W        W 6943  18.660   4.810   2.264
45523W        W 6944  22.253  30.575  13.377
45524W        W 6945  40.941  31.149   1.869
45525W        W 6946  38.391   8.769  13.794
45526W        W 6947  19.067  13.138  12.437
45527W        W 6948  21.247  11.362  12.462
45528W        W 6949  29.462  28.653  12.470
45529W        W 6950  16.768   3.341   4.624
45530W        W 6951  19.121  17.719   4.827
45531W        W 6952  35.523   9.362   1.432
45532W        W 6953  42.918  32.104   5.149
45533W        W 6954   3.371  38.868  10.519
45534W        W 6955  34.048  30.966  13.384
45535W        W 6956   0.963  37.435   2.337
45536W        W 6957  24.615  43.353   4.146
45537W        W 6958  25.975  29.114  14.015
45538W        W 6959  42.482  36.426  13.336
45539W        W 6960  27.122  35.446  12.438
45540W        W 6961  36.387  28.078  14.998
45541W        W 6962  31.152   8.837  14.012
45542W        W 6963  11.713  25.012   9.991
45543W        W 6964  41.432  34.950  11.444
45544W        W 6965  14.275  31.436  13.985
45545W        W 6966   7.400  29.534   0.245
45546W        W 6967  13.718   4.235   1.300
45547W        W 6968   2.725  15.161   3.668
45548W        W 6969  16.645  12.235  10.583
45549W        W 6970   1.867  23.523   4.837
45550W        W 6971  40.021   2.834   1.373
45551W        W 6972   1.744  12.742   2.827
45552W        W 6973  11.669  20.742   4.136
45553W        W 6974   0.981  16.196   1.359
45554W        W 6975   4.349  15.700   1.384
45555W        W 6976  41.477  18.623  14.433
45556W        W 6977  39.320  26.009  14.973
45557W        W 6978  35.571  30.930   4.354
45558W        W 6979  42.775  20.680  14.882
45559W        W 6980  41.488   0.820  12.063
45560W        W 6981  16.699  24.711  14.866
45561W        W 6982  32.444   7.702   2.841
45562W        W 6983  22.721  33.930   4.779
45563W        W 6984  20.110  28.182  12.480
45564W        W 6985   3.713  13.145   0.912
45565W        W 6986  44.476   2.869  10.060
45566W        W 6987  28.664  44.425   1.737
45567W        W 6988   1.310   7.697   4.271
45568W        W 6989   0.380  38.420  11.127
45569W        W 6990  25.012   4.856  14.836
45570W        W 6991  41.477  35.035   4.320
45571W        W 6992  35.024  38.074   4.346
45572W        W 6993  26.986  40.918  10.958
45573W        W 6994  20.256   4.767  11.107
45574W        W 6995  25.059  25.701   4.621
45575W        W 6996  38.391  27.466  11.855
45576W        W 6997   0.258  36.465  14.290
45577W        W 6998  33.045  10.743  14.452
45578W        W 6999   3.741  26.166  10.063
45579W        W 7000  40.543  39.441   4.763
45580W        W 7001  29.114  39.984   4.658
45581W        W 7002  10.177  42.966  14.952
45582W        W 7003  44.288  22.113   3.234
45583W        W 7004  39.854  25.605  11.891
45584W        W 7005  25.129  41.530  14.342
45585W        W 7006  30.633  10.351   3.751
45586W        W 7007   9.869  31.476   4.805
45587W        W 7008  43.002  29.930  11.586
45588W        W 7009   6.206  37.973   5.212
45589W        W 7010  26.626  29.924   2.672
45590W        W 7011   7.785  34.114   0.783
45591W        W 7012  29.618   0.913   4.772
45592W        W 7013  16.159  13.173   2.213
45593W        W 7014  11.134  39.928   3.211
45594W        W 7015  36.590  35.010   5.119
45595W        W 7016  31.033  35.018   1.289
45596W        W 7017  35.514   9.369   3.749
45597W        W 7018  31.481  29.516   1.909
45598W        W 7019   1.413  30.077  14.920
45599W        W 7020  14.602  25.681   2.313
45600W        W 7021  44.294  34.017  11.556
45601W        W 7022   1.276   9.389  11.127
45602W        W 7023  41.363  11.629  14.482
45603W        W 7024  12.739  42.469   4.827
45604W        W 7025  20.236  12.698   3.174
45605W        W 7026  37.838  31.992   0.866
45606W        W 7027  30.656  24.626   1.240
45607W        W 7028  15.160  26.679  11.926
45608W        W 7029  39.553   1.444   2.184
45609W        W 7030   1.348  12.773  12.428
45610W        W 7031  42.496  19.652   3.811
45611W        W 7032  22.541  10.713  11.983
45612W        W 7033   5.763  19.768  14.945
45613W        W 7034   7.188  18.652   3.744
45614W        W 7035  34.875   6.692   4.272
45615W        W 7036  31.958  23.716  12.054
45616W        W 7037  44.275  11.234  14.379
45617W        W 7038  30.959   9.771  11.906
45618W        W 7039  12.644  38.409   2.671
45619W        W 7040  24.659  31.641  14.423
45620W        W 7041  19.278  10.144  12.404
45621W        W 7042  26.995   5.892  13.891
45622W        W 7043  24.642   4.247   2.864
45623W        W 7044  33.491  39.401  10.058
45624W        W 7045  15.318  39.542  10.532
45625W        W 7046  22.078   0.798   0.464
45626W        W 7047   6.749   1.455   4.776
45627W        W 7048  38.543   3.346  13.963
45628W        W 7049  12.268  35.463  12.460
45629W        W 7050  27.466  32.581  14.920
45630W        W 7051  40.891  40.894  10.622
45631W        W 7052  21.608  19.048  13.502
45632W        W 7053  43.865  33.885   2.875
45633W        W 7054  29.490  44.759   0.271
45634W        W 7055  26.194  19.254  13.945
45635W        W 7056  26.182  43.013  14.777
45636W        W 7057  34.386  11.234  10.995
45637W        W 7058  42.311  11.855  14.474
45638W        W 7059  16.812  11.772   3.836
45639W        W 7060  26.110  33.046   1.899
45640W        W 7061   8.810  16.268   4.738
45641W        W 7062   8.191  31.458   3.687
45642W        W 7063  23.574  38.491  13.378
45643W        W 7064  36.872  42.465   4.689
45644W        W 7065  44.876  42.982  11.389
45645W        W 7066  16.297  25.701  12.863
45646W        W 7067  28.634  37.044  10.890
45647W        W 7068  20.167   3.427  13.342
45648W        W 7069   0.769   4.348  14.388
45649W        W 7070  27.630   4.833   4.705
45650W        W 7071   5.730  37.448  14.855
45651W        W 7072  17.753   4.267  13.466
45652W        W 7073  10.807  29.993  14.374
45653W        W 7074  20.157   6.733   2.662
45654W        W 7075  36.479  18.742   0.274
45655W        W 7076   5.808  37.993   3.651
45656W        W 7077  30.931  43.886  11.989
45657W        W 7078  18.591  38.347  12.925
45658W        W 7079  30.644  15.145   1.255
45659W        W 7080  14.658   2.936  14.031
45660W        W 7081  15.259   1.737   4.698
45661W        W 7082   3.854  10.737  14.348
45662W        W 7083  44.848  37.857   0.384
45663W        W 7084  24.595  25.488   4.608
45664W        W 7085   6.182  11.355   4.242
45665W        W 7086  15.651  34.924   2.389
45666W        W 7087   1.329   8.195   1.864
45667W        W 7088  33.578  20.223   3.345
45668W        W 7089  35.484  42.453  11.397
45669W        W 7090  28.437   7.833  10.914
45670W        W 7091  22.576  12.340  14.888
45671W        W 7092   8.165  33.401   0.382
45672W        W 7093  27.642  41.949  13.541
45673W        W 7094  18.588   1.278  14.958
45674W        W 7095  38.970   6.300  12.072
45675W        W 7096  27.605  23.618   3.304
45676W        W 7097  36.516  31.906   4.155
45677W        W 7098  44.896   7.300   1.361
45678W        W 7099  38.968  12.142  10.625
45679W        W 7100  25.174  22.058  11.407
45680W        W 7101  15.324  35.090  14.904
45681W        W 7102  35.374   9.837  10.626
45682W        W 7103  34.387  31.461   0.263
45683W        W 7104   9.854  16.231   0.728
45684W        W 7105  11.218  11.251   1.716
45685W        W 7106  30.982   4.800   4.335
45686W        W 7107  16.732   0.899   2.251
45687W        W 7108  22.141   9.214   4.826
45688W        W 7109   2.942  42.921  12.914
45689W        W 7110  11.206  37.914  13.417
45690W        W 7111   8.895  26.526  14.360
45691W        W 7112  29.495  30.125  10.973
45692W        W 7113   3.460  22.089   1.398
45693W        W 7114  23.648   1.482   1.809
45694W        W 7115   5.717  43.328   1.433
45695W        W 7116   2.767  24.578   4.342
45696W        W 7117  18.663   9.278   0.310
45697W        W 7118  21.722   3.336  12.493
45698W        W 7119  37.964   9.757   4.178
45699W        W 7120  35.374  20.753   3.236
45700W        W 7121  22.502  40.388  11.017
45701W        W 7122  15.201   7.756  12.510
45702W        W 7123   4.282  24.192   9.974
45703W        W 7124   4.798  40.358  14.807
45704W        W 7125   6.255  42.778  14.850
45705W        W 7126  37.863  17.637  11.428
45706W        W 7127  24.607  24.082   3.855
45707W        W 7128  22.668  40.017  13.034
45708W        W 7129  30.147  27.151   1.935
45709W        W 7130  40.943  17.772  13.891
45710W        W 7131  39.378  37.998  13.960
45711W        W 7132   8.260  18.054   3.177
45712W        W 7133  19.275  18.200  12.002
45713W        W 7134   9.276  22.601   2.395
45714W        W 7135   9.830  42.973  10.523
45715W        W 7136  38.452  36.952   2.229
45716W        W 7137  16.740   3.777   3.376
45717W        W 7138  33.131   8.763  13.946
45718W        W 7139  32.582  37.467  10.595
45719W        W 7140  17.678  15.155  12.561
45720W        W 7141   1.783  32.955  14.834
45721W        W 7142  41.302  28.001  10.998
45722W        W 7143  13.322  10.715  11.097
45723W        W 7144   3.819  27.565  13.547
45724W        W 7145  27.483  15.097  11.429
45725W        W 7146  40.893   2.463   1.749
45726W        W 7147   8.378   6.769   4.221
45727W        W 7148  24.197   4.845   2.414
45728W        W 7149  37.036  18.548   3.367
45729W        W 7150   1.471  20.138  14.781
45730W        W 7151  22.076  25.582   4.258
45731W        W 7152   5.858  35.561   1.277
45732W        W 7153  40.419  37.925  10.547
45733W        W 7154  10.176  13.653   5.259
45734W        W 7155   6.838   5.311  12.965
45735W        W 7156  28.048   6.848  14.917
45736W        W 7157  28.086  36.425   2.702
45737W        W 7158   1.441  39.854   3.723
45738W        W 7159  25.700   6.306  12.397
45739W        W 7160  41.389  29.121  12.498
45740W        W 7161   9.791  13.658  11.036
45741W        W 7162   4.359  44.308   5.723
45742W        W 7163   7.312  35.513   4.116
45743W        W 7164  29.994  44.389   1.899
45744W        W 7165  16.220  18.775   3.651
45745W        W 7166  40.938   8.850  12.447
45746W        W 7167  12.157  13.735  13.405
45747W        W 7168  24.209   9.658  12.541
45748W        W 7169  19.614  30.562  14.764
45749W        W 7170  17.293  34.083   3.296
45750W        W 7171  22.052  25.125  14.852
45751W        W 7172  38.363  20.600   1.417
45752W        W 7173  18.193  30.077   4.609
45753W        W 7174  40.020  16.613  10.129
45754W        W 7175  17.670  22.697   4.622
45755W        W 7176  16.572  14.130   2.354
45756W        W 7177  11.359   9.249  13.885
45757W        W 7178  35.963  25.704  13.380
45758W        W 7179  20.583   4.878   1.330
45759W        W 7180  13.657   6.813   4.271
45760W        W 7181  33.971  27.002   0.896
45761W        W 7182   7.742  34.573   0.404
45762W        W 7183  17.780  27.173   0.439
45763W        W 7184  40.487  33.600   4.314
45764W        W 7185  20.066  42.357   2.252
45765W        W 7186   6.792  23.718   0.299
45766W        W 7187   5.879   7.835  13.891
45767W        W 7188  32.409  12.131   4.325
45768W        W 7189   3.810   6.406  14.015
45769W        W 7190  12.676  17.212  11.899
45770W        W 7191   9.658  25.514  11.982
45771W        W 7192  39.420  12.698   2.750
45772W        W 7193  30.462   1.481   2.701
45773W        W 7194   1.305   6.751   0.833
45774W        W 7195   1.952  20.235  14.386
45775W        W 7196   4.924   9.650  14.906
45776W        W 7197  32.027   7.335   4.185
45777W        W 7198   6.229  28.627   4.141
45778W        W 7199  30.461   8.888  13.965
45779W        W 7200  25.547  33.967  12.043
45780W        W 7201  44.428  30.453  11.549
45781W        W 7202  33.895  37.971   3.194
45782W        W 7203   0.473  30.163  10.611
45783W        W 7204  19.208   1.379  10.992
45784W        W 7205   9.212  33.617   4.193
45785W        W 7206  12.201  24.196   1.223
45786W        W 7207  38.922   1.969  13.547
45787W        W 7208   1.273  15.259  12.371
45788W        W 7209  40.916   5.836  10.965
45789W        W 7210  36.392  29.448   0.253
45790W        W 7211  12.149  28.470  12.543
45791W        W 7212  24.028   6.717  10.484
45792W        W 7213   2.245  24.223   3.209
45793W        W 7214  19.120  23.637  14.856
45794W        W 7215  16.115  17.764   2.861
45795W        W 7216  44.003  40.481   0.761
45796W        W 7217  23.702   9.695   4.305
45797W        W 7218  16.795  38.335  13.396
45798W        W 7219  23.023  11.298   2.372
45799W        W 7220   6.370  38.947  11.930
45800W        W 7221  32.991  35.486   0.748
45801W        W 7222   7.772  28.650  12.441
45802W        W 7223  30.510  21.073   5.115
45803W        W 7224  11.326  22.039  12.024
45804W        W 7225  32.002  29.547  13.444
45805W        W 7226  34.381   0.370   2.719
45806W        W 7227  41.887   3.395   4.162
45807W        W 7228  10.833   7.212  11.411
45808W        W 7229  40.334  36.393  14.285
45809W        W 7230  30.567  39.843   4.236
45810W        W 7231  41.912  35.444   2.323
45811W        W 7232  11.184  35.503   1.804
45812W        W 7233   9.854  31.438  12.048
45813W        W 7234  41.851  26.689   0.798
45814W        W 7235  25.579   1.764   0.860
45815W        W 7236   8.703   3.850   4.787
45816W        W 7237  29.574  23.988  13.867
45817W        W 7238  21.723  33.957  13.459
45818W        W 7239  38.435  10.211   0.935
45819W        W 7240  17.230   9.379  14.942
45820W        W 7241   0.259   0.300  13.050
45821W        W 7242  21.076   7.194   2.740
45822W        W 7243  40.034   6.713   3.189
45823W        W 7244  22.559  44.395   0.850
45824W        W 7245  38.365  31.507   4.322
45825W        W 7246   6.217  25.579   0.768
45826W        W 7247  11.331  14.702   3.740
45827W        W 7248   8.719   5.796  13.809
45828W        W 7249  20.110   2.891  13.518
45829W        W 7250  40.357  41.886  12.952
45830W        W 7251  35.439  30.457   4.700
45831W        W 7252  33.409  14.803  12.551
45832W        W 7253  14.209  27.643  11.864
45833W        W 7254  26.160  18.290  11.062
45834W        W 7255  39.426  30.151   0.832
45835W        W 7256  10.860  30.928  11.876
45836W        W 7257  37.057   1.883   5.716
45837W        W 7258  14.799  31.947  13.981
45838W        W 7259  24.624   0.943  10.989
45839W        W 7260  23.143  34.988   4.797
45840W        W 7261   7.768  20.156  12.358
45841W        W 7262  15.595  12.248  12.059
45842W        W 7263  20.667  40.846  10.493
45843W        W 7264  20.739   4.237   4.750
45844W        W 7265  19.065  14.615  12.344
45845W        W 7266  42.401  14.790  10.437
45846W        W 7267  28.960  42.294  14.359
45847W        W 7268  27.007  20.172   2.785
45848W        W 7269  37.527  16.763  14.461
45849W        W 7270  28.585  18.245   3.311
45850W        W 7271  24.221  15.219  10.998
45851W        W 7272   9.295   2.340   2.706
45852W        W 7273   0.819  34.612  11.576
45853W        W 7274  18.577  19.571   2.803
45854W        W 7275   6.808  28.600   3.716
45855W        W 7276  12.660  10.299  11.085
45856W        W 7277   4.701  36.025   1.442
45857W        W 7278  43.999  33.899   0.296
45858W        W 7279  27.132  14.707   4.280
45859W        W 7280  23.186  40.800   0.793
45860W        W 7281  11.753  44.987  14.809
45861W        W 7282   9.326   3.435  14.946
45862W        W 7283  15.086   5.424   3.150
45863W        W 7284  35.020  27.072  10.454
45864W        W 7285  21.684  43.400  14.391
45865W        W 7286  15.264  30.414   1.705
45866W        W 7287  20.523  31.414   2.827
45867W        W 7288   3.305   5.688  14.319
45868W        W 7289  28.503  10.748  10.977
45869W        W 7290  26.177  27.669  14.776
45870W        W 7291   4.415   6.258   4.212
45871W        W 7292  43.853  13.200   1.258
45872W        W 7293   0.965  12.211  11.912
45873W        W 7294  13.794  32.961   2.197
45874W        W 7295  10.376   6.769   1.404
45875W        W 7296  17.735  40.824  14.981
45876W        W 7297   5.260   0.254   1.816
45877W        W 7298  39.524   5.906   2.737
45878W        W 7299  11.309  32.420  14.815
45879W        W 7300  37.558  40.476   1.739
45880W        W 7301   1.852   3.842   2.387
45881W        W 7302  10.872   8.877   2.883
45882W        W 7303  13.219  41.352   4.809
45883W        W 7304   3.727   1.336   0.272
45884W        W 7305  14.146  20.579  13.461
45885W        W 7306  19.630   8.183  13.509
45886W        W 7307   0.867   4.339   4.815
45887W        W 7308   8.838  20.620  12.049
45888W        W 7309  42.813  43.995  11.595
45889W        W 7310  37.413  36.528  12.415
45890W        W 7311  26.669  24.549  14.331
45891W        W 7312  11.843   3.348   4.748
45892W        W 7313  35.524   2.745  14.849
45893W        W 7314  44.335  19.538  11.885
45894W        W 7315  35.038   5.836  12.082
45895W        W 7316  32.433   5.414   1.764
45896W        W 7317  31.130  21.723  11.945
45897W        W 7318  30.493  32.126  13.370
45898W        W 7319  17.112   7.692   5.085
45899W        W 7320  39.508  32.062  12.950
45900W        W 7321  36.523   8.898   0.441
45901W        W 7322  23.701  29.588   2.744
45902W        W 7323   9.836   5.750  13.505
45903W        W 7324  30.005  10.379  14.320
45904W        W 7325   4.279  29.963   2.791
45905W        W 7326  42.509  42.819  13.391
45906W        W 7327  20.669   1.284  11.032
45907W        W 7328  25.648  30.614   2.774
45908W        W 7329  43.899  29.513   4.619
45909W        W 7330  44.456   1.915  13.837
45910W        W 7331  22.567  24.035  12.996
45911W        W 7332  29.957  28.999   2.689
45912W        W 7333  35.512   8.352  14.878
45913W        W 7334  11.646  19.279   2.783
45914W        W 7335   4.336  43.481  11.427
45915W        W 7336   7.265  33.532   1.892
45916W        W 7337  32.632  32.080   4.705
45917W        W 7338  40.969  34.572   4.795
45918W        W 7339   9.831  41.358  12.539
45919W        W 7340  20.233   9.738  12.378
45920W        W 7341  17.275  22.551  10.140
45921W        W 7342  31.540  35.546   3.177
45922W        W 7343  18.108   1.329  11.925
45923W        W 7344  26.578  39.345   4.799
45924W        W 7345  31.900  20.262   4.746
45925W        W 7346  28.467  15.661  14.783
45926W        W 7347  25.680  37.345   2.201
45927W        W 7348  41.462   0.448  12.383
45928W        W 7349   8.395  12.249   0.329
45929W        W 7350   2.731  31.897   1.328
45930W        W 7351  10.330   1.409  13.492
45931W        W 7352  37.976  40.871  14.304
45932W        W 7353  17.694  42.486   1.789
45933W        W 7354   2.922  17.204   2.364
45934W        W 7355   1.322  42.785  11.916
45935W        W 7356   9.707  38.830  13.005
45936W        W 7357  43.354  34.000  11.921
45937W        W 7358  13.667   1.341  11.120
45938W        W 7359  18.280   0.909  13.524
45939W        W 7360  14.680   7.792  13.489
45940W        W 7361  35.928   7.893   1.243
45941W        W 7362   5.336  25.993   1.342
45942W        W 7363  40.408   2.443   3.833
45943W        W 7364  43.900  26.592  10.570
45944W        W 7365  19.254  34.401  13.872
45945W        W 7366  41.423  15.745  13.528
45946W        W 7367  29.060   2.459  14.338
45947W        W 7368  29.576  40.404   1.916
45948W        W 7369  24.636  16.779  13.315
45949W        W 7370   9.361  27.024   3.298
45950W        W 7371  35.019   9.229   1.846
45951W        W 7372   3.777   8.851   2.746
45952W        W 7373  39.392  18.718  11.457
45953W        W 7374  35.979  43.813   0.934
45954W        W 7375  39.447  15.259   4.822
45955W        W 7376  44.473  15.715   2.232
45956W        W 7377  37.534   7.860  12.974
45957W        W 7378  40.032   9.314  11.969
45958W        W 7379  38.982  25.161  12.997
45959W        W 7380  11.263   7.261   4.196
45960W        W 7381   4.867  15.205   2.893
45961W        W 7382  17.213   7.206   0.831
45962W        W 7383  44.811  10.665  14.445
45963W        W 7384  17.228   4.750  11.534
45964W        W 7385  39.979   1.795  13.542
45965W        W 7386   6.757  36.072  12.405
45966W        W 7387  21.682   4.352  11.081
45967W        W 7388  23.009   2.928   1.333
45968W        W 7389  23.721  38.954   1.743
45969W        W 7390  36.379  26.523  12.937
45970W        W 7391  31.424   7.747   3.331
45971W        W 7392  12.744  35.107  11.431
45972W        W 7393   0.776  44.339  13.957
45973W        W 7394  14.194  32.474   3.384
45974W        W 7395  20.191  29.505   2.303
45975W        W 7396   7.835  30.605  13.483
45976W        W 7397  33.450  40.897  10.470
45977W        W 7398   5.716  31.571  14.897
45978W        W 7399  41.872  41.960  12.929
45979W        W 7400   2.269  32.998   4.824
45980W        W 7401   4.336   9.665  14.862
45981W        W 7402   8.657  25.620   3.790
45982W        W 7403   2.962  34.393   3.666
45983W        W 7404  28.585  21.712   2.723
45984W        W 7405  19.616  32.131  13.906
45985W        W 7406   8.743  38.932   1.368
45986W        W 7407  11.360   9.231  12.858
45987W        W 7408  27.135  41.484   2.335
45988W        W 7409  40.054   4.308  10.608
45989W        W 7410  33.607  20.252   4.772
45990W        W 7411  29.069  17.656  11.420
45991W        W 7412  33.887  22.089   2.816
45992W        W 7413   4.731  37.495  10.025
45993W        W 7414  36.464  16.288   4.617
45994W        W 7415  28.123  28.519  10.631
45995W        W 7416  23.032  15.267   3.271
45996W        W 7417   5.737  43.986  10.903
45997W        W 7418  13.750  26.652   0.750
45998W        W 7419   3.307   4.308   1.289
45999W        W 7420  11.148  22.114   1.213
46000W        W 7421  25.615  25.643  13.956
46001W        W 7422  43.784  20.172   2.255
46002W        W 7423  30.026  16.281  10.594
46003W        W 7424  29.493   6.739  11.453
46004W        W 7425  29.973  24.052   2.760
46005W        W 7426  18.230  22.594  13.861
46006W        W 7427   9.856  25.586   1.385
46007W        W 7428   9.748  17.306  12.033
46008W        W 7429  16.274  26.547   3.637
46009W        W 7430  29.569  20.748   1.273
46010W        W 7431  18.555  24.566   1.866
46011W        W 7432  23.521   5.807   1.369
46012W        W 7433  19.634  28.075   2.205
46013W        W 7434  44.300  44.932  13.369
46014W        W 7435   4.256  37.380   2.877
46015W        W 7436  17.685  38.567  11.491
46016W        W 7437   8.830  13.163  12.917
46017W        W 7438  27.461  12.333   0.733
46018W        W 7439  11.284  21.127  14.499
46019W        W 7440  42.886   4.212  10.575
46020W        W 7441  25.164  11.183   0.805
46021W        W 7442  36.484  32.069   3.366
46022W        W 7443  25.070  12.815  13.856
46023W        W 7444  19.146  34.009   2.753
46024W        W 7445  24.118  35.090  11.576
46025W        W 7446  10.792   5.348   3.329
46026W        W 7447  26.120  21.216  13.960
46027W        W 7448  10.249  12.728   3.383
46028W        W 7449  22.037  31.647  13.995
46029W        W 7450   7.722  22.038  12.987
46030W        W 7451   3.892  27.045  10.901
46031W        W 7452  25.558  12.824   5.107
46032W        W 7453   7.778   7.713  11.038
46033W        W 7454  39.315  16.257  12.395
46034W        W 7455  39.931  17.210   1.438
46035W        W 7456  13.131  19.643   2.203
46036W        W 7457  40.856   9.831  12.997
46037W        W 7458   5.227  41.951   0.875
46038W        W 7459  15.321   8.281   4.782
46039W        W 7460  23.595  28.131   0.348
46040W        W 7461  34.587  33.520   1.708
46041W        W 7462  39.908  21.106   3.328
46042W        W 7463  39.949   2.953   2.814
46043W        W 7464  41.376  25.468  12.531
46044W        W 7465  19.771  30.089  10.441
46045W        W 7466  22.119  18.221   2.797
46046W        W 7467  28.082  34.882   0.928
46047W        W 7468  28.934  28.483  13.839
46048W        W 7469  42.944   8.761   0.819
46049W        W 7470   9.378  28.530  12.846
46050W        W 7471  39.520  42.917  11.571
46051W        W 7472  14.778   8.654  11.381
46052W        W 7473  44.316  17.740  11.106
46053W        W 7474  24.716   4.313  13.927
46054W        W 7475  34.465  23.162   1.329
46055W        W 7476  20.526   5.791  10.020
46056W        W 7477  21.200  42.475  13.854
46057W        W 7478   2.245  28.019   5.104
46058W        W 7479  14.702  29.449   9.560
46059W        W 7480  13.132  10.678   4.697
46060W        W 7481   2.440  25.203  14.364
46061W        W 7482  25.700  22.594  13.367
46062W        W 7483  19.553  12.228   3.789
46063W        W 7484  29.101  44.819  14.467
46064W        W 7485  22.068   9.763  12.351
46065W        W 7486   7.751  15.676   3.667
46066W        W 7487  42.480  27.621   3.848
46067W        W 7488   7.753   6.762  10.579
46068W        W 7489   9.772  23.172   4.790
46069W        W 7490   8.708  36.867  13.800
46070W        W 7491  29.133  29.948  13.482
46071W        W 7492  20.250  31.915   0.378
46072W        W 7493  13.708  13.817  14.839
46073W        W 7494  43.852  27.960  12.004
46074W        W 7495  17.086  33.433   3.862
46075W        W 7496  34.978  11.750   4.184
46076W        W 7497  21.710  27.044  14.357
46077W        W 7498  11.761  11.185   2.755
46078W        W 7499  17.128  37.954  13.811
46079W        W 7500  41.518   7.209   2.403
46080W        W 7501  11.295  34.487  13.331
46081W        W 7502   1.459  23.081   0.932
46082W        W 7503  19.674  12.119   2.373
46083W        W 7504  40.876   6.352  14.377
46084W        W 7505  23.734  23.051  14.382
46085W        W 7506  40.525  36.508   2.335
46086W        W 7507  14.100  44.445  10.507
46087W        W 7508  38.984  34.920   4.121
46088W        W 7509  37.525  16.096  10.061
46089W        W 7510  29.643   6.352   5.210
46090W        W 7511  38.376   8.269  13.446
46091W        W 7512  33.411  42.425  14.367
46092W        W 7513  21.592  12.744  11.607
46093W        W 7514   1.868   2.471  14.341
46094W        W 7515  35.960  18.148   4.342
46095W        W 7516  23.622   7.394   3.187
46096W        W 7517   3.381  20.272   1.427
46097W        W 7518  10.866  39.989  10.411
46098W        W 7519  40.962   2.380  14.428
46099W        W 7520  37.029  15.616   2.896
46100W        W 7521   8.355  18.615  13.427
46101W        W 7522   3.293   4.872   0.349
46102W        W 7523   4.719  11.833   4.637
46103W        W 7524   4.312  33.090  10.610
46104W        W 7525  30.976  37.529   2.760
46105W        W 7526  37.915  12.348   2.678
46106W        W 7527  38.512  42.928  14.302
46107W        W 7528  42.434  43.010  13.023
46108W        W 7529  21.622  39.558   1.370
46109W        W 7530   2.728  13.769   0.927
46110W        W 7531  28.975  36.057  12.996
46111W        W 7532   6.856  21.563  14.372
46112W        W 7533   4.941  15.698  11.111
46113W        W 7534  38.374  19.683   2.883
46114W        W 7535   8.317  26.044   3.812
46115W        W 7536  44.852  16.754  11.605
46116W        W 7537  38.399  37.890  14.477
46117W        W 7538   3.896   5.781  13.392
46118W        W 7539  28.106   5.363   2.292
46119W        W 7540  34.528  36.403  13.978
46120W        W 7541  21.578  28.993  11.549
46121W        W 7542  14.214  38.563  14.883
46122W        W 7543  18.631  35.071  11.423
46123W        W 7544  22.740  34.376   1.433
46124W        W 7545  21.208  32.989  12.483
46125W        W 7546  30.925   6.886   1.918
46126W        W 7547  29.949  33.091  13.928
46127W        W 7548  38.943   0.871   3.361
46128W        W 7549  43.874  19.627  14.884
46129W        W 7550  39.482   8.713  13.836
46130W        W 7551  18.661  23.034  14.307
46131W        W 7552  26.973  37.388   1.799
46132W        W 7553  32.414  23.157   0.843
46133W        W 7554  17.788   2.321   3.277
46134W        W 7555  36.501   0.928  12.355
46135W        W 7556   0.787  28.967   1.763
46136W        W 7557   6.775  18.055  13.435
46137W        W 7558  20.626  24.483   0.313
46138W        W 7559  29.947  22.103  14.965
46139W        W 7560  30.135  21.207   2.770
46140W        W 7561  15.180  12.207  10.458
46141W        W 7562  40.054  32.460  11.084
46142W        W 7563  10.744  23.200  14.776
46143W        W 7564   8.207  36.937   1.371
46144W        W 7565  22.167  18.208   3.218
46145W        W 7566  18.238  26.034  12.383
46146W        W 7567  33.916   6.370  14.003
46147W        W 7568  37.560  33.940  14.769
46148W        W 7569   5.208  12.339  11.045
46149W        W 7570  38.880  29.017   1.790
46150W        W 7571  42.510  35.519   4.823
46151W        W 7572  24.676  35.374  11.876
46152W        W 7573  28.146   0.959  14.293
46153W        W 7574   6.687  22.545   4.661
46154W        W 7575   0.893   6.737  10.554
46155W        W 7576  21.102  16.101  12.828
46156W        W 7577   6.805  38.828  14.361
46157W        W 7578  10.668   2.265   2.258
46158W        W 7579  33.999  43.991  10.526
46159W        W 7580  17.667  30.024   4.159
46160W        W 7581  30.551  43.462   1.726
46161W        W 7582  36.013   7.894  12.515
46162W        W 7583  44.912  15.676   3.332
46163W        W 7584  15.229  12.809  12.487
46164W        W 7585  41.858  33.583   1.695
46165W        W 7586  32.463  36.551  14.494
46166W        W 7587   7.722  26.579   1.741
46167W        W 7588  24.994  14.332   1.728
46168W        W 7589  14.790  35.420   3.695
46169W        W 7590  16.124  44.760   1.379
46170W        W 7591  24.638   2.415   1.844
46171W        W 7592  37.561  34.546  12.492
46172W        W 7593  23.169  22.188   1.931
46173W        W 7594  11.718   9.366  11.036
46174W        W 7595  36.434  15.759  12.381
46175W        W 7596   8.243  32.447  11.608
46176W        W 7597  13.248  22.152  11.611
46177W        W 7598  34.920  39.535   3.652
46178W        W 7599  31.409   5.416   1.832
46179W        W 7600  27.512  23.027  12.050
46180W        W 7601  12.777  10.782   1.893
46181W        W 7602   0.928  41.339   0.846
46182W        W 7603  24.598  14.600  11.588
46183W        W 7604  31.025   2.907   0.381
46184W        W 7605  36.564  26.027   2.862
46185W        W 7606  42.854   6.258   5.123
46186W        W 7607  25.158  23.628  14.825
46187W        W 7608  41.458  17.111  13.796
46188W        W 7609  30.640  44.320   2.321
46189W        W 7610  41.439  30.977  12.494
46190W        W 7611   0.306  28.589   3.382
46191W        W 7612   2.277  41.527   2.745
46192W        W 7613  20.162   7.298  14.445
46193W        W 7614  17.766  14.710   3.712
46194W        W 7615  19.267   4.208  10.581
46195W        W 7616  38.404  42.972  13.847
46196W        W 7617  41.886  37.049  11.964
46197W        W 7618   1.793   7.364  10.992
46198W        W 7619  42.311  22.012   3.248
46199W        W 7620  31.085  34.920  14.991
46200W        W 7621   6.184  13.234   3.353
46201W        W 7622  25.029  19.759   0.393
46202W        W 7623  15.760  36.002  10.545
46203W        W 7624  16.618  19.268   3.685
46204W        W 7625  21.105  27.034  12.854
46205W        W 7626  23.691  18.566  12.543
46206W        W 7627  43.323  16.795   4.200
46207W        W 7628  43.352   3.399  11.880
46208W        W 7629  24.976  23.154   1.298
46209W        W 7630  23.201   7.385  14.900
46210W        W 7631  41.502   3.240  13.530
46211W        W 7632  11.323  43.370   4.642
46212W        W 7633  25.685  36.393  13.886
46213W        W 7634  25.971  18.578  14.415
46214W        W 7635  30.088   1.919   2.282
46215W        W 7636  14.814  40.364   3.315
46216W        W 7637   3.860  30.147  12.929
46217W        W 7638  37.568  14.326  12.404
46218W        W 7639  24.521  32.470  12.011
46219W        W 7640  22.632  13.607  10.606
46220W        W 7641  41.317   2.253  13.367
46221W        W 7642  35.986  25.992  12.411
46222W        W 7643  37.540  35.516  14.484
46223W        W 7644  32.459   7.907   2.400
46224W        W 7645   5.421  17.116   0.857
46225W        W 7646  17.787   3.884   3.202
46226W        W 7647   2.825  41.930  11.397
46227W        W 7648  15.243  27.993  10.554
46228W        W 7649   9.335  21.562  10.472
46229W        W 7650  17.266  10.138  13.931
46230W        W 7651  18.265  27.001   3.146
46231W        W 7652   7.791  13.349  12.842
46232W        W 7653  30.988   7.885   1.403
46233W        W 7654  26.691  38.973   5.252
46234W        W 7655  15.299  11.720   4.633
46235W        W 7656  41.875  23.111  14.927
46236W        W 7657  14.318  34.985  13.506
46237W        W 7658  35.101  16.728   1.359
46238W        W 7659   6.893  13.625  10.489
46239W        W 7660   5.887  36.988   5.677
46240W        W 7661  24.659  15.299  11.512
46241W        W 7662  21.541  33.462  14.366
46242W        W 7663  44.340  15.807  14.323
46243W        W 7664  26.612  40.526  10.561
46244W        W 7665  26.596   0.870   3.642
46245W        W 7666  27.573   1.410   0.956
46246W        W 7667  22.686  23.560   5.149
46247W        W 7668  42.468  21.562  13.974
46248W        W 7669   5.707  17.752  12.886
46249W        W 7670  43.436  26.588  13.862
46250W        W 7671  10.762  19.248  14.986
46251W        W 7672   8.219  19.647   4.338
46252W        W 7673  20.147  28.099   0.831
46253W        W 7674  35.432  38.035   1.398
46254W        W 7675  13.162  39.414  12.468
46255W        W 7676  14.211  39.822   2.311
46256W        W 7677  24.483  11.664   0.753
46257W        W 7678  25.677   7.868   4.681
46258W        W 7679   1.849  17.576   3.288
46259W        W 7680  20.763  17.303   4.248
46260W        W 7681  15.746  17.166   2.353
46261W        W 7682  43.931   8.398   0.880
46262W        W 7683  23.720  15.678   0.887
46263W        W 7684  15.616  33.015   5.794
46264W        W 7685  36.563   9.371   0.808
46265W        W 7686  15.657  44.393  12.378
46266W        W 7687   4.743  29.079   1.334
46267W        W 7688  26.486  31.564  13.346
46268W        W 7689  33.086  19.598  11.893
46269W        W 7690  28.553  18.109  13.307
46270W        W 7691  42.351  28.664  14.937
46271W        W 7692  42.931  44.900   4.676
46272W        W 7693  44.872  12.237  10.566
46273W        W 7694  31.616  21.620   1.432
46274W        W 7695   1.306   4.830   1.436
46275W        W 7696  19.077   8.253   3.850
46276W        W 7697   1.434  24.208   4.121
46277W        W 7698  27.646  35.868   4.721
46278W        W 7699   5.729  16.076  14.292
46279W        W 7700  25.471  14.337  13.795
46280W        W 7701   0.748  25.552  10.460
46281W        W 7702  25.569  30.459  13.451
46282W        W 7703  14.291  39.530  13.496
46283W        W 7704   3.435  32.915  14.339
46284W        W 7705   3.897   5.239   2.331
46285W        W 7706  26.511  31.088   3.195
46286W        W 7707  13.779  20.260  13.428
46287W        W 7708   4.845  42.376  14.824
46288W        W 7709  30.610  30.137  11.050
46289W        W 7710  34.077  28.459   2.807
46290W        W 7711  42.336  20.148  14.784
46291W        W 7712   8.327   4.432  13.490
46292W        W 7713  13.349  44.458   0.397
46293W        W 7714  34.999   9.319   0.318
46294W        W 7715  27.969  41.886  10.462
46295W        W 7716   8.228   3.931   2.729
46296W        W 7717  32.493  25.079   0.302
46297W        W 7718  20.182  16.317   1.745
46298W        W 7719  33.076  16.315   1.213
46299W        W 7720  31.152  31.129   3.637
46300W        W 7721  40.448  30.967   2.219
46301W        W 7722  38.422  22.702   4.738
46302W        W 7723  12.164  39.988  14.954
46303W        W 7724  29.444   4.717   0.469
46304W        W 7725   5.303  43.457   1.434
46305W        W 7726  18.161  43.849   4.625
46306W        W 7727  44.371   8.183   4.259
46307W        W 7728  22.554  22.121  11.456
46308W        W 7729  25.477   9.792  12.534
46309W        W 7730  10.708  41.394  11.086
46310W        W 7731  21.565  19.722  13.878
46311W        W 7732  32.132  39.028   4.744
46312W        W 7733  37.517  42.452   1.825
46313W        W 7734  31.412  11.310   2.235
46314W        W 7735  38.529  32.567  13.471
46315W        W 7736  23.240  21.666   2.261
46316W        W 7737   9.882  33.616   3.810
46317W        W 7738  13.719   7.202  11.964
46318W        W 7739  30.003  20.081  12.950
46319W        W 7740   5.776  43.316  13.419
46320W        W 7741  31.131  39.819  13.822
46321W        W 7742   2.865   1.946   3.775
46322W        W 7743   4.888  38.392  11.118
46323W        W 7744  38.445  39.043  14.964
46324W        W 7745  27.691  42.392   4.805
46325W        W 7746  31.460  41.919   0.443
46326W        W 7747  28.121   3.935  14.961
46327W        W 7748   8.277  39.976   3.869
46328W        W 7749  20.164  32.617  14.761
46329W        W 7750  16.282  37.877  14.301
46330W        W 7751  16.205  12.821  13.868
46331W        W 7752  37.897  35.595   3.835
46332W        W 7753  21.694  12.211  14.826
46333W        W 7754  23.214  42.842  10.645
46334W        W 7755  41.031   9.787  14.957
46335W        W 7756   9.747  29.075  12.884
46336W        W 7757   1.475  25.993   9.941
46337W        W 7758  40.333   0.355  12.415
46338W        W 7759  44.328   3.738   3.680
46339W        W 7760  23.110  12.677   2.749
46340W        W 7761   4.297  19.735   4.187
46341W        W 7762  13.716  16.681  11.023
46342W        W 7763  29.055  30.447   2.297
46343W        W 7764   5.887   9.351   4.231
46344W        W 7765  31.421  29.596   0.924
46345W        W 7766  40.035  39.022  14.336
46346W        W 7767  33.524   0.970   4.825
46347W        W 7768  44.943  18.238   5.222
46348W        W 7769  42.395   3.269   0.889
46349W        W 7770  42.901  38.358  12.089
46350W        W 7771  43.274   8.359   1.427
46351W        W 7772   1.777   0.411  10.917
46352W        W 7773  15.677  14.714  11.603
46353W        W 7774  30.106  24.079   4.318
46354W        W 7775  33.494  26.046  13.326
46355W        W 7776  23.605   0.758   0.937
46356W        W 7777  16.681  28.678   4.790
46357W        W 7778  33.433  40.002  12.943
46358W        W 7779  41.365  16.318   3.152
46359W        W 7780  35.108  19.737   2.742
46360W        W 7781  21.236  20.564  13.404
46361W        W 7782  38.329   5.206  12.364
46362W        W 7783  35.485   9.212   0.322
46363W        W 7784  26.617  20.228   2.860
46364W        W 7785  22.065  40.925  12.523
46365W        W 7786  29.605  34.992  11.887
46366W        W 7787  32.527  43.497  10.592
46367W        W 7788  15.723  28.096  11.515
46368W        W 7789  14.119  11.151   0.411
46369W        W 7790  20.198   6.828   1.889
46370W        W 7791  32.077  23.715  13.941
46371W        W 7792   5.218  42.362   3.252
46372W        W 7793  18.630  43.970  10.552
46373W        W 7794   8.270  29.040   4.637
46374W        W 7795  20.048  35.090   0.272
46375W        W 7796   5.801  21.730  11.516
46376W        W 7797   0.789  23.045   3.251
46377W        W 7798  43.324  30.146   4.773
46378W        W 7799  13.222  21.188  10.620
46379W        W 7800   5.709  13.308   1.373
46380W        W 7801  19.109  18.265   0.938
46381W        W 7802   1.775  41.377  12.941
46382W        W 7803  12.132   4.845  11.014
46383W        W 7804   2.428  14.646  13.052
46384W        W 7805   0.981  44.859  14.854
46385W        W 7806  34.492  21.725  14.776
46386W        W 7807   7.884  21.152  13.009
46387W        W 7808  20.725  12.612  13.926
46388W        W 7809  15.786  18.199  13.446
46389W        W 7810   6.829  17.622  13.943
46390W        W 7811  42.348  27.033  11.555
46391W        W 7812  36.008   3.433  13.859
46392W        W 7813  14.130  33.033  11.586
46393W        W 7814  12.188   1.966  10.527
46394W        W 7815   9.203   1.907   2.388
46395W        W 7816   0.964  11.832   4.271
46396W        W 7817  29.991   6.363  14.939
46397W        W 7818  31.624  16.074  10.966
46398W        W 7819  10.174  33.546  13.864
46399W        W 7820   0.930  12.185   4.677
46400W        W 7821  11.805  10.706  11.949
46401W        W 7822  31.635  11.277   0.874
46402W        W 7823  40.966  29.470   2.180
46403W        W 7824  11.236  42.343   1.378
46404W        W 7825  18.219  16.683  13.007
46405W        W 7826  34.436  32.076   3.381
46406W        W 7827   8.665  26.612  11.957
46407W        W 7828  43.387  36.421  10.529
46408W        W 7829   5.756  39.379   1.451
46409W        W 7830   5.312  21.119   9.994
46410W        W 7831  35.370   3.371   2.261
46411W        W 7832   5.233   2.448   0.277
46412W        W 7833  41.817   1.395   4.701
46413W        W 7834   3.312  16.281  12.420
46414W        W 7835  41.489  31.938  13.524
46415W        W 7836  37.038   4.755  10.565
46416W        W 7837   8.855  43.897  10.479
46417W        W 7838   5.926   6.191   4.195
46418W        W 7839  14.805  15.783   4.280
46419W        W 7840  26.181  38.015  11.002
46420W        W 7841  36.941  27.155   3.304
46421W        W 7842  43.370  24.529   1.906
46422W        W 7843  27.640  19.586   4.736
46423W        W 7844  42.416  40.442  12.492
46424W        W 7845  22.572  30.064  13.333
46425W        W 7846  13.674  25.196  10.438
46426W        W 7847  10.364  36.096  13.363
46427W        W 7848  42.523  18.700  13.479
46428W        W 7849  19.141  11.258  12.423
46429W        W 7850  40.976  19.750  13.842
46430W        W 7851  16.259  21.533  12.935
46431W        W 7852  42.478  29.607  11.595
46432W        W 7853   1.940  37.432  10.571
46433W        W 7854  31.137  24.129   4.630
46434W        W 7855  27.462  30.110  10.517
46435W        W 7856  39.968  15.227  10.070
46436W        W 7857  34.422  30.948   0.825
46437W        W 7858  40.486   2.317   3.196
46438W        W 7859  10.228  24.048   2.215
46439W        W 7860  36.029  32.551  14.773
46440W        W 7861  20.140  42.910  10.599
46441W        W 7862  28.030  24.163  14.498
46442W        W 7863  14.659  18.242   2.747
46443W        W 7864  38.837  34.493  13.833
46444W        W 7865  39.034  27.040   2.356
46445W        W 7866   3.930  41.815   2.350
46446W        W 7867  12.124   7.247  10.424
46447W        W 7868  32.889  41.320   4.755
46448W        W 7869   2.226  35.948   0.320
46449W        W 7870  19.131  14.306   2.894
46450W        W 7871  16.674  44.970  12.048
46451W        W 7872  10.696  42.024   5.134
46452W        W 7873  37.982   3.779  11.539
46453W        W 7874  18.183  31.918   0.922
46454W        W 7875  36.053  44.349   1.721
46455W        W 7876  27.135  34.496   0.877
46456W        W 7877  35.457  34.418  14.862
46457W        W 7878  20.577  34.383  14.971
46458W        W 7879  26.619  38.565   9.963
46459W        W 7880   6.398  26.189   2.393
46460W        W 7881  18.786  27.152   3.185
46461W        W 7882  13.235  15.224   1.807
46462W        W 7883  32.461  37.945  12.957
46463W        W 7884   6.813  34.966   3.810
46464W        W 7885   4.418  40.839   1.879
46465W        W 7886  30.494  40.395  11.089
46466W        W 7887  43.458  12.723   4.341
46467W        W 7888  41.441  37.342   2.765
46468W        W 7889  15.276  22.244  11.928
46469W        W 7890   8.782   2.844  12.847
46470W        W 7891  14.678  36.011   1.323
46471W        W 7892  32.141  33.569   3.278
46472W        W 7893   5.310   5.832   5.228
46473W        W 7894  43.479  23.613  11.034
46474W        W 7895  25.177  14.777   1.416
46475W        W 7896  34.499  21.248  11.123
46476W        W 7897  16.180  33.972   0.878
46477W        W 7898  30.525  29.657   4.312
46478W        W 7899  15.653  24.121  10.429
46479W        W 7900   2.342  33.396   1.392
46480W        W 7901   0.426  40.908  11.116
46481W        W 7902   7.306  32.914   4.831
46482W        W 7903   5.885  24.691   3.803
46483W        W 7904  30.124   2.752  12.077
46484W        W 7905  24.689   6.369  12.566
46485W        W 7906   0.268   3.837  10.101
46486W        W 7907  32.547   6.252  14.418
46487W        W 7908  17.167  13.642   5.248
46488W        W 7909  19.608  20.659  11.887
46489W        W 7910  30.972   9.658  10.918
46490W        W 7911   1.858  13.175   3.678
46491W        W 7912  27.509  14.252  10.107
46492W        W 7913   1.955   5.379   4.325
46493W        W 7914  21.535  26.701  10.072
46494W        W 7915  15.819  33.621  14.845
46495W        W 7916  42.497   1.272  11.443
46496W        W 7917  36.377  27.602  14.479
46497W        W 7918  28.600  33.532  13.366
46498W        W 7919   4.362   9.760  14.299
46499W        W 7920  38.539   9.349  11.910
46500W        W 7921   5.301  11.336   2.675
46501W        W 7922  38.326  39.356   0.244
46502W        W 7923  15.191  22.640  13.842
46503W        W 7924  22.709  31.048   1.856
46504W        W 7925  12.620  24.170  13.961
46505W        W 7926  14.659  33.008  13.947
46506W        W 7927  11.658  24.575  13.036
46507W        W 7928  32.125  30.973  12.350
46508W        W 7929  22.058   2.465   1.347
46509W        W 7930   4.294  23.094   0.409
46510W        W 7931  38.542  35.952   1.729
46511W        W 7932  14.737  18.646  13.330
46512W        W 7933  44.302  15.660   1.288
46513W        W 7934   7.219  41.906   2.785
46514W        W 7935   5.846  27.080   2.276
46515W        W 7936  26.678  38.006   5.127
46516W        W 7937  19.649  27.513   1.803
46517W        W 7938   9.321   2.851   1.711
46518W        W 7939   1.298  25.594   3.835
46519W        W 7940  35.954   0.965   4.651
46520W        W 7941  28.066  16.149  14.276
46521W        W 7942  26.475  39.475  12.574
46522W        W 7943  43.483  21.561  13.862
46523W        W 7944  39.451   8.774   0.350
46524W        W 7945   0.489  39.400   4.809
46525W        W 7946  15.211  38.029   1.827
46526W        W 7947   3.431  39.961   4.634
46527W        W 7948  19.751  25.135  11.556
46528W        W 7949  28.053  16.252  10.434
46529W        W 7950  25.486  10.225  13.799
46530W        W 7951  24.719  18.608   2.783
46531W        W 7952  15.717  33.999  13.916
46532W        W 7953  42.938  15.581   3.183
46533W        W 7954  42.939   9.293   3.777
46534W        W 7955  11.755  20.531  14.962
46535W        W 7956  17.664  14.784  14.866
46536W        W 7957   3.331  15.314  11.882
46537W        W 7958  34.495   4.792   3.152
46538W        W 7959  38.990   2.326   0.264
46539W        W 7960  27.132   3.284  11.080
46540W        W 7961  13.834  26.662  10.063
46541W        W 7962  22.719   4.276   2.383
46542W        W 7963  28.061  43.469   0.410
46543W        W 7964  10.777  15.309  13.902
46544W        W 7965  37.023  35.360  13.334
46545W        W 7966  11.692  34.542  12.957
46546W        W 7967   8.824  18.251  10.914
46547W        W 7968  31.123  23.079   3.347
46548W        W 7969  13.654  27.165  14.380
46549W        W 7970  24.999  14.182   3.166
46550W        W 7971  28.000  19.186  14.031
46551W        W 7972   6.320  21.259   3.788
46552W        W 7973  14.312  21.201   4.751
46553W        W 7974   9.305  43.869  14.423
46554W        W 7975   1.744  10.211  14.398
46555W        W 7976   6.783  34.960  14.394
46556W        W 7977  31.610  32.423  12.081
46557W        W 7978  38.926   8.719  14.946
46558W        W 7979   0.952  21.672   4.210
46559W        W 7980  33.039  11.217  12.999
46560W        W 7981  22.233  37.045  13.902
46561W        W 7982  25.501   4.900  12.082
46562W        W 7983  19.126  44.453   4.242
46563W        W 7984  16.254  22.542   2.872
46564W        W 7985  27.945  43.409   4.736
46565W        W 7986   3.725   8.699   4.825
46566W        W 7987  22.046  18.105  14.972
46567W        W 7988   3.323  15.116   4.212
46568W        W 7989  16.184  29.468  12.518
46569W        W 7990  43.428  44.830   4.281
46570W        W 7991  33.092  33.102  11.075
46571W        W 7992  19.622   8.689  12.477
46572W        W 7993  31.966  29.468  14.840
46573W        W 7994  35.542  32.039   1.880
46574W        W 7995  25.507  44.394  12.570
46575W        W 7996  44.378   8.843   0.942
46576W        W 7997  23.651  23.596  13.519
46577W        W 7998  41.307  18.173  14.480
46578W        W 7999  30.517  30.578   2.283
46579W        W 8000   7.684  28.133   4.740
46580W        W 8001  42.503   9.865   2.258
46581W        W 8002  27.554   9.162  12.398
46582W        W 8003  19.678  40.417   1.223
46583W        W 8004   1.864  30.032   1.244
46584W        W 8005   6.680   7.312   3.839
46585W        W 8006  25.681  21.674   2.219
46586W        W 8007  26.599  12.784   5.169
46587W        W 8008  21.637   9.170  13.963
46588W        W 8009  27.527  43.855   1.783
46589W        W 8010  28.032  29.009   0.924
46590W        W 8011  15.137  18.681   1.749
46591W        W 8012  16.603  36.968   2.233
46592W        W 8013  21.527  42.816  14.852
46593W        W 8014   9.696  25.583  14.760
46594W        W 8015  27.534  25.615  10.958
46595W        W 8016  19.155   6.224  11.388
46596W        W 8017  11.147  22.182   4.351
46597W        W 8018   1.745  30.097   0.820
46598W        W 8019  38.826  12.296  12.998
46599W        W 8020  33.935   5.316   2.320
46600W        W 8021  38.924  19.637   4.603
46601W        W 8022  29.654   9.687  11.118
46602W        W 8023   5.833  19.246  11.104
46603W        W 8024  16.735  18.135   4.800
46604W        W 8025  31.907   8.386  13.338
46605W        W 8026  22.069   1.437   0.294
46606W        W 8027  37.346  37.851  11.380
46607W        W 8028  12.286  22.595  14.438
46608W        W 8029  13.177  18.222  14.825
46609W        W 8030  22.742  44.457   0.482
46610W        W 8031  17.790   1.916   0.795
46611W        W 8032  36.089  26.167   3.632
46612W        W 8033  43.992  32.398  10.480
46613W        W 8034   5.410   5.895  13.515
46614W        W 8035   2.766  14.705   1.787
46615W        W 8036  15.180   6.374   0.266
46616W        W 8037  44.432  15.253   2.231
46617W        W 8038   1.361  37.384   4.304
46618W        W 8039   7.414  11.357   4.336
46619W        W 8040   5.767  17.559   0.373
46620W        W 8041   9.291  39.973   1.849
46621W        W 8042  37.929  38.450   3.655
46622W        W 8043  33.454  11.249   3.726
46623W        W 8044  36.499  38.847  13.016
46624W        W 8045  36.572  21.165  14.372
46625W        W 8046  26.689   3.711   0.258
46626W        W 8047  17.653  15.775  12.847
46627W        W 8048   3.427  34.433   4.128
46628W        W 8049   2.452  18.106   3.830
46629W        W 8050  40.502   5.694   1.320
46630W        W 8051   3.875  44.442   5.241
46631W        W 8052  29.668  38.380   1.278
46632W        W 8053  31.547  14.669  12.356
46633W        W 8054   2.312  39.520   1.777
46634W        W 8055  39.541  26.661   0.304
46635W        W 8056  19.545  29.460   2.845
46636W        W 8057  28.964  37.549   2.411
46637W        W 8058  38.897   8.847  14.386
46638W        W 8059   5.332  33.544   5.194
46639W        W 8060  31.452  25.987  13.539
46640W        W 8061   5.826   1.326   0.895
46641W        W 8062  11.775  24.517   1.919
46642W        W 8063  39.826  12.329   1.859
46643W        W 8064  43.297  42.392   2.418
46644W        W 8065  10.199  40.959   1.868
46645W        W 8066  11.820  41.489   1.249
46646W        W 8067   4.858   4.392  10.890
46647W        W 8068  23.626  16.775  13.431
46648W        W 8069  41.352   7.800   0.914
46649W        W 8070   7.399  24.527   3.797
46650W        W 8071  31.518  35.500  12.534
46651W        W 8072   3.231  22.140   4.230
46652W        W 8073  37.548  37.045   4.131
46653W        W 8074   4.911   7.240   4.201
46654W        W 8075  26.090   5.258   9.641
46655W        W 8076  19.159   4.918  13.389
46656W        W 8077  44.930  26.536  14.908
46657W        W 8078  20.540  25.476   4.667
46658W        W 8079  29.918  39.453   0.920
46659W        W 8080   9.873   3.351   3.812
46660W        W 8081  14.227   0.790   0.774
46661W        W 8082   5.926  29.113   2.892
46662W        W 8083   5.232   4.883  14.458
46663W        W 8084  22.206  28.669   4.765
46664W        W 8085  40.544  18.671  13.397
46665W        W 8086  26.180  13.114   0.767
46666W        W 8087   8.888  14.771  10.421
46667W        W 8088  15.792  22.594   2.253
46668W        W 8089  14.739  29.648  13.886
46669W        W 8090   6.327  41.817  10.160
46670W        W 8091  38.381  24.716  14.484
46671W        W 8092  23.064  37.929   4.691
46672W        W 8093  12.715  44.842  13.014
46673W        W 8094  39.922  12.704   3.220
46674W        W 8095  41.367   0.340   4.282
46675W        W 8096   4.238  10.150   4.207
46676W        W 8097  25.038  36.448  13.028
46677W        W 8098  26.053  39.468  11.007
46678W        W 8099  12.148  14.729   2.756
46679W        W 8100  11.327  22.636   3.177
46680W        W 8101   9.693  15.661   1.894
46681W        W 8102  25.710   8.770  14.011
46682W        W 8103  22.507  26.055   0.371
46683W        W 8104  23.011   7.407   3.796
46684W        W 8105  20.136  25.654   4.813
46685W        W 8106  26.059  15.814  13.827
46686W        W 8107  18.197  40.318   0.450
46687W        W 8108   4.782  36.077  14.817
46688W        W 8109  29.940  32.995   2.805
46689W        W 8110  24.579  39.954  11.592
46690W        W 8111  30.434  10.301   9.974
46691W        W 8112  33.083  15.715  11.108
46692W        W 8113  23.168  37.839   1.899
46693W        W 8114   3.840  21.518  14.823
46694W        W 8115  24.610  41.364  11.052
46695W        W 8116   8.188   7.900  14.401
46696W        W 8117  29.043  27.088   4.302
46697W        W 8118  34.525  37.991   4.784
46698W        W 8119  37.582  22.210  13.881
46699W        W 8120  18.167   5.698   4.746
46700W        W 8121   6.773  34.991   4.674
46701W        W 8122  24.074   8.325   2.866
46702W        W 8123  30.585  33.915   0.865
46703W        W 8124  27.499  31.556   4.283
46704W        W 8125  14.610  41.457   3.387
46705W        W 8126   0.348  44.501  14.966
46706W        W 8127  16.165  39.461   2.866
46707W        W 8128  20.688  17.220   2.220
46708W        W 8129  26.991  34.985   2.871
46709W        W 8130   9.246  40.994  14.985
46710W        W 8131  11.832  43.818  13.519
46711W        W 8132  44.294  44.821  14.476
46712W        W 8133   8.787  18.550  14.390
46713W        W 8134  20.747  43.426  14.392
46714W        W 8135  22.660  33.402  12.937
46715W        W 8136  39.545   2.856  10.958
46716W        W 8137  27.587   4.379  11.486
46717W        W 8138  41.477   1.831  12.002
46718W        W 8139  26.618  18.672  13.871
46719W        W 8140  33.874  28.120  12.579
46720W        W 8141   1.446  27.465  11.871
46721W        W 8142  25.600  13.178  10.963
46722W        W 8143  44.388   8.836   3.372
46723W        W 8144   3.364  42.006   3.324
46724W        W 8145  18.078  12.299  11.494
46725W        W 8146  25.107  37.365  14.831
46726W        W 8147   2.359  41.461  14.948
46727W        W 8148   0.324   3.220  10.150
46728W        W 8149  37.447  32.018  14.026
46729W        W 8150  23.129   2.902   4.223
46730W        W 8151   8.201  40.049  14.341
46731W        W 8152  24.699   2.232   3.169
46732W        W 8153  27.187   2.239   3.252
46733W        W 8154  41.311  12.274   1.854
46734W        W 8155  25.049   6.310   3.639
46735W        W 8156   2.299  19.097   1.784
46736W        W 8157  12.807   9.258  12.429
46737W        W 8158  15.662  33.542   4.638
46738W        W 8159  23.549  19.186  10.985
46739W        W 8160   7.804  42.027  14.870
46740W        W 8161  20.222  25.609   3.217
46741W        W 8162   7.294  40.459  14.803
46742W        W 8163  25.689   3.386  10.085
46743W        W 8164   2.256  22.737   0.952
46744W        W 8165   6.259  25.511   2.839
46745W        W 8166  27.973  18.598   2.191
46746W        W 8167  15.595  10.283  13.835
46747W        W 8168  30.931   3.758   1.931
46748W        W 8169  37.844  13.766   4.273
46749W        W 8170  34.061  12.713  13.409
46750W        W 8171  31.587  23.084  14.368
46751W        W 8172   6.415  40.031   4.610
46752W        W 8173  17.168  38.414   1.911
46753W        W 8174   1.258  27.017   4.699
46754W        W 8175  41.348  36.997  13.814
46755W        W 8176  33.428  12.748   1.224
46756W        W 8177  20.265  31.066  10.888
46757W        W 8178  25.630  39.897  13.383
46758W        W 8179  40.465   4.820  10.483
46759W        W 8180  44.269  35.053   3.794
46760W        W 8181  28.602   8.765   1.884
46761W        W 8182  20.631   8.390   3.693
46762W        W 8183  39.843  30.045  10.524
46763W        W 8184  29.544  23.993  11.008
46764W        W 8185  26.480  17.606  14.504
46765W        W 8186  36.354  25.054  14.966
46766W        W 8187  25.710   5.375  14.765
46767W        W 8188   4.432  32.518   3.343
46768W        W 8189  18.753  38.389  14.447
46769W        W 8190  40.918  42.891   0.443
46770W        W 8191  41.308  12.143   4.678
46771W        W 8192  23.724  28.957  11.497
46772W        W 8193  21.558  19.692  13.006
46773W        W 8194  37.350  40.438  12.432
46774W        W 8195   8.376   5.920  13.350
46775W        W 8196  25.191  31.594  13.504
46776W        W 8197  11.302  36.549   4.266
46777W        W 8198  25.627  34.931   0.412
46778W        W 8199  33.592  32.059  13.526
46779W        W 8200  27.580  38.557  14.018
46780W        W 8201  27.057  15.818   4.637
46781W        W 8202  20.043   6.425  11.036
46782W        W 8203  15.318  24.167   2.884
46783W        W 8204  42.370  18.672   1.736
46784W        W 8205  21.657  34.037  13.006
46785W        W 8206  21.616  41.488  10.905
46786W        W 8207  32.095   5.300   2.842
46787W        W 8208  35.962  40.327   0.361
46788W        W 8209  36.976  42.949   1.925
46789W        W 8210   7.895  40.387   3.685
46790W        W 8211  42.931  39.850   3.728
46791W        W 8212   9.813  17.735  14.363
46792W        W 8213   7.252   2.910  12.910
46793W        W 8214  27.163  17.155  14.483
46794W        W 8215   5.928  20.630  11.529
46795W        W 8216  23.055  37.987  11.519
46796W        W 8217  21.746  23.581   2.410
46797W        W 8218  16.231   5.381  14.454
46798W        W 8219  10.822   2.764  11.054
46799W        W 8220  34.967   9.694  14.894
46800W        W 8221  36.988  40.320   4.758
46801W        W 8222   5.829  17.635  11.484
46802W        W 8223  11.741  27.643  14.436
46803W        W 8224  30.644  37.404   1.334
46804W        W 8225  28.546  10.841  14.514
46805W        W 8226  36.388  34.510  14.953
46806W        W 8227  25.595  32.960   1.285
46807W        W 8228  17.559  43.809   4.794
46808W        W 8229   9.170  41.435  14.912
46809W        W 8230  38.924  13.725  13.369
46810W        W 8231  12.343  34.009   2.311
46811W        W 8232  38.907  21.552   3.733
46812W        W 8233  42.882   8.812   1.896
46813W        W 8234  41.491  24.003  14.818
46814W        W 8235  20.260  29.049   3.722
46815W        W 8236  24.006   5.729   3.743
46816W        W 8237   4.837  12.811   2.305
46817W        W 8238  20.756   0.352   0.747
46818W        W 8239  37.554  26.086   3.854
46819W        W 8240  19.572  30.536  13.942
46820W        W 8241  18.160  23.598  12.862
46821W        W 8242  22.717  37.832  12.942
46822W        W 8243  24.646  43.376  13.995
46823W        W 8244  37.040  21.038  11.382
46824W        W 8245  42.522  20.055  12.358
46825W        W 8246   5.214  30.050  13.417
46826W        W 8247  42.796   6.313  11.100
46827W        W 8248  10.149  29.971   1.426
46828W        W 8249   1.480  14.745   0.278
46829W        W 8250  10.736  33.950  11.036
46830W        W 8251  19.058  13.612   5.601
46831W        W 8252  21.632   1.479   4.687
46832W        W 8253  38.553  18.173  13.487
46833W        W 8254  31.919  43.463  10.635
46834W        W 8255   1.329   4.785   0.362
46835W        W 8256  40.011   8.801   0.737
46836W        W 8257  40.431  18.121   1.358
46837W        W 8258  24.488  44.840   3.778
46838W        W 8259  33.402  40.329  14.783
46839W        W 8260  32.034  19.236   0.787
46840W        W 8261  34.525  38.452   1.341
46841W        W 8262  20.063   8.848  11.889
46842W        W 8263  26.610  34.080  13.875
46843W        W 8264   0.316  31.034  10.638
46844W        W 8265   0.976  40.887  14.300
46845W        W 8266  37.974  22.534  11.930
46846W        W 8267  20.744   2.856  14.804
46847W        W 8268  22.692   5.764  11.030
46848W        W 8269   8.900   7.911   4.685
46849W        W 8270  23.655   0.430   1.711
46850W        W 8271   9.825  13.717   4.679
46851W        W 8272  36.532  24.032  11.459
46852W        W 8273  19.202  40.837   0.433
46853W        W 8274  18.271  19.078   1.927
46854W        W 8275  42.388   8.237   4.352
46855W        W 8276  16.681  11.238   3.715
46856W        W 8277   9.687  38.562  12.021
46857W        W 8278  31.647  43.442  14.469
46858W        W 8279   7.327  44.781  14.406
46859W        W 8280  41.870   1.405   1.750
46860W        W 8281  30.057  36.074  11.413
46861W        W 8282  31.111  25.567  14.904
46862W        W 8283  23.014   9.794  14.418
46863W        W 8284  10.296  14.149  11.930
46864W        W 8285   1.354  25.979  10.584
46865W        W 8286  43.336  16.736  11.103
46866W        W 8287  39.402   6.852  12.366
46867W        W 8288  30.083  11.774   1.879
46868W        W 8289   0.469  18.780   4.248
46869W        W 8290  16.639   6.313   4.269
46870W        W 8291  42.478  44.393  11.871
46871W        W 8292   0.871  33.932   0.881
46872W        W 8293  29.092  41.445   3.190
46873W        W 8294  17.647  16.691   2.732
46874W        W 8295   6.409  21.557   1.835
46875W        W 8296  27.126  39.978  14.491
46876W        W 8297   9.871   8.346  13.958
46877W        W 8298  40.015   5.215   0.337
46878W        W 8299  20.769  23.119  11.550
46879W        W 8300   4.351   0.909   0.955
46880W        W 8301   8.891   9.873   0.336
46881W        W 8302  26.548   7.303  12.437
46882W        W 8303  28.575  15.082  11.128
46883W        W 8304  43.867  35.972   2.298
46884W        W 8305  10.781   1.737   2.390
46885W        W 8306   7.262   5.897  11.472
46886W        W 8307  29.941  33.962  12.823
46887W        W 8308  15.232  42.964   4.828
46888W        W 8309  13.707  10.700  13.322
46889W        W 8310  36.939   9.225   1.233
46890W        W 8311  23.028  38.904   4.133
46891W        W 8312  34.065  24.553   4.236
46892W        W 8313   7.736   3.932  13.988
46893W        W 8314  13.833  23.230  14.500
46894W        W 8315  25.664  34.995  10.411
46895W        W 8316  12.752  26.073   1.815
46896W        W 8317  11.357  28.547  13.987
46897W        W 8318  43.002  37.046   2.762
46898W        W 8319   7.380  42.496   5.320
46899W        W 8320  32.024  34.028   1.380
46900W        W 8321  44.995  42.865   2.866
46901W        W 8322  18.751  21.176  13.843
46902W        W 8323  44.310   9.747  12.579
46903W        W 8324  36.069  38.835   1.909
46904W        W 8325  28.446  36.087   1.348
46905W        W 8326  31.000  24.508  13.848
46906W        W 8327  31.997  17.747  10.576
46907W        W 8328  39.816  23.699   2.741
46908W        W 8329  31.436  20.660   1.834
46909W        W 8330  37.444  41.860   2.311
46910W        W 8331  25.700  10.760   0.789
46911W        W 8332   0.440  27.035   1.311
46912W        W 8333  27.953  32.027   0.344
46913W        W 8334   0.308  24.055  11.113
46914W        W 8335  24.009   1.766  10.019
46915W        W 8336  15.819  32.536  12.462
46916W        W 8337  24.134  28.000  11.401
46917W        W 8338  33.890  30.163  11.556
46918W        W 8339  36.093  32.600  13.369
46919W        W 8340  31.066  22.680   5.306
46920W        W 8341  30.619  33.457   0.375
46921W        W 8342  42.517   2.313   0.730
46922W        W 8343  44.960   6.827  14.444
46923W        W 8344  27.554  41.362   3.865
46924W        W 8345   0.318  23.693   2.889
46925W        W 8346  41.356  31.638   3.714
46926W        W 8347  21.704  37.850  11.497
46927W        W 8348   9.870  32.100  11.392
46928W        W 8349  30.027   7.896  12.535
46929W        W 8350  27.453  44.887   2.867
46930W        W 8351   3.436  12.310   0.782
46931W        W 8352  18.784  26.655   0.832
46932W        W 8353   2.966  31.424  11.864
46933W        W 8354  29.480   4.313  12.026
46934W        W 8355  41.813  28.120  14.766
46935W        W 8356  32.503  44.766   1.400
46936W        W 8357   7.198   2.791   0.408
46937W        W 8358   0.400   6.419   2.865
46938W        W 8359  34.895  18.153  12.033
46939W        W 8360  43.333  31.410  14.976
46940W        W 8361  21.636  33.394   2.264
46941W        W 8362  22.677  22.735   3.336
46942W        W 8363   3.765  32.435  11.576
46943W        W 8364  19.110  21.575   4.140
46944W        W 8365  21.535  44.979  14.352
46945W        W 8366  39.349  14.333   3.821
46946W        W 8367  11.345  42.023   4.620
46947W        W 8368  44.280  41.344  10.118
46948W        W 8369   9.294   8.673  11.912
46949W        W 8370  14.608  18.782  11.997
46950W        W 8371  44.847   3.780   4.114
46951W        W 8372  17.763  44.826   4.826
46952W        W 8373   8.357  10.859  14.759
46953W        W 8374  41.978   1.901   1.904
46954W        W 8375  16.128  34.922  10.423
46955W        W 8376  18.278  28.657  14.795
46956W        W 8377   3.302  41.880  10.643
46957W        W 8378  10.344   6.320  11.399
46958W        W 8379  19.578  21.086   1.883
46959W        W 8380   6.385   8.877   4.796
46960W        W 8381   9.379  14.633  13.460
46961W        W 8382  44.425  21.609   1.841
46962W        W 8383  29.085  27.158  14.930
46963W        W 8384  15.215  37.384   3.329
46964W        W 8385  22.047   2.792  11.965
46965W        W 8386  11.676  33.609   3.223
46966W        W 8387  18.768  25.990  12.011
46967W        W 8388   6.839   6.345  14.333
46968W        W 8389  35.905  16.145   3.835
46969W        W 8390  34.579  21.545   3.360
46970W        W 8391  29.510   8.858   1.902
46971W        W 8392  25.610  44.873   2.901
46972W        W 8393  37.994  16.715   3.774
46973W        W 8394  34.915  20.532  12.024
46974W        W 8395  28.507  35.548  13.834
46975W        W 8396  17.719   9.725  11.437
46976W        W 8397  18.703  21.128  14.821
46977W        W 8398  44.344  16.310  12.077
46978W        W 8399  41.389  14.784  11.856
46979W        W 8400   0.768  12.233  12.455
46980W        W 8401   0.744  20.083  13.901
46981W        W 8402   0.343  43.309  11.872
46982W        W 8403  18.685  39.382   2.850
46983W        W 8404  29.130  39.324  11.412
46984W        W 8405  30.634  14.267  10.407
46985W        W 8406  28.998  44.370   1.251
46986W        W 8407  18.272  16.296  12.453
46987W        W 8408  19.624  21.036   0.273
46988W        W 8409  34.926  10.335   2.736
46989W        W 8410   1.309   4.418  10.530
46990W        W 8411   6.753   0.359   0.849
46991W        W 8412   5.200  43.781   0.483
46992W        W 8413   4.305  29.490   0.949
46993W        W 8414  30.480   8.384  12.012
46994W        W 8415  22.040   5.439  11.439
46995W        W 8416  10.200  16.106  14.280
46996W        W 8417  42.337  41.518   4.722
46997W        W 8418  23.046  28.003   1.878
46998W        W 8419   4.795  34.584  13.034
46999W        W 8420   4.703   4.337   3.792
47000W        W 8421  44.832  15.237   2.231
47001W        W 8422   9.794  24.047  10.432
47002W        W 8423  22.084   8.795   1.904
47003W        W 8424  18.244  15.223  12.995
47004W        W 8425  22.520  41.380   1.402
47005W        W 8426  23.656   1.876  12.992
47006W        W 8427  33.595  44.927  14.762
47007W        W 8428  41.040  36.914   2.892
47008W        W 8429   9.282  42.937  13.511
47009W        W 8430   3.446  24.614  13.818
47010W        W 8431  12.625  39.912  11.508
47011W        W 8432  15.663  26.553   4.248
47012W        W 8433   4.269  41.969  14.816
47013W        W 8434  43.849  15.716   3.832
47014W        W 8435  14.105   4.369  11.080
47015W        W 8436  19.562  21.734  14.328
47016W        W 8437  31.034  30.635  10.500
47017W        W 8438  17.783  31.611  14.905
47018W        W 8439  21.712  17.236   1.894
47019W        W 8440   9.153  20.550  10.956
47020W        W 8441  26.187  27.601   4.799
47021W        W 8442  32.612   6.908   4.810
47022W        W 8443  44.389   8.278   0.739
47023W        W 8444  16.314  13.660  12.457
47024W        W 8445  17.154   5.727   0.387
47025W        W 8446  44.781  16.609   1.737
47026W        W 8447  26.652  10.181  10.419
47027W        W 8448  15.709  17.131   1.266
47028W        W 8449   6.734  13.623   1.267
47029W        W 8450  44.273  18.145  14.922
47030W        W 8451  13.235  33.089  12.533
47031W        W 8452  31.943  39.495   0.931
47032W        W 8453  30.515   1.952  13.427
47033W        W 8454  20.244   5.712   2.357
47034W        W 8455  14.645  31.542   2.352
47035W        W 8456  31.077   7.254   2.280
47036W        W 8457  34.069  42.342  12.841
47037W        W 8458  40.936   5.928   1.387
47038W        W 8459  43.482  33.468  12.092
47039W        W 8460   9.890  27.089  12.911
47040W        W 8461  18.079  43.343   1.374
47041W        W 8462  25.016   4.428   1.890
47042W        W 8463  31.945  30.519   3.240
47043W        W 8464  44.352  31.999  13.912
47044W        W 8465  42.333  41.312   2.258
47045W        W 8466  33.570   8.682   0.964
47046W        W 8467   4.448  24.089  11.526
47047W        W 8468   7.226  14.165   4.696
47048W        W 8469   7.875  44.992  14.335
47049W        W 8470  14.747   0.922   4.239
47050W        W 8471  21.142   2.276  11.533
47051W        W 8472  41.298  26.590   3.702
47052W        W 8473  40.461  41.478   1.886
47053W        W 8474  29.971  40.949  10.404
47054W        W 8475  19.080  39.015   2.224
47055W        W 8476  27.657  42.417   2.295
47056W        W 8477   4.287  43.314   3.644
47057W        W 8478   7.190  20.522   1.249
47058W        W 8479   1.454  14.640   1.313
47059W        W 8480  17.684  16.301  14.299
47060W        W 8481  23.053  41.328   3.666
47061W        W 8482  21.074  31.932   3.314
47062W        W 8483  26.045  13.243  14.881
47063W        W 8484  22.593  30.415  13.408
47064W        W 8485   4.391   3.832   2.753
47065W        W 8486   8.887  34.867  10.985
47066W        W 8487   3.880  34.097  12.463
47067W        W 8488  38.396  24.171  10.452
47068W        W 8489  37.847  34.486   3.842
47069W        W 8490  10.224  27.049  10.432
47070W        W 8491  36.372   4.261   2.291
47071W        W 8492  22.631   3.820  11.400
47072W        W 8493   2.828  20.550   4.272
47073W        W 8494   4.889  12.206  11.956
47074W        W 8495  19.599  39.493   0.372
47075W        W 8496  12.160  25.082   2.838
47076W        W 8497   3.899   8.326  13.981
47077W        W 8498  38.069   1.828   4.751
47078W        W 8499  28.642  29.971   3.148
47079W        W 8500   3.419  43.372  14.433
47080W        W 8501  11.629  37.558  10.132
47081W        W 8502  24.044   3.899   3.379
47082W        W 8503  19.687  41.323  14.992
47083W        W 8504  43.515  19.592  13.501
47084W        W 8505   5.915   5.391   1.419
47085W        W 8506   7.189  42.497   2.285
47086W        W 8507  19.687  43.905  13.988
47087W        W 8508  12.135   6.392   2.268
47088W        W 8509  42.848  30.423  10.486
47089W        W 8510  33.883  17.070  11.867
47090W        W 8511  44.973  38.326  14.819
47091W        W 8512  23.625   8.849  10.540
47092W        W 8513  20.544  17.232  10.926
47093W        W 8514  35.593  13.285  11.406
47094W        W 8515   4.273  31.111  12.938
47095W        W 8516  41.356  36.502  11.883
47096W        W 8517  16.226  42.328  13.506
47097W        W 8518  12.615   9.178  11.488
47098W        W 8519   6.789  27.536   4.248
47099W        W 8520  22.203   1.810   3.160
47100W        W 8521  44.956   6.205  14.462
47101W        W 8522  24.131  18.593   2.859
47102W        W 8523  22.745   6.310  11.866
47103W        W 8524  13.241  29.425  10.469
47104W        W 8525  21.573  37.526   2.884
47105W        W 8526  23.617  34.045   4.327
47106W        W 8527  35.393  28.944  12.017
47107W        W 8528   3.297  10.158  10.497
47108W        W 8529  28.952  17.151  12.071
47109W        W 8530  36.465  38.443  13.805
47110W        W 8531  10.815  18.084   0.458
47111W        W 8532   7.839   9.874   3.373
47112W        W 8533  31.949  19.118  12.491
47113W        W 8534  28.969  10.223  13.849
47114W        W 8535  15.611  41.807   4.258
47115W        W 8536  43.854  44.790  14.001
47116W        W 8537  22.187  30.445  11.595
47117W        W 8538  11.635  42.943   5.096
47118W        W 8539  32.909  17.611  14.468
47119W        W 8540  24.654  21.044   4.244
47120W        W 8541   4.219  11.783  12.451
47121W        W 8542  31.923  19.562  13.435
47122W        W 8543  41.968  36.413   2.372
47123W        W 8544  36.413  31.531   0.267
47124W        W 8545  16.228  39.486   0.251
47125W        W 8546   8.179  16.579   3.868
47126W        W 8547  17.286  20.039   4.756
47127W        W 8548  36.911  36.961   4.700
47128W        W 8549  19.651  24.689  13.341
47129W        W 8550  25.644  33.125   4.267
47130W        W 8551  22.024  14.779  10.408
47131W        W 8552  33.529  23.056   1.898
47132W        W 8553  13.164  10.783   3.768
47133W        W 8554   9.763  15.299  12.389
47134W        W 8555  24.691  28.473   0.445
47135W        W 8556   4.215   9.807   3.370
47136W        W 8557  26.013  12.812  14.353
47137W        W 8558  38.882  25.544  13.353
47138W        W 8559  41.925   0.925   4.626
47139W        W 8560  36.963   3.940   1.434
47140W        W 8561   7.201  34.947   2.765
47141W        W 8562  38.377  32.986  12.912
47142W        W 8563  19.733   4.230   3.704
47143W        W 8564  23.559  32.619  14.330
47144W        W 8565  33.110  27.942   3.265
47145W        W 8566  42.436  24.137  11.108
47146W        W 8567  20.756  30.150   0.277
47147W        W 8568   9.268  19.607  14.364
47148W        W 8569  35.035  20.048  14.276
47149W        W 8570  21.749  29.958   0.474
47150W        W 8571  12.718   3.268   2.804
47151W        W 8572  42.491   2.280  12.911
47152W        W 8573  21.038  11.815   2.721
47153W        W 8574  10.839  11.776  14.921
47154W        W 8575  20.749  42.015   4.220
47155W        W 8576  42.410   6.727  11.891
47156W        W 8577  16.191  21.167  12.487
47157W        W 8578  28.543  11.800   2.302
47158W        W 8579   5.262  38.448   0.354
47159W        W 8580   6.300  19.714   0.906
47160W        W 8581   8.249  39.456  10.093
47161W        W 8582  23.717   2.765   0.775
47162W        W 8583  29.998  13.826  14.381
47163W        W 8584  27.130   0.310   3.253
47164W        W 8585  43.501   3.913  14.015
47165W        W 8586  37.866  16.172   4.795
47166W        W 8587  26.106   1.359   0.899
47167W        W 8588  10.364  34.951   2.779
47168W        W 8589   2.320  39.865  11.496
47169W        W 8590   6.258  27.680  12.441
47170W        W 8591  38.352   9.836  14.377
47171W        W 8592  10.212  31.633   4.209
47172W        W 8593  19.132  13.621  10.904
47173W        W 8594  18.234  27.507   1.863
47174W        W 8595  17.774  34.451  10.597
47175W        W 8596  33.884   3.821  11.449
47176W        W 8597   5.915   7.673  14.824
47177W        W 8598   8.329  32.131  13.467
47178W        W 8599  15.760  12.143   3.305
47179W        W 8600   0.494  25.102  12.067
47180W        W 8601   2.249  14.187  12.036
47181W        W 8602   9.191  14.691   4.152
47182W        W 8603   2.444  14.684  14.029
47183W        W 8604  38.435  12.852   3.655
47184W        W 8605  27.136  40.413   4.653
47185W        W 8606  32.636   3.952   4.647
47186W        W 8607   8.718  36.568   4.837
47187W        W 8608  41.897  34.045   4.802
47188W        W 8609  15.322  36.449  11.126
47189W        W 8610  39.956  43.434   1.432
47190W        W 8611  40.342   0.286  10.489
47191W        W 8612  33.380  17.085  10.621
47192W        W 8613   7.222  31.600  14.346
47193W        W 8614  35.940  44.998   3.280
47194W        W 8615  25.121  20.715   3.146
47195W        W 8616  19.090   1.968  11.411
47196W        W 8617  38.049  17.674  12.549
47197W        W 8618  31.504  19.114  14.313
47198W        W 8619  28.147  11.142  12.448
47199W        W 8620  25.676  35.413   3.851
47200W        W 8621  27.499  35.359   0.322
47201W        W 8622  35.989   2.232   3.269
47202W        W 8623  22.742   2.394   0.436
47203W        W 8624  41.849  36.408  14.450
47204W        W 8625  26.152  31.541  11.486
47205W        W 8626  36.871  33.520   0.311
47206W        W 8627  13.813  43.774   3.732
47207W        W 8628   9.267   2.420   0.758
47208W        W 8629  39.494   5.779   1.742
47209W        W 8630  42.016   8.866   4.167
47210W        W 8631  29.662  42.858  14.840
47211W        W 8632  30.942  27.585  14.316
47212W        W 8633   2.868  43.989   3.372
47213W        W 8634  22.192  29.009  12.539
47214W        W 8635  42.314   5.317   2.214
47215W        W 8636  42.953  24.615   4.122
47216W        W 8637  14.327  34.380   3.183
47217W        W 8638  35.485  40.853  13.830
47218W        W 8639  30.114  12.351   2.792
47219W        W 8640   5.715  24.043  10.609
47220W        W 8641  12.280  40.329   2.834
47221W        W 8642  29.069  15.303  12.012
47222W        W 8643   6.388  42.934   3.167
47223W        W 8644  15.707   0.847   3.369
47224W        W 8645  26.043  38.536  12.005
47225W        W 8646  14.174  13.616  11.053
47226W        W 8647  44.361   5.230  12.355
47227W        W 8648  27.639  29.947   3.758
47228W        W 8649   2.390   1.283   3.704
47229W        W 8650  18.673  12.758  10.124
47230W        W 8651  41.905  26.078  10.526
47231W        W 8652  17.160  10.185   4.240
47232W        W 8653  42.407  10.785  13.531
47233W        W 8654   3.300  17.164  10.407
47234W        W 8655  19.050   8.879   4.340
47235W        W 8656   5.901  20.178   4.740
47236W        W 8657   0.393  20.658   3.843
47237W        W 8658  28.452  39.848   4.174
47238W        W 8659  44.823   8.823   2.363
47239W        W 8660  24.015   0.797   1.213
47240W        W 8661  43.284   2.360   1.302
47241W        W 8662  21.112  19.209  13.403
47242W        W 8663  23.533  24.707   2.339
47243W        W 8664  14.780  43.909   4.154
47244W        W 8665  33.469  43.276   1.257
47245W        W 8666  33.506   6.329   9.983
47246W        W 8667  40.533  14.223   2.692
47247W        W 8668   0.386   3.395  11.570
47248W        W 8669  37.470  25.155  13.793
47249W        W 8670  18.715  35.539   3.718
47250W        W 8671  22.541  32.018   1.926
47251W        W 8672  41.484  28.524   4.623
47252W        W 8673  36.422  38.500  14.880
47253W        W 8674  15.148  41.816  13.024
47254W        W 8675   9.760  12.222  11.949
47255W        W 8676   5.911  33.543  14.916
47256W        W 8677  14.758  10.727   3.702
47257W        W 8678   0.450  24.089  11.433
47258W        W 8679  14.192  11.355  12.092
47259W        W 8680  39.993  13.647  12.943
47260W        W 8681  30.644  44.769   3.813
47261W        W 8682  35.877  41.514  13.386
47262W        W 8683  29.957  28.035  14.993
47263W        W 8684  33.408  24.992  11.377
47264W        W 8685   3.715   6.217   2.672
47265W        W 8686   8.183  38.488   3.861
47266W        W 8687   0.431  27.971  14.879
47267W        W 8688  23.715  34.403   3.812
47268W        W 8689  44.345  28.096   5.104
47269W        W 8690  31.585  10.865   1.438
47270W        W 8691  18.751   1.281  10.419
47271W        W 8692  30.947   5.723   0.806
47272W        W 8693  43.924   2.341  12.847
47273W        W 8694  35.949  32.938  14.914
47274W        W 8695  10.794  41.012   4.330
47275W        W 8696  21.179  13.844  12.356
47276W        W 8697  23.070  44.873  10.537
47277W        W 8698  21.262  24.700  11.522
47278W        W 8699  13.604  44.270  12.975
47279W        W 8700   2.765  31.620   3.798
47280W        W 8701  27.690  34.048   4.349
47281W        W 8702  20.047  11.351  11.374
47282W        W 8703  38.966  10.317  13.825
47283W        W 8704  41.969  22.191   0.965
47284W        W 8705  27.665  32.014  12.051
47285W        W 8706  13.692  38.883   3.671
47286W        W 8707  18.171  20.193   4.612
47287W        W 8708   5.769  36.889   2.754
47288W        W 8709   7.830   6.764   0.746
47289W        W 8710  12.334  19.700   1.367
47290W        W 8711   5.809  39.904   1.434
47291W        W 8712   1.760  35.491   3.697
47292W        W 8713   1.358  24.088  13.842
47293W        W 8714  21.688   9.880  10.568
47294W        W 8715   0.815   4.302  10.474
47295W        W 8716  42.802   4.331   4.725
47296W        W 8717   3.385  43.855  12.015
47297W        W 8718  18.150  39.501   2.715
47298W        W 8719   7.378  15.705  10.447
47299W        W 8720  22.222  29.504   4.239
47300W        W 8721  43.393  22.160   2.400
47301W        W 8722  17.679   8.313  11.560
47302W        W 8723  42.448  26.075   2.334
47303W        W 8724  13.262  40.533   4.191
47304W        W 8725  18.642  40.857   4.339
47305W        W 8726   0.470  23.058  14.830
47306W        W 8727   3.344   3.452  11.515
47307W        W 8728  24.715  36.085  14.887
47308W        W 8729   5.290  37.959  14.511
47309W        W 8730  17.643  36.500  14.881
47310W        W 8731  31.951  41.028   0.800
47311W        W 8732  26.598  17.776   0.941
47312W        W 8733  29.051  16.137   2.215
47313W        W 8734  25.560  12.332  12.546
47314W        W 8735  15.104  30.978  14.849
47315W        W 8736   0.395  29.080  13.035
47316W        W 8737   5.359  14.668   4.291
47317W        W 8738  41.846   0.955   1.896
47318W        W 8739  13.341   6.760   2.738
47319W        W 8740   2.779  22.231   0.269
47320W        W 8741  24.141  14.308  12.841
47321W        W 8742   0.266  27.962  12.518
47322W        W 8743  15.786  19.052   1.357
47323W        W 8744  31.002  36.904  14.892
47324W        W 8745  16.782   6.309  13.494
47325W        W 8746  33.080  12.259  13.459
47326W        W 8747  18.239  10.830   2.223
47327W        W 8748  42.831  21.519   3.729
47328W        W 8749  18.753  17.103   4.326
47329W        W 8750  37.027  21.179  10.949
47330W        W 8751   0.938  28.607  12.048
47331W        W 8752  34.571  12.819   4.351
47332W        W 8753  12.117   6.688   2.398
47333W        W 8754  12.338   1.454  11.494
47334W        W 8755  20.144  20.746   1.440
47335W        W 8756   6.396   0.878   3.654
47336W        W 8757   5.231  31.033   4.236
47337W        W 8758  35.041  14.604  14.890
47338W        W 8759   0.329  22.609  13.942
47339W        W 8760  20.602  23.166  13.540
47340W        W 8761  27.649   9.200   2.822
47341W        W 8762  18.717  32.421   0.382
47342W        W 8763  16.173  42.912  11.391
47343W        W 8764  37.074  15.221  11.959
47344W        W 8765  32.119  31.015   3.184
47345W        W 8766   1.241  35.060  11.879
47346W        W 8767  18.618  36.894   2.823
47347W        W 8768   7.414   7.221   1.793
47348W        W 8769   7.853   7.241   3.364
47349W        W 8770  35.015  17.116  14.928
47350W        W 8771  15.245  23.176   2.789
47351W        W 8772   6.807  40.989  10.645
47352W        W 8773  18.725  14.628  13.355
47353W        W 8774  28.512  11.652  11.988
47354W        W 8775   2.383  23.015  12.850
47355W        W 8776   5.243  38.563   5.275
47356W        W 8777   1.384  28.632   0.837
47357W        W 8778  24.165  35.469   2.746
47358W        W 8779  42.323  23.513  13.035
47359W        W 8780  41.867  12.218  14.825
47360W        W 8781  37.573  31.108  11.915
47361W        W 8782   9.741   8.378   1.373
47362W        W 8783   7.736  43.918  14.890
47363W        W 8784   1.879  33.888  14.438
47364W        W 8785  23.172   3.354   4.779
47365W        W 8786  16.307  32.518  11.591
47366W        W 8787   8.716  24.545  10.639
47367W        W 8788  12.853  35.017  13.942
47368W        W 8789  28.155  39.363   2.683
47369W        W 8790   3.728  21.587   4.269
47370W        W 8791  19.539  19.692  14.833
47371W        W 8792  24.690  25.132   4.731
47372W        W 8793  43.394   4.902  14.462
47373W        W 8794  23.013  20.703   2.729
47374W        W 8795  38.984  43.912  13.049
47375W        W 8796   2.293  30.613   9.467
47376W        W 8797   8.782  35.589  11.547
47377W        W 8798   4.327  23.239   4.746
47378W        W 8799   3.855   9.787   0.425
47379W        W 8800  26.637  10.195   3.189
47380W        W 8801   8.345  43.288  14.817
47381W        W 8802  39.545  36.519   2.380
47382W        W 8803  13.828  13.123   2.733
47383W        W 8804  36.044  44.955   0.449
47384W        W 8805  26.514   8.262   0.252
47385W        W 8806   6.877  37.463   2.397
47386W        W 8807   4.438   5.805   5.173
47387W        W 8808  37.834  34.948  14.027
47388W        W 8809  28.163  17.128  13.056
47389W        W 8810  31.567  22.533   0.245
47390W        W 8811  40.471   1.393  13.863
47391W        W 8812  30.415  20.112   2.741
47392W        W 8813   7.297  39.953  11.919
47393W        W 8814  37.529  17.575   1.437
47394W        W 8815  42.835  28.501  14.965
47395W        W 8816  31.148  43.882   4.805
47396W        W 8817  21.650  14.684  14.784
47397W        W 8818  37.426  44.447  12.084
47398W        W 8819  38.532   8.778  11.545
47399W        W 8820   4.732   2.745   0.244
47400W        W 8821  33.044  44.353   1.826
47401W        W 8822  10.203   5.747   3.721
47402W        W 8823   1.913  21.682  13.440
47403W        W 8824   7.764  32.038  10.566
47404W        W 8825  33.537   9.176   0.271
47405W        W 8826  29.092  40.806  10.999
47406W        W 8827   8.880   0.283   3.639
47407W        W 8828  26.616   4.218   3.228
47408W        W 8829   3.274  32.443  14.976
47409W        W 8830   6.678  22.514  14.486
47410W        W 8831  14.189  31.135  12.546
47411W        W 8832  41.956  40.411  10.995
47412W        W 8833  39.543  16.634  10.483
47413W        W 8834  40.429  17.588   4.330
47414W        W 8835  44.768  26.625   3.664
47415W        W 8836   7.337  33.549  13.960
47416W        W 8837  35.067  21.030   4.788
47417W        W 8838  25.215  29.972  13.895
47418W        W 8839  10.831  29.942   2.680
47419W        W 8840  37.930   8.837  10.425
47420W        W 8841  32.956  22.592  12.825
47421W        W 8842  36.079  42.351   1.304
47422W        W 8843  23.589  22.506  14.368
47423W        W 8844  28.589   8.896  10.482
47424W        W 8845  11.747   8.819  13.493
47425W        W 8846  14.652   2.237  11.560
47426W        W 8847  24.617  23.651  12.570
47427W        W 8848  35.030  16.208   3.644
47428W        W 8849  44.425  31.576  12.015
47429W        W 8850  15.152   6.349   3.260
47430W        W 8851  17.609  36.926  11.521
47431W        W 8852  31.070  24.680  14.943
47432W        W 8853  19.284  42.453  13.880
47433W        W 8854  41.322  42.407   2.273
47434W        W 8855  13.844   7.873   1.226
47435W        W 8856  31.547  28.627  11.484
47436W        W 8857   0.482  28.054  14.454
47437W        W 8858   9.270  12.133  13.369
47438W        W 8859   3.366  10.687  13.494
47439W        W 8860   7.854  41.372  11.471
47440W        W 8861  18.700  22.528   0.746
47441W        W 8862  35.910   0.978  10.958
47442W        W 8863  31.918   1.738   1.735
47443W        W 8864  38.885  34.112   1.708
47444W        W 8865   6.684  19.624  11.915
47445W        W 8866  38.441  28.010   4.727
47446W        W 8867  27.670  14.135  14.765
47447W        W 8868   2.376  28.590  14.398
47448W        W 8869  17.061   9.385  11.579
47449W        W 8870  33.539  22.124   2.234
47450W        W 8871  40.474   1.939   0.767
47451W        W 8872  37.520  35.454  11.111
47452W        W 8873   9.876  28.951  14.783
47453W        W 8874  33.624  25.045  14.393
47454W        W 8875  42.947  34.408   1.730
47455W        W 8876  14.139  17.164   2.362
47456W        W 8877  18.067  36.008   2.188
47457W        W 8878  26.490   3.916  12.452
47458W        W 8879  14.214   5.853   4.685
47459W        W 8880  33.451  21.573   0.794
47460W        W 8881  16.187   7.882  14.762
47461W        W 8882  22.716  28.983  10.624
47462W        W 8883  37.432   8.885   0.259
47463W        W 8884   0.923  28.652   4.226
47464W        W 8885  32.132  29.147  11.988
47465W        W 8886   4.293  34.110   3.775
47466W        W 8887   8.380  11.674  13.914
47467W        W 8888  31.472  41.447   4.249
47468W        W 8889  31.057  40.047  14.995
47469W        W 8890   7.248  18.165   4.768
47470W        W 8891   5.728  26.495  13.505
47471W        W 8892  20.548   0.292  14.303
47472W        W 8893  11.140  41.867  10.991
47473W        W 8894  22.217   4.237  12.041
47474W        W 8895   4.281  35.559   1.736
47475W        W 8896  17.721   2.301   2.803
47476W        W 8897  14.748  15.250   2.801
47477W        W 8898  16.572  23.685   3.171
47478W        W 8899  18.673  13.211   0.751
47479W        W 8900  34.916  40.960  13.907
47480W        W 8901  17.771  38.518   0.860
47481W        W 8902  40.338  31.019  10.463
47482W        W 8903  19.253  11.831   4.217
47483W        W 8904   0.258  26.058  14.952
47484W        W 8905  28.646  27.457   2.695
47485W        W 8906   5.757  30.652   4.663
47486W        W 8907   3.925  23.124  10.902
47487W        W 8908  21.622  33.457   2.819
47488W        W 8909  38.421  28.047   2.781
47489W        W 8910  14.670  44.411  12.022
47490W        W 8911  22.710  25.490  14.279
47491W        W 8912  19.275  14.293   5.140
47492W        W 8913   6.737  32.932   1.298
47493W        W 8914  13.767  27.990   1.211
47494W        W 8915  13.807  20.642  11.454
47495W        W 8916   5.411  39.560   2.223
47496W        W 8917  43.466  22.219   3.172
47497W        W 8918  17.121  44.007  11.109
47498W        W 8919   7.792  38.938   0.873
47499W        W 8920   1.415  40.356  11.438
47500W        W 8921   7.740  32.614  13.484
47501W        W 8922  17.631   5.930  13.851
47502W        W 8923  26.985  33.003   2.417
47503W        W 8924  26.168  22.099   1.700
47504W        W 8925   8.396  12.294  14.311
47505W        W 8926  39.958  21.706   2.894
47506W        W 8927  24.656  39.991  12.053
47507W        W 8928  12.685  40.044  12.023
47508W        W 8929  18.295  13.753  12.045
47509W        W 8930  15.622  41.476   1.226
47510W        W 8931  43.512  31.102  12.384
47511W        W 8932  44.955  10.382   3.721
47512W        W 8933   5.437  11.684  13.861
47513W        W 8934  20.580  34.604  13.537
47514W        W 8935   8.848   5.920   2.829
47515W        W 8936  13.236  43.913   4.139
47516W        W 8937  34.510  22.742  11.997
47517W        W 8938  42.974  25.526  10.491
47518W        W 8939  25.534   2.939  12.483
47519W        W 8940   0.822   0.484  12.371
47520W        W 8941  12.123  19.659   4.346
47521W        W 8942  11.215  37.346   2.349
47522W        W 8943  11.826  10.305   2.745
47523W        W 8944  27.005   1.826  14.462
47524W        W 8945  37.034  42.456  13.834
47525W        W 8946   6.873  17.130   4.304
47526W        W 8947   4.222  14.655   2.308
47527W        W 8948  41.530  32.948   4.701
47528W        W 8949  22.232  26.180   3.288
47529W        W 8950  26.529  39.454  10.625
47530W        W 8951   3.411  42.014   1.214
47531W        W 8952  15.253  41.887  13.950
47532W        W 8953  16.764  12.741   9.965
47533W        W 8954  25.079  27.992  10.988
47534W        W 8955  23.233  36.489   0.919
47535W        W 8956  22.683  19.568   2.278
47536W        W 8957   0.384  13.308   1.409
47537W        W 8958  28.172   9.209   3.191
47538W        W 8959  38.494   6.784   2.320
47539W        W 8960   9.200  34.087   3.193
47540W        W 8961  20.227  14.331  11.491
47541W        W 8962  35.853  14.185  12.523
47542W        W 8963  26.617   9.758  11.934
47543W        W 8964  18.216  26.005  11.927
47544W        W 8965   0.946   3.292  10.952
47545W        W 8966  40.350  12.318   3.201
47546W        W 8967  21.536   9.151  12.415
47547W        W 8968  30.509  28.508   2.833
47548W        W 8969  26.129  32.624  14.515
47549W        W 8970  34.006  18.659   2.692
47550W        W 8971  23.195  27.612   0.836
47551W        W 8972  15.594  10.769   2.888
47552W        W 8973  27.074   8.714  12.057
47553W        W 8974   7.206  37.433  11.898
47554W        W 8975   4.918   3.247  11.439
47555W        W 8976  12.128  39.984   0.441
47556W        W 8977   0.359  23.007   3.332
47557W        W 8978  32.444  15.175  12.093
47558W        W 8979  27.988  37.371   4.138
47559W        W 8980  33.940  41.804  14.963
47560W        W 8981   9.161  33.911   3.693
47561W        W 8982  16.162  13.320   4.333
47562W        W 8983  21.250  37.907   0.918
47563W        W 8984  41.464   1.383  12.462
47564W        W 8985  28.619  26.497  13.872
47565W        W 8986   2.914  33.530  14.763
47566W        W 8987  29.570   8.796   2.300
47567W        W 8988   2.928  22.245  12.972
47568W        W 8989  21.513  27.614   2.330
47569W        W 8990  15.327  36.869   3.250
47570W        W 8991  30.499   9.705   4.633
47571W        W 8992  21.199   2.932  11.911
47572W        W 8993  29.490  44.475  14.862
47573W        W 8994  29.477  21.513   0.736
47574W        W 8995   4.748  29.667  12.968
47575W        W 8996  31.474   6.766  14.801
47576W        W 8997   6.374  21.676  13.834
47577W        W 8998   4.429  23.582  13.888
47578W        W 8999  33.974  17.655  14.449
47579W        W 9000  13.732  22.233  13.032
47580W        W 9001  31.410  11.338  14.008
47581W        W 9002  23.085  42.889  14.949
47582W        W 9003  25.132  17.131   1.439
47583W        W 9004  42.283   5.825  13.375
47584W        W 9005  34.909  30.470   0.926
47585W        W 9006  23.538  41.293  11.970
47586W        W 9007  32.904  35.872   0.282
47587W        W 9008  27.664  21.539   0.791
47588W        W 9009  17.260  44.262   1.321
47589W        W 9010  36.505  14.248   1.744
47590W        W 9011  22.639  42.394   3.651
47591W        W 9012  34.399  41.858   3.306
47592W        W 9013  29.595  11.763   1.891
47593W        W 9014  29.017   6.212   3.809
47594W        W 9015  27.567  31.988  14.315
47595W        W 9016  26.646  19.276  14.789
47596W        W 9017  40.931   2.266   0.738
47597W        W 9018   4.304  32.443  11.001
47598W        W 9019  28.996  14.113  13.471
47599W        W 9020  21.734  21.651  11.059
47600W        W 9021  11.642   0.812  11.010
47601W        W 9022  44.894  41.301  12.389
47602W        W 9023   5.382  16.792   4.599
47603W        W 9024  39.895  12.711  14.426
47604W        W 9025  25.201   0.874  13.987
47605W        W 9026  35.386  43.357  13.395
47606W        W 9027  16.575  32.637   0.477
47607W        W 9028  40.015  33.414   1.790
47608W        W 9029  12.126  12.746   4.647
47609W        W 9030  24.585  34.437  14.278
47610W        W 9031  44.453  29.163   2.689
47611W        W 9032  37.947   2.458  14.990
47612W        W 9033   3.362   0.904  12.838
47613W        W 9034  28.002  24.017  14.937
47614W        W 9035  19.067  32.515   0.772
47615W        W 9036  10.682  25.067  11.973
47616W        W 9037   2.965  25.493   0.833
47617W        W 9038  26.518  33.474   3.148
47618W        W 9039  34.452  41.914  12.381
47619W        W 9040  28.972  29.933   4.702
47620W        W 9041   1.441   7.254  13.915
47621W        W 9042  29.539  24.228   4.120
47622W        W 9043  35.366  27.997   2.233
47623W        W 9044  10.182  30.520  13.393
47624W        W 9045   0.828  40.992  13.960
47625W        W 9046  15.171   4.349   4.259
47626W        W 9047   4.912  44.467   1.247
47627W        W 9048  43.488  27.092   4.707
47628W        W 9049  35.419  12.282  11.042
47629W        W 9050  31.152  43.332   2.246
47630W        W 9051   4.847  32.464   2.721
47631W        W 9052  20.561  33.953   0.377
47632W        W 9053  24.665  35.522  13.982
47633W        W 9054  30.584  24.535   3.636
47634W        W 9055   7.322  12.282  12.372
47635W        W 9056  27.013   5.357   0.405
47636W        W 9057   1.870  44.268   2.387
47637W        W 9058  40.327  28.050   2.260
47638W        W 9059   2.259  39.002   0.824
47639W        W 9060  29.044  21.195   0.279
47640W        W 9061   1.863   1.924  11.458
47641W        W 9062  15.769  24.188  11.079
47642W        W 9063  10.279  10.346  14.023
47643W        W 9064  17.159  31.092  11.875
47644W        W 9065   6.322  35.865  12.915
47645W        W 9066  18.549  12.828  12.068
47646W        W 9067  23.155  32.543   4.821
47647W        W 9068  18.738   1.753  12.510
47648W        W 9069  21.050   0.336  12.859
47649W        W 9070  32.553   2.947   2.825
47650W        W 9071  29.477  11.296  14.424
47651W        W 9072   0.862  39.465  12.340
47652W        W 9073   3.851  20.666   4.810
47653W        W 9074  37.853  21.617   0.416
47654W        W 9075  34.508   6.716   2.320
47655W        W 9076   4.836  38.953   4.751
47656W        W 9077  22.132  32.929   3.216
47657W        W 9078  39.403  37.418   2.225
47658W        W 9079   6.368  32.000   0.958
47659W        W 9080  12.239   5.898  11.056
47660W        W 9081  23.201  27.173  10.407
47661W        W 9082  30.060  11.754   0.803
47662W        W 9083  23.101  37.848  10.521
47663W        W 9084  29.589  29.499  10.551
47664W        W 9085  43.826   5.230   1.866
47665W        W 9086  37.578  43.969  10.485
47666W        W 9087  44.356  12.830  10.941
47667W        W 9088  38.862   9.271  13.406
47668W        W 9089  32.522  25.511  14.796
47669W        W 9090  17.212  25.573   1.723
47670W        W 9091   3.722  22.639  13.016
47671W        W 9092  19.605  20.055   2.228
47672W        W 9093  31.643  25.147   1.409
47673W        W 9094  29.014  35.583   4.725
47674W        W 9095  18.625  40.396  14.500
47675W        W 9096  29.989   0.491   0.899
47676W        W 9097  44.473  37.376   2.215
47677W        W 9098  15.211   4.915   0.785
47678W        W 9099  17.129   9.710  11.951
47679W        W 9100  35.518  25.036  14.982
47680W        W 9101  17.567  26.644   3.379
47681W        W 9102  29.573  36.069   3.380
47682W        W 9103  23.677  10.755   1.727
47683W        W 9104   4.424  41.400   0.836
47684W        W 9105   0.815  28.595  12.351
47685W        W 9106  34.419  44.885   3.765
47686W        W 9107  40.880  16.759  11.861
47687W        W 9108  11.673  43.891   0.418
47688W        W 9109  13.639  35.032  11.110
47689W        W 9110  41.426  44.275   0.744
47690W        W 9111  14.285  28.569  13.938
47691W        W 9112  44.297  30.586  11.003
47692W        W 9113  39.428   4.431   0.843
47693W        W 9114  32.431  23.083   1.828
47694W        W 9115  17.215  17.120   0.385
47695W        W 9116  14.690  35.958  12.052
47696W        W 9117  23.598  31.008   0.813
47697W        W 9118  13.821  16.295   2.679
47698W        W 9119  16.742  28.954  14.478
47699W        W 9120  27.039  39.952  13.383
47700W        W 9121  19.688   2.334  13.379
47701W        W 9122  16.599  15.792   2.367
47702W        W 9123  10.292   9.826  11.002
47703W        W 9124   1.797   0.904  13.996
47704W        W 9125   4.699  11.243  11.488
47705W        W 9126  19.744  30.065  11.018
47706W        W 9127   1.754  21.242  14.286
47707W        W 9128  42.798  19.154   1.853
47708W        W 9129  35.577  26.649   3.833
47709W        W 9130  25.042  25.037  12.010
47710W        W 9131  13.226  41.007  10.919
47711W        W 9132   3.414  27.088  12.030
47712W        W 9133  33.961   4.767  13.324
47713W        W 9134   4.301  18.758  12.925
47714W        W 9135  33.876   0.417  10.612
47715W        W 9136   5.726  23.524   3.744
47716W        W 9137   4.710  41.499  13.972
47717W        W 9138  43.313  32.489   0.849
47718W        W 9139  25.617   4.329   4.290
47719W        W 9140  40.958  21.575   2.687
47720W        W 9141   3.312  44.361  11.905
47721W        W 9142  18.715   3.948   3.180
47722W        W 9143   5.298  42.888  11.567
47723W        W 9144  34.980  39.477  14.781
47724W        W 9145  25.033  34.096  14.362
47725W        W 9146   3.932  41.441  11.121
47726W        W 9147  14.805  25.159   0.936
47727W        W 9148   6.365  33.097  11.010
47728W        W 9149   7.380  16.296  12.952
47729W        W 9150   5.721   2.400   2.877
47730W        W 9151  36.425  28.538  14.981
47731W        W 9152   9.771  27.994  10.925
47732W        W 9153  23.564  26.101  11.460
47733W        W 9154  23.592  33.463   3.708
47734W        W 9155  43.409  23.235  10.589
47735W        W 9156  36.079  12.304   1.282
47736W        W 9157   1.894  25.696  13.028
47737W        W 9158  23.008  27.589  11.385
47738W        W 9159  30.501  24.609  12.872
47739W        W 9160   4.762  17.255   4.763
47740W        W 9161   0.321  25.555  12.026
47741W        W 9162  18.732  21.147  11.887
47742W        W 9163   9.264   5.889  13.418
47743W        W 9164  19.256  41.338   2.692
47744W        W 9165  23.110  22.114  11.430
47745W        W 9166   1.894  26.610   4.693
47746W        W 9167  26.096  15.810   0.917
47747W        W 9168  30.604  24.130  11.089
47748W        W 9169  23.571  39.499  14.330
47749W        W 9170  20.173  26.953   2.318
47750W        W 9171  19.056  24.605  10.915
47751W        W 9172  17.269  26.522  14.477
47752W        W 9173   8.870  22.637   4.781
47753W        W 9174  31.473  10.776  13.391
47754W        W 9175  31.107   1.900   1.859
47755W        W 9176  17.175   9.671   0.892
47756W        W 9177  31.960  18.757   0.763
47757W        W 9178  29.028  44.450  11.007
47758W        W 9179  31.491  20.734   0.329
47759W        W 9180  39.926  11.867  11.578
47760W        W 9181  34.897  18.556   0.839
47761W        W 9182  44.494  38.556   0.442
47762W        W 9183  27.991  11.179  13.826
47763W        W 9184  10.164   5.377   3.209
47764W        W 9185  18.099   4.240   4.744
47765W        W 9186  35.968  32.423   0.908
47766W        W 9187  31.974  23.130   1.744
47767W        W 9188  11.779  44.418   4.776
47768W        W 9189  24.662  41.859  11.999
47769W        W 9190  16.596  19.129   1.802
47770W        W 9191  12.831   9.695  12.837
47771W        W 9192  16.271  13.242   3.258
47772W        W 9193  37.845  19.705  13.416
47773W        W 9194  18.720  38.476  11.431
47774W        W 9195  24.621  12.843   0.355
47775W        W 9196  19.651  34.095  12.556
47776W        W 9197   2.298  43.989   3.713
47777W        W 9198  32.630  30.154   0.367
47778W        W 9199  42.485  20.597   1.267
47779W        W 9200  25.112  21.017   4.708
47780W        W 9201  41.455  26.582   2.181
47781W        W 9202  43.425   7.275  10.611
47782W        W 9203  36.557  17.605   3.261
47783W        W 9204  22.631  19.561   2.897
47784W        W 9205   6.715  11.176  14.967
47785W        W 9206  34.423  44.362  13.963
47786W        W 9207  15.305  11.769   2.781
47787W        W 9208  18.089  39.949   1.337
47788W        W 9209  31.597  22.637  12.517
47789W        W 9210  37.864  12.283   3.232
47790W        W 9211  28.064  28.172  14.865
47791W        W 9212  35.427  44.891   0.374
47792W        W 9213  31.619  15.104  13.391
47793W        W 9214  30.599  35.940   4.297
47794W        W 9215  41.026  38.019   1.731
47795W        W 9216  27.183  26.624   1.271
47796W        W 9217   4.782  10.707   0.756
47797W        W 9218  29.087  40.514   1.422
47798W        W 9219  36.912  14.306   0.833
47799W        W 9220  26.119  12.357   3.325
47800W        W 9221  11.242   3.249   4.659
47801W        W 9222   3.332  39.324   0.922
47802W        W 9223  42.506  22.121  11.502
47803W        W 9224   7.830  10.737   2.208
47804W        W 9225  15.326  41.458   3.718
47805W        W 9226  14.208  42.012   5.309
47806W        W 9227   4.336  16.298   4.319
47807W        W 9228  34.525  20.769  13.546
47808W        W 9229  37.387   5.910   2.281
47809W        W 9230   7.303  25.614   3.732
47810W        W 9231   8.842  36.399  11.474
47811W        W 9232  10.697  41.410  10.012
47812W        W 9233   0.355  11.637  14.388
47813W        W 9234   5.702  15.107   3.248
47814W        W 9235  37.342  10.798  11.415
47815W        W 9236  37.871  38.955  13.955
47816W        W 9237  21.735  30.077   2.235
47817W        W 9238  31.077  42.860  12.554
47818W        W 9239   5.776  35.448  14.326
47819W        W 9240  17.649  25.060   3.675
47820W        W 9241  40.906  22.086   1.900
47821W        W 9242  38.422   2.792   3.641
47822W        W 9243   1.323  37.336   1.342
47823W        W 9244   9.801   2.740   3.686
47824W        W 9245  27.171  30.535  12.458
47825W        W 9246  15.146  22.199   4.332
47826W        W 9247  17.232   8.686  12.037
47827W        W 9248  31.983   2.956   1.447
47828W        W 9249  39.829  18.091  11.857
47829W        W 9250   5.797  42.888   0.914
47830W        W 9251  28.159  29.056   2.232
47831W        W 9252   1.946   4.409   0.894
47832W        W 9253  44.390   0.825  11.604
47833W        W 9254  26.108  33.476  11.501
47834W        W 9255  22.743  29.482   2.825
47835W        W 9256  15.301  20.662  11.477
47836W        W 9257   8.854  34.102  11.984
47837W        W 9258  41.004  34.600  12.092
47838W        W 9259  42.468  18.061   3.831
47839W        W 9260  33.512  27.683  11.401
47840W        W 9261  34.896  18.206  14.981
47841W        W 9262   0.890  23.712   2.751
47842W        W 9263  28.146  32.429   0.348
47843W        W 9264   0.260  29.037   1.247
47844W        W 9265  12.307  20.604  11.413
47845W        W 9266  30.643  35.599   3.330
47846W        W 9267   5.900  32.456  10.937
47847W        W 9268  33.028  26.996   0.255
47848W        W 9269  21.210  10.636   2.860
47849W        W 9270  13.108  26.027  11.974
47850W        W 9271  33.570  36.978   4.218
47851W        W 9272  40.944  15.299   1.264
47852W        W 9273   8.201  41.440  13.461
47853W        W 9274  12.739  28.490  11.401
47854W        W 9275  27.487   6.844   4.689
47855W        W 9276  38.372  13.601   2.878
47856W        W 9277   5.877  29.026  10.947
47857W        W 9278  29.553  24.558   2.880
47858W        W 9279   0.760   6.264   3.154
47859W        W 9280  21.076   1.906  12.067
47860W        W 9281  25.663  25.499   2.252
47861W        W 9282  40.341   2.835  10.406
47862W        W 9283  23.188  24.676   2.834
47863W        W 9284  35.963  38.061   0.756
47864W        W 9285  44.963   4.760   2.361
47865W        W 9286  11.221  26.613  11.048
47866W        W 9287  23.535  24.123  12.540
47867W        W 9288  24.656  25.711   0.395
47868W        W 9289   7.322   3.403  10.111
47869W        W 9290  28.487  29.052   4.829
47870W        W 9291   3.434  21.512  11.903
47871W        W 9292  41.433   7.288  12.352
47872W        W 9293  15.296   8.170  10.927
47873W        W 9294   6.812  31.108   0.322
47874W        W 9295  25.211  17.287   3.700
47875W        W 9296  30.564   4.869  13.803
47876W        W 9297   2.371  25.978  11.013
47877W        W 9298  29.490  28.590   1.398
47878W        W 9299  35.473  36.905   4.729
47879W        W 9300  18.734  39.933   3.689
47880W        W 9301  29.165   6.410  11.995
47881W        W 9302  16.154  43.427   1.396
47882W        W 9303  22.178  37.362   3.755
47883W        W 9304  16.758  35.905  10.532
47884W        W 9305  24.657  37.864   4.271
47885W        W 9306  14.745  39.030  12.833
47886W        W 9307  20.044   7.790   4.675
47887W        W 9308   6.840   5.201   2.281
47888W        W 9309  19.191  12.719   2.397
47889W        W 9310  40.857  10.777  10.146
47890W        W 9311  32.559  15.765  10.573
47891W        W 9312  23.531  26.635   5.310
47892W        W 9313   3.244  10.784   3.248
47893W        W 9314  41.023  28.990  11.884
47894W        W 9315  29.068  33.617   3.770
47895W        W 9316   4.712  37.957   2.348
47896W        W 9317   4.282  13.825  14.886
47897W        W 9318  11.745  36.537  13.906
47898W        W 9319   5.196  19.157   4.666
47899W        W 9320   6.273  42.525   4.199
47900W        W 9321  17.625   3.404   1.780
47901W        W 9322  10.724  38.891  13.825
47902W        W 9323  12.197   1.282   1.767
47903W        W 9324  18.247  26.526   0.327
47904W        W 9325  44.290  31.567   2.384
47905W        W 9326  42.937  39.500  14.371
47906W        W 9327  12.694  43.971  10.605
47907W        W 9328  15.215   5.254   4.606
47908W        W 9329  24.075  44.880  10.909
47909W        W 9330  15.762  36.948   3.860
47910W        W 9331  37.918  13.327   4.143
47911W        W 9332  41.341  31.930  14.995
47912W        W 9333  33.538  26.109  13.901
47913W        W 9334  44.440  18.092   3.333
47914W        W 9335  41.812   8.841   2.372
47915W        W 9336   0.299   9.215   3.373
47916W        W 9337   0.391   2.430   1.851
47917W        W 9338  33.573  38.868   2.697
47918W        W 9339   4.828  32.414   2.377
47919W        W 9340  19.187   1.253   4.742
47920W        W 9341  12.752  30.555  13.000
47921W        W 9342   8.398  23.582   4.701
47922W        W 9343  14.705  35.001  14.293
47923W        W 9344  41.995  14.731   1.399
47924W        W 9345  25.667  41.523  14.472
47925W        W 9346  42.797  32.073   2.719
47926W        W 9347  36.524  18.211   3.699
47927W        W 9348  34.074   1.929   2.896
47928W        W 9349  35.483  27.630  13.054
47929W        W 9350  12.166  19.756   0.838
47930W        W 9351  24.077  28.066  13.427
47931W        W 9352  38.449  39.023  11.532
47932W        W 9353   4.741   0.880  12.086
47933W        W 9354  34.563  38.867   3.778
47934W        W 9355  32.584  14.308  11.978
47935W        W 9356  32.992  11.739  10.572
47936W        W 9357  35.970  34.100  13.954
47937W        W 9358  29.965   4.943  12.925
47938W        W 9359   9.387  10.161   0.790
47939W        W 9360   4.853  12.276   1.302
47940W        W 9361  39.429   3.425   0.747
47941W        W 9362  36.515   8.204  11.501
47942W        W 9363  21.149  31.150   4.354
47943W        W 9364  36.571  10.166  14.383
47944W        W 9365  27.019  41.453   5.302
47945W        W 9366  28.102  17.782   0.919
47946W        W 9367  30.031   0.809  11.484
47947W        W 9368  35.989  12.246   4.166
47948W        W 9369  43.301  13.239   4.618
47949W        W 9370  36.070  16.181   3.264
47950W        W 9371  16.132  16.805   9.481
47951W        W 9372  19.057   3.917   2.683
47952W        W 9373  21.035  43.432   4.623
47953W        W 9374  42.943  13.820  10.609
47954W        W 9375  34.448  27.005   0.874
47955W        W 9376   4.771   5.337  13.926
47956W        W 9377  21.241   3.734   3.727
47957W        W 9378  26.088  12.272   4.771
47958W        W 9379  43.952   9.202  13.540
47959W        W 9380  29.022  10.808   4.718
47960W        W 9381   1.971  34.577  10.104
47961W        W 9382  35.909  29.919   0.796
47962W        W 9383  10.783  11.147   4.308
47963W        W 9384   0.399  22.200   3.717
47964W        W 9385  42.991  28.515   2.815
47965W        W 9386   2.441  19.568   3.684
47966W        W 9387  23.544   9.252   9.941
47967W        W 9388  15.278  44.972  12.000
47968W        W 9389  34.119   2.948   1.271
47969W        W 9390   6.725  12.658   4.261
47970W        W 9391  19.228  22.162   4.629
47971W        W 9392   1.779  25.554   4.704
47972W        W 9393  28.147   0.900  11.435
47973W        W 9394  15.694   6.332   5.090
47974W        W 9395  29.669   2.230   1.364
47975W        W 9396  31.897  11.233   0.794
47976W        W 9397  40.884   5.698   4.246
47977W        W 9398  11.155  28.957   2.272
47978W        W 9399  41.997   1.305   0.283
47979W        W 9400  34.545  33.606   1.352
47980W        W 9401   7.875   5.699   2.237
47981W        W 9402  39.910  28.526  10.627
47982W        W 9403   9.377  35.392  13.417
47983W        W 9404  13.698  35.486  12.501
47984W        W 9405  30.014  34.415  14.793
47985W        W 9406  38.893  33.610   2.682
47986W        W 9407   7.319  24.116  11.472
47987W        W 9408   9.313  35.510  12.856
47988W        W 9409  21.260  36.036   2.198
47989W        W 9410  38.340  21.556  14.396
47990W        W 9411   0.252  19.687  13.939
47991W        W 9412  17.097  10.321  10.904
47992W        W 9413   2.827  20.727  13.028
47993W        W 9414  38.546   3.350  11.389
47994W        W 9415  11.201  30.429  13.946
47995W        W 9416  43.369  41.483  12.533
47996W        W 9417  34.018  36.846   3.762
47997W        W 9418  40.922  41.503   4.780
47998W        W 9419  18.626  25.072   4.315
47999W        W 9420  37.514  36.912  13.911
48000W        W 9421  17.102  38.964   4.252
48001W        W 9422  19.170  18.164   1.758
48002W        W 9423  40.045   9.270  13.924
48003W        W 9424  41.378  20.590   2.401
48004W        W 9425  35.995  16.124   2.884
48005W        W 9426  20.661   9.801   0.283
48006W        W 9427   1.796  26.508   3.795
48007W        W 9428  35.861  43.393   1.881
48008W        W 9429  40.519   3.351   4.742
48009W        W 9430  33.949  21.202  12.351
48010W        W 9431  28.674  31.908   4.631
48011W        W 9432  11.310  38.070   0.829
48012W        W 9433  22.084  43.438   4.827
48013W        W 9434   3.310  39.354  10.505
48014W        W 9435   1.954  14.675   1.367
48015W        W 9436   1.832   4.782  12.936
48016W        W 9437  33.130  12.280   0.884
48017W        W 9438  15.615   8.721  14.849
48018W        W 9439  34.945  35.079   4.288
48019W        W 9440   0.373  44.351  10.561
48020W        W 9441  35.954  13.275  10.893
48021W        W 9442   7.321  41.466   1.843
48022W        W 9443  32.603  30.165   3.166
48023W        W 9444  37.493  29.961   2.858
48024W        W 9445  12.635   1.773   1.809
48025W        W 9446  23.036  32.606   3.695
48026W        W 9447   6.347  13.194   4.232
48027W        W 9448  42.847  21.184   4.735
48028W        W 9449   1.798  19.268  12.984
48029W        W 9450  34.439  13.200  13.519
48030W        W 9451  33.054  19.118  14.356
48031W        W 9452  22.089  34.949  13.368
48032W        W 9453   0.953  13.278   0.267
48033W        W 9454  43.295  19.134   0.295
48034W        W 9455  17.756   3.893  12.361
48035W        W 9456  37.947  25.003   1.742
48036W        W 9457  41.041  27.650   4.132
48037W        W 9458   5.876  30.505  14.008
48038W        W 9459  39.355  20.197   4.161
48039W        W 9460  12.662  19.722  12.012
48040W        W 9461  12.151  24.571   0.777
48041W        W 9462  16.718  12.824   2.795
48042W        W 9463  25.668   0.814   3.326
48043W        W 9464  10.703  23.188   1.400
48044W        W 9465  33.424  14.676  12.834
48045W        W 9466  17.088  40.382  11.027
48046W        W 9467   2.866   5.234   3.369
48047W        W 9468  30.624  30.490  13.382
48048W        W 9469  31.050   8.678  10.587
48049W        W 9470  16.804  30.602  11.406
48050W        W 9471   2.944  44.479   1.444
48051W        W 9472  31.611  28.930  11.940
48052W        W 9473  43.819  41.314  14.369
48053W        W 9474   2.843  13.342   1.881
48054W        W 9475   2.379  13.727   4.202
48055W        W 9476  24.494   4.336  14.348
48056W        W 9477  32.987   3.263  13.898
48057W        W 9478   4.322  34.013  11.502
48058W        W 9479  36.429  18.783   2.889
48059W        W 9480  25.506   1.801  12.355
48060W        W 9481  34.901  12.769  14.957
48061W        W 9482  33.407  37.472   5.127
48062W        W 9483  40.004  28.602  11.047
48063W        W 9484  19.600  38.989   1.740
48064W        W 9485  38.997  36.444   0.890
48065W        W 9486   2.740  29.589   2.253
48066W        W 9487  43.349   9.653   0.954
48067W        W 9488   7.873   1.420  13.868
48068W        W 9489   9.343  17.579  14.950
48069W        W 9490   8.673  29.094  14.348
48070W        W 9491  43.463  27.026  14.907
48071W        W 9492  38.375  25.987  10.479
48072W        W 9493  36.511   6.891  11.574
48073W        W 9494  34.567  36.003  11.056
48074W        W 9495  10.875  36.990  11.600
48075W        W 9496  41.966  21.560   4.803
48076W        W 9497  27.990  24.670   3.208
48077W        W 9498   4.389  20.556  11.972
48078W        W 9499  35.972  38.047   3.308
48079W        W 9500  21.654  34.904  11.566
48080W        W 9501  34.397  35.372   3.220
48081W        W 9502  18.604  11.700  14.876
48082W        W 9503  10.664  29.531  14.010
48083W        W 9504  24.100  34.372  10.145
48084W        W 9505  17.637  36.939   4.824
48085W        W 9506  10.839  12.695  14.911
48086W        W 9507  32.469   3.325   1.863
48087W        W 9508  42.872  11.689  11.601
48088W        W 9509  23.219  12.635  13.820
48089W        W 9510   3.855  15.727  14.373
48090W        W 9511   0.915   0.795   1.848
48091W        W 9512  38.425   6.411   3.831
48092W        W 9513   2.434  31.964   2.862
48093W        W 9514  36.348  11.632  12.466
48094W        W 9515  31.568  28.156  12.381
48095W        W 9516  29.087  26.044  13.454
48096W        W 9517  36.589  30.458  10.074
48097W        W 9518  15.754  39.825  14.001
48098W        W 9519   9.707   9.155  12.527
48099W        W 9520  31.059   9.740   3.703
48100W        W 9521  31.130  38.898  13.061
48101W        W 9522   7.227  40.887  14.382
48102W        W 9523  14.321  22.201  12.094
48103W        W 9524  26.544   0.341   1.378
48104W        W 9525  26.967  20.578  13.392
48105W        W 9526  15.300  22.536  10.641
48106W        W 9527  29.541  32.416  13.394
48107W        W 9528   4.896  22.721  12.090
48108W        W 9529   4.916  43.391  10.446
48109W        W 9530   9.209  30.047   2.843
48110W        W 9531  31.018  26.617  12.887
48111W        W 9532  25.035   7.194   1.357
48112W        W 9533  13.653  10.354   2.805
48113W        W 9534   3.763   3.243   4.618
48114W        W 9535  17.648  19.706   0.443
48115W        W 9536  43.302   4.288   0.336
48116W        W 9537  43.949  10.303   1.350
48117W        W 9538  16.622  20.688   2.851
48118W        W 9539  34.390   3.714   4.182
48119W        W 9540  19.641  34.375  10.638
48120W        W 9541   5.345  42.873  14.897
48121W        W 9542   4.265  26.518   3.345
48122W        W 9543  30.601  22.679   2.892
48123W        W 9544  43.271  21.686   3.797
48124W        W 9545  43.979  18.287   1.229
48125W        W 9546   6.726  15.658   3.198
48126W        W 9547  42.845  41.002  12.360
48127W        W 9548  41.360  40.901  14.286
48128W        W 9549  39.523  10.235  13.359
48129W        W 9550  26.536  35.417   2.836
48130W        W 9551  22.043  22.242  12.957
48131W        W 9552  21.207   1.341  12.362
48132W        W 9553  39.447  27.070   0.462
48133W        W 9554  22.219  21.034  14.823
48134W        W 9555  11.334  16.200   0.441
48135W        W 9556  38.464   5.417   1.811
48136W        W 9557  13.274  40.523   5.215
48137W        W 9558  23.587  37.543   0.323
48138W        W 9559  43.471  28.439   1.824
48139W        W 9560  24.113   5.388   2.353
48140W        W 9561  19.696  17.101  10.988
48141W        W 9562  28.056  35.856   5.089
48142W        W 9563  25.597   8.356   0.753
48143W        W 9564   7.235  25.165   4.266
48144W        W 9565   3.814  16.644  13.460
48145W        W 9566  17.266  26.028   3.175
48146W        W 9567  19.761  36.016  10.561
48147W        W 9568  40.887  20.719  12.036
48148W        W 9569  23.993  25.033  12.064
48149W        W 9570  41.037   5.419   2.355
48150W        W 9571  21.570  22.996  13.452
48151W        W 9572  14.098  33.125  13.342
48152W        W 9573  15.276  42.399   0.378
48153W        W 9574  41.461  31.897  10.479
48154W        W 9575   9.694  27.154  10.989
48155W        W 9576  44.787  42.957   9.934
48156W        W 9577  14.782  14.178  10.444
48157W        W 9578  36.589   1.279  12.534
48158W        W 9579  18.221  11.348   0.931
48159W        W 9580  12.836   2.825   3.158
48160W        W 9581  36.492   7.333  14.791
48161W        W 9582  22.601  19.208  11.544
48162W        W 9583  10.773  43.853   4.627
48163W        W 9584  31.505  19.233  11.570
48164W        W 9585  24.191  11.197   2.366
48165W        W 9586  38.894  23.505   1.377
48166W        W 9587   5.397   9.706   1.224
48167W        W 9588   5.712  33.130  13.929
48168W        W 9589  28.069  42.461  12.440
48169W        W 9590  39.886  37.411   3.720
48170W        W 9591  11.852  44.325   5.121
48171W        W 9592  29.631  20.657  10.516
48172W        W 9593   5.201  35.903   3.771
48173W        W 9594  15.287   1.286   4.756
48174W        W 9595  32.035  37.884  14.501
48175W        W 9596  19.537   7.683   0.753
48176W        W 9597  28.498  20.062  13.861
48177W        W 9598   2.357  44.360  11.031
48178W        W 9599  40.464  38.834   2.836
48179W        W 9600  30.096  35.406  13.394
48180W        W 9601  27.660  31.075   4.343
48181W        W 9602   8.253  43.847   4.762
48182W        W 9603  42.381  13.234  11.558
48183W        W 9604   8.813  34.437  11.503
48184W        W 9605  24.515  23.232  13.478
48185W        W 9606  28.669  39.315  10.636
48186W        W 9607  30.948  44.956   1.833
48187W        W 9608  19.164   8.358   1.811
48188W        W 9609  15.322  20.102   0.861
48189W        W 9610  22.096  21.552  11.940
48190W        W 9611  42.508  25.615   2.347
48191W        W 9612  11.782  16.174  11.125
48192W        W 9613  42.854  15.591  11.862
48193W        W 9614  37.051  35.020  13.022
48194W        W 9615  32.549  26.526   5.263
48195W        W 9616  38.502  32.118   1.289
48196W        W 9617   7.776  35.371  13.819
48197W        W 9618   7.820  29.497  14.858
48198W        W 9619  10.299  17.225   2.383
48199W        W 9620  22.076  17.613   3.244
48200W        W 9621  32.031  23.038   1.222
48201W        W 9622  41.998   3.821  10.448
48202W        W 9623   9.818  15.791   4.759
48203W        W 9624   5.294  27.516  14.412
48204W        W 9625  12.265  10.288  12.345
48205W        W 9626  25.193  10.716   1.347
48206W        W 9627  44.907   5.358   1.447
48207W        W 9628   7.733  38.437  12.445
48208W        W 9629  41.467  27.628   3.384
48209W        W 9630  41.388  31.581  10.940
48210W        W 9631  30.597  28.667   3.695
48211W        W 9632  16.634  19.192  14.407
48212W        W 9633  11.720  15.638   3.328
48213W        W 9634   5.900   7.395   4.245
48214W        W 9635  21.195  27.543   2.242
48215W        W 9636  43.371   5.219  13.884
48216W        W 9637  16.288  26.465   4.129
48217W        W 9638  42.339  36.452   4.753
48218W        W 9639   2.763  40.530   2.350
48219W        W 9640  24.054  29.458   2.662
48220W        W 9641  36.970  31.988   1.842
48221W        W 9642  14.640  30.576   1.313
48222W        W 9643  34.491   0.987   4.218
48223W        W 9644  16.692  44.473  12.973
48224W        W 9645  44.979  27.127   4.678
48225W        W 9646   0.817   6.793   1.266
48226W        W 9647  28.032  20.194   4.621
48227W        W 9648  44.320   1.924   2.265
48228W        W 9649  14.777  29.437   1.829
48229W        W 9650  41.516   3.247   1.802
48230W        W 9651   5.275  27.974   5.208
48231W        W 9652  11.136  44.908  11.018
48232W        W 9653  39.031  22.142   2.344
48233W        W 9654  33.045   9.156  14.361
48234W        W 9655  13.171  34.383  13.384
48235W        W 9656  18.682  42.418   1.699
48236W        W 9657  21.696  33.480   0.448
48237W        W 9658  22.680   5.914  10.603
48238W        W 9659  15.668  39.925  10.116
48239W        W 9660  20.167  11.303  13.947
48240W        W 9661  17.609  13.184  12.580
48241W        W 9662  18.619  37.354   2.220
48242W        W 9663  37.507  38.505   4.740
48243W        W 9664  12.197  30.017   3.859
48244W        W 9665   9.359  13.634  12.960
48245W        W 9666  21.613   6.256  14.765
48246W        W 9667  18.704  42.890   4.609
48247W        W 9668   5.349  43.801  11.605
48248W        W 9669  18.634  44.313  10.486
48249W        W 9670  15.179  33.896   4.735
48250W        W 9671  34.065  22.014   4.633
48251W        W 9672  18.619  18.250   5.145
48252W        W 9673  34.447  32.064   1.848
48253W        W 9674  41.441  33.559  12.059
48254W        W 9675  22.518  20.602  14.991
48255W        W 9676  12.739  42.921   2.304
48256W        W 9677  16.264  34.044  11.896
48257W        W 9678  13.231  16.135   3.181
48258W        W 9679  29.167  44.355  13.813
48259W        W 9680  34.958  23.134   3.302
48260W        W 9681  44.983  17.222   0.403
48261W        W 9682   5.281   7.368  10.933
48262W        W 9683  17.117  28.092   4.820
48263W        W 9684  15.771  34.967  11.974
48264W        W 9685  44.360   9.181  11.425
48265W        W 9686  15.580   2.942   1.248
48266W        W 9687   0.978  35.592  10.641
48267W        W 9688  40.321  14.219  13.434
48268W        W 9689  36.363  13.712  14.414
48269W        W 9690   2.405  27.956   0.916
48270W        W 9691  42.297  32.629   3.798
48271W        W 9692  20.263  24.724   4.284
48272W        W 9693  19.048  41.307  10.486
48273W        W 9694  27.118   6.388  11.896
48274W        W 9695   4.279  22.726  13.963
48275W        W 9696  19.753  41.789   1.872
48276W        W 9697  40.875  30.949  12.850
48277W        W 9698  39.333  42.859  14.405
48278W        W 9699  27.574  18.172  12.848
48279W        W 9700  31.622   9.650   5.621
48280W        W 9701   6.711  33.050  14.837
48281W        W 9702  10.645  14.230   5.319
48282W        W 9703  13.334  37.360  12.838
48283W        W 9704  42.908  13.267   1.780
48284W        W 9705  14.329  31.001  11.491
48285W        W 9706  11.131  11.780  14.880
48286W        W 9707  25.135   5.317  11.998
48287W        W 9708   3.805  30.576   4.304
48288W        W 9709   0.297  16.232   2.351
48289W        W 9710  39.831  13.222   2.324
48290W        W 9711  33.043  36.097   2.825
48291W        W 9712  20.271  35.063  14.465
48292W        W 9713  40.305  12.672  14.461
48293W        W 9714  25.507  19.076  11.497
48294W        W 9715  29.099   1.814   4.291
48295W        W 9716  26.053   0.811   0.396
48296W        W 9717  21.643  18.200  12.864
48297W        W 9718  23.091  11.323  12.086
48298W        W 9719  14.169  35.921  11.593
48299W        W 9720  19.599  33.426  12.875
48300W        W 9721  31.140   4.423  12.048
48301W        W 9722  12.689  34.427   0.345
48302W        W 9723  37.518  31.008  10.575
48303W        W 9724  22.665  43.311   4.124
48304W        W 9725  35.063  10.370  11.043
48305W        W 9726  29.124  16.794   4.126
48306W        W 9727  25.134  24.057   1.447
48307W        W 9728  35.094  34.600   5.084
48308W        W 9729  41.536  15.318   0.906
48309W        W 9730   6.316  43.338   0.932
48310W        W 9731  10.740  24.065   1.723
48311W        W 9732  16.729  43.869   2.284
48312W        W 9733  18.060  17.675  11.466
48313W        W 9734  25.137  27.953   4.130
48314W        W 9735  12.203  33.119  10.475
48315W        W 9736  20.555  37.417  14.020
48316W        W 9737   3.905  34.116  12.004
48317W        W 9738  40.041  10.800   0.743
48318W        W 9739  10.670   1.887   2.748
48319W        W 9740  30.148  25.691   0.733
48320W        W 9741  19.568  43.500  10.620
48321W        W 9742   0.888  28.649   3.335
48322W        W 9743  44.285  31.946   1.802
48323W        W 9744   1.306  14.148   1.317
48324W        W 9745  19.081  16.106   9.963
48325W        W 9746  23.665  27.091  12.502
48326W        W 9747  33.390   8.675   3.148
48327W        W 9748  36.359  33.111   3.870
48328W        W 9749  34.079   6.359  13.394
48329W        W 9750   3.340  29.923   2.244
48330W        W 9751  17.268  21.072   3.703
48331W        W 9752  18.216  14.611  12.578
48332W        W 9753  30.968   1.960  13.984
48333W        W 9754  17.755  26.522  10.910
48334W        W 9755  35.940  15.816   3.787
48335W        W 9756  37.548  24.160   0.246
48336W        W 9757   8.887  23.538   0.886
48337W        W 9758  12.201  41.861   0.843
48338W        W 9759  41.847  14.190  14.324
48339W        W 9760   9.215   2.349   4.657
48340W        W 9761  13.828   7.844  11.380
48341W        W 9762  13.350  22.618  11.593
48342W        W 9763   5.420  16.301   0.931
48343W        W 9764  15.770   4.208   3.335
48344W        W 9765   6.741   8.217   4.294
48345W        W 9766   3.793  25.497   2.354
48346W        W 9767  18.106   2.240   0.483
48347W        W 9768  24.643  14.647   2.807
48348W        W 9769  14.622   2.733  14.873
48349W        W 9770   6.301  19.744  14.031
48350W        W 9771  17.113  27.483   1.784
48351W        W 9772  40.532   9.274  11.571
48352W        W 9773   8.762  21.630  13.867
48353W        W 9774  10.677  13.688  11.948
48354W        W 9775  22.088  21.528   2.412
48355W        W 9776  16.172  15.679  11.856
48356W        W 9777  26.542  40.950   0.436
48357W        W 9778  44.870   4.316  13.837
48358W        W 9779  40.972   0.339   1.785
48359W        W 9780  44.418  14.750  10.923
48360W        W 9781  38.480  34.968  13.391
48361W        W 9782   8.671  22.708   0.789
48362W        W 9783  27.663  10.171  12.361
48363W        W 9784   8.227  22.687   2.751
48364W        W 9785  39.979  20.165   2.291
48365W        W 9786  35.602  24.148  13.880
48366W        W 9787  44.007  14.611   4.651
48367W        W 9788   1.924  31.976  14.850
48368W        W 9789  25.053  24.990   2.876
48369W        W 9790  27.038  23.120   2.210
48370W        W 9791  24.628  15.208   2.812
48371W        W 9792  35.978  30.592   4.832
48372W        W 9793  24.982  42.334   4.644
48373W        W 9794  10.674  11.268  13.362
48374W        W 9795  41.305  18.278   2.419
48375W        W 9796  16.727  37.830   3.379
48376W        W 9797   3.732  37.851   1.890
48377W        W 9798   1.932  40.825  12.343
48378W        W 9799  43.494  17.680   4.152
48379W        W 9800  41.345  33.411   1.879
48380W        W 9801  25.544  36.978   2.804
48381W        W 9802  17.675  16.074   0.357
48382W        W 9803   1.908  16.670   4.218
48383W        W 9804   2.811  43.953   0.911
48384W        W 9805  11.276  39.372   0.297
48385W        W 9806   5.263  17.160  14.295
48386W        W 9807  11.708   3.941  13.524
48387W        W 9808  18.240  19.133   2.286
48388W        W 9809  24.530   2.227  12.559
48389W        W 9810  24.600  44.950   2.696
48390W        W 9811  34.458  12.640   2.366
48391W        W 9812  25.022  39.911   4.344
48392W        W 9813  40.890  24.184  12.087
48393W        W 9814  23.520  25.214   0.475
48394W        W 9815  13.157  17.569   4.145
48395W        W 9816  33.955  30.039   1.309
48396W        W 9817   0.883  40.933   0.730
48397W        W 9818   0.839  29.976   3.371
48398W        W 9819  21.203  14.282   1.392
48399W        W 9820  27.996  27.660  13.399
48400W        W 9821  34.877  37.449  14.021
48401W        W 9822   0.398  23.652  11.496
48402W        W 9823  40.513  11.180  10.515
48403W        W 9824   2.258  23.539   3.674
48404W        W 9825  44.277  15.284   1.395
48405W        W 9826  20.124  38.365   2.291
48406W        W 9827  12.166  34.917   0.416
48407W        W 9828  44.929  43.980  14.357
48408W        W 9829  34.088   3.272  12.548
48409W        W 9830  38.839  32.951   3.307
48410W        W 9831  14.716  11.655  14.347
48411W        W 9832  39.483  19.058   1.801
48412W        W 9833   2.752  43.335   4.313
48413W        W 9834   9.212   3.754  14.805
48414W        W 9835  37.849  13.812  13.979
48415W        W 9836  20.212  27.446   2.750
48416W        W 9837  21.621   5.704  12.492
48417W        W 9838   6.305   8.804   2.775
48418W        W 9839  30.576   9.872   0.842
48419W        W 9840  17.622  37.553   1.414
48420W        W 9841  23.091  13.273   0.758
48421W        W 9842  12.774  37.947  12.883
48422W        W 9843   5.192  12.138   2.281
48423W        W 9844  24.116  27.955   0.901
48424W        W 9845  25.528  17.242   1.384
48425W        W 9846  31.434   4.376  14.846
48426W        W 9847  21.574  17.682   2.314
48427W        W 9848  38.418  13.627  14.492
48428W        W 9849  15.757   6.825   5.153
48429W        W 9850  35.374  35.600  10.612
48430W        W 9851   3.263  35.539   3.207
48431W        W 9852  35.963  16.663   4.623
48432W        W 9853  22.560  36.390   4.705
48433W        W 9854  22.646  20.648   4.777
48434W        W 9855  15.143  31.542  14.334
48435W        W 9856  40.976   1.782  12.482
48436W        W 9857  43.318  27.142   0.431
48437W        W 9858   7.212  40.427  13.475
48438W        W 9859   5.269  42.886  12.398
48439W        W 9860  18.289  30.516  11.605
48440W        W 9861  14.714  17.128   2.844
48441W        W 9862  16.175  41.982  12.048
48442W        W 9863  15.716  34.966   3.225
48443W        W 9864   7.252  27.537   1.842
48444W        W 9865   2.910  24.086   5.291
48445W        W 9866  39.483  34.586  12.510
48446W        W 9867   7.190  29.042   3.203
48447W        W 9868  13.308  44.876  14.274
48448W        W 9869  18.764   4.406   1.906
48449W        W 9870  37.350  40.409   5.321
48450W        W 9871   4.234   3.712   0.788
48451W        W 9872  12.312  38.492   0.731
48452W        W 9873  38.031  11.268   0.835
48453W        W 9874  44.367  39.474  10.021
48454W        W 9875  41.918   9.817   1.283
48455W        W 9876  35.476  29.132   4.153
48456W        W 9877   8.901   9.689  12.077
48457W        W 9878  21.648  20.662  14.814
48458W        W 9879  19.270  44.491   1.809
48459W        W 9880  25.655  15.124  11.379
48460W        W 9881  21.088   1.388   3.322
48461W        W 9882  31.571  27.069  10.479
48462W        W 9883  16.235  21.588   4.717
48463W        W 9884   0.952   7.181  10.515
48464W        W 9885  29.579  33.996   2.242
48465W        W 9886   8.387  38.076   4.616
48466W        W 9887   0.458  26.953   0.925
48467W        W 9888  24.550  39.954   1.237
48468W        W 9889  15.283  27.572   2.770
48469W        W 9890  24.646  43.006  14.871
48470W        W 9891  14.805  38.488   2.670
48471W        W 9892  30.990  41.039   1.806
48472W        W 9893  16.156   2.726  12.396
48473W        W 9894   9.716  16.085   2.842
48474W        W 9895  35.016  44.789  14.758
48475W        W 9896  37.988  20.755   2.267
48476W        W 9897   5.763  34.407  12.352
48477W        W 9898   6.244  37.579  10.464
48478W        W 9899  22.057  40.861  14.359
48479W        W 9900  42.921  35.414  10.907
48480W        W 9901  28.450  33.486   4.732
48481W        W 9902  11.735   8.322  13.535
48482W        W 9903  29.432  24.666   1.890
48483W        W 9904  42.806  10.335   2.212
48484W        W 9905  40.860  13.784  11.589
48485W        W 9906   2.912  37.580   3.176
48486W        W 9907  38.489   1.817  11.527
48487W        W 9908   8.778  36.464  13.863
48488W        W 9909  13.840  34.506  13.378
48489W        W 9910  31.058  11.200  12.418
48490W        W 9911  17.769  24.135   3.200
48491W        W 9912   9.832  38.917  14.943
48492W        W 9913  29.551  44.009  12.867
48493W        W 9914  25.201  24.494   3.281
48494W        W 9915  21.755  32.094   5.118
48495W        W 9916   1.274   3.243   1.785
48496W        W 9917   8.161   1.782  14.839
48497W        W 9918  18.222  20.571   1.899
48498W        W 9919  33.053  15.269  12.417
48499W        W 9920  36.953  14.097  12.021
48500W        W 9921  23.129   3.342  12.472
48501W        W 9922  20.171  17.135  13.810
48502W        W 9923  39.958  34.612   3.237
48503W        W 9924   0.985  39.879  13.406
48504W        W 9925   2.468  22.106  11.008
48505W        W 9926  40.410  33.519  13.964
48506W        W 9927  24.122   9.203  10.093
48507W        W 9928   2.927   5.737   3.171
48508W        W 9929   6.242  16.663  11.384
48509W        W 9930   7.839  24.680  14.329
48510W        W 9931  37.531  17.756   2.210
48511W        W 9932  23.663  27.657  12.445
48512W        W 9933  11.336  28.553   2.209
48513W        W 9934  19.096  39.970   1.931
48514W        W 9935  34.874  44.352  10.509
48515W        W 9936   6.838  19.577   1.397
48516W        W 9937  36.451  33.414  12.933
48517W        W 9938  15.686   8.362   4.768
48518W        W 9939  14.749   1.952  14.492
48519W        W 9940  43.367  16.288  14.428
48520W        W 9941  38.885  43.786  12.507
48521W        W 9942   4.425  26.654  12.918
48522W        W 9943  40.973   9.231  11.570
48523W        W 9944  13.734  24.539   4.117
48524W        W 9945  19.577  38.327  11.062
48525W        W 9946  32.001  38.402   4.804
48526W        W 9947  25.648  40.450  12.955
48527W        W 9948  32.023  41.915   4.173
48528W        W 9949  38.973  29.460   4.293
48529W        W 9950  43.457  25.031  11.411
48530W        W 9951  19.579  33.023   3.285
48531W        W 9952  30.128   0.795  14.789
48532W        W 9953   0.757  19.152  10.559
48533W        W 9954  20.565  29.984  14.766
48534W        W 9955  21.532  12.245   5.272
48535W        W 9956  22.046  27.486   1.269
48536W        W 9957  13.680  32.455   2.285
48537W        W 9958  32.052  41.947  13.533
48538W        W 9959  30.592  11.692  12.036
48539W        W 9960  31.023  27.634   3.846
48540W        W 9961  25.625  26.996   4.327
48541W        W 9962  44.983  19.707  14.786
48542W        W 9963  28.980  43.005  12.896
48543W        W 9964  42.411   6.799   3.791
48544W        W 9965  12.200  19.671   4.791
48545W        W 9966  33.063  28.033  12.977
48546W        W 9967  22.675  33.433  11.037
48547W        W 9968  13.163   8.401  13.407
48548W        W 9969  15.771  41.988  13.942
48549W        W 9970  13.754   9.850   3.776
48550W        W 9971   8.182  15.237   3.310
48551W        W 9972  36.564   7.851  13.953
48552W        W 9973  40.048   4.210  14.492
48553W        W 9974  30.585  17.078  10.543
48554W        W 9975  28.586  38.897  14.010
48555W        W 9976  37.371  11.263  12.402
48556W        W 9977   6.238  21.658  11.113
48557W        W 9978  24.572  16.281  14.938
48558W        W 9979  25.135  43.390   2.691
48559W        W 9980   0.935  17.565   1.860
48560W        W 9981  16.283  24.687  11.010
48561W        W 9982  39.058  27.163  13.494
48562W        W 9983  22.542   5.330   1.399
48563W        W 9984  17.145  11.787  13.049
48564W        W 9985   1.810  40.895   0.945
48565W        W 9986   5.908  36.556   3.173
48566W        W 9987  38.919  12.628   4.748
48567W        W 9988  31.647  25.172   0.293
48568W        W 9989   6.918  12.731   3.637
48569W        W 9990  32.406   1.845  12.510
48570W        W 9991   1.242  16.145  13.975
48571W        W 9992  30.420  29.118  13.407
48572W        W 9993   8.200  34.104   2.307
48573W        W 9994   8.840  18.779  10.511
48574W        W 9995   2.822  22.659   0.472
48575W        W 9996  20.610  36.988   0.310
48576W        W 9997  43.483  23.180   2.187
48577W        W 9998  35.892  44.287  12.005
48578W        W 9999  36.856  31.647   4.663
48579W        W10000   8.667  44.329   1.917
48580W        W10001  39.885  35.511  10.420
48581W        W10002  22.210   7.887  13.448
48582W        W10003   3.925  40.513  10.569
48583W        W10004  21.199  37.371   1.268
48584W        W10005   4.208  29.526   2.807
48585W        W10006  14.285  38.831  10.582
48586W        W10007  30.615   7.227  12.083
48587W        W10008  14.617   9.188  12.858
48588W        W10009  26.113   6.362  10.592
48589W        W10010   4.700  18.082  11.103
48590W        W10011  14.159  10.376  12.972
48591W        W10012  41.997   8.333  11.117
48592W        W10013  38.821   5.715  12.027
48593W        W10014  15.603  33.021   2.350
48594W        W10015   9.764  28.668  14.972
48595W        W10016  18.783   2.374  11.608
48596W        W10017  25.711  34.516   4.784
48597W        W10018  34.453  35.094  11.993
48598W        W10019  11.800  28.090  10.141
48599W        W10020  22.243  38.044   2.705
48600W        W10021  24.642  37.511  10.981
48601W        W10022  24.706   1.767  13.796
48602W        W10023  36.881  35.604  10.963
48603W        W10024  39.377   5.324   4.604
48604W        W10025  16.318  23.499  14.789
48605W        W10026  14.800  20.254   3.706
48606W        W10027  37.974  43.468  13.035
48607W        W10028  24.600  42.486  13.316
48608W        W10029   6.402   9.229  12.918
48609W        W10030   2.466  22.018  11.410
48610W        W10031  39.461  42.010   1.260
48611W        W10032  16.076   3.938   3.862
48612W        W10033  17.162   6.264  12.059
48613W        W10034  29.425  11.722  11.477
48614W        W10035  25.686   1.243  13.932
48615W        W10036  13.329  31.021   2.804
48616W        W10037  22.221  11.798   1.917
48617W        W10038  43.419   1.476  12.833
48618W        W10039  14.171  15.208  10.054
48619W        W10040   9.383   5.770   3.255
48620W        W10041  33.396  16.706   2.356
48621W        W10042  23.112  28.146  10.581
48622W        W10043  39.999  44.451  14.913
48623W        W10044   6.289  31.558  14.275
48624W        W10045  13.780  18.768   0.437
48625W        W10046  21.077  39.551   1.808
48626W        W10047  39.026   8.248  10.125
48627W        W10048  17.749   1.935   4.232
48628W        W10049  40.537  29.582  13.444
48629W        W10050  34.457  28.136  11.004
48630W        W10051  24.580  28.476  11.877
48631W        W10052  11.717   6.683   2.320
48632W        W10053  42.775  20.751   0.889
48633W        W10054  18.120   7.728  11.863
48634W        W10055   1.472  13.295   4.202
48635W        W10056   5.304  18.273   2.205
48636W        W10057   0.793  35.571   4.215
48637W        W10058  43.911   2.410  14.408
48638W        W10059  26.565  43.823   9.960
48639W        W10060  35.045  22.069  14.775
48640W        W10061  29.090   8.681   3.320
48641W        W10062  12.785  19.730   0.898
48642W        W10063  15.649  29.004   3.317
48643W        W10064  42.834  34.990  13.344
48644W        W10065   3.383  22.053  13.391
48645W        W10066  12.846  34.584   4.241
48646W        W10067  16.615  42.898   3.808
48647W        W10068   7.744  19.580  11.584
48648W        W10069   8.779  33.958   4.224
48649W        W10070  30.984  19.092  11.405
48650W        W10071  13.728  28.655  11.062
48651W        W10072  22.047  35.491  10.603
48652W        W10073  23.636  43.280  14.885
48653W        W10074   5.280  14.650  14.811
48654W        W10075  23.017  43.769   1.891
48655W        W10076  20.202  39.452   3.200
48656W        W10077  18.078  29.085  13.043
48657W        W10078   0.266  41.930  12.482
48658W        W10079   9.272  20.156   1.360
48659W        W10080  13.282   5.217  11.972
48660W        W10081  16.100   6.316   0.807
48661W        W10082   5.371  10.310  14.951
48662W        W10083  25.678  29.614   1.370
48663W        W10084  24.508   9.675  10.479
48664W        W10085  15.623  43.340   2.398
48665W        W10086   7.897  11.836   1.307
48666W        W10087  28.640   0.378  11.510
48667W        W10088  21.538  21.232  11.907
48668W        W10089  13.141   5.194   2.874
48669W        W10090  37.995   5.856  12.043
48670W        W10091  42.318  27.666  12.970
48671W        W10092  11.278  23.729   2.350
48672W        W10093  10.829   1.808  14.513
48673W        W10094  26.676  28.944   9.950
48674W        W10095  19.067  35.589   0.934
48675W        W10096  11.330  17.786   3.164
48676W        W10097   8.328  38.009  12.864
48677W        W10098  14.294   4.700   0.880
48678W        W10099  28.080  20.674  13.355
48679W        W10100  33.537  21.070   3.729
48680W        W10101  40.535   3.872   0.482
48681W        W10102  31.988   6.799   4.837
48682W        W10103  35.864  18.094   2.837
48683W        W10104  29.136   1.308   2.344
48684W        W10105  34.952  34.041   3.767
48685W        W10106  41.889   9.266   4.191
48686W        W10107  44.928  14.604   3.780
48687W        W10108  26.181  15.767   1.311
48688W        W10109  20.593   9.771  13.926
48689W        W10110   2.308  39.850  12.012
48690W        W10111   0.404  26.166   2.844
48691W        W10112  27.650   9.300  10.417
48692W        W10113  37.985  31.042   0.881
48693W        W10114  31.032  44.437   1.276
48694W        W10115  29.595   9.222   0.918
48695W        W10116  33.084   5.887  14.925
48696W        W10117   7.351  42.928   2.695
48697W        W10118  23.005  21.164   4.768
48698W        W10119  36.847   3.367   9.996
48699W        W10120  21.610  43.933  13.864
48700W        W10121  20.093   5.709  10.158
48701W        W10122   7.342   9.297  12.502
48702W        W10123  33.084  31.404   0.918
48703W        W10124  40.943  19.646  13.463
48704W        W10125  14.099  42.485  14.443
48705W        W10126  35.471  42.415   2.250
48706W        W10127  40.379  44.433  13.418
48707W        W10128  38.409  33.501   1.233
48708W        W10129  32.463  13.786   5.182
48709W        W10130  42.916  25.170   2.253
48710W        W10131  30.485  39.962  11.487
48711W        W10132  42.910  13.265   2.871
48712W        W10133  43.457  18.168   0.317
48713W        W10134  36.876  26.571  13.446
48714W        W10135  16.800  39.507   0.452
48715W        W10136   7.219  40.523   4.251
48716W        W10137  20.248  21.569  13.361
48717W        W10138  10.683  32.580  13.380
48718W        W10139  16.728  17.224  14.896
48719W        W10140  35.016   8.206  13.064
48720W        W10141  35.102  33.595  12.043
48721W        W10142  25.577  31.112  13.342
48722W        W10143  31.602  12.256  14.426
48723W        W10144  27.087  26.150   2.387
48724W        W10145   1.329  15.747  12.072
48725W        W10146  16.600  19.673  10.494
48726W        W10147  34.866  24.609   1.272
48727W        W10148   2.289  18.753  12.082
48728W        W10149  35.960  13.606   4.725
48729W        W10150  12.278  28.468   4.193
48730W        W10151  34.613   8.898   0.366
48731W        W10152  10.376   0.457   3.783
48732W        W10153   5.812  27.089   4.257
48733W        W10154  42.807   4.757  12.366
48734W        W10155  21.676  25.019   5.268
48735W        W10156  25.191   3.292   4.124
48736W        W10157  38.525  24.631  10.913
48737W        W10158  23.675  18.713  10.562
48738W        W10159   4.321  25.112   1.762
48739W        W10160  15.194  15.786   4.126
48740W        W10161  27.054   4.815  14.377
48741W        W10162   6.329  28.941  14.315
48742W        W10163  25.619  31.413   1.857
48743W        W10164   5.219  11.366  14.947
48744W        W10165   7.286  21.620   2.798
48745W        W10166  14.816  20.225  14.425
48746W        W10167   1.439  30.576   0.857
48747W        W10168  33.583  11.155   5.164
48748W        W10169  30.150  40.398   4.664
48749W        W10170  40.935  29.096  14.443
48750W        W10171  44.473  14.689   3.338
48751W        W10172  16.784  31.549  13.464
48752W        W10173  24.977  22.580  14.492
48753W        W10174  12.720  25.619   2.343
48754W        W10175   7.236   1.871  11.426
48755W        W10176  38.857   0.934  13.317
48756W        W10177   8.247  44.894  14.296
48757W        W10178  22.250   4.445  14.815
48758W        W10179  10.296   9.750   3.247
48759W        W10180  30.512   7.704   1.305
48760W        W10181  36.992   5.361   4.658
48761W        W10182   7.224  44.802   2.283
48762W        W10183  21.565  17.169  14.866
48763W        W10184   8.253  20.091  11.979
48764W        W10185  16.643  13.771  12.436
48765W        W10186  16.720  19.191  13.406
48766W        W10187  38.495   6.793   2.716
48767W        W10188   8.802  19.246  10.571
48768W        W10189  32.143  20.570  14.981
48769W        W10190  22.051  24.617  13.495
48770W        W10191  34.479  10.383   4.807
48771W        W10192  30.614  28.947  14.917
48772W        W10193  32.904  38.497  13.454
48773W        W10194  24.683   3.282   1.346
48774W        W10195  21.689  36.014  10.906
48775W        W10196  38.074  17.174  11.952
48776W        W10197   5.838  38.381  10.421
48777W        W10198   8.670  32.119  14.768
48778W        W10199  14.825  35.920   3.696
48779W        W10200   9.824  16.743  11.562
48780W        W10201   0.276   0.969  11.965
48781W        W10202  28.469  25.613   4.734
48782W        W10203   7.305  39.460  14.840
48783W        W10204  19.164  31.544  11.977
48784W        W10205  11.167  23.643   2.857
48785W        W10206  36.970  15.616  14.851
48786W        W10207   4.437   6.682  13.353
48787W        W10208  37.409  22.160  11.532
48788W        W10209   9.728  23.675  14.999
48789W        W10210  29.426  41.316   1.448
48790W        W10211  28.101  35.853  10.087
48791W        W10212   8.785  21.214   2.792
48792W        W10213   0.484  33.606  12.849
48793W        W10214  22.235  32.060  11.460
48794W        W10215  11.282   0.458  12.944
48795W        W10216  25.186  36.088   2.836
48796W        W10217   8.318   9.725   2.189
48797W        W10218  26.970  32.531  13.380
48798W        W10219   3.399  38.548   3.719
48799W        W10220  26.004  16.142   4.674
48800W        W10221  26.620  32.076   3.347
48801W        W10222  32.900  34.419   2.370
48802W        W10223  36.461  36.348  10.621
48803W        W10224  19.236  25.093  12.368
48804W        W10225  13.784  27.544   0.429
48805W        W10226   4.279  11.278   2.182
48806W        W10227  18.551  43.953   1.794
48807W        W10228  31.473  44.426   2.719
48808W        W10229   7.715  16.721  13.521
48809W        W10230  40.383  15.819   2.413
48810W        W10231  32.083  26.175   0.370
48811W        W10232  15.595  23.669  10.152
48812W        W10233  39.435   6.246  11.603
48813W        W10234  22.610  41.509   1.925
48814W        W10235  20.747   7.697  12.570
48815W        W10236  21.179  27.017   3.667
48816W        W10237  35.543  13.244   3.338
48817W        W10238  25.667  13.625   0.343
48818W        W10239  20.680   5.318  13.995
48819W        W10240  13.717  27.610  14.030
48820W        W10241  24.217  30.582   0.253
48821W        W10242  35.067  18.076   3.186
48822W        W10243  18.549  27.021   4.759
48823W        W10244   2.411  38.400   4.817
48824W        W10245   3.796  20.665   0.822
48825W        W10246  17.570   3.288   4.682
48826W        W10247   1.774  10.875   4.351
48827W        W10248  42.891  19.563  10.022
48828W        W10249  25.205  11.329  14.402
48829W        W10250  17.619  31.456   5.116
48830W        W10251  43.401  44.988   3.235
48831W        W10252   8.746  25.626  10.557
48832W        W10253  27.036  31.521  11.032
48833W        W10254  28.490  13.830  13.809
48834W        W10255  14.717  36.539  12.425
48835W        W10256  15.735  25.131   2.357
48836W        W10257   0.453  13.665   0.730
48837W        W10258  31.064  42.390  12.033
48838W        W10259  37.847  42.790  14.881
48839W        W10260   2.275  13.750  10.435
48840W        W10261  33.892  25.174   1.304
48841W        W10262   6.320   3.320   4.772
48842W        W10263  34.966   6.235   2.213
48843W        W10264  44.933  39.882   2.395
48844W        W10265  44.946  13.309  12.878
48845W        W10266  22.592  10.640   2.691
48846W        W10267   7.871   4.793  13.518
48847W        W10268  22.638   3.736   9.530
48848W        W10269  13.108  26.024   2.345
48849W        W10270  37.844  32.030   4.754
48850W        W10271  13.215   3.729   1.777
48851W        W10272   9.161  18.279   1.317
48852W        W10273  33.506  28.084   2.365
48853W        W10274  29.599   2.426  12.017
48854W        W10275   3.898  40.390  12.087
48855W        W10276  39.990  10.383   0.743
48856W        W10277  27.066  10.166  11.416
48857W        W10278  19.723   7.213  14.938
48858W        W10279  10.363   4.730  14.796
48859W        W10280  27.101  15.085   0.467
48860W        W10281  34.461  21.193   2.385
48861W        W10282  36.429  38.029   0.257
48862W        W10283  22.692   1.793  13.987
48863W        W10284   7.171  33.040   2.839
48864W        W10285  30.642   9.731  10.413
48865W        W10286  27.034  37.453  11.099
48866W        W10287   5.274  14.778   1.357
48867W        W10288  15.586  14.607   3.300
48868W        W10289  13.223  35.057   0.396
48869W        W10290   6.407  17.729   0.404
48870W        W10291  14.249  29.133   0.924
48871W        W10292  25.606  24.664   2.236
48872W        W10293  42.871  41.313  13.970
48873W        W10294  24.230  43.362  10.574
48874W        W10295  15.749  23.216  14.373
48875W        W10296   6.397  37.933  11.972
48876W        W10297  12.133  20.063  11.445
48877W        W10298   0.333  10.831   2.349
48878W        W10299  44.784   9.793   3.638
48879W        W10300  28.457  19.186  14.860
48880W        W10301  44.311  18.553  11.925
48881W        W10302  30.514  43.989   3.370
48882W        W10303   6.805  35.867   3.752
48883W        W10304  23.122   8.329   0.332
48884W        W10305  18.179   3.874  11.549
48885W        W10306  23.043  34.050   1.778
48886W        W10307  19.567  15.792   5.804
48887W        W10308  15.260  25.144   3.151
48888W        W10309  41.348  25.107   2.358
48889W        W10310  34.410  35.004   0.261
48890W        W10311   1.359  38.995  12.498
48891W        W10312  29.163  26.531   1.265
48892W        W10313  15.154  43.501  14.889
48893W        W10314  39.490  18.760   1.405
48894W        W10315  31.914  37.999   4.780
48895W        W10316  14.595   3.821  13.332
48896W        W10317  21.755  29.175  12.428
48897W        W10318  40.339  34.590   3.758
48898W        W10319  10.364  18.204   0.789
48899W        W10320  31.105  21.703  12.457
48900W        W10321  11.344  11.652  12.541
48901W        W10322  27.454  17.653  13.483
48902W        W10323  41.859   1.909   3.738
48903W        W10324   7.911  15.654   2.181
48904W        W10325  23.056  11.795   1.357
48905W        W10326  24.222  39.966   9.951
48906W        W10327  23.562   8.686   9.497
48907W        W10328  13.267  32.608   1.389
48908W        W10329  29.568   2.962  14.902
48909W        W10330  41.033  33.100  11.952
48910W        W10331  24.589  38.969  12.447
48911W        W10332  31.041  37.945  12.550
48912W        W10333  44.811  40.970   0.354
48913W        W10334  36.034  38.822  13.993
48914W        W10335  21.083  28.492  10.418
48915W        W10336  17.699  42.934   4.771
48916W        W10337  26.510  36.039  11.071
48917W        W10338  35.010  32.134   0.297
48918W        W10339  26.018  25.010   2.779
48919W        W10340  19.170  34.406   4.194
48920W        W10341  33.978  38.057  12.419
48921W        W10342  42.294  26.094   4.656
48922W        W10343  42.995  19.587  10.528
48923W        W10344   2.390   2.866   2.183
48924W        W10345  11.730   3.937  13.878
48925W        W10346   4.222   9.241  10.598
48926W        W10347  12.271  31.064   2.183
48927W        W10348  36.400  12.793  11.612
48928W        W10349  27.160   5.222  12.566
48929W        W10350  21.245  17.687   1.777
48930W        W10351  38.032  16.706  14.308
48931W        W10352  30.424  21.245  10.628
48932W        W10353  27.596  31.512  14.841
48933W        W10354  35.973  26.533   5.144
48934W        W10355  33.400  20.145   0.751
48935W        W10356  34.514  12.344  14.871
48936W        W10357  20.692  11.821  11.433
48937W        W10358  37.453  38.373   4.240
48938W        W10359   2.393   5.714   2.308
48939W        W10360  37.453  36.052  12.520
48940W        W10361  19.119  36.917  11.058
48941W        W10362  33.412   0.754   0.751
48942W        W10363  32.023  30.955   1.294
48943W        W10364   5.263  27.518  10.544
48944W        W10365   9.827  15.190  14.012
48945W        W10366  12.724  24.616  14.415
48946W        W10367  11.744  20.069   2.684
48947W        W10368  29.029  38.990   4.678
48948W        W10369   0.969   6.814   1.915
48949W        W10370  35.598  41.004  13.358
48950W        W10371  37.569  25.564   1.808
48951W        W10372  36.898   4.700   2.264
48952W        W10373  33.485  29.006  14.763
48953W        W10374  18.622  33.976   0.289
48954W        W10375  34.977   3.879  11.897
48955W        W10376  21.167  40.903  10.515
48956W        W10377  16.726   2.334   2.352
48957W        W10378   1.902  31.609   0.355
48958W        W10379   9.352  22.704  13.059
48959W        W10380   3.779  13.215  12.435
48960W        W10381  28.625  14.719   3.755
48961W        W10382  28.183  13.216  12.019
48962W        W10383  42.920   2.873   1.363
48963W        W10384  29.078  41.415   2.193
48964W        W10385  13.144   3.954   4.716
48965W        W10386  26.174  42.446   2.802
48966W        W10387  14.160  43.892  14.404
48967W        W10388   5.836  34.979  11.421
48968W        W10389  36.072   5.403  10.976
48969W        W10390  29.659  31.055  11.128
48970W        W10391  35.406  44.324  14.961
48971W        W10392   5.212  20.146   0.361
48972W        W10393  14.210  21.176   3.807
48973W        W10394  35.390   4.415  12.967
48974W        W10395  24.517   1.269   3.343
48975W        W10396   8.312  26.189   4.712
48976W        W10397  22.533  18.559  13.363
48977W        W10398  13.846  18.762   4.253
48978W        W10399  43.874  30.555  10.627
48979W        W10400  37.050  21.642  10.584
48980W        W10401  29.553  21.634   3.226
48981W        W10402  41.912  41.391  10.565
48982W        W10403  15.100  24.631   2.252
48983W        W10404  14.341  17.726   3.196
48984W        W10405  39.902  25.475  13.808
48985W        W10406  25.629  23.162   0.245
48986W        W10407   6.818  14.257  12.916
48987W        W10408   2.833   8.348   4.257
48988W        W10409   7.867  43.795   2.862
48989W        W10410   7.344  44.008  12.921
48990W        W10411   6.685  33.903   0.443
48991W        W10412  17.281  41.338   3.167
48992W        W10413  44.287  42.926   1.827
48993W        W10414  10.700  35.074   1.349
48994W        W10415   1.957  10.829   0.411
48995W        W10416  28.651  40.510   3.697
48996W        W10417  21.076  43.483   3.856
48997W        W10418  31.637  41.437   0.913
48998W        W10419  25.620  19.723   2.764
48999W        W10420   1.926   0.420  11.514
49000W        W10421   4.935  41.925  14.908
49001W        W10422   6.921  23.100  10.096
49002W        W10423  11.706  17.568  14.359
49003W        W10424  37.364   2.809  13.843
49004W        W10425   7.307  40.478   2.373
49005W        W10426  36.096  20.730  12.485
49006W        W10427   3.953   6.366   4.686
49007W        W10428  42.822   0.920   2.284
49008W        W10429   4.394  22.063  11.007
49009W        W10430   5.844  26.128   2.309
49010W        W10431   7.269  11.649   2.766
49011W        W10432   5.286   9.392   3.250
49012W        W10433   0.921  24.512  12.895
49013W        W10434   6.312   9.151  10.501
49014W        W10435  29.659  16.699   1.254
49015W        W10436   0.314  43.948   0.924
49016W        W10437  16.113  20.726   2.280
49017W        W10438  18.635  18.678  10.040
49018W        W10439  39.323  43.288  11.074
49019W        W10440   0.390  23.735  12.879
49020W        W10441  21.689   8.881  14.447
49021W        W10442  25.124  42.396  14.760
49022W        W10443  21.653  32.082   4.738
49023W        W10444  35.866  37.446   4.169
49024W        W10445  37.404  38.907   2.839
49025W        W10446   2.950   9.829   4.777
49026W        W10447   5.294  25.603  10.999
49027W        W10448   9.645  32.578   4.792
49028W        W10449  42.435  14.789   5.318
49029W        W10450  15.161   4.869   2.393
49030W        W10451   0.899   1.896   4.198
49031W        W10452  43.953  15.135   0.805
49032W        W10453  15.729  13.296  11.101
49033W        W10454   4.709  32.949   4.624
49034W        W10455   1.296   0.889  12.085
49035W        W10456  14.213   1.428  14.029
49036W        W10457  26.507  19.674  10.031
49037W        W10458  30.457   3.282  14.451
49038W        W10459  10.361   3.248   2.207
49039W        W10460  19.547  19.762  11.435
49040W        W10461  40.309   4.767  14.892
49041W        W10462  42.830  29.018   4.329
49042W        W10463  27.174  38.491   1.859
49043W        W10464   8.192  22.014  10.588
49044W        W10465   4.387  31.072   2.689
49045W        W10466   2.346   7.315  13.391
49046W        W10467  39.967   8.885  12.021
49047W        W10468  22.541  28.063   5.152
49048W        W10469  44.827   3.271  13.432
49049W        W10470  41.870  27.568  12.839
49050W        W10471  19.592   8.782   4.713
49051W        W10472  18.734   9.792  10.566
49052W        W10473  10.225  30.135  12.025
49053W        W10474  13.238  21.737   1.319
49054W        W10475  44.372  41.026  11.504
49055W        W10476  17.723  12.614  10.431
49056W        W10477  17.159  28.558  13.880
49057W        W10478  20.572  27.519  12.489
49058W        W10479   9.161   2.825   3.356
49059W        W10480  41.951  34.921   0.808
49060W        W10481   4.281  16.788  13.916
49061W        W10482   1.295  12.282  13.947
49062W        W10483   5.829  43.323   0.810
49063W        W10484   7.306  33.432   0.880
49064W        W10485   7.824  37.572  10.101
49065W        W10486   2.948  17.293   1.876
49066W        W10487  43.900   0.976   4.324
49067W        W10488  34.899  16.661   1.726
49068W        W10489  19.605  29.497   3.157
49069W        W10490  22.199  20.192  10.902
49070W        W10491  14.184  32.978  12.975
49071W        W10492   3.931  34.411  13.983
49072W        W10493  17.087  32.963  14.985
49073W        W10494  32.071  39.555   4.279
49074W        W10495  14.147   8.349   0.797
49075W        W10496  21.131  10.249   2.695
49076W        W10497  11.771  20.557  14.027
49077W        W10498  36.867  42.345   0.920
49078W        W10499   9.165  31.052   3.244
49079W        W10500   1.917  29.144   4.150
49080W        W10501  36.092  14.305   1.432
49081W        W10502  30.525  13.662  12.411
49082W        W10503  27.054  37.535  13.331
49083W        W10504  27.614  12.746  13.995
49084W        W10505   8.848  25.609   0.248
49085W        W10506   5.221   2.408  12.518
49086W        W10507  23.506   2.894   0.245
49087W        W10508  30.940  34.050   0.444
49088W        W10509  42.283  25.642   1.857
49089W        W10510   1.263  10.863   3.733
49090W        W10511  36.004  42.364  12.864
49091W        W10512  24.120  19.693  14.952
49092W        W10513  40.450  40.418   1.437
49093W        W10514  26.609  42.878   1.261
49094W        W10515   7.754   9.268  12.533
49095W        W10516  38.006  43.430  11.482
49096W        W10517  17.076  42.880   1.740
49097W        W10518  39.391  40.950   1.707
49098W        W10519  38.881  42.957  13.462
49099W        W10520  13.617  25.988   2.870
49100W        W10521   3.459  19.766   0.449
49101W        W10522  44.424  14.641   5.083
49102W        W10523  20.121  17.184  14.873
49103W        W10524  38.928  13.142   5.228
49104W        W10525  28.464  36.347  10.928
49105W        W10526  22.732  44.259   5.245
49106W        W10527   6.354  12.289  12.485
49107W        W10528   8.875  39.347   3.754
49108W        W10529  38.053   8.386   3.375
49109W        W10530  15.651   1.356  13.934
49110W        W10531  15.249  25.485   1.289
49111W        W10532  26.010   1.477  14.870
49112W        W10533  22.147  37.373  10.622
49113W        W10534  40.896  13.171  11.937
49114W        W10535   5.893  17.249   2.765
49115W        W10536  35.884  44.430   3.224
49116W        W10537  35.512   9.886   3.197
49117W        W10538  13.302  34.382   0.335
49118W        W10539  37.984  37.957  14.007
49119W        W10540  39.376  43.802   4.309
49120W        W10541   3.727  20.653  13.844
49121W        W10542  44.944  26.185  14.338
49122W        W10543  41.935  13.602   0.964
49123W        W10544  41.029  40.452  14.305
49124W        W10545  14.731  25.589  12.448
49125W        W10546   7.879  30.542   2.270
49126W        W10547  34.587   3.940  12.869
49127W        W10548  43.310  30.536   3.235
49128W        W10549  24.717  32.408   0.405
49129W        W10550  12.180   2.765  12.341
49130W        W10551  40.987  39.942   3.706
49131W        W10552  40.469   1.278  11.392
49132W        W10553   9.348  13.741   1.374
49133W        W10554  19.267   1.451   2.322
49134W        W10555  27.017  15.093  14.513
49135W        W10556   3.348  23.067   2.404
49136W        W10557  25.041   2.909  11.921
49137W        W10558  18.764  40.012  14.367
49138W        W10559  28.478  12.146  14.967
49139W        W10560  17.252  12.754   1.707
49140W        W10561  28.484  19.154  11.000
49141W        W10562   1.420  24.112  12.404
49142W        W10563  23.052  20.740   3.689
49143W        W10564   6.241  32.985  14.009
49144W        W10565  23.702  38.006   1.817
49145W        W10566  39.053  28.058  11.519
49146W        W10567  17.705   4.380  12.523
49147W        W10568  35.924  18.582  13.492
49148W        W10569  18.736   6.218   1.230
49149W        W10570  34.876  24.119  14.286
49150W        W10571  15.167  34.999   0.444
49151W        W10572  38.408  40.476   1.747
49152W        W10573  12.344  44.887   1.234
49153W        W10574  32.120  41.370   4.224
49154W        W10575  17.774  16.592   1.420
49155W        W10576  32.631  11.741  14.885
49156W        W10577  26.141  44.336  10.462
49157W        W10578   4.861   8.774  13.447
49158W        W10579  13.259  12.681  10.457
49159W        W10580  17.705  40.449   4.814
49160W        W10581   3.459  24.532   2.254
49161W        W10582  21.715   5.434   3.838
49162W        W10583   4.279  30.975   3.838
49163W        W10584  40.023  14.231   3.787
49164W        W10585  22.012  33.442   0.808
49165W        W10586  16.570  26.016   0.328
49166W        W10587   4.860  23.698  11.589
49167W        W10588   9.201  22.571   2.718
49168W        W10589  40.395  19.177  13.374
49169W        W10590  34.588  24.043   4.265
49170W        W10591   0.335  10.319  11.860
49171W        W10592   8.684  26.035   0.417
49172W        W10593  43.867  12.149  11.609
49173W        W10594  30.090   4.364  14.794
49174W        W10595  14.265  14.264  14.283
49175W        W10596  10.371  26.055  13.458
49176W        W10597  16.619  20.233   3.722
49177W        W10598  16.689  22.217   4.672
49178W        W10599  12.820  12.336   3.656
49179W        W10600   3.842  22.127   4.288
49180W        W10601  34.916   2.878   1.804
49181W        W10602  13.264  33.553   3.346
49182W        W10603   3.232  17.702  11.882
49183W        W10604  43.777  30.127   3.816
49184W        W10605   6.288   5.694   1.820
49185W        W10606  37.042  27.021   4.184
49186W        W10607  25.497  39.973   0.754
49187W        W10608  24.987  38.047  10.906
49188W        W10609  21.588   7.698  11.394
49189W        W10610  15.673  44.386  14.460
49190W        W10611   1.309  12.754  14.425
49191W        W10612   4.733   2.875   1.359
49192W        W10613  11.371   6.361   0.311
49193W        W10614   6.752  38.455  10.118
49194W        W10615  38.561  20.049  10.475
49195W        W10616   4.339  21.559   4.611
49196W        W10617  42.445  37.429   0.378
49197W        W10618  35.994  15.697   5.274
49198W        W10619  44.463  36.915   3.329
49199W        W10620  36.556   0.272  14.949
49200W        W10621  26.650  37.957   4.792
49201W        W10622  39.417  35.599  12.444
49202W        W10623  15.664  14.109  10.131
49203W        W10624   4.864  30.626   4.719
49204W        W10625  34.382  21.689  12.038
49205W        W10626  26.112  29.662   1.868
49206W        W10627   1.834  36.988  12.917
49207W        W10628  19.740  35.472  13.023
49208W        W10629  16.601  23.240  11.887
49209W        W10630  22.503  42.842  11.594
49210W        W10631  30.613  22.175   1.356
49211W        W10632   0.906  40.431  11.067
49212W        W10633  31.025   5.693  13.492
49213W        W10634   6.396   7.319  10.547
49214W        W10635  12.245  28.105   2.888
49215W        W10636  17.083   1.813  12.080
49216W        W10637  40.389  14.189   1.810
49217W        W10638  35.028  14.212  11.475
49218W        W10639  20.596   3.937   2.189
49219W        W10640  38.988  20.108   3.867
49220W        W10641  12.611  22.533  13.045
49221W        W10642  23.576  43.291  13.852
49222W        W10643  19.745  22.202   0.306
49223W        W10644  10.308  44.997  11.474
49224W        W10645  29.459  10.685  11.503
49225W        W10646  14.705  19.190   2.290
49226W        W10647  28.135  44.288   4.292
49227W        W10648   0.294  11.355   2.744
49228W        W10649  12.807  28.585  14.795
49229W        W10650  26.622   4.248  13.002
49230W        W10651   7.171  23.194  12.483
49231W        W10652  18.607  34.926  10.512
49232W        W10653  20.187  40.333   0.422
49233W        W10654  31.127  13.343   1.933
49234W        W10655   8.310  41.369   4.606
49235W        W10656  19.559   3.241  12.566
49236W        W10657   4.819  43.799  14.974
49237W        W10658  24.645  35.873  14.413
49238W        W10659  41.960  43.827  14.449
49239W        W10660  10.170  14.727   5.164
49240W        W10661  42.977  10.702   0.460
49241W        W10662  25.580  33.386  11.994
49242W        W10663  16.711  27.164   2.288
49243W        W10664  23.217  16.302   2.886
49244W        W10665  17.114  20.163  11.441
49245W        W10666  28.590   0.412   2.267
49246W        W10667  22.091   7.233  12.431
49247W        W10668   7.287  19.668  13.540
49248W        W10669  43.485  22.219  10.896
49249W        W10670   2.465   8.794   4.659
49250W        W10671  38.992  32.913  13.875
49251W        W10672  38.467   0.266   0.370
49252W        W10673  23.180  36.078   3.243
49253W        W10674  37.362   8.382   4.680
49254W        W10675  38.386  18.107   3.356
49255W        W10676   2.238  26.586   4.316
49256W        W10677  39.012  27.471  10.920
49257W        W10678  36.505   3.918   1.286
49258W        W10679  29.042  32.931  11.057
49259W        W10680  10.836  41.863  10.973
49260W        W10681  11.213  12.681  14.821
49261W        W10682   9.296  20.620   1.825
49262W        W10683  43.323  21.048   5.252
49263W        W10684  14.247  42.482   3.163
49264W        W10685  15.105  21.232   1.352
49265W        W10686  20.175  44.416  10.480
49266W        W10687  19.249   1.361  13.957
49267W        W10688  42.359  11.743   4.152
49268W        W10689   9.258  43.899  13.443
49269W        W10690   4.398  16.691  11.877
49270W        W10691   6.277  43.817   1.396
49271W        W10692  22.678   9.240   4.640
49272W        W10693  32.633  38.054  14.909
49273W        W10694  19.240  25.493   3.733
49274W        W10695   9.781  24.494   1.749
49275W        W10696   6.326   1.919   1.707
49276W        W10697  20.762  18.120   4.742
49277W        W10698  35.554  23.553  13.819
49278W        W10699   4.908  40.345   0.799
49279W        W10700  12.620  19.764  12.391
49280W        W10701  29.623  27.503  13.547
49281W        W10702  23.693   4.918   3.759
49282W        W10703  24.205  14.824   3.366
49283W        W10704   1.447  10.365  14.924
49284W        W10705   1.735   3.235  13.835
49285W        W10706  14.755   2.280   4.676
49286W        W10707  27.193  16.789   4.132
49287W        W10708  16.135  32.930  11.865
49288W        W10709  21.075  26.683  11.371
49289W        W10710  31.448  22.599   1.254
49290W        W10711  44.282  30.458   2.254
49291W        W10712  43.850  31.130  12.528
49292W        W10713  40.892  14.256  10.101
49293W        W10714  31.030  23.126  12.423
49294W        W10715   0.307  41.317   1.321
49295W        W10716  39.938  16.801  13.463
49296W        W10717  32.623  10.229  13.925
49297W        W10718  13.299  36.536  13.963
49298W        W10719  17.796  35.423  11.056
49299W        W10720  17.145  31.103   9.534
49300W        W10721  28.532  22.645  14.406
49301W        W10722   2.408  10.698   1.212
49302W        W10723  12.283   1.807   4.132
49303W        W10724  40.481  35.559   0.377
49304W        W10725   9.806  14.797  14.477
49305W        W10726   5.798  25.714   1.807
49306W        W10727   9.352  41.933  13.910
49307W        W10728  29.431  21.555  11.090
49308W        W10729   5.784  16.084  14.834
49309W        W10730   0.250  18.704   1.281
49310W        W10731   7.393  27.098  10.610
49311W        W10732  44.987   9.388   0.837
49312W        W10733  39.503  39.960  13.544
49313W        W10734  16.808   6.680  14.986
49314W        W10735  33.451  28.180  10.950
49315W        W10736  30.524  39.375  14.367
49316W        W10737  33.500  25.041  10.983
49317W        W10738  27.501   5.330   1.320
49318W        W10739  17.214  23.088  11.497
49319W        W10740  42.872  14.799  13.517
49320W        W10741   8.784  24.725   4.164
49321W        W10742  12.654  41.025   3.382
49322W        W10743  42.987  39.524  14.882
49323W        W10744  11.200  34.502   4.280
49324W        W10745  21.690  14.228  11.606
49325W        W10746  41.411  27.103  14.378
49326W        W10747  13.190  29.508   4.609
49327W        W10748  12.818   5.865  12.462
49328W        W10749  18.736  24.117  10.636
49329W        W10750   8.661  42.347  11.930
49330W        W10751  11.188   3.814  13.435
49331W        W10752   9.854  23.671  12.848
49332W        W10753   7.324   3.419  11.581
49333W        W10754  14.108  17.153  12.016
49334W        W10755  15.581  18.171  12.561
49335W        W10756  39.538  42.029   4.636
49336W        W10757   9.809  23.695  13.836
49337W        W10758  10.728   5.235  12.448
49338W        W10759  21.198  30.162   4.783
49339W        W10760  37.459  27.468   0.959
49340W        W10761  28.676  37.944  11.058
49341W        W10762  19.580  15.579   3.146
49342W        W10763  30.015  25.676  11.550
49343W        W10764  17.200  22.745  12.055
49344W        W10765  34.411  30.540   1.738
49345W        W10766   8.289  39.999   0.760
49346W        W10767   1.464  13.132   3.287
49347W        W10768   2.884  22.243  10.644
49348W        W10769  24.010   8.768   9.928
49349W        W10770  11.313  20.707   4.717
49350W        W10771  21.235  32.132   1.244
49351W        W10772  18.290  38.431   3.722
49352W        W10773  22.085  10.371  14.833
49353W        W10774  28.077  30.027  13.432
49354W        W10775   0.292  16.227  14.803
49355W        W10776  35.058  28.930  13.397
49356W        W10777  24.533  37.528   2.306
49357W        W10778  40.845  16.584  11.557
49358W        W10779  28.478  31.960   2.863
49359W        W10780  28.577  14.711   1.904
49360W        W10781  39.967  11.671   4.311
49361W        W10782   1.959   9.806  10.542
49362W        W10783  24.510  11.243  12.993
49363W        W10784  15.231  38.406  13.485
49364W        W10785  44.453  36.065   5.224
49365W        W10786   2.745  39.395  12.920
49366W        W10787  15.824  31.046   1.411
49367W        W10788  42.968  25.496  14.879
49368W        W10789   3.802  41.508   1.860
49369W        W10790  27.564  20.267  13.958
49370W        W10791   8.709  24.153  11.554
49371W        W10792   8.791  34.500   1.287
49372W        W10793  17.642  43.943  10.962
49373W        W10794  11.864  38.347  12.382
49374W        W10795   1.965  42.404   4.325
49375W        W10796  27.015   3.825  14.030
49376W        W10797  29.541  24.493  10.639
49377W        W10798  22.555  18.102  10.120
49378W        W10799  20.273  31.980  13.444
49379W        W10800  14.597   6.343   2.188
49380W        W10801  31.965  17.117   0.417
49381W        W10802  30.525  19.615   0.755
49382W        W10803   8.161  35.982  13.374
49383W        W10804  25.707  37.534  14.412
49384W        W10805   2.855  14.770   1.242
49385W        W10806  29.653  26.989  10.588
49386W        W10807  10.345  21.526  13.990
49387W        W10808  17.221  15.726   3.857
49388W        W10809   2.794  15.723  10.477
49389W        W10810  32.517  16.768  13.506
49390W        W10811  42.969  11.350   2.213
49391W        W10812  17.678   6.785   0.812
49392W        W10813   8.654   1.255   4.186
49393W        W10814  40.440  19.128   1.334
49394W        W10815  36.438  18.549   2.355
49395W        W10816   5.850   9.312  10.632
49396W        W10817  19.117  20.601   1.311
49397W        W10818  27.067  41.898  11.046
49398W        W10819  23.603  23.143  14.763
49399W        W10820  16.655   8.654   2.884
49400W        W10821  41.800  35.033  11.502
49401W        W10822  22.554   9.845   0.341
49402W        W10823  23.682  38.077  13.373
49403W        W10824  28.621  38.478   3.783
49404W        W10825  22.628  13.755   1.813
49405W        W10826  10.283  12.668  12.402
49406W        W10827  41.513  34.103  13.854
49407W        W10828  12.218  12.359  10.538
49408W        W10829  21.638  27.495  14.309
49409W        W10830  12.149   2.840  10.918
49410W        W10831  18.284  20.580   2.310
49411W        W10832  20.651  25.580   3.830
49412W        W10833   2.367  12.258  12.887
49413W        W10834   5.383  37.950  12.859
49414W        W10835  26.491  19.183   1.918
49415W        W10836  24.521  43.462  11.091
49416W        W10837  35.488  10.352  14.355
49417W        W10838  12.356  43.474   4.809
49418W        W10839  17.089  43.466   2.723
49419W        W10840  17.225  35.567  10.030
49420W        W10841   0.959  43.912  14.390
49421W        W10842  20.640  31.600  14.455
49422W        W10843  29.943  34.009  14.495
49423W        W10844   6.872   0.824   4.755
49424W        W10845  12.169  19.576  12.385
49425W        W10846  41.383   9.286  11.565
49426W        W10847  43.010   6.802   3.287
49427W        W10848  24.689  16.087   0.921
49428W        W10849  25.666  25.691   3.674
49429W        W10850  44.338   2.310   4.323
49430W        W10851  23.202  40.395  13.437
49431W        W10852   8.227   6.353   2.220
49432W        W10853   6.767   2.362   0.431
49433W        W10854  41.864  20.245  14.878
49434W        W10855  43.942   4.698   4.343
49435W        W10856  31.431  42.901   2.277
49436W        W10857  13.835  41.843  10.567
49437W        W10858  40.851  42.027  13.043
49438W        W10859  12.744  31.423  11.947
49439W        W10860   3.748   1.323   1.307
49440W        W10861  35.913   3.245   1.694
49441W        W10862  36.384  25.079  12.866
49442W        W10863  30.504  30.151   0.313
49443W        W10864  41.401  11.642   3.828
49444W        W10865  36.590  25.485  11.422
49445W        W10866  37.082   5.743  11.053
49446W        W10867   4.241   2.751   4.317
49447W        W10868  10.378   1.303   1.810
49448W        W10869   9.722  28.953   4.118
49449W        W10870  31.487   1.973  11.084
49450W        W10871  29.581  37.464   2.312
49451W        W10872  16.729  40.997   3.369
49452W        W10873  23.219  17.740  14.484
49453W        W10874  20.224  21.162   9.955
49454W        W10875  25.999  20.670   4.797
49455W        W10876  16.293  14.598   2.790
49456W        W10877  11.798   7.895  11.904
49457W        W10878  30.991   1.285   0.403
49458W        W10879  38.960  17.067  13.543
49459W        W10880  31.544  11.687   2.673
49460W        W10881   9.871   2.838   4.759
49461W        W10882  22.684  19.545  13.061
49462W        W10883  17.601  11.776  14.851
49463W        W10884   1.799  39.011  11.049
49464W        W10885  29.458   5.362  13.883
49465W        W10886  33.455  26.584   0.369
49466W        W10887  35.598  16.693   2.730
49467W        W10888  24.118  37.568  12.852
49468W        W10889  38.838  28.603  12.493
49469W        W10890  26.641  36.063  11.434
49470W        W10891   8.406   9.159   4.746
49471W        W10892   2.809   2.289  13.514
49472W        W10893  22.640  14.313   1.839
49473W        W10894  32.582  28.512   2.837
49474W        W10895   1.875   5.430  13.846
49475W        W10896  19.202  15.625  12.503
49476W        W10897  10.340   5.248  14.977
49477W        W10898  15.210  16.164   4.176
49478W        W10899  10.827  21.567  10.541
49479W        W10900   5.306  33.132   0.483
49480W        W10901  35.542  35.379   1.405
49481W        W10902  24.523  16.107  12.965
49482W        W10903   1.281  41.401  14.371
49483W        W10904   4.294  27.043   1.883
49484W        W10905  44.334  11.797  11.579
49485W        W10906  38.391  11.717  11.474
49486W        W10907  17.664   2.962  14.834
49487W        W10908  32.997   2.833  11.393
49488W        W10909  27.953  29.563   4.725
49489W        W10910  24.496  25.518  14.972
49490W        W10911   6.284  10.173  12.426
49491W        W10912  10.707   7.859   0.831
49492W        W10913  20.736  32.531   4.753
49493W        W10914  43.411  21.214  14.311
49494W        W10915  37.987  17.571   3.780
49495W        W10916   7.318  41.436  13.021
49496W        W10917  41.852  27.098  14.873
49497W        W10918  30.951   3.327   9.973
49498W        W10919  16.300  20.111   3.678
49499W        W10920  23.103  23.611  11.403
49500W        W10921  26.023   1.823  10.520
49501W        W10922  30.063  25.578  14.971
49502W        W10923  19.206  23.646   3.733
49503W        W10924  12.309  13.618   4.344
49504W        W10925  31.493  28.639   4.790
49505W        W10926  24.137  10.755   0.326
49506W        W10927  28.640  10.872  12.495
49507W        W10928   6.790  30.569  12.980
49508W        W10929  16.735  32.578  12.037
49509W        W10930   6.372  13.789  11.461
49510W        W10931  37.936  43.388  10.586
49511W        W10932  16.237  13.695   1.231
49512W        W10933  22.236  44.419  11.897
49513W        W10934  37.015  44.987  14.866
49514W        W10935  38.529  20.655   1.920
49515W        W10936   5.430  35.506   3.741
49516W        W10937   2.846  15.785  14.497
49517W        W10938  20.052  19.655  11.492
49518W        W10939  12.163   5.270  12.871
49519W        W10940  43.405  43.015  14.397
49520W        W10941  33.933  12.701  13.022
49521W        W10942  25.102  12.615   3.197
49522W        W10943   7.713   6.339   1.817
49523W        W10944  39.350   4.315  11.429
49524W        W10945  25.123  29.612  14.357
49525W        W10946  10.753  11.820   2.358
49526W        W10947   4.941   9.294  11.879
49527W        W10948   0.915  12.784  12.883
49528W        W10949   4.770   2.855   0.893
49529W        W10950  31.436  19.657   2.265
49530W        W10951  20.708  30.061  12.090
49531W        W10952   9.828   1.438   1.422
49532W        W10953  38.553  42.840   0.782
49533W        W10954  17.113  40.442   2.732
49534W        W10955  36.387  42.827   0.363
49535W        W10956  42.993  17.208   1.388
49536W        W10957  14.720  26.140  11.868
49537W        W10958  34.382   7.215   0.482
49538W        W10959  36.892  19.606  10.611
49539W        W10960  25.206  28.014   2.737
49540W        W10961  34.959  37.075   0.284
49541W        W10962  27.644  34.490   0.846
49542W        W10963  29.652  28.086   9.932
49543W        W10964   3.335  25.035  12.855
49544W        W10965   5.393  17.290  14.805
49545W        W10966  35.370  37.470  13.915
49546W        W10967  31.006  18.776   4.771
49547W        W10968  22.099  35.898  11.976
49548W        W10969  20.574  20.647  10.983
49549W        W10970  14.226  24.531  13.448
49550W        W10971  12.177   3.361   4.631
49551W        W10972  33.508   0.275  10.990
49552W        W10973  14.756  30.589  13.015
49553W        W10974  37.411  42.836   3.850
49554W        W10975  15.683   6.245   0.401
49555W        W10976  31.479  38.411  10.631
49556W        W10977   7.401  37.496   3.246
49557W        W10978  29.447   6.762  14.960
49558W        W10979   6.834  42.872  14.860
49559W        W10980  11.812  37.517   2.379
49560W        W10981  39.447   4.849  11.374
49561W        W10982  31.136  10.671   4.794
49562W        W10983  23.161  41.795   0.750
49563W        W10984  19.664  40.331   2.186
49564W        W10985  21.156  42.890   3.738
49565W        W10986  32.595  26.143   0.790
49566W        W10987  23.497  28.622   4.349
49567W        W10988   7.905   0.945  14.874
49568W        W10989  18.562  12.754   2.678
49569W        W10990  31.062  27.981   3.837
49570W        W10991  38.337   8.316   4.615
49571W        W10992   9.714  40.365   0.420
49572W        W10993   0.854  12.798  13.459
49573W        W10994  29.661   2.387  12.389
49574W        W10995  43.871  28.079   0.383
49575W        W10996  22.058  32.986  10.407
49576W        W10997  38.867  39.841   5.117
49577W        W10998  26.490   8.239  11.948
49578W        W10999  35.448  42.938   5.133
49579W        W11000  15.684   4.824  12.964
49580W        W11001  27.600  28.157  14.775
49581W        W11002   3.936  29.052   2.384
49582W        W11003  10.748  17.776  14.382
49583W        W11004   7.728  42.513   0.402
49584W        W11005  11.333   1.776   3.241
49585W        W11006  38.335  43.978  11.128
49586W        W11007  24.977   2.254  14.863
49587W        W11008  37.358   3.316  12.074
49588W        W11009  26.686  44.328   3.321
49589W        W11010  11.661  10.326   3.261
49590W        W11011  23.059  24.077   3.368
49591W        W11012  17.278  30.032  12.431
49592W        W11013  11.255  41.509  10.494
49593W        W11014  17.602  31.094  12.342
49594W        W11015  22.723   7.760   3.153
49595W        W11016   4.746   3.758   2.808
49596W        W11017  27.020   2.435   0.389
49597W        W11018   7.814  34.045   3.721
49598W        W11019  43.889   0.762  12.577
49599W        W11020  31.010   4.792  14.288
49600W        W11021  10.292  10.362  12.553
49601W        W11022  42.932  12.156  12.964
49602W        W11023  21.208  28.061   0.410
49603W        W11024  24.497  18.607   4.667
49604W        W11025  22.659  42.497   3.279
49605W        W11026  31.079  34.428  12.876
49606W        W11027  17.297  13.299   1.449
49607W        W11028   9.342   1.964   1.930
49608W        W11029   2.364  11.830   0.856
49609W        W11030  44.783  26.075   0.763
49610W        W11031  14.168  36.919  10.561
49611W        W11032  22.737  39.343  12.340
49612W        W11033  20.104  37.435  14.824
49613W        W11034  41.320  18.166   0.280
49614W        W11035   5.211  30.133  14.281
49615W        W11036  39.391  24.521   2.255
49616W        W11037  18.296  17.572   3.783
49617W        W11038  24.117  41.385   5.281
49618W        W11039  31.062  38.948   1.257
49619W        W11040  25.196  14.803   3.303
49620W        W11041  24.541  16.702  13.046
49621W        W11042  26.483   8.276  11.427
49622W        W11043  33.029   4.411  11.447
49623W        W11044  19.224  12.619  12.527
49624W        W11045  11.670  13.815   2.267
49625W        W11046   6.848   0.487   4.160
49626W        W11047   5.894  14.258   5.087
49627W        W11048  42.286   6.285  11.877
49628W        W11049   9.770  30.545  11.385
49629W        W11050  41.954  19.267   4.316
49630W        W11051  38.518  23.067  13.959
49631W        W11052   3.317  16.691  11.906
49632W        W11053  12.778   5.237   1.775
49633W        W11054  35.392  38.542   2.665
49634W        W11055  22.682  37.994  14.859
49635W        W11056  17.611  28.077   2.845
49636W        W11057   0.490  29.458   0.377
49637W        W11058  11.143  37.405  11.950
49638W        W11059   0.850  40.467   1.269
49639W        W11060   0.377  13.760   0.459
49640W        W11061  31.596   2.730  12.843
49641W        W11062  21.123  42.369   0.414
49642W        W11063  38.469  44.449   1.423
49643W        W11064  37.411   7.214   0.882
49644W        W11065  39.960  18.620  10.998
49645W        W11066  22.747  35.057   1.721
49646W        W11067  12.152  14.210   1.718
49647W        W11068   7.259   7.238  12.861
49648W        W11069   4.716   0.779   0.783
49649W        W11070  20.072  27.617  10.609
49650W        W11071  26.481   3.818   1.239
49651W        W11072   2.253  19.092  11.401
49652W        W11073  11.286  40.012  14.906
49653W        W11074  38.976  35.091  10.967
49654W        W11075   2.890   3.429   0.389
49655W        W11076   5.302  37.995   2.293
49656W        W11077   1.899  33.085  10.434
49657W        W11078   8.748   0.407  10.614
49658W        W11079  22.172   5.687   3.265
49659W        W11080  26.629   0.874   4.312
49660W        W11081  39.540  34.921  13.480
49661W        W11082  12.744  42.524  13.010
49662W        W11083   8.214  40.390   5.274
49663W        W11084   3.862  19.687   0.455
49664W        W11085  23.196  19.201   0.415
49665W        W11086  40.811  31.453   4.118
49666W        W11087  25.144  13.739   4.603
49667W        W11088  11.861  25.081   1.407
49668W        W11089   5.879  12.123   1.810
49669W        W11090  18.166  10.643  10.600
49670W        W11091   7.408   4.413   2.413
49671W        W11092   1.951   2.740  13.044
49672W        W11093   7.331  27.170   0.731
49673W        W11094  25.620   6.808  13.325
49674W        W11095  28.612  20.574   0.369
49675W        W11096  42.360  32.136  13.853
49676W        W11097  14.114  24.706   3.265
49677W        W11098  28.156  18.577  12.396
49678W        W11099  15.229   5.383  10.610
49679W        W11100   3.867  13.685   1.433
49680W        W11101  39.335  11.356  13.512
49681W        W11102  19.648  19.123   0.453
49682W        W11103  32.110  28.522  10.580
49683W        W11104  10.821  18.642  10.987
49684W        W11105  21.051  31.999  11.376
49685W        W11106  37.509  32.446  13.966
49686W        W11107   0.898   0.912   2.308
49687W        W11108  38.961   2.469  13.933
49688W        W11109  19.153  30.138  12.828
49689W        W11110  24.644  33.010  13.472
49690W        W11111  31.907  20.556   1.712
49691W        W11112   5.283   0.333  11.568
49692W        W11113   1.422  15.250  14.929
49693W        W11114  36.008  43.787  10.490
49694W        W11115  19.256  25.594   0.348
49695W        W11116  22.614  15.251   4.813
49696W        W11117  15.767  25.142  10.563
49697W        W11118  31.934   6.378   1.884
49698W        W11119  44.286  26.586  11.562
49699W        W11120   5.295  34.926   3.207
49700W        W11121  34.556  43.288  14.896
49701W        W11122  29.052  18.102   4.172
49702W        W11123  19.735  20.626  13.338
49703W        W11124   7.777  20.161   2.786
49704W        W11125  26.519  30.419   5.248
49705W        W11126  43.856  25.643   3.302
49706W        W11127  26.987  22.240   0.481
49707W        W11128   1.343   1.310   1.317
49708W        W11129   3.288  15.695  14.890
49709W        W11130  39.483  29.016   0.780
49710W        W11131  16.619   5.299  11.033
49711W        W11132   5.892  41.330   2.296
49712W        W11133  15.191  12.769   0.763
49713W        W11134  12.829  43.775   1.274
49714W        W11135   9.817  15.177   4.308
49715W        W11136  25.058  39.523  12.416
49716W        W11137  29.623  32.425   3.204
49717W        W11138  15.235  28.633  11.431
49718W        W11139  20.221  41.835  14.283
49719W        W11140  15.173  27.091   0.945
49720W        W11141   4.860  30.958   5.176
49721W        W11142  16.628  39.444   2.691
49722W        W11143  37.981   3.357   2.342
49723W        W11144  14.150  18.762   4.284
49724W        W11145   6.922  23.171   3.677
49725W        W11146  23.619  29.506   1.849
49726W        W11147  25.086   7.367   4.263
49727W        W11148  30.094  15.785   1.433
49728W        W11149  23.559  14.834   1.732
49729W        W11150  12.665  29.451   3.225
49730W        W11151  40.504  44.947  13.800
49731W        W11152  23.205  26.089  11.479
49732W        W11153  17.226   9.855   3.771
49733W        W11154  30.495  31.513   3.774
49734W        W11155  15.612  11.782  11.100
49735W        W11156  39.003  32.108   1.704
49736W        W11157  27.186  33.077  11.115
49737W        W11158  14.617  16.191  14.422
49738W        W11159   9.777   4.300   1.277
49739W        W11160  27.137   6.688   4.209
49740W        W11161  40.908  16.621  14.416
49741W        W11162  23.003  22.598  12.011
49742W        W11163  23.543  25.077  14.454
49743W        W11164  22.163  34.552   2.804
49744W        W11165  37.443   9.163  12.019
49745W        W11166  14.209   9.228  13.994
49746W        W11167   8.864  15.759   3.757
49747W        W11168   6.867  32.922  12.826
49748W        W11169  13.845  16.708  14.442
49749W        W11170   6.880  44.857  12.870
49750W        W11171   8.737  25.069   2.836
49751W        W11172  34.999   0.409  13.414
49752W        W11173  36.925  39.954   4.280
49753W        W11174   3.339   9.297   4.321
49754W        W11175  43.013  28.076   2.858
49755W        W11176  35.104  39.985   3.375
49756W        W11177  41.484   5.706   2.674
49757W        W11178  35.034  11.824   4.701
49758W        W11179  13.719   8.707   0.848
49759W        W11180  44.461   9.765  13.489
49760W        W11181  24.541  11.695   4.800
49761W        W11182  33.900  12.315   5.796
49762W        W11183  35.466  15.584   0.382
49763W        W11184   0.420  17.765   0.286
49764W        W11185  33.447  11.747   0.744
49765W        W11186  24.103   6.728   5.188
49766W        W11187  34.052  42.860   0.944
49767W        W11188  36.963   1.360   0.927
49768W        W11189  24.567  18.769  12.347
49769W        W11190   5.863   9.267  13.388
49770W        W11191  42.813  35.005  13.851
49771W        W11192  14.638  35.587  11.459
49772W        W11193  29.998  39.896   3.245
49773W        W11194  33.501  42.803  11.381
49774W        W11195   8.350  13.114  14.964
49775W        W11196   2.229  39.051  13.811
49776W        W11197  28.552  35.543   4.762
49777W        W11198   3.864  43.879   3.279
49778W        W11199  12.321  28.545   3.251
49779W        W11200  16.801  21.154  13.388
49780W        W11201   5.701  29.945  11.570
49781W        W11202  15.157  33.955   0.248
49782W        W11203  18.627  31.068  14.901
49783W        W11204  42.834  24.128  12.934
49784W        W11205   5.331  11.642   1.439
49785W        W11206  23.129  17.166  12.096
49786W        W11207  42.336  14.811   3.688
49787W        W11208  43.279   4.298   2.889
49788W        W11209  40.013  32.014  13.312
49789W        W11210  31.442  40.499   3.775
49790W        W11211  40.536  32.907  13.885
49791W        W11212   1.908  15.789   0.868
49792W        W11213   1.890  30.460  13.360
49793W        W11214   6.193   5.895  14.014
49794W        W11215  35.513  41.971   4.249
49795W        W11216   1.786  13.709   3.740
49796W        W11217  21.638  17.264  10.410
49797W        W11218  19.231   8.835   2.184
49798W        W11219   6.739  11.317  10.406
49799W        W11220  43.795  17.273  11.488
49800W        W11221  23.541  30.640  14.407
49801W        W11222  35.545  32.446  14.812
49802W        W11223  38.990   9.316  12.860
49803W        W11224   7.323   9.864   1.921
49804W        W11225   5.276  21.130  11.121
49805W        W11226   8.714  14.283   5.213
49806W        W11227  37.072  37.553  12.563
49807W        W11228   3.380  26.479   1.815
49808W        W11229  13.169  34.553  13.898
49809W        W11230  42.964   3.245  11.557
49810W        W11231   6.819  37.380  11.477
49811W        W11232  12.362  38.999   3.331
49812W        W11233  30.067  42.019  11.879
49813W        W11234  13.279  18.725   4.655
49814W        W11235  32.041  42.801  11.997
49815W        W11236  36.510  35.871   5.295
49816W        W11237  15.300  10.247   3.785
49817W        W11238  22.735  17.167   2.309
49818W        W11239  19.044  17.664  11.979
49819W        W11240  43.301  32.467  11.598
49820W        W11241   8.398  27.103  13.493
49821W        W11242   2.961  17.734   1.875
49822W        W11243   9.186  31.402   3.192
49823W        W11244  13.300   8.393  14.354
49824W        W11245  24.195  31.638   3.854
49825W        W11246   2.391  24.032   0.938
49826W        W11247  41.528  10.688   4.274
49827W        W11248  31.981   6.843   3.218
49828W        W11249  28.585  31.991  11.094
49829W        W11250  17.292   1.475  10.641
49830W        W11251   7.793  13.771  14.378
49831W        W11252  34.389  30.497   4.666
49832W        W11253  30.054  12.842  14.761
49833W        W11254  25.484   2.924  12.838
49834W        W11255  14.135  37.423  12.512
49835W        W11256  26.049  16.607   4.706
49836W        W11257  42.454  20.085   2.829
49837W        W11258  31.632  41.421   3.218
49838W        W11259  41.347   3.357  13.939
49839W        W11260  32.635  31.999  10.894
49840W        W11261  10.201  21.192   0.789
49841W        W11262   9.192   7.181   3.868
49842W        W11263   4.446   5.728  11.531
49843W        W11264  32.538  11.625  11.568
49844W        W11265  16.689  30.012   2.713
49845W        W11266  23.732  42.307   1.449
49846W        W11267  36.421  11.766   1.385
49847W        W11268   5.887   6.256   0.341
49848W        W11269  10.239  26.625   3.162
49849W        W11270  35.867  33.485  12.866
49850W        W11271  16.240  43.903   4.670
49851W        W11272  32.568  30.096   3.775
49852W        W11273   2.393  12.698  11.580
49853W        W11274  22.101  15.743   2.754
49854W        W11275  44.873  17.722  11.473
49855W        W11276   2.419  34.935  10.544
49856W        W11277  44.805  39.910   0.887
49857W        W11278  21.637  16.267   2.675
49858W        W11279   3.893  14.126   2.764
49859W        W11280  42.940  44.828  11.384
49860W        W11281   7.315  31.406  10.441
49861W        W11282  33.406  10.209  13.060
49862W        W11283  22.140  23.154   1.792
49863W        W11284  39.509  43.447  10.527
49864W        W11285  40.905   3.900  11.579
49865W        W11286  40.526   3.218  14.343
49866W        W11287  12.617  31.425  14.319
49867W        W11288  24.714  43.464  11.945
49868W        W11289  12.705  12.792  13.987
49869W        W11290  29.571   3.939  13.941
49870W        W11291  22.710  33.469  14.335
49871W        W11292  36.534   7.392  12.457
49872W        W11293  42.433   0.830   0.959
49873W        W11294  38.916   1.408  12.388
49874W        W11295  18.234  32.421  10.536
49875W        W11296   2.873  10.758  12.361
49876W        W11297  23.603  44.480  10.540
49877W        W11298  32.040   0.467   3.733
49878W        W11299   2.777  18.774  12.443
49879W        W11300  13.748   2.326  11.991
49880W        W11301  28.031  16.760  13.957
49881W        W11302  28.474  21.052  10.025
49882W        W11303  42.020  24.668  11.450
49883W        W11304  25.475   1.853   2.891
49884W        W11305   6.747  18.227  12.855
49885W        W11306   6.895  36.008   2.360
49886W        W11307  44.856   9.289   0.403
49887W        W11308  41.884  12.256  13.493
49888W        W11309  43.436  19.209  12.370
49889W        W11310  13.669  13.717  10.891
49890W        W11311  18.736  13.833  14.981
49891W        W11312  41.971   8.371  11.921
49892W        W11313  38.438  39.982   1.265
49893W        W11314   7.274  39.975  13.393
49894W        W11315  26.111  25.128   3.336
49895W        W11316  18.702  17.732  11.597
49896W        W11317  32.479  28.668   4.185
49897W        W11318  21.523  36.991   4.674
49898W        W11319   4.747   3.398   3.169
49899W        W11320  14.312  42.340  14.009
49900W        W11321   9.708  20.266  14.028
49901W        W11322  44.445  23.066  13.438
49902W        W11323  36.842  30.615  11.569
49903W        W11324  29.135  40.954  13.962
49904W        W11325  35.451  25.148  12.967
49905W        W11326  35.961  27.650  14.922
49906W        W11327  22.219  42.924  13.444
49907W        W11328  44.809  11.277   0.392
49908W        W11329   3.739  29.439  11.490
49909W        W11330  44.391   1.462   3.694
49910W        W11331  25.489   9.863  14.338
49911W        W11332  20.665  25.618   0.911
49912W        W11333   8.850   2.447  12.521
49913W        W11334   6.258  16.222  10.627
49914W        W11335   2.382  32.512   2.185
49915W        W11336   5.285  38.007   1.304
49916W        W11337  42.943  44.817   0.319
49917W        W11338   8.879  30.466  11.084
49918W        W11339   5.903  33.462   0.959
49919W        W11340   0.292  21.119   3.295
49920W        W11341  11.709  15.738   2.887
49921W        W11342  32.977   3.724   3.381
49922W        W11343  12.732  16.647  13.907
49923W        W11344   0.258  14.143   2.309
49924W        W11345  18.549   3.348  14.805
49925W        W11346  24.196  22.703  11.084
49926W        W11347  33.549  44.323  10.564
49927W        W11348  15.279  27.493  12.445
49928W        W11349  27.102  30.952  14.281
49929W        W11350   7.811  33.612   1.358
49930W        W11351  31.039  39.845  10.482
49931W        W11352   3.719  29.972   3.205
49932W        W11353   9.252  30.427  14.329
49933W        W11354  39.929  36.023  10.558
49934W        W11355  14.611  27.448  14.456
49935W        W11356  28.109  42.501   4.653
49936W        W11357  43.435  30.911   2.373
49937W        W11358  42.328   5.921   2.249
49938W        W11359   7.232   9.784  13.054
49939W        W11360  22.205   3.867  11.879
49940W        W11361  34.882  23.160   4.731
49941W        W11362  37.949  34.436   2.305
49942W        W11363  32.114  44.337   4.270
49943W        W11364  35.500   5.399  12.364
49944W        W11365  30.426  40.946   2.354
49945W        W11366  37.991  30.511   3.815
49946W        W11367  44.772   3.294   3.199
49947W        W11368  21.101   5.314   2.745
49948W        W11369   8.377   5.253   2.259
49949W        W11370  38.886   1.910  11.430
49950W        W11371  21.099  37.942  12.866
49951W        W11372  12.253   0.353   1.339
49952W        W11373  10.323  18.616  10.602
49953W        W11374  18.757  18.643   0.246
49954W        W11375  22.250  33.102   1.861
49955W        W11376  44.980   0.928  11.081
49956W        W11377  17.171   0.474  11.873
49957W        W11378   8.263  26.158  10.413
49958W        W11379  24.977  11.345  11.436
49959W        W11380   3.775  34.976  11.953
49960W        W11381  33.525  40.388  11.434
49961W        W11382   7.784  28.962  11.079
49962W        W11383  12.719  17.158  13.828
49963W        W11384   1.771  33.032   2.334
49964W        W11385   5.398   7.205   2.371
49965W        W11386  23.088  33.478   2.729
49966W        W11387  26.161  40.472  14.337
49967W        W11388  35.961  20.610  10.514
49968W        W11389  42.977   8.312   0.945
49969W        W11390  29.495  41.296  14.840
49970W        W11391  14.672   2.242  14.367
49971W        W11392  32.109  24.576  11.032
49972W        W11393  27.126   9.712  10.585
49973W        W11394   8.220  27.067  13.023
49974W        W11395  33.434  38.388  13.387
49975W        W11396  29.487   3.818  10.896
49976W        W11397   5.812  23.616  12.052
49977W        W11398  42.477  16.633   0.839
49978W        W11399  32.028  31.562   1.917
49979W        W11400  31.137  29.094  11.592
49980W        W11401  44.947   6.854   0.286
49981W        W11402  30.948  16.309   2.230
49982W        W11403  13.261  14.660   3.185
49983W        W11404  18.248   5.251  12.543
49984W        W11405   0.435  20.546  10.640
49985W        W11406  28.533   0.457   2.902
49986W        W11407   4.903   5.732   2.688
49987W        W11408  44.494  16.673   3.675
49988W        W11409  21.646  28.472   1.719
49989W        W11410   1.465  29.018  14.385
49990W        W11411  20.061  20.114  12.560
49991W        W11412   5.263  15.718  14.317
49992W        W11413  26.200  32.436  12.450
49993W        W11414  32.601  30.935  13.462
49994W        W11415  36.962  19.101   3.146
49995W        W11416  29.528  17.194   2.184
49996W        W11417  29.568   2.395   4.629
49997W        W11418  18.692  33.553   4.637
49998W        W11419   1.266  28.941   2.724
49999W        W11420  18.140  18.263  10.428
50000W        W11421  13.351  37.074   2.205
50001W        W11422  32.426  35.420   3.682
50002W        W11423   4.753  43.938   1.702
50003W        W11424  38.347   9.695   1.362
50004W        W11425   5.778  39.047  14.286
50005W        W11426  25.643  40.388  14.025
50006W        W11427   4.286  20.146  14.382
50007W        W11428  34.947  13.273  10.910
50008W        W11429  37.348  41.809   1.779
50009W        W11430  15.169  39.003  11.921
50010W        W11431  28.580  29.096  14.497
50011W        W11432  25.711  30.445   3.340
50012W        W11433  28.582   7.769  14.482
50013W        W11434   6.301  44.871   4.770
50014W        W11435  38.839  10.312   1.757
50015W        W11436  34.432  11.253  11.878
50016W        W11437  37.531   1.745  13.920
50017W        W11438  40.489   8.875  10.504
50018W        W11439  31.097   6.918   1.260
50019W        W11440  17.090   0.773   3.250
50020W        W11441  38.380  44.318  10.012
50021W        W11442   8.850  12.326   0.315
50022W        W11443  29.085   0.944   0.840
50023W        W11444  11.316  12.224   3.749
50024W        W11445  38.039  41.477   3.183
50025W        W11446  23.078  16.811   3.224
50026W        W11447  13.647  31.597   0.300
50027W        W11448   4.917  25.516   0.800
50028W        W11449  25.594  26.999   1.373
50029W        W11450  41.948   5.205   4.196
50030W        W11451  32.050  27.449   2.808
50031W        W11452  12.635  18.185   1.348
50032W        W11453  31.578   6.908  11.875
50033W        W11454  18.782   3.789  14.330
50034W        W11455  38.929  21.191  11.097
50035W        W11456  30.023  30.595   2.205
50036W        W11457  28.564  41.021   2.704
50037W        W11458  12.164  22.026   4.656
50038W        W11459   6.904  34.947  10.421
50039W        W11460  28.021  33.052   4.227
50040W        W11461  41.525  41.435   1.329
50041W        W11462   6.721  31.451   2.281
50042W        W11463  27.028  18.586   1.742
50043W        W11464  44.402  43.882   4.792
50044W        W11465  33.417  23.060  13.313
50045W        W11466  25.526   7.367  11.470
50046W        W11467   9.682  24.701  10.900
50047W        W11468   7.891   3.242   0.307
50048W        W11469  10.656  35.873   4.612
50049W        W11470  33.926   3.751   5.118
50050W        W11471  20.717  31.105  12.863
50051W        W11472   1.760  26.006  14.015
50052W        W11473  15.662   1.442   2.903
50053W        W11474  21.224   3.804  11.383
50054W        W11475   4.906  30.048  12.858
50055W        W11476  42.394  20.561  13.527
50056W        W11477  14.624  23.646  14.775
50057W        W11478  10.174   1.936   0.349
50058W        W11479   3.805  38.026   2.818
50059W        W11480  24.002  24.047  13.486
50060W        W11481  36.030  13.672  12.003
50061W        W11482  12.129  35.524  13.833
50062W        W11483   0.265  36.469  10.609
50063W        W11484  26.692  25.505  14.956
50064W        W11485  42.406   4.918  14.407
50065W        W11486  36.850  36.008   3.697
50066W        W11487   9.661  34.550   1.727
50067W        W11488  26.600   4.715   2.892
50068W        W11489  15.600  27.077   4.704
50069W        W11490  31.441  24.145   1.875
50070W        W11491  28.622  19.205   1.376
50071W        W11492  17.692   9.163   1.413
50072W        W11493  10.816  41.332   1.402
50073W        W11494   6.812  40.351  12.853
50074W        W11495  21.066   7.345  14.469
50075W        W11496   3.823  18.573  13.510
50076W        W11497  19.128  17.238  12.484
50077W        W11498  37.418  39.955   0.842
50078W        W11499   4.378  35.058   1.930
50079W        W11500  24.506   6.718  12.828
50080W        W11501  22.140  25.180   0.246
50081W        W11502  38.421   5.210  10.548
50082W        W11503  18.166  30.988   0.726
50083W        W11504   0.838  34.988  14.360
50084W        W11505  36.539   5.207  14.887
50085W        W11506   2.769  19.754   0.247
50086W        W11507  12.741  41.365  11.103
50087W        W11508  36.982   4.700   4.145
50088W        W11509  26.204  19.091   1.897
50089W        W11510   5.895  38.926   0.374
50090W        W11511  32.537   2.740  14.279
50091W        W11512  21.754  25.056  14.959
50092W        W11513  23.047  22.706   0.464
50093W        W11514  18.647  24.041  11.578
50094W        W11515  37.936   3.358   0.922
50095W        W11516  43.838   4.363  14.873
50096W        W11517   0.441   5.926  12.348
50097W        W11518  29.104  37.559   5.319
50098W        W11519  42.416  33.908   2.413
50099W        W11520  43.342  39.892   1.931
50100W        W11521  34.933  38.850   3.668
50101W        W11522  43.325  11.697   2.187
50102W        W11523  38.829  33.409  12.983
50103W        W11524  33.050  38.400   3.640
50104W        W11525  33.987  39.833  12.043
50105W        W11526  36.457  43.483  12.540
50106W        W11527   1.401  44.494   2.214
50107W        W11528  41.969  38.456   2.389
50108W        W11529  42.984  31.599   2.225
50109W        W11530  13.313  28.930   2.738
50110W        W11531   0.427  12.753   0.273
50111W        W11532   5.407   5.902   3.778
50112W        W11533  34.589  43.458   4.614
50113W        W11534  38.042  12.658  14.311
50114W        W11535  30.509  14.170  14.492
50115W        W11536  17.703   3.248  14.406
50116W        W11537  10.354   9.755  12.573
50117W        W11538  29.076  43.870   3.344
50118W        W11539   2.443  14.620  11.948
50119W        W11540  33.533  33.561  12.373
50120W        W11541  41.358  40.037   2.417
50121W        W11542  31.590  28.497   2.900
50122W        W11543  12.210   3.863   2.711
50123W        W11544   7.257   6.321  14.810
50124W        W11545  19.155  25.640   1.782
50125W        W11546  31.931  35.966   0.391
50126W        W11547   3.914  10.776  13.933
50127W        W11548  23.686  29.960  12.037
50128W        W11549  44.490  41.435  12.440
50129W        W11550  28.935  19.077  14.938
50130W        W11551  20.612  42.395   3.270
50131W        W11552  21.160  23.510   1.922
50132W        W11553   3.789  40.051   1.375
50133W        W11554   6.231  34.066   3.357
50134W        W11555  21.256  44.474   1.717
50135W        W11556   2.850   6.732  12.433
50136W        W11557  35.904  22.021  13.372
50137W        W11558  21.732  39.032   4.786
50138W        W11559   9.309  33.500   3.248
50139W        W11560  17.617   4.206   0.946
50140W        W11561  43.953  32.040  13.961
50141W        W11562  29.030   0.935   1.721
50142W        W11563  38.521  44.296  12.532
50143W        W11564  20.069   0.456  13.486
50144W        W11565  29.104  28.628  14.939
50145W        W11566  42.286  31.456   4.352
50146W        W11567   3.311  20.584  14.461
50147W        W11568  20.609  14.756   0.926
50148W        W11569  20.143  13.644  11.446
50149W        W11570  21.095  30.485  14.923
50150W        W11571  16.601  44.318  14.808
50151W        W11572  27.105  14.725  14.886
50152W        W11573   5.809   0.426  14.404
50153W        W11574   4.373  41.467  10.896
50154W        W11575  36.386   1.946   4.276
50155W        W11576   6.703   7.405  11.429
50156W        W11577  39.535  28.182   0.297
50157W        W11578  28.638   7.802  11.574
50158W        W11579  10.827  40.333  12.513
50159W        W11580  24.145  35.451   3.739
50160W        W11581   0.434  10.245   3.192
50161W        W11582  27.959   8.386   2.285
50162W        W11583  31.063  37.001  10.996
50163W        W11584  40.468  18.752   4.609
50164W        W11585  31.098  44.820   2.222
50165W        W11586  29.007  15.224  11.125
50166W        W11587  38.438  28.580  12.035
50167W        W11588  16.570  23.044   3.811
50168W        W11589  30.605  33.615   0.832
50169W        W11590  35.902  28.102  13.841
50170W        W11591  16.663  17.697   4.269
50171W        W11592   9.677  40.318  14.836
50172W        W11593  29.090  19.118   0.303
50173W        W11594  31.536  29.138  11.575
50174W        W11595  22.214   2.795  14.899
50175W        W11596  12.656  35.520   3.303
50176W        W11597  37.971  11.300   2.211
50177W        W11598  35.384  39.522  12.072
50178W        W11599  25.125  43.778  12.960
50179W        W11600  34.888  31.900   2.219
50180W        W11601  30.051   0.371  12.945
50181W        W11602  39.955   2.382   2.811
50182W        W11603  29.594  31.463   4.834
50183W        W11604  39.518  13.171   3.338
50184W        W11605  26.651  22.196   9.944
50185W        W11606  28.929  16.580  12.482
50186W        W11607  43.299  38.461   0.839
50187W        W11608  41.993  23.188   1.740
50188W        W11609  10.669  21.728  12.363
50189W        W11610  29.656  17.298  10.063
50190W        W11611   2.232  42.493   0.468
50191W        W11612  11.312   3.442  14.355
50192W        W11613  43.827   8.776  14.995
50193W        W11614  16.590  44.315   0.794
50194W        W11615   8.894  13.293  10.504
50195W        W11616  22.713  40.828   4.635
50196W        W11617  44.796  30.131  12.479
50197W        W11618  28.655  25.109   3.216
50198W        W11619  15.244  40.458  11.860
50199W        W11620  38.559  19.052   0.769
50200W        W11621  24.021   9.780  13.915
50201W        W11622  27.185  22.014  14.977
50202W        W11623  21.597   8.888   3.163
50203W        W11624  44.895   2.772   1.368
50204W        W11625  42.875  17.289  11.533
50205W        W11626  30.445   1.413  11.081
50206W        W11627  44.441  24.533   3.808
50207W        W11628  34.895  25.064   3.695
50208W        W11629  23.696  26.117  14.823
50209W        W11630  21.734  18.271   3.852
50210W        W11631   6.230  31.424  12.355
50211W        W11632  34.874  10.750  12.055
50212W        W11633  26.172   1.420  12.363
50213W        W11634  25.080  10.331  13.548
50214W        W11635  17.710  13.686   4.341
50215W        W11636  21.262  14.819   1.862
50216W        W11637   9.785   2.325  14.898
50217W        W11638   1.939  14.254   1.278
50218W        W11639   8.691  36.978  10.540
50219W        W11640  34.991  41.905  10.423
50220W        W11641  40.376   7.863  14.990
50221W        W11642   5.283  25.530  12.977
50222W        W11643  26.533   1.924  11.094
50223W        W11644  26.505  28.633  10.548
50224W        W11645   5.803   3.750  14.023
50225W        W11646  43.022  41.468  11.105
50226W        W11647  15.308  34.112   5.283
50227W        W11648  20.562  15.735  11.105
50228W        W11649  30.593  43.016  12.071
50229W        W11650  13.674  30.651  12.890
50230W        W11651  35.479  15.637  11.544
50231W        W11652  33.895   1.435   5.240
50232W        W11653  14.766  14.287   9.939
50233W        W11654  31.460  40.347  11.552
50234W        W11655   0.283  42.938  11.464
50235W        W11656  29.567  34.380  13.007
50236W        W11657  25.174  10.353  13.040
50237W        W11658  41.412  31.621  13.044
50238W        W11659  23.733   4.893   1.883
50239W        W11660  24.596  42.779  11.589
50240W        W11661  44.863   1.273  11.030
50241W        W11662  36.962   1.294  13.952
50242W        W11663  31.149  35.561   0.406
50243W        W11664   8.784  17.606   4.672
50244W        W11665  42.910   0.288  11.001
50245W        W11666  10.247  21.665   4.686
50246W        W11667  11.265  10.267   1.712
50247W        W11668  38.399   6.182  11.024
50248W        W11669   3.337  35.523   4.714
50249W        W11670  22.502  11.194  12.436
50250W        W11671  26.503  28.485  13.976
50251W        W11672  36.057   5.281   4.328
50252W        W11673  13.802  44.847  13.384
50253W        W11674  30.622  12.736   1.218
50254W        W11675  19.245  28.103  10.582
50255W        W11676  39.379   1.473  13.051
50256W        W11677  40.388   1.867  12.499
50257W        W11678  41.960  22.727   4.813
50258W        W11679  26.075   9.699   3.843
50259W        W11680   4.908  35.886   5.177
50260W        W11681  15.306  33.888   0.733
50261W        W11682  21.530  13.297  11.540
50262W        W11683  19.201  30.585   4.348
50263W        W11684  36.492   0.984   2.835
50264W        W11685  16.609  38.869   2.312
50265W        W11686  23.999  29.034   1.366
50266W        W11687  26.459  20.040   0.275
50267W        W11688  20.725   6.184   3.731
50268W        W11689  18.137  12.677   0.355
50269W        W11690  35.484  24.560   0.758
50270W        W11691  24.213  22.171  14.761
50271W        W11692  34.615  24.202   2.728
50272W        W11693   7.728  36.913  13.012
50273W        W11694  25.705  15.225  11.875
50274W        W11695  22.699   0.835  14.349
50275W        W11696   5.902  40.906  12.031
50276W        W11697   6.319  13.722   2.668
50277W        W11698   9.788  27.967  10.494
50278W        W11699  15.323  11.847   1.842
50279W        W11700  27.127  29.124   1.277
50280W        W11701  13.609   4.239  10.517
50281W        W11702  27.983  33.408   4.341
50282W        W11703  25.654  23.492   5.129
50283W        W11704  28.498   8.173  13.831
50284W        W11705   6.844  13.206   4.720
50285W        W11706  29.527   0.868  11.103
50286W        W11707  14.645  16.260  12.483
50287W        W11708  42.777   7.894   5.309
50288W        W11709  36.522   4.441   1.268
50289W        W11710  11.261  21.603   2.757
50290W        W11711   5.374   8.856   5.140
50291W        W11712  41.527  19.222  11.420
50292W        W11713  42.396  23.595   0.348
50293W        W11714   1.473  15.115   2.721
50294W        W11715  28.117  40.860   0.247
50295W        W11716  41.015   6.839  12.083
50296W        W11717  37.960  31.055   4.631
50297W        W11718   1.376  44.300   1.248
50298W        W11719  41.038  35.041   2.768
50299W        W11720  12.279  34.487  13.004
50300W        W11721  39.060  26.007   1.750
50301W        W11722  44.398  27.515   2.410
50302W        W11723  29.037  14.662   0.800
50303W        W11724  17.092  39.525   1.351
50304W        W11725  36.471  24.043  11.073
50305W        W11726  16.102  14.218   2.219
50306W        W11727  26.165  37.087  14.514
50307W        W11728   9.666   8.317   4.745
50308W        W11729   2.935  21.093   2.798
50309W        W11730  43.426  22.522  11.093
50310W        W11731  39.471  15.254  10.962
50311W        W11732  11.635  32.463   2.785
50312W        W11733   8.378  24.511  14.808
50313W        W11734  17.646  10.791  12.935
50314W        W11735  25.528  36.060   1.328
50315W        W11736   6.302  23.084  14.963
50316W        W11737  36.088  30.618   2.886
50317W        W11738   4.365  27.162   4.744
50318W        W11739   7.400  44.932   2.778
50319W        W11740  18.565   4.296   1.246
50320W        W11741   0.319  19.079  11.497
50321W        W11742  37.463  11.216  11.921
50322W        W11743  32.914  29.013  13.817
50323W        W11744  13.125  17.684  13.801
50324W        W11745   3.266  16.152  10.560
50325W        W11746  26.157  34.416  13.412
50326W        W11747  10.228   1.833  10.643
50327W        W11748  34.055  14.711  14.840
50328W        W11749   5.342  37.524  14.311
50329W        W11750   0.838  43.286   4.144
50330W        W11751  12.201  31.565   3.292
50331W        W11752  15.085   5.314   0.345
50332W        W11753  37.844   3.938   5.570
50333W        W11754   2.380  29.484  12.912
50334W        W11755  31.095  39.823  12.565
50335W        W11756  34.886  43.893   0.294
50336W        W11757  14.833  29.441  10.447
50337W        W11758  31.037  34.043   2.787
50338W        W11759  14.665  39.490   3.241
50339W        W11760  26.189  22.997  11.857
50340W        W11761   8.803  35.019  12.483
50341W        W11762   5.888  10.196   4.752
50342W        W11763  43.902   9.209   4.656
50343W        W11764  17.726  21.677   1.769
50344W        W11765  44.276  10.312   2.756
50345W        W11766  15.295  13.223  10.541
50346W        W11767   2.854  26.486   4.781
50347W        W11768  10.696  33.397  14.304
50348W        W11769  13.228  30.998   2.372
50349W        W11770  27.171  14.170  12.861
50350W        W11771  36.010  39.832   2.700
50351W        W11772  28.641  42.020  11.959
50352W        W11773  31.016  30.626  14.919
50353W        W11774  27.515   9.174   2.402
50354W        W11775   8.754   6.314  10.573
50355W        W11776  21.158  24.679   0.407
50356W        W11777  19.153  31.067  11.562
50357W        W11778  38.820  25.038  11.924
50358W        W11779  20.133  19.226   4.770
50359W        W11780  16.783  26.585  13.049
50360W        W11781  30.936  25.974   0.797
50361W        W11782  18.235  27.602   4.743
50362W        W11783  12.769  44.339   9.947
50363W        W11784  31.987  25.019   3.725
50364W        W11785  10.674  16.202   1.228
50365W        W11786   6.216  37.072  14.516
50366W        W11787  36.559  44.833  10.544
50367W        W11788  32.120  34.082  11.121
50368W        W11789  12.806   2.864   4.120
50369W        W11790  21.262  41.537   1.880
50370W        W11791  44.981  38.909   3.776
50371W        W11792  44.923  22.563  11.055
50372W        W11793  22.198  22.077  11.937
50373W        W11794   3.304  28.953   3.363
50374W        W11795  19.158   8.825   0.332
50375W        W11796   7.350  43.882  12.468
50376W        W11797   2.352  36.850  14.493
50377W        W11798  23.125   1.425  11.377
50378W        W11799   5.801  24.530  14.788
50379W        W11800  17.654  20.578  13.466
50380W        W11801  22.714  38.955  14.353
50381W        W11802  11.669   7.725   0.277
50382W        W11803  26.460  31.132  14.913
50383W        W11804  41.853  27.197   1.755
50384W        W11805  14.215   9.288  11.065
50385W        W11806  10.281  30.604  11.091
50386W        W11807  18.777  16.569   4.186
50387W        W11808  19.179  41.922   3.820
50388W        W11809  23.180  26.645  10.415
50389W        W11810  10.325  38.856   0.286
50390W        W11811  15.115  37.491  10.638
50391W        W11812  42.524  43.874   3.746
50392W        W11813  36.452  40.942   0.284
50393W        W11814   1.379  14.833  10.964
50394W        W11815  40.351  24.002  13.978
50395W        W11816  44.898  11.622   4.193
50396W        W11817   8.884  23.162  14.400
50397W        W11818  18.219  33.454  13.374
50398W        W11819   5.336   3.722   3.676
50399W        W11820  13.803  24.633  13.027
50400W        W11821  26.975  11.770  14.901
50401W        W11822  36.545   9.274   1.236
50402W        W11823  43.827  36.939  11.921
50403W        W11824  41.423  24.169  14.482
50404W        W11825  11.671  39.551  11.013
50405W        W11826  44.803  29.927   0.747
50406W        W11827  17.565  39.421  12.038
50407W        W11828  35.510  43.466   3.190
50408W        W11829   8.277  26.570   3.185
50409W        W11830  12.301  29.132   3.833
50410W        W11831  37.068   3.439   5.200
50411W        W11832   5.796  10.640   1.782
50412W        W11833  31.632   4.348  12.476
50413W        W11834  25.155  35.458   2.217
50414W        W11835  31.592  35.852  14.340
50415W        W11836  34.566   6.228   2.179
50416W        W11837  40.043  24.984   1.396
50417W        W11838  25.179  33.386  14.018
50418W        W11839   3.351  35.895   1.922
50419W        W11840   2.797  26.033  10.116
50420W        W11841  28.138   0.947   1.364
50421W        W11842  21.212  16.217  10.615
50422W        W11843  39.021  36.966  10.546
50423W        W11844  41.903  42.311   3.775
50424W        W11845  10.637  43.911   3.173
50425W        W11846  30.968  36.436   4.781
50426W        W11847   7.892  15.806  12.365
50427W        W11848  32.486  20.595  11.606
50428W        W11849  35.477  32.591  13.009
50429W        W11850  28.179  22.120   1.704
50430W        W11851   5.736  11.715  11.007
50431W        W11852  37.864  22.025  13.892
50432W        W11853   7.180  30.433   2.901
50433W        W11854   1.325  35.587   9.981
50434W        W11855  26.154  18.073   3.177
50435W        W11856  44.501  13.149   2.276
50436W        W11857  30.158   5.335   1.829
50437W        W11858  20.648  19.202  12.417
50438W        W11859  19.105   1.468   1.868
50439W        W11860  29.129   6.186   4.640
50440W        W11861  44.759  11.637  12.862
50441W        W11862  33.427   7.406   5.162
50442W        W11863  36.361  35.570  12.519
50443W        W11864  26.042  20.252  12.021
50444W        W11865  13.275   4.874  10.129
50445W        W11866  18.167  42.485  10.905
50446W        W11867   9.725  34.889  13.939
50447W        W11868  10.235  35.454   4.160
50448W        W11869  34.040  32.402   3.158
50449W        W11870  23.574  43.882  11.107
50450W        W11871  41.010   3.850  12.515
50451W        W11872  38.828  24.152   0.380
50452W        W11873   2.951  22.155   4.632
50453W        W11874   7.728  38.386  13.901
50454W        W11875  28.593   3.286   0.941
50455W        W11876  10.712  24.129  14.989
50456W        W11877  41.829  35.512  10.456
50457W        W11878  22.548  34.385  14.780
50458W        W11879  14.288   3.414   4.127
50459W        W11880  12.206  42.024   0.443
50460W        W11881  31.084  37.563  11.495
50461W        W11882   2.721  13.625   3.300
50462W        W11883  39.343   5.751  10.493
50463W        W11884  23.711  21.049   3.386
50464W        W11885  43.422  33.550  10.578
50465W        W11886  34.040  29.492  11.546
50466W        W11887  16.269  26.596   0.744
50467W        W11888  39.422  25.060   0.814
50468W        W11889  23.721  42.825  14.841
50469W        W11890  30.594   7.333  12.396
50470W        W11891  29.649  35.564   0.484
50471W        W11892  22.215  28.470   0.410
50472W        W11893   7.800  41.996  12.510
50473W        W11894  24.720   3.865   2.860
50474W        W11895  25.053   8.810   1.895
50475W        W11896  33.011  22.026  10.999
50476W        W11897  39.910  27.677  11.433
50477W        W11898  28.082  35.965   2.731
50478W        W11899  33.426  38.990  14.357
50479W        W11900  23.575  16.088  11.041
50480W        W11901  30.093   8.758   3.712
50481W        W11902  28.091   5.222   1.733
50482W        W11903  33.573  28.581   2.299
50483W        W11904  33.391  25.139   3.733
50484W        W11905  22.056  24.994   4.286
50485W        W11906  33.519  25.049   4.699
50486W        W11907  43.919   6.862  12.479
50487W        W11908  10.840  35.101  12.948
50488W        W11909  24.722  15.329   0.315
50489W        W11910  22.223  40.844  12.840
50490W        W11911  18.668  23.185  11.078
50491W        W11912   8.834  22.606  14.470
50492W        W11913   7.804   3.384   3.765
50493W        W11914  33.447  39.920   1.793
50494W        W11915  22.502  12.317   3.728
50495W        W11916  20.523  44.847  11.463
50496W        W11917  39.315  38.993   9.974
50497W        W11918  32.933  24.095  13.852
50498W        W11919   0.325  28.152  13.875
50499W        W11920  28.049  42.883  12.426
50500W        W11921  18.565  27.183  11.454
50501W        W11922  10.302  20.646  10.462
50502W        W11923  23.597  39.974  12.051
50503W        W11924  24.056  14.746   4.312
50504W        W11925  30.435  23.108   4.803
50505W        W11926  16.742  15.114  14.873
50506W        W11927  41.941   1.793  14.402
50507W        W11928  24.016  40.036  14.341
50508W        W11929  18.114  28.989  14.784
50509W        W11930  16.233  26.092   3.703
50510W        W11931  41.925  25.598   4.265
50511W        W11932  15.310  41.473  13.891
50512W        W11933  25.564  37.359   4.224
50513W        W11934  10.867  43.880   3.700
50514W        W11935   2.744   4.353   0.397
50515W        W11936  10.817  12.639   0.785
50516W        W11937  18.580  29.439   4.714
50517W        W11938  16.236  14.237   2.826
50518W        W11939  23.218  16.605  14.855
50519W        W11940  42.943  42.787  12.361
50520W        W11941  13.781  21.740  10.926
50521W        W11942  16.598  20.250  10.921
50522W        W11943  23.007   5.791   1.747
50523W        W11944  20.174  41.955   4.689
50524W        W11945  29.606  12.308   0.871
50525W        W11946  19.720  15.248  14.764
50526W        W11947  13.744  31.900   5.265
50527W        W11948  16.270  13.320  14.783
50528W        W11949  12.811  22.634   1.348
50529W        W11950  18.110  13.209  13.915
50530W        W11951   1.381  20.236   1.817
50531W        W11952  42.494  37.933   3.260
50532W        W11953  36.366  24.155  13.045
50533W        W11954  34.105  12.682  10.539
50534W        W11955  35.580   5.353   9.450
50535W        W11956  26.955   2.913  11.905
50536W        W11957  22.147  36.970   2.236
50537W        W11958  20.732   1.365   0.282
50538W        W11959  28.528  42.383  13.051
50539W        W11960  34.069   5.223   1.222
50540W        W11961  29.444  19.136   0.389
50541W        W11962  15.163  29.505   2.795
50542W        W11963  25.215  33.623   0.278
50543W        W11964  44.840  40.970  13.327
50544W        W11965   2.904  13.788  12.887
50545W        W11966   1.378   3.812  10.968
50546W        W11967  24.718  32.558  10.968
50547W        W11968  17.767   1.309  13.847
50548W        W11969  38.468  26.010  13.380
50549W        W11970   4.776  29.936   4.151
50550W        W11971  39.898  36.040  13.053
50551W        W11972  32.505  30.086   4.652
50552W        W11973   9.660   5.295   0.884
50553W        W11974  13.604  42.880  11.046
50554W        W11975  29.134   2.947  14.317
50555W        W11976   0.349  13.146  14.853
50556W        W11977  39.016  35.358  10.133
50557W        W11978  34.008  26.012   1.450
50558W        W11979  41.037  32.541   4.285
50559W        W11980  22.149  37.526  11.479
50560W        W11981   3.318  34.059   1.246
50561W        W11982  38.356  40.537  12.824
50562W        W11983  44.763  15.676   1.381
50563W        W11984  10.871  42.000   1.426
50564W        W11985  20.160  44.965  11.573
50565W        W11986  15.270   9.232   3.771
50566W        W11987  27.575  30.445  10.555
50567W        W11988   1.307  15.280  12.024
50568W        W11989  43.381  25.971   2.348
50569W        W11990  25.049  24.048  13.040
50570W        W11991  24.508  11.698   4.172
50571W        W11992  38.527   0.408  11.486
50572W        W11993   2.462   0.412   2.274
50573W        W11994  10.144   9.738  12.962
50574W        W11995  37.488  29.140  10.406
50575W        W11996   6.208   4.824  10.999
50576W        W11997  30.113   8.887  11.911
50577W        W11998   3.245  15.720  10.497
50578W        W11999  19.639  25.499   0.956
50579W        W12000  18.264  29.578   3.702
50580W        W12001  31.037   2.468  12.968
50581W        W12002   2.410  10.151   4.116
50582W        W12003  31.912  23.996   3.857
50583W        W12004  39.343  30.489   0.913
50584W        W12005  19.112   5.822   2.273
50585W        W12006  22.627  11.153  12.086
50586W        W12007   4.223  23.593  14.324
50587W        W12008  16.634  14.207   4.753
50588W        W12009  17.718   1.401   2.267
50589W        W12010  14.731  22.233   2.827
50590W        W12011  29.114  33.963  12.502
50591W        W12012  22.038  16.189  12.888
50592W        W12013  20.067  40.349  14.503
50593W        W12014  10.802  15.107   4.158
50594W        W12015  12.750  41.821   3.367
50595W        W12016  28.481  11.661   4.605
50596W        W12017  39.018   2.239  11.411
50597W        W12018   2.237  19.240  10.940
50598W        W12019   3.311  38.423  13.011
50599W        W12020  42.490  26.470   4.606
50600W        W12021   4.724  20.685  14.883
50601W        W12022  12.674  27.532  13.534
50602W        W12023  37.989  41.510   4.767
50603W        W12024  20.213   8.854   3.787
50604W        W12025  20.550  40.022   3.252
50605W        W12026  43.938  27.147  11.512
50606W        W12027  44.888  40.452  10.469
50607W        W12028  38.983   2.927  13.017
50608W        W12029  21.065  25.024   2.271
50609W        W12030  25.206  44.299   5.149
50610W        W12031  28.037  14.695   3.793
50611W        W12032  23.670  27.575  13.400
50612W        W12033  17.579  28.032  13.543
50613W        W12034  39.007   8.822   4.238
50614W        W12035   2.767  10.245  11.086
50615W        W12036  37.874  18.053  12.509
50616W        W12037  33.957  12.844   0.264
50617W        W12038  10.690  32.624  14.914
50618W        W12039  27.040  39.933   3.339
50619W        W12040  12.207  16.709   1.831
50620W        W12041   7.242   4.711   0.949
50621W        W12042  43.767  23.987   2.727
50622W        W12043   3.306  30.924   5.622
50623W        W12044  34.559  14.787   3.250
50624W        W12045  37.446   6.886   0.823
50625W        W12046  17.585  31.154   5.591
50626W        W12047  26.150   7.893   3.842
50627W        W12048  29.437  18.752   2.200
50628W        W12049   5.839  22.586   1.246
50629W        W12050   3.944  44.758  13.862
50630W        W12051  31.592  11.779   1.428
50631W        W12052  22.616  36.477  13.871
50632W        W12053  10.798  41.893   2.389
50633W        W12054  40.471   8.759  13.898
50634W        W12055  44.006  38.359  13.816
50635W        W12056  14.313  36.067   3.383
50636W        W12057  38.426  17.202  10.552
50637W        W12058  42.331  34.072   4.263
50638W        W12059   1.899  11.651   0.939
50639W        W12060  38.424   6.772  13.999
50640W        W12061   8.380  13.621   0.727
50641W        W12062  21.653  31.549   2.732
50642W        W12063  41.401  36.386  11.387
50643W        W12064  27.051   4.936   0.805
50644W        W12065  30.566  43.282  11.567
50645W        W12066  15.165   5.319  14.358
50646W        W12067  10.652  26.569  11.542
50647W        W12068  13.669  35.951  13.891
50648W        W12069  15.786  35.389  12.936
50649W        W12070   7.226  40.419  12.040
50650W        W12071  11.838  34.074  14.289
50651W        W12072  32.392  44.945  12.462
50652W        W12073  22.138  23.657   0.956
50653W        W12074  32.067  40.313   0.297
50654W        W12075   8.166  28.964   3.663
50655W        W12076  32.904   3.826  11.891
50656W        W12077  27.028  30.603  11.030
50657W        W12078  37.408  22.612  11.933
50658W        W12079  12.633  34.063  10.080
50659W        W12080  37.903   7.676   2.290
50660W        W12081  40.371   4.401   3.698
50661W        W12082  31.978  21.193  13.528
50662W        W12083  21.080   9.739  13.997
50663W        W12084  41.312  39.474   3.716
50664W        W12085  39.552  32.940  11.959
50665W        W12086  41.815   6.414   1.398
50666W        W12087  29.590   8.369  14.395
50667W        W12088  13.261  41.026  10.568
50668W        W12089  15.102  29.446   9.572
50669W        W12090  21.598   5.785   2.759
50670W        W12091  25.623  13.733  11.446
50671W        W12092   3.732  37.070  11.861
50672W        W12093  30.422  24.688   4.272
50673W        W12094   6.850  22.685   0.288
50674W        W12095  13.658  16.706  13.868
50675W        W12096  36.001   1.907  10.504
50676W        W12097  16.203   6.868   3.225
50677W        W12098   6.248  42.817   3.782
50678W        W12099  14.112  34.520  13.030
50679W        W12100  33.624  10.865  12.832
50680W        W12101  20.199  31.063  14.989
50681W        W12102  35.389  22.530   2.248
50682W        W12103  35.389   7.780   0.356
50683W        W12104  35.491   2.314   3.837
50684W        W12105  30.454   0.915  14.362
50685W        W12106  23.203  22.672   4.736
50686W        W12107   4.204  18.599  14.830
50687W        W12108   6.277   3.331   0.801
50688W        W12109  33.967  37.446   2.320
50689W        W12110  14.606  11.318   1.282
50690W        W12111  20.612  15.179   0.784
50691W        W12112  31.084   5.349   0.344
50692W        W12113  32.907  17.081   2.370
50693W        W12114  38.996   3.253   3.231
50694W        W12115  16.697  39.950  14.371
50695W        W12116  20.108   4.798  12.509
50696W        W12117  19.599   0.376   3.303
50697W        W12118  30.108  39.907  14.017
50698W        W12119   3.393  19.259   3.770
50699W        W12120  28.548  43.016  14.279
50700W        W12121  25.046   5.302   1.231
50701W        W12122  20.646  34.450  10.958
50702W        W12123  36.391  15.093   0.401
50703W        W12124   3.954  11.807   0.771
50704W        W12125   0.876   7.673   1.421
50705W        W12126   0.461  20.577  11.411
50706W        W12127  12.198   5.227   0.276
50707W        W12128  14.598  28.609  12.423
50708W        W12129  26.548  40.829  10.915
50709W        W12130  23.494  35.939   0.284
50710W        W12131  40.999  12.716   2.806
50711W        W12132   7.752  40.314   5.262
50712W        W12133   7.247  35.477  13.049
50713W        W12134  40.347  36.355  11.110
50714W        W12135  31.513  41.417   1.363
50715W        W12136  23.570   6.823  14.961
50716W        W12137  36.891  27.600  14.954
50717W        W12138  20.213  22.647  14.902
50718W        W12139  26.988  16.243  13.004
50719W        W12140  30.615   9.201   1.893
50720W        W12141  13.191   1.370  13.828
50721W        W12142   1.774   0.312   4.809
50722W        W12143  31.457  19.685  11.444
50723W        W12144  12.758  23.058  12.510
50724W        W12145  23.156  27.682  11.907
50725W        W12146  25.010  16.573  10.615
50726W        W12147   4.265  30.497   1.724
50727W        W12148  35.442  27.128  10.898
50728W        W12149   3.266   6.310   1.282
50729W        W12150  15.721  24.607   3.189
50730W        W12151  13.337  19.771  14.774
50731W        W12152  38.022  32.107  11.875
50732W        W12153  34.416  12.221  12.503
50733W        W12154  17.723  34.506  11.117
50734W        W12155  44.788  35.978  12.019
50735W        W12156   4.934   2.231  14.015
50736W        W12157   5.729  40.945  10.608
50737W        W12158  20.237  32.037   9.933
50738W        W12159  12.248  25.136   3.737
50739W        W12160  31.545  30.913   4.808
50740W        W12161  34.990  18.618  13.821
50741W        W12162  35.885  20.645   0.896
50742W        W12163  34.410  16.289  10.894
50743W        W12164  33.901  12.694  11.524
50744W        W12165  30.642  27.037   4.692
50745W        W12166  22.995  44.952  13.922
50746W        W12167  19.153  18.152   2.726
50747W        W12168  13.800   6.855  10.491
50748W        W12169  33.434  18.113  10.146
50749W        W12170  43.291  12.746  14.397
50750W        W12171  37.428  20.085   1.309
50751W        W12172  10.658  34.560  13.326
50752W        W12173  16.709   7.364  12.464
50753W        W12174  24.599   5.434  12.509
50754W        W12175  38.965  23.549  10.644
50755W        W12176  32.965  14.236   0.961
50756W        W12177  13.816  11.799   3.178
50757W        W12178  24.184  13.609   0.854
50758W        W12179  28.096  28.969   1.856
50759W        W12180  36.028   7.841   4.163
50760W        W12181   2.284   3.328   3.309
50761W        W12182   5.881   2.302   0.443
50762W        W12183  26.696  39.383  14.287
50763W        W12184   8.804  25.636  12.976
50764W        W12185  10.836   5.751  12.058
50765W        W12186   1.439  19.711   2.188
50766W        W12187  29.051  43.909   2.793
50767W        W12188  26.554  24.209   3.381
50768W        W12189   1.844  42.923  10.520
50769W        W12190  38.009  36.023   1.371
50770W        W12191   8.746   0.471   0.454
50771W        W12192   9.788  44.348   2.358
50772W        W12193  26.075  38.364   0.933
50773W        W12194  12.305  14.807   0.434
50774W        W12195  43.952  14.805   3.701
50775W        W12196  15.157  35.968  13.981
50776W        W12197   8.806   5.199   1.722
50777W        W12198   1.304   6.784  13.481
50778W        W12199  14.333  27.018   4.245
50779W        W12200  26.495   2.269  10.479
50780W        W12201  37.929  25.172   2.246
50781W        W12202  27.106  31.635   0.433
50782W        W12203   9.205   4.812  11.546
50783W        W12204  19.091   1.756   2.879
50784W        W12205  32.912  28.473  11.943
50785W        W12206   4.802   9.827  10.496
50786W        W12207   0.298  24.072   3.149
50787W        W12208  41.006  28.974   4.273
50788W        W12209  11.794  29.465  13.996
50789W        W12210   8.733   5.342  14.466
50790W        W12211  38.877  13.289   3.851
50791W        W12212   9.695  16.089  10.975
50792W        W12213  33.885  17.246   2.297
50793W        W12214  44.404  10.665  14.443
50794W        W12215  21.642  24.705   0.354
50795W        W12216  22.584   9.869  11.399
50796W        W12217  21.630  13.693  12.419
50797W        W12218  31.505  39.478   0.753
50798W        W12219  40.446  43.955   3.811
50799W        W12220   7.289  41.960   0.306
50800W        W12221   8.765   0.796   1.277
50801W        W12222   2.452  10.214   1.358
50802W        W12223  38.455  35.550  11.044
50803W        W12224  15.315  36.406   2.297
50804W        W12225  43.004   4.906  12.931
50805W        W12226  41.532  24.152  13.908
50806W        W12227  20.602  14.226   4.257
50807W        W12228   6.240  15.638   3.865
50808W        W12229   2.469  23.121  10.919
50809W        W12230  27.108  43.859   3.703
50810W        W12231  24.665   0.923   2.709
50811W        W12232  44.345  41.348   3.833
50812W        W12233   6.343  41.905  11.537
50813W        W12234  11.741  13.236   1.921
50814W        W12235  24.514  35.437   4.115
50815W        W12236  18.180   0.798   3.355
50816W        W12237  29.512   1.477  11.110
50817W        W12238  13.623  41.951   3.688
50818W        W12239  41.417  28.936  10.420
50819W        W12240   3.861  23.525   0.786
50820W        W12241  14.712  32.573   2.725
50821W        W12242   5.839   0.493  12.846
50822W        W12243  25.132  37.011   1.264
50823W        W12244   4.699  12.193   4.283
50824W        W12245  26.470  13.349  13.999
50825W        W12246  33.940   0.772   4.174
50826W        W12247  19.103  39.936   4.823
50827W        W12248  33.613  29.593   2.708
50828W        W12249  43.508   4.408  12.959
50829W        W12250  15.132  40.900  13.543
50830W        W12251   8.298  17.220  14.997
50831W        W12252  14.787   8.806  13.500
50832W        W12253  30.445  13.725  14.501
50833W        W12254  41.866  32.951   2.230
50834W        W12255  12.192  44.402  14.894
50835W        W12256  40.834  33.959  14.887
50836W        W12257  16.743  42.305   3.649
50837W        W12258  22.155  17.163  12.425
50838W        W12259   4.727   9.294   3.157
50839W        W12260   0.457  44.994   3.778
50840W        W12261  37.511  35.420  13.348
50841W        W12262  28.164  39.844  14.817
50842W        W12263  34.062  34.461   4.755
50843W        W12264  28.948  27.026   2.280
50844W        W12265   8.369  24.062  13.383
50845W        W12266  40.805  37.513  11.461
50846W        W12267   8.352   6.751   0.847
50847W        W12268  26.685   6.263  13.507
50848W        W12269  41.936  35.025   3.655
50849W        W12270  36.363   7.815   4.315
50850W        W12271  34.028  14.297  14.765
50851W        W12272  19.542  21.032  12.411
50852W        W12273   8.811  44.425  13.382
50853W        W12274   1.781  34.537  13.987
50854W        W12275   0.380  31.984  12.902
50855W        W12276   7.326  11.861   0.378
50856W        W12277  27.039  41.791  12.095
50857W        W12278  20.734  34.068  13.818
50858W        W12279   8.284  26.642  10.587
50859W        W12280  29.655  36.975  11.926
50860W        W12281  19.174  16.223   4.710
50861W        W12282  25.611  35.892  13.518
50862W        W12283  23.191  44.881   0.329
50863W        W12284   8.361  33.928   0.841
50864W        W12285   8.320  40.985   2.839
50865W        W12286   1.900  18.098   4.351
50866W        W12287  20.610  39.422   0.379
50867W        W12288  25.102  23.144   0.846
50868W        W12289  10.279  31.491  13.014
50869W        W12290  27.993  28.033   3.681
50870W        W12291  44.944  15.329   4.686
50871W        W12292  37.066  44.489  13.365
50872W        W12293  28.601  14.333   2.281
50873W        W12294  23.708   6.245   1.860
50874W        W12295  20.171  35.963   4.760
50875W        W12296   7.401   7.909   0.795
50876W        W12297   4.444   4.329  12.955
50877W        W12298  38.044  14.262  10.960
50878W        W12299  40.942  10.788  14.353
50879W        W12300   1.801  44.498  11.881
50880W        W12301   8.772  30.484  13.541
50881W        W12302  34.061  38.033  13.460
50882W        W12303  11.837   3.815   3.160
50883W        W12304  26.583  43.504  14.919
50884W        W12305  43.974  33.407  14.491
50885W        W12306   2.737  15.245   1.369
50886W        W12307  13.619  40.474   0.850
50887W        W12308  26.541  36.036   4.237
50888W        W12309  26.121  20.558  13.865
50889W        W12310  40.027  17.707  13.523
50890W        W12311  35.525   4.405  14.902
50891W        W12312  35.598  43.386   3.633
50892W        W12313  16.112   6.693  11.956
50893W        W12314  28.067  39.891   2.681
50894W        W12315  29.662  40.398  12.860
50895W        W12316  38.391   7.344  10.443
50896W        W12317  15.697   6.764   1.888
50897W        W12318  19.649  19.220  13.983
50898W        W12319  27.560   5.339  11.984
50899W        W12320   5.270  18.567   1.720
50900W        W12321   1.355  21.716  14.845
50901W        W12322   2.296  30.609  13.430
50902W        W12323  41.032   4.762  10.943
50903W        W12324   0.264  25.691   4.322
50904W        W12325  44.951   3.346  13.791
50905W        W12326  25.070   9.759  12.036
50906W        W12327  38.836   2.726  11.042
50907W        W12328  11.199  32.072  13.790
50908W        W12329  28.120  13.604  14.309
50909W        W12330  41.463   9.382  14.957
50910W        W12331  16.717  20.714  11.048
50911W        W12332  41.835  10.241   5.116
50912W        W12333   4.350  41.993  12.059
50913W        W12334  35.535   5.294   2.855
50914W        W12335  44.825   8.174   0.780
50915W        W12336  33.000  34.412   2.779
50916W        W12337  34.454  10.356   2.853
50917W        W12338  12.752  38.880  14.939
50918W        W12339  18.269  22.648   4.308
50919W        W12340  43.915  10.356  12.968
50920W        W12341  32.969  18.666   3.687
50921W        W12342   9.326  16.572   3.665
50922W        W12343  10.701  38.867  11.897
50923W        W12344  13.804  42.032   3.302
50924W        W12345  38.014  28.506   3.655
50925W        W12346  31.623  30.435   3.384
50926W        W12347  35.980  12.754   1.420
50927W        W12348  42.431  24.200   0.296
50928W        W12349  13.628  11.625  10.514
50929W        W12350  39.979   8.257   1.772
50930W        W12351  25.705  19.273  12.472
50931W        W12352  19.718  13.148   4.311
50932W        W12353   7.745   3.868  14.399
50933W        W12354  43.286  27.945  13.466
50934W        W12355  29.528  16.765   3.326
50935W        W12356  13.174  11.690   1.398
50936W        W12357  17.794  37.371  11.435
50937W        W12358  15.622  28.666   3.691
50938W        W12359  23.104   4.752  14.420
50939W        W12360  42.960  33.074   4.662
50940W        W12361  37.925  40.370  11.024
50941W        W12362  10.310  16.183  12.044
50942W        W12363  29.020  25.204   2.331
50943W        W12364  10.195  24.598  13.487
50944W        W12365   2.297  31.426   2.744
50945W        W12366   0.747  33.418   3.745
50946W        W12367  44.408  11.208   5.143
50947W        W12368  16.258  27.452   4.177
50948W        W12369  21.707  12.282  13.314
50949W        W12370  19.566  35.896  14.446
50950W        W12371  13.765  22.203  12.502
50951W        W12372  30.140  17.118  12.499
50952W        W12373   7.289  42.491   3.643
50953W        W12374   3.857   5.873  13.904
50954W        W12375  32.110  20.204  12.006
50955W        W12376   5.284  34.478  11.060
50956W        W12377   3.846   5.893   4.636
50957W        W12378  25.100  34.411  12.427
50958W        W12379  23.719  11.857   0.865
50959W        W12380  30.413  16.245  14.790
50960W        W12381  33.971  13.301  13.826
50961W        W12382   2.862  34.057   3.264
50962W        W12383  11.300  17.694   2.773
50963W        W12384   3.374  40.000  14.495
50964W        W12385  35.021  32.008  13.025
50965W        W12386   8.331   2.905  13.381
50966W        W12387  43.421  41.317  11.933
50967W        W12388  15.298  18.206  12.401
50968W        W12389   2.416   8.760   5.293
50969W        W12390  14.314   4.446  12.437
50970W        W12391  24.707  16.720  14.463
50971W        W12392   8.222  34.081  12.068
50972W        W12393  20.188   4.238   2.369
50973W        W12394  37.446  43.458   3.179
50974W        W12395  25.553  11.166   2.854
50975W        W12396  36.393  25.608   0.351
50976W        W12397  19.618  12.754  14.411
50977W        W12398   0.487   0.291  11.434
50978W        W12399  24.607   5.358   1.870
50979W        W12400  38.844   2.726  13.908
50980W        W12401  39.415  15.278   3.285
50981W        W12402   8.173  25.174   0.325
50982W        W12403  12.851  43.766  10.892
50983W        W12404  28.542   9.380   0.370
50984W        W12405  37.353  12.219  12.876
50985W        W12406   6.379  42.327   2.403
50986W        W12407  10.648  19.601   4.687
50987W        W12408  37.915  20.579   2.751
50988W        W12409   0.319   6.736   2.349
50989W        W12410  36.081  32.028  11.072
50990W        W12411  18.189  35.043   3.700
50991W        W12412   8.197  15.612  11.955
50992W        W12413   2.312   8.695   0.752
50993W        W12414  22.570  18.671  10.640
50994W        W12415  43.466   6.377   2.418
50995W        W12416  41.496  28.946  13.882
50996W        W12417  34.119  12.759   4.762
50997W        W12418  12.190   4.373  11.864
50998W        W12419  38.998  20.660  12.536
50999W        W12420   9.204  33.591  10.941
51000W        W12421  20.135  34.906   5.082
51001W        W12422  20.134   1.257   0.289
51002W        W12423  20.094  31.975  14.372
51003W        W12424  30.001   9.325   4.798
51004W        W12425  25.696  11.226  13.410
51005W        W12426  33.467  22.100  12.018
51006W        W12427   9.848  18.597  14.409
51007W        W12428  26.574   0.475   2.380
51008W        W12429  17.713  42.860  11.469
51009W        W12430   3.865  36.858   4.817
51010W        W12431  30.030  43.302  13.920
51011W        W12432  22.512  27.104  12.458
51012W        W12433  39.816  19.735   3.867
51013W        W12434  32.048   3.365   4.736
51014W        W12435   8.301  24.573  12.923
51015W        W12436  15.124   0.475  10.431
51016W        W12437  12.180   7.711  14.869
51017W        W12438   6.860  19.169   0.353
51018W        W12439  43.837  28.953  14.510
51019W        W12440   6.762  27.100   2.405
51020W        W12441  25.966  17.295   0.967
51021W        W12442  44.328   4.433  14.333
51022W        W12443  38.479   0.826   2.324
51023W        W12444   2.457   1.320  10.088
51024W        W12445  28.077  10.804   0.765
51025W        W12446   5.257  38.427   1.794
51026W        W12447  33.472  25.505   4.683
51027W        W12448  21.621  15.190   0.395
51028W        W12449   7.241  14.147  11.425
51029W        W12450  15.267  23.060   3.693
51030W        W12451  20.750   2.960   1.891
51031W        W12452  44.964  39.549   4.833
51032W        W12453  35.878  10.728   2.837
51033W        W12454  21.060  44.933  10.544
51034W        W12455  25.119   9.280  10.480
51035W        W12456  11.246   7.311   4.676
51036W        W12457  31.633  42.967  12.898
51037W        W12458  38.879  28.551  13.430
51038W        W12459  21.089   8.380  14.365
51039W        W12460  36.501  35.984   3.834
51040W        W12461   6.322  16.268   1.743
51041W        W12462  25.582  24.586  11.425
51042W        W12463   3.794  30.072  11.113
51043W        W12464  29.114  34.004   3.795
51044W        W12465  23.096  36.553   1.437
51045W        W12466  37.419  43.870  14.438
51046W        W12467  21.539  31.597  11.565
51047W        W12468  31.573   8.678   1.894
51048W        W12469  34.093  23.239  10.585
51049W        W12470  28.983  21.513  10.419
51050W        W12471   4.223   9.150  11.915
51051W        W12472  30.625  19.563  11.410
51052W        W12473   4.435  35.552  12.974
51053W        W12474  14.606  30.603   2.221
51054W        W12475  10.272  16.197   0.736
51055W        W12476  16.635  15.097  12.027
51056W        W12477  42.822   9.852  14.447
51057W        W12478  12.254   4.804   3.324
51058W        W12479   5.409  21.740  14.998
51059W        W12480  16.631  14.276   3.785
51060W        W12481  22.229   8.376  11.478
51061W        W12482  11.270  26.108  13.047
51062W        W12483  28.123   3.822   2.252
51063W        W12484  35.447  22.134  10.507
51064W        W12485  37.847  10.252  12.932
51065W        W12486  11.216  30.412   2.295
51066W        W12487   7.806  10.751   2.689
51067W        W12488   7.802  28.467   0.801
51068W        W12489  34.104  14.679  13.543
51069W        W12490   6.826  39.901   4.598
51070W        W12491  30.129  44.868   2.197
51071W        W12492  32.538  34.906   0.450
51072W        W12493  29.462  36.426  12.871
51073W        W12494   9.208  21.740   0.929
51074W        W12495  11.153  39.014  10.618
51075W        W12496  36.550  11.207  11.915
51076W        W12497  13.319  11.331   0.399
51077W        W12498  32.138  12.638   1.810
51078W        W12499   4.341  36.993   4.645
51079W        W12500  25.581   0.912  14.450
51080W        W12501  42.776  18.245  14.512
51081W        W12502   3.877  26.019   0.438
51082W        W12503  13.768  43.388  12.431
51083W        W12504  42.513  26.622   0.384
51084W        W12505   7.397  38.838  14.842
51085W        W12506  27.987  20.038  13.891
51086W        W12507  14.265  25.559   3.829
51087W        W12508  32.391   0.894  11.451
51088W        W12509  20.203  16.632   2.287
51089W        W12510   4.733  10.835   4.293
51090W        W12511  42.966  19.732  12.056
51091W        W12512  29.526  10.837  14.829
51092W        W12513   4.866  33.473  13.800
51093W        W12514  21.150  39.384   3.659
51094W        W12515  15.668   7.395  11.057
51095W        W12516  39.323   5.269   2.667
51096W        W12517   5.230  18.237  10.970
51097W        W12518  12.344  40.435  13.796
51098W        W12519   1.303   8.889  13.989
51099W        W12520  25.498  43.931   4.802
51100W        W12521  31.035  31.420  14.334
51101W        W12522   0.375  40.803   0.898
51102W        W12523  41.987  28.551   4.761
51103W        W12524   8.892  31.004  14.976
51104W        W12525  27.023   5.714   4.255
51105W        W12526  37.077  41.010  14.796
51106W        W12527   5.417  12.299  13.508
51107W        W12528  38.471   0.966  14.350
51108W        W12529  12.777  42.853  12.424
51109W        W12530  19.253  11.622   2.841
51110W        W12531   7.870   9.800  13.840
51111W        W12532   9.850   6.193   2.722
51112W        W12533   9.757   5.200  10.618
51113W        W12534  38.842  14.275  14.392
51114W        W12535   8.736  33.489   2.410
51115W        W12536  17.278  40.980   0.305
51116W        W12537  18.285  11.719   1.802
51117W        W12538  38.337  44.827  12.399
51118W        W12539  18.233  39.480  10.905
51119W        W12540  38.005  12.755   0.965
51120W        W12541  19.645  38.454   0.812
51121W        W12542   4.258   9.850  11.902
51122W        W12543  19.273   0.315  12.431
51123W        W12544   1.294   0.983   4.725
51124W        W12545  42.497  19.708  12.513
51125W        W12546  35.025  31.995   1.387
51126W        W12547  12.835  37.457   1.917
51127W        W12548  20.160  12.225   0.884
51128W        W12549  44.926  34.398  10.494
51129W        W12550  10.318   2.734   3.857
51130W        W12551  43.919   4.822  12.996
51131W        W12552  17.075   7.274  14.865
51132W        W12553  19.640  37.880  10.611
51133W        W12554  20.037  22.501  12.576
51134W        W12555  35.957  25.173  13.395
51135W        W12556  12.649   9.670   1.225
51136W        W12557  15.176  31.522   5.157
51137W        W12558  34.045  13.144   1.227
51138W        W12559   9.662  32.503  14.496
51139W        W12560  10.303  11.295  13.947
51140W        W12561  31.587  26.675  10.141
51141W        W12562  20.147   1.385   1.259
51142W        W12563  10.815  20.602   2.677
51143W        W12564  12.282   1.281  13.387
51144W        W12565  21.704  42.949  12.570
51145W        W12566  10.635  31.917   3.648
51146W        W12567   0.875  33.999   2.257
51147W        W12568   3.225  40.404   1.733
51148W        W12569   7.178  34.054   3.354
51149W        W12570   2.840  35.420  14.325
51150W        W12571  31.640   4.794   4.167
51151W        W12572  31.049  30.005   4.257
51152W        W12573  39.039   7.372   3.198
51153W        W12574  19.643   4.415   4.234
51154W        W12575   2.825   8.388   0.913
51155W        W12576  33.494  14.818   0.839
51156W        W12577  23.537  16.144   2.727
51157W        W12578  34.989  13.330   2.260
51158W        W12579  24.135  25.040   0.312
51159W        W12580  43.413  44.859   0.886
51160W        W12581  36.544  19.543   1.828
51161W        W12582  12.781  25.687  12.543
51162W        W12583  18.083  24.180   4.325
51163W        W12584  33.965   9.881   3.785
51164W        W12585  15.316  37.010  14.331
51165W        W12586  33.118   7.791  14.901
51166W        W12587  36.533  36.429  12.004
51167W        W12588  28.509  33.882   1.923
51168W        W12589  38.461  10.237  14.846
51169W        W12590   1.757  32.511  10.427
51170W        W12591  16.217  13.318  12.379
51171W        W12592  27.141  44.761   4.202
51172W        W12593  31.905  28.496   1.357
51173W        W12594  24.018   6.697  14.487
51174W        W12595  32.987   5.735   0.435
51175W        W12596  42.942  21.543  12.369
51176W        W12597  42.782   1.848  12.382
51177W        W12598   1.392  11.658  11.521
51178W        W12599  27.565  12.782   1.219
51179W        W12600  33.010  44.331  11.017
51180W        W12601   8.874   8.780   0.283
51181W        W12602   5.906   8.230  12.422
51182W        W12603   2.340  28.143   0.356
51183W        W12604   8.770  29.452  12.965
51184W        W12605  16.258  44.258  14.394
51185W        W12606  13.175  41.352  10.457
51186W        W12607   0.389  24.527  14.473
51187W        W12608  34.932  22.064  10.902
51188W        W12609  32.434   7.806  11.015
51189W        W12610   7.364  19.238  11.499
51190W        W12611  14.641  14.666   3.152
51191W        W12612  22.714  27.101   1.766
51192W        W12613  29.506   5.222  10.423
51193W        W12614   1.944  19.122  10.613
51194W        W12615  36.015  42.408  11.504
51195W        W12616  28.135  40.350  10.576
51196W        W12617   1.467  40.978  13.380
51197W        W12618  24.104  31.595  12.867
51198W        W12619  43.363  28.983   2.254
51199W        W12620  44.297   0.889  14.026
51200W        W12621  26.033  44.863  12.383
51201W        W12622  17.082  16.221  10.904
51202W        W12623  29.098  22.075  14.766
51203W        W12624  27.989  17.223   2.816
51204W        W12625  18.273  27.483  10.971
51205W        W12626  28.534  41.911   2.863
51206W        W12627  10.721  32.984   4.762
51207W        W12628  42.524  30.641  13.906
51208W        W12629  43.997  26.515  12.960
51209W        W12630  30.089   0.926  11.024
51210W        W12631   4.382  41.375  13.869
51211W        W12632  35.409  20.080  14.344
51212W        W12633  38.022   5.398   4.302
51213W        W12634  38.017   5.263  12.529
51214W        W12635  30.586  14.686  13.047
51215W        W12636  27.029  26.696   0.365
51216W        W12637  11.638  28.113  12.901
51217W        W12638  19.713  43.359  13.012
51218W        W12639  23.647  33.612   4.239
51219W        W12640  28.030  36.577  11.458
51220W        W12641  40.888  10.833  14.794
51221W        W12642  20.108  41.334   5.183
51222W        W12643   2.864  39.469  11.965
51223W        W12644  28.103  26.052  10.467
51224W        W12645  27.651  11.142  12.902
51225W        W12646  19.117   6.891  13.020
51226W        W12647  43.329  18.296   9.922
51227W        W12648  12.336  10.310  10.542
51228W        W12649   8.250  12.294   4.684
51229W        W12650   6.381  31.028   1.319
51230W        W12651  25.478  42.860   2.733
51231W        W12652  14.161   4.412  13.357
51232W        W12653  34.510   8.160   1.933
51233W        W12654  44.485   0.321  11.509
51234W        W12655   9.162  42.454   3.746
51235W        W12656  21.553  38.057   1.256
51236W        W12657  12.641  44.382   1.700
51237W        W12658   3.919  44.305  12.852
51238W        W12659  29.585  10.168   4.709
51239W        W12660  43.964  10.169  14.304
51240W        W12661  24.040  25.651  11.544
51241W        W12662  35.957  21.663  11.123
51242W        W12663   9.379   8.355  13.858
51243W        W12664   2.812  44.786   4.714
51244W        W12665  27.474  23.532  10.464
51245W        W12666   3.457  19.157  12.430
51246W        W12667  12.118  27.557   2.870
51247W        W12668  26.700  24.116  11.900
51248W        W12669  41.036  17.642  11.924
51249W        W12670  29.463  43.909   0.726
51250W        W12671  29.547   4.438   2.783
51251W        W12672   9.182  40.513  11.571
51252W        W12673  26.132  16.153  10.554
51253W        W12674  31.926  28.622   0.282
51254W        W12675  18.280  14.812   3.338
51255W        W12676  27.638   6.198  14.287
51256W        W12677  37.575  11.281   2.358
51257W        W12678  16.570   0.265   4.794
51258W        W12679  12.126  12.296   1.843
51259W        W12680  27.028  42.377  11.965
51260W        W12681  42.998   3.298  14.887
51261W        W12682  18.757   6.418  14.953
51262W        W12683  12.211  43.959  11.861
51263W        W12684  23.526  31.113   1.698
51264W        W12685  17.262  39.836   2.826
51265W        W12686  32.616  31.974   2.189
51266W        W12687  12.318  44.976  12.914
51267W        W12688  26.976  44.291   1.880
51268W        W12689   4.239  11.849  14.760
51269W        W12690  42.508  32.920   3.326
51270W        W12691  44.276  29.005   2.322
51271W        W12692  10.752  39.911  13.430
51272W        W12693  20.192  15.745   1.876
51273W        W12694  41.822  20.267  12.970
51274W        W12695  44.276  29.588  10.926
51275W        W12696  18.287   7.908   3.215
51276W        W12697  22.732   5.437   4.754
51277W        W12698  35.380   6.836  13.329
51278W        W12699   1.400  10.639   0.362
51279W        W12700  44.474  22.059   4.789
51280W        W12701  35.458  41.292  12.457
51281W        W12702  17.652  17.706   2.226
51282W        W12703   5.830   1.329  14.362
51283W        W12704  28.183  21.148   3.691
51284W        W12705  23.531   2.406   2.240
51285W        W12706  22.738   6.255   4.331
51286W        W12707  20.033  31.936   3.789
51287W        W12708  42.332  25.476  11.910
51288W        W12709  12.804  21.106  10.917
51289W        W12710  19.607  18.765  14.830
51290W        W12711   9.311  36.387   4.640
51291W        W12712  35.575  29.580   2.218
51292W        W12713  30.961  23.540  13.842
51293W        W12714  25.583  39.338   1.255
51294W        W12715   9.806  29.593   3.351
51295W        W12716   2.271  16.759   1.332
51296W        W12717   2.911  21.075   2.273
51297W        W12718  39.349  15.633  12.979
51298W        W12719  20.645  25.633   0.476
51299W        W12720   0.819  26.971   0.480
51300W        W12721  14.309  20.623  10.960
51301W        W12722  35.506  17.582   4.187
51302W        W12723  26.178  14.115  12.504
51303W        W12724  37.053  30.121  13.391
51304W        W12725  34.539  33.578  10.620
51305W        W12726  21.032  25.515  12.091
51306W        W12727  12.243  41.348  11.473
51307W        W12728   3.217   3.784   0.831
51308W        W12729  11.691  10.228  13.806
51309W        W12730  11.639   5.330   4.806
51310W        W12731   6.304  12.240   1.755
51311W        W12732  42.455  15.807  13.039
51312W        W12733   9.334   4.828  14.994
51313W        W12734   6.680  29.023   2.396
51314W        W12735  34.911   8.392  10.430
51315W        W12736  12.782  25.201  11.591
51316W        W12737  44.415  10.178   2.181
51317W        W12738  10.378  23.093  14.766
51318W        W12739  19.572  32.525  14.956
51319W        W12740  40.525  35.873  10.122
51320W        W12741  29.469   0.275  12.394
51321W        W12742  24.042   7.807  11.069
51322W        W12743  24.500  23.171  14.811
51323W        W12744  37.083  20.749  10.575
51324W        W12745  13.321  10.317   4.652
51325W        W12746  19.750  37.576   0.334
51326W        W12747  36.574   2.386  14.496
51327W        W12748  14.249   7.326  14.832
51328W        W12749  14.666  18.216   3.827
51329W        W12750  32.558  29.966   4.196
51330W        W12751  27.023  11.859  11.455
51331W        W12752   1.799  34.025  13.359
51332W        W12753  11.250  39.967   2.258
51333W        W12754   4.237  10.380  12.361
51334W        W12755  17.178   5.784   3.674
51335W        W12756  37.001  18.565   4.604
51336W        W12757   1.795  39.875  14.370
51337W        W12758  36.537   4.925  13.341
51338W        W12759  29.638  19.105  11.590
51339W        W12760   7.842  28.028   0.965
51340W        W12761  27.184  44.396  14.826
51341W        W12762  22.727  37.539   2.292
51342W        W12763  13.113   0.843  13.363
51343W        W12764  30.575  14.624  13.830
51344W        W12765  43.019  12.733  13.027
51345W        W12766  28.575  38.055   1.400
51346W        W12767  28.019  21.251   2.218
51347W        W12768  10.757  43.465  13.889
51348W        W12769   1.759   4.782  12.563
51349W        W12770   2.294  41.316   4.789
51350W        W12771  17.092  15.791   0.276
51351W        W12772  16.784  41.341   3.323
51352W        W12773  33.432  32.461   0.460
51353W        W12774  35.542  10.723   3.763
51354W        W12775   1.471  19.277  13.316
51355W        W12776  22.149  15.162  11.023
51356W        W12777   3.313  36.592  11.565
51357W        W12778   8.719  34.876   1.354
51358W        W12779  30.655  24.660   4.716
51359W        W12780  42.925  26.070  14.811
51360W        W12781  36.464  30.443  11.060
51361W        W12782  30.909  17.672  13.450
51362W        W12783  19.198  11.719   1.781
51363W        W12784  13.201  11.677   2.821
51364W        W12785  31.124  28.515  11.956
51365W        W12786  32.127  39.443   0.417
51366W        W12787  32.047  32.444  14.882
51367W        W12788  13.188   5.340  10.645
51368W        W12789  26.150   2.941   2.385
51369W        W12790   1.298  33.443  13.878
51370W        W12791  35.542  14.295   2.800
51371W        W12792  10.139  39.515   2.205
51372W        W12793   7.844  35.939   2.850
51373W        W12794  31.524  33.131   0.468
51374W        W12795   6.223  27.592   1.446
51375W        W12796  17.777   8.889   3.219
51376W        W12797  18.152  11.368   9.612
51377W        W12798  32.921   7.737  12.516
51378W        W12799  25.103  34.120   2.220
51379W        W12800  35.905  14.197   1.696
51380W        W12801  26.020   4.300   3.805
51381W        W12802  42.353  33.919   4.748
51382W        W12803  33.496  35.891   3.796
51383W        W12804  41.421  10.139   4.309
51384W        W12805  14.653  41.456   0.265
51385W        W12806  22.102  27.176   0.481
51386W        W12807  22.600  42.883   3.150
51387W        W12808  40.930  18.194   2.406
51388W        W12809  23.238  23.542   3.208
51389W        W12810   3.835  25.001   2.739
51390W        W12811  43.364   7.674   2.848
51391W        W12812  17.646  30.437   3.151
51392W        W12813  20.103  41.309  14.861
51393W        W12814   5.210   4.730  11.967
51394W        W12815  23.015  18.147  12.033
51395W        W12816  38.022  31.126   2.787
51396W        W12817  36.027  25.160   1.408
51397W        W12818  21.709  41.896   4.234
51398W        W12819  37.070   8.244   1.228
51399W        W12820   6.311  39.386  13.850
51400W        W12821  14.146  16.119  11.441
51401W        W12822  10.284  25.151   4.145
51402W        W12823   0.898   3.723   1.875
51403W        W12824  16.772  11.787   4.764
51404W        W12825   7.824  16.778  12.418
51405W        W12826  34.423   5.208  12.920
51406W        W12827  30.980   8.853   4.702
51407W        W12828  35.026  19.722  12.006
51408W        W12829  31.004  14.098   2.324
51409W        W12830   3.907  38.329   3.243
51410W        W12831  20.692  37.356   4.618
51411W        W12832  31.152  37.580   4.193
51412W        W12833   1.332  34.997  14.778
51413W        W12834  40.971  18.654  14.454
51414W        W12835  32.971  24.218  14.910
51415W        W12836  28.963  35.049   1.829
51416W        W12837  15.157  28.573   1.243
51417W        W12838  35.893   7.805   2.903
51418W        W12839  39.550  18.194  12.912
51419W        W12840  27.096  43.373   4.797
51420W        W12841  32.562  14.131  13.797
51421W        W12842  41.485   8.738  12.047
51422W        W12843  16.273  14.194  12.025
51423W        W12844  37.850  44.819  12.348
51424W        W12845   4.308  38.841  12.091
51425W        W12846  23.565  25.107  11.898
51426W        W12847  38.821  13.270   4.814
51427W        W12848  34.987  29.580   0.742
51428W        W12849   9.667   7.370  14.030
51429W        W12850  36.357  31.403  14.335
51430W        W12851   4.329  37.902  14.370
51431W        W12852  28.648  20.057   1.437
51432W        W12853  14.799  37.023  13.327
51433W        W12854  35.931  11.181   4.756
51434W        W12855  41.955  18.085  13.915
51435W        W12856   8.758  10.685  10.634
51436W        W12857  43.446  29.158  13.895
51437W        W12858  40.993  11.840   9.591
51438W        W12859  11.265  41.911  13.333
51439W        W12860  34.509   1.853  14.453
51440W        W12861  44.949   5.865   4.291
51441W        W12862   2.760  26.131  11.922
51442W        W12863  17.072   2.775   3.283
51443W        W12864  17.629  11.191  10.531
51444W        W12865  32.923  24.175  12.898
51445W        W12866  15.614  16.107   5.227
51446W        W12867  35.940  29.554   3.226
51447W        W12868   7.774  14.145  14.817
51448W        W12869   3.347   0.414   1.261
51449W        W12870  32.057  43.469  13.017
51450W        W12871  34.900  22.513   0.478
51451W        W12872   5.727  12.127   4.633
51452W        W12873  37.864   0.789  11.856
51453W        W12874  22.623  20.072  14.776
51454W        W12875  20.566  14.216  14.826
51455W        W12876  22.528  26.670   3.816
51456W        W12877   0.439  26.513   4.737
51457W        W12878  26.146  42.348   4.250
51458W        W12879   0.301   2.925  12.408
51459W        W12880  29.174  22.048  13.498
51460W        W12881   3.387   1.447   1.696
51461W        W12882  13.792  13.738   4.814
51462W        W12883  22.117  39.812  12.359
51463W        W12884   3.859  40.959   4.645
51464W        W12885   5.311  25.187   0.790
51465W        W12886  13.664  24.994   1.355
51466W        W12887   1.796  31.573  14.405
51467W        W12888  19.700  24.035   2.788
51468W        W12889  35.067  35.398   0.358
51469W        W12890  28.955  43.294   3.742
51470W        W12891   2.943  22.191  11.375
51471W        W12892   5.785  37.910   3.305
51472W        W12893  22.611  40.831  13.431
51473W        W12894   2.760  30.154  10.555
51474W        W12895   5.914  42.033  14.765
51475W        W12896  25.612   9.753  12.905
51476W        W12897  16.105  26.007  14.279
51477W        W12898  39.816  43.365  13.465
51478W        W12899   7.739  26.587  13.403
51479W        W12900  23.699  36.891   3.761
51480W        W12901  32.453  40.872  10.435
51481W        W12902   7.683  26.585  12.849
51482W        W12903  43.376   1.815  10.552
51483W        W12904  21.062  41.796  13.516
51484W        W12905  16.289   0.865  13.528
51485W        W12906  43.350   9.661   3.718
51486W        W12907  17.083  38.919  12.881
51487W        W12908  30.060  17.700   1.232
51488W        W12909   1.795   1.438   0.809
51489W        W12910   8.779  29.601   4.312
51490W        W12911  33.890  38.951   0.375
51491W        W12912  33.487   8.863   0.365
51492W        W12913  33.607  25.501  12.046
51493W        W12914  23.668   9.731   3.807
51494W        W12915  16.623   7.310   4.190
51495W        W12916  44.953  44.840   0.735
51496W        W12917  37.550  11.210   1.383
51497W        W12918  23.628  31.966  12.900
51498W        W12919  25.621  27.105  10.958
51499W        W12920  27.567  21.089  12.876
51500W        W12921   8.798   5.348  11.044
51501W        W12922  38.835  31.928  14.011
51502W        W12923  37.933  22.645  13.841
51503W        W12924  16.693   2.888   3.263
51504W        W12925  12.782  14.212  12.516
51505W        W12926  33.382  26.177  12.574
51506W        W12927   3.389  21.638  10.501
51507W        W12928   3.851  39.398   2.668
51508W        W12929  21.602  25.213  13.918
51509W        W12930  19.134  43.007   4.268
51510W        W12931  13.221   4.782  14.317
51511W        W12932  21.726  34.958  10.465
51512W        W12933  35.013  32.637   4.126
51513W        W12934   1.764  21.512  14.475
51514W        W12935  44.362   8.799   5.321
51515W        W12936  10.795   1.773  13.436
51516W        W12937  36.520  26.952   4.739
51517W        W12938  29.065   0.302   2.776
51518W        W12939   9.866  21.635  11.483
51519W        W12940   8.205   0.907   4.333
51520W        W12941  11.648   6.398  13.405
51521W        W12942  13.174  20.590  14.771
51522W        W12943   5.237  24.107   2.758
51523W        W12944  32.139  24.660   0.388
51524W        W12945  39.968  30.476   4.278
51525W        W12946  30.416  26.698  10.594
51526W        W12947  15.779  44.001  10.488
51527W        W12948  11.740   1.380  12.544
51528W        W12949  34.925   1.881   2.670
51529W        W12950  19.092  13.165   1.786
51530W        W12951  41.538  30.473  10.610
51531W        W12952   5.225  27.007  12.851
51532W        W12953  24.093  34.924   4.773
51533W        W12954  31.470   1.299   2.891
51534W        W12955  39.998  34.597  14.501
51535W        W12956  42.965   7.794   4.130
51536W        W12957   9.724  42.505  13.791
51537W        W12958   1.330  33.055  14.946
51538W        W12959   0.309  31.091   3.361
51539W        W12960   6.714  16.638   3.818
51540W        W12961  14.828  40.539   2.256
51541W        W12962   4.229  25.040   3.836
51542W        W12963  15.754  44.816   3.270
51543W        W12964  35.517  34.916  11.119
51544W        W12965  21.570  14.806   4.827
51545W        W12966  19.076  20.556   1.825
51546W        W12967  16.108   5.212  10.423
51547W        W12968  44.970  22.088  14.278
51548W        W12969  18.077  25.156   2.789
51549W        W12970   5.701  18.051  11.510
51550W        W12971  27.962  28.635   0.856
51551W        W12972  43.862  40.826  14.465
51552W        W12973   4.740   5.788   3.358
51553W        W12974  33.882  13.118  11.396
51554W        W12975   3.782   4.805  11.386
51555W        W12976  27.551  15.597  12.374
51556W        W12977  12.279   8.347  14.000
51557W        W12978   2.324  39.478  13.821
51558W        W12979  11.652  15.206  11.029
51559W        W12980  31.070   5.880   2.209
51560W        W12981  26.162  11.200  13.974
51561W        W12982   6.264  16.685   0.866
51562W        W12983   2.905  34.466   4.304
51563W        W12984  22.680  39.865  11.123
51564W        W12985   0.261   9.818  14.893
51565W        W12986   0.338  42.355   1.699
51566W        W12987  36.079  29.452   5.106
51567W        W12988  27.188   9.151   2.413
51568W        W12989  30.528  15.161   1.878
51569W        W12990  24.094   0.384   4.635
51570W        W12991  28.003  11.681  10.137
51571W        W12992  22.599   8.231  14.455
51572W        W12993  11.216  41.469  13.867
51573W        W12994  29.935  32.561  10.618
51574W        W12995  11.251  26.543   4.326
51575W        W12996   8.780  10.260  13.937
51576W        W12997  37.582  31.925  12.042
51577W        W12998  44.505  37.438  13.514
51578W        W12999   8.252   2.293   3.272
51579W        W13000  12.130  44.381   0.735
51580W        W13001  33.979  32.111  12.955
51581W        W13002  39.413   3.730  12.382
51582W        W13003  33.023  24.600  14.491
51583W        W13004  42.907  32.585  10.951
51584W        W13005   7.266  12.160   4.149
51585W        W13006  10.376  10.168   4.738
51586W        W13007  30.459  40.051   4.632
51587W        W13008   4.733  23.610  11.869
51588W        W13009  18.580   6.901  14.459
51589W        W13010  15.647  31.572   0.376
51590W        W13011  43.873  35.017   4.771
51591W        W13012  14.690   8.709   0.464
51592W        W13013   0.390   3.294   1.705
51593W        W13014  15.152  31.412   4.289
51594W        W13015  28.457  24.222  11.001
51595W        W13016  18.630  23.164   0.935
51596W        W13017  21.614  26.166  12.845
51597W        W13018  24.088  32.952  11.430
51598W        W13019  36.893  34.959   2.886
51599W        W13020  39.860  31.428  12.401
51600W        W13021  42.469  18.701  12.079
51601W        W13022   0.817  17.762  12.494
51602W        W13023   7.297  33.393  12.404
51603W        W13024  19.727  35.526   3.817
51604W        W13025  23.202  10.669  10.427
51605W        W13026  11.738   7.743   2.382
51606W        W13027  19.671   7.237   3.197
51607W        W13028  22.740  42.949  14.357
51608W        W13029  21.254  17.798   1.388
51609W        W13030  18.175  25.635   2.220
51610W        W13031   9.289   1.337   3.213
51611W        W13032  18.093  11.630   1.297
51612W        W13033  30.051   6.285   0.849
51613W        W13034   5.737  38.823  12.440
51614W        W13035   9.236  25.196  14.854
51615W        W13036  15.226  41.894   3.291
51616W        W13037  27.997  24.566   4.663
51617W        W13038  13.761  13.749  12.457
51618W        W13039  36.841  32.469   1.227
51619W        W13040  36.436  24.015   3.706
51620W        W13041  27.029  26.673  11.053
51621W        W13042  31.110  41.891  11.888
51622W        W13043  28.974  36.982  14.868
51623W        W13044  29.973  14.133  11.604
51624W        W13045  29.536  38.988   0.294
51625W        W13046  32.587  16.219  14.804
51626W        W13047  37.404  39.532  10.450
51627W        W13048  11.203  31.436   2.783
51628W        W13049  15.199   0.293   0.428
51629W        W13050  33.037   4.389   1.931
51630W        W13051  25.140  26.465  13.998
51631W        W13052  18.661   9.390   4.340
51632W        W13053  14.325   6.787   4.285
51633W        W13054   5.815  28.042   4.696
51634W        W13055  29.126   4.269  11.572
51635W        W13056  19.592   1.429  14.325
51636W        W13057  39.007  10.823  10.615
51637W        W13058  41.042  32.074  13.531
51638W        W13059   5.861  41.536  11.543
51639W        W13060   6.307  37.988   0.818
51640W        W13061  20.168  43.509   3.186
51641W        W13062   7.391   9.229   0.928
51642W        W13063  16.725   6.265  11.480
51643W        W13064  25.629  32.091   1.899
51644W        W13065  34.464  10.753   1.243
51645W        W13066  26.625  44.792   0.417
51646W        W13067  13.755  10.191  14.944
51647W        W13068  18.764  22.744   3.362
51648W        W13069  35.566  43.789   4.192
51649W        W13070  44.279  36.425   4.612
51650W        W13071  41.493  25.584   3.660
51651W        W13072   1.430  33.507   4.657
51652W        W13073  34.459  39.946  11.996
51653W        W13074   6.816   3.300   4.328
51654W        W13075  16.230   3.420   4.730
51655W        W13076  27.062   4.345  12.000
51656W        W13077  43.954  37.485  13.489
51657W        W13078  15.585   3.351  14.836
51658W        W13079  29.016   4.442   0.338
51659W        W13080   4.311  15.290   3.698
51660W        W13081  44.381  23.658   4.134
51661W        W13082   9.808  29.144  13.430
51662W        W13083  43.779   1.955   0.745
51663W        W13084  44.892  34.387  14.951
51664W        W13085  34.999  37.378  13.455
51665W        W13086  28.157  26.007   1.864
51666W        W13087  42.989  19.668  10.924
51667W        W13088   0.456  10.213  11.446
51668W        W13089  30.051  40.530  11.537
51669W        W13090   2.771  33.606   5.161
51670W        W13091  42.411  27.985  11.103
51671W        W13092  28.673  43.415   2.711
51672W        W13093  41.846  38.540   0.805
51673W        W13094  26.101  14.690   2.324
51674W        W13095  29.664   7.793   4.191
51675W        W13096   9.872   3.256  14.864
51676W        W13097  26.557  34.917   1.820
51677W        W13098  13.838  35.471   2.750
51678W        W13099  20.571  43.015   1.875
51679W        W13100  38.009  41.329  13.440
51680W        W13101   7.404  26.979  11.547
51681W        W13102  22.692   2.883  13.529
51682W        W13103  19.673  33.940   1.342
51683W        W13104  32.047   9.826   1.859
51684W        W13105  44.837  17.740   0.359
51685W        W13106  13.700  18.075   4.741
51686W        W13107  40.909  43.320   1.413
51687W        W13108  15.162   4.294   2.779
51688W        W13109  14.835  14.317  12.082
51689W        W13110   8.658   6.223  13.881
51690W        W13111  23.618  26.047   0.255
51691W        W13112  24.008   9.741  10.922
51692W        W13113  34.956  13.270   1.824
51693W        W13114  20.635  13.285  13.398
51694W        W13115  27.047   0.253   2.307
51695W        W13116   3.772  10.834   4.172
51696W        W13117  17.612  37.075   3.685
51697W        W13118  28.624  12.726  12.460
51698W        W13119  20.730  10.178   3.651
51699W        W13120  44.367  37.523   0.783
51700W        W13121  42.502   4.294  12.345
51701W        W13122  44.432   2.241   2.832
51702W        W13123  19.540  11.714  13.491
51703W        W13124  39.537  13.208   2.184
51704W        W13125   3.945  17.600  14.470
51705W        W13126  16.718   0.950  12.464
51706W        W13127  35.525   5.721   0.963
51707W        W13128  39.508   6.921  10.888
51708W        W13129  13.168  24.043   3.777
51709W        W13130  24.184  12.651  12.388
51710W        W13131  17.274  12.707   1.361
51711W        W13132  35.934  17.777  12.560
51712W        W13133  14.753   1.347  14.971
51713W        W13134  24.630  22.611  10.462
51714W        W13135  38.535   1.807   3.242
51715W        W13136  12.830   5.749   1.873
51716W        W13137   8.347  21.563  10.611
51717W        W13138  11.261  35.958   2.281
51718W        W13139  44.423  28.447   4.645
51719W        W13140  11.292   5.692   2.679
51720W        W13141  32.026  28.466   1.714
51721W        W13142  25.593  28.153  12.388
51722W        W13143  42.388   2.319   2.834
51723W        W13144   6.854  35.586   0.906
51724W        W13145  13.699   9.221   3.359
51725W        W13146   2.846  23.568   4.256
51726W        W13147  21.525  44.378   1.328
51727W        W13148  10.778  44.977  13.905
51728W        W13149  29.112   4.248   3.363
51729W        W13150  27.962   8.802   5.202
51730W        W13151  40.837  30.618   2.232
51731W        W13152  37.550   8.353  14.830
51732W        W13153  24.982  34.455   2.288
51733W        W13154  40.324   5.709  12.074
51734W        W13155  33.436  44.847   0.423
51735W        W13156  23.125  13.811  11.453
51736W        W13157   6.408  37.374   0.429
51737W        W13158  41.479  22.668   1.321
51738W        W13159  26.036   9.780  14.003
51739W        W13160   9.215  33.996  11.868
51740W        W13161  13.258  33.539  10.157
51741W        W13162   6.298   0.893   3.250
51742W        W13163  19.131  36.011  13.359
51743W        W13164  38.461   3.780  14.277
51744W        W13165   7.226  10.692  13.372
51745W        W13166  21.654   6.339   3.801
51746W        W13167  20.659  31.440   4.785
51747W        W13168  33.900   2.255  12.393
51748W        W13169  25.117   6.790  12.566
51749W        W13170   6.867   1.469  10.446
51750W        W13171  44.961  44.498  10.098
51751W        W13172   4.702  42.018   3.154
51752W        W13173  35.489  18.773   4.192
51753W        W13174  28.568  12.753  11.984
51754W        W13175  14.095  18.173   0.773
51755W        W13176   5.841  29.470   2.889
51756W        W13177  20.034  40.495   0.761
51757W        W13178  15.625  23.506   3.785
51758W        W13179  32.425  11.182  12.072
51759W        W13180  19.041   9.358   1.734
51760W        W13181  41.020   0.330   4.636
51761W        W13182  17.067  42.430  14.493
51762W        W13183   9.368  37.462   3.836
51763W        W13184  28.949  37.352  10.499
51764W        W13185  21.147  32.010  14.311
51765W        W13186  21.698  33.099  12.560
51766W        W13187  33.062  31.150   4.677
51767W        W13188  23.541  38.969  12.898
51768W        W13189   6.317  41.861  10.409
51769W        W13190  13.138  33.921  10.018
51770W        W13191  27.019   0.419  13.857
51771W        W13192  17.265  30.614  14.373
51772W        W13193   0.821  29.583  14.821
51773W        W13194  25.962   5.766   1.255
51774W        W13195   2.357   9.180   4.690
51775W        W13196  16.574  29.513  10.958
51776W        W13197  40.046  17.081   0.296
51777W        W13198  33.595  39.461   1.230
51778W        W13199  35.033  38.844  12.541
51779W        W13200  12.279   9.296   2.719
51780W        W13201  39.335  38.411   0.382
51781W        W13202  38.882  29.149  10.024
51782W        W13203   5.321  18.174   2.799
51783W        W13204  30.426  13.729   3.870
51784W        W13205  37.461  33.991   4.336
51785W        W13206  29.602  25.676   2.183
51786W        W13207  11.719  40.517   1.284
51787W        W13208  15.811  37.977   5.293
51788W        W13209  37.470   1.265   1.229
51789W        W13210  33.891  43.429   4.702
51790W        W13211   1.937   5.339   1.216
51791W        W13212  19.744  21.228  10.636
51792W        W13213   2.278   6.771   0.257
51793W        W13214  26.677  21.122  12.502
51794W        W13215  24.994  21.159  11.968
51795W        W13216  11.764  14.235   2.899
51796W        W13217   2.373  29.544  14.895
51797W        W13218  43.771   1.826   2.368
51798W        W13219  19.257   7.872   3.276
51799W        W13220   1.392  24.547   9.928
51800W        W13221   2.419  22.691  10.470
51801W        W13222  12.175  21.524   3.657
51802W        W13223  16.714  28.461  11.586
51803W        W13224  43.413  31.981   2.270
51804W        W13225  34.985   8.894   0.435
51805W        W13226  33.513  26.677   4.771
51806W        W13227  38.428   9.345  12.523
51807W        W13228  16.667  25.023   1.819
51808W        W13229  38.043  37.931  11.554
51809W        W13230   9.244  27.071   2.894
51810W        W13231  29.024  29.092  12.975
51811W        W13232  17.576   8.307   4.256
51812W        W13233   3.749  22.014  13.016
51813W        W13234   5.793  17.146   3.730
51814W        W13235  11.738  41.391  12.485
51815W        W13236  35.534  16.178   4.739
51816W        W13237  28.582  19.723  12.376
51817W        W13238  42.507   4.351   4.150
51818W        W13239  25.578  14.683   4.206
51819W        W13240  39.458  36.483   3.252
51820W        W13241  32.461  19.751  12.056
51821W        W13242  31.107   6.729  10.576
51822W        W13243  14.751  44.896  10.561
51823W        W13244  34.001  29.445   1.845
51824W        W13245  33.915  39.914  14.421
51825W        W13246  21.650  29.970   0.936
51826W        W13247  42.009   3.872   1.695
51827W        W13248  22.047  40.320   2.737
51828W        W13249   4.774  31.976  11.479
51829W        W13250  13.262  19.584   9.923
51830W        W13251  42.419  44.290   3.698
51831W        W13252  44.793  10.259  10.535
51832W        W13253  35.908  36.501  14.513
51833W        W13254  25.549  38.518  11.475
51834W        W13255  22.224  13.701   4.236
51835W        W13256   8.825  40.042  14.964
51836W        W13257  40.365  14.812   0.744
51837W        W13258   7.206  41.346  11.949
51838W        W13259   1.959   9.167  14.385
51839W        W13260  16.643   1.287   0.332
51840W        W13261   9.199  29.628  12.462
51841W        W13262  10.278  17.729  12.541
51842W        W13263  40.324   2.774   0.807
51843W        W13264   8.199  34.045  14.470
51844W        W13265  29.556  41.026   1.701
51845W        W13266   3.343  24.051   3.229
51846W        W13267  32.113  41.369   3.808
51847W        W13268  42.516  20.643   1.850
51848W        W13269   4.447   5.305   2.698
51849W        W13270  43.916   0.256  13.320
51850W        W13271  13.350  21.602  11.452
51851W        W13272  43.483  32.516   1.404
51852W        W13273   7.828  37.007   2.387
51853W        W13274  25.596  36.978   0.747
51854W        W13275  17.558  30.507  10.028
51855W        W13276  20.642   8.253  12.041
51856W        W13277  25.475   7.685  11.606
51857W        W13278  39.529  12.735   3.636
51858W        W13279  23.112  22.662   4.300
51859W        W13280  36.021  28.115   0.351
51860W        W13281  31.042  28.629  10.968
51861W        W13282   4.806  38.894   4.246
51862W        W13283  32.924  26.018   4.292
51863W        W13284   4.912  39.448   3.351
51864W        W13285  15.770  10.847  13.870
51865W        W13286  24.712  29.116  11.899
51866W        W13287   1.382  15.118  14.274
51867W        W13288   5.738   8.892  12.835
51868W        W13289  27.153   6.879   1.740
51869W        W13290   1.296   1.369  14.363
51870W        W13291  37.461   5.877  12.557
51871W        W13292  10.163  26.582   0.807
51872W        W13293   6.712  31.557   3.768
51873W        W13294   4.919   8.691   4.793
51874W        W13295  44.982  20.159   0.810
51875W        W13296  14.161   8.832   2.194
51876W        W13297  34.493  35.921  14.917
51877W        W13298  29.165  13.120   2.799
51878W        W13299  30.136   9.857   1.251
51879W        W13300  28.562   7.831  14.782
51880W        W13301  40.808  15.645   3.835
51881W        W13302  42.904  13.645   3.735
51882W        W13303  39.390   7.355  12.453
51883W        W13304  16.149  27.487  14.457
51884W        W13305  44.412  27.521  12.367
51885W        W13306  24.137  34.953   1.342
51886W        W13307  42.366  16.261   4.197
51887W        W13308  38.057  25.616   3.811
51888W        W13309   9.313  21.225   4.687
51889W        W13310  37.868   0.321  11.597
51890W        W13311  39.954  44.352  13.806
51891W        W13312  37.442  15.665   4.655
51892W        W13313  18.688  22.584   9.924
51893W        W13314  17.282  35.921  11.554
51894W        W13315   9.721  40.863  13.968
51895W        W13316  34.473   9.828   3.222
51896W        W13317  43.007  22.581   0.286
51897W        W13318  39.438  15.119   2.370
51898W        W13319  35.469  43.342   0.798
51899W        W13320  17.731  34.588   3.383
51900W        W13321  27.012  10.209   5.312
51901W        W13322  12.186  40.333  10.935
51902W        W13323  13.288  11.778  14.963
51903W        W13324  38.024   8.234   4.621
51904W        W13325  23.159   3.354   0.342
51905W        W13326  39.811  17.612  12.515
51906W        W13327  15.181  16.735  11.855
51907W        W13328  18.557  31.484   1.779
51908W        W13329  42.386  18.756  13.928
51909W        W13330  26.527  21.260  14.338
51910W        W13331   9.773  38.036  10.015
51911W        W13332  20.698  30.092  14.451
51912W        W13333  40.443  26.007   3.855
51913W        W13334  22.529  16.131   3.837
51914W        W13335   9.351   1.753  11.458
51915W        W13336  28.179  34.075   1.783
51916W        W13337  16.092  18.203  14.888
51917W        W13338  43.415  33.411  14.980
51918W        W13339  17.135  16.248   1.377
51919W        W13340   7.704  20.590   3.772
51920W        W13341   4.890  19.203  14.968
51921W        W13342  35.521  35.502   3.371
51922W        W13343  33.559  39.385   3.708
51923W        W13344  14.192  33.084  12.431
51924W        W13345   4.845   7.195   5.233
51925W        W13346  22.505   9.198   5.251
51926W        W13347  25.120  27.122   3.774
51927W        W13348   8.750   4.392  10.987
51928W        W13349  25.651   3.401  14.463
51929W        W13350  31.575  27.043  11.436
51930W        W13351   7.385   2.429   4.335
51931W        W13352  37.369  31.432   1.901
51932W        W13353   8.241  15.602  12.942
51933W        W13354  16.593  24.561   1.394
51934W        W13355   1.933   4.889   2.887
51935W        W13356  12.692  25.563  10.597
51936W        W13357   1.935  35.876  10.528
51937W        W13358  21.741   3.365  11.556
51938W        W13359   2.774  41.890   4.265
51939W        W13360  43.971  10.636   3.693
51940W        W13361  32.044  35.425  13.374
51941W        W13362  38.825  21.055  11.547
51942W        W13363  27.074  32.034  13.876
51943W        W13364  23.205  44.322  10.898
51944W        W13365  24.032  22.122  10.411
51945W        W13366  22.109  26.544  14.487
51946W        W13367   8.780  34.542   0.849
51947W        W13368  13.260  37.377  14.456
51948W        W13369   1.862  27.950   4.313
51949W        W13370  34.899  35.430  10.413
51950W        W13371  27.607   9.789   0.244
51951W        W13372   3.369  40.855   2.903
51952W        W13373  16.123  35.367   2.871
51953W        W13374  15.306  19.675   0.383
51954W        W13375   8.359   1.443   4.600
51955W        W13376  29.119  15.732  12.834
51956W        W13377   7.303  26.478   0.861
51957W        W13378  32.063  20.606   3.851
51958W        W13379  41.535   0.770   2.807
51959W        W13380  36.026   3.837  14.808
51960W        W13381  21.082  12.821   5.221
51961W        W13382  30.120   1.251  12.907
51962W        W13383  19.632  24.054   3.318
51963W        W13384   8.851  11.188   0.887
51964W        W13385  11.643  31.435  12.883
51965W        W13386  44.362  31.013  10.065
51966W        W13387  11.209  42.467  10.910
51967W        W13388  32.457  41.303   4.347
51968W        W13389  14.111  13.324  12.085
51969W        W13390  12.309  35.859  14.827
51970W        W13391  41.453   1.343   3.292
51971W        W13392  38.966  22.530   4.271
51972W        W13393  26.190  34.462  14.932
51973W        W13394   7.382  14.683   3.643
51974W        W13395  44.418  40.883  14.931
51975W        W13396  25.582  18.554  14.942
51976W        W13397  42.016  41.365  13.339
51977W        W13398  15.588  40.338   4.174
51978W        W13399  20.540  11.683   2.717
51979W        W13400  38.946  10.240   1.348
51980W        W13401  38.002  39.436   1.837
51981W        W13402  42.517  11.177   5.099
51982W        W13403  13.307  22.067   0.480
51983W        W13404  34.982  17.171  13.041
51984W        W13405  33.381  12.685   2.195
51985W        W13406  34.540  16.710   2.347
51986W        W13407   0.333  34.558   4.235
51987W        W13408  32.532  23.033  13.982
51988W        W13409  30.994  15.647   0.288
51989W        W13410  36.943  12.643   0.781
51990W        W13411  17.632  12.248  14.428
51991W        W13412   9.362  15.260  10.569
51992W        W13413  29.623  43.361   1.255
51993W        W13414  35.444   4.719  13.909
51994W        W13415  25.604  38.353   1.758
51995W        W13416  14.729  24.029   0.291
51996W        W13417  28.475   0.291  13.383
51997W        W13418  37.956   0.438  14.961
51998W        W13419   2.787  28.989  12.052
51999W        W13420   6.374  19.736  13.041
52000W        W13421  34.509  44.442  12.465
52001W        W13422  28.492   9.177   4.768
52002W        W13423  17.640  18.631   4.204
52003W        W13424  11.364  28.174   4.709
52004W        W13425  23.144  41.792   3.344
52005W        W13426   2.887   4.299   2.279
52006W        W13427  22.564  29.476  13.539
52007W        W13428  30.983  21.598  13.538
52008W        W13429  33.050  10.751  12.345
52009W        W13430   5.429  22.569   2.886
52010W        W13431  18.734   7.370   4.132
52011W        W13432  23.195  10.791  13.946
52012W        W13433   8.875  40.922   4.806
52013W        W13434  19.547  19.625  12.502
52014W        W13435  32.958  44.782   3.334
52015W        W13436  28.125  33.542  12.526
52016W        W13437  26.578   5.843  10.160
52017W        W13438   8.317  40.943  13.530
52018W        W13439  27.164   8.250   4.154
52019W        W13440  16.732  18.085   3.794
52020W        W13441  12.650  22.062   4.686
52021W        W13442   2.351  37.366   5.251
52022W        W13443   3.276   0.948   4.281
52023W        W13444  13.336   1.922   0.297
52024W        W13445  21.651  23.002   0.376
52025W        W13446  42.881  16.178  12.965
52026W        W13447   2.424  31.091  14.412
52027W        W13448  41.016  27.130  11.588
52028W        W13449  12.174   4.922  12.454
52029W        W13450  39.528  13.829   3.666
52030W        W13451  32.596  23.504  10.444
52031W        W13452  23.052  44.948   2.220
52032W        W13453  24.681   2.245  14.324
52033W        W13454  44.340  20.688   0.391
52034W        W13455  11.225  23.984  13.526
52035W        W13456  15.272  34.939   4.158
52036W        W13457   6.678  27.592   2.274
52037W        W13458  32.891   8.224  12.498
52038W        W13459  40.373  12.667  12.474
52039W        W13460  21.738  13.813   5.321
52040W        W13461  19.136   8.224  11.549
52041W        W13462   5.394  33.964   3.211
52042W        W13463  36.501  21.135  14.969
52043W        W13464   0.452   9.760   4.800
52044W        W13465  37.426  21.674   2.299
52045W        W13466   4.248  19.043   2.376
52046W        W13467  10.362  19.699  12.551
52047W        W13468   0.945   7.828  11.056
52048W        W13469  44.494  14.305   4.800
52049W        W13470  25.207  10.715   2.729
52050W        W13471  26.580   0.392   3.831
52051W        W13472  27.026  29.530  13.972
52052W        W13473  41.405  16.109  14.324
52053W        W13474  28.138  28.667   2.797
52054W        W13475  24.115  37.568  14.475
52055W        W13476  36.544  27.081   1.298
52056W        W13477  39.409  12.740   5.088
52057W        W13478  20.710  44.800   0.380
52058W        W13479  32.441   0.407   2.227
52059W        W13480  32.584  41.295  13.543
52060W        W13481  32.506  42.829   4.748
52061W        W13482  12.229  26.654  12.037
52062W        W13483  33.382  22.651  12.559
52063W        W13484  22.144   3.725   5.298
52064W        W13485   6.701  13.278   1.876
52065W        W13486  12.714  33.044   1.370
52066W        W13487  18.586  39.950  13.919
52067W        W13488  39.523  25.041  14.787
52068W        W13489  33.393  20.583  12.559
52069W        W13490  41.823  35.458  14.974
52070W        W13491   1.868  41.879  11.455
52071W        W13492  16.232  32.604   5.139
52072W        W13493  32.915  33.498   1.243
52073W        W13494  44.932  19.082  12.926
52074W        W13495   7.277  30.159   0.887
52075W        W13496  42.498  36.862  13.340
52076W        W13497   2.929   5.247   1.826
52077W        W13498  10.713   5.199  13.376
52078W        W13499  18.277   0.439   1.371
52079W        W13500  23.127   2.228   3.700
52080W        W13501  13.273  34.395   1.856
52081W        W13502  14.251  44.328   4.600
52082W        W13503  20.694  33.455   1.774
52083W        W13504  20.085   2.255  14.830
52084W        W13505   3.239  20.155  12.351
52085W        W13506  16.616  10.248  12.906
52086W        W13507  18.204  32.585   0.473
52087W        W13508  23.108   1.794   3.851
52088W        W13509   5.433  17.255  12.077
52089W        W13510   8.824  29.931   1.296
52090W        W13511  32.009  15.122  11.418
52091W        W13512  15.586  40.874   0.403
52092W        W13513  42.303  27.184  14.280
52093W        W13514  35.875  15.630  11.490
52094W        W13515  23.993  25.152  13.462
52095W        W13516  27.635  12.280  12.528
52096W        W13517   6.677  18.633  12.952
52097W        W13518  31.091  38.855  10.159
52098W        W13519  35.418  11.634   3.271
52099W        W13520  14.192  15.107   4.693
52100W        W13521  39.008  26.099   2.188
52101W        W13522  23.593   6.683   3.289
52102W        W13523   1.930   2.387   1.744
52103W        W13524  33.034  23.647   4.286
52104W        W13525   2.736  38.340   3.385
52105W        W13526  18.292  40.423  13.918
52106W        W13527  20.526   0.794   3.158
52107W        W13528  12.846   6.310  12.091
52108W        W13529  15.189  16.162   1.409
52109W        W13530   0.324  44.412  13.426
52110W        W13531  19.096  13.127  10.639
52111W        W13532  32.400   4.930   2.832
52112W        W13533   0.393   9.674   0.338
52113W        W13534   7.396  32.453   0.419
52114W        W13535  42.872  14.097  14.334
52115W        W13536   2.908  11.822  13.805
52116W        W13537  14.801  26.978   3.378
52117W        W13538  44.000  26.071   1.214
52118W        W13539  20.209  20.590  11.609
52119W        W13540  28.582   6.209  13.331
52120W        W13541  19.628  15.634  11.386
52121W        W13542   4.743  33.881  12.838
52122W        W13543  11.249   6.341   3.288
52123W        W13544   2.902  18.714   1.355
52124W        W13545   1.359  28.602   3.711
52125W        W13546  19.683  39.912  14.482
52126W        W13547   0.788  38.918   2.189
52127W        W13548  10.830   6.201   9.973
52128W        W13549  32.536  15.811  13.423
52129W        W13550  14.760  26.171   4.732
52130W        W13551  27.661  41.513   4.820
52131W        W13552   1.375  37.582  14.425
52132W        W13553  37.503  44.791  13.314
52133W        W13554   4.721  15.191   0.394
52134W        W13555  12.634  13.176   3.281
52135W        W13556  25.030  26.535  12.904
52136W        W13557  43.861  28.498  10.960
52137W        W13558  11.231   3.441   2.321
52138W        W13559  36.460  13.158  13.019
52139W        W13560   0.396  25.049   4.760
52140W        W13561   2.758  12.717  13.919
52141W        W13562  25.994  43.406  13.838
52142W        W13563  42.512  35.401   3.214
52143W        W13564  31.979  25.471  13.409
52144W        W13565  20.594  31.119  11.969
52145W        W13566  33.446  29.164  13.442
52146W        W13567  35.397   8.729  13.939
52147W        W13568  12.838   3.303   1.759
52148W        W13569   2.302   6.188  12.564
52149W        W13570  12.266   8.278  10.493
52150W        W13571  40.535  22.035  14.780
52151W        W13572  29.553  27.515  13.839
52152W        W13573  16.272  10.659   4.658
52153W        W13574  27.458   2.867  11.417
52154W        W13575   5.880  27.177  10.912
52155W        W13576  18.062   4.894  14.289
52156W        W13577   8.726  26.529   5.320
52157W        W13578  27.154  23.009  11.897
52158W        W13579  31.131  38.819   2.354
52159W        W13580   8.220  11.352  11.421
52160W        W13581  41.843  30.983   1.383
52161W        W13582  12.191  44.955   4.233
52162W        W13583  39.867   2.954  10.497
52163W        W13584  17.244  39.498   4.276
52164W        W13585  31.464  13.761  14.484
52165W        W13586  29.635  23.579   2.730
52166W        W13587   4.730  17.605   1.833
52167W        W13588  15.166   8.223  13.472
52168W        W13589  31.091   1.966  14.954
52169W        W13590   7.910  43.488   2.835
52170W        W13591  17.282  13.154   2.864
52171W        W13592  28.454  15.128   0.876
52172W        W13593   7.183   5.211  11.590
52173W        W13594  31.958   5.328  14.277
52174W        W13595  21.653  42.449  13.500
52175W        W13596   5.715  21.052   0.377
52176W        W13597   6.274   1.260   3.707
52177W        W13598  37.412  42.397  14.402
52178W        W13599  31.126  38.992   0.435
52179W        W13600  43.828   9.340  12.570
52180W        W13601  10.760  17.628   4.773
52181W        W13602  36.383  12.232   2.281
52182W        W13603  22.598  40.428   1.350
52183W        W13604  30.975  37.424   3.629
52184W        W13605  10.739  10.634   4.654
52185W        W13606  24.010  16.290   0.796
52186W        W13607   1.249  26.031  11.040
52187W        W13608  15.590  13.158   4.634
52188W        W13609  43.400   3.943  12.938
52189W        W13610  30.052  31.577  12.971
52190W        W13611  39.864  23.205   3.830
52191W        W13612  38.457   7.887  13.389
52192W        W13613   0.971  39.362  11.465
52193W        W13614  33.089   1.298  10.900
52194W        W13615  20.668  22.080   4.133
52195W        W13616  17.082   4.784   3.217
52196W        W13617  21.642  25.052  12.428
52197W        W13618   6.186   5.926   3.193
52198W        W13619  35.419   4.753   4.250
52199W        W13620  40.834  10.695   5.566
52200W        W13621  16.296  39.980  12.014
52201W        W13622  30.058   7.730   2.666
52202W        W13623  22.231  25.007   3.168
52203W        W13624  36.498   4.414  12.050
52204W        W13625  24.094  30.932   2.282
52205W        W13626  17.252  34.383   1.774
52206W        W13627  23.238  25.578  14.294
52207W        W13628  31.940  27.611   1.903
52208W        W13629  35.453  29.131  12.487
52209W        W13630  37.844  34.486  14.914
52210W        W13631  12.170  33.955   3.332
52211W        W13632  25.689  43.355   3.863
52212W        W13633  25.563  33.573  14.826
52213W        W13634  20.185  26.517  10.048
52214W        W13635  20.144  39.333  13.527
52215W        W13636  31.910  11.719  12.954
52216W        W13637  40.963  23.191  13.444
52217W        W13638  23.112  43.915   0.891
52218W        W13639   3.328   5.752  13.341
52219W        W13640  18.124  30.545   0.479
52220W        W13641  39.942  22.681  14.345
52221W        W13642  43.796  19.083  13.451
52222W        W13643  40.812  36.059  10.942
52223W        W13644  29.596  27.547  14.471
52224W        W13645   2.829  30.446  10.890
52225W        W13646  43.336  23.735   2.301
52226W        W13647   9.687  27.472  12.362
52227W        W13648   3.273  11.184  12.370
52228W        W13649   1.906  22.531   1.862
52229W        W13650   4.721  27.151  11.384
52230W        W13651  18.246  19.627  12.498
52231W        W13652  29.491  10.273  10.052
52232W        W13653  30.594  23.729   3.384
52233W        W13654  16.782  41.301   2.740
52234W        W13655   6.861  25.016   2.269
52235W        W13656  22.157   1.240   3.849
52236W        W13657  15.606   3.434  13.332
52237W        W13658   9.166  38.833  14.414
52238W        W13659  14.282  20.217  11.925
52239W        W13660   2.390  19.091   0.308
52240W        W13661  15.274  13.779  13.060
52241W        W13662  30.521  40.546  14.421
52242W        W13663  26.525  18.584   5.267
52243W        W13664  16.127   3.883   4.634
52244W        W13665  30.037  35.962   2.324
52245W        W13666   4.333  12.281  12.953
52246W        W13667  35.580  44.301  10.998
52247W        W13668  11.180   2.358  14.297
52248W        W13669  26.647  40.329   1.342
52249W        W13670  36.513  19.716  14.393
52250W        W13671   9.210   0.399   0.311
52251W        W13672  18.187  18.168  12.831
52252W        W13673  34.425  42.526   3.202
52253W        W13674  16.736  37.035   1.731
52254W        W13675  11.141  30.022  11.384
52255W        W13676  24.494  43.897   3.857
52256W        W13677  39.925  15.328  13.000
52257W        W13678  16.103  33.953  14.311
52258W        W13679  22.020  44.465  12.990
52259W        W13680  33.039   7.838   2.708
52260W        W13681  13.748  14.745  11.099
52261W        W13682  28.998  41.828   3.368
52262W        W13683  19.680  24.719  11.993
52263W        W13684  24.051  16.226  13.803
52264W        W13685  39.504  21.135   3.702
52265W        W13686  14.744  38.040  10.562
52266W        W13687  43.294  26.493   4.802
52267W        W13688  33.598  12.694  13.995
52268W        W13689  10.208  31.512   1.227
52269W        W13690   9.202  33.009   4.605
52270W        W13691  16.626  24.982  12.373
52271W        W13692  31.005  12.234   0.910
52272W        W13693  37.064  44.967  10.505
52273W        W13694   0.909  27.032   4.762
52274W        W13695  35.552  32.947  12.824
52275W        W13696  34.887  16.602   0.931
52276W        W13697  23.011  17.644  14.920
52277W        W13698  30.519  22.226   2.695
52278W        W13699  34.398  44.874  10.617
52279W        W13700  32.466  19.777  12.825
52280W        W13701  40.535   2.302  14.372
52281W        W13702   5.887  42.368   3.704
52282W        W13703  29.430  21.112   3.820
52283W        W13704  38.824  26.695  13.915
52284W        W13705  29.058  11.133  13.890
52285W        W13706   8.281  40.427  11.432
52286W        W13707  15.823  30.954  14.468
52287W        W13708   8.180  13.730  10.489
52288W        W13709  27.598  20.755   3.386
52289W        W13710   7.886   9.247  10.958
52290W        W13711  41.404  23.104  13.890
52291W        W13712  31.977   7.175  10.898
52292W        W13713  44.863  30.012  13.377
52293W        W13714   2.367  31.027  12.486
52294W        W13715  31.077  42.795   2.192
52295W        W13716  27.588  28.481   0.961
52296W        W13717  12.320  38.828   2.360
52297W        W13718  19.631   5.842   1.855
52298W        W13719  21.180  44.912   2.736
52299W        W13720  30.527  20.184  10.545
52300W        W13721  25.497   4.837   3.687
52301W        W13722   6.750   2.265  11.517
52302W        W13723  10.641  16.091   2.741
52303W        W13724   0.331  36.446  13.482
52304W        W13725  11.132  17.583   0.440
52305W        W13726  23.495  22.199  13.537
52306W        W13727   3.773  22.197  11.375
52307W        W13728  12.209  19.674  13.352
52308W        W13729  35.962  19.175  13.522
52309W        W13730  10.686  31.539  13.327
52310W        W13731  34.538  15.251   3.184
52311W        W13732  16.130  30.107  11.121
52312W        W13733  31.001  25.149  13.848
52313W        W13734  33.004  30.161   0.958
52314W        W13735  33.507  15.192   5.191
52315W        W13736  41.956   1.807  12.976
52316W        W13737   2.334  42.851  11.380
52317W        W13738  18.583  10.841   2.392
52318W        W13739  18.753  31.501   3.161
52319W        W13740  25.611  37.022   3.780
52320W        W13741  19.648  27.457   4.661
52321W        W13742  41.949  13.768   1.392
52322W        W13743  11.805   7.822  11.502
52323W        W13744  18.666   7.784  11.475
52324W        W13745   5.871  41.331   1.847
52325W        W13746  10.743  35.567   1.310
52326W        W13747  21.120  39.869  14.450
52327W        W13748  23.614  31.128   0.386
52328W        W13749  15.089  32.086  11.002
52329W        W13750  31.073  18.230   0.839
52330W        W13751   6.913  30.021  13.019
52331W        W13752  30.987   3.453  10.456
52332W        W13753   3.870   6.706  13.001
52333W        W13754   4.761   4.917  11.374
52334W        W13755  15.135  15.288   4.711
52335W        W13756  10.260   6.242  13.830
52336W        W13757  12.705  13.277  13.975
52337W        W13758   8.893  25.524   1.906
52338W        W13759  25.560  27.064   1.917
52339W        W13760  31.905  30.944  14.788
52340W        W13761  13.187  12.854   4.180
52341W        W13762  20.046  17.181   5.204
52342W        W13763  43.834   4.296  13.517
52343W        W13764  23.026  32.996   0.268
52344W        W13765  35.105  18.168  12.347
52345W        W13766   5.714  10.771  14.293
52346W        W13767  36.574  16.646  11.556
52347W        W13768  16.203  31.074   1.363
52348W        W13769  11.352   7.731   0.871
52349W        W13770   6.425  12.630   0.256
52350W        W13771  39.009  44.441   3.731
52351W        W13772  18.609  24.181  14.455
52352W        W13773  35.908  41.790  11.880
52353W        W13774  10.858  41.310   4.676
52354W        W13775  11.160  22.707  11.919
52355W        W13776  29.485   5.769   1.397
52356W        W13777  19.642  27.131  11.036
52357W        W13778   3.438  26.635  11.014
52358W        W13779   7.378  27.460  14.772
52359W        W13780  23.087   2.832   0.325
52360W        W13781  36.963  11.225   4.777
52361W        W13782  34.431  23.505   2.763
52362W        W13783  15.796  16.233   4.300
52363W        W13784  16.654  18.269  12.086
52364W        W13785  15.597  33.605  13.421
52365W        W13786  41.384  10.838   4.807
52366W        W13787  22.502  12.758   4.220
52367W        W13788  42.457  42.522   4.616
52368W        W13789  28.611  11.844   2.806
52369W        W13790  16.803   4.335   4.798
52370W        W13791   6.337  30.966  10.419
52371W        W13792  37.968  39.559  11.902
52372W        W13793  29.589  36.494   4.325
52373W        W13794  42.861  23.674   3.300
52374W        W13795   8.810  23.652   1.304
52375W        W13796  15.084   1.897  10.607
52376W        W13797  38.497  40.390   4.623
52377W        W13798  26.549  37.045   0.811
52378W        W13799   9.692  38.840   2.679
52379W        W13800  16.752   5.819  14.978
52380W        W13801  25.170  20.160   3.769
52381W        W13802  27.104   4.809  12.016
52382W        W13803   9.887  41.023   1.766
52383W        W13804  14.132  28.959  13.949
52384W        W13805  37.579   9.693   3.869
52385W        W13806  16.239  41.344  12.017
52386W        W13807  31.134   8.890   1.894
52387W        W13808  27.149  19.209   1.248
52388W        W13809  11.642  34.466  14.275
52389W        W13810  30.596  33.107  13.814
52390W        W13811  16.753  36.031  11.954
52391W        W13812   2.957   1.957  13.504
52392W        W13813   6.693  24.171   3.253
52393W        W13814  33.563  14.242  10.406
52394W        W13815  14.111   3.875  11.487
52395W        W13816   6.247  24.111   1.281
52396W        W13817  16.668  10.860   1.380
52397W        W13818  16.097   2.839   0.785
52398W        W13819   9.690   1.296  14.469
52399W        W13820  30.412  21.221  14.836
52400W        W13821  28.072  12.354  13.973
52401W        W13822  18.646   4.349   3.250
52402W        W13823  37.452  30.907  12.474
52403W        W13824  35.047  27.076   3.299
52404W        W13825   6.213  23.627   0.341
52405W        W13826  28.626  39.516  14.771
52406W        W13827  26.194  12.216  10.537
52407W        W13828  20.730  22.194  14.501
52408W        W13829  36.062  36.016   0.366
52409W        W13830  28.581  25.586  13.957
52410W        W13831   4.720  21.028   0.380
52411W        W13832   9.679  11.828  11.060
52412W        W13833  32.415  38.544  13.886
52413W        W13834  15.316  25.074   2.194
52414W        W13835  28.582   5.324  13.484
52415W        W13836   7.296  21.655   0.469
52416W        W13837  33.107  26.603   4.353
52417W        W13838   2.237  36.589   0.324
52418W        W13839  42.522  23.126   4.141
52419W        W13840   5.321   8.658  10.534
52420W        W13841   7.196  40.954  11.453
52421W        W13842  23.214  42.885   2.662
52422W        W13843  36.887  27.091  11.596
52423W        W13844  38.913  18.221   1.234
52424W        W13845  41.376  25.039   3.304
52425W        W13846   4.902  17.171  14.895
52426W        W13847  24.082  20.081  12.911
52427W        W13848  37.910  19.068   3.666
52428W        W13849  15.704  15.675   5.252
52429W        W13850  43.470  43.344   4.131
52430W        W13851  39.522  38.422   4.771
52431W        W13852   1.440   8.817  11.973
52432W        W13853  38.874  30.535  10.605
52433W        W13854   3.772   9.232   0.788
52434W        W13855  14.649  26.090  14.490
52435W        W13856   4.423   6.755   0.385
52436W        W13857  37.550  18.711   1.888
52437W        W13858  12.854   3.806   2.232
52438W        W13859  13.162  19.744  14.374
52439W        W13860  41.947  29.957   0.476
52440W        W13861  33.951  16.657   3.697
52441W        W13862   1.275  22.038   1.216
52442W        W13863  23.595  13.281  10.417
52443W        W13864  26.536  24.043  11.452
52444W        W13865  14.147  10.384   3.297
52445W        W13866  21.205   4.328   2.392
52446W        W13867  23.597  10.878   0.459
52447W        W13868  20.205  16.582   4.743
52448W        W13869  29.534   6.285  10.633
52449W        W13870  43.515  28.964  11.008
52450W        W13871  42.830  37.577  10.433
52451W        W13872  41.929  10.148   1.884
52452W        W13873  43.952   6.318   1.786
52453W        W13874  34.980  13.712   1.908
52454W        W13875   3.912  39.901   4.163
52455W        W13876   1.938  21.756   4.639
52456W        W13877  43.929  21.165  11.405
52457W        W13878  33.531  21.633  13.473
52458W        W13879  10.358  36.360   4.246
52459W        W13880  21.067   3.828  10.427
52460W        W13881  44.856  36.079   0.911
52461W        W13882  28.654  32.446  10.943
52462W        W13883  18.181  44.806  12.954
52463W        W13884  35.981  40.987  13.993
52464W        W13885  29.649   4.844   1.763
52465W        W13886  20.153  25.039   1.414
52466W        W13887  31.082  18.268  12.559
52467W        W13888  12.731   6.387  11.070
52468W        W13889   7.874  21.216  14.942
52469W        W13890  20.675   9.355   2.384
52470W        W13891  22.522  15.244   2.296
52471W        W13892  22.211   1.808   4.337
52472W        W13893  44.263  17.780   4.683
52473W        W13894  30.036  29.579  11.088
52474W        W13895  32.951  44.808   3.739
52475W        W13896  40.360  24.143   4.250
52476W        W13897  27.005  11.270  10.426
52477W        W13898  42.957  18.563  11.005
52478W        W13899  40.372   2.747  14.491
52479W        W13900  33.563  36.058  11.385
52480W        W13901  41.939   2.335  11.980
52481W        W13902  13.641  11.767   4.126
52482W        W13903  15.701  41.982  13.382
52483W        W13904   9.779   1.307  13.507
52484W        W13905  28.658  13.204   1.873
52485W        W13906  11.755  29.982  10.639
52486W        W13907  13.251  41.352   2.775
52487W        W13908  20.274  25.711  12.394
52488W        W13909  17.066  26.499   3.187
52489W        W13910   3.731  29.167   1.316
52490W        W13911  36.000   9.757  13.322
52491W        W13912  19.155   1.859  13.346
52492W        W13913  25.545  27.531   3.312
52493W        W13914  44.972   0.267   1.931
52494W        W13915  43.912   4.210  10.609
52495W        W13916  25.178   9.334   4.709
52496W        W13917  18.696  20.222   4.735
52497W        W13918  26.467  28.629   1.885
52498W        W13919  25.532  33.959   0.824
52499W        W13920  12.354  32.093   5.123
52500W        W13921   8.744  33.976   3.731
52501W        W13922   5.850   4.869   2.777
52502W        W13923  27.972  42.502   2.870
52503W        W13924  19.081  19.587   0.794
52504W        W13925  37.432  21.656  11.546
52505W        W13926  10.812  21.155   1.378
52506W        W13927  39.518  24.216  14.947
52507W        W13928  40.932   4.797  14.463
52508W        W13929  27.126  13.703  13.920
52509W        W13930  27.979  26.645  11.861
52510W        W13931  30.040  27.975   1.266
52511W        W13932   4.834  13.774  11.409
52512W        W13933  33.559  44.483  13.813
52513W        W13934  32.621  19.551   1.313
52514W        W13935  13.616  36.924   3.231
52515W        W13936  31.101  38.392   4.120
52516W        W13937  41.912  11.639   1.349
52517W        W13938  12.796  17.607  12.874
52518W        W13939  39.352  36.375  12.094
52519W        W13940  19.045  30.133   0.298
52520W        W13941  28.002  44.756   3.736
52521W        W13942  36.443  22.174   3.241
52522W        W13943  12.763  24.624   2.789
52523W        W13944   8.369  13.138  14.360
52524W        W13945  35.450   1.308  10.960
52525W        W13946  27.639  17.605  14.445
52526W        W13947  37.356  12.168   4.286
52527W        W13948  33.117   9.315   4.182
52528W        W13949  35.491   8.341  12.510
52529W        W13950  35.875  26.633   2.361
52530W        W13951  43.280   2.261  12.541
52531W        W13952  13.829   7.410  12.574
52532W        W13953  28.498   8.657  12.462
52533W        W13954  32.414   3.731   1.720
52534W        W13955  43.495  32.891  10.571
52535W        W13956  13.776   9.753   4.122
52536W        W13957  24.989  28.659  13.812
52537W        W13958  44.483   6.407  11.023
52538W        W13959  36.371  27.009  12.903
52539W        W13960  44.889  41.894   3.787
52540W        W13961  40.411  14.294  12.049
52541W        W13962  43.480  14.206   1.851
52542W        W13963   9.311  22.018  12.946
52543W        W13964  41.886  23.689  12.983
52544W        W13965  40.510  23.093   2.203
52545W        W13966  24.163  12.805   1.429
52546W        W13967  23.039  13.270  11.992
52547W        W13968  17.791  25.979   1.281
52548W        W13969  10.332   4.825   4.266
52549W        W13970  23.531  44.843   4.278
52550W        W13971  15.655   6.403  10.905
52551W        W13972   9.191  34.079   4.614
52552W        W13973  28.499  20.250   1.699
52553W        W13974  21.085  33.533  13.998
52554W        W13975  20.265  36.923  14.869
52555W        W13976  14.830   5.202  11.103
52556W        W13977  20.623  43.823  14.830
52557W        W13978  39.897   7.245  14.418
52558W        W13979  38.494  36.916  14.759
52559W        W13980   2.375  33.508   1.774
52560W        W13981  27.097  25.201   4.661
52561W        W13982   1.443  43.479   3.828
52562W        W13983  36.083  42.829  10.485
52563W        W13984  18.731  28.519   4.812
52564W        W13985  18.155   1.757   1.714
52565W        W13986  16.207   9.820   3.261
52566W        W13987  11.163   0.484  14.363
52567W        W13988   5.839  13.798  11.509
52568W        W13989  39.458  44.778  10.967
52569W        W13990   4.362  31.514  10.947
52570W        W13991  30.452  10.715   3.371
52571W        W13992  10.258  41.329   1.788
52572W        W13993  10.794  17.069   0.290
52573W        W13994  20.123  13.627   1.234
52574W        W13995   6.785  20.558  10.594
52575W        W13996  29.102  20.090   0.747
52576W        W13997  39.031   0.947  12.921
52577W        W13998  35.083   8.274   1.227
52578W        W13999   2.433   1.315   0.907
52579W        W14000  11.856  35.872   2.864
52580W        W14001  20.081   4.916   3.283
52581W        W14002  16.582  30.590  12.531
52582W        W14003  26.588  38.443  11.105
52583W        W14004  15.787  31.490   2.767
52584W        W14005   7.865  39.523  14.985
52585W        W14006  30.500   0.393   1.755
52586W        W14007  39.380   9.759  14.494
52587W        W14008  27.576  23.098  10.970
52588W        W14009  23.240  12.281   4.284
52589W        W14010   5.288  38.460  13.422
52590W        W14011  17.734  28.666   4.202
52591W        W14012  36.510  42.843   2.881
52592W        W14013  14.725  19.764  14.923
52593W        W14014  16.668  31.562   1.366
52594W        W14015   2.852  22.244  14.859
52595W        W14016  13.211   5.728  12.852
52596W        W14017  43.291   2.904  11.455
52597W        W14018  11.362  39.002  13.419
52598W        W14019  20.141   0.971   2.710
52599W        W14020  10.154   7.258   3.289
52600W        W14021  44.821  24.128  10.638
52601W        W14022  15.308  29.588   1.872
52602W        W14023   9.307  18.694   0.247
52603W        W14024  21.158  24.978  10.467
52604W        W14025   6.810  33.467  13.386
52605W        W14026  44.359  23.031  11.860
52606W        W14027   1.284  12.150   2.210
52607W        W14028   8.233  34.966   3.734
52608W        W14029  10.657  17.657  11.860
52609W        W14030   7.378   9.237   3.662
52610W        W14031   7.705  30.601  14.779
52611W        W14032   3.422  34.962   3.374
52612W        W14033   8.307  23.582  13.005
52613W        W14034   7.799   7.308   4.213
52614W        W14035  37.553   3.258   2.742
52615W        W14036  24.111  41.299  10.906
52616W        W14037  19.173  21.606   1.922
52617W        W14038  43.986  17.141  12.872
52618W        W14039  36.900  26.964  12.378
52619W        W14040  34.103  21.699  13.983
52620W        W14041  34.438  16.155  14.296
52621W        W14042   5.438  11.708   1.766
52622W        W14043  41.390  19.047   3.174
52623W        W14044   2.805   1.396   2.300
52624W        W14045  36.471  10.774  14.494
52625W        W14046  11.235  14.810  11.976
52626W        W14047  18.090  28.557  12.880
52627W        W14048  20.083  15.255  14.014
52628W        W14049   6.207  41.976  13.840
52629W        W14050  34.041  10.692  13.412
52630W        W14051  12.682  18.690   2.868
52631W        W14052   2.462  24.710   1.908
52632W        W14053   1.336  37.380   2.754
52633W        W14054  23.672  39.048  11.478
52634W        W14055  21.185  41.372  13.533
52635W        W14056   1.346  44.769  13.983
52636W        W14057  12.627  43.501   4.151
52637W        W14058   4.282  16.611  12.398
52638W        W14059  23.541  44.960  11.109
52639W        W14060  16.759  25.694   1.296
52640W        W14061  40.995  15.714   5.253
52641W        W14062   1.846  24.148  12.854
52642W        W14063  30.985  30.088  12.897
52643W        W14064  38.073  23.496   4.732
52644W        W14065   2.249  21.033   3.859
52645W        W14066   7.241  32.002  11.944
52646W        W14067  32.470  14.608  13.888
52647W        W14068  38.072  15.801  11.062
52648W        W14069  33.126  13.105   1.712
52649W        W14070  43.351  40.467  12.034
52650W        W14071  19.101  28.595   3.697
52651W        W14072   3.285  20.220   0.862
52652W        W14073  11.331  34.388   2.226
52653W        W14074  44.261   8.316  12.516
52654W        W14075  35.408  16.120  13.493
52655W        W14076  29.580  11.286   1.324
52656W        W14077  21.520  24.094   1.380
52657W        W14078  35.508  33.419  10.517
52658W        W14079  23.140  11.629   0.451
52659W        W14080  20.758   1.820   4.748
52660W        W14081  44.302   8.877  13.376
52661W        W14082  10.803  38.020  13.859
52662W        W14083  21.597  14.680  11.400
52663W        W14084  37.991   0.415   4.832
52664W        W14085   4.847  17.729   0.754
52665W        W14086  43.783  39.905  11.077
52666W        W14087  42.822  17.614  10.483
52667W        W14088  44.796  12.222   0.921
52668W        W14089  11.169  37.905   9.581
52669W        W14090   0.325   5.439  12.562
52670W        W14091  19.118  17.797  11.411
52671W        W14092  37.856  23.698   3.756
52672W        W14093  31.647  24.621  13.010
52673W        W14094  21.254  26.599   0.278
52674W        W14095   4.370   9.735  11.124
52675W        W14096  15.148  21.730   3.714
52676W        W14097   1.764  15.740  10.425
52677W        W14098  22.502  38.387   1.294
52678W        W14099  16.195  29.564  11.557
52679W        W14100  22.080  13.338   0.409
52680W        W14101  31.402  12.345   0.909
52681W        W14102  26.203  24.722  12.431
52682W        W14103  38.381   2.420  14.306
52683W        W14104  29.632  15.162   3.156
52684W        W14105  19.727  29.595   4.769
52685W        W14106  44.491  35.389  12.503
52686W        W14107  14.825  14.646   3.797
52687W        W14108  38.410  19.076   2.238
52688W        W14109  21.663  28.507  14.028
52689W        W14110  13.217  23.212  11.932
52690W        W14111   7.852   5.715  12.936
52691W        W14112  27.957  25.113   0.949
52692W        W14113   1.463  21.705  12.534
52693W        W14114  31.963   3.733  11.372
52694W        W14115  15.617  42.407   4.221
52695W        W14116   5.869  20.574   0.788
52696W        W14117  37.975  29.606   0.868
52697W        W14118  31.091  28.944   4.335
52698W        W14119  24.669   1.310  11.963
52699W        W14120  30.161   7.218  14.891
52700W        W14121   7.712   8.402   0.881
52701W        W14122  10.190  22.710   0.848
52702W        W14123   3.856   8.322  10.642
52703W        W14124  26.479   8.795  10.063
52704W        W14125  42.923  35.099  10.414
52705W        W14126  30.042  13.641   5.210
52706W        W14127  34.460  24.110   3.333
52707W        W14128  13.652  19.039  13.957
52708W        W14129  14.813  34.913  13.383
52709W        W14130  34.042  32.613  14.850
52710W        W14131  32.988   0.745  13.059
52711W        W14132   9.712  38.358  12.869
52712W        W14133  41.346  11.268   3.266
52713W        W14134  22.181   8.877  14.429
52714W        W14135  36.435   8.731  13.874
52715W        W14136  38.539  40.524  11.591
52716W        W14137  15.705  33.129  11.576
52717W        W14138  33.515  24.721  13.977
52718W        W14139  36.950  21.669   0.909
52719W        W14140  36.007   2.783  14.434
52720W        W14141  23.198  24.651  13.881
52721W        W14142  17.079  35.945  14.986
52722W        W14143  21.709  18.708  12.407
52723W        W14144  33.083  28.931   1.707
52724W        W14145  37.861   0.975  10.903
52725W        W14146  41.380   2.906  10.641
52726W        W14147  26.461  13.694  13.994
52727W        W14148  14.687   6.341  10.499
52728W        W14149   1.768  14.654  14.973
52729W        W14150   4.706  14.119   3.247
52730W        W14151  39.402   8.725   5.173
52731W        W14152  32.425  29.447  11.414
52732W        W14153  17.213  37.506   3.640
52733W        W14154   7.311  34.994  13.840
52734W        W14155  42.359  30.468   2.335
52735W        W14156  23.603  32.417  12.563
52736W        W14157  44.836  29.937  10.404
52737W        W14158  24.516  43.888   1.361
52738W        W14159  40.969  27.063  13.468
52739W        W14160  32.107   3.375   0.447
52740W        W14161  29.575  42.784   9.951
52741W        W14162  12.251   6.813  10.420
52742W        W14163   5.325  31.404   1.425
52743W        W14164  17.632  35.517  14.000
52744W        W14165   8.265  11.659   0.387
52745W        W14166   7.385   6.787  13.994
52746W        W14167  40.803  40.531   0.922
52747W        W14168  25.487  21.131  13.390
52748W        W14169  30.931  21.605  11.476
52749W        W14170  32.052  23.661  12.543
52750W        W14171  16.657  24.572   3.178
52751W        W14172   0.961  41.414   1.414
52752W        W14173  24.138  18.729  10.481
52753W        W14174  21.629  30.581   3.228
52754W        W14175  37.895  25.498   1.715
52755W        W14176   6.754   3.779   2.836
52756W        W14177  39.324  39.943  13.049
52757W        W14178  41.335   5.430   0.439
52758W        W14179   2.967  16.280  11.032
52759W        W14180  11.768   8.379   3.844
52760W        W14181  34.512  41.506   2.745
52761W        W14182  39.001  16.216  12.899
52762W        W14183  24.491  37.524  12.490
52763W        W14184  14.727  20.673  12.827
52764W        W14185   8.766  41.996   2.866
52765W        W14186  25.569  22.728  10.008
52766W        W14187  12.654  28.982  10.520
52767W        W14188   2.802   5.247  14.859
52768W        W14189  38.049  14.790  12.960
52769W        W14190  16.149  22.620   2.310
52770W        W14191  11.662  13.641   0.754
52771W        W14192   7.907  18.655  10.571
52772W        W14193  32.105   4.422  11.113
52773W        W14194  41.385  32.458   0.394
52774W        W14195  30.631   7.899  10.913
52775W        W14196   1.832  42.453  13.892
52776W        W14197  13.625  36.959  12.465
52777W        W14198  44.900  10.646  10.424
52778W        W14199  15.259  43.895  12.885
52779W        W14200  26.644  30.548   0.942
52780W        W14201  35.864  26.040  10.466
52781W        W14202  34.060  18.279  10.552
52782W        W14203  32.496   2.267  13.327
52783W        W14204  38.342   6.352  13.025
52784W        W14205  35.058  34.546  10.935
52785W        W14206   8.681   7.335  11.559
52786W        W14207  28.514  16.658   1.293
52787W        W14208  20.732  31.404   0.878
52788W        W14209  42.328  22.038  11.084
52789W        W14210  30.137  15.762   3.377
52790W        W14211  23.025  38.420  14.809
52791W        W14212   8.667  44.954   1.260
52792W        W14213   4.334  36.485  14.440
52793W        W14214  33.451  24.047   1.397
52794W        W14215  24.606  17.209  11.957
52795W        W14216   9.855  23.146   2.247
52796W        W14217  11.222  10.220   2.876
52797W        W14218  32.091  10.343  13.000
52798W        W14219  27.097  41.910   3.689
52799W        W14220  33.884   8.208  14.835
52800W        W14221  22.060  18.696   4.244
52801W        W14222  31.474   4.885   2.416
52802W        W14223  33.926  27.193   3.347
52803W        W14224   0.282  34.970   4.352
52804W        W14225   4.417   1.937   2.832
52805W        W14226  21.750  16.755  13.460
52806W        W14227  10.184  23.165   0.824
52807W        W14228  44.287  14.291  12.863
52808W        W14229   6.226   3.943  12.511
52809W        W14230  41.461  34.998  13.491
52810W        W14231  26.480  23.685   2.746
52811W        W14232  39.395   4.209  13.307
52812W        W14233  20.074  32.555   3.337
52813W        W14234  31.901  10.285  14.453
52814W        W14235   4.837  16.617  14.803
52815W        W14236  33.884  35.482  12.483
52816W        W14237  23.192   0.334   3.281
52817W        W14238   8.204   1.409  14.926
52818W        W14239  36.514  38.004   0.814
52819W        W14240   7.220   1.794   0.782
52820W        W14241  33.513   0.923  12.929
52821W        W14242  39.487  23.012   3.830
52822W        W14243   9.247  13.608   0.779
52823W        W14244   0.268  38.340   0.425
52824W        W14245  27.974  27.182  13.855
52825W        W14246  39.390  16.623  13.998
52826W        W14247  26.514  22.724   0.760
52827W        W14248  36.854  43.491   4.285
52828W        W14249  10.362  17.280  14.837
52829W        W14250  24.631  25.151   3.234
52830W        W14251  13.816  24.570  13.826
52831W        W14252  42.931   0.364  11.906
52832W        W14253  34.925   8.747  10.434
52833W        W14254  17.071  40.391  10.141
52834W        W14255  12.770   4.747  13.970
52835W        W14256  34.528  38.498  13.329
52836W        W14257  16.672   9.821   4.190
52837W        W14258  34.030  32.084   2.781
52838W        W14259  36.393  34.501   0.318
52839W        W14260  16.608  18.765   3.730
52840W        W14261  11.646  14.663   2.390
52841W        W14262   5.254  23.571  11.963
52842W        W14263  25.054   0.439   2.271
52843W        W14264  36.928  36.415   1.706
52844W        W14265  41.504  28.567  12.579
52845W        W14266  42.935  12.772   0.466
52846W        W14267  31.035   8.843   2.355
52847W        W14268   7.380  44.429   0.277
52848W        W14269  37.496   2.270  11.859
52849W        W14270  14.261   7.847  14.444
52850W        W14271  41.415   2.374  14.415
52851W        W14272  11.342   9.258   4.243
52852W        W14273  32.010  13.136   3.379
52853W        W14274  26.663  27.660  10.464
52854W        W14275  17.631   1.363   0.429
52855W        W14276   8.761   8.189  11.482
52856W        W14277  41.903  24.705   0.290
52857W        W14278  30.016  42.431   1.410
52858W        W14279  15.599  33.464  10.012
52859W        W14280  37.482  42.397   2.798
52860W        W14281  41.007   1.383  12.091
52861W        W14282  42.834  27.612   1.386
52862W        W14283   6.254  33.604  12.883
52863W        W14284   3.336  14.722   3.867
52864W        W14285  29.647   0.375  13.917
52865W        W14286  32.493  44.763  10.625
52866W        W14287  36.417  13.725  12.945
52867W        W14288  14.230  10.152  12.005
52868W        W14289  44.282   1.359  13.051
52869W        W14290  21.525  19.131  12.357
52870W        W14291  11.359  11.838   0.867
52871W        W14292   0.938  14.656  14.380
52872W        W14293   6.189   5.438  12.872
52873W        W14294  15.292  33.393  14.468
52874W        W14295   9.701  13.650  10.639
52875W        W14296  38.541  32.522  14.499
52876W        W14297   3.777  14.770  12.001
52877W        W14298  35.476  30.952   2.251
52878W        W14299   4.317  39.431  13.434
52879W        W14300  16.625  35.107  12.979
52880W        W14301  12.262  24.088  11.030
52881W        W14302  10.186   8.396   9.962
52882W        W14303  30.012  30.466   1.262
52883W        W14304  41.484  12.259   2.891
52884W        W14305  44.926  36.362   4.340
52885W        W14306   2.361  14.116   3.755
52886W        W14307  37.359   7.801  12.539
52887W        W14308  10.677  43.389   3.676
52888W        W14309  25.044  37.901   2.819
52889W        W14310   3.729  37.388   2.406
52890W        W14311  14.330  29.425   4.247
52891W        W14312   3.893   2.435  14.287
52892W        W14313   4.736  28.470  11.990
52893W        W14314  25.148  17.727   1.737
52894W        W14315  34.079  44.491  11.445
52895W        W14316  10.712  28.544  12.488
52896W        W14317  42.793  11.704   0.964
52897W        W14318  44.765  39.368   3.734
52898W        W14319  29.434   5.368  14.456
52899W        W14320  40.549  43.822  12.893
52900W        W14321   7.854  28.636  10.605
52901W        W14322   4.429  12.321   1.286
52902W        W14323  27.005   4.724   3.179
52903W        W14324  34.045  43.865   4.172
52904W        W14325  11.683  35.579  12.034
52905W        W14326  35.430   0.359   0.746
52906W        W14327  14.185  44.853   2.228
52907W        W14328  39.959   4.872   2.852
52908W        W14329  39.018  43.356   2.343
52909W        W14330  40.834   0.326   2.770
52910W        W14331  13.173  40.496  14.280
52911W        W14332  12.221  16.156  11.599
52912W        W14333  29.441  10.865  14.340
52913W        W14334  39.974  16.633   2.663
52914W        W14335  16.224   7.756   0.932
52915W        W14336  43.942  29.600   2.700
52916W        W14337   8.221  37.498   0.771
52917W        W14338  27.643  27.961   4.234
52918W        W14339  34.990  11.716   1.300
52919W        W14340  21.746  14.228  14.445
52920W        W14341  35.855  11.643   0.935
52921W        W14342   7.696  18.702  14.425
52922W        W14343   4.934  16.676   1.356
52923W        W14344  27.035  18.233   0.364
52924W        W14345  19.155  15.159  14.759
52925W        W14346  38.358   2.343   2.293
52926W        W14347  20.611  12.289   3.757
52927W        W14348  39.901  16.801   4.760
52928W        W14349  20.638   4.325  12.450
52929W        W14350  43.436  27.981  11.031
52930W        W14351  23.140  33.053  13.355
52931W        W14352  42.010  41.795  12.364
52932W        W14353  32.035  34.583   2.715
52933W        W14354  41.509  14.814   1.451
52934W        W14355   8.827  14.782   3.251
52935W        W14356  24.097   0.296  11.074
52936W        W14357  18.230  21.186   4.710
52937W        W14358   9.853  44.854   4.123
52938W        W14359  17.101  22.114   3.307
52939W        W14360   1.292  10.737  10.501
52940W        W14361  17.576  34.068  11.492
52941W        W14362  22.154   4.283   0.352
52942W        W14363  40.376   4.936  14.421
52943W        W14364  20.150  33.572   4.280
52944W        W14365  11.734  16.779  12.901
52945W        W14366  23.626  25.078   2.282
52946W        W14367  44.991  30.551  11.605
52947W        W14368  18.752  26.994  13.328
52948W        W14369  31.543  31.636  13.543
52949W        W14370  28.176  29.165  11.880
52950W        W14371   8.334  42.378  13.894
52951W        W14372  16.105   2.401  10.473
52952W        W14373  20.118  38.466  14.998
52953W        W14374  16.091  20.272   0.754
52954W        W14375  10.302  16.731  10.039
52955W        W14376  35.102  33.417  12.943
52956W        W14377  27.512   4.760  11.015
52957W        W14378  36.447  39.855  11.026
52958W        W14379  17.713   5.929   2.263
52959W        W14380  41.369  43.010   1.745
52960W        W14381  20.247  17.082  10.595
52961W        W14382  42.903  18.584  14.765
52962W        W14383  10.311  33.620  12.474
52963W        W14384  29.144   1.313  11.424
52964W        W14385  44.288  39.044   9.946
52965W        W14386  25.590   4.306   4.603
52966W        W14387  42.480  23.082   0.393
52967W        W14388   9.178   0.915   1.885
52968W        W14389   9.731  35.567   3.295
52969W        W14390  11.665  19.577   3.168
52970W        W14391   7.772  38.054   4.826
52971W        W14392  25.172  34.913   3.828
52972W        W14393  31.132  36.440  11.049
52973W        W14394  38.829  18.745  13.530
52974W        W14395  26.145  14.734   0.299
52975W        W14396  26.642  34.455   2.752
52976W        W14397  38.895  22.076  13.467
52977W        W14398  17.232  42.789   5.229
52978W        W14399  20.701  13.725   1.274
52979W        W14400  43.300  18.631   0.359
52980W        W14401  23.709  23.595   2.794
52981W        W14402  20.265  33.058   3.254
52982W        W14403  36.482   5.924   3.787
52983W        W14404   8.331  33.063   0.395
52984W        W14405  44.807   4.294  13.517
52985W        W14406  43.353   6.810  12.531
52986W        W14407   3.392  26.173  14.320
52987W        W14408  37.367  13.130   9.964
52988W        W14409  30.600   0.317  13.891
52989W        W14410   8.746  19.588  12.935
52990W        W14411  12.783  34.589   3.367
52991W        W14412   3.769  41.932  12.898
52992W        W14413   4.446  15.726  12.389
52993W        W14414  34.959   3.845   2.831
52994W        W14415   7.273  39.526   2.302
52995W        W14416  36.380  21.546   3.705
52996W        W14417  19.663   8.322  14.867
52997W        W14418  18.286  25.474  13.855
52998W        W14419   3.217  20.603  12.978
52999W        W14420  43.947  12.719  12.867
53000W        W14421  34.003  25.644   4.800
53001W        W14422  38.015   6.249  13.386
53002W        W14423   4.374  19.730   0.473
53003W        W14424  37.068  23.230  12.959
53004W        W14425   4.306  29.591   0.245
53005W        W14426  16.648  27.614   2.884
53006W        W14427  39.821  39.042   1.358
53007W        W14428   2.426   9.372  12.429
53008W        W14429  12.188  29.992  11.493
53009W        W14430  27.958   4.814   3.801
53010W        W14431  44.843  40.519   2.409
53011W        W14432   2.269  12.725   1.222
53012W        W14433   0.878   4.236   0.443
53013W        W14434   3.821  40.810   3.718
53014W        W14435  28.441  13.622   9.596
53015W        W14436  14.720   9.254  10.597
53016W        W14437  21.078   2.250   0.379
53017W        W14438   7.269  31.054   2.667
53018W        W14439  18.105  38.465   0.407
53019W        W14440  16.677  18.146   1.215
53020W        W14441   3.322  24.218  14.765
53021W        W14442  22.739   9.228   1.877
53022W        W14443   9.714  20.643  12.069
53023W        W14444   4.218  25.557   1.314
53024W        W14445  19.553   4.321   9.968
53025W        W14446   7.215  21.657  11.014
53026W        W14447  16.647  21.073   2.763
53027W        W14448  36.571  25.139   1.346
53028W        W14449  13.641   7.174  14.018
53029W        W14450  39.559   0.781   2.414
53030W        W14451   7.676  17.663  11.438
53031W        W14452  42.780  44.271   4.752
53032W        W14453  13.829  20.616   1.821
53033W        W14454  28.565   5.855  10.435
53034W        W14455   5.725  27.445   0.454
53035W        W14456  19.043  25.136   2.664
53036W        W14457  30.442  34.429   4.778
53037W        W14458  10.198  39.812  14.890
53038W        W14459   1.910  29.024  10.539
53039W        W14460  33.509  40.327   5.101
53040W        W14461  10.818  43.406  13.056
53041W        W14462  35.440  28.637   4.348
53042W        W14463  26.202   8.288  11.920
53043W        W14464  39.028  26.004   4.672
53044W        W14465  22.109   4.302   0.966
53045W        W14466  33.462  37.377   3.168
53046W        W14467  36.919  14.317  14.326
53047W        W14468   2.959  33.415  10.427
53048W        W14469  44.331  28.662  12.021
53049W        W14470  17.716  32.436  14.026
53050W        W14471   5.388  19.069   1.745
53051W        W14472  37.555  35.600  14.812
53052W        W14473  16.207  24.695  14.028
53053W        W14474  43.961  31.961  11.460
53054W        W14475  14.829   2.937  11.120
53055W        W14476  20.106   7.910   1.803
53056W        W14477  22.564   8.335  10.436
53057W        W14478  32.016   3.227  13.483
53058W        W14479  30.469  10.184   3.226
53059W        W14480  30.094  29.514   0.339
53060W        W14481   2.773  34.512   5.650
53061W        W14482  18.084  30.030  13.383
53062W        W14483  44.294  16.252   3.801
53063W        W14484  31.141   6.350   3.254
53064W        W14485  24.073  26.682  11.897
53065W        W14486   4.903  18.751  13.863
53066W        W14487  31.099  37.919   3.231
53067W        W14488  41.365  36.916  11.004
53068W        W14489  23.212  27.561   2.775
53069W        W14490  43.509  26.460  12.960
53070W        W14491   5.721  22.138  12.832
53071W        W14492  17.647  33.404   3.286
53072W        W14493  32.039  39.524   4.773
53073W        W14494  35.033  25.615   4.146
53074W        W14495  25.682  26.503   3.802
53075W        W14496   3.947  20.104  12.902
53076W        W14497   8.207  10.835   1.263
53077W        W14498  38.377  35.381   4.687
53078W        W14499  14.695  14.195   2.722
53079W        W14500  18.626  39.937  10.905
53080W        W14501   1.952  27.152  11.457
53081W        W14502  21.573   5.273  11.932
53082W        W14503  22.610  44.811   4.343
53083W        W14504   4.319  10.372  13.451
53084W        W14505  18.184  38.505  12.542
53085W        W14506  13.649  39.970  12.555
53086W        W14507  30.583  35.424   0.830
53087W        W14508  40.961  37.056  14.476
53088W        W14509   8.675  28.140  11.374
53089W        W14510  44.441   5.771   0.846
53090W        W14511  19.082   7.867  11.578
53091W        W14512   6.230  13.178   2.824
53092W        W14513  26.056   8.340   2.673
53093W        W14514   3.830  37.535   2.663
53094W        W14515  35.557  17.785  13.896
53095W        W14516  11.704  24.061  10.132
53096W        W14517  13.833  32.511   9.999
53097W        W14518  22.602  33.550   4.779
53098W        W14519  39.923  27.159  11.931
53099W        W14520  16.692  30.553  14.777
53100W        W14521   5.891  19.756   4.287
53101W        W14522   6.917  23.552  14.873
53102W        W14523  13.240  38.348   2.891
53103W        W14524  44.992  14.169  11.894
53104W        W14525  39.964   0.837  11.465
53105W        W14526  39.356  15.760   1.919
53106W        W14527  34.526  11.850  14.374
53107W        W14528   7.797  30.522  10.408
53108W        W14529  11.762  37.470  14.481
53109W        W14530  20.531  20.633  14.869
53110W        W14531   4.883  20.524   4.607
53111W        W14532  40.020  41.017  13.051
53112W        W14533  35.444  36.591  12.473
53113W        W14534  35.530  21.597   4.686
53114W        W14535  44.983  32.970   4.798
53115W        W14536  27.452  13.721   0.946
53116W        W14537  35.580   8.801  12.070
53117W        W14538  32.443  33.889   4.705
53118W        W14539   6.374   7.731   0.354
53119W        W14540  38.549  22.586   0.808
53120W        W14541  14.810  31.638   1.800
53121W        W14542  25.105  26.102   3.670
53122W        W14543  13.337  20.551   4.669
53123W        W14544   6.383   3.732   4.822
53124W        W14545  28.065  31.024  12.953
53125W        W14546  21.042  27.498  12.873
53126W        W14547   1.865  32.925   4.748
53127W        W14548  43.862  40.874   0.331
53128W        W14549  29.084  24.072   0.836
53129W        W14550  22.107  32.633   4.611
53130W        W14551   2.256  12.682  10.049
53131W        W14552  38.358  10.751  10.633
53132W        W14553   4.824  22.656   4.747
53133W        W14554  13.180  42.961   4.769
53134W        W14555  39.443  36.572   4.118
53135W        W14556   9.817   4.777  12.377
53136W        W14557  17.777  23.097  10.446
53137W        W14558  23.050   1.814   2.200
53138W        W14559  22.091  32.512  11.603
53139W        W14560   5.767  10.700  13.886
53140W        W14561  43.844   5.720   1.237
53141W        W14562  37.353  25.709   1.276
53142W        W14563   1.869  27.672  10.531
53143W        W14564  23.988  19.775   4.833
53144W        W14565  39.843  34.391  13.922
53145W        W14566   6.727   8.180  10.603
53146W        W14567  19.538  42.993   4.827
53147W        W14568  18.631   9.676  11.440
53148W        W14569  27.181  38.894   2.783
53149W        W14570  40.029  22.100   3.190
53150W        W14571  38.076  20.187   1.917
53151W        W14572  17.184  36.957   1.696
53152W        W14573  30.082  29.054   1.930
53153W        W14574  41.966  32.493   1.281
53154W        W14575   1.937  30.156   3.334
53155W        W14576  43.502   4.898  12.043
53156W        W14577   6.856  31.032   4.748
53157W        W14578   9.791  44.298  10.618
53158W        W14579   6.677   7.816  10.418
53159W        W14580  37.495   6.345   2.844
53160W        W14581  28.552  23.158  13.375
53161W        W14582   7.730  31.452  10.998
53162W        W14583   4.745   2.869  12.454
53163W        W14584  39.833  14.241   1.300
53164W        W14585  11.336  34.012   4.143
53165W        W14586  25.163  12.236  12.339
53166W        W14587   5.744  31.145  13.949
53167W        W14588  44.430   8.302  13.857
53168W        W14589  18.556  26.462   0.249
53169W        W14590   0.317  20.050  14.984
53170W        W14591  15.578  23.542  10.539
53171W        W14592  34.443   8.316  11.027
53172W        W14593  43.422  24.992   2.695
53173W        W14594  36.900  40.384  11.390
53174W        W14595  34.487  34.385   0.882
53175W        W14596  18.056  43.504  10.952
53176W        W14597  38.857  20.067   4.241
53177W        W14598  11.662   7.873   5.150
53178W        W14599   5.696   7.693  13.385
53179W        W14600  27.987  29.470  11.967
53180W        W14601   8.251   8.277   3.236
53181W        W14602   1.934  12.349  11.919
53182W        W14603   9.222   2.772   2.892
53183W        W14604  30.089  42.780   4.606
53184W        W14605  44.768  17.577  12.841
53185W        W14606  37.548   5.276   0.730
53186W        W14607  12.749   4.933  10.434
53187W        W14608  36.923  29.121   0.355
53188W        W14609   2.255  29.642  10.089
53189W        W14610   4.439  18.260  13.544
53190W        W14611  40.836  25.968   0.472
53191W        W14612  19.191  39.320  12.092
53192W        W14613  22.210  41.320   1.825
53193W        W14614   0.828  15.740   3.171
53194W        W14615  13.196   7.895   3.256
53195W        W14616  27.471   6.754  12.841
53196W        W14617   4.416  26.977   5.105
53197W        W14618  37.934  33.923   4.635
53198W        W14619  39.472  20.568   2.756
53199W        W14620  31.425   3.915  12.935
53200W        W14621  12.235   6.317  14.010
53201W        W14622   4.714  24.629  13.956
53202W        W14623  16.122   6.811   1.807
53203W        W14624  41.415  28.139  11.380
53204W        W14625  31.035  37.881  12.003
53205W        W14626  34.482  13.602  13.507
53206W        W14627  36.945  31.950   3.701
53207W        W14628  28.962   0.844  11.439
53208W        W14629  32.544  34.412   3.285
53209W        W14630  16.567  11.288  12.849
53210W        W14631  30.013  32.574   2.409
53211W        W14632  33.448  14.208  11.389
53212W        W14633  17.693   9.725  13.979
53213W        W14634  16.686  37.952   0.309
53214W        W14635  26.200  24.983  11.476
53215W        W14636  35.552   6.283   1.836
53216W        W14637  44.962  38.369   0.754
53217W        W14638  35.055   0.962  10.407
53218W        W14639  35.092  26.090   3.160
53219W        W14640  11.292  32.499   1.697
53220W        W14641   0.755  43.768  14.991
53221W        W14642  24.496   9.272  12.935
53222W        W14643  16.075  14.147   3.313
53223W        W14644  42.924  31.499  11.029
53224W        W14645  26.188   6.787   9.623
53225W        W14646  38.825  36.897   4.638
53226W        W14647  11.678   6.867   1.702
53227W        W14648   6.817   2.808   3.651
53228W        W14649  44.893  24.210  11.508
53229W        W14650  14.315  29.486  13.337
53230W        W14651   5.375  16.782   2.182
53231W        W14652  17.092   2.742  14.315
53232W        W14653  38.014   5.250  12.986
53233W        W14654  27.964  21.662  14.511
53234W        W14655  43.331  39.362   1.265
53235W        W14656  36.403  19.146  11.597
53236W        W14657  34.414  29.631   4.754
53237W        W14658  29.423  28.992  10.891
53238W        W14659  23.595  10.149   3.219
53239W        W14660  10.186  31.477  13.447
53240W        W14661  20.649  12.184   4.616
53241W        W14662  12.807  37.846   3.660
53242W        W14663  39.514   8.401   1.446
53243W        W14664  26.139  30.003   1.336
53244W        W14665   4.353   5.230   4.637
53245W        W14666   7.342  22.542  14.938
53246W        W14667   1.816  30.082   9.580
53247W        W14668  21.662  10.193  12.031
53248W        W14669  28.966  18.168  11.928
53249W        W14670   9.372  40.984  13.312
53250W        W14671  26.464  21.589   4.693
53251W        W14672   5.256  14.708  13.818
53252W        W14673  31.502  28.551   3.857
53253W        W14674  33.065  25.175  14.429
53254W        W14675  44.823   4.817   0.744
53255W        W14676  40.886  41.314   4.301
53256W        W14677  41.927  36.350   0.789
53257W        W14678  18.768  14.210   3.259
53258W        W14679   9.765  29.114  11.561
53259W        W14680  35.444   4.942  14.301
53260W        W14681  22.643  26.951  14.894
53261W        W14682  34.941  19.125   4.722
53262W        W14683   3.802  15.706   3.287
53263W        W14684  23.991  21.143  13.064
53264W        W14685  30.544   3.737   1.698
53265W        W14686  17.133   4.831   1.299
53266W        W14687  31.069  14.622  10.160
53267W        W14688  25.593  41.786   4.833
53268W        W14689  42.520  13.351  10.972
53269W        W14690  36.072  10.161   1.390
53270W        W14691   0.800  38.060  14.515
53271W        W14692  41.907  35.423   4.624
53272W        W14693  21.184  41.508   0.247
53273W        W14694  23.583   3.241   1.421
53274W        W14695  21.243  29.581  12.868
53275W        W14696  28.537  36.400  13.807
53276W        W14697  20.594  39.379   3.655
53277W        W14698  12.646  35.934   3.788
53278W        W14699   1.337  21.033   1.832
53279W        W14700  16.717   2.791  11.031
53280W        W14701  39.415  32.399  10.518
53281W        W14702  30.466  29.622  10.956
53282W        W14703  25.524  43.443   1.846
53283W        W14704  10.875  30.999   0.300
53284W        W14705  21.030   1.414  10.428
53285W        W14706  39.831  22.189  12.450
53286W        W14707  33.067   0.296  11.880
53287W        W14708  36.382  30.659  12.043
53288W        W14709  33.007   0.985   3.830
53289W        W14710  24.204  37.887   4.305
53290W        W14711  41.367   9.740  12.910
53291W        W14712  44.783  24.617   0.844
53292W        W14713  22.133  18.652   0.946
53293W        W14714  31.919  29.998  12.398
53294W        W14715  28.931   5.237   3.703
53295W        W14716  39.498  22.639   3.862
53296W        W14717  25.219   0.391  11.604
53297W        W14718  21.188  24.155  14.017
53298W        W14719   5.252   5.327   4.759
53299W        W14720  10.235  25.490   3.199
53300W        W14721  40.031   4.256  11.466
53301W        W14722  41.898  21.215   0.260
53302W        W14723  29.511  41.943  14.005
53303W        W14724  20.212   6.409  12.551
53304W        W14725  43.308  43.396   3.194
53305W        W14726  24.133  33.540   2.711
53306W        W14727  42.385  34.996   4.122
53307W        W14728  25.643  24.168  10.483
53308W        W14729  26.071   1.401  10.634
53309W        W14730  18.072   4.736   2.274
53310W        W14731  16.663  44.950  13.479
53311W        W14732  16.113  16.705  10.982
53312W        W14733   3.452   4.413   2.796
53313W        W14734  16.760  26.541   1.319
53314W        W14735  34.031  39.414   4.666
53315W        W14736  22.737  11.240  13.894
53316W        W14737  10.177   2.721   0.371
53317W        W14738   9.734   0.900   0.428
53318W        W14739  23.110  10.812   1.696
53319W        W14740   2.847  20.222   2.877
53320W        W14741  15.595   5.704   0.311
53321W        W14742  10.375  26.505  12.960
53322W        W14743  41.827   8.898  14.989
53323W        W14744  36.382  14.712  14.892
53324W        W14745   8.877   9.236   3.753
53325W        W14746  17.651  11.367  11.487
53326W        W14747  12.297   3.860   3.201
53327W        W14748   0.955  44.765   0.365
53328W        W14749  30.093  11.850   3.769
53329W        W14750   9.254  12.776   0.873
53330W        W14751  32.078  35.601   2.271
53331W        W14752  21.072  16.567  10.971
53332W        W14753  39.519  26.615   2.828
53333W        W14754  17.560   9.157   3.279
53334W        W14755  38.833  23.578   3.279
53335W        W14756  40.015  38.561  14.347
53336W        W14757  35.032  29.991  12.420
53337W        W14758  25.113   9.272   1.449
53338W        W14759  11.745   2.395  13.975
53339W        W14760  38.886  37.941  11.957
53340W        W14761  25.509  40.024  14.886
53341W        W14762   5.711  14.229   0.915
53342W        W14763  40.405  35.009  10.437
53343W        W14764  30.950  18.580   0.886
53344W        W14765  30.450  39.038  12.506
53345W        W14766  40.539  12.743  13.333
53346W        W14767  29.524   4.737   2.247
53347W        W14768  40.812   8.897  13.826
53348W        W14769  24.171  31.964  12.454
53349W        W14770   3.771  25.630  14.936
53350W        W14771   0.965  15.701  11.432
53351W        W14772  29.100  41.786   2.771
53352W        W14773  10.671  19.070  13.491
53353W        W14774  27.142   2.276   2.762
53354W        W14775  22.051  18.223  11.486
53355W        W14776   7.349  11.848  12.001
53356W        W14777  43.824  34.873   3.151
53357W        W14778   4.355  24.061   9.655
53358W        W14779  35.521  21.751  14.935
53359W        W14780  23.047  35.913   3.861
53360W        W14781  32.043  30.437   5.241
53361W        W14782   6.753  15.689   0.935
53362W        W14783  37.520   5.823   0.397
53363W        W14784  31.485  35.870  11.419
53364W        W14785  10.659   2.433   2.887
53365W        W14786  25.096  38.454  13.326
53366W        W14787  15.115  10.771   1.353
53367W        W14788   1.795  24.042  11.412
53368W        W14789  11.803   7.253  14.361
53369W        W14790   3.441  18.205   4.169
53370W        W14791  18.731   1.964   2.192
53371W        W14792  12.312   3.342   2.701
53372W        W14793  32.421  34.944  11.989
53373W        W14794  11.698   4.769  13.355
53374W        W14795  30.013  41.410  11.521
53375W        W14796  26.107  21.680  13.347
53376W        W14797   9.765  39.527  13.407
53377W        W14798  36.573   2.268   0.843
53378W        W14799  24.094  22.731   2.217
53379W        W14800  28.961   2.843  10.491
53380W        W14801   3.292  32.466  12.578
53381W        W14802  34.430  17.651  11.952
53382W        W14803  41.323  19.093   2.807
53383W        W14804   9.385  34.980  13.948
53384W        W14805  25.613   6.763   2.228
53385W        W14806  28.155  35.430  10.639
53386W        W14807  29.618   9.187  13.060
53387W        W14808   9.274  23.638   0.464
53388W        W14809  36.950  29.594   4.677
53389W        W14810  13.797  17.686   1.437
53390W        W14811  32.555  30.056  11.867
53391W        W14812  23.220  24.658  10.425
53392W        W14813   3.816  39.027  12.460
53393W        W14814  12.256  37.061  11.596
53394W        W14815  15.781   8.294  11.105
53395W        W14816  18.221  13.166  13.386
53396W        W14817  40.974  30.943   0.331
53397W        W14818   5.196   0.401   2.253
53398W        W14819   1.321  19.677  12.860
53399W        W14820  20.150  34.535  12.851
53400W        W14821  21.175  39.459   4.199
53401W        W14822  32.537  34.048  14.891
53402W        W14823   1.883  27.575   0.283
53403W        W14824   0.818  11.221   3.634
53404W        W14825  27.521  29.517   3.226
53405W        W14826   0.259  11.659   4.787
53406W        W14827   7.306   2.291   0.825
53407W        W14828  18.073  35.524   4.724
53408W        W14829  28.639   2.249  14.328
53409W        W14830  31.024  21.531   0.467
53410W        W14831   0.880  39.528  14.004
53411W        W14832  22.013  39.849  14.971
53412W        W14833  43.862  13.652   4.750
53413W        W14834  42.022  24.040  10.498
53414W        W14835  37.066  19.746   2.854
53415W        W14836  16.672  27.470  11.510
53416W        W14837  35.388  40.323   0.940
53417W        W14838  33.428   4.817  13.984
53418W        W14839   8.378  24.188   0.273
53419W        W14840  36.589  30.988   1.922
53420W        W14841  31.068  35.518   3.857
53421W        W14842   1.278  44.773   2.403
53422W        W14843  27.670  32.020  14.769
53423W        W14844   8.898  15.720  13.376
53424W        W14845   0.774  27.081  13.450
53425W        W14846  29.637   3.300  13.312
53426W        W14847   1.949  24.035   0.753
53427W        W14848  20.124  18.108   0.893
53428W        W14849  17.779  35.533   2.397
53429W        W14850  15.144   8.879  10.526
53430W        W14851  31.058  38.465   4.838
53431W        W14852   7.252   6.915  10.599
53432W        W14853  11.365  16.732  14.467
53433W        W14854  12.792  23.991   3.633
53434W        W14855   2.889  26.554  10.427
53435W        W14856   9.845  15.103   1.753
53436W        W14857  27.162  12.629   1.321
53437W        W14858  20.735  11.813  14.771
53438W        W14859  24.545   1.249  14.473
53439W        W14860  17.619   3.935   0.341
53440W        W14861  43.308  14.176  13.991
53441W        W14862  30.149  35.459  12.343
53442W        W14863  33.457  24.053   2.687
53443W        W14864  22.038  33.520   4.320
53444W        W14865  20.164  13.710   3.323
53445W        W14866  36.361  10.739  10.918
53446W        W14867   4.913  17.242   3.235
53447W        W14868  20.635  11.706   0.762
53448W        W14869  15.089  31.620  11.379
53449W        W14870  33.002   6.370  13.833
53450W        W14871  38.333  30.128   1.890
53451W        W14872  10.233  14.258   4.123
53452W        W14873  43.813  41.522   2.861
53453W        W14874  36.542  20.584  12.341
53454W        W14875  27.644   3.277  12.516
53455W        W14876  36.877  40.042   3.677
53456W        W14877  30.516  17.561   2.228
53457W        W14878  20.764  43.325   2.731
53458W        W14879  10.172  27.979   2.337
53459W        W14880  43.271  12.711  14.944
53460W        W14881  15.227  42.934  12.881
53461W        W14882  31.426  16.287   2.202
53462W        W14883   5.273  14.802   0.952
53463W        W14884  18.605  43.881   2.763
53464W        W14885  16.088   2.792   2.712
53465W        W14886  23.616  29.145   4.265
53466W        W14887  14.797  12.661   0.473
53467W        W14888   7.344   2.410  13.934
53468W        W14889  32.507  35.908   5.166
53469W        W14890  24.493  31.946   1.395
53470W        W14891   2.398   5.715   3.850
53471W        W14892  14.589  34.950   4.697
53472W        W14893  20.603   4.701   2.204
53473W        W14894  13.296  19.574  10.890
53474W        W14895   3.333  38.822   2.402
53475W        W14896   3.940   5.736  14.436
53476W        W14897  28.122   4.227   3.386
53477W        W14898  33.131  16.099   2.877
53478W        W14899  41.959  37.374   5.258
53479W        W14900  39.333  14.303   1.410
53480W        W14901  20.741  33.431   4.153
53481W        W14902   3.888   4.285  13.020
53482W        W14903   0.262  27.015   1.715
53483W        W14904  29.171  38.035  12.540
53484W        W14905  44.449  13.657  13.893
53485W        W14906   1.837   1.459   4.721
53486W        W14907   3.236   5.335   1.266
53487W        W14908  25.181  42.315  12.395
53488W        W14909  33.961  30.948   3.811
53489W        W14910  14.597  21.752   1.921
53490W        W14911  25.191  14.213   3.639
53491W        W14912  18.244  33.556   0.902
53492W        W14913  31.933  20.627  13.968
53493W        W14914  25.695   1.954   3.723
53494W        W14915  12.754  30.065  10.413
53495W        W14916  13.758  32.936  14.940
53496W        W14917  18.065  16.607   2.356
53497W        W14918  32.492   9.309  11.496
53498W        W14919  27.981  42.505   1.250
53499W        W14920  34.032  24.571   1.853
53500W        W14921  27.980  24.155  10.459
53501W        W14922  10.329  25.577  10.477
53502W        W14923  40.930  17.298   9.927
53503W        W14924   0.443  24.100  14.032
53504W        W14925  37.400  27.982  10.585
53505W        W14926  35.402  12.150   4.240
53506W        W14927  19.053  29.643   4.632
53507W        W14928  14.733  34.984  11.479
53508W        W14929  12.215  19.260  14.426
53509W        W14930  19.583  40.944   4.126
53510W        W14931  40.392  28.951  12.484
53511W        W14932  35.087   2.899  12.002
53512W        W14933   3.301  40.379  14.840
53513W        W14934  34.478  13.706   2.769
53514W        W14935   4.762  39.032  14.456
53515W        W14936  36.433  17.775   3.663
53516W        W14937  40.455  30.068  11.874
53517W        W14938  33.458  28.956   5.174
53518W        W14939  15.752  26.636   2.732
53519W        W14940  39.460  28.679   0.809
53520W        W14941   8.852  19.091   1.733
53521W        W14942  11.758   8.811   2.343
53522W        W14943  17.268  34.033   1.288
53523W        W14944   3.242  34.911  12.515
53524W        W14945  24.624  15.609  13.357
53525W        W14946  31.565  28.036   2.819
53526W        W14947  15.736   0.286  13.874
53527W        W14948  35.555  23.644   0.352
53528W        W14949  27.542  31.018  14.830
53529W        W14950  28.024   7.845   3.370
53530W        W14951   8.304  40.399   4.739
53531W        W14952  22.086  28.009  11.518
53532W        W14953  41.500  34.021   3.249
53533W        W14954   5.422  18.090   0.283
53534W        W14955  14.282   2.882  13.937
53535W        W14956   0.940   9.319   3.210
53536W        W14957  16.804   7.302  14.875
53537W        W14958  41.500  11.815   1.322
53538W        W14959  36.928  39.423  12.506
53539W        W14960  31.562  11.748   0.344
53540W        W14961  33.891  26.103   0.353
53541W        W14962  27.596  19.721   1.860
53542W        W14963   6.891  27.637   9.939
53543W        W14964  21.174  11.265   3.744
53544W        W14965   6.404  16.134   2.859
53545W        W14966   4.367   7.879  12.513
53546W        W14967  40.397  30.151  11.075
53547W        W14968  30.444  11.659   1.401
53548W        W14969   9.308  11.688  12.491
53549W        W14970   3.769  20.607   3.368
53550W        W14971  44.988  38.076  14.915
53551W        W14972  15.151  40.975   4.149
53552W        W14973  10.283  41.341   0.962
53553W        W14974   0.815  15.238   1.841
53554W        W14975  24.207  17.689   0.732
53555W        W14976  16.612  18.636  13.347
53556W        W14977  19.703   0.262   0.785
53557W        W14978  21.569  23.610  13.442
53558W        W14979  10.244  37.422   0.803
53559W        W14980  23.083  12.703  12.937
53560W        W14981  20.062   4.306   4.829
53561W        W14982  24.648  11.202   1.868
53562W        W14983  25.970  14.702   2.730
53563W        W14984  28.080  28.147   2.903
53564W        W14985  28.582  35.894   3.827
53565W        W14986   0.793  24.070  10.517
53566W        W14987   2.295  17.659   2.847
53567W        W14988   8.796  27.548  13.872
53568W        W14989   4.872  38.524   4.619
53569W        W14990  26.037  29.652  14.950
53570W        W14991  18.571  26.467   2.284
53571W        W14992   6.344   5.810   4.622
53572W        W14993  28.141   5.355  10.606
53573W        W14994  38.983  35.450   1.823
53574W        W14995   0.370  20.191   3.690
53575W        W14996  42.463   5.404   1.357
53576W        W14997  14.762  36.556   0.841
53577W        W14998  13.604  39.545  11.967
53578W        W14999   4.214  44.283  14.885
53579W        W15000  38.368  29.609  12.534
53580W        W15001  18.613  38.341   0.932
53581W        W15002  32.907  41.364  11.066
53582W        W15003  12.847   3.855  14.448
53583W        W15004   6.219  35.862   4.123
53584W        W15005  12.771  37.052   2.398
53585W        W15006  16.781   4.354  14.021
53586W        W15007  14.232  27.488  12.897
53587W        W15008   1.255  15.603  14.914
53588W        W15009  42.292   2.948   2.853
53589W        W15010  24.129  26.646   1.857
53590W        W15011  38.042  25.603  11.590
53591W        W15012  15.158  39.949  14.481
53592W        W15013  16.293  42.473   3.301
53593W        W15014  22.196  10.811   1.287
53594W        W15015  16.176  25.704  12.458
53595W        W15016  34.573  29.047  12.960
53596W        W15017  34.918  41.938  11.475
53597W        W15018  16.813  21.077   4.602
53598W        W15019  21.744  27.451  13.974
53599W        W15020  14.633   9.151   2.401
53600W        W15021   7.787  34.909   2.797
53601W        W15022  41.945  34.941   0.295
53602W        W15023  32.019  21.641  13.947
53603W        W15024  14.758   5.874   3.766
53604W        W15025  19.087  21.137  11.079
53605W        W15026  31.534  24.659   4.204
53606W        W15027  38.007  36.431  12.911
53607W        W15028  15.669  25.033   0.478
53608W        W15029  32.466  42.331   0.897
53609W        W15030  16.318  11.649  13.323
53610W        W15031  26.056  32.622   2.322
53611W        W15032  39.912  35.530   0.293
53612W        W15033  23.677  43.327  12.054
53613W        W15034  38.850  42.314  10.934
53614W        W15035   5.802   2.847  13.540
53615W        W15036  29.106  18.791   2.389
53616W        W15037  20.645  22.544  11.113
53617W        W15038  11.172  26.128   2.249
53618W        W15039   8.803  41.396   4.221
53619W        W15040  17.216  16.294   4.265
53620W        W15041  41.003   8.693   1.264
53621W        W15042  25.969   7.909  12.445
53622W        W15043  23.017   9.243  12.069
53623W        W15044  44.474  29.106  13.894
53624W        W15045  43.937  13.652   0.455
53625W        W15046  19.162  41.845   1.869
53626W        W15047  42.920   3.276   4.672
53627W        W15048  30.934  20.236   4.652
53628W        W15049  21.101  36.592   1.857
53629W        W15050  40.932  35.868  12.981
53630W        W15051  40.455  32.929   4.805
53631W        W15052  42.790  28.614   2.337
53632W        W15053  28.516   4.873  14.280
53633W        W15054  36.874  23.225   1.275
53634W        W15055  30.047  31.540   2.728
53635W        W15056  32.909  35.488  11.116
53636W        W15057  15.295   7.775  14.406
53637W        W15058  42.306   7.773  13.393
53638W        W15059  15.613   8.169  12.439
53639W        W15060  30.927   2.875   1.828
53640W        W15061   3.778  13.823   1.813
53641W        W15062   5.238  36.074  13.396
53642W        W15063  30.611  12.634   3.664
53643W        W15064  34.045  29.513  13.807
53644W        W15065   5.348  42.017   3.294
53645W        W15066  44.463  30.987   3.633
53646W        W15067  15.801  40.505  12.837
53647W        W15068  36.995  23.169   0.933
53648W        W15069  22.167   4.865   2.215
53649W        W15070  32.484  40.018  11.521
53650W        W15071  32.535  44.260   1.702
53651W        W15072   3.228  34.962  14.777
53652W        W15073  32.030  17.617  12.393
53653W        W15074  26.643  21.158   2.756
53654W        W15075  14.194  20.205   0.939
53655W        W15076  35.864  43.839   1.886
53656W        W15077  26.082   4.257  12.876
53657W        W15078  39.994  43.490  14.792
53658W        W15079   7.778  21.195  10.413
53659W        W15080  35.361  25.008   2.256
53660W        W15081  38.948  11.183   2.266
53661W        W15082  22.710   6.205   4.780
53662W        W15083  16.294  32.470   3.782
53663W        W15084  44.904  41.326   1.864
53664W        W15085  12.351  30.618  10.953
53665W        W15086  21.101  25.010   9.993
53666W        W15087   2.439  32.961  13.350
53667W        W15088  29.971  31.475   4.628
53668W        W15089   4.268  16.094  14.481
53669W        W15090  17.107   1.373  11.017
53670W        W15091  31.421  20.148  14.026
53671W        W15092  23.640  22.063  11.111
53672W        W15093  37.003   2.434  13.862
53673W        W15094  40.541  25.479   4.127
53674W        W15095  36.457  41.389  10.628
53675W        W15096   9.352   4.833  12.846
53676W        W15097  33.570   3.769  12.389
53677W        W15098  23.175  42.924  10.969
53678W        W15099  15.185  29.979   5.091
53679W        W15100  20.078  30.128   4.808
53680W        W15101  15.599  31.616  11.575
53681W        W15102  25.676  42.485  13.061
53682W        W15103  38.555  26.476  11.127
53683W        W15104  17.078  32.545   3.775
53684W        W15105   7.330  18.199  14.454
53685W        W15106  39.938  11.847   0.822
53686W        W15107  37.440  25.051   4.658
53687W        W15108   3.297  18.775  12.919
53688W        W15109  24.992  39.809  12.969
53689W        W15110   7.912  39.851   0.836
53690W        W15111  29.142  19.060   1.862
53691W        W15112  17.231  32.073  12.886
53692W        W15113   1.795  41.490   1.754
53693W        W15114  25.637  33.611   2.691
53694W        W15115   0.780   4.317   4.333
53695W        W15116  31.914  37.580   2.778
53696W        W15117  12.849   9.353  13.380
53697W        W15118  26.676  32.888  11.032
53698W        W15119  24.115  15.293   4.233
53699W        W15120   4.215  20.637  11.605
53700W        W15121  39.922   1.391  13.977
53701W        W15122  38.500   4.745   1.923
53702W        W15123   3.232  13.738   3.858
53703W        W15124  28.939  22.111  12.037
53704W        W15125  27.626  40.034  11.592
53705W        W15126   9.252  17.794   1.748
53706W        W15127   5.384   3.860  10.410
53707W        W15128  20.256  39.442   4.730
53708W        W15129  15.615  39.948   3.278
53709W        W15130  40.500   5.224   4.659
53710W        W15131  15.088  38.400   0.927
53711W        W15132  14.624  38.410  14.379
53712W        W15133  15.229   1.458   3.350
53713W        W15134   6.351   0.428   4.218
53714W        W15135   1.240  17.166   4.641
53715W        W15136  31.508  30.028  12.040
53716W        W15137  23.675  11.208   4.827
53717W        W15138  29.528   7.680  14.409
53718W        W15139  12.262  26.561   4.714
53719W        W15140   0.987   3.930  14.363
53720W        W15141  42.343   8.322  13.390
53721W        W15142   5.364  24.644   3.691
53722W        W15143  40.506  19.259  12.042
53723W        W15144  30.582   1.252  12.538
53724W        W15145  26.113   4.919   2.876
53725W        W15146  22.146  31.062  13.411
53726W        W15147  33.898  17.150  13.949
53727W        W15148  37.016  43.013  13.511
53728W        W15149  22.536  26.097  13.514
53729W        W15150  12.142  42.328   3.172
53730W        W15151  22.612  14.208   0.412
53731W        W15152  38.344  25.219  14.814
53732W        W15153  35.477   7.247   3.684
53733W        W15154  37.367  24.625   4.615
53734W        W15155   1.833   1.426   3.333
53735W        W15156   1.769  42.925   1.804
53736W        W15157  37.358  28.657  13.920
53737W        W15158  14.654  10.287   0.292
53738W        W15159   1.877  39.023  10.014
53739W        W15160  25.617  40.894   1.843
53740W        W15161  15.804  28.986   5.789
53741W        W15162  20.698  21.176  13.881
53742W        W15163  42.416   4.883   2.411
53743W        W15164  27.194  33.381   2.693
53744W        W15165   0.433  22.516   2.256
53745W        W15166  27.494  43.427  10.940
53746W        W15167  13.724   4.333   0.949
53747W        W15168  35.523  27.464   3.353
53748W        W15169  14.810  21.650  14.818
53749W        W15170  28.538   5.799   0.890
53750W        W15171  40.356  43.483  10.511
53751W        W15172  40.355  30.030   2.359
53752W        W15173  14.186  26.488  14.853
53753W        W15174  38.821  38.969  12.049
53754W        W15175  24.982  33.450   3.783
53755W        W15176  19.546  34.073   1.758
53756W        W15177  42.285  41.314   3.630
53757W        W15178   6.910   8.382   1.217
53758W        W15179  41.005  31.510  11.387
53759W        W15180  34.519  38.978  12.938
53760W        W15181  17.110  42.840   1.436
53761W        W15182   8.737  43.941   0.451
53762W        W15183   7.911  37.420   4.338
53763W        W15184   3.445   9.882  11.582
53764W        W15185  33.548  30.089   2.383
53765W        W15186  15.175  33.583  14.867
53766W        W15187  13.277  26.185   4.728
53767W        W15188   0.866  10.263  10.070
53768W        W15189  19.215  35.587  13.486
53769W        W15190  35.421  28.071  13.370
53770W        W15191  10.714  31.062   2.290
53771W        W15192  28.024   6.400  14.350
53772W        W15193  36.393  42.338  10.610
53773W        W15194   2.317  43.871  13.367
53774W        W15195   2.463  21.647   0.370
53775W        W15196  25.015   4.737  11.447
53776W        W15197  38.567  44.327   0.918
53777W        W15198  24.504  14.804  13.453
53778W        W15199  20.159  39.529  11.911
53779W        W15200  41.347  16.642  14.004
53780W        W15201  12.791  24.633  11.433
53781W        W15202  11.667  22.128   3.784
53782W        W15203   7.763  40.899   2.752
53783W        W15204   6.813  23.588  12.037
53784W        W15205   7.412  37.984   2.844
53785W        W15206   7.888  27.145  14.447
53786W        W15207   9.740   6.392   3.251
53787W        W15208  30.031  33.964   3.794
53788W        W15209  19.263  14.271  10.977
53789W        W15210   0.982  36.958   3.835
53790W        W15211   3.856  28.058   1.798
53791W        W15212  28.948   6.820   4.772
53792W        W15213  24.137   4.253  13.379
53793W        W15214  30.023  41.958  13.503
53794W        W15215  43.398  30.992   3.258
53795W        W15216   6.392  30.487  10.090
53796W        W15217  41.842   6.277  10.074
53797W        W15218   3.314  12.175  12.047
53798W        W15219  17.201  30.597   0.394
53799W        W15220  39.457  31.078  12.966
53800W        W15221  44.837   2.800  13.475
53801W        W15222  13.147  22.529  13.897
53802W        W15223  19.213  20.157   0.799
53803W        W15224  40.869   3.780  12.987
53804W        W15225  15.785  26.983  14.009
53805W        W15226  30.632  24.067  12.436
53806W        W15227   2.731   3.904  13.950
53807W        W15228  40.479  21.750  13.838
53808W        W15229  38.899  35.106  11.990
53809W        W15230  26.005  35.076   1.904
53810W        W15231  31.411  41.339  13.965
53811W        W15232   6.403  30.600  14.330
53812W        W15233  18.715  28.522  10.919
53813W        W15234   1.425   8.861   1.335
53814W        W15235   7.367  36.856  12.838
53815W        W15236  22.519   1.783   3.266
53816W        W15237  14.283  15.095   3.796
53817W        W15238  13.794  38.046  11.098
53818W        W15239  14.152  13.748   4.639
53819W        W15240   5.373  31.480  13.500
53820W        W15241  40.966  27.024   1.319
53821W        W15242  15.312  21.641  12.445
53822W        W15243  28.667  36.507   0.727
53823W        W15244   3.802  36.353  13.448
53824W        W15245   0.872  16.768  13.423
53825W        W15246  15.716  23.989  10.061
53826W        W15247  37.363  34.441  14.827
53827W        W15248  29.542  35.014  13.325
53828W        W15249  34.910  23.204   4.114
53829W        W15250  36.012   5.276  14.484
53830W        W15251  10.844  20.272   1.900
53831W        W15252   3.899  41.825   3.736
53832W        W15253  23.506  43.819  12.350
53833W        W15254   0.792  40.374   3.718
53834W        W15255   7.276  31.086  11.528
53835W        W15256  42.523   0.863  10.482
53836W        W15257  36.888  35.033  13.341
53837W        W15258  17.217  23.527   5.115
53838W        W15259  21.583   8.797   1.359
53839W        W15260  30.462  15.102  14.389
53840W        W15261  35.027   6.207  12.963
53841W        W15262  37.352  28.629  13.339
53842W        W15263  40.498  27.662  10.906
53843W        W15264  42.980  28.022   5.212
53844W        W15265  40.052  26.956   1.442
53845W        W15266  23.052   3.919  14.953
53846W        W15267  22.213  35.565   2.210
53847W        W15268   6.248   5.911   4.303
53848W        W15269  24.627   4.882   4.838
53849W        W15270  33.019  21.522  12.883
53850W        W15271  26.690  15.790  10.544
53851W        W15272  21.592  19.776   3.851
53852W        W15273  15.738  17.752   2.709
53853W        W15274  32.563  35.083  10.964
53854W        W15275  13.643  24.999   1.720
53855W        W15276  29.025  11.134   1.243
53856W        W15277   2.262  30.613  12.949
53857W        W15278  11.186  42.311   3.770
53858W        W15279  37.909  24.533  11.397
53859W        W15280  12.320  27.657  10.900
53860W        W15281  35.904  43.411   3.186
53861W        W15282  20.679  32.516  14.292
53862W        W15283  41.829  23.702  11.455
53863W        W15284  18.760  21.186  13.000
53864W        W15285  13.711  31.559   2.234
53865W        W15286   5.432   9.826  13.387
53866W        W15287   2.375  16.287  10.492
53867W        W15288   6.722   1.970   4.660
53868W        W15289   5.424  14.314  10.563
53869W        W15290  44.872  44.786  14.418
53870W        W15291  21.623  33.998   0.336
53871W        W15292   2.865  19.201  14.021
53872W        W15293   6.838  26.698  14.285
53873W        W15294   2.907   4.853   0.356
53874W        W15295  36.920   7.861   0.248
53875W        W15296  44.362  20.653  12.972
53876W        W15297   7.751  19.563   1.715
53877W        W15298   1.794   5.744  14.789
53878W        W15299  32.916  43.766  13.510
53879W        W15300  19.634   7.786   2.333
53880W        W15301  32.905  10.338  12.844
53881W        W15302  36.566  37.404   2.765
53882W        W15303  27.515   4.745   3.221
53883W        W15304  23.650   8.803   1.731
53884W        W15305  26.150  44.493   2.236
53885W        W15306  43.886  19.200   0.421
53886W        W15307  20.244  37.903  14.331
53887W        W15308   9.686  33.485   2.669
53888W        W15309  17.650   3.346   0.329
53889W        W15310  11.211  30.440  13.380
53890W        W15311  14.279  41.458  10.449
53891W        W15312  38.003  14.097   2.765
53892W        W15313  26.188   9.757  11.090
53893W        W15314  29.434  41.810   1.820
53894W        W15315  22.693  10.875  14.375
53895W        W15316  28.518   0.343  14.828
53896W        W15317  23.015  42.329   0.943
53897W        W15318  38.989  33.441   1.315
53898W        W15319  18.138  24.698   1.407
53899W        W15320  35.424  11.261   4.145
53900W        W15321  24.554  40.943  11.953
53901W        W15322  38.345  18.178  12.970
53902W        W15323  10.224   4.703  13.852
53903W        W15324  38.903  41.447  11.943
53904W        W15325  14.179  41.425  10.997
53905W        W15326  28.461  30.103   4.335
53906W        W15327  34.884  15.137   4.767
53907W        W15328  20.748   1.317   3.340
53908W        W15329   8.315  42.974   0.337
53909W        W15330  44.359  42.431   0.758
53910W        W15331   4.923  36.035  10.512
53911W        W15332   7.220   6.309   1.362
53912W        W15333  25.990   7.191  12.063
53913W        W15334  11.712   8.295   0.371
53914W        W15335  27.559   4.809  10.611
53915W        W15336  15.193  28.494   1.736
53916W        W15337  36.008   6.271  12.934
53917W        W15338   2.754  22.706  10.542
53918W        W15339   9.676  36.979   3.848
53919W        W15340  14.764  22.605   4.803
53920W        W15341  42.932  39.029   4.311
53921W        W15342  27.595  26.185  12.520
53922W        W15343  34.898  24.141  12.481
53923W        W15344  14.679  30.062   5.690
53924W        W15345  44.905  35.102  11.975
53925W        W15346  26.615  34.077   4.217
53926W        W15347  16.742  36.854  12.994
53927W        W15348  27.059  15.655  14.817
53928W        W15349  33.553  36.451   2.774
53929W        W15350  34.115  16.212   0.896
53930W        W15351  37.423  10.381   2.662
53931W        W15352  17.720  19.774  13.846
53932W        W15353  25.980  38.560  14.395
53933W        W15354   9.792  34.429  14.838
53934W        W15355  29.967  18.790  12.525
53935W        W15356  34.555  36.484   3.233
53936W        W15357   2.428   8.381   1.286
53937W        W15358  13.727  15.299  10.514
53938W        W15359  17.129  42.407  11.000
53939W        W15360  44.281  14.182  14.372
53940W        W15361  36.974   0.820   1.703
53941W        W15362  14.269  30.588  11.438
53942W        W15363   6.872   4.299   0.315
53943W        W15364   2.938  15.171  14.893
53944W        W15365  23.123  38.426  11.606
53945W        W15366   7.852  18.628   2.700
53946W        W15367  12.830   1.436  12.393
53947W        W15368  41.990  36.070  10.898
53948W        W15369  34.912  12.200   4.206
53949W        W15370  18.126  33.990   1.271
53950W        W15371  20.046  38.474   0.463
53951W        W15372  35.062  28.626  13.980
53952W        W15373  19.122   5.220  11.595
53953W        W15374  33.934  24.713  10.989
53954W        W15375  22.599  26.661   1.916
53955W        W15376  23.731  26.073   1.816
53956W        W15377  20.183  41.870   1.231
53957W        W15378  27.022   6.745  10.493
53958W        W15379   5.380  21.116   3.169
53959W        W15380   9.850  35.058   0.250
53960W        W15381   1.959   2.227   2.325
53961W        W15382   8.733  20.585  14.282
53962W        W15383  44.357  13.667  13.313
53963W        W15384  27.603  34.511  12.071
53964W        W15385  41.398  34.585   3.634
53965W        W15386  40.369  19.081   4.697
53966W        W15387  21.742  35.595  14.861
53967W        W15388  42.518  15.218  13.342
53968W        W15389  17.770  28.500  11.549
53969W        W15390   3.441  25.656  13.358
53970W        W15391  42.833  10.226  11.534
53971W        W15392  16.146  10.877   1.267
53972W        W15393  32.050  30.498  13.853
53973W        W15394   6.415  24.482  14.979
53974W        W15395   8.743  20.073  11.066
53975W        W15396  42.892  42.505  12.460
53976W        W15397  32.561   0.400   1.243
53977W        W15398  20.584   7.316   0.887
53978W        W15399  31.631   1.831  14.787
53979W        W15400  34.940  42.011   2.674
53980W        W15401  38.972  19.638  14.849
53981W        W15402  41.901  36.879   3.211
53982W        W15403  43.932  20.147   0.294
53983W        W15404  42.904  41.886   1.791
53984W        W15405  44.457  39.847   4.166
53985W        W15406  40.839  17.301   2.290
53986W        W15407  28.583   2.438  14.886
53987W        W15408   5.787  33.981   0.928
53988W        W15409  27.578   6.760  11.541
53989W        W15410  20.577   2.810  11.566
53990W        W15411  11.759  11.684  12.080
53991W        W15412   4.286  39.955   2.187
53992W        W15413  10.362  44.494  14.312
53993W        W15414   8.852  21.656   2.358
53994W        W15415   3.260  37.934  13.990
53995W        W15416   1.771  39.852  13.470
53996W        W15417  30.990  11.142  12.912
53997W        W15418  33.029   0.830  13.450
53998W        W15419  17.101  28.118   0.455
53999W        W15420  12.324   1.446  12.916
54000W        W15421  15.597  25.662   1.261
54001W        W15422  31.014  12.650  14.361
54002W        W15423  35.913  40.481   4.299
54003W        W15424   2.772   0.269  12.857
54004W        W15425  16.570  15.780   4.782
54005W        W15426  21.546  16.155   3.364
54006W        W15427  16.604   7.777  11.092
54007W        W15428  15.270  16.115  13.531
54008W        W15429   6.846   6.248   4.248
54009W        W15430   4.314  19.654  11.509
54010W        W15431  22.110  33.014  13.912
54011W        W15432   2.233  11.167   3.823
54012W        W15433  24.610  14.625  11.865
54013W        W15434   9.222  38.530  13.548
54014W        W15435  13.215  23.140  10.595
54015W        W15436  22.203  41.297   3.363
54016W        W15437  29.487  30.572  13.325
54017W        W15438   8.706  13.695   1.227
54018W        W15439  30.443  31.510   1.439
54019W        W15440  17.234  32.984   4.689
54020W        W15441  38.026  16.591   4.300
54021W        W15442  24.651   2.239   2.812
54022W        W15443  31.419   1.769   0.438
54023W        W15444  27.022   7.754  13.817
54024W        W15445  44.455   1.914  10.958
54025W        W15446   9.802  13.332  13.910
54026W        W15447  31.136  33.500   3.803
54027W        W15448   7.331  41.032   3.186
54028W        W15449  24.035  40.433   2.766
54029W        W15450  32.978   9.247   0.845
54030W        W15451   1.837  19.675   3.301
54031W        W15452  44.929  40.819  11.561
54032W        W15453  16.282   3.367   0.922
54033W        W15454   8.804  25.582  11.881
54034W        W15455  43.386  20.725   1.371
54035W        W15456   9.394  12.620  12.545
54036W        W15457  36.851  32.018  12.386
54037W        W15458   2.847  37.967   4.710
54038W        W15459  25.979  34.464  10.937
54039W        W15460   0.882   2.905  10.464
54040W        W15461  16.807  33.008  11.980
54041W        W15462  32.128  38.872   1.312
54042W        W15463  41.972  16.204  14.866
54043W        W15464  26.523   3.728   1.802
54044W        W15465  41.306  17.063   0.790
54045W        W15466  23.987  12.750   3.186
54046W        W15467  25.666  10.384  11.043
54047W        W15468  42.341  41.393   1.412
54048W        W15469  43.915  14.119   1.700
54049W        W15470  26.094  19.644  13.393
54050W        W15471  35.580   7.699   1.815
54051W        W15472  43.843  41.517  10.422
54052W        W15473  27.627  13.662   1.833
54053W        W15474  25.599  24.152  10.931
54054W        W15475  40.390  38.918   5.218
54055W        W15476  32.400   8.814   0.482
54056W        W15477   1.908  20.047  12.403
54057W        W15478  38.358  14.337   0.352
54058W        W15479  14.813  38.995  14.443
54059W        W15480  11.742  25.513   0.410
54060W        W15481  29.036  23.039   4.299
54061W        W15482  24.149   8.748   1.230
54062W        W15483  40.942  32.079  12.469
54063W        W15484  43.502  15.190   5.630
54064W        W15485   7.247  44.324   3.703
54065W        W15486  18.679  16.616   0.264
54066W        W15487  13.832  42.448   4.120
54067W        W15488  36.065  24.713  10.624
54068W        W15489  12.633  33.494  14.391
54069W        W15490  31.974  24.643   1.774
54070W        W15491  17.232  23.492  11.483
54071W        W15492  31.546  10.770  12.412
54072W        W15493  15.280  38.077  14.029
54073W        W15494   8.404  25.599   2.304
54074W        W15495  16.259  34.460  10.159
54075W        W15496  18.249  21.668   4.259
54076W        W15497   7.675  29.450  12.568
54077W        W15498  44.002  24.545  11.989
54078W        W15499  28.990  31.425   0.826
54079W        W15500  37.396  44.869   4.622
54080W        W15501  23.060  41.302   4.633
54081W        W15502  18.555  20.567  10.455
54082W        W15503  38.883  32.974   4.681
54083W        W15504   0.876  17.707  13.365
54084W        W15505  15.773   7.197  10.083
54085W        W15506  43.326  44.403  13.912
54086W        W15507  16.076  22.656   3.855
54087W        W15508  33.510  23.693  11.591
54088W        W15509   6.347  42.973  11.452
54089W        W15510  44.854  19.155   0.956
54090W        W15511   2.358  22.103   2.785
54091W        W15512  11.628   4.216   4.672
54092W        W15513  40.497   1.803   1.343
54093W        W15514   9.182  39.507   1.353
54094W        W15515  39.854   3.377   4.188
54095W        W15516  17.761  16.169   1.812
54096W        W15517   9.765  39.828  10.449
54097W        W15518  24.998  39.465   3.233
54098W        W15519  17.769  23.067   4.719
54099W        W15520  30.939  30.940  13.870
54100W        W15521  24.221  23.719  13.027
54101W        W15522  38.364  12.762  10.958
54102W        W15523  44.500  29.544   0.378
54103W        W15524   8.819  36.912   4.237
54104W        W15525  31.122  37.010   1.425
54105W        W15526  18.692   4.321  11.517
54106W        W15527  26.132  10.236   3.217
54107W        W15528  29.469  18.294   4.798
54108W        W15529   9.824  21.033   2.689
54109W        W15530   2.355  43.345   0.739
54110W        W15531  23.125  24.483   4.158
54111W        W15532  18.067  18.704   2.771
54112W        W15533  41.949  17.652  10.995
54113W        W15534  40.528   0.898  12.902
54114W        W15535  24.544  20.269  10.494
54115W        W15536   7.730  43.021   2.763
54116W        W15537  32.634  15.217   0.743
54117W        W15538  33.969  35.485   2.740
54118W        W15539  19.769  26.573  10.979
54119W        W15540  14.308  18.768   2.711
54120W        W15541  27.580  17.727   4.801
54121W        W15542  18.055  35.446  12.929
54122W        W15543  18.719  38.927  11.997
54123W        W15544  13.299  37.532   5.244
54124W        W15545  34.892   0.249   0.794
54125W        W15546  22.652   8.182  13.795
54126W        W15547  14.182  15.716   4.701
54127W        W15548  16.251  42.968   0.771
54128W        W15549  43.805  20.145  12.988
54129W        W15550  40.998  44.846  14.455
54130W        W15551  15.325  33.579  12.482
54131W        W15552  40.370  29.054   0.388
54132W        W15553   7.786  21.024   3.188
54133W        W15554  14.647   4.836  10.499
54134W        W15555  33.058  27.060  12.992
54135W        W15556  12.341  43.844  12.975
54136W        W15557  15.261  19.676  10.629
54137W        W15558  13.803  17.260   1.437
54138W        W15559  18.765  33.410   0.255
54139W        W15560  29.498  26.954   0.957
54140W        W15561   5.204   8.822  13.807
54141W        W15562  16.201   3.772  11.947
54142W        W15563  19.175  26.572   0.869
54143W        W15564  35.948  34.576  11.514
54144W        W15565  41.318  30.096  13.056
54145W        W15566  25.128  22.064   4.806
54146W        W15567  25.688  26.980  13.899
54147W        W15568  27.651  39.507  13.012
54148W        W15569  28.596  35.023   0.361
54149W        W15570  32.514  44.284   4.617
54150W        W15571  36.079   2.395   1.772
54151W        W15572   6.344   3.724  11.509
54152W        W15573   4.413  36.558  12.566
54153W        W15574  21.021  38.390   0.271
54154W        W15575  35.483  42.509   2.862
54155W        W15576  10.817  38.918   9.458
54156W        W15577  35.531  26.134   2.718
54157W        W15578  24.976   6.357   1.914
54158W        W15579  12.239   3.292  14.003
54159W        W15580   3.719   1.779  11.496
54160W        W15581  18.624  44.812  14.986
54161W        W15582  13.752  43.374   4.702
54162W        W15583  43.302  18.594   0.818
54163W        W15584  34.402  22.152   4.725
54164W        W15585   3.263   2.395   0.408
54165W        W15586  13.750  39.004  13.804
54166W        W15587   0.896   4.362   1.422
54167W        W15588   6.265  44.957   3.169
54168W        W15589  26.563  24.031  13.835
54169W        W15590  32.542  24.574  11.979
54170W        W15591  22.152  32.452  10.913
54171W        W15592  28.031  31.568   3.207
54172W        W15593  27.974  38.367   0.786
54173W        W15594   3.415  43.326   0.917
54174W        W15595   4.382   9.248   1.800
54175W        W15596  18.250  21.168   1.382
54176W        W15597  15.248  25.072   2.703
54177W        W15598  22.731  22.651  10.630
54178W        W15599   8.253  14.222   3.378
54179W        W15600  10.293   9.800  13.795
54180W        W15601  44.484  12.347   1.221
54181W        W15602  22.086  37.033   3.148
54182W        W15603  34.440   9.354   4.140
54183W        W15604  33.030  14.160   1.344
54184W        W15605  19.710   9.699   4.755
54185W        W15606  22.112  28.042   1.444
54186W        W15607  39.871  37.428  14.794
54187W        W15608  36.365  15.310  10.475
54188W        W15609  10.647  28.599  11.056
54189W        W15610   0.749   8.400  11.117
54190W        W15611  25.986  18.561  13.313
54191W        W15612  27.636  30.150  12.052
54192W        W15613  20.668   3.419   2.729
54193W        W15614  42.402  40.974   2.807
54194W        W15615  43.480  44.929  14.469
54195W        W15616  27.634  14.637  12.377
54196W        W15617  12.670  21.258   3.152
54197W        W15618  28.569  34.001   3.760
54198W        W15619  30.051   6.851   0.946
54199W        W15620   3.385  27.983   1.752
54200W        W15621  36.070  24.610  12.914
54201W        W15622  38.822   7.822  10.943
54202W        W15623  15.675  17.701  10.894
54203W        W15624   1.934  15.137   4.745
54204W        W15625   8.878  10.217   0.347
54205W        W15626  13.782   4.409   2.854
54206W        W15627  33.423  14.169  10.902
54207W        W15628  26.607   6.200  11.544
54208W        W15629  14.319  29.173   2.393
54209W        W15630  44.348  44.809   4.333
54210W        W15631  30.013  22.619  12.919
54211W        W15632  44.941  37.499  14.387
54212W        W15633  21.180  12.349   3.227
54213W        W15634   8.843  27.488  12.964
54214W        W15635  29.068  22.248  10.639
54215W        W15636  28.141  19.541   1.752
54216W        W15637  14.324  20.764  14.351
54217W        W15638   4.362  25.118  13.505
54218W        W15639  38.465  17.092   9.923
54219W        W15640  33.469  16.641  14.384
54220W        W15641  16.643  29.437   0.851
54221W        W15642  37.516  33.618  12.508
54222W        W15643  28.992  38.074   1.723
54223W        W15644  29.071  14.155   2.249
54224W        W15645  29.448  27.053   0.392
54225W        W15646   0.335  14.650   0.293
54226W        W15647  30.925   6.259   4.766
54227W        W15648  10.849  36.586  11.111
54228W        W15649  28.074  28.991   2.692
54229W        W15650  35.378  15.651   1.764
54230W        W15651  32.130  36.438   2.839
54231W        W15652  18.054  33.587  12.095
54232W        W15653  13.676  12.195  13.919
54233W        W15654  38.571  30.114   3.634
54234W        W15655  13.792  15.748   1.856
54235W        W15656  10.261  40.890  12.345
54236W        W15657  17.701  11.636   1.927
54237W        W15658  20.086   8.198   9.666
54238W        W15659  10.656  10.780  14.907
54239W        W15660   3.375   7.400   1.738
54240W        W15661   4.235  11.350   4.742
54241W        W15662  16.161  36.522   0.303
54242W        W15663  44.916  10.816   3.815
54243W        W15664  15.742   3.751   4.720
54244W        W15665  26.579  35.076   3.798
54245W        W15666  23.736   8.231  10.920
54246W        W15667  32.021   4.878  11.466
54247W        W15668  36.480  28.069   5.104
54248W        W15669  38.994   9.844   1.441
54249W        W15670  32.919   2.288   1.384
54250W        W15671  15.305  24.183  12.516
54251W        W15672  18.612  22.740  14.460
54252W        W15673  34.042  35.995   0.741
54253W        W15674  30.583   8.373   0.281
54254W        W15675  38.435  32.079   4.601
54255W        W15676  40.941  42.003   0.315
54256W        W15677  44.495  16.786   1.231
54257W        W15678   8.721  23.562   3.769
54258W        W15679  25.511   3.344   0.787
54259W        W15680  31.935   6.207  14.967
54260W        W15681   9.270  12.664   1.698
54261W        W15682  18.712   7.848   0.398
54262W        W15683  35.559  16.606   4.700
54263W        W15684  12.761  35.890  12.372
54264W        W15685  26.066  22.662  10.586
54265W        W15686  18.206  17.219   1.740
54266W        W15687  37.985  14.333   4.352
54267W        W15688  41.371  11.319  14.819
54268W        W15689   1.922  13.211  11.541
54269W        W15690  21.179  29.963   4.303
54270W        W15691   3.817  39.064   0.936
54271W        W15692   1.278   0.271   2.253
54272W        W15693   6.911  38.486  14.304
54273W        W15694  22.198  10.383  14.302
54274W        W15695  40.381  28.474   3.228
54275W        W15696  32.930  33.963  12.089
54276W        W15697  11.631  35.601   3.230
54277W        W15698  22.671   5.720  12.964
54278W        W15699  33.894  27.664  13.025
54279W        W15700  22.128  30.019  13.059
54280W        W15701  24.058  27.508  13.829
54281W        W15702  38.959  17.139   0.890
54282W        W15703  14.771  41.494   2.361
54283W        W15704   7.809  22.173   2.255
54284W        W15705  19.117  42.029   4.750
54285W        W15706   1.773  27.977   4.804
54286W        W15707  11.626  28.022  14.415
54287W        W15708  25.589  39.901  10.140
54288W        W15709  13.840  15.258   2.385
54289W        W15710   7.255  42.359  14.933
54290W        W15711   5.262  27.133  12.417
54291W        W15712   9.889  36.576  14.974
54292W        W15713   6.193   0.365  12.996
54293W        W15714  33.448  24.678   0.471
54294W        W15715  15.145  40.009  11.886
54295W        W15716  28.466  28.565   0.868
54296W        W15717   7.256  35.016   0.869
54297W        W15718   0.780   8.343   1.694
54298W        W15719  34.930  36.061  14.998
54299W        W15720  17.118  36.856  14.286
54300W        W15721   5.363  15.624  12.424
54301W        W15722  24.622  31.111  13.388
54302W        W15723  11.736  39.017   4.615
54303W        W15724  35.869  16.216  12.998
54304W        W15725   4.248  30.121  11.555
54305W        W15726   3.717  34.369   0.829
54306W        W15727  28.015  34.508  14.845
54307W        W15728  11.299  40.829   0.476
54308W        W15729  29.111  37.376  14.867
54309W        W15730   7.794  15.099   2.374
54310W        W15731  37.579  31.924  13.038
54311W        W15732  13.691  35.985  12.933
54312W        W15733  21.738  10.795   3.156
54313W        W15734   7.335  17.797  10.571
54314W        W15735  11.179  39.985  12.990
54315W        W15736   6.402  42.849   4.235
54316W        W15737  27.082  19.071   3.701
54317W        W15738  40.994  11.364   2.337
54318W        W15739  24.178   0.274   1.373
54319W        W15740  19.610  37.857   0.904
54320W        W15741  37.509   2.289   1.404
54321W        W15742  30.593  16.172  11.076
54322W        W15743  23.044  11.129   0.867
54323W        W15744  32.609  17.225   3.858
54324W        W15745  36.510  44.828   2.389
54325W        W15746  23.170   7.319   2.877
54326W        W15747   2.801  23.657  14.783
54327W        W15748  33.400  11.269   1.374
54328W        W15749  32.945   8.258  11.545
54329W        W15750  14.782  12.809  12.898
54330W        W15751  39.932   9.870  13.469
54331W        W15752  12.332  22.546   0.402
54332W        W15753  19.771  27.545   4.338
54333W        W15754   4.447  10.837  14.792
54334W        W15755  26.647   3.281   0.363
54335W        W15756  23.673  32.108   0.325
54336W        W15757  35.359  42.507   4.689
54337W        W15758  10.143  44.423   1.437
54338W        W15759  14.599  26.472  10.622
54339W        W15760  20.627   3.376   2.212
54340W        W15761  22.212  18.139   4.257
54341W        W15762  33.581   7.713   0.446
54342W        W15763  33.909  38.430   4.240
54343W        W15764  36.046   1.307   3.757
54344W        W15765   7.669  41.982   2.192
54345W        W15766  31.519  22.235   2.349
54346W        W15767  39.848   8.813  13.330
54347W        W15768  12.791  37.498  11.468
54348W        W15769  19.221   1.479  12.063
54349W        W15770  38.330  26.527  11.514
54350W        W15771  36.065  35.985   1.770
54351W        W15772  21.056  21.711   2.220
54352W        W15773  41.915  34.528  13.952
54353W        W15774   2.256  21.634   1.935
54354W        W15775   5.860  41.042   3.785
54355W        W15776  24.621  44.796   0.246
54356W        W15777  10.329  11.249   0.422
54357W        W15778  40.850  40.490  13.410
54358W        W15779  20.601  25.583  10.549
54359W        W15780  40.929  39.061  12.456
54360W        W15781  30.644   4.213  10.407
54361W        W15782  28.607  18.200   0.807
54362W        W15783   7.346  40.322   0.878
54363W        W15784  15.712   2.726  14.846
54364W        W15785   3.288   0.385  11.589
54365W        W15786  29.468  37.057   3.689
54366W        W15787  19.114  20.059  12.456
54367W        W15788  32.015  17.234   5.232
54368W        W15789  18.162  39.532  10.456
54369W        W15790  34.018   5.439  10.106
54370W        W15791  16.705  25.471  10.931
54371W        W15792  38.496  41.336   0.955
54372W        W15793  26.128  44.264  13.393
54373W        W15794  17.559   9.349  14.004
54374W        W15795  28.068  44.315   1.886
54375W        W15796  13.668  17.210   4.219
54376W        W15797  34.374  33.066  11.440
54377W        W15798  19.654  34.877  13.505
54378W        W15799  38.395   1.901   0.286
54379W        W15800  33.531   2.338  13.974
54380W        W15801   6.405  13.125   0.417
54381W        W15802  21.096  30.065   3.283
54382W        W15803   1.974   2.352  13.861
54383W        W15804   5.876  10.701  12.845
54384W        W15805  19.562  40.993  11.866
54385W        W15806  13.647  20.563   4.600
54386W        W15807  39.414  31.021   0.283
54387W        W15808   4.338   9.824   2.320
54388W        W15809  42.930   9.865  13.941
54389W        W15810  12.749  29.612  14.807
54390W        W15811  25.578  21.587   0.952
54391W        W15812  13.704   2.838  11.560
54392W        W15813  10.169  42.004   9.986
54393W        W15814   4.830  40.423   5.135
54394W        W15815   6.798   1.255   9.614
54395W        W15816  34.081  39.512   1.743
54396W        W15817  16.305  36.973  10.420
54397W        W15818  33.978   4.290  11.067
54398W        W15819  21.735   4.265  12.495
54399W        W15820   0.753   9.856  11.416
54400W        W15821  38.887   1.769  14.428
54401W        W15822  32.510  36.480  10.427
54402W        W15823  35.902  36.925  11.502
54403W        W15824  19.721   5.799   3.639
54404W        W15825  28.502  38.069   4.210
54405W        W15826  20.268  11.802   0.294
54406W        W15827  26.595   7.907   0.390
54407W        W15828  22.570  17.603   0.444
54408W        W15829  21.610  42.963   5.123
54409W        W15830  14.601  42.814  12.567
54410W        W15831   5.782  12.139  12.069
54411W        W15832   6.890  15.680  13.933
54412W        W15833  16.688  19.258   1.346
54413W        W15834  41.484  40.328  11.430
54414W        W15835  27.521  16.107   3.780
54415W        W15836  36.508  25.024  10.636
54416W        W15837  25.040  28.577   2.372
54417W        W15838  19.618  17.087  11.513
54418W        W15839  17.230   8.668   3.240
54419W        W15840  13.645  29.052  12.938
54420W        W15841  39.431  17.162   1.383
54421W        W15842  17.588  28.575   0.481
54422W        W15843  25.694   3.863  13.477
54423W        W15844  40.305  18.621  12.928
54424W        W15845  23.061  15.206   1.737
54425W        W15846   5.842  26.069   1.735
54426W        W15847  44.781   6.778   2.804
54427W        W15848  24.027   3.357  13.445
54428W        W15849   7.783  31.093  14.341
54429W        W15850  39.953  23.034   1.744
54430W        W15851  36.494  31.982  13.884
54431W        W15852  15.185  18.066  14.516
54432W        W15853  17.196  16.298  14.854
54433W        W15854  39.029  28.148  14.370
54434W        W15855  28.436  26.578   2.794
54435W        W15856  34.522  42.970  11.413
54436W        W15857  34.887  19.684  11.500
54437W        W15858  12.299  34.001   1.699
54438W        W15859  35.500   7.337   4.755
54439W        W15860  29.969   3.267   3.822
54440W        W15861  22.637  36.478   9.964
54441W        W15862  10.853   2.779   0.285
54442W        W15863   3.260  41.522  13.981
54443W        W15864   6.832   3.294   3.829
54444W        W15865  16.701  28.113   4.816
54445W        W15866   2.380  11.747  12.558
54446W        W15867  41.304  27.641   0.925
54447W        W15868  41.016  13.789   1.358
54448W        W15869  44.319  19.542   3.205
54449W        W15870  21.034  29.491   2.810
54450W        W15871  34.533  42.481   2.289
54451W        W15872  21.620  20.177   0.849
54452W        W15873  23.075  11.159  12.940
54453W        W15874   4.901  38.561  12.033
54454W        W15875  21.145  23.661  10.033
54455W        W15876   0.937  32.113  13.935
54456W        W15877  24.644  15.741   4.677
54457W        W15878  23.540  25.563  14.465
54458W        W15879  27.559  11.637   0.744
54459W        W15880  21.533  20.229  12.005
54460W        W15881   6.291   9.675   3.354
54461W        W15882  13.270  33.002  10.528
54462W        W15883  10.315  13.260  13.029
54463W        W15884  11.179  13.838   0.386
54464W        W15885  28.514  34.536   0.800
54465W        W15886  18.196  19.097  10.499
54466W        W15887  23.649  13.132  10.993
54467W        W15888  38.953  25.688  14.959
54468W        W15889  23.095  36.413   1.737
54469W        W15890  10.290  33.948  11.964
54470W        W15891  21.051   8.685   4.746
54471W        W15892   2.241  36.909  12.924
54472W        W15893  34.891   4.337   2.891
54473W        W15894  30.961  23.177  13.857
54474W        W15895  38.488   7.411   1.792
54475W        W15896   6.364  28.018  12.572
54476W        W15897  18.692  10.261   1.934
54477W        W15898  33.573  16.120  14.762
54478W        W15899  34.019  29.045  14.483
54479W        W15900  11.697   8.380   4.665
54480W        W15901   5.438  41.821  11.585
54481W        W15902   3.246   0.275  14.935
54482W        W15903   4.758  38.519   1.444
54483W        W15904  36.035  18.723   0.411
54484W        W15905   4.743   0.410   4.790
54485W        W15906  23.537  13.160  13.036
54486W        W15907  26.631  31.038  11.985
54487W        W15908  19.084  13.778   9.620
54488W        W15909  36.046   4.738  12.452
54489W        W15910  11.706  36.975  11.443
54490W        W15911  39.356  13.755   1.912
54491W        W15912  14.701  16.128  13.044
54492W        W15913  30.958  21.679   1.363
54493W        W15914  39.007  24.173  10.987
54494W        W15915   8.802  29.956  12.344
54495W        W15916  20.106   0.966  13.439
54496W        W15917  42.354  33.624   0.762
54497W        W15918  25.051  38.502   2.808
54498W        W15919  26.975  23.124   4.317
54499W        W15920  14.231  18.713   1.714
54500W        W15921   7.910  44.504  13.006
54501W        W15922   4.814  22.734   2.381
54502W        W15923  38.025  34.375   1.230
54503W        W15924  11.705  38.560  14.028
54504W        W15925  37.961  12.823   3.650
54505W        W15926  38.940  25.200   9.958
54506W        W15927  37.535   3.888   1.818
54507W        W15928  14.797  28.605   1.325
54508W        W15929  26.124  19.606   1.333
54509W        W15930  20.660  37.847  11.008
54510W        W15931  37.572   4.880  12.374
54511W        W15932  16.137  40.418  14.295
54512W        W15933  37.987   2.385   4.688
54513W        W15934   9.303  22.655   0.811
54514W        W15935   5.690  16.199  12.832
54515W        W15936  42.483   2.385  14.977
54516W        W15937  17.176   8.767  12.879
54517W        W15938  31.458   2.471  12.408
54518W        W15939  40.916  25.073   2.745
54519W        W15940   4.726  41.814   1.923
54520W        W15941  24.602  18.620   3.669
54521W        W15942  16.109   1.278  11.905
54522W        W15943   8.737  13.626   3.199
54523W        W15944  29.988   0.785  12.486
54524W        W15945   4.764  29.581  11.959
54525W        W15946  40.350  41.979  14.798
54526W        W15947   6.823  21.193  10.521
54527W        W15948   0.404  30.646  14.474
54528W        W15949  11.197  26.189   2.679
54529W        W15950  32.405   2.854   1.714
54530W        W15951  22.576  38.412  13.520
54531W        W15952   5.225  12.138  13.037
54532W        W15953  11.737  13.236   2.342
54533W        W15954  28.062  32.402   3.365
54534W        W15955  15.205  23.581  14.985
54535W        W15956   4.937  35.563   4.717
54536W        W15957  33.387  15.733   1.242
54537W        W15958  17.694  20.672  10.528
54538W        W15959  43.491   2.271  13.847
54539W        W15960  31.934  25.045   4.674
54540W        W15961  20.076  31.030  14.499
54541W        W15962   0.319  15.100   2.252
54542W        W15963  22.730  21.644  13.046
54543W        W15964  22.671  42.327   4.229
54544W        W15965  41.795  17.613  14.984
54545W        W15966  16.282  11.778  11.101
54546W        W15967  17.194   5.208  11.502
54547W        W15968  14.723  29.590   2.867
54548W        W15969   2.862  34.539  12.857
54549W        W15970  20.540  41.976   3.325
54550W        W15971   2.730   3.789  11.942
54551W        W15972   4.871  16.274  13.334
54552W        W15973  18.112   2.866   0.966
54553W        W15974  31.992  13.218  10.468
54554W        W15975  10.182  14.293   2.408
54555W        W15976   0.390   0.950  13.965
54556W        W15977  38.844  15.638   2.829
54557W        W15978  22.595  42.027   1.870
54558W        W15979  34.056  28.011   2.356
54559W        W15980  17.669  33.991  10.083
54560W        W15981  22.219  29.488   3.661
54561W        W15982  17.220  22.584   0.821
54562W        W15983  43.000  20.199  13.802
54563W        W15984  17.266   2.428   2.764
54564W        W15985  25.598  14.641  11.455
54565W        W15986  43.289   0.443  12.965
54566W        W15987  36.592  10.383  10.644
54567W        W15988  26.632  40.834   3.648
54568W        W15989  25.092  35.968  14.949
54569W        W15990  31.954  17.136  12.022
54570W        W15991  19.142   4.718  14.379
54571W        W15992  31.466  15.170   3.157
54572W        W15993  22.180   8.712  10.134
54573W        W15994  41.488  25.062   0.810
54574W        W15995  42.928  27.110  12.831
54575W        W15996   8.874   1.410   4.776
54576W        W15997   0.475  26.011  10.421
54577W        W15998  21.263  29.106   4.262
54578W        W15999  26.640   6.207   3.337
54579W        W16000  14.283   4.253   0.765
54580W        W16001  21.559  43.833  14.820
54581W        W16002  39.985  11.251   1.749
54582W        W16003  43.328  18.692  11.565
54583W        W16004  17.588  18.061  14.895
54584W        W16005  40.454  11.827  11.391
54585W        W16006  35.403  23.103  11.457
54586W        W16007  31.906  44.843   3.751
54587W        W16008  32.070  20.078  12.397
54588W        W16009  18.240  27.489  11.550
54589W        W16010  38.416  36.483   3.310
54590W        W16011  19.620  39.432   1.838
54591W        W16012  44.381   5.381   5.126
54592W        W16013  19.555  22.179  11.008
54593W        W16014  33.611  29.534  10.929
54594W        W16015  14.641  22.621   3.205
54595W        W16016  29.504  15.595  11.492
54596W        W16017  40.009  29.608  10.407
54597W        W16018   1.750   1.426   2.377
54598W        W16019  14.212   6.768   1.858
54599W        W16020  33.550   2.740   0.417
54600W        W16021   9.237  33.398  13.875
54601W        W16022  13.305  30.154  14.427
54602W        W16023  37.409   1.965  11.027
54603W        W16024  26.952  26.085   1.735
54604W        W16025  15.775   5.307  13.063
54605W        W16026  40.881  24.206   2.877
54606W        W16027   8.359  35.573   3.173
54607W        W16028  25.495   6.353  12.838
54608W        W16029   9.272   9.394  12.407
54609W        W16030  12.791  13.748  11.495
54610W        W16031  12.662  32.630  14.910
54611W        W16032  43.825  28.579  13.347
54612W        W16033   1.277  24.646  10.540
54613W        W16034   8.861  28.105   3.654
54614W        W16035  18.150  18.743   0.730
54615W        W16036  14.225  21.120  13.794
54616W        W16037   7.361   5.814  12.864
54617W        W16038  31.558  31.948  11.397
54618W        W16039  35.395   0.806  10.573
54619W        W16040  20.754  32.402   0.330
54620W        W16041  22.212  28.589   3.738
54621W        W16042  35.391  24.066   0.945
54622W        W16043  34.058  28.547  13.519
54623W        W16044   3.905  17.104   4.332
54624W        W16045   4.427  32.029  12.871
54625W        W16046  13.818   5.418   2.226
54626W        W16047   8.325  11.334  13.357
54627W        W16048  11.720  39.063   5.127
54628W        W16049  10.642  35.966   3.681
54629W        W16050   0.342  24.659  10.522
54630W        W16051   5.863  44.901   0.389
54631W        W16052  29.046  44.897  12.558
54632W        W16053  37.043  31.644  13.817
54633W        W16054  24.561  14.811  13.963
54634W        W16055  19.669  34.604  11.463
54635W        W16056  23.121  43.348   3.185
54636W        W16057  13.242  11.697  11.086
54637W        W16058  39.050  23.527   1.703
54638W        W16059  28.945   7.682   0.933
54639W        W16060  29.977   6.327   3.226
54640W        W16061  15.754  11.810   4.194
54641W        W16062  20.558  15.602  10.612
54642W        W16063   5.729  42.375   0.859
54643W        W16064  11.322  14.140   2.778
54644W        W16065   7.762  14.669  13.813
54645W        W16066  21.601   1.939  13.869
54646W        W16067  22.183  33.525  11.029
54647W        W16068  34.447  20.142   2.809
54648W        W16069  19.754  21.175   0.733
54649W        W16070   1.355  26.534  11.597
54650W        W16071  40.379  44.337  14.393
54651W        W16072   0.303  13.751  12.345
54652W        W16073  26.019  28.641  11.930
54653W        W16074  16.625  20.165  12.475
54654W        W16075  43.899  25.674  11.375
54655W        W16076  43.323  14.105   3.342
54656W        W16077  14.785  21.247  11.585
54657W        W16078  24.990  35.877  10.489
54658W        W16079  23.143  37.436   0.264
54659W        W16080  32.061  10.745  14.845
54660W        W16081  13.831   3.733   2.219
54661W        W16082  40.432  14.688   9.974
54662W        W16083   7.285  37.040  10.477
54663W        W16084  19.554  30.483   1.821
54664W        W16085  42.476  13.778  14.858
54665W        W16086  39.464  24.682  11.984
54666W        W16087  34.573  33.071   2.863
54667W        W16088   4.743  33.032  10.946
54668W        W16089  22.625  36.541  14.416
54669W        W16090  36.934  37.421   2.282
54670W        W16091  42.483  22.519   3.795
54671W        W16092  10.759  37.963   1.830
54672W        W16093  40.524  10.182   0.279
54673W        W16094  35.488   6.690  12.893
54674W        W16095  18.730  33.496  13.349
54675W        W16096   2.899   4.913   2.736
54676W        W16097  15.806  12.127  13.904
54677W        W16098  13.136   3.253   4.188
54678W        W16099  42.999   2.905   2.716
54679W        W16100  30.922   7.305  13.002
54680W        W16101  33.054  29.493  10.539
54681W        W16102  42.913  14.809   0.280
54682W        W16103   2.390  38.502  12.400
54683W        W16104   3.956  14.816  13.391
54684W        W16105  29.487  13.818  14.858
54685W        W16106  12.134  23.011  11.606
54686W        W16107  21.554  31.566  14.865
54687W        W16108  39.055   7.886  12.423
54688W        W16109  30.165   0.282  14.371
54689W        W16110   2.309  39.539   0.835
54690W        W16111  22.516   2.901   3.836
54691W        W16112  42.026   9.675  14.407
54692W        W16113  32.080   5.412   4.599
54693W        W16114  18.545  43.001   1.917
54694W        W16115  36.549   1.857   9.922
54695W        W16116  24.635   4.236   3.192
54696W        W16117  25.043   9.393   3.289
54697W        W16118  24.718   5.711  13.800
54698W        W16119  28.632  30.417   1.810
54699W        W16120  18.185  14.274   2.723
54700W        W16121  14.327  36.954  11.056
54701W        W16122   0.369  28.535   3.777
54702W        W16123  31.070   4.845   1.925
54703W        W16124  26.513  19.628   0.264
54704W        W16125  43.281   4.214  12.050
54705W        W16126  33.014   3.931   1.928
54706W        W16127  39.327  11.241   3.387
54707W        W16128   9.320  19.104   0.758
54708W        W16129  38.489  23.642   2.859
54709W        W16130  19.644  13.327  12.464
54710W        W16131   2.341  29.624  11.444
54711W        W16132  22.009   3.907   0.858
54712W        W16133   7.408  13.182  13.939
54713W        W16134  43.370  24.151  12.465
54714W        W16135  17.184   1.819  14.515
54715W        W16136   1.849  44.266   4.289
54716W        W16137   6.278  35.388  13.343
54717W        W16138  44.808  29.002  12.986
54718W        W16139  23.138  30.922   2.731
54719W        W16140   2.340  37.838  14.905
54720W        W16141  16.315  39.861  14.500
54721W        W16142  37.532  31.093   3.286
54722W        W16143  11.653  30.982  14.330
54723W        W16144   2.272  26.679  12.995
54724W        W16145   3.458  27.056   0.927
54725W        W16146   2.328  26.146   4.820
54726W        W16147  44.322  18.644  13.814
54727W        W16148   1.253  42.438  14.786
54728W        W16149   2.307  32.408  14.902
54729W        W16150  12.850  13.827   4.352
54730W        W16151  27.669  28.021   2.392
54731W        W16152   9.387  43.006  11.385
54732W        W16153  25.972  26.480   3.312
54733W        W16154  38.567  22.252  13.384
54734W        W16155  38.466  22.626   1.343
54735W        W16156   5.710   3.249  14.515
54736W        W16157  38.476  29.493   0.838
54737W        W16158  44.794  21.743  13.888
54738W        W16159  44.766  15.290   1.806
54739W        W16160  20.060  32.426  11.902
54740W        W16161  11.729  11.154  12.954
54741W        W16162   1.782  20.711  13.542
54742W        W16163  40.337   0.950  14.031
54743W        W16164   2.741  26.538  14.465
54744W        W16165   1.395  40.030  12.413
54745W        W16166  19.273  26.482  12.980
54746W        W16167  33.413   2.914   3.752
54747W        W16168  12.350  15.656   1.743
54748W        W16169   3.338  41.475   3.718
54749W        W16170  39.353  12.615  12.898
54750W        W16171  31.950  14.666  10.898
54751W        W16172  26.135  38.482  13.805
54752W        W16173  31.552  37.519  12.971
54753W        W16174   7.698  11.760   0.395
54754W        W16175  24.037  24.039  11.401
54755W        W16176  34.406   6.697  10.935
54756W        W16177  39.528  23.614  10.903
54757W        W16178   6.729   1.881  11.555
54758W        W16179  11.853  36.365   2.711
54759W        W16180  34.955  23.181  14.899
54760W        W16181  37.053  21.165   2.408
54761W        W16182  44.761  18.181  13.872
54762W        W16183  16.282  35.384   1.844
54763W        W16184  11.717  25.702   1.864
54764W        W16185  17.212  16.078  12.402
54765W        W16186  44.768   3.390   1.850
54766W        W16187  26.959  42.903   4.251
54767W        W16188  14.171  12.273   3.178
54768W        W16189  14.603  39.935   2.271
54769W        W16190   5.790  31.636  14.450
54770W        W16191  18.675  41.353  10.994
54771W        W16192   8.351  24.149  14.897
54772W        W16193  25.654  20.247   1.799
54773W        W16194  11.317  28.022   2.705
54774W        W16195  30.052  17.306   2.336
54775W        W16196  28.074  41.903  13.926
54776W        W16197  30.468  23.676   1.738
54777W        W16198   6.741  28.099  14.945
54778W        W16199  23.696  19.637  14.888
54779W        W16200   4.711  42.978   1.830
54780W        W16201  44.346  29.580   1.288
54781W        W16202   3.906  35.548  11.576
54782W        W16203  10.844  44.434  14.029
54783W        W16204  24.073  38.325  14.438
54784W        W16205  32.033  15.590   0.478
54785W        W16206  33.061  23.722  13.486
54786W        W16207  26.114  20.070  12.421
54787W        W16208  42.908   2.929   4.168
54788W        W16209  19.708  26.000   2.893
54789W        W16210  41.812  31.416  10.893
54790W        W16211  36.589  44.826  10.927
54791W        W16212  24.229  16.170  11.972
54792W        W16213  35.452  32.593   1.438
54793W        W16214   5.897   6.390  12.940
54794W        W16215  20.169   6.690   1.347
54795W        W16216   7.274   7.731   1.906
54796W        W16217   1.470  35.878   1.881
54797W        W16218  32.102  12.652  14.012
54798W        W16219   2.393  16.720  10.992
54799W        W16220  32.629  22.097  10.622
54800W        W16221  29.645  33.898  14.799
54801W        W16222   6.277  28.062   2.810
54802W        W16223  28.641  15.299  14.796
54803W        W16224  35.498   6.703   0.967
54804W        W16225   6.729   1.853   2.826
54805W        W16226  34.400   8.865   2.845
54806W        W16227  10.690  29.986   1.383
54807W        W16228  18.668  44.309   2.829
54808W        W16229  17.556   9.821  13.409
54809W        W16230  17.732  30.479   2.826
54810W        W16231  31.622  30.636   4.813
54811W        W16232  13.799  39.469   0.434
54812W        W16233  12.754  38.394   3.764
54813W        W16234   7.345  39.558   2.844
54814W        W16235  31.523   6.333   4.733
54815W        W16236   8.253  27.449  14.760
54816W        W16237  19.115  29.168  14.389
54817W        W16238  14.640  10.277  11.084
54818W        W16239   3.829  28.057   2.193
54819W        W16240  22.657  42.030  13.809
54820W        W16241   6.368  36.439  11.608
54821W        W16242  26.105   4.439  11.878
54822W        W16243  35.006  29.102   1.391
54823W        W16244  15.587  26.566   2.229
54824W        W16245  23.640  21.192  14.774
54825W        W16246   1.755   0.390  13.880
54826W        W16247   5.231  15.600  12.942
54827W        W16248  24.494  43.285  14.506
54828W        W16249  13.728   8.162   4.822
54829W        W16250  24.599  20.636  13.051
54830W        W16251  31.424  30.620  11.401
54831W        W16252  11.754  41.416   0.960
54832W        W16253   0.859  36.357   0.261
54833W        W16254   4.354  17.253   2.323
54834W        W16255  40.390  24.673   1.714
54835W        W16256  25.121  24.556   2.243
54836W        W16257   4.907  29.067  11.498
54837W        W16258  38.988  27.058   3.239
54838W        W16259  29.665  16.205   1.380
54839W        W16260   5.846   0.879   0.348
54840W        W16261  10.179  44.834   2.754
54841W        W16262  37.348  20.151   1.798
54842W        W16263  20.603  26.142   0.806
54843W        W16264  24.027   7.757   0.341
54844W        W16265  38.500  44.769  12.861
54845W        W16266  25.099  43.339  10.629
54846W        W16267  32.976  14.669   4.271
54847W        W16268  14.642  14.162   4.762
54848W        W16269  28.583  15.088  13.026
54849W        W16270  31.004  32.037  10.132
54850W        W16271  14.829  14.811   1.874
54851W        W16272  23.695  44.832   4.628
54852W        W16273  23.564  25.105   3.346
54853W        W16274  18.108  34.895   2.185
54854W        W16275  23.732   7.727   3.856
54855W        W16276  33.447  32.619  13.453
54856W        W16277  33.520  31.065  13.338
54857W        W16278  24.522  21.053  14.883
54858W        W16279  20.592   2.419   2.199
54859W        W16280  26.678   9.759   2.746
54860W        W16281  44.875  11.196   0.777
54861W        W16282  42.880  19.254  12.369
54862W        W16283  28.546  44.383  12.088
54863W        W16284  32.934  11.712  10.929
54864W        W16285  18.053  14.712  13.312
54865W        W16286  23.242  17.610  11.027
54866W        W16287  23.680  28.468   0.303
54867W        W16288  10.180  20.119  11.892
54868W        W16289   5.775  42.319  13.022
54869W        W16290  43.341   8.864  12.961
54870W        W16291  17.231  33.998   1.927
54871W        W16292   0.327  40.442  12.054
54872W        W16293  14.146   9.705   1.713
54873W        W16294   3.342  41.001  14.941
54874W        W16295   2.928   7.239   0.947
54875W        W16296  43.978  31.939   2.365
54876W        W16297  39.858  34.416   2.218
54877W        W16298  20.640  12.757  11.044
54878W        W16299  34.919  16.190  10.485
54879W        W16300  30.951  38.452  13.818
54880W        W16301   3.316  23.151  11.907
54881W        W16302  35.900  31.559  12.021
54882W        W16303   4.765  15.099  14.795
54883W        W16304  37.420  43.457   4.164
54884W        W16305  21.215  21.173  12.385
54885W        W16306  44.314  40.500   1.320
54886W        W16307  39.356   6.270   1.254
54887W        W16308  17.575  28.973   0.365
54888W        W16309   2.847  24.986  11.505
54889W        W16310   0.869  38.823   1.293
54890W        W16311  25.583  41.932  11.013
54891W        W16312  34.040   5.205  13.520
54892W        W16313  37.935  31.476  14.962
54893W        W16314  16.745  43.935  10.629
54894W        W16315  20.620  32.448   1.850
54895W        W16316  23.716  40.829   4.267
54896W        W16317  29.092   6.385  10.474
54897W        W16318  26.475  26.137  12.861
54898W        W16319  24.521  11.760  13.426
54899W        W16320  33.439  24.707  10.435
54900W        W16321   6.290  12.786   1.888
54901W        W16322  18.555  35.575  11.979
54902W        W16323  36.978  16.074  14.816
54903W        W16324   7.754  16.212   1.914
54904W        W16325  19.648   8.692  10.554
54905W        W16326  36.043   0.932   0.841
54906W        W16327  35.017   9.678   4.243
54907W        W16328  15.801   8.840  14.338
54908W        W16329  22.159   1.745  14.019
54909W        W16330  13.320   3.457  14.781
54910W        W16331  36.902  27.469  12.865
54911W        W16332  12.851  23.045  12.825
54912W        W16333  39.926  33.913  13.839
54913W        W16334  20.623   8.368   1.759
54914W        W16335  12.187   0.798  13.532
54915W        W16336   9.341  34.942   0.904
54916W        W16337   7.811  14.336  14.492
54917W        W16338  12.732  18.246  13.531
54918W        W16339   4.707  37.440   4.252
54919W        W16340  20.118  23.210  12.379
54920W        W16341  43.923  19.621   2.403
54921W        W16342  36.402  23.083   3.785
54922W        W16343  19.242  20.644  13.825
54923W        W16344  19.670  12.805   4.273
54924W        W16345  37.503  22.172  12.963
54925W        W16346  40.340   7.782   0.413
54926W        W16347  42.802  11.267   3.153
54927W        W16348   9.789  36.427   4.722
54928W        W16349  39.876  40.029   1.814
54929W        W16350  12.777   4.906   4.274
54930W        W16351  35.073  10.755  10.539
54931W        W16352  10.683   5.747   1.328
54932W        W16353  30.002  37.988  12.572
54933W        W16354  23.554  25.691  11.516
54934W        W16355   6.323  34.028   4.288
54935W        W16356  16.170  39.515  11.954
54936W        W16357  11.245   9.158   0.805
54937W        W16358  35.547  15.745   0.766
54938W        W16359  38.074  42.352   3.780
54939W        W16360  19.042  27.576  13.948
54940W        W16361  17.734  10.267   3.175
54941W        W16362  10.684  42.356   0.867
54942W        W16363  32.997  28.515  13.875
54943W        W16364  42.503   8.320  13.838
54944W        W16365  27.182  36.910  11.502
54945W        W16366  41.336  14.738  11.589
54946W        W16367   9.776  35.433   1.825
54947W        W16368  38.855  27.100   0.886
54948W        W16369   9.857  29.642  11.498
54949W        W16370  24.185  15.824  12.545
54950W        W16371  35.406  41.998  14.794
54951W        W16372  31.932  36.549   5.106
54952W        W16373   1.763  22.085   0.375
54953W        W16374   5.308  28.446  12.537
54954W        W16375   8.187   6.397  11.106
54955W        W16376   0.437   7.692  11.982
54956W        W16377  32.608   9.244  10.902
54957W        W16378  37.339  44.332  13.031
54958W        W16379  14.802  34.093   2.886
54959W        W16380  38.913   8.214  11.583
54960W        W16381  28.569  25.668  10.537
54961W        W16382  20.213   7.229  12.926
54962W        W16383   7.287  36.030  11.027
54963W        W16384  37.869  30.494  10.078
54964W        W16385   7.668  30.044   0.332
54965W        W16386  44.300  13.334  12.428
54966W        W16387  21.083  34.479  14.918
54967W        W16388  25.009  19.189   0.940
54968W        W16389  23.186  31.565  11.995
54969W        W16390  29.540  33.030   0.366
54970W        W16391  21.585   3.712  10.995
54971W        W16392  27.062  44.830   3.336
54972W        W16393   7.230  26.599  13.037
54973W        W16394  28.517  42.494  14.852
54974W        W16395  22.634  21.592   3.183
54975W        W16396  26.476  40.826   1.752
54976W        W16397  34.095  20.625   2.212
54977W        W16398  22.161   0.862  10.916
54978W        W16399  19.609   4.224   1.717
54979W        W16400  42.941  14.144   2.327
54980W        W16401  15.321  44.442   3.629
54981W        W16402  35.587  26.017   1.212
54982W        W16403  16.122  17.762   1.420
54983W        W16404  28.577  11.247   3.697
54984W        W16405   3.273  43.991  14.418
54985W        W16406  43.898   1.930  12.525
54986W        W16407  42.491  23.133  10.496
54987W        W16408  44.410  42.916  14.346
54988W        W16409  37.544  36.573  10.405
54989W        W16410  18.685  22.224  14.407
54990W        W16411   3.750  33.488  11.457
54991W        W16412   6.853  28.641  11.109
54992W        W16413   1.362  18.694  13.325
54993W        W16414  23.595  33.541  12.534
54994W        W16415  13.676  35.940   1.433
54995W        W16416  38.473   8.655   2.849
54996W        W16417  30.937  44.272   4.233
54997W        W16418  38.502  16.755  11.387
54998W        W16419  19.741   6.813  12.492
54999W        W16420  41.299  16.632   4.813
55000W        W16421  23.511  44.003   0.831
55001W        W16422  16.121   1.321  14.324
55002W        W16423  42.415   7.907  12.439
55003W        W16424  36.043  26.587  13.424
55004W        W16425  32.463  33.108   3.196
55005W        W16426  14.625  37.891   4.689
55006W        W16427  30.654   7.388   2.862
55007W        W16428  11.631  34.606   4.193
55008W        W16429  23.499  44.361  14.881
55009W        W16430  37.869  16.265  13.981
55010W        W16431   7.899  28.547  12.853
55011W        W16432  26.136  10.238   4.127
55012W        W16433  18.731   3.374  14.487
55013W        W16434  32.500  20.108  11.111
55014W        W16435  23.220  15.751  14.435
55015W        W16436  12.146  21.553   4.305
55016W        W16437  34.372   9.321  13.044
55017W        W16438   9.175   7.834  14.412
55018W        W16439   7.209  27.005  12.018
55019W        W16440  40.986   7.879  12.422
55020W        W16441  33.581   3.804  13.514
55021W        W16442   6.790  31.047  14.288
55022W        W16443  22.026  28.048   4.217
55023W        W16444  25.619   3.435  14.022
55024W        W16445  43.503  34.483  14.454
55025W        W16446  16.694  25.671  14.470
55026W        W16447  30.485  34.550   3.817
55027W        W16448  36.519  13.603   1.744
55028W        W16449  26.570  33.605  13.055
55029W        W16450   6.850   8.167  14.881
55030W        W16451  20.074   7.797   4.259
55031W        W16452   1.884  25.193  11.056
55032W        W16453  25.976  23.150  12.571
55033W        W16454  10.239   4.862   2.335
55034W        W16455  14.142   9.875   4.334
55035W        W16456  13.833  16.156   3.225
55036W        W16457  18.153  31.484   3.351
55037W        W16458  11.633   2.404  10.015
55038W        W16459  43.358  27.563  12.577
55039W        W16460   3.282  43.421   1.729
55040W        W16461  37.426  11.350  10.974
55041W        W16462  19.121  17.106   4.679
55042W        W16463  29.166  32.523  11.503
55043W        W16464   0.285   8.709  12.426
55044W        W16465  33.919  21.030   3.318
55045W        W16466  12.825  38.950   2.246
55046W        W16467  17.270  15.700   2.406
55047W        W16468  23.986   6.712   3.231
55048W        W16469  27.555  24.003   4.248
55049W        W16470  39.040  37.029  14.498
55050W        W16471   3.790   3.401  14.889
55051W        W16472  32.515  39.393   3.810
55052W        W16473  41.872  31.095   3.204
55053W        W16474  11.160  40.005  12.413
55054W        W16475  20.729  35.591   4.746
55055W        W16476  26.152  23.621   1.771
55056W        W16477  37.016   1.843   0.418
55057W        W16478  32.105  26.579  12.878
55058W        W16479   2.442   1.874   0.926
55059W        W16480  11.128  38.994   3.319
55060W        W16481  22.682  15.277  11.947
55061W        W16482  29.135  23.177   3.209
55062W        W16483  14.337  11.257  13.499
55063W        W16484   8.725  15.125  14.365
55064W        W16485  28.568  39.509  12.365
55065W        W16486  44.910  29.655   2.674
55066W        W16487  24.651  20.060   0.815
55067W        W16488  43.806  36.930   1.445
55068W        W16489  13.696   6.388  11.978
55069W        W16490  44.285  16.687   4.301
55070W        W16491  34.057  25.480  10.945
55071W        W16492  24.118  18.117   3.351
55072W        W16493  30.995  24.017  12.831
55073W        W16494  42.999   1.324  13.547
55074W        W16495  13.670   3.829  13.448
55075W        W16496  20.549  12.356  14.023
55076W        W16497  44.406   4.819   2.241
55077W        W16498   6.376  10.808  14.788
55078W        W16499  42.908  32.492  10.431
55079W        W16500  19.156  42.377   4.809
55080W        W16501  12.122  41.871  12.512
55081W        W16502  12.199  29.018  14.873
55082W        W16503   5.899  27.532  11.578
55083W        W16504  12.804  18.700  10.971
55084W        W16505  41.951  16.662   1.353
55085W        W16506  29.542  38.963   2.213
55086W        W16507  34.911  19.593   2.207
55087W        W16508   7.746   6.263   5.295
55088W        W16509  21.133  11.802  11.012
55089W        W16510   6.243  44.260   3.339
55090W        W16511   4.267  31.550   0.412
55091W        W16512  25.609   2.953   3.308
55092W        W16513  37.451   5.265  13.316
55093W        W16514  41.537  42.495  10.470
55094W        W16515  35.375  26.615   2.809
55095W        W16516   1.319   8.349   4.793
55096W        W16517  29.050  43.292  13.811
55097W        W16518  33.468  40.447  11.946
55098W        W16519  35.416  13.659  11.966
55099W        W16520   6.228  16.782  12.562
55100W        W16521  40.030  21.252  10.626
55101W        W16522  30.526  34.591   2.363
55102W        W16523  10.325   3.880   0.734
55103W        W16524  13.278  15.762  14.897
55104W        W16525  20.661  35.573  13.434
55105W        W16526  18.272  44.917  13.511
55106W        W16527  19.171  30.134   1.705
55107W        W16528  10.191   3.870   4.675
55108W        W16529   3.950  15.747   5.298
55109W        W16530  21.202  23.676   0.282
55110W        W16531  35.014   7.261  11.429
55111W        W16532  28.483  39.840  10.416
55112W        W16533  39.460  42.367   2.786
55113W        W16534   8.210  12.133  12.056
55114W        W16535   3.258  17.604   3.676
55115W        W16536  18.118  21.114   3.195
55116W        W16537  13.764  38.869  14.935
55117W        W16538   8.680  40.447   5.732
55118W        W16539  44.490  23.511   9.950
55119W        W16540  43.496  25.533  12.074
55120W        W16541   1.828  43.297  14.395
55121W        W16542  34.020  26.606   1.741
55122W        W16543   9.659  33.470   4.151
55123W        W16544  31.939  28.173   0.351
55124W        W16545  38.443  32.048  14.964
55125W        W16546  23.183  43.426  12.977
55126W        W16547  22.167  38.019  14.031
55127W        W16548  44.465   1.363   2.359
55128W        W16549  34.600  17.286   0.867
55129W        W16550  26.511  29.608  14.032
55130W        W16551  22.596  16.710   0.828
55131W        W16552  30.016  35.001  11.422
55132W        W16553  40.934  36.392  12.410
55133W        W16554  25.658   3.936  13.831
55134W        W16555   3.911  44.496  11.576
55135W        W16556  18.291  33.927  11.128
55136W        W16557  44.293   0.908   2.877
55137W        W16558   1.454  33.971  14.796
55138W        W16559  19.073  20.613   2.193
55139W        W16560  10.227  45.000  10.118
55140W        W16561  28.087  11.194  14.895
55141W        W16562  17.136  35.963   3.267
55142W        W16563  16.745   9.277  10.522
55143W        W16564  25.627  43.349  13.510
55144W        W16565  35.549   8.374  11.019
55145W        W16566  33.509  14.673   2.237
55146W        W16567  42.462  21.729  13.335
55147W        W16568  27.507  42.896   0.417
55148W        W16569  40.338  17.104   2.685
55149W        W16570  32.042  43.888   0.928
55150W        W16571  23.563  36.870  10.930
55151W        W16572  33.046   7.718  10.632
55152W        W16573  16.171  13.620  10.063
55153W        W16574  32.956   6.382   3.234
55154W        W16575   1.780  30.092   4.340
55155W        W16576  38.334   9.857  10.936
55156W        W16577  31.564  34.513  14.433
55157W        W16578  35.027   2.920   3.254
55158W        W16579   0.331   6.274   0.425
55159W        W16580  15.177  17.565  11.033
55160W        W16581  38.902  42.850   3.162
55161W        W16582  44.762  36.587   4.786
55162W        W16583  13.148   9.722   0.807
55163W        W16584  31.021  43.459   4.235
55164W        W16585  30.131  38.854  13.410
55165W        W16586   4.400  40.052   1.762
55166W        W16587  41.304  40.817   4.762
55167W        W16588   9.174  27.037  14.770
55168W        W16589  11.736  25.027  13.534
55169W        W16590  29.997  39.542  12.366
55170W        W16591   4.879  35.524  13.845
55171W        W16592   7.336  30.958   4.643
55172W        W16593  25.157   3.384   2.732
55173W        W16594   3.814  18.179   4.639
55174W        W16595  42.915   5.903   4.647
55175W        W16596  38.838  32.117   0.759
55176W        W16597  39.054  37.486   0.819
55177W        W16598  32.100  17.303   2.741
55178W        W16599  43.291  10.853   1.439
55179W        W16600  41.293  33.999  13.537
55180W        W16601   2.807   1.256  14.000
55181W        W16602  12.808   0.253   2.755
55182W        W16603   1.975  43.332   1.906
55183W        W16604  39.528  14.751  14.447
55184W        W16605  25.162   9.761   3.222
55185W        W16606  20.209  29.947  13.004
55186W        W16607  27.122  31.477   1.426
55187W        W16608  17.598   2.863   0.918
55188W        W16609  36.549  40.314   4.619
55189W        W16610  19.239  14.660  11.456
55190W        W16611  11.666  33.933  10.526
55191W        W16612  10.673  37.559   3.380
55192W        W16613  28.981  38.976   0.877
55193W        W16614  32.463  40.800   1.343
55194W        W16615  38.493  11.239  13.354
55195W        W16616  35.461  14.332  14.345
55196W        W16617   2.847  36.998  14.906
55197W        W16618  34.578   2.856  12.076
55198W        W16619  28.656  10.792   4.709
55199W        W16620  34.504  38.568  10.625
55200W        W16621  28.593  14.747  11.971
55201W        W16622   9.783   7.677   2.319
55202W        W16623  30.061  20.656  13.400
55203W        W16624   0.920  28.181  14.937
55204W        W16625  18.696  28.120   1.259
55205W        W16626   2.279  36.000  10.545
55206W        W16627  34.942   6.312  13.520
55207W        W16628   9.648  40.349  12.993
55208W        W16629  13.814  29.936   9.998
55209W        W16630  31.942  12.199   2.801
55210W        W16631  44.303  30.914  11.954
55211W        W16632  10.748  44.862  13.347
55212W        W16633  35.029  21.698  10.897
55213W        W16634   5.423  41.415   0.336
55214W        W16635  44.406   6.285   3.293
55215W        W16636  19.283  21.034  12.864
55216W        W16637  18.086  27.529  14.883
55217W        W16638  38.964  21.604  12.363
55218W        W16639   1.460   9.731   4.603
55219W        W16640  19.267  16.740  10.959
55220W        W16641   8.396   1.422  12.840
55221W        W16642   5.242   2.261   2.412
55222W        W16643  43.357  21.117  10.511
55223W        W16644   6.267  19.641   2.222
55224W        W16645   3.421  44.768   3.739
55225W        W16646  22.582  30.554   4.335
55226W        W16647  39.977  42.285   3.754
55227W        W16648   5.931  19.550   2.225
55228W        W16649   9.245  10.839  11.056
55229W        W16650  39.934   9.148   2.362
55230W        W16651  15.216  33.466  12.948
55231W        W16652   1.416  13.721   3.821
55232W        W16653   6.330  10.351  12.956
55233W        W16654  27.679   2.853   3.646
55234W        W16655  22.248  37.887   0.781
55235W        W16656  32.029   7.192   0.339
55236W        W16657  37.860  44.857  12.823
55237W        W16658  18.189  20.742   0.380
55238W        W16659  15.192   6.917   4.279
55239W        W16660  44.769  20.707   4.127
55240W        W16661  19.734   4.242  14.874
55241W        W16662  32.434  18.666   1.860
55242W        W16663  28.531   2.232  13.952
55243W        W16664   5.248  15.255  11.567
55244W        W16665   5.430   5.300   1.906
55245W        W16666  13.200  42.888  13.870
55246W        W16667   5.818   6.707  11.499
55247W        W16668  35.923   7.843   3.376
55248W        W16669  22.654   4.238  14.278
55249W        W16670  11.757  31.595  10.009
55250W        W16671  25.471   6.339   9.591
55251W        W16672  30.163  40.345  14.477
55252W        W16673  14.728  13.837  11.014
55253W        W16674  30.126  29.047  14.908
55254W        W16675  15.150  21.047  10.408
55255W        W16676   7.704  23.656   5.186
55256W        W16677  28.647  28.142  10.633
55257W        W16678   6.310  32.094  10.538
55258W        W16679   4.438  16.173  10.985
55259W        W16680   8.727  11.227  14.842
55260W        W16681  17.153  17.671   0.255
55261W        W16682  10.308  38.439   4.175
55262W        W16683  36.488  11.788  11.469
55263W        W16684   5.706  31.062   3.807
55264W        W16685   9.824  37.510   4.151
55265W        W16686  19.102  22.680   1.383
55266W        W16687   2.962  18.056  13.984
55267W        W16688  14.666   7.318   2.763
55268W        W16689   4.753  29.453  10.973
55269W        W16690  35.404   3.248   1.253
55270W        W16691  36.989  25.045  12.463
55271W        W16692  24.621  28.090   3.724
55272W        W16693  25.170  35.393  11.443
55273W        W16694  28.625   1.946   0.316
55274W        W16695  13.154  32.445  13.424
55275W        W16696  24.682  26.207  10.547
55276W        W16697  35.449  36.586   2.310
55277W        W16698  41.412   6.922  14.823
55278W        W16699  26.571  12.776   0.913
55279W        W16700   7.188  11.188  14.988
55280W        W16701  43.863  20.148  10.582
55281W        W16702  43.829  19.044   2.292
55282W        W16703  18.068  42.363   3.835
55283W        W16704  37.475  19.230   2.737
55284W        W16705  35.548  16.693   0.249
55285W        W16706  16.077  33.876   0.337
55286W        W16707  39.323  29.546   4.286
55287W        W16708  16.294   9.863  13.477
55288W        W16709   7.704  36.402  13.420
55289W        W16710   9.712  10.163   1.404
55290W        W16711  17.306   7.288  10.972
55291W        W16712  25.678  32.629   4.168
55292W        W16713   3.215  34.502  13.003
55293W        W16714  17.705  28.633   1.440
55294W        W16715  38.981  26.109   2.753
55295W        W16716  42.458  30.913   0.470
55296W        W16717  41.490  42.822  13.869
55297W        W16718   0.264  12.839  14.391
55298W        W16719  17.726  33.019  10.645
55299W        W16720  16.636  19.765   3.756
55300W        W16721  33.477  20.258  13.975
55301W        W16722  44.880  17.273  13.496
55302W        W16723  30.514  30.050  12.008
55303W        W16724  37.856  42.975   3.200
55304W        W16725  30.573  10.661   2.674
55305W        W16726  41.420  39.343   2.251
55306W        W16727  12.128  43.869  11.392
55307W        W16728  25.132  37.837   0.437
55308W        W16729  10.868   9.855   4.311
55309W        W16730  44.380  17.779   1.726
55310W        W16731  39.350   2.779   3.247
55311W        W16732  14.631  25.681  13.491
55312W        W16733  37.357  39.332  10.973
55313W        W16734   1.438  21.698   3.771
55314W        W16735  11.704   7.410  10.028
55315W        W16736  17.160   2.780  12.860
55316W        W16737  31.589  36.422  12.362
55317W        W16738  37.428  26.630   2.302
55318W        W16739   8.695  19.753  14.286
55319W        W16740  29.954  19.188   3.748
55320W        W16741   3.237  15.120  13.817
55321W        W16742  39.004  36.381   2.190
55322W        W16743  12.291  18.672   1.815
55323W        W16744  34.478  24.009  14.914
55324W        W16745  22.181  36.554  12.034
55325W        W16746  38.048  24.051   4.776
55326W        W16747  17.116  41.293   0.884
55327W        W16748  14.274  24.130  12.359
55328W        W16749  29.590  19.216  10.609
55329W        W16750  39.942   6.816  12.020
55330W        W16751   0.940  29.669  12.096
55331W        W16752  20.549  24.722  14.310
55332W        W16753  35.370  39.875  12.092
55333W        W16754  36.085  25.098   3.851
55334W        W16755  32.933  27.073   4.165
55335W        W16756  39.893  36.933  11.922
55336W        W16757  40.882  16.653   2.766
55337W        W16758  16.676   2.854  13.423
55338W        W16759  33.450  26.686   2.854
55339W        W16760   2.236   2.909  12.913
55340W        W16761  34.069  10.735   4.318
55341W        W16762  31.040  29.640   2.243
55342W        W16763  22.535   6.317   3.639
55343W        W16764  33.960  33.958   1.702
55344W        W16765   3.908  23.174  12.419
55345W        W16766  37.846  31.629   3.692
55346W        W16767   1.469  21.736  13.904
55347W        W16768   2.384  34.934   4.764
55348W        W16769  43.016  27.664   0.322
55349W        W16770   4.299  13.749  11.058
55350W        W16771   1.292  41.494   1.232
55351W        W16772   6.367  16.230   4.833
55352W        W16773  15.095  25.974  11.964
55353W        W16774   4.264  39.553  11.936
55354W        W16775  26.523  43.834  10.442
55355W        W16776  42.518  18.091  14.018
55356W        W16777  22.655  10.700  10.411
55357W        W16778  14.247  40.310  11.518
55358W        W16779  15.322   1.305   1.714
55359W        W16780  42.883  36.060   1.339
55360W        W16781  41.921  36.543   1.934
55361W        W16782   9.872  28.031  13.472
55362W        W16783   4.212  40.453  13.364
55363W        W16784  44.844  27.681   3.849
55364W        W16785  16.113  16.797  12.344
55365W        W16786  44.918  27.627  11.476
55366W        W16787  22.159  27.133  12.520
55367W        W16788  25.165  24.538  12.870
55368W        W16789   4.386  24.023   2.835
55369W        W16790  43.336  12.314  11.031
55370W        W16791   4.205  33.460   3.781
55371W        W16792   0.971  24.085   0.299
55372W        W16793  33.608  10.292  14.834
55373W        W16794  11.316   6.826  12.345
55374W        W16795  19.150  19.197   4.238
55375W        W16796  15.202  24.723   4.296
55376W        W16797  39.914  30.084  12.345
55377W        W16798  28.502  36.479   1.711
55378W        W16799  24.540  43.982  14.995
55379W        W16800   4.705  41.310   3.174
55380W        W16801  17.749  21.592  13.421
55381W        W16802  18.130  18.182  12.565
55382W        W16803  23.619  15.775   3.663
55383W        W16804   3.865  44.356   4.334
55384W        W16805  20.169  44.403  11.452
55385W        W16806  13.739   1.365   2.380
55386W        W16807  34.492  42.330   1.245
55387W        W16808  26.672   2.927  11.459
55388W        W16809  17.223   7.364  11.968
55389W        W16810  12.135   4.716  13.868
55390W        W16811   0.817  22.014   1.787
55391W        W16812  38.956   0.339  10.632
55392W        W16813   5.221  30.553   2.744
55393W        W16814  13.277   0.946   4.643
55394W        W16815   4.279  20.262  13.017
55395W        W16816  15.260  35.563   3.713
55396W        W16817  26.499   4.804   2.354
55397W        W16818  11.231  11.310  11.383
55398W        W16819  13.608  14.818   2.816
55399W        W16820  14.293  43.952  13.966
55400W        W16821   9.680  17.785  10.607
55401W        W16822  39.979  35.891  10.977
55402W        W16823  24.656  32.454   3.688
55403W        W16824  35.477  22.246  12.884
55404W        W16825  15.230  41.902   2.903
55405W        W16826  24.230  32.030  13.335
55406W        W16827  18.613  26.674  11.512
55407W        W16828  17.625   0.489  11.576
55408W        W16829  39.888  24.158  13.529
55409W        W16830   4.720   8.347  11.554
55410W        W16831   8.188   8.750  12.913
55411W        W16832  28.170  28.009   0.397
55412W        W16833  23.704  16.589   3.636
55413W        W16834  35.087  21.193   4.250
55414W        W16835  24.183  37.577   0.891
55415W        W16836  30.441  26.069  14.445
55416W        W16837  40.353  37.913   0.859
55417W        W16838   1.413  33.428  14.487
55418W        W16839  32.993   4.210  10.922
55419W        W16840  39.393  37.069  14.455
55420W        W16841  37.012  18.188  14.917
55421W        W16842   4.421  40.978  13.307
55422W        W16843  33.939  10.171   3.370
55423W        W16844  13.676  32.555   4.727
55424W        W16845  36.426  18.646  14.913
55425W        W16846  28.525   0.819  13.000
55426W        W16847   3.918   1.811  12.475
55427W        W16848   9.691   3.429   1.390
55428W        W16849  21.150  40.332   1.852
55429W        W16850  17.564  38.524   4.648
55430W        W16851   9.260  43.882   3.742
55431W        W16852  31.910  32.483   0.328
55432W        W16853   8.274  27.673  12.044
55433W        W16854  36.410   9.271  12.550
55434W        W16855  43.283  23.183   1.275
55435W        W16856   3.850   4.812  14.916
55436W        W16857  37.404  15.150   0.299
55437W        W16858  10.291  22.561  11.446
55438W        W16859  19.599  41.842   1.351
55439W        W16860  39.466  31.635  12.563
55440W        W16861  41.025   4.339  11.951
55441W        W16862  44.968  17.063   1.771
55442W        W16863  33.123   7.361   4.822
55443W        W16864  16.712  43.897   3.807
55444W        W16865  20.766   6.730   2.662
55445W        W16866  26.085   8.840  14.904
55446W        W16867  31.524  29.952  12.468
55447W        W16868  21.524  13.213   4.605
55448W        W16869  40.884   2.944  14.439
55449W        W16870  32.454  17.168  12.859
55450W        W16871  21.163  24.041   4.663
55451W        W16872  16.807  10.829   0.406
55452W        W16873   7.839   0.757   3.189
55453W        W16874  22.734  39.476  10.408
55454W        W16875  22.017   6.391  12.496
55455W        W16876  24.536   4.708   3.667
55456W        W16877  41.519   2.869  14.290
55457W        W16878   3.353  17.084   1.276
55458W        W16879   9.383  43.842  10.579
55459W        W16880  17.107  24.638   4.221
55460W        W16881   5.835  20.175  10.538
55461W        W16882   2.763  35.939   0.298
55462W        W16883  32.449   8.669   2.900
55463W        W16884  11.350  25.125  11.511
55464W        W16885  13.786  42.976  14.392
55465W        W16886   6.803  16.697  13.318
55466W        W16887  20.675  19.775  12.915
55467W        W16888  12.227  41.473   4.221
55468W        W16889  16.159  20.190  14.947
55469W        W16890   0.323  27.954   1.408
55470W        W16891   8.385  39.039  13.329
55471W        W16892  10.320  40.315   3.631
55472W        W16893  33.397   5.410   3.239
55473W        W16894  41.381  23.016   4.346
55474W        W16895   6.688  12.239   3.278
55475W        W16896   8.244  29.002  12.502
55476W        W16897  11.195  30.965   0.253
55477W        W16898  26.958  38.914   3.295
55478W        W16899  25.707  27.115   3.381
55479W        W16900  17.153   6.405  13.378
55480W        W16901   9.646   3.948  14.871
55481W        W16902   7.893   0.840  13.889
55482W        W16903  31.615  13.823   3.853
55483W        W16904  39.500  44.849  11.426
55484W        W16905  10.298  25.126   2.784
55485W        W16906   0.258  35.451  13.429
55486W        W16907  15.714  35.000  12.379
55487W        W16908  12.704  32.409   2.300
55488W        W16909  18.066   3.881   2.213
55489W        W16910  25.589  43.461  10.928
55490W        W16911   9.284  37.447  12.372
55491W        W16912  12.139  38.032   0.331
55492W        W16913  26.554  18.726   4.791
55493W        W16914  11.258  19.775  12.919
55494W        W16915  38.381  36.934  14.327
55495W        W16916   1.837   2.848  11.394
55496W        W16917   7.753  20.209   3.346
55497W        W16918  35.034   0.252  11.378
55498W        W16919  29.538  36.577  11.550
55499W        W16920  35.379  17.675   1.249
55500W        W16921  23.158  37.560   4.764
55501W        W16922  33.383  28.004  11.423
55502W        W16923  43.848  31.555  12.013
55503W        W16924   3.388  25.984   2.237
55504W        W16925  17.111  39.823  10.430
55505W        W16926  35.957  28.616  10.532
55506W        W16927  43.857  15.178  10.045
55507W        W16928   0.776  17.769  14.313
55508W        W16929  38.972  22.068  12.915
55509W        W16930  22.109  16.151  11.033
55510W        W16931   3.709  43.951   5.221
55511W        W16932  34.875  25.085   4.322
55512W        W16933   9.208  21.168  13.308
55513W        W16934  40.457  38.463  14.939
55514W        W16935  11.704  40.839   4.168
55515W        W16936   7.174  22.234  13.917
55516W        W16937   2.895   1.405   4.816
55517W        W16938  32.014  32.916   3.846
55518W        W16939  20.126  22.135  12.828
55519W        W16940  17.281  31.459  14.450
55520W        W16941  22.214  32.450   1.765
55521W        W16942   3.438  31.458  12.557
55522W        W16943  30.104  11.262  14.925
55523W        W16944  35.860  31.032   1.799
55524W        W16945  23.709  43.462  11.501
55525W        W16946  40.873  23.051  12.403
55526W        W16947  19.076   9.729  12.960
55527W        W16948   8.354  18.708  11.477
55528W        W16949  39.471  13.147  13.483
55529W        W16950  30.092   0.787   0.307
55530W        W16951  31.577  33.087  11.537
55531W        W16952  18.555  17.751  14.795
55532W        W16953  36.424  22.514  11.126
55533W        W16954  29.977  38.919   4.825
55534W        W16955  25.544  20.223  14.331
55535W        W16956  13.208  34.541   3.318
55536W        W16957  30.492  35.561  14.330
55537W        W16958   4.922  31.486  12.033
55538W        W16959   7.786  40.048  11.401
55539W        W16960  41.488  39.822  10.965
55540W        W16961  30.483  36.398   1.725
55541W        W16962   6.260   7.332  11.894
55542W        W16963  16.768  18.671   1.300
55543W        W16964  29.956   2.335   0.728
55544W        W16965  29.023  40.015   3.276
55545W        W16966  12.671   9.782  14.455
55546W        W16967  39.398  28.012  11.451
55547W        W16968  32.894   5.290  12.896
55548W        W16969  25.007  21.062  11.552
55549W        W16970  16.652   5.751  10.410
55550W        W16971  19.621  44.330  10.980
55551W        W16972  17.222  34.599  12.506
55552W        W16973  35.960  37.355  14.890
55553W        W16974  19.556  22.714   1.215
55554W        W16975   9.788   0.773  13.908
55555W        W16976  18.652  39.841   3.379
55556W        W16977   2.279  33.899   3.765
55557W        W16978  36.474  10.347  12.981
55558W        W16979  12.677   0.355  12.005
55559W        W16980  20.167  28.561  14.453
55560W        W16981  36.027  44.461  10.601
55561W        W16982  26.976  37.999   3.817
55562W        W16983  37.869  41.522  11.046
55563W        W16984  17.147   4.328   1.378
55564W        W16985   9.730  21.138  10.907
55565W        W16986  26.661  34.894   4.633
55566W        W16987  19.548   4.217   1.269
55567W        W16988  11.727  29.931   3.372
55568W        W16989  37.449  42.020  14.813
55569W        W16990  27.100  30.126   4.679
55570W        W16991  13.263   7.702  11.468
55571W        W16992  19.245  25.009   3.222
55572W        W16993  43.316   5.361  10.420
55573W        W16994  25.967  36.060   3.725
55574W        W16995  18.075  16.107   0.917
55575W        W16996  20.150   9.190  13.348
55576W        W16997  13.713  40.342   3.300
55577W        W16998  25.699  25.014  12.897
55578W        W16999  39.853  39.013   2.340
55579W        W17000  18.209   0.401   0.447
55580W        W17001   9.202  25.014   4.784
55581W        W17002  26.508  30.937   3.733
55582W        W17003  10.263  15.132   2.285
55583W        W17004  17.092  35.486  13.351
55584W        W17005  19.574  43.456  14.464
55585W        W17006  32.970  34.948   0.880
55586W        W17007  25.045  31.462   0.360
55587W        W17008  35.030   4.226   3.868
55588W        W17009  11.143  41.815   0.363
55589W        W17010  32.044  25.999  11.946
55590W        W17011   4.799  13.170  13.422
55591W        W17012   3.273  35.426   0.905
55592W        W17013   0.971  30.936  14.429
55593W        W17014  24.228   4.354   1.281
55594W        W17015  13.218  23.043  13.414
55595W        W17016  24.504   8.852   0.247
55596W        W17017  40.360   3.875  14.896
55597W        W17018  22.687  24.521  14.794
55598W        W17019   5.314  33.446  10.046
55599W        W17020  41.810   6.917   2.817
55600W        W17021  42.842  14.269   0.879
55601W        W17022  32.025  29.595  13.045
55602W        W17023  32.959  27.642  13.461
55603W        W17024  23.994  44.978   4.662
55604W        W17025  25.632  11.341  12.507
55605W        W17026   3.898   2.829  10.611
55606W        W17027   3.760  43.322   2.214
55607W        W17028  26.015   5.331   9.991
55608W        W17029  36.347  10.689   4.149
55609W        W17030  17.794  21.193  10.412
55610W        W17031  16.773   0.321   3.361
55611W        W17032   6.741  27.448   1.210
55612W        W17033   3.360  35.463   1.924
55613W        W17034  38.888  36.578  14.878
55614W        W17035  41.807  44.922  13.834
55615W        W17036  34.542  44.259   2.179
55616W        W17037  23.091  19.562  10.445
55617W        W17038  38.460  39.440  10.449
55618W        W17039  37.380  13.320  12.941
55619W        W17040  36.885   6.794  13.519
55620W        W17041  21.031   9.706   3.673
55621W        W17042  19.160  38.066   4.805
55622W        W17043  30.048  26.096   1.354
55623W        W17044   1.470  41.910  12.553
55624W        W17045  13.123  13.782   0.359
55625W        W17046  39.007  22.690   1.883
55626W        W17047  12.671  17.568  13.978
55627W        W17048  32.511  24.066  11.086
55628W        W17049  40.957  28.162   4.320
55629W        W17050   1.350   9.736   2.314
55630W        W17051  33.612   4.345  10.964
55631W        W17052  27.485  23.052  14.350
55632W        W17053   2.789  40.024  12.069
55633W        W17054  26.022   2.896   3.803
55634W        W17055   2.853  13.140  10.966
55635W        W17056  26.460   8.278  10.910
55636W        W17057  15.752  16.679  10.989
55637W        W17058   9.806  28.486  11.041
55638W        W17059  35.597  31.918  13.413
55639W        W17060  35.076   5.725  12.506
55640W        W17061   3.935   4.742   4.757
55641W        W17062   9.848   2.774   4.266
55642W        W17063  14.265  32.532  10.642
55643W        W17064  11.340  35.941  13.894
55644W        W17065  44.810   0.756  14.883
55645W        W17066  15.687  40.402  10.418
55646W        W17067  32.093   4.443  10.451
55647W        W17068   2.345  22.203  14.951
55648W        W17069  21.560  30.090  10.596
55649W        W17070  41.376  31.077   2.754
55650W        W17071   7.241  41.865  13.912
55651W        W17072  39.985   4.716  13.040
55652W        W17073  27.665  16.269   1.894
55653W        W17074  25.008   0.924   4.154
55654W        W17075  37.849   3.813  13.353
55655W        W17076   9.165  27.475   1.927
55656W        W17077  13.138  26.513  10.511
55657W        W17078   6.858  16.636   0.867
55658W        W17079  34.574   5.869   0.840
55659W        W17080   3.242  35.597  12.537
55660W        W17081   1.445  33.892  10.951
55661W        W17082  19.071   2.343  13.952
55662W        W17083  15.203  18.138   4.737
55663W        W17084  22.026  35.881   0.424
55664W        W17085   4.419   4.226  10.899
55665W        W17086  19.533  30.998   1.415
55666W        W17087  19.213  27.683   2.876
55667W        W17088  41.017  29.596   1.902
55668W        W17089   9.863  37.372  12.516
55669W        W17090   6.289   7.270   1.716
55670W        W17091  44.780  37.889  13.515
55671W        W17092  34.930  25.479   3.654
55672W        W17093  21.064  38.514  12.547
55673W        W17094  12.814  26.626  14.024
55674W        W17095  27.565  20.525   4.733
55675W        W17096   4.299   7.782  14.348
55676W        W17097  44.287  19.200   4.219
55677W        W17098   9.190  26.691  13.027
55678W        W17099  36.381  22.216  11.035
55679W        W17100  17.589  14.801   2.334
55680W        W17101  31.113  11.317  14.925
55681W        W17102  35.432  29.486  13.008
55682W        W17103  42.466   0.868   3.679
55683W        W17104  42.858  14.176   9.953
55684W        W17105  44.755  38.425  11.375
55685W        W17106  42.392  36.402   0.748
55686W        W17107   5.350  35.445   2.234
55687W        W17108  38.327  28.535   1.706
55688W        W17109   6.269  43.944  13.872
55689W        W17110  37.390  17.278  13.468
55690W        W17111  29.112  39.324   0.466
55691W        W17112  30.007  36.889  12.417
55692W        W17113   7.883   4.777  10.466
55693W        W17114  29.996  15.130   1.266
55694W        W17115  18.661  43.001   1.421
55695W        W17116  33.117  21.746  10.941
55696W        W17117  21.649  37.994   2.890
55697W        W17118   2.844  39.450   1.902
55698W        W17119  41.929  40.440  12.943
55699W        W17120  32.620   3.367   4.276
55700W        W17121  39.313  19.064   3.303
55701W        W17122  40.496  15.271  11.532
55702W        W17123  44.950  35.898   4.203
55703W        W17124  28.091  15.799  13.524
55704W        W17125   7.224   0.258   4.185
55705W        W17126  33.458  36.368   1.213
55706W        W17127  31.948   5.903  13.547
55707W        W17128  22.739  28.677  13.821
55708W        W17129  26.490  11.142   0.727
55709W        W17130  10.657  29.642   1.802
55710W        W17131   2.312  30.049  12.499
55711W        W17132  25.158  13.348  14.515
55712W        W17133  40.306  13.325  11.897
55713W        W17134  41.000  16.611  12.385
55714W        W17135   8.382  18.253  13.345
55715W        W17136  44.979  36.484   1.321
55716W        W17137  42.980  17.658  12.000
55717W        W17138  15.307  39.986   1.217
55718W        W17139  41.849  44.973  14.372
55719W        W17140   2.895  10.319  12.506
55720W        W17141  41.321  28.111  13.797
55721W        W17142  20.155  40.544   5.221
55722W        W17143  41.529  30.485   0.926
55723W        W17144   6.913   1.422  14.784
55724W        W17145   4.722  31.613  12.349
55725W        W17146  33.917  18.735   1.736
55726W        W17147  37.073  41.910  11.881
55727W        W17148   6.812   7.203   0.407
55728W        W17149  28.027  35.361  11.510
55729W        W17150  27.531  40.941   1.377
55730W        W17151  39.490  19.578  12.042
55731W        W17152  33.528  24.480  14.851
55732W        W17153  42.010  32.598   3.729
55733W        W17154  16.198  35.927   3.334
55734W        W17155  18.277   3.751   4.146
55735W        W17156  34.469  10.228  13.344
55736W        W17157  39.417  21.044   3.161
55737W        W17158  19.205  13.622  11.387
55738W        W17159   0.911  13.746  13.798
55739W        W17160  18.722  26.524  10.893
55740W        W17161   6.242  26.013  14.825
55741W        W17162  16.724  15.104  12.390
55742W        W17163  25.697  28.462   4.744
55743W        W17164   6.687   9.172   0.795
55744W        W17165  13.139  40.868  12.388
55745W        W17166  44.463  34.513  14.488
55746W        W17167  22.652  39.393  11.460
55747W        W17168  33.108  13.819   4.132
55748W        W17169  24.697  20.551  13.870
55749W        W17170  44.423  18.587   0.839
55750W        W17171  27.554  17.063  12.880
55751W        W17172  34.958  37.066  13.402
55752W        W17173  44.944  33.961  10.977
55753W        W17174  19.233  10.256   4.820
55754W        W17175  23.627  33.054  11.052
55755W        W17176  14.287  27.096  14.912
55756W        W17177  13.676   9.327   0.350
55757W        W17178  21.110  43.781   4.833
55758W        W17179  28.940  23.604  10.642
55759W        W17180  11.854  28.510   3.749
55760W        W17181  18.137   6.825   0.772
55761W        W17182  36.035  22.021   3.819
55762W        W17183   8.798  36.051   2.307
55763W        W17184  41.519  41.038   1.345
55764W        W17185  22.137  17.082  10.947
55765W        W17186   2.356  11.170  10.557
55766W        W17187  12.734  28.502   3.711
55767W        W17188  39.824  30.951  12.991
55768W        W17189   0.360  39.395  14.996
55769W        W17190  18.219  38.919   0.314
55770W        W17191  32.111  36.903  12.416
55771W        W17192  10.658  21.194  13.831
55772W        W17193   6.749  35.514  14.832
55773W        W17194  14.135   8.720   0.453
55774W        W17195  11.373  41.490  11.554
55775W        W17196  37.397  13.743   4.749
55776W        W17197   9.885  37.553   0.315
55777W        W17198  19.775  40.453  14.506
55778W        W17199  34.071   8.273  13.535
55779W        W17200  40.001  40.917  11.004
55780W        W17201  19.147   9.675  13.359
55781W        W17202  44.956  25.016  13.872
55782W        W17203  21.250  24.073   2.214
55783W        W17204  42.777  28.156  12.339
55784W        W17205  19.593   8.666  11.539
55785W        W17206  13.633   8.820   2.764
55786W        W17207  35.859  12.256  11.108
55787W        W17208  32.607  39.849   1.270
55788W        W17209  22.239  21.545   3.787
55789W        W17210  43.411  13.124   2.273
55790W        W17211  19.094   7.800   3.735
55791W        W17212  14.252  41.875  10.530
55792W        W17213  42.880  26.028  12.439
55793W        W17214  31.557  36.363   3.637
55794W        W17215  16.234  32.081   2.891
55795W        W17216  42.432   3.763  13.370
55796W        W17217   3.818  42.424  11.908
55797W        W17218   5.803  38.034  14.827
55798W        W17219   5.198  23.192   3.312
55799W        W17220  41.948  40.036   0.265
55800W        W17221  35.060  15.582  13.937
55801W        W17222  22.158  17.760  11.476
55802W        W17223  32.984  41.468   0.836
55803W        W17224  35.496  27.970   1.816
55804W        W17225  37.497  30.083   1.735
55805W        W17226   4.449  32.564  14.018
55806W        W17227  16.678  34.610   3.345
55807W        W17228  17.112  40.545   0.758
55808W        W17229  37.458  24.551  11.457
55809W        W17230   6.343  39.999   5.167
55810W        W17231  44.004  42.775   3.860
55811W        W17232  21.580   6.295   2.672
55812W        W17233  37.488  29.131  14.020
55813W        W17234   9.711  44.297   4.751
55814W        W17235  22.711   0.816   3.696
55815W        W17236  18.238  23.631  11.956
55816W        W17237  23.592  21.641   3.705
55817W        W17238  36.396  12.718  14.880
55818W        W17239  42.791  14.106   3.355
55819W        W17240   1.811  24.555   3.650
55820W        W17241  34.457  27.042  13.947
55821W        W17242  22.206  27.197  11.955
55822W        W17243  27.174  17.761  10.571
55823W        W17244   7.757  25.573  11.969
55824W        W17245  44.800  13.763   0.294
55825W        W17246  34.100  11.729  12.948
55826W        W17247  10.199  22.049  14.330
55827W        W17248   1.426  36.913   0.810
55828W        W17249   5.771  14.799  14.916
55829W        W17250  31.508  15.618   3.219
55830W        W17251  28.046  37.462   2.664
55831W        W17252  35.045  39.008  12.065
55832W        W17253  14.645  35.486  11.974
55833W        W17254  36.021   3.281   1.330
55834W        W17255  15.234   4.329  11.580
55835W        W17256  28.001   7.743  13.425
55836W        W17257   5.362  30.078  14.765
55837W        W17258  19.612  26.687  14.811
55838W        W17259   6.322   4.836  11.484
55839W        W17260  39.536   3.333  11.464
55840W        W17261  26.538  31.062   2.882
55841W        W17262   4.372  11.207   4.195
55842W        W17263  42.009  40.950  14.031
55843W        W17264  33.912  30.074  10.944
55844W        W17265  12.676  12.327   3.221
55845W        W17266  30.093  43.987  14.027
55846W        W17267  40.493   9.857   1.855
55847W        W17268  10.155  44.353  13.478
55848W        W17269  23.196  44.801  13.512
55849W        W17270  13.649  34.602   1.713
55850W        W17271   2.374  30.044  14.819
55851W        W17272  13.193  34.905  14.471
55852W        W17273  15.200   1.344  10.438
55853W        W17274  44.318  29.029   0.731
55854W        W17275  31.007  37.478  13.531
55855W        W17276  33.051  27.173  11.887
55856W        W17277  38.997  34.096  12.046
55857W        W17278  10.818   4.226   0.327
55858W        W17279  34.939  37.554   0.310
55859W        W17280   7.791  13.217  10.434
55860W        W17281   9.672  10.815  12.519
55861W        W17282  12.211  25.040   0.964
55862W        W17283  17.797  33.596   4.279
55863W        W17284  20.116  19.059   2.783
55864W        W17285   9.722   4.775   0.742
55865W        W17286  28.136  42.429  10.982
55866W        W17287  32.623  24.224  13.395
55867W        W17288   0.986  20.192  12.389
55868W        W17289  15.781  17.179   2.882
55869W        W17290  32.523  37.852  13.943
55870W        W17291  22.599  10.696   0.418
55871W        W17292  42.395  38.006  11.898
55872W        W17293   4.937  42.951  14.491
55873W        W17294  35.053  12.778  12.870
55874W        W17295  19.644   3.754   4.634
55875W        W17296   5.839  21.084   1.851
55876W        W17297  29.164  36.421  14.779
55877W        W17298   3.924  15.198  14.876
55878W        W17299  24.008  22.657  13.987
55879W        W17300  11.684  22.582   4.115
55880W        W17301  23.172  22.182   4.776
55881W        W17302  29.061   9.779   0.339
55882W        W17303  42.515  13.631   2.360
55883W        W17304   8.198   2.370  11.459
55884W        W17305  16.163  32.029  13.818
55885W        W17306  29.062   5.763  11.581
55886W        W17307  24.643  37.963   3.831
55887W        W17308  38.027  27.184   4.347
55888W        W17309  11.320  23.618   4.695
55889W        W17310  32.521   4.236   3.802
55890W        W17311  41.448   9.768   4.598
55891W        W17312  41.487  34.912  12.343
55892W        W17313   7.362  41.357   4.227
55893W        W17314  28.163  34.482   0.411
55894W        W17315  20.662  29.073  13.335
55895W        W17316   0.418   9.794   4.350
55896W        W17317   5.813   5.423  13.888
55897W        W17318  35.936  31.582  13.031
55898W        W17319  43.420  23.622   3.147
55899W        W17320  20.074  13.719   0.778
55900W        W17321  18.228   2.319  11.892
55901W        W17322   4.728   0.923   2.415
55902W        W17323  39.840  10.866   1.335
55903W        W17324  22.639  13.768   5.237
55904W        W17325  19.044  36.034   0.888
55905W        W17326  43.366   2.904  13.545
55906W        W17327   1.925  16.232   3.694
55907W        W17328   2.378   7.239   5.130
55908W        W17329  28.526  26.653  11.555
55909W        W17330  18.653   3.361  11.466
55910W        W17331  27.024  19.545  11.494
55911W        W17332  12.740  21.679  13.431
55912W        W17333  20.149  17.175   4.649
55913W        W17334  44.971  19.656  13.975
55914W        W17335   0.770  23.162   2.830
55915W        W17336  24.532  31.639  14.905
55916W        W17337  42.846  33.994   1.370
55917W        W17338  30.922  18.133  12.901
55918W        W17339   4.281  41.321   4.336
55919W        W17340  32.948  35.975   3.218
55920W        W17341   0.334   0.974   3.305
55921W        W17342  32.990   0.902  14.434
55922W        W17343  35.441  33.539   4.320
55923W        W17344  29.119  20.755  10.976
55924W        W17345   4.921  22.205   0.800
55925W        W17346   7.281  30.951  14.010
55926W        W17347   8.730  25.172   0.765
55927W        W17348  20.132  14.763   0.356
55928W        W17349  24.689  28.165   4.608
55929W        W17350  43.002  22.157  13.003
55930W        W17351  30.546  30.417   3.298
55931W        W17352   3.738  14.625   4.657
55932W        W17353  30.997  42.390  13.479
55933W        W17354  29.936  36.436  10.608
55934W        W17355  43.425  29.166  14.919
55935W        W17356  31.479  22.571  11.002
55936W        W17357  17.613  22.202   1.848
55937W        W17358  16.175   1.408   4.113
55938W        W17359  41.838  17.157   3.696
55939W        W17360  11.231  30.936  10.630
55940W        W17361  18.177   1.351  12.925
55941W        W17362  39.039  44.292  12.029
55942W        W17363   7.249  22.119  11.465
55943W        W17364  13.692  23.519   4.637
55944W        W17365  20.137  34.390   3.870
55945W        W17366  17.145  26.558  12.475
55946W        W17367  24.499   8.668   1.316
55947W        W17368  38.343   0.917  10.500
55948W        W17369  40.019   5.357  12.070
55949W        W17370   0.487  31.408  12.838
55950W        W17371   2.764  43.991   4.703
55951W        W17372  35.063  16.283   2.398
55952W        W17373  16.186  30.943   0.483
55953W        W17374  15.107  19.083   2.316
55954W        W17375  40.045  38.456   1.799
55955W        W17376  40.521   8.402   2.667
55956W        W17377  39.894   4.760  14.838
55957W        W17378  35.068  26.151  13.376
55958W        W17379  26.194   0.903   0.807
55959W        W17380   0.409   4.234   0.828
55960W        W17381  27.969  37.536  12.454
55961W        W17382  44.380  27.470  14.845
55962W        W17383  14.780  31.002   2.756
55963W        W17384  42.384   5.696  11.586
55964W        W17385  16.307  26.964   1.234
55965W        W17386  19.641  27.192  12.552
55966W        W17387   5.398  31.578   0.428
55967W        W17388  42.870  43.352   2.291
55968W        W17389  31.996  26.674   1.419
55969W        W17390   7.249  15.751   1.841
55970W        W17391  33.089  33.972   4.722
55971W        W17392  43.284   2.866  12.867
55972W        W17393   4.932  29.543  10.611
55973W        W17394  16.613   1.820   3.225
55974W        W17395  23.681  14.780   3.182
55975W        W17396  33.436  18.114   3.148
55976W        W17397  32.431  40.912  14.014
55977W        W17398  23.004  23.226  12.457
55978W        W17399  30.097  43.288  12.488
55979W        W17400  24.674  17.624  13.978
55980W        W17401  21.672   3.837   1.413
55981W        W17402  10.783  29.441   1.241
55982W        W17403  36.389  41.474   2.758
55983W        W17404   1.877  44.877   2.362
55984W        W17405   5.905  42.467   2.387
55985W        W17406   7.827  15.161   4.657
55986W        W17407  16.705  29.935  10.629
55987W        W17408  10.876   0.917  14.965
55988W        W17409   3.739  29.574  12.552
55989W        W17410  37.532  13.144   0.738
55990W        W17411  14.746  31.538  11.909
55991W        W17412   9.835  22.573   3.760
55992W        W17413  17.615  10.329   2.216
55993W        W17414  24.054  43.463   3.291
55994W        W17415  42.326   3.384   2.785
55995W        W17416  43.987  11.323   2.721
55996W        W17417   7.415  30.066   1.269
55997W        W17418  16.219  38.073  10.564
55998W        W17419  31.932  35.882   2.737
55999W        W17420  21.142  19.141  12.073
56000W        W17421  27.095  18.257   2.715
56001W        W17422  35.565  25.124  13.543
56002W        W17423   3.770  40.849  14.822
56003W        W17424  15.777  29.663   1.413
56004W        W17425  17.653  31.106  13.919
56005W        W17426  19.663  41.462  11.403
56006W        W17427  42.937  30.458  14.932
56007W        W17428  10.227   2.360   3.723
56008W        W17429  39.876  42.374   2.324
56009W        W17430   1.390  10.847  12.056
56010W        W17431  21.042  35.909  14.005
56011W        W17432  11.738  37.956  13.062
56012W        W17433  39.396  37.083  12.415
56013W        W17434   9.744  41.918   2.837
56014W        W17435  30.963   0.417   4.709
56015W        W17436  41.013  21.080   1.216
56016W        W17437  36.359  40.471  13.325
56017W        W17438  44.281  16.648  10.406
56018W        W17439  28.181  35.966   0.752
56019W        W17440  26.079  30.139  11.951
56020W        W17441  20.264  40.001  11.991
56021W        W17442   9.657  19.119  12.857
56022W        W17443  21.129  28.093  12.081
56023W        W17444  22.199   4.204   1.699
56024W        W17445  22.569  13.209  14.418
56025W        W17446  39.984  16.197  11.375
56026W        W17447  16.235  24.134   0.876
56027W        W17448   9.790  31.589  14.867
56028W        W17449  26.538  11.750  10.587
56029W        W17450  14.686  29.131  11.902
56030W        W17451  10.298  28.171   0.435
56031W        W17452   9.300  38.074   1.749
56032W        W17453   3.796   4.889   1.264
56033W        W17454  35.075  28.950   5.283
56034W        W17455  36.074  41.008   4.684
56035W        W17456  17.766  22.717  10.901
56036W        W17457  29.661  26.582  11.897
56037W        W17458  40.979  39.055  14.436
56038W        W17459  20.265  41.467  14.276
56039W        W17460  15.772  20.240  14.970
56040W        W17461  33.426  27.539  14.858
56041W        W17462  43.889  32.407  12.083
56042W        W17463  35.401  44.944  13.397
56043W        W17464  41.478  40.844  11.890
56044W        W17465  39.973  35.951   3.199
56045W        W17466  28.973  41.534   0.415
56046W        W17467  18.223  35.387   0.925
56047W        W17468   8.296   8.298   2.777
56048W        W17469  24.015   1.295  11.562
56049W        W17470  34.596  21.173   1.347
56050W        W17471  21.208  36.542   3.760
56051W        W17472  24.532  24.716   1.926
56052W        W17473  10.680   8.761  13.005
56053W        W17474   0.263  27.015   3.351
56054W        W17475  32.520  33.528  13.312
56055W        W17476  18.168   5.259   4.209
56056W        W17477   8.277  33.001   3.846
56057W        W17478  11.204  43.311   0.853
56058W        W17479  18.229  27.104  11.083
56059W        W17480   4.916  33.118   2.892
56060W        W17481   7.717   1.455   4.145
56061W        W17482  23.149  35.363   0.901
56062W        W17483  32.082  44.502   0.271
56063W        W17484  16.227   7.229   1.840
56064W        W17485  33.988  11.634   4.176
56065W        W17486  25.206  27.117  12.890
56066W        W17487   0.947  18.266  12.540
56067W        W17488  39.033   2.892  12.565
56068W        W17489  41.920   7.401   1.321
56069W        W17490  36.400  10.827   0.396
56070W        W17491  36.414  43.327  14.801
56071W        W17492   7.395  19.711   3.698
56072W        W17493  42.473  36.375   3.275
56073W        W17494   5.286  36.860   4.334
56074W        W17495   0.866  22.224  10.591
56075W        W17496  31.947  25.506  11.069
56076W        W17497  35.876  36.422  12.987
56077W        W17498   9.387  18.206   2.279
56078W        W17499  28.156  24.173   0.837
56079W        W17500  32.528  16.796   2.407
56080W        W17501  22.613  17.592   0.942
56081W        W17502  20.097  23.058  14.019
56082W        W17503  11.169   3.240  12.518
56083W        W17504  41.040  27.960  14.792
56084W        W17505  17.800  34.441  14.820
56085W        W17506   5.332  41.448   2.382
56086W        W17507  18.227  43.835  10.630
56087W        W17508  33.097  21.123   4.700
56088W        W17509  10.171   4.224   4.819
56089W        W17510  16.200   5.284   1.929
56090W        W17511  36.069  11.323   4.354
56091W        W17512   4.449  26.651   0.313
56092W        W17513  31.486  17.570  11.465
56093W        W17514  20.767   2.795   3.633
56094W        W17515   5.299  38.902  11.469
56095W        W17516  27.471  44.383  11.126
56096W        W17517  11.856  29.565  10.933
56097W        W17518   8.684  29.550   1.873
56098W        W17519   2.263  33.879  14.283
56099W        W17520  32.591  32.579  12.049
56100W        W17521  12.736  44.956   1.264
56101W        W17522  21.718  25.681   0.763
56102W        W17523  40.944   1.977   3.716
56103W        W17524  44.307  40.478  13.541
56104W        W17525  31.002   5.436  14.775
56105W        W17526  18.546  33.583   3.196
56106W        W17527  10.758  35.951   0.430
56107W        W17528  30.550  10.731   2.271
56108W        W17529  10.729  39.550   0.324
56109W        W17530  31.645  39.052  13.476
56110W        W17531  44.490  12.655   1.377
56111W        W17532  20.163   9.222   3.774
56112W        W17533  31.946  36.410  14.362
56113W        W17534  36.979   8.844  12.060
56114W        W17535  43.284   1.262  10.506
56115W        W17536  43.282  34.571  13.802
56116W        W17537  30.600  40.347   0.386
56117W        W17538  19.602  44.938   1.825
56118W        W17539  35.062  13.619   4.215
56119W        W17540  39.427  37.352  12.423
56120W        W17541  39.353  34.952   2.711
56121W        W17542   1.261  42.001   3.237
56122W        W17543   3.420   5.205   2.356
56123W        W17544   2.914  12.671  11.547
56124W        W17545  27.538  33.023  10.954
56125W        W17546  14.685   0.339   0.838
56126W        W17547  29.164   6.353  12.432
56127W        W17548  22.523  21.238  14.797
56128W        W17549   0.809  42.880   2.340
56129W        W17550  19.777  25.626   3.274
56130W        W17551   7.287  15.806  12.939
56131W        W17552  30.634  35.912  13.440
56132W        W17553  35.570  13.181  13.903
56133W        W17554   0.468   4.292  13.503
56134W        W17555  18.293   9.266  14.415
56135W        W17556  37.848  15.654   1.921
56136W        W17557  38.378  22.561   2.671
56137W        W17558  16.111  33.899   9.562
56138W        W17559  39.882   2.231   3.685
56139W        W17560  29.433  16.146   3.644
56140W        W17561  42.307  30.484  11.557
56141W        W17562  26.489  38.989   3.371
56142W        W17563  27.093   0.303  14.859
56143W        W17564  32.096  17.700   0.771
56144W        W17565  21.185  19.202   4.125
56145W        W17566  16.258  25.973   4.637
56146W        W17567  34.558   2.341   2.203
56147W        W17568  19.265   2.880   3.716
56148W        W17569  38.882   3.302  12.374
56149W        W17570  11.179  11.251   2.700
56150W        W17571   0.306  19.597  11.051
56151W        W17572  21.701  13.768  11.914
56152W        W17573  23.015  20.533  14.466
56153W        W17574   6.732   6.866  11.450
56154W        W17575   5.883  43.487   4.672
56155W        W17576  31.406  19.237   2.285
56156W        W17577  11.861   0.492  12.397
56157W        W17578  25.000  39.392   1.762
56158W        W17579   9.867  35.365   3.697
56159W        W17580  30.063  18.287   3.820
56160W        W17581   0.854  37.528   3.675
56161W        W17582  16.793  24.060   0.814
56162W        W17583  39.021  17.741   3.255
56163W        W17584  37.999  16.101   9.594
56164W        W17585  18.249  33.404   3.171
56165W        W17586  34.907  25.136  13.513
56166W        W17587  10.280  22.007  14.913
56167W        W17588  44.893   5.279  14.831
56168W        W17589  19.600  13.131   0.928
56169W        W17590  13.726   7.208  10.981
56170W        W17591  33.888  32.611  11.573
56171W        W17592  20.587  33.576   0.479
56172W        W17593  28.466   5.895  13.884
56173W        W17594  10.760  20.043  10.599
56174W        W17595  43.445  15.584  12.064
56175W        W17596  23.035  40.820  13.450
56176W        W17597  25.540  14.659  12.928
56177W        W17598   3.420   6.867   1.341
56178W        W17599  31.647  26.575   2.385
56179W        W17600  38.822   2.938  14.430
56180W        W17601  39.392  32.430  13.902
56181W        W17602  39.426  12.278  14.835
56182W        W17603  20.675  18.225   2.828
56183W        W17604  10.765   0.342   0.463
56184W        W17605  30.085  42.945   3.186
56185W        W17606  34.496  13.336  13.015
56186W        W17607  28.455   6.381   2.357
56187W        W17608  28.137  43.440  12.402
56188W        W17609  11.730  33.465  10.578
56189W        W17610   0.301  24.498   0.881
56190W        W17611  17.672  13.640  11.962
56191W        W17612   4.216  22.220   0.298
56192W        W17613  26.628  36.072  12.901
56193W        W17614  24.066   3.284  14.322
56194W        W17615  13.682  41.368  13.315
56195W        W17616   1.886  12.267   2.234
56196W        W17617  33.426  37.022  12.931
56197W        W17618  29.965  25.480   2.325
56198W        W17619  20.036  14.149   0.940
56199W        W17620   9.396   3.300  12.048
56200W        W17621   7.384  19.118  11.106
56201W        W17622  27.987   2.463  10.076
56202W        W17623   3.796  36.470  13.811
56203W        W17624  21.060  30.102  12.891
56204W        W17625  14.310  32.465  12.977
56205W        W17626  16.584   9.233  13.027
56206W        W17627   3.792  29.988   2.342
56207W        W17628  43.009   1.809  11.472
56208W        W17629  28.017  39.411  13.886
56209W        W17630  29.010  36.008   1.331
56210W        W17631   4.867  40.827  12.531
56211W        W17632  44.297  25.147   0.864
56212W        W17633   2.921  22.514   2.260
56213W        W17634  34.045  27.643   4.269
56214W        W17635   3.920  28.574   3.821
56215W        W17636  40.011  17.705  11.903
56216W        W17637  30.984  19.065   2.803
56217W        W17638  42.821   2.466   4.298
56218W        W17639   8.402  24.674  12.552
56219W        W17640  34.959  37.436   1.368
56220W        W17641  34.070  17.114   0.857
56221W        W17642  34.009  15.328   3.154
56222W        W17643  42.378  21.610   0.891
56223W        W17644  22.230  34.979  14.837
56224W        W17645   7.283  11.747   3.180
56225W        W17646  35.393  10.713  13.394
56226W        W17647  22.025  28.973  11.437
56227W        W17648  36.545  29.536  12.384
56228W        W17649  20.237  17.734   2.246
56229W        W17650  29.569   3.422   5.162
56230W        W17651  35.576  36.999  10.577
56231W        W17652   2.280   2.408   0.348
56232W        W17653  41.824  44.976  13.450
56233W        W17654  34.962  40.850   0.446
56234W        W17655  26.686  40.410  13.891
56235W        W17656  23.636  12.814   4.741
56236W        W17657  23.713  34.520  14.804
56237W        W17658  23.540  30.412   2.669
56238W        W17659  43.345  11.209  12.933
56239W        W17660   4.872  10.248  13.459
56240W        W17661  33.456  28.456  11.867
56241W        W17662  41.796   7.182  11.492
56242W        W17663  16.578  12.325  10.925
56243W        W17664  40.895   9.221   2.666
56244W        W17665   5.815   1.424  10.042
56245W        W17666  13.794  42.937  11.912
56246W        W17667  13.302  44.372  13.983
56247W        W17668  36.950  16.209   4.703
56248W        W17669  12.820  15.124   2.271
56249W        W17670  18.553  43.467   2.789
56250W        W17671   6.297  15.092   1.435
56251W        W17672  24.205  21.087  14.511
56252W        W17673   3.369   0.439   5.132
56253W        W17674  36.980  39.045   2.729
56254W        W17675  17.636  44.981   1.784
56255W        W17676  32.044  28.566  14.018
56256W        W17677  12.323   6.297  10.576
56257W        W17678  28.461  22.534  12.569
56258W        W17679   1.416  28.529  14.902
56259W        W17680   2.445  18.548   0.731
56260W        W17681  19.069  27.674   1.763
56261W        W17682  24.031  21.185  11.001
56262W        W17683   0.443  35.889  13.955
56263W        W17684  20.106  32.603   1.329
56264W        W17685  12.155   8.792   0.799
56265W        W17686  30.024  39.815   3.854
56266W        W17687  10.197  31.523   2.260
56267W        W17688  43.320  32.074  11.124
56268W        W17689  31.971  34.576   2.231
56269W        W17690  17.600  25.128  11.449
56270W        W17691  17.154  34.971  11.566
56271W        W17692  17.655  23.728  11.384
56272W        W17693  25.661  22.229  13.967
56273W        W17694  15.085  37.556  14.944
56274W        W17695  22.113  21.042   4.724
56275W        W17696  15.117  27.177  12.057
56276W        W17697  22.131   9.180  10.480
56277W        W17698  27.042   3.865   4.229
56278W        W17699  35.034  24.004   0.348
56279W        W17700  12.630  16.571  11.377
56280W        W17701   8.326  11.684  10.924
56281W        W17702   2.388  32.931  14.816
56282W        W17703  27.125  29.121  14.976
56283W        W17704   6.257   9.194  11.588
56284W        W17705  33.612  18.150  11.908
56285W        W17706   6.888  10.738  13.001
56286W        W17707  22.125  36.915  14.894
56287W        W17708   8.722  37.404   0.828
56288W        W17709  43.884  37.021   0.763
56289W        W17710   9.732  39.878  11.008
56290W        W17711  38.413  34.463  10.518
56291W        W17712  22.739  13.166  10.573
56292W        W17713  17.253  10.280  10.552
56293W        W17714  36.051  11.781   2.662
56294W        W17715  22.117  19.154  13.962
56295W        W17716   4.931  43.903   2.220
56296W        W17717  35.402  16.127  12.034
56297W        W17718  14.815  15.802  13.412
56298W        W17719  20.194  43.457  14.369
56299W        W17720  31.148  27.072  14.484
56300W        W17721  37.439  20.707   0.910
56301W        W17722  27.629  14.621   9.628
56302W        W17723  20.035  17.077   0.316
56303W        W17724   6.707   1.303  11.436
56304W        W17725   0.901  17.729  11.965
56305W        W17726  22.008  21.733  13.846
56306W        W17727   8.203  39.907  13.455
56307W        W17728   1.965  33.887  10.596
56308W        W17729  30.596  22.560   3.228
56309W        W17730  11.851  18.056  11.539
56310W        W17731  10.719  19.704  14.888
56311W        W17732  13.135   2.811  10.431
56312W        W17733   1.925  32.479   3.667
56313W        W17734  20.570  23.011   4.313
56314W        W17735  38.568   9.709   4.821
56315W        W17736   7.374  10.654   0.864
56316W        W17737  29.433  25.213   0.298
56317W        W17738  44.815  35.593  14.987
56318W        W17739   1.273  16.710   2.741
56319W        W17740  32.116  21.734  10.503
56320W        W17741  44.395  37.548   5.206
56321W        W17742   7.824  41.357   0.732
56322W        W17743  25.641   4.216  11.477
56323W        W17744  44.852  19.568   5.124
56324W        W17745  32.951  18.216  11.553
56325W        W17746  41.864   1.769   0.768
56326W        W17747  11.747  36.871  13.339
56327W        W17748   8.346  26.110   0.887
56328W        W17749  43.948  13.280  10.981
56329W        W17750  44.338  28.681   1.365
56330W        W17751  28.952   9.178   4.831
56331W        W17752  15.259  18.645  13.493
56332W        W17753   4.390  25.183  13.016
56333W        W17754  25.216   0.974   2.741
56334W        W17755  13.188  15.223   4.598
56335W        W17756  42.417  10.239   1.845
56336W        W17757   6.334  11.632   5.196
56337W        W17758  43.965   3.356   0.399
56338W        W17759  37.462  11.296   4.146
56339W        W17760  22.033   1.459  13.011
56340W        W17761  29.432  11.818   1.341
56341W        W17762  38.898  18.136   2.304
56342W        W17763  12.164  25.206  14.953
56343W        W17764  33.440  35.008  13.871
56344W        W17765  23.601  10.280   3.854
56345W        W17766  42.938  23.985   1.308
56346W        W17767  33.052  41.349  12.893
56347W        W17768  36.983  10.208  14.956
56348W        W17769  32.612  40.478  14.334
56349W        W17770   8.879  21.680  12.459
56350W        W17771   0.322   7.360   0.257
56351W        W17772  31.933  39.489  10.565
56352W        W17773   6.218  22.586  11.502
56353W        W17774  31.592   1.913  11.475
56354W        W17775  15.161  19.061   3.770
56355W        W17776  27.078  27.066   3.171
56356W        W17777   4.733  34.942  11.514
56357W        W17778  41.302  27.960  14.965
56358W        W17779  10.699  29.173   1.738
56359W        W17780  23.653   8.300  10.126
56360W        W17781  39.989   6.892   1.768
56361W        W17782  37.037  11.333   2.738
56362W        W17783  28.945   3.845  14.847
56363W        W17784  10.747  32.461  11.953
56364W        W17785  11.169  36.441   4.635
56365W        W17786   9.807   0.985   3.237
56366W        W17787   5.431  26.628   3.263
56367W        W17788   1.335  14.613   1.764
56368W        W17789  23.041  23.017   2.843
56369W        W17790  17.139  18.635   3.870
56370W        W17791  34.546  15.306  14.477
56371W        W17792  28.486  21.102  14.960
56372W        W17793   1.769  28.059   3.674
56373W        W17794  21.680  41.844   0.348
56374W        W17795  30.123   9.703  13.879
56375W        W17796  17.694  23.057  11.858
56376W        W17797  24.725  10.773  14.497
56377W        W17798  36.433  22.170  11.905
56378W        W17799  22.647  40.809   1.908
56379W        W17800  33.540  17.226   9.969
56380W        W17801  34.386  24.663  13.424
56381W        W17802  44.897  36.963   3.380
56382W        W17803  30.981  33.449  13.315
56383W        W17804  35.582   1.256  11.567
56384W        W17805  38.353  12.752   2.866
56385W        W17806  18.295  32.989  11.899
56386W        W17807  31.622   3.289  13.484
56387W        W17808  32.550  36.545  13.818
56388W        W17809  30.565   9.293  12.437
56389W        W17810   2.331   8.272   0.290
56390W        W17811   9.822  34.945   3.737
56391W        W17812  41.940  28.000   1.436
56392W        W17813  21.066  16.284  13.499
56393W        W17814  16.086   0.866  12.036
56394W        W17815  14.823   6.688   4.755
56395W        W17816   3.932  33.054  11.610
56396W        W17817  19.101  18.051   4.641
56397W        W17818  11.678  39.508  14.943
56398W        W17819  24.678  32.475   2.413
56399W        W17820   5.801  15.138  14.459
56400W        W17821   7.810  21.697   0.392
56401W        W17822   8.362  14.677   1.411
56402W        W17823   0.251   9.261  14.945
56403W        W17824  16.127  33.408  14.765
56404W        W17825  21.526  28.966  12.863
56405W        W17826  25.633  39.499   4.751
56406W        W17827  44.447  36.933  11.490
56407W        W17828   3.244  11.800  11.518
56408W        W17829  15.577  36.579  11.566
56409W        W17830  11.812   6.239  14.282
56410W        W17831  32.989  39.930  10.991
56411W        W17832  38.934  30.643   2.181
56412W        W17833  39.523  34.397  14.389
56413W        W17834  44.451   6.321  14.346
56414W        W17835  40.546  25.517  14.782
56415W        W17836  16.655  22.595   4.621
56416W        W17837  30.617   3.447   4.613
56417W        W17838   3.857  42.955  10.120
56418W        W17839  34.372  12.118  11.111
56419W        W17840   9.351   5.795   0.271
56420W        W17841  38.407   0.404  14.947
56421W        W17842  33.889   7.714   4.701
56422W        W17843  40.486  25.698   0.885
56423W        W17844  17.577  34.974   0.473
56424W        W17845  20.037  26.207   3.846
56425W        W17846  24.649  38.430   2.306
56426W        W17847  30.521  40.474   0.934
56427W        W17848   2.822   5.759  13.988
56428W        W17849  11.839  34.083  11.994
56429W        W17850  19.765  17.623   4.797
56430W        W17851  27.020  12.688  10.505
56431W        W17852  11.216  35.855   1.842
56432W        W17853  43.989  31.517   4.636
56433W        W17854  40.853  16.317   3.254
56434W        W17855  44.409   3.836   4.823
56435W        W17856  11.182  38.399   0.792
56436W        W17857  15.808  37.893   1.750
56437W        W17858  41.461  21.661   0.769
56438W        W17859  13.835  44.002   4.339
56439W        W17860  13.339  16.256  12.466
56440W        W17861   2.268  29.458   3.807
56441W        W17862  18.233  24.099   0.326
56442W        W17863  11.689  37.536   3.227
56443W        W17864  12.316  18.773  11.025
56444W        W17865  34.016  11.198  13.471
56445W        W17866  39.054  29.665   2.203
56446W        W17867  20.043   8.179  10.955
56447W        W17868  22.579  19.163   0.907
56448W        W17869  38.825  29.660   1.851
56449W        W17870   6.886   6.821  14.428
56450W        W17871   7.866  14.718   2.674
56451W        W17872  16.608  41.003   4.351
56452W        W17873   1.926  35.070  10.435
56453W        W17874  33.036  40.525   0.957
56454W        W17875  10.268   8.307   2.321
56455W        W17876  42.397  17.764  12.993
56456W        W17877  33.458  12.711  10.130
56457W        W17878  17.084   6.680  13.342
56458W        W17879  17.267  35.545   4.118
56459W        W17880  39.988  33.400  14.831
56460W        W17881  17.211  13.182   3.715
56461W        W17882  30.484  37.830   2.233
56462W        W17883  19.669  24.111   0.779
56463W        W17884  26.061  16.228  12.838
56464W        W17885  25.031  11.239   3.782
56465W        W17886  36.003  36.986  14.930
56466W        W17887  29.525  10.243   1.410
56467W        W17888  12.330   5.193   3.205
56468W        W17889   8.212  26.098   4.150
56469W        W17890  25.570  36.356   0.787
56470W        W17891  13.753  33.382  11.878
56471W        W17892  11.784  38.950   0.947
56472W        W17893  32.446  17.650  11.073
56473W        W17894  15.709   0.925  11.405
56474W        W17895   8.382  37.854  11.920
56475W        W17896  14.634  32.982  11.982
56476W        W17897  29.164  44.908  12.034
56477W        W17898  41.465  41.847  11.878
56478W        W17899  33.109  21.702  13.419
56479W        W17900  10.158  20.745   1.334
56480W        W17901   3.315  27.136  14.820
56481W        W17902  33.410   5.240   9.945
56482W        W17903   1.954   8.758  14.419
56483W        W17904   8.349  10.213  10.446
56484W        W17905   0.342  28.061   0.406
56485W        W17906  22.035  18.101  12.406
56486W        W17907  29.981   0.274  13.910
56487W        W17908   2.445  43.310  10.593
56488W        W17909  20.574  32.119  10.938
56489W        W17910   8.405  23.199  12.506
56490W        W17911   5.329  29.085   3.663
56491W        W17912  12.693  37.394  14.484
56492W        W17913  24.164  34.006  13.338
56493W        W17914   4.373   4.801  11.901
56494W        W17915  11.815  25.529   3.335
56495W        W17916  13.172  40.386   0.430
56496W        W17917   2.834  31.957  12.033
56497W        W17918  41.441  42.344  10.940
56498W        W17919  11.191   4.373  14.364
56499W        W17920   5.933  28.169   3.207
56500W        W17921  35.513  43.782   3.310
56501W        W17922  12.120  33.071   0.433
56502W        W17923  18.771   7.212   4.640
56503W        W17924  31.405   8.221  14.898
56504W        W17925   5.263  37.553  11.412
56505W        W17926  18.695  19.053   0.286
56506W        W17927  30.112   8.762   1.723
56507W        W17928   8.208   4.827  13.826
56508W        W17929  12.244  22.238  12.413
56509W        W17930  40.000  32.951   4.128
56510W        W17931   4.903  31.593   2.302
56511W        W17932   4.814  35.438  14.861
56512W        W17933  25.580  16.251  11.506
56513W        W17934  27.031   8.692   2.777
56514W        W17935  34.475   2.927   2.758
56515W        W17936   0.923  24.177   2.666
56516W        W17937  25.041   9.820  13.846
56517W        W17938  31.405  17.255   3.707
56518W        W17939  31.011  38.421  14.304
56519W        W17940  24.996  36.494   1.367
56520W        W17941  22.629  38.990  14.903
56521W        W17942  38.949  12.167  13.904
56522W        W17943  18.725  22.113   2.243
56523W        W17944  40.010  19.185  14.764
56524W        W17945  15.293  44.792   2.291
56525W        W17946   2.461  30.975  13.058
56526W        W17947   9.868   8.264   3.288
56527W        W17948  14.808  30.011   4.184
56528W        W17949  24.634  40.812  10.929
56529W        W17950  13.756  26.672  12.052
56530W        W17951   1.933   4.277  13.856
56531W        W17952  32.636  24.612   2.778
56532W        W17953  15.579   7.357  13.986
56533W        W17954  43.808  33.037   0.257
56534W        W17955  28.567  43.784  10.546
56535W        W17956  26.951  40.509   3.148
56536W        W17957   6.224  17.208  10.610
56537W        W17958  41.862  36.029  10.453
56538W        W17959  43.507  10.292   3.275
56539W        W17960   8.831   8.813   1.795
56540W        W17961  17.073   9.726   0.387
56541W        W17962  39.406  38.423   2.379
56542W        W17963  16.803  29.447  14.803
56543W        W17964  41.492  14.701   0.776
56544W        W17965  13.275  15.770  13.429
56545W        W17966  37.084  26.049   4.669
56546W        W17967  12.303  43.413   2.417
56547W        W17968  38.023  35.903  11.942
56548W        W17969  19.240  16.199   1.399
56549W        W17970   3.414  23.010  12.432
56550W        W17971  43.444  11.220   4.244
56551W        W17972  22.518  36.845   1.273
56552W        W17973  40.902  40.487  10.446
56553W        W17974  18.281  14.131   3.322
56554W        W17975  28.544  24.668   3.866
56555W        W17976  20.260   1.390  13.876
56556W        W17977  32.481  29.149   3.230
56557W        W17978  40.819  20.584  13.325
56558W        W17979   6.845  21.221   9.974
56559W        W17980   9.290  10.866  12.860
56560W        W17981  23.680   3.917  13.329
56561W        W17982   0.416   8.691   1.702
56562W        W17983   8.161  41.989  11.488
56563W        W17984   4.815  19.613   1.295
56564W        W17985  33.507  32.056   2.714
56565W        W17986   5.430  25.980   3.869
56566W        W17987  26.609  18.697   2.796
56567W        W17988   6.282  29.158   2.852
56568W        W17989  25.120  44.479  13.959
56569W        W17990  36.517   6.850  10.428
56570W        W17991  18.742   3.758  13.038
56571W        W17992  41.028  31.513   3.798
56572W        W17993  28.162  43.457   1.709
56573W        W17994  43.285  23.989   4.822
56574W        W17995  40.958  26.568  13.373
56575W        W17996  39.036  41.490   0.914
56576W        W17997  27.579  10.215   2.799
56577W        W17998  24.138  22.141   2.203
56578W        W17999  22.687   8.213  13.421
56579W        W18000  21.129   9.808  14.425
56580W        W18001  38.466  27.683   3.328
56581W        W18002  36.578  15.776  10.158
56582W        W18003   6.227  29.437  13.502
56583W        W18004  31.941  13.791   3.660
56584W        W18005   8.695   8.759  14.964
56585W        W18006  17.170   4.868   2.282
56586W        W18007   7.848  42.501  13.856
56587W        W18008  27.170  21.031   0.837
56588W        W18009  22.734  30.430   2.271
56589W        W18010  10.735  26.694   2.257
56590W        W18011  21.669  17.610  14.997
56591W        W18012   8.855  44.479  12.007
56592W        W18013  24.133   9.382  13.793
56593W        W18014  17.208   8.857   5.219
56594W        W18015  33.057   7.815   4.312
56595W        W18016  33.071   9.676  12.096
56596W        W18017  17.207  12.173  11.577
56597W        W18018  42.861  37.359  11.972
56598W        W18019   2.749   8.372   0.467
56599W        W18020  39.009  18.212  10.987
56600W        W18021  22.554  42.931  12.572
56601W        W18022   0.917  19.731   4.321
56602W        W18023   2.782  14.661   4.749
56603W        W18024  42.342   7.207  14.290
56604W        W18025  20.061  26.174  13.968
56605W        W18026   6.742  40.950   0.248
56606W        W18027  29.927  38.076  12.843
56607W        W18028  40.504   9.806  11.074
56608W        W18029  20.203  22.702   0.314
56609W        W18030   5.892   3.459   1.739
56610W        W18031  30.125  42.417  11.051
56611W        W18032   4.727  17.637   0.277
56612W        W18033  32.965  31.406   1.794
56613W        W18034  12.836  24.653   1.353
56614W        W18035  31.915  38.411   3.752
56615W        W18036  17.779  14.760   2.754
56616W        W18037  24.658  17.199  13.910
56617W        W18038  30.575  30.614   4.189
56618W        W18039  38.554  38.363   1.351
56619W        W18040  23.592  36.476  14.426
56620W        W18041  15.618  10.845  13.502
56621W        W18042   8.718  32.114   1.846
56622W        W18043  37.926  41.464   1.415
56623W        W18044  32.490  25.556   4.809
56624W        W18045  43.407  42.871  12.857
56625W        W18046  14.638  24.694   0.249
56626W        W18047  38.428   3.275   2.317
56627W        W18048  14.667   3.756   3.276
56628W        W18049  11.663  35.409   3.698
56629W        W18050  15.206  41.337   3.364
56630W        W18051  10.335  41.320   2.192
56631W        W18052  34.016  12.212   4.149
56632W        W18053  10.744  21.216  14.889
56633W        W18054  40.819  37.568   3.280
56634W        W18055  29.533  23.003  10.592
56635W        W18056  19.667   7.889   4.732
56636W        W18057  28.079   4.751  10.565
56637W        W18058   1.839  26.131   4.354
56638W        W18059  15.255  30.511   0.464
56639W        W18060  34.880  29.122   2.270
56640W        W18061  43.926  24.657  13.863
56641W        W18062  17.716   5.366  14.368
56642W        W18063   2.908  29.095   2.768
56643W        W18064  23.609  15.271  11.877
56644W        W18065   9.187  33.976   1.699
56645W        W18066  22.622  26.027  10.623
56646W        W18067  27.537   5.375   2.236
56647W        W18068   3.943   7.764   4.782
56648W        W18069  44.790  37.985  12.942
56649W        W18070  40.810  16.721  13.801
56650W        W18071  23.731  12.259  13.950
56651W        W18072  42.013  32.053  10.995
56652W        W18073  41.307  24.626  10.611
56653W        W18074  43.315   8.213  10.988
56654W        W18075  21.262  16.143  14.394
56655W        W18076  13.228  24.135   2.764
56656W        W18077  16.239   4.850   3.834
56657W        W18078   0.358   3.361   3.673
56658W        W18079  17.638  22.031  11.989
56659W        W18080   8.708   7.687  12.855
56660W        W18081  26.639  21.613   1.434
56661W        W18082  12.225  44.947  13.472
56662W        W18083  16.272  32.491   2.297
56663W        W18084  13.645  30.091   0.407
56664W        W18085   8.383  25.656  10.436
56665W        W18086  27.486  22.679   0.329
56666W        W18087   6.745  44.338  13.423
56667W        W18088   4.400  33.974   0.767
56668W        W18089  24.030  18.194   1.755
56669W        W18090  14.157  25.697  13.411
56670W        W18091  23.018  42.439  10.481
56671W        W18092  28.619  43.953  14.978
56672W        W18093  25.487  21.662  10.516
56673W        W18094   2.873  38.380   2.788
56674W        W18095  28.114  22.720  11.963
56675W        W18096  38.468  42.930  12.540
56676W        W18097  34.372  41.029  11.857
56677W        W18098  16.633  39.941  13.436
56678W        W18099  38.879  29.556  14.417
56679W        W18100  42.437  37.576   4.158
56680W        W18101   4.758  21.686   4.235
56681W        W18102  34.016  17.696  12.831
56682W        W18103  26.010   5.830   1.922
56683W        W18104   1.837   6.891   0.291
56684W        W18105  21.051  35.941  14.374
56685W        W18106  20.212  35.475   3.185
56686W        W18107  38.501  14.116   3.190
56687W        W18108  42.823  38.393  10.607
56688W        W18109  32.614  10.348   0.863
56689W        W18110  44.846  21.688  12.842
56690W        W18111  31.047  10.666   1.388
56691W        W18112   6.714   4.224  11.477
56692W        W18113  28.469   2.845   2.316
56693W        W18114  26.513  35.433  11.379
56694W        W18115  37.501  28.528  11.114
56695W        W18116  44.984  33.596  11.524
56696W        W18117  22.731  11.622   4.622
56697W        W18118  37.382  10.859   3.217
56698W        W18119  31.470  23.080   3.667
56699W        W18120  41.042  30.591  10.638
56700W        W18121  23.721  16.791  14.484
56701W        W18122  35.976   2.369   2.277
56702W        W18123  17.657  33.890  14.363
56703W        W18124  39.042   3.876   4.615
56704W        W18125  43.946  23.011  14.859
56705W        W18126  26.110  15.267  12.521
56706W        W18127  28.521  43.834   1.344
56707W        W18128  39.449  38.912   1.794
56708W        W18129  27.082  33.935   3.689
56709W        W18130  19.092  12.149  14.897
56710W        W18131  39.025  28.530   0.304
56711W        W18132   3.714  40.997  12.479
56712W        W18133   8.350  39.351   4.146
56713W        W18134  43.498   7.728  12.378
56714W        W18135  38.437  11.252   4.629
56715W        W18136   2.284   1.804   3.846
56716W        W18137  40.531  13.127  12.559
56717W        W18138  10.296  31.510  10.554
56718W        W18139  24.532  39.560  14.381
56719W        W18140  42.933  31.505  14.936
56720W        W18141  13.334  22.714   3.756
56721W        W18142  14.630   9.728   2.762
56722W        W18143  27.996  33.956   2.773
56723W        W18144  21.525   4.251  13.866
56724W        W18145  30.447  32.410   2.394
56725W        W18146  16.142  19.743   0.275
56726W        W18147  10.376  22.250   4.321
56727W        W18148  16.269  11.349   1.403
56728W        W18149  12.139  34.398  13.978
56729W        W18150  39.037  21.135   1.743
56730W        W18151  39.916   9.842  12.008
56731W        W18152  25.158  11.720  14.372
56732W        W18153  33.056  14.659  12.002
56733W        W18154  20.552   9.386   0.250
56734W        W18155   2.924  36.964   2.823
56735W        W18156  13.727  31.074  12.920
56736W        W18157  20.576  37.929  14.009
56737W        W18158  21.551   4.791   0.913
56738W        W18159  43.890  42.824   4.288
56739W        W18160   8.879  20.254   3.340
56740W        W18161  32.532  21.742   3.667
56741W        W18162  42.014  16.695   4.830
56742W        W18163  12.792  44.839  13.367
56743W        W18164   5.909  35.447   2.313
56744W        W18165  30.929  30.969   3.333
56745W        W18166  23.665  42.504   4.758
56746W        W18167  39.329  41.957   3.858
56747W        W18168  13.232   2.863   2.681
56748W        W18169  11.660  24.485   3.739
56749W        W18170   4.924  30.483   1.327
56750W        W18171   7.734  25.208   4.662
56751W        W18172  15.689  24.151   1.402
56752W        W18173   5.265   5.249  14.333
56753W        W18174  29.044  31.558   4.621
56754W        W18175  31.496   8.865   3.338
56755W        W18176  12.620   9.745   1.809
56756W        W18177  14.258  23.699  12.941
56757W        W18178  34.885  11.368  14.002
56758W        W18179  12.769  19.186   0.481
56759W        W18180  41.931  14.236  12.417
56760W        W18181   5.738  20.572   4.687
56761W        W18182  39.404  14.290  12.925
56762W        W18183  41.849  42.467  10.909
56763W        W18184  16.580  16.244  14.364
56764W        W18185  41.909  40.311   2.894
56765W        W18186   7.715  36.432   2.822
56766W        W18187  12.630  21.037  12.421
56767W        W18188  34.893  15.297  10.946
56768W        W18189   2.359   2.254  13.891
56769W        W18190   2.831   1.331  11.597
56770W        W18191  22.683  23.178   0.310
56771W        W18192  36.851  38.970  14.823
56772W        W18193  20.697  14.617   1.365
56773W        W18194  39.965  19.241   4.797
56774W        W18195  12.353  33.082  12.388
56775W        W18196  27.959  16.603  13.486
56776W        W18197   3.246  22.072  11.463
56777W        W18198  23.998  28.157  13.865
56778W        W18199   7.351  29.999   0.369
56779W        W18200   6.236  19.590   0.313
56780W        W18201  24.106   2.838   0.849
56781W        W18202  43.439   8.382   2.680
56782W        W18203  29.630  44.286   2.342
56783W        W18204   3.831  44.259  12.042
56784W        W18205  23.517  16.261  11.406
56785W        W18206  23.045  16.720   2.854
56786W        W18207  11.720  34.513  12.442
56787W        W18208  32.546  28.115  13.848
56788W        W18209   4.439  15.777   4.354
56789W        W18210  17.066   4.406   1.834
56790W        W18211  21.532  14.264  13.434
56791W        W18212  10.308   2.285   5.121
56792W        W18213  16.622  20.566   1.297
56793W        W18214  32.095  13.299   1.436
56794W        W18215  21.021   5.834   1.296
56795W        W18216  24.708  21.576   4.619
56796W        W18217   8.771  10.818  10.907
56797W        W18218  15.595  33.035  12.387
56798W        W18219  40.354  23.505  12.433
56799W        W18220  42.283  27.002   1.248
56800W        W18221  15.240  35.581  11.403
56801W        W18222  33.543  30.413   0.252
56802W        W18223   6.787   4.833   9.939
56803W        W18224  11.785  10.683  14.486
56804W        W18225  10.324  26.649  12.379
56805W        W18226  33.901  35.403   0.477
56806W        W18227  29.142  34.043   4.339
56807W        W18228  42.440  38.904  12.425
56808W        W18229  17.172  44.847   3.694
56809W        W18230  44.873  34.084  11.900
56810W        W18231   3.954  38.917   9.983
56811W        W18232  13.730   5.233  13.477
56812W        W18233  23.147  30.005  11.494
56813W        W18234  10.254  33.005   1.694
56814W        W18235   5.889  42.795   3.849
56815W        W18236  23.992  16.267   2.833
56816W        W18237   7.251  37.869   4.734
56817W        W18238  16.793  10.859  11.599
56818W        W18239  14.123   1.815  14.499
56819W        W18240  40.013  10.306   2.737
56820W        W18241   2.932  38.939  11.478
56821W        W18242  29.934  11.167  12.913
56822W        W18243   6.289  18.707   1.882
56823W        W18244  14.706  36.036   2.753
56824W        W18245  26.673  33.045   4.726
56825W        W18246   4.760  16.748  11.931
56826W        W18247  13.280  10.158   2.234
56827W        W18248  42.481   6.354  10.519
56828W        W18249  19.533   4.765   2.780
56829W        W18250  15.622  32.073   2.316
56830W        W18251  28.653  13.703  11.588
56831W        W18252  41.496  16.607   4.309
56832W        W18253  33.959  39.417  14.864
56833W        W18254  37.549  22.619   1.353
56834W        W18255  14.096   8.708  10.956
56835W        W18256  22.210   2.279  12.453
56836W        W18257  13.230  20.132   3.334
56837W        W18258   0.312  14.194  13.477
56838W        W18259  33.906   8.277   4.832
56839W        W18260  26.049  38.431   1.352
56840W        W18261  16.744  14.757   2.792
56841W        W18262   9.202  31.526   0.778
56842W        W18263  38.439  29.953   1.255
56843W        W18264  32.047  43.818  12.871
56844W        W18265   5.782  16.241   3.313
56845W        W18266  44.458  14.638   4.126
56846W        W18267  19.700  37.566   1.431
56847W        W18268  15.226   1.435  11.585
56848W        W18269   6.904  28.450   0.298
56849W        W18270  40.998  43.013   1.733
56850W        W18271  44.315   7.763   4.312
56851W        W18272  15.277  15.814   1.775
56852W        W18273  31.610   5.915  13.348
56853W        W18274  41.903  33.105  12.411
56854W        W18275  30.440  30.911   0.875
56855W        W18276  21.261   7.698   4.134
56856W        W18277  12.640  25.517   1.874
56857W        W18278  37.391   3.710   0.261
56858W        W18279  20.048   3.754  12.395
56859W        W18280   3.380   0.907   9.502
56860W        W18281  36.990   8.820  14.894
56861W        W18282  12.726  17.627   4.657
56862W        W18283  43.765  32.515  14.840
56863W        W18284  43.992   5.894   4.346
56864W        W18285   5.369  29.535   1.803
56865W        W18286   3.218  24.173   4.253
56866W        W18287   4.237  38.989  12.975
56867W        W18288  39.528  39.557  13.034
56868W        W18289   7.814  13.626  11.562
56869W        W18290  42.438  16.154  12.580
56870W        W18291  33.944   5.873   2.744
56871W        W18292   7.685  20.252   4.189
56872W        W18293  28.498   2.819  10.963
56873W        W18294  11.226  13.714   0.747
56874W        W18295  25.688  10.780   4.744
56875W        W18296  27.661  28.151  11.527
56876W        W18297  26.184  41.864  12.543
56877W        W18298   0.403  44.775  14.402
56878W        W18299  20.744  34.881  11.428
56879W        W18300  11.172  10.224   1.354
56880W        W18301   9.867   2.961  10.985
56881W        W18302   9.661  37.563   3.733
56882W        W18303  43.768   7.678   3.167
56883W        W18304  16.639   7.788  14.372
56884W        W18305  13.820   9.266  14.294
56885W        W18306  24.210  41.822   1.880
56886W        W18307  29.548   5.698  12.978
56887W        W18308  37.851   7.340   3.698
56888W        W18309   5.921  24.986  11.503
56889W        W18310   9.855  13.255  11.428
56890W        W18311   8.847   2.429   1.384
56891W        W18312  30.959   2.342  14.009
56892W        W18313  15.272  31.514   2.311
56893W        W18314  40.328  13.669   1.223
56894W        W18315   8.716  36.037  12.558
56895W        W18316   9.200  18.076   3.299
56896W        W18317  18.068  36.386   4.247
56897W        W18318  25.978  15.624   0.402
56898W        W18319  16.606  10.229   2.324
56899W        W18320   0.926  13.173   2.330
56900W        W18321  25.571   1.938  10.428
56901W        W18322  41.344  12.838   3.288
56902W        W18323  24.094   3.449   2.283
56903W        W18324  36.413  26.687   4.817
56904W        W18325  23.210  11.659   0.856
56905W        W18326  34.429  18.555  11.891
56906W        W18327  19.039  37.574  14.906
56907W        W18328  11.743  30.961  13.912
56908W        W18329   3.436  38.466  12.443
56909W        W18330   2.419  18.135   0.387
56910W        W18331  17.304  18.155   5.089
56911W        W18332  14.261  25.205   4.772
56912W        W18333   8.185  29.965   3.156
56913W        W18334  31.973   2.408  10.918
56914W        W18335  27.057  35.923   1.749
56915W        W18336   2.248   1.875  12.355
56916W        W18337  42.427  39.958   3.269
56917W        W18338  28.650  18.647   2.727
56918W        W18339   6.289  22.624   0.952
56919W        W18340  15.169  35.980  13.057
56920W        W18341  37.977  20.198   4.318
56921W        W18342  43.864   2.872  13.826
56922W        W18343  31.989  24.128   1.702
56923W        W18344  22.151  32.077  14.839
56924W        W18345  18.726  18.057   1.877
56925W        W18346  44.273  25.604   4.643
56926W        W18347   8.780  42.014  14.355
56927W        W18348  12.200  26.987   4.191
56928W        W18349  24.675  17.242   0.300
56929W        W18350  32.497  32.091  11.894
56930W        W18351  32.994  32.118   2.232
56931W        W18352  32.608   9.390  14.879
56932W        W18353   7.197  20.526   2.722
56933W        W18354  42.511  38.821  14.796
56934W        W18355  22.742  10.870   4.143
56935W        W18356  19.682  32.423  13.807
56936W        W18357  12.842   2.313  11.416
56937W        W18358   6.769  36.989   4.706
56938W        W18359  23.732  28.936   0.821
56939W        W18360  28.158   1.353   3.342
56940W        W18361   0.423  25.686  14.825
56941W        W18362   7.236  12.191   2.826
56942W        W18363  10.240  35.368  10.593
56943W        W18364  22.584  37.448  14.895
56944W        W18365  39.346  21.132   1.928
56945W        W18366  39.998  21.177  11.915
56946W        W18367   3.820  12.173  14.842
56947W        W18368   0.831   5.258  13.376
56948W        W18369   5.760   9.734   2.299
56949W        W18370   0.933  36.491   2.334
56950W        W18371  13.744  44.949   3.232
56951W        W18372  29.467  14.115  14.782
56952W        W18373   7.214   1.364   5.652
56953W        W18374  21.676  39.843  11.975
56954W        W18375   0.270  10.310   0.343
56955W        W18376  20.723  31.963   3.379
56956W        W18377  34.454  11.706  13.436
56957W        W18378  36.081   7.392  12.061
56958W        W18379  13.799  20.641   0.881
56959W        W18380  28.440  13.233  13.959
56960W        W18381  32.490  40.038   3.208
56961W        W18382  28.636  16.146  10.441
56962W        W18383  33.542   4.243  10.590
56963W        W18384  28.475  26.551   4.216
56964W        W18385   4.431  17.175   2.665
56965W        W18386   2.463  40.920  12.943
56966W        W18387  13.601  21.131  14.363
56967W        W18388  17.779  30.091   1.780
56968W        W18389  20.671  20.552  14.369
56969W        W18390  19.265   9.167   2.769
56970W        W18391  26.651   4.800  10.536
56971W        W18392  14.197  27.600   0.868
56972W        W18393  26.587  39.931  14.777
56973W        W18394  17.225  32.407   2.254
56974W        W18395  19.740  11.320  14.942
56975W        W18396  36.879  22.724   3.385
56976W        W18397  41.410  31.490   4.811
56977W        W18398   2.318  21.609   3.162
56978W        W18399  44.473  10.182   4.826
56979W        W18400  14.744  28.493  14.300
56980W        W18401  44.007  26.108  12.442
56981W        W18402  26.649  25.603  13.465
56982W        W18403  41.016  22.745  10.539
56983W        W18404   5.786  24.484  13.030
56984W        W18405  40.538   4.391  10.478
56985W        W18406  19.106  36.019   0.382
56986W        W18407   8.291  23.021  10.902
56987W        W18408   4.825  23.081  10.500
56988W        W18409  15.302   0.906  10.919
56989W        W18410  22.532   0.387   2.669
56990W        W18411  17.223   9.394  13.456
56991W        W18412  17.062   7.243  10.124
56992W        W18413  34.570  28.157  12.050
56993W        W18414   4.446  19.629  13.918
56994W        W18415  37.894   6.876  14.298
56995W        W18416  44.780  24.541   2.386
56996W        W18417  26.028  10.811   3.864
56997W        W18418  25.144   0.299   0.738
56998W        W18419  38.835  37.342   1.695
56999W        W18420  36.420  43.497   3.303
57000W        W18421   3.352   1.900   0.944
57001W        W18422   8.837  24.562   3.749
57002W        W18423  19.578  18.176  10.051
57003W        W18424   2.265  24.656  10.894
57004W        W18425  10.327  33.083   2.261
57005W        W18426  15.304   2.408  13.820
57006W        W18427  35.547  38.329   3.752
57007W        W18428  27.579  22.714  11.540
57008W        W18429  13.181  23.673   1.231
57009W        W18430  40.869  43.487   0.928
57010W        W18431  42.806  38.497   0.260
57011W        W18432  25.989  27.109   2.789
57012W        W18433  32.906   9.654  11.373
57013W        W18434  11.256  14.818   2.254
57014W        W18435   2.925   5.709  11.928
57015W        W18436   2.932  32.062   1.855
57016W        W18437  25.093  26.141  11.945
57017W        W18438   7.809  41.313   0.402
57018W        W18439  18.591  30.964   0.448
57019W        W18440   8.879   6.874  12.428
57020W        W18441  13.290  39.924  14.941
57021W        W18442  31.938  20.767  14.429
57022W        W18443  10.642  10.162  13.416
57023W        W18444  10.154  30.644   1.451
57024W        W18445   7.306  36.855  14.996
57025W        W18446  27.650  43.988   3.165
57026W        W18447   6.230  43.407   2.842
57027W        W18448  19.098  36.946   4.187
57028W        W18449   1.947  16.705   2.669
57029W        W18450   4.724  23.231  12.834
57030W        W18451  30.039  21.024  14.384
57031W        W18452  18.094   0.750   1.394
57032W        W18453  12.182   5.899  13.014
57033W        W18454  38.020   5.819   4.325
57034W        W18455  16.241  44.972  11.091
57035W        W18456   4.815  37.925   1.250
57036W        W18457  40.490  13.730  11.861
57037W        W18458  34.530  19.093  14.778
57038W        W18459  10.786  44.002   2.287
57039W        W18460  17.219  14.141  13.842
57040W        W18461  20.599  12.342   0.739
57041W        W18462   9.805  38.841  13.848
57042W        W18463  32.544  10.213  10.453
57043W        W18464   4.813  41.379  10.057
57044W        W18465  30.953  20.215  14.363
57045W        W18466  34.510   7.886   4.169
57046W        W18467  37.057  27.583  14.287
57047W        W18468  17.739   7.338  14.939
57048W        W18469  36.444  31.991   2.186
57049W        W18470  18.270  24.548   3.342
57050W        W18471  12.624  18.136  14.978
57051W        W18472  18.769  11.807   3.235
57052W        W18473   4.709   1.937  13.371
57053W        W18474  44.963  44.410  11.459
57054W        W18475  40.008  21.150   0.834
57055W        W18476  40.970   3.875   0.411
57056W        W18477  18.552  18.587  11.932
57057W        W18478  34.120  42.395   2.388
57058W        W18479  34.935  44.962   3.149
57059W        W18480  37.462  20.743  14.854
57060W        W18481  12.185  35.055   2.821
57061W        W18482   6.679  41.808   3.684
57062W        W18483   0.934  24.680   3.711
57063W        W18484  28.009  29.426  14.824
57064W        W18485  21.252  30.939   4.664
57065W        W18486  40.351  44.921   1.406
57066W        W18487  19.620  25.964   0.437
57067W        W18488  25.561  40.437  12.468
57068W        W18489  22.539  32.518  10.097
57069W        W18490  44.428  39.045  11.507
57070W        W18491   9.391  39.879   2.670
57071W        W18492  26.060  10.344  10.468
57072W        W18493  35.967  10.273  10.427
57073W        W18494  28.477  14.212  12.003
57074W        W18495   0.345  22.558  14.287
57075W        W18496   8.365  40.319  13.325
57076W        W18497  28.650  16.740  13.014
57077W        W18498  41.945  20.267  13.515
57078W        W18499  42.877  26.670   0.890
57079W        W18500  33.522  16.112   2.258
57080W        W18501  40.954  28.116  11.965
57081W        W18502   4.370   3.416   1.428
57082W        W18503  37.466  35.972  10.570
57083W        W18504  37.996  39.359   2.188
57084W        W18505  14.154  29.065  14.791
57085W        W18506  20.114  31.530   0.762
57086W        W18507  37.474  16.212  10.548
57087W        W18508  43.497  10.328  14.351
57088W        W18509  28.636  37.036   4.781
57089W        W18510  34.543   8.213  14.914
57090W        W18511  19.236  41.472  13.397
57091W        W18512  12.821  20.266   3.661
57092W        W18513  18.765  40.040  11.898
57093W        W18514  35.039  21.101   2.712
57094W        W18515  36.372  10.766  11.863
57095W        W18516   8.712  34.446   9.991
57096W        W18517  20.635   0.309  12.936
57097W        W18518  10.339  18.295  12.456
57098W        W18519  43.362  26.132   0.960
57099W        W18520  20.646  20.058   4.159
57100W        W18521  17.255  24.229  14.350
57101W        W18522  39.410   1.316  11.394
57102W        W18523  40.302  16.204  10.067
57103W        W18524  11.351  42.934  13.399
57104W        W18525  16.601   1.289   1.867
57105W        W18526  22.567   6.184  14.359
57106W        W18527   7.196   0.761  14.917
57107W        W18528  33.585  15.659   3.852
57108W        W18529  39.897  30.559  12.353
57109W        W18530  32.079   9.703  11.960
57110W        W18531  24.064  21.555   4.314
57111W        W18532  36.373  18.055   3.149
57112W        W18533  22.017   3.405  12.093
57113W        W18534   0.830  41.310  14.883
57114W        W18535  14.183  29.480  13.005
57115W        W18536  39.847  42.837   2.371
57116W        W18537  30.655  33.532  10.128
57117W        W18538  37.376   7.359   3.801
57118W        W18539   9.743   5.847   3.160
57119W        W18540  24.119  15.791  11.015
57120W        W18541  35.057  17.764  13.804
57121W        W18542  23.049  21.140   1.360
57122W        W18543   5.282  18.267  13.912
57123W        W18544  27.071  18.287  10.976
57124W        W18545  18.649   0.291   0.823
57125W        W18546  29.629  18.185  14.319
57126W        W18547  43.439  37.473   2.281
57127W        W18548  10.796  18.266   3.820
57128W        W18549  39.508  35.555  11.460
57129W        W18550  18.243  35.367   4.237
57130W        W18551  14.664  34.448   5.277
57131W        W18552  22.248  28.040   0.759
57132W        W18553  26.050  30.970   3.674
57133W        W18554  18.788  25.211   5.277
57134W        W18555   0.759  24.051   2.262
57135W        W18556  14.712  44.440   3.244
57136W        W18557  39.820  37.021  13.343
57137W        W18558   3.946   9.875   1.246
57138W        W18559  25.632  34.533  12.380
57139W        W18560  43.332  42.404   3.369
57140W        W18561  14.593  16.208   4.725
57141W        W18562  30.096   6.395   0.328
57142W        W18563  13.335  44.381  13.403
57143W        W18564  15.820  20.571  13.386
57144W        W18565   7.735   7.196   2.350
57145W        W18566  31.472   2.253  10.425
57146W        W18567  31.611  35.436  11.955
57147W        W18568   9.668  33.936   1.695
57148W        W18569  23.550   0.854  12.095
57149W        W18570  23.234  29.483  12.847
57150W        W18571  40.512  16.707   3.701
57151W        W18572  10.277  25.093   5.282
57152W        W18573  11.625  16.769   4.761
57153W        W18574  30.529   6.872  13.500
57154W        W18575   4.913   9.708  12.950
57155W        W18576   3.401  26.160   0.922
57156W        W18577   3.918   5.360   2.685
57157W        W18578  17.275  18.166   0.370
57158W        W18579   9.691  13.328   2.821
57159W        W18580   0.978  31.939   0.746
57160W        W18581  33.624  29.497   4.258
57161W        W18582  38.842  19.275   4.656
57162W        W18583  33.941  33.974  11.556
57163W        W18584  28.177  37.984   0.779
57164W        W18585  25.995  16.681  10.470
57165W        W18586   1.248  14.203  13.921
57166W        W18587   9.850  40.466  14.382
57167W        W18588  22.734  28.029   3.684
57168W        W18589  25.525  17.595  13.037
57169W        W18590  41.296  23.019   1.797
57170W        W18591  32.113  16.282  11.999
57171W        W18592   1.434  25.075   0.332
57172W        W18593   8.844  15.106   0.922
57173W        W18594   8.711  16.240  10.965
57174W        W18595  34.382  41.352  11.485
57175W        W18596  12.774  32.509  13.317
57176W        W18597  41.991   9.304   2.292
57177W        W18598   4.944  19.197   2.739
57178W        W18599  26.560  26.126  10.628
57179W        W18600  39.964  10.239   0.366
57180W        W18601  32.126  29.128   2.241
57181W        W18602  35.543  33.467   2.317
57182W        W18603  39.016   7.351   2.689
57183W        W18604  34.092  29.486  14.799
57184W        W18605  29.508  29.025  11.902
57185W        W18606  44.792  12.846  12.496
57186W        W18607  43.479  10.834   2.892
57187W        W18608  26.547  33.456  14.986
57188W        W18609   5.865  35.884  14.469
57189W        W18610  15.321  44.882  10.541
57190W        W18611   3.894  37.850   3.701
57191W        W18612  40.328  18.064   2.902
57192W        W18613  39.414  10.643   1.357
57193W        W18614  42.836   8.740  14.434
57194W        W18615   5.691  18.776  11.406
57195W        W18616  34.966  23.580  11.438
57196W        W18617  44.300   6.775  11.104
57197W        W18618   7.880   7.743  14.857
57198W        W18619  39.833  33.584  11.103
57199W        W18620  38.519  34.008   3.238
57200W        W18621  15.287  20.196  10.426
57201W        W18622  34.007  38.374  10.548
57202W        W18623  27.654  26.653   4.341
57203W        W18624  10.221  13.127  14.824
57204W        W18625  23.621  39.538   3.163
57205W        W18626  31.128  37.062  13.950
57206W        W18627   4.263   6.845   3.664
57207W        W18628  40.951  25.203  12.937
57208W        W18629  23.661  36.356  11.068
57209W        W18630  36.560   9.186  14.876
57210W        W18631   2.276  35.098   4.317
57211W        W18632   7.192  22.703   0.278
57212W        W18633  27.973  31.437  14.838
57213W        W18634  27.478  11.168   4.150
57214W        W18635  20.570  21.734  11.521
57215W        W18636  28.152   0.267  14.352
57216W        W18637  32.418  33.537  14.490
57217W        W18638   6.696  20.197  11.013
57218W        W18639   3.363  27.186  11.423
57219W        W18640  11.303  33.051  11.005
57220W        W18641  38.047  15.634   0.422
57221W        W18642  27.628   9.208  14.943
57222W        W18643  37.496  20.599  10.896
57223W        W18644  21.589  41.427  12.340
57224W        W18645  26.182   4.414  14.367
57225W        W18646  18.645  26.686  14.027
57226W        W18647  13.810  39.889   2.339
57227W        W18648   8.762  22.580   2.801
57228W        W18649  40.532  34.114   3.252
57229W        W18650  44.850  13.246   4.734
57230W        W18651  21.113   5.208   1.894
57231W        W18652  30.560   7.716  12.936
57232W        W18653  35.012  22.153  12.428
57233W        W18654  21.213  34.909  10.948
57234W        W18655  17.784   9.645  14.467
57235W        W18656  41.373  29.568   2.833
57236W        W18657  40.027  37.537   0.376
57237W        W18658  35.963  18.149   0.465
57238W        W18659  43.884  27.662  13.896
57239W        W18660  11.130  18.157   0.734
57240W        W18661  11.283  22.711   4.793
57241W        W18662  32.089   8.692   1.901
57242W        W18663   3.315  15.734   2.824
57243W        W18664  42.814  41.442   4.774
57244W        W18665   3.837   0.901  12.885
57245W        W18666   3.362   0.967   2.901
57246W        W18667  18.181  23.000  11.444
57247W        W18668  43.887  42.450   0.281
57248W        W18669  42.924  34.426  13.943
57249W        W18670  12.750  26.180  12.999
57250W        W18671   1.813  23.114  11.464
57251W        W18672  23.717  24.683   4.219
57252W        W18673  42.777  43.375  12.427
57253W        W18674  30.001   6.723   1.333
57254W        W18675   0.258   6.400   2.243
57255W        W18676  42.902  23.724  14.764
57256W        W18677  13.767  24.088  10.643
57257W        W18678  31.600  40.319   2.268
57258W        W18679   1.321   6.826   2.810
57259W        W18680  41.931  35.004   1.786
57260W        W18681   0.980   0.933  12.547
57261W        W18682  27.150   3.259   5.113
57262W        W18683   0.755  18.097   0.417
57263W        W18684  31.068  35.875  11.883
57264W        W18685  44.371  10.805  11.399
57265W        W18686  18.259  22.737   3.249
57266W        W18687  24.137  36.010  12.967
57267W        W18688  22.697  25.636   0.826
57268W        W18689   3.944  40.396  14.818
57269W        W18690  17.762  40.417   1.748
57270W        W18691   3.264  18.088  10.120
57271W        W18692  15.767   3.449  11.411
57272W        W18693  17.225  22.211  14.024
57273W        W18694  25.000  34.010   4.211
57274W        W18695  30.129  39.522   4.276
57275W        W18696   8.723  31.544  12.916
57276W        W18697  30.541   2.837  14.858
57277W        W18698  40.422  27.154   1.807
57278W        W18699  20.134   9.706  14.414
57279W        W18700  17.754  42.316  13.822
57280W        W18701   7.279  44.497   2.321
57281W        W18702   5.348  44.909  11.486
57282W        W18703  35.904   7.244   1.827
57283W        W18704  42.976  40.964   2.802
57284W        W18705  24.547  10.789   3.728
57285W        W18706  16.796  20.549   0.289
57286W        W18707   4.408   6.273  14.874
57287W        W18708   0.786  19.693   4.599
57288W        W18709  16.588  24.185   2.766
57289W        W18710  18.158  20.162  14.383
57290W        W18711  44.824   7.279  13.416
57291W        W18712   9.200   5.211   3.819
57292W        W18713   1.265  19.254   3.190
57293W        W18714  36.423  28.634   2.384
57294W        W18715   1.326   0.818   2.747
57295W        W18716   7.278  23.672  10.638
57296W        W18717  23.193  21.254  10.538
57297W        W18718  29.004  20.604   2.757
57298W        W18719   7.714   7.360   5.236
57299W        W18720   2.466  32.581   1.896
57300W        W18721  38.456  41.966  11.551
57301W        W18722  28.108   7.682   2.676
57302W        W18723  31.144  33.418   0.759
57303W        W18724  36.993   9.832   3.383
57304W        W18725   3.229   4.840   2.867
57305W        W18726  26.534  38.820  12.908
57306W        W18727  18.080   4.380   3.662
57307W        W18728  19.127  24.034  12.525
57308W        W18729  39.340   1.329   0.949
57309W        W18730   2.400  16.275  11.378
57310W        W18731  36.973  22.515  14.774
57311W        W18732  44.403  40.910   0.407
57312W        W18733  33.553  12.661   3.636
57313W        W18734  15.152  29.157  14.841
57314W        W18735  38.478  35.538   3.350
57315W        W18736  29.629  39.021   4.341
57316W        W18737  18.272  12.725   4.693
57317W        W18738  35.494   3.434   1.778
57318W        W18739   0.963  30.102  12.046
57319W        W18740  36.948  21.512   3.376
57320W        W18741  35.026   2.446   3.257
57321W        W18742  37.519  14.177  11.894
57322W        W18743  44.784   6.852  11.509
57323W        W18744  38.530  28.104   1.337
57324W        W18745  30.935  23.985  10.921
57325W        W18746   7.829  18.641  12.937
57326W        W18747   1.412  39.377   4.743
57327W        W18748  38.497  31.563  10.920
57328W        W18749  42.943   9.834   1.439
57329W        W18750  41.006  14.185   1.818
57330W        W18751  35.575  12.147  13.927
57331W        W18752  15.707  32.091   3.251
57332W        W18753  34.386  21.136  12.074
57333W        W18754  16.587  25.664   0.308
57334W        W18755  36.582   4.879  14.884
57335W        W18756  31.536  21.255  11.559
57336W        W18757   6.701   6.186   2.893
57337W        W18758   1.810  40.970  11.033
57338W        W18759  17.704  40.513  13.997
57339W        W18760  13.342  34.079   2.222
57340W        W18761  24.999  38.335  13.992
57341W        W18762  16.233   8.183  13.307
57342W        W18763  15.287  18.092  14.008
57343W        W18764   1.830  31.619   2.725
57344W        W18765   2.302  27.975  12.854
57345W        W18766  35.980  28.077   4.811
57346W        W18767  41.472  23.118  10.539
57347W        W18768   4.815  34.027   4.237
57348W        W18769  30.525  17.798   4.613
57349W        W18770  39.451  15.194  14.860
57350W        W18771  20.128  29.607  13.947
57351W        W18772   0.293  20.222   0.930
57352W        W18773  12.773  22.249  10.410
57353W        W18774  19.562  11.814   2.779
57354W        W18775  19.168  23.629  14.348
57355W        W18776  11.646   8.368  10.935
57356W        W18777  43.948  28.120   3.381
57357W        W18778  24.033   8.817  12.394
57358W        W18779  30.922   1.324   1.831
57359W        W18780  28.635   6.794  12.568
57360W        W18781   9.652  13.279  14.779
57361W        W18782  18.648  18.173   1.303
57362W        W18783  13.720  40.997   2.770
57363W        W18784  36.551   5.323  14.370
57364W        W18785  19.548  20.148   3.805
57365W        W18786  35.065  35.947   0.422
57366W        W18787  10.238  37.057  10.121
57367W        W18788  19.221  34.113   3.381
57368W        W18789  37.964   3.810  10.004
57369W        W18790  23.589  34.614  13.351
57370W        W18791  44.459  32.401  13.540
57371W        W18792  22.218  10.326  10.429
57372W        W18793  34.427  26.007   1.240
57373W        W18794   3.378  42.380   1.761
57374W        W18795  43.892   3.869   3.252
57375W        W18796   8.887  10.634   1.785
57376W        W18797  15.683  22.149  11.509
57377W        W18798  12.640   8.381  14.281
57378W        W18799  40.041  12.331  12.997
57379W        W18800   2.731  43.309  12.960
57380W        W18801  26.525  37.081  11.441
57381W        W18802  36.547  40.397   0.377
57382W        W18803  18.293  25.635   0.754
57383W        W18804  31.922  30.069  11.526
57384W        W18805   2.422  29.505  11.090
57385W        W18806  44.984  23.588  10.923
57386W        W18807  19.214   9.210   0.368
57387W        W18808  29.571   2.727  12.918
57388W        W18809  28.050  19.211   3.241
57389W        W18810   9.697  23.105  12.391
57390W        W18811  11.141  22.192  11.603
57391W        W18812  20.148  41.856   0.795
57392W        W18813  40.904  36.091  14.413
57393W        W18814   8.302  15.176  11.091
57394W        W18815  26.485  27.093   1.230
57395W        W18816  19.170   8.296   4.705
57396W        W18817  24.102  32.118   0.904
57397W        W18818  21.727  42.468  11.596
57398W        W18819   8.230  38.942   2.251
57399W        W18820  41.360   8.215   1.755
57400W        W18821  19.567   8.833   0.789
57401W        W18822  35.950  24.001  12.048
57402W        W18823  38.032  22.612   3.777
57403W        W18824  38.959  22.207   1.383
57404W        W18825  37.858  36.931   1.794
57405W        W18826  30.613   4.892  13.495
57406W        W18827  13.202  41.536   2.402
57407W        W18828   9.687   7.379   3.645
57408W        W18829  32.448  31.542  10.955
57409W        W18830  19.744  16.618   3.721
57410W        W18831  33.600  29.588   2.196
57411W        W18832  30.581  39.519   3.810
57412W        W18833  17.241   7.881  14.894
57413W        W18834   3.820  25.544   2.857
57414W        W18835  34.503  38.934   4.710
57415W        W18836  35.513  22.204   3.302
57416W        W18837  30.526  19.760  14.415
57417W        W18838  15.602  43.289   1.354
57418W        W18839   9.159   0.383   3.829
57419W        W18840   8.820  14.685   1.239
57420W        W18841  42.413   3.258   3.269
57421W        W18842  44.876  20.140   1.740
57422W        W18843  14.684  15.759   3.679
57423W        W18844  43.886  13.640   4.173
57424W        W18845  18.282  41.293  13.872
57425W        W18846  18.602  39.511   4.759
57426W        W18847  35.069  23.706  12.962
57427W        W18848  16.131  34.569  13.803
57428W        W18849  22.021  36.425   2.845
57429W        W18850  35.927  21.177   0.355
57430W        W18851   7.815  15.273  10.890
57431W        W18852  37.564  30.473  12.923
57432W        W18853  35.857  20.620   2.901
57433W        W18854  36.980  13.796   5.587
57434W        W18855  28.645  37.512  11.014
57435W        W18856  14.340  17.257   0.894
57436W        W18857  28.603   1.894  14.778
57437W        W18858  29.949  40.324  12.024
57438W        W18859   4.294  15.603   3.331
57439W        W18860  27.526  26.181   0.874
57440W        W18861  14.702  13.287   1.837
57441W        W18862   2.391   2.468   1.422
57442W        W18863  14.661   6.380   5.234
57443W        W18864  10.791  11.850   1.282
57444W        W18865  39.440  25.670   1.357
57445W        W18866  15.682  34.054  13.515
57446W        W18867  37.383  13.221  13.921
57447W        W18868  14.169   7.212   3.687
57448W        W18869  33.091  36.577  12.948
57449W        W18870  13.773   4.212  11.918
57450W        W18871  40.331  13.759  12.448
57451W        W18872   6.185  37.339  12.956
57452W        W18873  41.796  19.544   3.315
57453W        W18874  26.005  29.929   4.312
57454W        W18875   4.279   7.177   0.377
57455W        W18876  16.276  28.597   0.882
57456W        W18877   6.745  41.843  11.107
57457W        W18878  25.155  21.556   1.826
57458W        W18879   0.329  29.529  14.463
57459W        W18880  12.795   4.217   0.755
57460W        W18881   8.823  37.373   5.211
57461W        W18882   4.710  22.152  13.331
57462W        W18883  10.806  18.181  14.295
57463W        W18884  28.997  11.867   4.620
57464W        W18885  14.760  11.138  13.929
57465W        W18886  20.161  37.889   2.281
57466W        W18887  23.040  18.155  13.962
57467W        W18888  13.159  22.671   4.261
57468W        W18889  30.645  44.976  11.553
57469W        W18890  15.183  38.493   1.403
57470W        W18891  42.851  26.522   3.709
57471W        W18892  35.046  38.052  12.064
57472W        W18893  36.390  10.152   3.678
57473W        W18894   7.889   1.878   9.977
57474W        W18895   8.742  34.400  10.947
57475W        W18896   3.926  30.917   5.191
57476W        W18897   1.462  23.022  13.439
57477W        W18898   0.750  13.696  10.531
57478W        W18899  18.138   6.216  12.834
57479W        W18900  26.010  23.512   0.798
57480W        W18901  29.613  13.298   1.220
57481W        W18902   7.380   6.850   2.800
57482W        W18903  33.904  23.097   4.727
57483W        W18904  28.502  14.251   3.158
57484W        W18905  40.462  22.201   2.277
57485W        W18906  29.605  43.297   3.192
57486W        W18907   1.314  35.491   3.264
57487W        W18908  26.988  41.342  11.924
57488W        W18909  16.272  23.525  12.561
57489W        W18910  35.427   4.364  13.857
57490W        W18911  30.449  25.568  12.344
57491W        W18912  34.576   1.764  12.969
57492W        W18913  21.107  28.622   4.621
57493W        W18914  21.524  41.034  14.342
57494W        W18915  12.852   2.310   3.689
57495W        W18916  41.384  15.086   1.310
57496W        W18917   6.208  42.776  12.507
57497W        W18918  39.383  27.042  14.852
57498W        W18919  14.754  10.178  14.930
57499W        W18920  12.767  22.136  14.815
57500W        W18921   9.347  32.108   1.822
57501W        W18922  39.405  10.753  11.060
57502W        W18923   1.287  28.097   9.951
57503W        W18924  15.790  34.027   1.895
57504W        W18925  12.786   3.913   1.703
57505W        W18926  16.760  29.447  12.081
57506W        W18927  19.685  24.501   0.925
57507W        W18928  10.162  11.229  11.434
57508W        W18929  40.913  31.941   5.210
57509W        W18930  17.666  36.871   1.283
57510W        W18931  28.458  41.416  14.761
57511W        W18932  40.979  23.239   2.902
57512W        W18933  24.591  20.623   2.268
57513W        W18934  39.820  22.635   4.820
57514W        W18935   6.272   7.860   4.802
57515W        W18936  11.856  44.486   3.168
57516W        W18937   1.890  38.477  14.871
57517W        W18938  43.826   5.895  13.348
57518W        W18939   4.407  26.991   9.999
57519W        W18940  20.523  42.988  14.492
57520W        W18941  26.007  26.542  13.452
57521W        W18942  38.866   8.206   3.198
57522W        W18943   4.781  18.290  10.085
57523W        W18944  43.893  14.227  10.436
57524W        W18945  39.030  17.097   2.723
57525W        W18946   2.359  39.313   4.677
57526W        W18947  26.498  33.475   4.205
57527W        W18948  24.157   6.691   1.782
57528W        W18949  39.335  37.878  11.118
57529W        W18950  34.506  33.105   1.393
57530W        W18951  31.122   0.838  14.293
57531W        W18952   2.376   7.830  11.475
57532W        W18953  11.867  14.109  10.431
57533W        W18954  26.592  31.593  11.543
57534W        W18955  40.804   4.357   1.365
57535W        W18956   8.388  17.195  13.404
57536W        W18957  32.977  21.755   1.335
57537W        W18958  28.177  33.503  10.888
57538W        W18959   1.381  29.588   2.269
57539W        W18960  30.041  12.240   2.192
57540W        W18961  34.469   1.814   1.297
57541W        W18962   7.683  39.892  14.392
57542W        W18963  23.554  43.783  11.612
57543W        W18964  37.463  19.082   3.684
57544W        W18965  10.805  38.336  11.989
57545W        W18966   2.855  10.667  13.035
57546W        W18967  20.198  44.872   0.872
57547W        W18968  27.678  24.083  14.027
57548W        W18969  17.770   1.916   4.637
57549W        W18970  34.898  16.633  13.483
57550W        W18971  17.749   8.704   4.750
57551W        W18972  29.134  41.504   1.698
57552W        W18973  37.080  29.424  13.350
57553W        W18974   0.466  18.705  12.094
57554W        W18975  23.034   4.386  12.405
57555W        W18976  38.993  35.453   0.731
57556W        W18977  21.592  43.295   1.309
57557W        W18978  18.571  23.105   0.310
57558W        W18979  24.550  36.028   0.482
57559W        W18980  21.724  40.994   1.894
57560W        W18981  18.682  21.121   0.396
57561W        W18982   0.886   1.336   0.938
57562W        W18983  27.980  16.160   3.276
57563W        W18984   6.701  28.141   4.663
57564W        W18985  36.035  41.446  12.952
57565W        W18986  33.976  38.478   2.371
57566W        W18987  18.785   4.885  14.324
57567W        W18988  15.716  35.942   4.181
57568W        W18989  28.111   7.906   3.723
57569W        W18990  22.140  13.706   2.349
57570W        W18991  28.011  33.475  13.945
57571W        W18992  19.265  26.696  11.043
57572W        W18993   1.244  11.851  13.358
57573W        W18994  30.568  41.041  13.925
57574W        W18995  14.759   8.684  14.807
57575W        W18996  38.922  39.398   4.624
57576W        W18997   2.860   6.704   4.273
57577W        W18998   7.869   7.345   1.735
57578W        W18999   2.292  10.689  14.789
57579W        W19000  17.249  27.576   2.751
57580W        W19001  20.746  17.670  10.437
57581W        W19002   9.221  25.067  10.909
57582W        W19003  25.038  22.558   4.751
57583W        W19004  20.739  29.666   2.184
57584W        W19005   1.809  29.658   5.164
57585W        W19006  23.660  37.023   1.868
57586W        W19007  33.997  36.431  14.007
57587W        W19008  18.597   6.184   2.189
57588W        W19009  12.625  40.938  12.441
57589W        W19010  11.792   3.298  11.435
57590W        W19011  44.926  20.684  13.398
57591W        W19012  26.486  32.090  13.975
57592W        W19013   8.693   4.218   0.279
57593W        W19014  34.919  19.161  12.461
57594W        W19015  35.381  11.139  10.926
57595W        W19016  31.080  26.626   4.736
57596W        W19017  28.572  25.569  13.545
57597W        W19018  13.162  38.349  13.351
57598W        W19019  14.268   2.889   0.455
57599W        W19020  24.111  30.105   3.234
57600W        W19021  22.143  11.224  13.910
57601W        W19022  30.028  23.567   1.410
57602W        W19023  11.832  15.606  13.917
57603W        W19024  33.920  10.300   4.149
57604W        W19025  27.093  24.688   3.725
57605W        W19026  38.893  36.498   3.237
57606W        W19027   4.927   8.838   0.769
57607W        W19028  15.197   8.710  14.898
57608W        W19029   8.342  38.864  11.382
57609W        W19030  42.916  29.652   5.093
57610W        W19031  12.247  17.617  14.296
57611W        W19032   3.949  37.440  13.405
57612W        W19033  21.575  15.698   1.391
57613W        W19034  41.490  18.782  13.867
57614W        W19035  41.309  38.918   4.694
57615W        W19036  24.136  13.157   0.452
57616W        W19037  37.917  38.897  11.925
57617W        W19038  42.357  23.584  11.904
57618W        W19039   2.464  38.548  11.510
57619W        W19040  20.691  41.028   3.322
57620W        W19041  43.845  44.366   1.432
57621W        W19042  36.393  33.516   4.681
57622W        W19043  11.143  24.511   2.256
57623W        W19044  18.703  35.418   1.756
57624W        W19045   7.344  22.535  11.873
57625W        W19046  43.285  34.946  11.086
57626W        W19047  17.557  39.967   0.782
57627W        W19048  33.055  33.062  13.815
57628W        W19049  37.505  42.852  14.983
57629W        W19050   4.431  40.849   2.253
57630W        W19051  31.103   5.305  11.905
57631W        W19052  35.967   7.296  12.948
57632W        W19053   6.833  33.010   3.641
57633W        W19054   1.810  17.118   1.738
57634W        W19055  25.142   5.295   2.713
57635W        W19056  33.907  27.983  11.057
57636W        W19057  22.145   3.900   4.206
57637W        W19058   8.311  21.685  14.854
57638W        W19059   3.801  12.223  12.386
57639W        W19060  22.746  21.050  12.060
57640W        W19061  25.664  44.333   4.637
57641W        W19062  14.302  14.252   1.868
57642W        W19063  44.772   3.316   4.729
57643W        W19064   1.768  26.960  11.060
57644W        W19065  11.298  15.678  14.413
57645W        W19066  30.472  19.235   1.808
57646W        W19067  30.933  28.665  11.443
57647W        W19068  39.316  17.231   1.879
57648W        W19069  22.514  35.097  13.857
57649W        W19070  23.162  24.191   2.287
57650W        W19071  21.598  34.976  14.845
57651W        W19072  42.895  14.796   1.304
57652W        W19073  23.008  31.976  12.876
57653W        W19074  24.077  40.419   3.646
57654W        W19075  12.189   7.247   1.284
57655W        W19076   7.356  19.130   0.738
57656W        W19077  28.638  15.810   1.788
57657W        W19078  34.889  39.325  10.896
57658W        W19079  43.496   2.860   2.895
57659W        W19080  23.701   5.764  11.082
57660W        W19081  36.953  26.104  13.036
57661W        W19082   0.350  33.939   0.862
57662W        W19083  39.849  40.504   2.305
57663W        W19084   6.921   0.985   3.318
57664W        W19085   9.725  40.046   4.166
57665W        W19086   8.405  16.675   2.670
57666W        W19087  39.340  10.857  10.087
57667W        W19088  44.383  11.275   4.239
57668W        W19089  33.486  38.945   5.300
57669W        W19090  23.735  16.643   4.671
57670W        W19091  36.521  23.005  14.009
57671W        W19092  23.505  16.688  14.795
57672W        W19093  21.551  37.924  11.944
57673W        W19094  24.670  22.092  10.929
57674W        W19095  30.057  16.229  11.916
57675W        W19096   6.411  22.706  13.405
57676W        W19097  32.601  38.421   2.873
57677W        W19098   2.309  32.991   3.288
57678W        W19099  26.148  23.141  11.049
57679W        W19100   5.915  20.076   4.294
57680W        W19101  25.497  12.659   3.311
57681W        W19102  38.882   8.834  10.545
57682W        W19103  19.108  37.523   3.324
57683W        W19104  26.035  21.701  10.906
57684W        W19105  12.352   6.745   2.888
57685W        W19106  16.762  35.527  13.482
57686W        W19107   3.321  24.170  13.882
57687W        W19108   0.867  35.896  10.930
57688W        W19109  12.212  19.050   2.374
57689W        W19110  17.134  12.304  13.815
57690W        W19111   7.785  38.420   3.275
57691W        W19112   6.339  25.067   0.300
57692W        W19113  39.396   9.687   3.373
57693W        W19114  19.277  44.324  13.884
57694W        W19115  42.354   0.764  13.456
57695W        W19116  35.067  43.954  14.794
57696W        W19117  35.490  12.256  11.384
57697W        W19118   2.422   9.250  13.047
57698W        W19119  24.702  13.828  11.103
57699W        W19120  15.683   7.694   2.860
57700W        W19121  10.312  42.931   0.383
57701W        W19122  34.947  30.999  13.438
57702W        W19123  31.419  11.367   4.331
57703W        W19124  29.502   8.810  13.353
57704W        W19125   5.433   2.723  12.578
57705W        W19126  10.762  37.356   3.813
57706W        W19127   2.358  40.044   3.289
57707W        W19128  34.574   3.266   4.194
57708W        W19129  13.193   8.363  12.579
57709W        W19130  14.106  27.075   2.759
57710W        W19131  29.513   8.874   4.350
57711W        W19132  23.721  24.064  13.975
57712W        W19133  40.513  10.322   4.701
57713W        W19134  34.873  11.280   2.791
57714W        W19135  14.229   6.691  14.911
57715W        W19136  24.088  43.817  10.903
57716W        W19137   9.813   6.292  12.868
57717W        W19138  26.642  15.184  14.309
57718W        W19139   9.151  35.403  12.027
57719W        W19140  44.001  18.780  12.942
57720W        W19141  42.319  11.311  14.452
57721W        W19142  31.969   4.841  14.994
57722W        W19143  16.711  44.478  14.363
57723W        W19144   1.757  41.885   3.378
57724W        W19145  44.299   6.843  14.868
57725W        W19146  34.042  38.899  12.940
57726W        W19147  20.250  40.896   2.687
57727W        W19148  14.590  31.047   0.783
57728W        W19149  22.512  23.499   4.294
57729W        W19150   9.253   9.837   3.288
57730W        W19151  20.548   6.194   5.271
57731W        W19152  15.664  44.855   2.323
57732W        W19153  31.452   4.939  12.845
57733W        W19154  27.967  10.870   2.790
57734W        W19155   6.302  17.061  12.911
57735W        W19156  28.134  21.520  12.953
57736W        W19157  33.510  29.931  11.930
57737W        W19158   4.410  32.131  14.390
57738W        W19159   9.770  43.430  11.098
57739W        W19160   2.836  39.389   0.889
57740W        W19161  21.145   1.849   2.302
57741W        W19162  32.979  43.503   3.728
57742W        W19163  23.179  22.116   2.337
57743W        W19164  37.883   4.240  11.920
57744W        W19165   1.286   3.932  11.979
57745W        W19166  23.092  34.468  13.315
57746W        W19167  12.277  18.089  13.423
57747W        W19168   8.236   5.383   2.854
57748W        W19169  19.665   4.753  10.449
57749W        W19170  43.372  33.624   0.952
57750W        W19171  42.340   9.857  14.284
57751W        W19172  15.300  18.280   4.275
57752W        W19173  30.472   2.792   2.756
57753W        W19174   8.302  20.273  10.955
57754W        W19175  17.229   6.312   4.177
57755W        W19176  13.739  42.971   2.290
57756W        W19177  28.560  14.196   0.727
57757W        W19178  32.045  39.943  13.487
57758W        W19179   8.883  43.482   0.958
57759W        W19180  15.822   6.323  14.822
57760W        W19181  33.497  35.393  13.038
57761W        W19182  21.087  24.159   5.136
57762W        W19183  18.642  21.242  11.017
57763W        W19184  28.505  41.378   0.304
57764W        W19185   9.858   0.261   2.801
57765W        W19186   7.789  30.508  12.938
57766W        W19187   0.421   5.245  10.935
57767W        W19188   2.799   3.217  11.924
57768W        W19189  32.529  16.209  10.897
57769W        W19190  14.707  14.262   3.870
57770W        W19191   6.739  16.638   0.303
57771W        W19192  22.532  42.789  11.944
57772W        W19193  27.183  35.886   3.237
57773W        W19194   0.832  28.621   4.785
57774W        W19195  24.717  24.142  12.451
57775W        W19196  44.756  43.943  10.570
57776W        W19197  22.588   2.880  10.066
57777W        W19198  26.176   4.321   4.764
57778W        W19199  15.169  37.336   3.815
57779W        W19200  24.152  35.484  12.891
57780W        W19201  42.018  37.967   2.219
57781W        W19202  29.113  40.802   1.412
57782W        W19203  19.131  14.135  10.543
57783W        W19204   8.752  14.146   2.732
57784W        W19205  29.161  20.165   4.628
57785W        W19206  10.338   2.398  11.862
57786W        W19207   8.768  33.501   5.192
57787W        W19208   9.204  19.745  11.455
57788W        W19209  29.636  24.078  12.436
57789W        W19210  15.739  28.032  14.022
57790W        W19211  24.125  30.908   0.881
57791W        W19212   2.234  18.706   2.322
57792W        W19213  29.958   3.353   4.612
57793W        W19214  14.829  22.514  13.813
57794W        W19215   0.958  42.361   4.694
57795W        W19216  11.821   3.439   0.787
57796W        W19217  11.825   3.359  10.491
57797W        W19218  28.142  13.602   3.345
57798W        W19219   6.919  31.965   3.756
57799W        W19220  10.749  31.003  11.545
57800W        W19221  30.469  23.670  11.953
57801W        W19222  40.869  19.711   0.848
57802W        W19223  22.572   1.266  10.917
57803W        W19224  21.536   6.247  10.115
57804W        W19225   9.262  26.130   1.775
57805W        W19226  36.571   8.211   3.744
57806W        W19227  13.315  13.659  11.537
57807W        W19228  37.422  22.161  13.490
57808W        W19229  22.114  22.099   1.851
57809W        W19230  19.240  24.059   2.663
57810W        W19231  10.254  18.576  13.932
57811W        W19232  34.567  29.663  14.004
57812W        W19233  40.970  23.019   3.846
57813W        W19234  23.221  25.590   1.303
57814W        W19235  22.622  43.828  12.558
57815W        W19236   7.843  40.547   3.182
57816W        W19237  10.734  14.195  11.432
57817W        W19238  29.509   9.822   3.717
57818W        W19239  32.558  26.128  14.416
57819W        W19240   6.716  26.506   4.730
57820W        W19241  32.416  37.070   1.247
57821W        W19242  11.808   0.460   4.796
57822W        W19243  39.412  34.584   4.621
57823W        W19244  14.625   5.737  13.806
57824W        W19245  14.662  12.668   0.810
57825W        W19246   1.305   6.221  13.380
57826W        W19247  15.725  21.556  13.828
57827W        W19248  30.026   2.279  13.972
57828W        W19249  37.449  38.443   0.430
57829W        W19250  43.314  41.915   3.244
57830W        W19251  38.904   6.409   0.810
57831W        W19252  18.283   6.893   4.273
57832W        W19253  38.571   0.945  11.105
57833W        W19254  29.148  29.514  11.532
57834W        W19255   1.345  28.583   3.235
57835W        W19256  40.954  30.537  11.109
57836W        W19257  42.879   9.299   4.121
57837W        W19258  23.127  24.545   2.336
57838W        W19259  14.168   4.318  10.460
57839W        W19260  18.719   8.283  12.867
57840W        W19261  42.345  13.247   4.323
57841W        W19262  42.944  37.350   3.865
57842W        W19263   9.238  15.808  10.925
57843W        W19264  42.003  13.248  14.959
57844W        W19265  28.555   0.862   3.329
57845W        W19266   2.437  32.071  12.377
57846W        W19267  23.625  21.744   3.317
57847W        W19268  21.196   3.953  11.896
57848W        W19269  16.762   7.668   2.736
57849W        W19270  13.825  36.524   1.268
57850W        W19271   3.775  11.691  14.012
57851W        W19272  10.636  36.488   4.608
57852W        W19273  21.518   4.329   1.874
57853W        W19274  19.242  27.651  12.519
57854W        W19275  39.822  10.647  13.807
57855W        W19276  41.341  20.235  12.072
57856W        W19277  15.819  12.721  10.472
57857W        W19278  33.421   0.857   1.714
57858W        W19279   7.324  15.821  14.299
57859W        W19280  44.497  41.830   3.185
57860W        W19281  30.952  25.170   0.259
57861W        W19282  25.129  12.751  12.476
57862W        W19283  16.680  28.977   0.340
57863W        W19284  42.448  41.973   0.846
57864W        W19285  17.204  15.085   1.211
57865W        W19286  39.900  41.973  12.507
57866W        W19287   2.924  35.576  13.342
57867W        W19288   8.802  27.072  14.477
57868W        W19289  10.802  43.826   4.350
57869W        W19290  19.163  23.112   3.208
57870W        W19291  23.634  11.840  11.569
57871W        W19292  37.904  24.099   0.921
57872W        W19293  17.563  12.301   1.235
57873W        W19294  10.717  16.100   1.875
57874W        W19295  15.233  15.190  13.971
57875W        W19296  26.683  32.122  12.346
57876W        W19297  22.604  19.273  10.484
57877W        W19298  19.155   1.445  14.931
57878W        W19299  23.706   6.370   2.849
57879W        W19300  31.582  16.645   1.825
57880W        W19301  12.841  43.847   4.652
57881W        W19302  17.593   9.186  13.316
57882W        W19303  32.460   8.778   1.334
57883W        W19304  31.578  25.647  13.947
57884W        W19305  22.725  21.647   3.639
57885W        W19306   6.737  26.464  11.966
57886W        W19307  19.696  41.013   2.716
57887W        W19308  16.713   4.808   0.847
57888W        W19309  33.112  34.878  14.026
57889W        W19310  42.362  35.418   0.283
57890W        W19311  16.205  41.981  12.576
57891W        W19312  30.982   1.356  14.308
57892W        W19313   4.784  32.494   0.791
57893W        W19314   2.324   0.415   2.671
57894W        W19315  21.039  41.953   0.747
57895W        W19316  16.657  39.032  10.970
57896W        W19317  15.790  17.170  14.484
57897W        W19318   2.965  11.851  11.071
57898W        W19319   1.394  43.891   1.775
57899W        W19320   3.351  11.753   2.848
57900W        W19321  43.917   5.745  11.097
57901W        W19322  28.551  15.629   0.799
57902W        W19323  44.935   7.864  11.487
57903W        W19324  15.175  23.723   2.191
57904W        W19325  12.654   1.757   1.328
57905W        W19326  15.763  44.797  11.387
57906W        W19327  18.614  44.396  10.152
57907W        W19328  10.645  43.787  13.833
57908W        W19329  17.206  24.591  14.491
57909W        W19330  21.728  25.703  12.419
57910W        W19331  33.935  23.651   1.781
57911W        W19332  40.442  12.841   4.147
57912W        W19333  37.008  28.462  12.567
57913W        W19334  15.224  32.027   2.681
57914W        W19335   3.891  11.368   4.605
57915W        W19336  27.495  17.306  12.042
57916W        W19337  32.000  20.230   0.419
57917W        W19338  35.867   3.780   2.239
57918W        W19339  34.938   7.350   2.358
57919W        W19340  19.070  21.642   3.846
57920W        W19341   1.896  17.714  11.939
57921W        W19342  35.507  37.850   1.916
57922W        W19343  39.002  20.094  12.931
57923W        W19344   4.794  17.299  12.847
57924W        W19345  20.133  35.867  12.563
57925W        W19346  24.566  40.322   2.766
57926W        W19347  14.136  32.111  12.869
57927W        W19348  28.962   4.927   2.689
57928W        W19349  41.477  40.367   1.389
57929W        W19350  25.220   4.803   0.798
57930W        W19351  18.707  35.057  10.937
57931W        W19352  34.106  35.009   4.128
57932W        W19353   9.265  20.580  14.892
57933W        W19354  13.630  14.156  13.023
57934W        W19355  18.764  29.594  12.975
57935W        W19356   5.327  38.930  14.441
57936W        W19357  39.884   5.921  11.058
57937W        W19358  39.905   5.800  12.576
57938W        W19359  19.205  36.086  10.907
57939W        W19360  11.147   8.253   4.729
57940W        W19361  35.460  32.922   0.262
57941W        W19362  12.831  31.002  14.868
57942W        W19363   2.287  42.835  13.548
57943W        W19364  31.142  43.421  10.897
57944W        W19365  15.298  28.633   3.154
57945W        W19366  33.027  22.997  12.005
57946W        W19367  30.488  21.586   4.130
57947W        W19368   7.358  37.981   2.363
57948W        W19369   6.368  15.584  11.912
57949W        W19370  22.675  39.464  13.967
57950W        W19371  11.142  31.521  14.009
57951W        W19372   0.255  26.096  13.910
57952W        W19373  18.755   2.725   0.742
57953W        W19374   0.443  23.680   3.241
57954W        W19375  40.904  29.967  12.057
57955W        W19376  34.410   7.218  13.966
57956W        W19377  19.099  12.184  13.039
57957W        W19378  20.702  41.299  11.882
57958W        W19379  14.817  21.117   4.653
57959W        W19380  12.753  20.739   4.824
57960W        W19381  13.626  35.077   0.296
57961W        W19382   0.873  16.786  10.976
57962W        W19383  41.905  21.697  13.903
57963W        W19384   4.918  35.884   0.315
57964W        W19385  37.906   5.725  14.000
57965W        W19386  23.009  17.777  11.494
57966W        W19387  31.534  11.143  11.899
57967W        W19388  21.087  15.646  11.373
57968W        W19389  31.450  24.175   3.822
57969W        W19390  28.104  36.977  14.380
57970W        W19391   6.789  33.943  14.408
57971W        W19392  24.645  15.806   1.218
57972W        W19393   0.492  38.456   1.414
57973W        W19394  28.939  22.227  13.810
57974W        W19395   4.220  44.909   4.212
57975W        W19396  15.649  25.569  12.533
57976W        W19397  15.669  35.028   1.397
57977W        W19398  30.572   1.910  14.487
57978W        W19399  22.513   7.330   1.935
57979W        W19400  32.542  17.220  13.375
57980W        W19401   2.877  20.085   0.467
57981W        W19402   1.354  32.463  11.967
57982W        W19403  14.295   1.420  11.931
57983W        W19404  43.501  27.673  14.874
57984W        W19405  13.825   8.840   1.697
57985W        W19406   7.406  13.621   3.224
57986W        W19407  32.140  15.635   4.705
57987W        W19408  16.132   9.675  14.884
57988W        W19409   0.323   6.326   0.950
57989W        W19410  19.168   0.896   4.695
57990W        W19411  14.640  36.851   0.448
57991W        W19412   3.272  30.040   0.816
57992W        W19413  34.100  35.512  10.957
57993W        W19414  14.657   7.900  10.932
57994W        W19415   6.186  36.565   4.797
57995W        W19416   6.401  40.973  14.421
57996W        W19417  28.094  34.431   0.827
57997W        W19418  30.992  42.938   2.744
57998W        W19419   8.790   1.789   0.422
57999W        W19420  25.128  43.949   2.375
58000W        W19421   9.217  11.179  10.550
58001W        W19422  12.850  37.380  12.572
58002W        W19423  16.140  10.173  13.425
58003W        W19424  29.494  22.238   3.797
58004W        W19425   1.825   8.205   3.776
58005W        W19426  13.254  36.856  14.802
58006W        W19427   2.274   1.794   2.264
58007W        W19428  15.623  18.090  13.850
58008W        W19429  20.576  15.673   1.779
58009W        W19430  30.515   1.739  12.033
58010W        W19431   5.416  12.133  11.435
58011W        W19432   4.876  43.323   1.319
58012W        W19433  31.467   6.724   4.172
58013W        W19434  21.561  34.099   4.796
58014W        W19435   7.906  20.113   4.774
58015W        W19436  26.053  26.982  14.988
58016W        W19437   9.348   7.770  12.042
58017W        W19438  23.234  28.606  14.897
58018W        W19439  43.500   5.325   1.321
58019W        W19440  34.970  15.178   2.282
58020W        W19441   7.372  36.086   1.336
58021W        W19442  42.972  16.240   0.256
58022W        W19443  26.002  42.920  10.998
58023W        W19444  32.960  20.677   3.720
58024W        W19445  27.650  33.494  12.990
58025W        W19446  32.451  13.751   3.642
58026W        W19447  42.007  25.173   0.402
58027W        W19448  32.523   4.850  11.408
58028W        W19449  40.353   8.833   1.414
58029W        W19450   5.738  29.471  11.495
58030W        W19451  18.687  18.199  12.870
58031W        W19452  18.695  14.253   2.307
58032W        W19453  12.179  18.626  13.346
58033W        W19454  34.866  11.161  14.365
58034W        W19455  10.315   5.836   4.626
58035W        W19456  18.194   7.294  11.508
58036W        W19457  19.132  24.654  13.322
58037W        W19458  30.487  26.502   4.673
58038W        W19459  21.087  14.596  11.870
58039W        W19460  14.163  31.631   0.916
58040W        W19461  34.525  33.519   4.171
58041W        W19462  11.658  21.105   2.781
58042W        W19463  13.144  36.467  12.527
58043W        W19464  37.084  18.079  13.388
58044W        W19465  14.787  36.503  10.550
58045W        W19466   8.270  19.171   3.156
58046W        W19467   1.932  32.539  12.844
58047W        W19468   0.879  33.386  11.120
58048W        W19469  24.981  19.089   3.713
58049W        W19470  44.873  12.689  10.469
58050W        W19471   7.861   3.790   4.209
58051W        W19472   5.224  13.744   3.805
58052W        W19473   1.973   7.813  10.433
58053W        W19474  14.707   3.738  10.932
58054W        W19475  23.020  29.053  13.795
58055W        W19476  34.538   2.747  14.303
58056W        W19477   4.894  17.307   3.796
58057W        W19478  15.237  17.135   4.697
58058W        W19479  42.377  12.166   3.662
58059W        W19480  24.625  13.259  12.004
58060W        W19481  11.246  27.531  10.625
58061W        W19482  12.856  44.884   0.955
58062W        W19483   3.292  33.893  13.055
58063W        W19484  41.003  31.028   1.288
58064W        W19485  35.362  27.952  14.458
58065W        W19486  16.660  34.575   2.779
58066W        W19487  21.629  19.710  14.350
58067W        W19488  19.568  38.499   2.828
58068W        W19489  19.721  35.103   0.449
58069W        W19490  23.173  27.045   1.391
58070W        W19491   8.764   8.747   2.676
58071W        W19492  23.732  20.059  14.799
58072W        W19493  39.897  42.937  13.946
58073W        W19494  10.744   1.414   3.248
58074W        W19495  20.533   1.378   4.268
58075W        W19496  27.078  28.594  11.475
58076W        W19497   6.783  19.730  12.922
58077W        W19498  25.546  22.052   4.820
58078W        W19499  12.623  16.165  11.500
58079W        W19500  33.010  29.441  13.847
58080W        W19501  18.591  33.443   9.922
58081W        W19502  23.068  26.003  12.419
58082W        W19503   8.687  29.115  12.968
58083W        W19504  28.524  21.245   0.363
58084W        W19505   2.909  29.645  13.866
58085W        W19506  13.663   4.944  11.605
58086W        W19507  12.743   9.750   0.252
58087W        W19508  25.598  22.121   3.721
58088W        W19509  12.266  15.584  12.574
58089W        W19510  40.970   0.784   3.781
58090W        W19511  18.131   0.403  12.480
58091W        W19512  26.665  28.046   1.709
58092W        W19513  20.114   3.454  10.406
58093W        W19514  39.374  16.612   3.157
58094W        W19515  25.602  35.889   5.301
58095W        W19516  11.298  17.179  11.125
58096W        W19517  31.591   6.363  12.343
58097W        W19518  12.303  11.230   3.284
58098W        W19519  15.773  35.067  10.466
58099W        W19520  30.646   5.829  12.865
58100W        W19521  19.221  11.796   1.258
58101W        W19522  36.400  30.572   0.409
58102W        W19523  35.909  27.183   1.715
58103W        W19524  28.987  31.612   4.304
58104W        W19525  13.803  17.750  11.600
58105W        W19526  28.548   9.875  12.446
58106W        W19527  21.610  22.632  11.124
58107W        W19528  42.995  31.960   1.776
58108W        W19529   1.924  30.136   5.783
58109W        W19530  41.470  43.496  13.032
58110W        W19531   5.192   2.724  12.867
58111W        W19532  26.497  27.081   3.273
58112W        W19533  43.002  29.167   3.761
58113W        W19534   4.705  20.035   2.187
58114W        W19535  26.094  23.067   2.213
58115W        W19536  16.075  13.614  11.024
58116W        W19537  29.434  44.390   3.154
58117W        W19538   7.194  18.292  10.967
58118W        W19539   1.452  43.891  13.039
58119W        W19540  11.669  28.462  13.370
58120W        W19541  39.929   4.272   0.813
58121W        W19542  41.936  28.079   2.669
58122W        W19543  25.689  18.232   2.392
58123W        W19544  12.149  17.721   3.853
58124W        W19545   1.412  43.826   3.170
58125W        W19546   9.355  22.675  14.883
58126W        W19547  11.678   8.167   2.274
58127W        W19548   6.683  29.067  13.417
58128W        W19549  35.385  43.906   1.757
58129W        W19550  14.678   3.880  12.071
58130W        W19551  19.188  26.659  10.445
58131W        W19552  22.101  15.203   2.224
58132W        W19553  18.675   5.769   2.386
58133W        W19554  27.150   6.195  14.009
58134W        W19555  24.208  27.117  14.852
58135W        W19556  34.592  34.463   1.814
58136W        W19557  30.935  41.437   4.710
58137W        W19558  40.494   8.242  13.029
58138W        W19559  16.586  38.554  14.935
58139W        W19560  24.201  15.321   0.381
58140W        W19561   4.347  17.118  13.320
58141W        W19562  24.515  15.777  14.306
58142W        W19563  44.468  18.647  13.370
58143W        W19564  38.864  34.452  10.601
58144W        W19565  18.716  34.090   0.819
58145W        W19566   5.825  16.100   3.797
58146W        W19567  13.121  44.322  10.121
58147W        W19568   6.324  28.995  13.846
58148W        W19569   3.833  41.521   2.337
58149W        W19570  41.490  20.219  10.529
58150W        W19571  23.543  39.502  10.948
58151W        W19572  35.909  25.014  14.446
58152W        W19573  11.846  44.995  11.907
58153W        W19574   3.955  19.154  14.324
58154W        W19575  21.170  35.035  10.506
58155W        W19576   9.680  23.088   0.730
58156W        W19577   6.878  28.473  14.423
58157W        W19578  18.150  15.821   3.709
58158W        W19579   5.377  21.623   2.798
58159W        W19580  13.276  21.108   2.225
58160W        W19581   3.936  37.538  11.963
58161W        W19582  14.189   3.387   0.300
58162W        W19583  25.089  35.598  13.318
58163W        W19584  26.107   9.667   1.343
58164W        W19585   8.758  35.876   4.802
58165W        W19586  17.780  43.358   0.931
58166W        W19587  11.802  40.424   4.266
58167W        W19588  21.182  37.073   0.918
58168W        W19589  21.581  39.460   4.615
58169W        W19590  12.239  31.537  10.608
58170W        W19591  13.805   1.281   2.813
58171W        W19592  41.994  18.727   2.336
58172W        W19593   7.901  40.846  11.571
58173W        W19594   3.349  34.002   2.885
58174W        W19595  24.071   0.263   2.183
58175W        W19596  16.119  30.502   0.942
58176W        W19597  17.170  19.608   5.281
58177W        W19598  12.792  26.478   4.623
58178W        W19599  13.813   0.277  10.907
58179W        W19600  33.022  33.594   0.416
58180W        W19601  14.653  28.137   5.289
58181W        W19602  37.460  22.201  10.533
58182W        W19603  38.428   6.189  13.879
58183W        W19604  23.000  32.092  13.922
58184W        W19605  32.918  29.440   1.824
58185W        W19606  29.934   7.666   2.183
58186W        W19607   1.279  36.847   4.772
58187W        W19608   2.388  43.342  11.079
58188W        W19609  34.947  27.140   4.752
58189W        W19610  43.382  35.978  13.959
58190W        W19611  41.852  17.112   4.607
58191W        W19612   1.246  31.985  12.028
58192W        W19613  23.060   7.845   5.165
58193W        W19614  44.267  12.170  11.447
58194W        W19615  33.478   3.327   1.321
58195W        W19616  43.480  38.902  11.414
58196W        W19617  13.722   1.385  11.513
58197W        W19618  35.433  17.686   1.749
58198W        W19619  40.999  37.531   4.614
58199W        W19620  27.106  19.713  11.975
58200W        W19621  21.081   4.244  12.023
58201W        W19622   8.874  39.410   0.846
58202W        W19623   7.703  15.812  12.973
58203W        W19624  16.591  17.596  14.316
58204W        W19625  28.618  41.960  12.343
58205W        W19626  29.530  20.145  13.991
58206W        W19627   4.363   6.337  12.062
58207W        W19628  17.696  30.121   0.408
58208W        W19629  24.666  13.714  14.953
58209W        W19630  14.706  21.073   4.234
58210W        W19631  14.144  42.368  10.555
58211W        W19632  38.930   7.387  14.912
58212W        W19633  26.020  28.649   1.815
58213W        W19634  20.687  32.510   0.863
58214W        W19635  10.651  24.027  14.482
58215W        W19636  31.973  12.798   3.645
58216W        W19637  27.057  41.040   2.837
58217W        W19638  34.053  10.860  11.046
58218W        W19639  11.132  15.194   1.310
58219W        W19640  24.527  26.990  10.900
58220W        W19641  24.222  20.182   2.679
58221W        W19642   8.672  28.531  12.421
58222W        W19643   4.234  28.078  11.905
58223W        W19644  26.035   5.734   4.224
58224W        W19645  35.918   9.196   1.730
58225W        W19646  21.158  34.074  12.876
58226W        W19647  20.607   7.295  12.853
58227W        W19648  42.851  25.211   1.711
58228W        W19649   9.756   1.946   4.632
58229W        W19650   0.485  16.595   3.834
58230W        W19651   7.726   1.323   0.809
58231W        W19652  43.796   4.933  14.406
58232W        W19653  40.337  11.699  10.888
58233W        W19654  28.621  20.526  11.017
58234W        W19655   0.289  10.714  12.991
58235W        W19656  21.739   9.278   2.704
58236W        W19657  22.600   5.845   4.742
58237W        W19658  39.539  40.343   2.844
58238W        W19659  15.786  35.081   0.753
58239W        W19660  28.473  40.333  10.922
58240W        W19661  24.678  36.421  11.914
58241W        W19662  44.757  24.652   3.767
58242W        W19663   4.409  33.089  12.890
58243W        W19664  10.685  29.611  14.782
58244W        W19665  32.395  32.517  14.935
58245W        W19666  38.375  43.019   3.299
58246W        W19667  39.408  33.465  12.033
58247W        W19668  27.655  31.949   2.352
58248W        W19669  29.664  20.597  14.980
58249W        W19670  40.958  31.143   2.672
58250W        W19671  22.228  35.561  13.045
58251W        W19672  22.713  24.013  10.542
58252W        W19673  33.616  40.832   3.717
58253W        W19674  17.707  20.112  14.948
58254W        W19675   9.350   2.433   4.143
58255W        W19676   2.227  15.809  13.482
58256W        W19677  24.161  24.077   3.193
58257W        W19678  14.301  43.324  11.490
58258W        W19679  44.932  44.774  13.353
58259W        W19680  13.320  23.534  11.493
58260W        W19681   9.711   1.353  11.059
58261W        W19682   2.308  42.502  11.499
58262W        W19683  26.488  36.407   2.312
58263W        W19684  17.673  19.182   3.852
58264W        W19685   7.264  39.916   1.280
58265W        W19686  16.622   8.810  14.879
58266W        W19687   9.859  18.665   4.237
58267W        W19688   1.314  26.638  13.469
58268W        W19689  17.106  10.250   3.371
58269W        W19690  15.772  16.734  10.511
58270W        W19691   5.834  11.813   4.149
58271W        W19692  24.076  44.423  14.892
58272W        W19693  17.601  35.931   2.406
58273W        W19694   5.867  30.429  12.511
58274W        W19695  44.415   5.753  11.990
58275W        W19696  18.251   4.378  12.574
58276W        W19697  27.595   3.945   3.185
58277W        W19698  38.861  39.015  13.402
58278W        W19699  42.400  12.136  14.896
58279W        W19700  13.822   9.336   4.294
58280W        W19701   9.785  15.207  14.441
58281W        W19702  18.724  38.061   0.253
58282W        W19703  39.356   8.664  12.862
58283W        W19704  19.164  19.151   3.317
58284W        W19705   5.768  35.548  13.506
58285W        W19706   0.917   5.876  14.864
58286W        W19707  41.498  17.606  12.425
58287W        W19708   3.791  12.172  11.444
58288W        W19709  29.558  26.646  10.477
58289W        W19710  20.557  13.812  10.920
58290W        W19711   7.727   7.340   1.379
58291W        W19712   9.169  12.707   0.268
58292W        W19713   8.895  43.991  14.375
58293W        W19714  21.245   2.267   3.260
58294W        W19715  12.840  43.326  11.575
58295W        W19716  41.945  44.980   3.157
58296W        W19717  20.711  38.030   1.891
58297W        W19718   8.250   5.881   2.850
58298W        W19719   1.859  31.493  11.976
58299W        W19720  14.321  35.468  11.858
58300W        W19721  18.058  43.768   0.267
58301W        W19722  20.628  39.976   0.775
58302W        W19723  37.573  28.178  14.492
58303W        W19724  38.423  39.955  10.454
58304W        W19725  36.967  28.458  11.416
58305W        W19726  39.980   5.226  10.566
58306W        W19727  28.001  37.344   1.713
58307W        W19728  19.225   3.748   4.735
58308W        W19729  10.834  19.621  11.510
58309W        W19730  41.478   9.888   3.310
58310W        W19731  10.840   0.960  11.459
58311W        W19732   4.310  13.232   1.274
58312W        W19733  23.067  29.636  14.869
58313W        W19734  13.198  18.553  14.470
58314W        W19735  32.974  10.185  11.030
58315W        W19736  41.818  19.711   1.279
58316W        W19737  11.177  33.020   0.737
58317W        W19738  37.446   4.925   1.265
58318W        W19739  35.368  28.641  12.888
58319W        W19740  14.235  42.400   3.838
58320W        W19741  14.189  42.875   4.813
58321W        W19742  11.679   6.880  13.851
58322W        W19743  43.914  36.493  14.771
58323W        W19744  19.771  21.653  11.992
58324W        W19745  22.172  20.534  12.972
58325W        W19746  28.488  41.481   4.296
58326W        W19747  10.855  18.178  12.471
58327W        W19748  26.598  36.933   3.762
58328W        W19749  38.395   6.409  12.434
58329W        W19750  33.936   3.789  13.846
58330W        W19751   1.888  31.082   5.245
58331W        W19752  17.692  26.202  10.929
58332W        W19753   0.891   0.891   3.814
58333W        W19754  12.835   1.240  12.031
58334W        W19755  29.431  33.011  11.478
58335W        W19756  38.406  30.490  10.470
58336W        W19757  28.162   4.323   0.862
58337W        W19758   3.939  36.347   4.146
58338W        W19759  26.646  15.269   2.188
58339W        W19760  43.470   9.660  12.381
58340W        W19761  22.179  15.678  14.964
58341W        W19762  22.249  28.645   0.932
58342W        W19763  34.020  30.440  13.053
58343W        W19764  21.533  40.536  14.931
58344W        W19765  32.003  17.138  11.487
58345W        W19766   0.380   6.682   2.709
58346W        W19767   6.414  38.426   3.687
58347W        W19768  10.680  20.625  12.076
58348W        W19769  37.447  34.515  14.333
58349W        W19770  33.562  11.138  14.024
58350W        W19771  21.514  27.510  10.547
58351W        W19772  31.516  21.517  13.850
58352W        W19773   3.393  20.529  12.456
58353W        W19774  41.424  19.751   2.394
58354W        W19775  35.578  15.633  11.930
58355W        W19776  30.541  30.033   2.376
58356W        W19777   0.845   3.295   0.303
58357W        W19778  14.718   7.390   3.314
58358W        W19779  36.536  20.029   3.798
58359W        W19780  18.757  35.505  12.949
58360W        W19781  35.481  15.152   3.711
58361W        W19782  37.426  36.585  10.927
58362W        W19783   4.212  15.797  14.346
58363W        W19784  19.123  29.933   4.151
58364W        W19785  19.190  24.185  14.435
58365W        W19786  14.657  42.881   3.209
58366W        W19787  35.431   0.376   0.402
58367W        W19788   1.397  42.836   1.762
58368W        W19789  43.291   3.320  10.632
58369W        W19790   4.386  44.964  14.495
58370W        W19791  29.536   4.371  10.940
58371W        W19792  13.327   4.275  12.991
58372W        W19793  36.584   2.425   3.709
58373W        W19794  19.644  37.390   2.240
58374W        W19795  41.417  30.441   3.828
58375W        W19796  43.358  17.709   0.849
58376W        W19797  16.133  41.934   0.315
58377W        W19798  41.421  21.226   0.338
58378W        W19799  10.302  10.239   3.828
58379W        W19800  24.627  13.657   4.277
58380W        W19801  21.088  44.914  13.841
58381W        W19802   1.884   8.725   1.736
58382W        W19803  42.314  42.414   4.267
58383W        W19804  40.030  22.586   1.347
58384W        W19805  13.734  21.213  10.513
58385W        W19806  31.593   5.348  10.080
58386W        W19807  36.976   1.753  14.326
58387W        W19808  10.758  43.001  11.591
58388W        W19809  27.197  39.454   1.791
58389W        W19810  25.667  36.053   1.851
58390W        W19811  33.919   6.779   1.834
58391W        W19812  21.746  26.129  12.382
58392W        W19813  30.161  34.943  12.058
58393W        W19814  17.701  35.954  15.000
58394W        W19815  31.086  38.045  11.508
58395W        W19816  40.983  19.104   2.668
58396W        W19817  41.909  21.082   4.726
58397W        W19818  10.231  17.244   4.123
58398W        W19819  41.836   3.758   3.699
58399W        W19820  35.468  42.966  14.995
58400W        W19821  43.976  10.766  10.570
58401W        W19822  36.963  10.332   3.703
58402W        W19823  11.677  20.740   2.784
58403W        W19824   9.342  43.439   3.288
58404W        W19825  40.349  33.079  10.902
58405W        W19826  28.621  24.595   2.394
58406W        W19827   9.278  33.429   1.905
58407W        W19828   8.181  34.866   3.179
58408W        W19829  22.996  18.218  13.400
58409W        W19830  29.608  23.199  12.931
58410W        W19831  20.605  34.913   1.320
58411W        W19832   4.788  38.560  13.418
58412W        W19833  43.305  42.906  10.482
58413W        W19834   4.894  13.714  12.898
58414W        W19835  27.067  44.906  10.509
58415W        W19836  28.089  15.084   3.163
58416W        W19837  12.258  31.016  13.345
58417W        W19838   0.342  22.671   1.754
58418W        W19839  39.314  18.194  12.494
58419W        W19840  10.737  33.624   1.697
58420W        W19841  19.088  16.781   4.656
58421W        W19842   5.742  23.693   2.296
58422W        W19843  10.144  43.930   1.389
58423W        W19844   2.285   8.784   1.254
58424W        W19845  25.610  21.070   1.441
58425W        W19846   6.286  31.950  14.297
58426W        W19847   7.325  24.060   0.326
58427W        W19848   4.261   6.760  11.051
58428W        W19849  29.568  10.144  11.472
58429W        W19850  29.442   6.722   1.753
58430W        W19851  25.664  32.954   4.696
58431W        W19852   5.432   7.380   1.771
58432W        W19853   0.457  34.917  12.043
58433W        W19854  30.654  13.157  12.031
58434W        W19855  16.087   5.366  13.978
58435W        W19856   4.907  32.554  10.469
58436W        W19857   9.245  38.008  14.301
58437W        W19858   6.773  41.953  13.367
58438W        W19859  44.913  36.854  12.995
58439W        W19860  33.941  33.467  10.129
58440W        W19861  18.248  30.003   4.179
58441W        W19862  19.599   2.839  12.518
58442W        W19863  28.935  28.058  14.893
58443W        W19864   1.732  21.163  13.015
58444W        W19865  26.697   2.382   4.793
58445W        W19866  40.422  43.458  12.001
58446W        W19867   1.327  16.261   0.817
58447W        W19868  36.866  17.629   0.866
58448W        W19869   6.283   3.886   3.224
58449W        W19870  24.623  14.688   3.723
58450W        W19871  22.014  42.302   3.766
58451W        W19872  24.653  18.206  13.045
58452W        W19873  14.764  41.376  11.875
58453W        W19874  12.655  43.282   4.786
58454W        W19875  33.049  24.979   4.201
58455W        W19876  23.622  36.392  11.888
58456W        W19877  24.178   2.451  11.860
58457W        W19878  24.086  19.143   2.255
58458W        W19879  25.109  42.834  13.811
58459W        W19880  40.508  39.430   0.351
58460W        W19881  13.601  11.211   2.883
58461W        W19882  10.162  25.982   2.855
58462W        W19883   5.424  13.642  11.101
58463W        W19884  34.506  23.723  14.395
58464W        W19885   3.738  34.051  13.852
58465W        W19886  33.972  23.154   1.775
58466W        W19887   9.810  40.928  11.121
58467W        W19888  39.019  38.052  13.961
58468W        W19889   1.339  14.298  13.505
58469W        W19890  38.539   9.176   4.821
58470W        W19891  13.750  25.618  12.398
58471W        W19892  16.677  40.961   4.699
58472W        W19893  36.921  43.371  14.847
58473W        W19894   5.874  43.802   0.302
58474W        W19895  30.476  28.017   4.191
58475W        W19896  23.222   0.851  10.005
58476W        W19897   3.460   8.210   2.824
58477W        W19898  15.692   8.867   4.714
58478W        W19899  35.459  23.629  11.932
58479W        W19900  12.695  37.402   4.187
58480W        W19901  36.370  22.746   3.340
58481W        W19902  30.120   3.946   0.925
58482W        W19903  15.163  25.699   1.819
58483W        W19904  42.951  30.162  12.961
58484W        W19905  32.985  12.692  14.821
58485W        W19906  37.482  32.432  13.009
58486W        W19907   3.445  31.021  13.989
58487W        W19908  41.994   2.309  11.129
58488W        W19909  36.437   9.211  13.031
58489W        W19910  26.593  36.544  14.017
58490W        W19911  16.297   8.765   9.969
58491W        W19912   0.450  25.678   1.837
58492W        W19913   3.835  41.326  12.998
58493W        W19914  31.425  29.508  12.356
58494W        W19915  15.276   7.196  10.994
58495W        W19916  22.210   9.819  13.308
58496W        W19917  14.221   7.182  11.382
58497W        W19918  16.244  38.888  13.839
58498W        W19919  28.539  12.752  13.818
58499W        W19920  23.053  43.337  14.514
58500W        W19921   8.746  16.647   4.633
58501W        W19922  11.673  11.282  12.066
58502W        W19923  23.171   5.339  12.567
58503W        W19924   0.797   7.262  13.000
58504W        W19925  41.361  13.786  14.439
58505W        W19926  37.011  28.509  13.347
58506W        W19927   4.298   9.159  12.989
58507W        W19928  30.929  44.330   2.828
58508W        W19929  15.680  16.318  11.538
58509W        W19930  41.830  15.142   0.460
58510W        W19931  11.751  28.583  14.317
58511W        W19932   8.245  32.403   0.946
58512W        W19933  14.294  36.947   2.245
58513W        W19934  37.985   5.397   4.608
58514W        W19935  28.007  19.613  14.304
58515W        W19936  13.222   9.864  14.494
58516W        W19937   0.853  44.273   9.940
58517W        W19938   2.841  35.483  11.379
58518W        W19939  38.950  19.039  14.358
58519W        W19940  15.178  29.433   2.183
58520W        W19941  26.007  29.146  13.386
58521W        W19942  23.172  22.738  12.428
58522W        W19943   1.427  44.264  10.512
58523W        W19944  32.575  13.780   1.423
58524W        W19945  14.229  36.431   4.797
58525W        W19946   5.805  44.395   4.328
58526W        W19947  38.339  22.725  11.598
58527W        W19948   0.479   4.435   2.856
58528W        W19949  40.807   9.764  10.472
58529W        W19950  38.869  38.972   2.716
58530W        W19951  29.165   2.319  11.475
58531W        W19952  41.950  18.697  12.945
58532W        W19953  19.693   4.700  13.798
58533W        W19954   0.312  16.176   4.756
58534W        W19955  24.696   2.873   2.829
58535W        W19956  42.971  28.439   4.236
58536W        W19957  33.020  19.554   0.427
58537W        W19958  19.269  30.657   3.867
58538W        W19959  26.638   9.785   0.895
58539W        W19960   2.748   3.875   0.823
58540W        W19961  12.310  43.864  12.574
58541W        W19962  29.565  27.134   3.756
58542W        W19963  26.493  39.980   9.936
58543W        W19964   8.275  12.174   2.241
58544W        W19965  12.227  12.794  13.470
58545W        W19966   6.377  12.649   3.347
58546W        W19967  24.587  16.181   2.282
58547W        W19968  21.063  12.758  10.899
58548W        W19969  25.210  13.684   0.935
58549W        W19970  30.483  21.146   2.239
58550W        W19971  17.637  32.451  14.864
58551W        W19972  19.712   3.411   0.350
58552W        W19973  32.124  21.249   2.753
58553W        W19974  26.631  31.961   0.905
58554W        W19975  44.408  37.571   4.657
58555W        W19976  16.223  14.660   4.130
58556W        W19977  43.863  19.063  12.890
58557W        W19978  22.196  32.019   1.694
58558W        W19979  44.851  14.810   2.702
58559W        W19980  43.774  24.225   1.241
58560W        W19981   5.407  20.766   4.289
58561W        W19982  29.613   1.334   1.417
58562W        W19983  32.598  34.099   2.316
58563W        W19984  19.552  25.635   4.653
58564W        W19985   6.183  23.105  10.627
58565W        W19986  44.998   0.390  10.618
58566W        W19987  38.434  32.893   1.413
58567W        W19988  30.433  40.460  10.641
58568W        W19989   1.747  41.371  10.971
58569W        W19990  11.147  21.234   2.403
58570W        W19991  15.303  26.137   2.714
58571W        W19992  22.138  43.806  10.576
58572W        W19993  34.884  21.755  13.410
58573W        W19994  11.327  39.500  10.623
58574W        W19995  19.221   9.173  14.911
58575W        W19996   2.293   0.757  14.355
58576W        W19997  15.223  42.991   2.321
58577W        W19998  26.483  17.743  14.986
58578W        W19999   4.869  25.575  13.925
58579W        W20000  38.956  21.616   1.225
58580W        W20001   1.845  29.135  11.042
58581W        W20002  22.695   3.862   3.781
58582W        W20003   9.779   4.343   3.655
58583W        W20004   1.334  19.247   2.747
58584W        W20005  39.861  17.078  14.337
58585W        W20006  19.568  20.133   2.742
58586W        W20007  11.703  16.176   2.875
58587W        W20008  33.124   1.322  13.915
58588W        W20009  17.677  40.898  11.532
58589W        W20010  34.553  15.744  11.970
58590W        W20011  18.244  42.337   4.240
58591W        W20012   1.258  30.127   2.865
58592W        W20013   6.415  14.198   0.312
58593W        W20014  36.549  40.947   1.426
58594W        W20015   4.756  28.567  13.462
58595W        W20016  23.632  26.555   0.747
58596W        W20017   2.241  17.168  10.917
58597W        W20018  42.911  39.345   2.255
58598W        W20019  18.182  20.522  10.458
58599W        W20020  22.077  29.972   2.777
58600W        W20021   9.352   4.288   4.255
58601W        W20022  15.224  36.074   2.803
58602W        W20023  38.419  17.215   4.806
58603W        W20024   2.337  31.049   2.216
58604W        W20025  28.135  26.997   3.748
58605W        W20026   3.414  28.183   4.132
58606W        W20027  18.201  26.035  13.409
58607W        W20028   4.370  24.225   0.430
58608W        W20029  22.643  35.036   2.312
58609W        W20030  17.727  31.937  14.508
58610W        W20031  16.303  40.834   3.675
58611W        W20032  39.387  42.925   2.329
58612W        W20033   0.756   7.867   2.313
58613W        W20034  15.691  31.588   0.934
58614W        W20035  22.700  25.626  12.438
58615W        W20036  31.592  15.083  11.554
58616W        W20037  18.218   6.202   0.474
58617W        W20038  35.875   5.238  14.831
58618W        W20039  37.442  26.102  10.891
58619W        W20040  23.228   6.229  11.014
58620W        W20041  21.173  24.491   1.363
58621W        W20042  31.032  44.444  12.472
58622W        W20043  42.303  31.109   4.754
58623W        W20044  27.570  34.404   2.809
58624W        W20045   5.740  42.823   3.150
58625W        W20046  21.608   6.276  12.507
58626W        W20047  39.826  26.089  11.518
58627W        W20048  29.525  14.121   2.743
58628W        W20049  33.127   8.366   2.366
58629W        W20050  37.979   4.793   2.698
58630W        W20051  43.466  32.076   1.278
58631W        W20052  43.370  43.313  14.028
58632W        W20053  44.497  12.747   4.185
58633W        W20054  24.054  25.164   4.835
58634W        W20055  30.976  15.106  13.019
58635W        W20056  33.074   7.202  13.312
58636W        W20057  41.815  30.031   4.768
58637W        W20058  28.551  32.005  13.372
58638W        W20059  39.923  44.347  11.480
58639W        W20060   0.909  19.041  13.400
58640W        W20061  40.368  34.590   1.730
58641W        W20062   5.874  40.344   0.770
58642W        W20063   5.196  18.602  13.818
58643W        W20064  15.293  31.086   4.833
58644W        W20065  44.323  12.814  14.504
58645W        W20066  23.080  12.746   3.167
58646W        W20067  12.613  40.410   0.764
58647W        W20068  30.920  22.558   2.667
58648W        W20069   2.827   2.836  12.042
58649W        W20070  12.680  11.738  14.367
58650W        W20071  28.117  27.071   0.864
58651W        W20072  26.578  18.156   3.666
58652W        W20073  26.512   5.385  12.028
58653W        W20074  21.185  17.223  13.502
58654W        W20075  10.786   9.784  12.409
58655W        W20076  18.552  15.320  14.799
58656W        W20077  27.495  21.093  14.516
58657W        W20078   9.306   7.880  10.900
58658W        W20079  19.602  34.537  14.783
58659W        W20080  22.137  22.048  14.959
58660W        W20081  44.470   3.413  13.489
58661W        W20082   2.747  15.589  12.092
58662W        W20083  12.679  33.536   3.670
58663W        W20084  19.063  18.572   0.482
58664W        W20085  42.842  39.935  14.347
58665W        W20086  28.567   0.909   4.637
58666W        W20087  17.700   3.406  13.891
58667W        W20088  38.826  14.184   1.695
58668W        W20089   4.772  27.598  10.549
58669W        W20090  24.630  14.733  12.494
58670W        W20091  11.826  13.340  12.055
58671W        W20092  10.754   7.372  14.495
58672W        W20093  21.211  36.076   1.822
58673W        W20094   1.933  35.360   2.387
58674W        W20095  35.447  38.008   3.640
58675W        W20096  23.494  11.860  12.947
58676W        W20097  39.432  40.804   0.271
58677W        W20098  39.048   4.316  11.887
58678W        W20099  40.901  15.306   0.378
58679W        W20100  25.485  11.307   3.278
58680W        W20101  24.657  44.980  14.767
58681W        W20102  11.353  34.039   0.323
58682W        W20103  40.797   9.165  10.625
58683W        W20104  41.002  16.606   1.382
58684W        W20105  30.528  22.660   2.308
58685W        W20106  43.793  41.295  11.033
58686W        W20107  44.461  27.960   4.633
58687W        W20108   2.304  30.092   0.335
58688W        W20109   0.312  37.017   3.864
58689W        W20110  41.456  25.129   0.366
58690W        W20111  11.680   8.889  10.925
58691W        W20112   4.237  32.035  12.536
58692W        W20113   9.719  40.548  10.481
58693W        W20114   9.655  44.999  10.894
58694W        W20115   0.303  16.162  13.521
58695W        W20116  28.680  35.926  13.373
58696W        W20117  34.446  43.298  13.999
58697W        W20118   1.307  29.437  12.072
58698W        W20119  28.969  19.572   4.133
58699W        W20120  17.589  12.362  13.342
58700W        W20121   5.338   5.371   4.175
58701W        W20122  36.938  13.731   2.852
58702W        W20123  11.830  29.507   3.857
58703W        W20124  17.082  37.017   4.615
58704W        W20125  31.402  43.351  13.958
58705W        W20126  27.576  12.200   3.249
58706W        W20127  42.286  21.233  13.020
58707W        W20128  31.065  43.471   0.248
58708W        W20129  41.971  24.031  12.006
58709W        W20130  41.356  35.545  11.512
58710W        W20131  12.818  24.595   3.321
58711W        W20132   3.892   7.319  14.819
58712W        W20133  19.771  18.118  10.600
58713W        W20134   6.861  24.188  12.479
58714W        W20135  36.927  41.301   0.322
58715W        W20136   6.780  33.081   1.805
58716W        W20137   8.899  24.616  13.498
58717W        W20138  28.961  29.042   1.273
58718W        W20139  34.546  41.331   0.364
58719W        W20140   6.921  23.689  11.550
58720W        W20141  10.800  26.596   1.225
58721W        W20142   1.880  35.044   2.314
58722W        W20143  22.741  38.997   5.165
58723W        W20144   6.749  13.279   2.364
58724W        W20145  15.752  37.914   1.222
58725W        W20146  12.337  24.532   0.315
58726W        W20147  26.507  18.218  10.970
58727W        W20148  33.468  19.639   2.873
58728W        W20149  14.773  17.093   3.196
58729W        W20150  17.234   3.232  14.428
58730W        W20151  21.045  42.928   1.347
58731W        W20152  19.592  28.978   4.674
58732W        W20153  10.670   7.201   2.797
58733W        W20154  12.745  35.898   2.327
58734W        W20155   5.897   5.689   3.307
58735W        W20156   5.877  24.104   0.279
58736W        W20157   6.182  37.944  14.841
58737W        W20158   6.837  36.593   4.744
58738W        W20159   8.336  18.077  12.893
58739W        W20160  42.404   5.925  11.106
58740W        W20161  11.797  38.350  11.045
58741W        W20162  33.408   9.778  14.446
58742W        W20163  40.305   8.219   4.176
58743W        W20164  32.569  21.702  13.387
58744W        W20165   7.725   2.447  11.552
58745W        W20166  16.156  35.449   1.270
58746W        W20167   2.959  27.958  12.084
58747W        W20168  10.760   3.915   2.259
58748W        W20169  11.244  29.138   4.138
58749W        W20170  26.208  18.103  13.338
58750W        W20171  10.696  35.498   2.805
58751W        W20172  38.887  37.855   0.293
58752W        W20173  18.604  32.065   1.856
58753W        W20174  38.325  17.603  13.050
58754W        W20175  25.596  44.394  10.121
58755W        W20176   1.926   3.364  10.984
58756W        W20177  26.068   1.946  12.899
58757W        W20178  34.507  38.063  14.497
58758W        W20179   3.934  20.216   2.674
58759W        W20180   4.290  12.123  11.941
58760W        W20181  30.124  26.676   0.900
58761W        W20182   3.322  27.522  13.915
58762W        W20183  34.997   4.704  13.960
58763W        W20184  32.029   8.757   4.722
58764W        W20185  43.279  19.671  13.871
58765W        W20186   8.731   0.776   4.822
58766W        W20187  43.363  39.939  13.885
58767W        W20188  42.342  26.168  12.495
58768W        W20189  26.609  41.431  11.376
58769W        W20190  38.852  40.950  10.889
58770W        W20191  25.086  34.405   0.429
58771W        W20192  36.459  10.220   4.754
58772W        W20193  37.519  19.245  13.868
58773W        W20194  13.350  37.083  10.408
58774W        W20195  19.196  17.061  11.465
58775W        W20196  29.113  38.040   2.352
58776W        W20197  43.929  20.036  12.392
58777W        W20198   3.374  10.689   0.350
58778W        W20199  37.979  18.062   3.722
58779W        W20200  22.648  25.530  13.454
58780W        W20201  10.149  29.597   5.160
58781W        W20202   6.848  27.957   3.728
58782W        W20203   4.917  38.829   3.278
58783W        W20204  38.370  16.201  11.957
58784W        W20205   5.750   4.780   0.310
58785W        W20206  13.289  28.102  12.400
58786W        W20207   9.261  35.568  14.456
58787W        W20208   4.729  29.970  11.579
58788W        W20209   3.890  22.215   0.334
58789W        W20210  19.741  43.497   0.333
58790W        W20211  15.811  37.957   0.300
58791W        W20212  15.181  27.112  13.997
58792W        W20213  15.276   6.696   3.745
58793W        W20214   6.263  26.638   0.387
58794W        W20215  36.363  31.525  13.050
58795W        W20216   6.889  44.909  12.568
58796W        W20217  42.778  34.531  10.409
58797W        W20218  34.091  25.076  13.969
58798W        W20219  16.723  18.577  11.913
58799W        W20220  15.709   4.768  13.872
58800W        W20221  25.535  42.972  12.950
58801W        W20222  32.967   5.907   0.920
58802W        W20223  38.906   5.390  10.530
58803W        W20224   3.334  14.689   0.859
58804W        W20225  29.120  43.301   4.339
58805W        W20226  42.934  25.094  13.835
58806W        W20227  11.804  25.016   3.163
58807W        W20228  38.913  19.598  13.958
58808W        W20229  41.442  10.160   3.179
58809W        W20230  43.915  10.635  14.464
58810W        W20231  43.469  17.610  10.963
58811W        W20232  12.203  26.514   3.164
58812W        W20233   1.305  16.092  14.864
58813W        W20234  30.553  29.026   2.666
58814W        W20235  18.100  12.271   3.759
58815W        W20236  12.283  26.026  12.520
58816W        W20237  31.968  28.950  14.311
58817W        W20238  33.578  43.958   4.709
58818W        W20239  20.698  43.385  12.851
58819W        W20240   6.412  31.621   2.232
58820W        W20241  20.072  30.613   4.796
58821W        W20242  44.263  35.439   3.374
58822W        W20243  22.728  41.425   4.318
58823W        W20244   2.729  20.050  14.497
58824W        W20245  43.800  29.969   0.322
58825W        W20246  23.658  37.451   2.181
58826W        W20247  12.162  16.790  12.354
58827W        W20248  41.333  35.082   3.361
58828W        W20249  42.956  43.772  13.431
58829W        W20250  40.442  29.645   2.307
58830W        W20251  12.843   8.816  14.422
58831W        W20252   7.276  14.725   4.192
58832W        W20253  29.974  37.436   1.748
58833W        W20254  44.969  35.460  14.323
58834W        W20255   4.409  38.460  13.382
58835W        W20256  26.680  32.609  10.431
58836W        W20257  22.226  13.349  11.981
58837W        W20258   6.701   4.891   2.247
58838W        W20259  27.482   6.882  11.903
58839W        W20260  13.348  44.830   4.267
58840W        W20261  13.823  38.341   3.849
58841W        W20262  12.681  14.631   4.690
58842W        W20263  30.639  18.226  10.440
58843W        W20264  14.140   0.486   1.707
58844W        W20265   2.823  42.402   3.853
58845W        W20266   1.249  12.827   2.717
58846W        W20267  18.728   0.312  13.992
58847W        W20268  22.604   5.352  14.020
58848W        W20269  30.554  20.112   1.294
58849W        W20270  18.217  27.137   4.672
58850W        W20271  33.597   1.261   1.399
58851W        W20272  35.447  18.071  12.059
58852W        W20273   3.277  40.924   3.151
58853W        W20274  22.565  33.604  12.016
58854W        W20275   5.694  18.124  11.061
58855W        W20276  24.700   8.739  10.532
58856W        W20277  10.288  16.607  12.449
58857W        W20278  44.464   9.771   2.721
58858W        W20279  26.174  35.457   0.919
58859W        W20280  29.448  11.852  12.449
58860W        W20281  26.959  14.197   3.210
58861W        W20282  14.754  40.381  10.899
58862W        W20283  17.684  34.592   1.301
58863W        W20284  42.901  42.930   1.341
58864W        W20285   5.308  42.967  14.442
58865W        W20286  14.619  35.410   0.886
58866W        W20287  22.736  27.956   1.367
58867W        W20288  34.994  17.257   0.317
58868W        W20289  37.416  29.066   2.676
58869W        W20290   4.435  33.920  10.527
58870W        W20291  19.071  21.151  13.898
58871W        W20292  40.363  30.444  13.852
58872W        W20293   6.852  26.191  14.346
58873W        W20294  22.663  21.739   1.305
58874W        W20295   3.251  33.454  14.971
58875W        W20296  27.569  14.112   1.328
58876W        W20297  13.290  33.976  13.928
58877W        W20298  20.157  40.837   0.374
58878W        W20299  43.379  11.824   0.250
58879W        W20300  11.797   5.689  10.944
58880W        W20301  36.483  26.960  11.923
58881W        W20302   9.299  13.201  10.551
58882W        W20303  12.220  18.213   3.795
58883W        W20304  30.417  18.773  11.610
58884W        W20305  25.984  28.663  11.035
58885W        W20306  44.402   8.693   2.747
58886W        W20307  40.485   8.756   2.855
58887W        W20308   7.718  17.797   2.279
58888W        W20309   1.323  16.753   4.168
58889W        W20310  31.500   0.335  13.962
58890W        W20311  41.440  16.685  14.478
58891W        W20312   8.268  18.173  12.439
58892W        W20313  39.493  37.361  13.037
58893W        W20314  14.725   8.724   4.302
58894W        W20315  11.258  38.916   1.289
58895W        W20316  10.251  37.979  14.002
58896W        W20317  24.610  10.640   0.331
58897W        W20318  30.477   2.431  13.062
58898W        W20319  35.400   7.809  13.445
58899W        W20320  16.180  22.594  13.854
58900W        W20321  38.500   6.890   0.325
58901W        W20322   0.860  30.582  11.580
58902W        W20323  36.496  14.307  12.567
58903W        W20324  42.865  19.062  13.468
58904W        W20325  24.192   1.441  14.349
58905W        W20326  38.003  22.706  11.037
58906W        W20327  30.595  19.594   3.379
58907W        W20328  15.262  27.648  12.980
58908W        W20329  14.821  24.198  12.404
58909W        W20330  21.211  13.195   3.350
58910W        W20331   5.808  28.578   1.354
58911W        W20332  31.494  35.900  10.507
58912W        W20333  16.074  20.547  12.382
58913W        W20334  15.659  32.424  14.776
58914W        W20335   8.302  38.403   0.466
58915W        W20336   8.759  21.604  13.534
58916W        W20337  13.267   1.780   3.183
58917W        W20338  43.771   9.789   2.210
58918W        W20339   1.895  44.473   2.671
58919W        W20340  40.800  13.689   1.904
58920W        W20341  11.238  44.765  13.390
58921W        W20342  27.608  33.025  11.997
58922W        W20343  31.498   4.231  13.037
58923W        W20344   0.901  42.859   2.901
58924W        W20345  15.128  11.171  11.565
58925W        W20346  38.404   3.368  12.503
58926W        W20347  41.441  33.482   0.829
58927W        W20348  40.992  18.165   4.668
58928W        W20349  25.629  15.667   1.244
58929W        W20350  12.146  25.970   1.417
58930W        W20351  28.510   2.816   3.719
58931W        W20352  23.131  22.615   3.692
58932W        W20353   5.292  10.659  11.602
58933W        W20354  26.603  23.149   0.821
58934W        W20355  44.879  18.089  14.812
58935W        W20356  25.522  21.264   3.255
58936W        W20357  30.916  15.671  13.471
58937W        W20358  16.105  35.535   0.246
58938W        W20359  37.854  18.765   0.926
58939W        W20360  41.374  16.573  11.402
58940W        W20361  24.689   0.931   3.147
58941W        W20362   3.300  38.940   0.435
58942W        W20363   3.449  21.262  13.314
58943W        W20364  43.857  21.662  12.035
58944W        W20365  14.764  16.161  11.067
58945W        W20366   6.706  14.643  12.491
58946W        W20367  20.715  24.137  11.878
58947W        W20368  15.708  29.994   0.833
58948W        W20369  28.617   1.731   2.902
58949W        W20370  22.711  29.045  11.907
58950W        W20371  30.627  18.645  14.344
58951W        W20372  36.448  27.650   2.209
58952W        W20373   7.184  24.717  13.312
58953W        W20374  14.769  24.685   2.262
58954W        W20375  15.773  40.428  14.869
58955W        W20376  36.523  36.358  11.420
58956W        W20377   9.800  11.747  12.502
58957W        W20378  18.294   1.483  14.905
58958W        W20379  36.433   7.207  13.823
58959W        W20380  10.222  30.426  11.952
58960W        W20381  22.506  11.324   4.271
58961W        W20382  35.499  34.399   2.385
58962W        W20383  27.978  37.378  12.838
58963W        W20384   6.891  40.373   2.889
58964W        W20385   9.314   4.241   0.399
58965W        W20386  43.325   0.319   3.867
58966W        W20387  25.616  42.916  11.054
58967W        W20388  37.533  11.312  13.390
58968W        W20389  36.448   1.913  12.568
58969W        W20390  27.150  30.954  14.849
58970W        W20391  36.016  44.938   2.688
58971W        W20392  10.826  38.982   2.710
58972W        W20393  13.188  31.612   0.340
58973W        W20394  40.844  28.498  13.524
58974W        W20395  20.621  19.052   0.890
58975W        W20396  39.061  21.583  13.963
58976W        W20397  19.116  14.724  13.335
58977W        W20398   8.215  33.481   3.310
58978W        W20399   1.403  31.443   3.270
58979W        W20400   7.811  24.020  14.937
58980W        W20401  37.440  28.967  13.373
58981W        W20402  43.966   1.848   3.387
58982W        W20403  16.769  18.790   2.291
58983W        W20404  19.199   5.694   4.692
58984W        W20405  17.256  33.055   1.878
58985W        W20406  21.099  18.590   0.369
58986W        W20407  14.282  19.240   1.819
58987W        W20408  42.979  41.343  10.136
58988W        W20409  21.047  33.107  10.635
58989W        W20410  33.547  13.295  14.405
58990W        W20411  14.732  12.720   4.836
58991W        W20412  29.993  10.687  12.510
58992W        W20413  20.708  29.589   1.425
58993W        W20414  26.523  44.944   4.698
58994W        W20415  24.167  17.301   1.369
58995W        W20416  22.610  16.094  13.540
58996W        W20417  25.034  36.515   4.733
58997W        W20418  27.969  37.013  13.833
58998W        W20419  33.484  11.642   2.372
58999W        W20420  12.697  30.582  13.422
59000W        W20421  31.448   4.796   3.191
59001W        W20422  21.689  27.004   2.732
59002W        W20423   8.338   8.222  12.927
59003W        W20424  43.354  32.970  13.919
59004W        W20425  43.484   8.791   4.195
59005W        W20426   6.220  17.131   5.156
59006W        W20427   5.262  15.105   0.896
59007W        W20428   3.414  14.737  14.828
59008W        W20429   1.283  28.461  10.610
59009W        W20430  26.126  36.925  11.975
59010W        W20431  16.761  13.740   9.924
59011W        W20432  25.663  19.587  14.508
59012W        W20433  19.253   7.771  13.048
59013W        W20434  23.503  10.261  12.998
59014W        W20435  15.723  42.504  11.922
59015W        W20436  37.393   0.447  10.915
59016W        W20437  22.599  37.032   1.819
59017W        W20438  33.111  20.653  13.968
59018W        W20439  22.558  34.002  13.003
59019W        W20440  20.272  19.751   4.301
59020W        W20441  29.969  30.002  13.921
59021W        W20442   6.189  20.268   3.755
59022W        W20443   5.396   2.953   1.832
59023W        W20444  27.676  24.081   0.962
59024W        W20445  39.461  32.970   4.773
59025W        W20446  19.539  32.494   3.859
59026W        W20447  39.448  32.032   0.899
59027W        W20448  43.397  22.574   2.362
59028W        W20449   0.378  12.725   2.747
59029W        W20450  43.431  24.148  10.930
59030W        W20451  12.174  36.562   2.405
59031W        W20452  41.017  42.015  13.453
59032W        W20453  30.141   2.949  14.806
59033W        W20454  38.457  14.182   5.660
59034W        W20455   7.388  15.148  13.528
59035W        W20456  40.504  22.715  10.928
59036W        W20457   2.301  33.472   4.794
59037W        W20458  24.557  31.931   2.276
59038W        W20459  18.077  17.111  12.930
59039W        W20460  20.241  11.360  12.053
59040W        W20461  23.622  24.119   0.891
59041W        W20462  31.587  14.653   5.750
59042W        W20463   2.937  44.359   0.770
59043W        W20464  36.074  21.544  14.012
59044W        W20465  40.879   5.330  13.034
59045W        W20466  26.590  13.746  13.537
59046W        W20467  42.861  44.826   3.644
59047W        W20468  36.942  18.270  11.458
59048W        W20469   5.333   7.768   3.221
59049W        W20470  33.051  35.570  14.384
59050W        W20471  28.141  27.043  11.526
59051W        W20472  29.452  10.877   1.805
59052W        W20473  24.506  22.730  11.078
59053W        W20474   7.310  44.321  13.834
59054W        W20475  44.373  16.573   2.862
59055W        W20476   6.701  15.142   0.762
59056W        W20477  14.700  27.463  13.537
59057W        W20478  24.703  15.214   4.834
59058W        W20479  37.400  15.819   9.934
59059W        W20480   8.853  15.226  13.378
59060W        W20481  43.873  12.770  12.495
59061W        W20482  23.686  10.731  13.482
59062W        W20483  17.083  36.467  12.990
59063W        W20484  25.551  43.007  13.887
59064W        W20485  22.632  30.914  12.561
59065W        W20486   0.287   1.306  14.904
59066W        W20487  19.099  24.637  14.767
59067W        W20488  43.012  12.785  14.367
59068W        W20489  22.519  11.269  13.385
59069W        W20490   6.263   8.296  11.472
59070W        W20491   5.841  37.354   3.636
59071W        W20492  33.395  13.609  10.007
59072W        W20493  18.644  32.098  10.958
59073W        W20494  25.539  32.957  14.869
59074W        W20495  40.868  35.415   0.304
59075W        W20496  22.533  10.811  11.059
59076W        W20497  41.908  16.145   0.756
59077W        W20498  21.689  21.160   3.647
59078W        W20499  23.989  42.977   0.439
59079W        W20500  16.179  37.477   3.752
59080W        W20501  20.706  34.579  13.912
59081W        W20502  32.588   1.949   1.868
59082W        W20503  14.636  38.055  14.298
59083W        W20504  10.196  41.007  11.486
59084W        W20505   7.318  12.148   1.356
59085W        W20506  34.537  24.019   4.658
59086W        W20507  10.308   4.250  11.441
59087W        W20508  26.073  14.624   0.783
59088W        W20509  23.734  19.613  10.987
59089W        W20510  26.575  28.127   0.439
59090W        W20511  15.597   3.356   1.885
59091W        W20512  24.613  31.612  12.970
59092W        W20513   6.732  30.429  13.802
59093W        W20514  39.547  39.913   3.671
59094W        W20515  20.120  26.638   0.827
59095W        W20516  22.125   3.308  14.349
59096W        W20517  39.325  28.936  14.799
59097W        W20518   5.718  27.968  11.385
59098W        W20519  34.462  35.020  14.905
59099W        W20520   0.897  36.515  12.537
59100W        W20521  21.210  20.108  14.781
59101W        W20522  44.864   9.689  10.561
59102W        W20523  13.324   0.249  12.444
59103W        W20524   0.975  19.255   0.379
59104W        W20525  29.983  14.674  12.042
59105W        W20526  43.316   2.342  11.116
59106W        W20527   6.380   6.359  14.508
59107W        W20528  29.641  16.664  14.874
59108W        W20529  13.815   1.414   3.717
59109W        W20530  39.431   9.202   1.359
59110W        W20531  35.479   3.270   3.148
59111W        W20532  43.423  25.711  12.849
59112W        W20533  44.320  22.561  14.795
59113W        W20534  34.027   7.354   4.293
59114W        W20535  41.978   8.691   0.901
59115W        W20536  30.636  11.320   3.771
59116W        W20537   7.818  10.330  13.016
59117W        W20538  27.622  37.372   1.698
59118W        W20539   7.874   1.444  11.452
59119W        W20540  35.471  17.250  11.508
59120W        W20541  41.935  35.581   3.677
59121W        W20542  41.944  34.115   1.712
59122W        W20543  22.619   6.211   3.337
59123W        W20544  43.463  29.145  10.468
59124W        W20545  14.717  14.144   4.258
59125W        W20546  41.030  10.655  12.968
59126W        W20547  23.661  33.550   1.826
59127W        W20548  43.779  40.501  13.038
59128W        W20549  40.871  42.329   3.655
59129W        W20550  14.670  24.583  13.377
59130W        W20551   9.679  13.804  13.393
59131W        W20552  24.585  42.999   2.865
59132W        W20553  23.001  10.839   2.726
59133W        W20554  37.861   5.399  13.316
59134W        W20555   0.938   9.855  13.399
59135W        W20556  42.825  32.447  12.384
59136W        W20557  10.655   8.798   0.783
59137W        W20558  17.658  20.079  11.468
59138W        W20559  36.055  29.056   4.327
59139W        W20560   5.317  33.005  11.000
59140W        W20561  14.612   0.821   1.331
59141W        W20562  14.588   8.387   1.741
59142W        W20563  38.846  34.396   3.859
59143W        W20564   3.230  17.204   2.673
59144W        W20565  21.078   7.258  14.903
59145W        W20566  38.928  11.278  13.042
59146W        W20567  19.082  19.623   3.351
59147W        W20568  37.460  39.461   0.327
59148W        W20569  19.586  23.563  11.092
59149W        W20570  43.339  28.650  14.881
59150W        W20571  12.330  17.617   1.329
59151W        W20572  43.002  23.124  13.047
59152W        W20573  43.867  15.628   2.897
59153W        W20574  11.292  41.441   3.704
59154W        W20575  36.040  36.442   2.343
59155W        W20576  25.659  10.715   2.286
59156W        W20577  36.405  36.952   1.364
59157W        W20578  34.032  20.733  11.106
59158W        W20579   7.765   1.477  14.982
59159W        W20580  15.215  44.498  14.864
59160W        W20581  17.655  39.041   4.620
59161W        W20582  16.765  42.012   1.326
59162W        W20583  14.740  39.923   3.649
59163W        W20584   2.850   1.911   1.850
59164W        W20585  21.523  33.908   2.732
59165W        W20586   3.252  25.064   0.279
59166W        W20587   6.690  30.507   4.349
59167W        W20588  18.682  41.355   2.225
59168W        W20589  39.492  31.555   1.893
59169W        W20590  44.004  44.990  13.351
59170W        W20591  19.147   7.210  13.825
59171W        W20592   7.796  44.428   3.788
59172W        W20593  17.143  24.509  13.857
59173W        W20594  14.750  32.124   1.328
59174W        W20595  20.595  21.261   1.226
59175W        W20596  34.596  37.086  11.113
59176W        W20597  30.988  44.490  13.496
59177W        W20598   3.821  32.962   1.308
59178W        W20599  42.953  29.110  13.853
59179W        W20600  38.039  34.575   5.257
59180W        W20601  28.603   9.292   3.198
59181W        W20602  12.145   1.445  13.833
59182W        W20603  39.421  40.433   3.383
59183W        W20604  25.645  30.088  14.849
59184W        W20605  13.344  29.164  12.518
59185W        W20606  11.277   6.685  13.428
59186W        W20607  43.804  40.852  11.893
59187W        W20608   5.846  44.885   3.361
59188W        W20609  29.466  32.126  10.638
59189W        W20610  38.045   3.889  11.871
59190W        W20611  21.159  42.971  10.584
59191W        W20612  13.839  15.720   0.343
59192W        W20613  34.994  36.959   3.679
59193W        W20614   8.802   4.810   5.211
59194W        W20615   9.832  29.653   3.793
59195W        W20616   5.431  18.690  10.480
59196W        W20617  38.856  18.697  10.977
59197W        W20618  36.494   9.646  13.987
59198W        W20619   6.769  30.443  13.437
59199W        W20620  22.694  37.381   2.858
59200W        W20621   7.375   6.347  14.484
59201W        W20622  31.125  32.600  10.984
59202W        W20623  29.954  31.154  10.588
59203W        W20624   1.807   8.172  10.971
59204W        W20625  41.303   4.310   3.250
59205W        W20626  41.480   2.948  13.364
59206W        W20627  33.971  12.314  13.368
59207W        W20628   6.704  39.451  12.884
59208W        W20629  29.094   5.906   2.825
59209W        W20630  17.201  37.372   0.832
59210W        W20631  40.388  30.420   1.298
59211W        W20632  34.044  14.825   3.800
59212W        W20633  33.945  36.532  11.477
59213W        W20634   9.867  29.160   3.667
59214W        W20635  40.421  24.063   1.934
59215W        W20636  16.717  25.033  14.286
59216W        W20637  37.936  33.881  13.810
59217W        W20638  19.082   4.704   0.847
59218W        W20639  27.181  17.224  13.806
59219W        W20640  19.708   9.856   0.264
59220W        W20641  18.616   9.203   2.851
59221W        W20642  10.759  20.638  12.948
59222W        W20643  44.429  31.060  14.343
59223W        W20644  13.132   2.895  11.502
59224W        W20645  41.314  43.451   4.184
59225W        W20646  14.148   0.945  10.933
59226W        W20647  27.186  11.662   0.361
59227W        W20648  16.157  31.939   0.859
59228W        W20649   6.742  12.332  11.386
59229W        W20650  42.426   2.800   3.174
59230W        W20651   1.741  39.353   3.314
59231W        W20652   9.351  16.759   3.284
59232W        W20653  26.510   9.799   4.244
59233W        W20654  41.001  24.211  13.953
59234W        W20655  19.543  16.805   2.279
59235W        W20656   5.772  29.614   4.717
59236W        W20657  44.938   1.915   4.143
59237W        W20658  40.484  19.147  11.549
59238W        W20659  41.967  43.878   1.721
59239W        W20660   2.438   0.785  13.887
59240W        W20661  38.903  13.808   0.873
59241W        W20662  15.316  10.870  14.839
59242W        W20663  31.910  37.869  13.804
59243W        W20664  13.751  17.154   2.318
59244W        W20665  41.504  23.045   1.403
59245W        W20666  37.569  13.832   9.450
59246W        W20667  29.609  10.257   2.189
59247W        W20668  26.026  31.563   1.825
59248W        W20669  26.535  30.462  11.873
59249W        W20670  19.106  10.727  11.949
59250W        W20671  32.471  18.646  10.635
59251W        W20672  25.713  12.695  11.924
59252W        W20673   7.239  44.420   1.429
59253W        W20674  12.201   9.207  12.457
59254W        W20675  21.701  26.180   0.389
59255W        W20676  38.868  26.564  11.038
59256W        W20677  20.712  10.836  11.509
59257W        W20678  34.887  44.337  13.458
59258W        W20679  21.604   6.757  10.523
59259W        W20680  19.569  15.189  13.978
59260W        W20681  43.976  34.888  12.548
59261W        W20682  31.001  12.210   1.901
59262W        W20683  36.888  18.663   1.275
59263W        W20684  23.183  15.180   4.211
59264W        W20685  33.002  30.078   1.431
59265W        W20686   3.935  21.054  10.482
59266W        W20687  41.434  40.812   0.938
59267W        W20688  26.696  21.184  12.086
59268W        W20689   0.806  13.127  10.524
59269W        W20690  42.404  17.576  13.536
59270W        W20691  13.239  41.008   0.817
59271W        W20692  23.089  26.546   3.165
59272W        W20693  10.277  23.227  14.474
59273W        W20694   4.807  11.232   4.616
59274W        W20695  32.631  17.274   0.746
59275W        W20696  40.434  34.023  13.911
59276W        W20697  17.142   1.397  13.035
59277W        W20698  31.938  41.842  13.963
59278W        W20699   2.840  41.798  13.377
59279W        W20700  20.075  41.359   0.285
59280W        W20701  20.743   8.295  14.023
59281W        W20702  34.940   2.459   1.873
59282W        W20703  28.670  11.866  13.050
59283W        W20704  36.967  44.317   4.301
59284W        W20705  18.732  39.056   5.197
59285W        W20706  19.713  43.319  13.941
59286W        W20707  43.431  15.595  13.308
59287W        W20708  30.135  14.131   4.608
59288W        W20709   1.965  28.054  13.806
59289W        W20710  20.261   3.427   4.789
59290W        W20711   7.805   5.732  11.889
59291W        W20712  18.608  30.504   4.346
59292W        W20713  10.835  36.485  11.969
59293W        W20714   9.808  37.395   1.439
59294W        W20715  11.310  18.550  12.950
59295W        W20716  39.320  39.933   3.178
59296W        W20717   7.703  38.963   1.897
59297W        W20718   8.273  44.367  14.511
59298W        W20719   0.986  27.940  12.012
59299W        W20720  23.232  35.002  13.008
59300W        W20721  12.747  15.583  12.456
59301W        W20722  38.972  38.958  13.989
59302W        W20723  15.619  43.772   1.290
59303W        W20724   4.809  39.388  12.898
59304W        W20725  38.567  13.181  12.908
59305W        W20726  17.281   5.417  12.414
59306W        W20727  39.483  10.153   3.664
59307W        W20728   1.962  11.622   3.650
59308W        W20729  25.108  41.510   3.275
59309W        W20730   8.686   0.455   2.359
59310W        W20731  23.497  42.430   3.358
59311W        W20732  37.428  41.368  14.780
59312W        W20733  34.096   8.890  12.927
59313W        W20734  43.483  35.430  13.903
59314W        W20735  33.532  21.092   2.415
59315W        W20736   3.861  40.351   4.226
59316W        W20737  23.049  41.438   3.379
59317W        W20738  40.307  19.063  11.048
59318W        W20739  24.588  19.143  12.343
59319W        W20740  12.656  44.915   0.313
59320W        W20741  39.473  16.638   0.329
59321W        W20742  19.194  34.035  13.955
59322W        W20743  19.582  12.313  10.590
59323W        W20744  17.219  21.225   5.208
59324W        W20745  41.969  33.100  13.063
59325W        W20746   3.349  19.559  14.408
59326W        W20747  35.076   0.420  10.456
59327W        W20748  22.038  39.456   2.297
59328W        W20749  42.890  24.645  11.488
59329W        W20750   9.343  26.640  14.336
59330W        W20751  37.409  28.957   3.762
59331W        W20752  13.731  34.074  11.906
59332W        W20753  27.023  25.158  10.478
59333W        W20754  27.679   2.836  12.847
59334W        W20755  28.006   0.961   2.376
59335W        W20756  26.059  33.004   2.309
59336W        W20757  41.504  29.167   2.353
59337W        W20758  16.161   8.793  14.421
59338W        W20759  25.642  26.065   2.346
59339W        W20760  34.422  17.741  11.518
59340W        W20761  26.605  29.512   3.652
59341W        W20762  38.940   1.803  14.832
59342W        W20763  23.608  11.355  13.492
59343W        W20764  21.185  22.029  14.469
59344W        W20765  43.816  31.434   3.263
59345W        W20766  43.816   7.777  14.969
59346W        W20767  24.090  26.524  12.495
59347W        W20768   4.345  39.056   4.708
59348W        W20769  12.155  13.227  10.892
59349W        W20770  14.231  41.537   3.783
59350W        W20771   0.259  11.667   1.826
59351W        W20772  24.574  15.265  14.341
59352W        W20773   7.785  42.989  10.976
59353W        W20774  43.788   9.807   1.274
59354W        W20775   5.360  39.936   2.721
59355W        W20776  18.607   3.413  12.907
59356W        W20777  22.045  35.858   3.740
59357W        W20778  18.177   8.223   3.630
59358W        W20779  43.360  31.534   0.962
59359W        W20780  40.949  14.607  11.588
59360W        W20781  26.997  17.091  11.093
59361W        W20782  26.616  18.099  13.429
59362W        W20783  26.154  25.126   3.638
59363W        W20784  35.562   7.804  11.948
59364W        W20785   8.311  23.517   2.267
59365W        W20786  12.842  20.123   0.468
59366W        W20787  32.569  42.807  10.598
59367W        W20788  19.546   6.815   0.242
59368W        W20789  26.084   6.319  14.407
59369W        W20790  41.426   1.761   1.767
59370W        W20791  23.136  33.998   2.388
59371W        W20792  15.802  13.122   1.876
59372W        W20793  28.016   5.259  12.888
59373W        W20794  21.120  24.702   3.697
59374W        W20795  29.635  15.129   1.727
59375W        W20796  41.955   0.404  12.052
59376W        W20797   8.161   8.655  11.384
59377W        W20798  44.320   0.821  10.508
59378W        W20799  42.973   1.937  11.107
59379W        W20800  17.263  42.495   2.358
59380W        W20801  27.159  21.738  13.922
59381W        W20802   0.825   1.365   3.674
59382W        W20803   9.839  28.473   0.743
59383W        W20804  21.135   4.900   2.365
59384W        W20805  26.122  21.620  11.916
59385W        W20806  16.596  30.029   3.188
59386W        W20807  10.673  35.494   2.293
59387W        W20808   2.433  43.986   2.747
59388W        W20809   6.861  36.549  14.900
59389W        W20810  36.978  11.667   4.318
59390W        W20811  21.631  20.098  11.462
59391W        W20812  20.698  44.003   4.244
59392W        W20813  18.130  23.492  13.339
59393W        W20814  23.721  19.120   1.428
59394W        W20815  15.148  10.274  13.526
59395W        W20816  23.506  16.588  12.933
59396W        W20817  44.776  18.591   2.896
59397W        W20818  37.884  26.535  14.277
59398W        W20819  11.324  13.275  12.513
59399W        W20820  36.992   1.483   2.364
59400W        W20821  25.069  32.069   0.362
59401W        W20822  18.624  24.225   2.885
59402W        W20823   2.813  28.649  10.567
59403W        W20824  19.114  13.825  10.612
59404W        W20825  12.756  34.907  14.502
59405W        W20826  43.865  42.945  14.836
59406W        W20827  21.074  33.480   0.366
59407W        W20828  42.893  12.329  13.494
59408W        W20829  39.968  42.973  12.395
59409W        W20830  37.921  30.558  11.516
59410W        W20831  41.034   3.884   0.768
59411W        W20832  31.105  36.877  12.950
59412W        W20833  28.082  16.585  14.764
59413W        W20834   3.420  40.432  13.037
59414W        W20835  16.637   7.882  14.032
59415W        W20836  10.713  33.017  13.050
59416W        W20837  14.681   3.774  14.007
59417W        W20838  11.230  29.013  11.964
59418W        W20839  41.913  30.908  11.488
59419W        W20840   2.299  33.599  14.968
59420W        W20841  44.377  23.076  10.503
59421W        W20842   6.404  16.280  10.073
59422W        W20843   2.947  12.787   0.885
59423W        W20844   7.689  32.398  11.373
59424W        W20845  21.634  30.532  14.829
59425W        W20846  43.457  32.601   3.751
59426W        W20847  11.349   6.908  11.534
59427W        W20848  11.166  24.040   3.253
59428W        W20849  33.007  17.137  14.430
59429W        W20850   1.466  24.479  12.823
59430W        W20851   6.704  11.764  12.353
59431W        W20852  30.157  18.242  11.065
59432W        W20853   1.932  29.997   2.809
59433W        W20854  41.915  21.047  12.439
59434W        W20855   6.837  18.565  13.944
59435W        W20856  12.260  17.265   4.663
59436W        W20857  19.655   3.891  14.417
59437W        W20858   1.961  36.369   1.408
59438W        W20859   1.415  16.714   0.727
59439W        W20860  44.313   1.410  12.051
59440W        W20861  26.692   7.253   2.348
59441W        W20862  19.564  16.782  12.434
59442W        W20863  20.267   8.721   0.747
59443W        W20864  36.511  24.715  13.456
59444W        W20865  24.680  31.489  10.471
59445W        W20866   5.342  12.286   0.893
59446W        W20867  34.504  43.473   1.347
59447W        W20868  23.634  18.699  14.949
59448W        W20869  44.768  35.855   0.315
59449W        W20870  24.048  10.703  14.375
59450W        W20871  20.626   7.393  14.013
59451W        W20872  10.647   8.360  13.918
59452W        W20873  10.384   0.744  10.607
59453W        W20874  26.105  23.099  13.504
59454W        W20875  27.006  17.686   2.376
59455W        W20876  19.286  44.772  10.982
59456W        W20877  11.202  30.461   3.320
59457W        W20878  32.937  10.758  13.970
59458W        W20879  30.020  26.677  14.014
59459W        W20880  18.111   8.194  12.921
59460W        W20881  35.603  24.150  13.494
59461W        W20882  13.154   1.467  10.532
59462W        W20883  11.834  15.188  13.499
59463W        W20884  13.186  20.671  12.888
59464W        W20885  22.181  30.039   4.694
59465W        W20886  30.948  28.442   0.837
59466W        W20887  21.204  41.450  11.879
59467W        W20888  20.134  26.088   4.707
59468W        W20889  27.940  44.940  14.348
59469W        W20890  25.518  32.062   3.792
59470W        W20891  33.055  39.395   1.357
59471W        W20892  40.320  31.904   1.288
59472W        W20893  21.698  10.203  11.440
59473W        W20894  32.981  41.902  10.891
59474W        W20895  25.086  41.310   2.779
59475W        W20896  26.668  44.876  10.635
59476W        W20897   4.762  21.114  10.947
59477W        W20898   6.410   2.836   3.161
59478W        W20899  12.812  14.767   4.276
59479W        W20900  25.686   2.740   4.722
59480W        W20901   6.219   7.801  12.373
59481W        W20902  16.644   1.268   3.333
59482W        W20903  41.021   6.837   1.751
59483W        W20904  19.610  22.745  12.460
59484W        W20905  23.227  12.144   3.293
59485W        W20906  33.954  44.772   1.328
59486W        W20907  13.794   5.411  12.412
59487W        W20908  41.016  28.649   3.634
59488W        W20909  31.092  37.430  10.095
59489W        W20910  34.884  25.483  10.472
59490W        W20911  40.967  28.631  12.916
59491W        W20912  33.044  38.855   2.267
59492W        W20913  19.681  41.020   1.906
59493W        W20914  41.330   4.710   1.824
59494W        W20915   9.353  40.038  14.378
59495W        W20916  14.116   8.895  13.030
59496W        W20917  16.112  19.751  10.597
59497W        W20918   4.421  27.976   2.811
59498W        W20919   4.422   8.843   4.629
59499W        W20920  26.160  34.047   4.730
59500W        W20921  29.072  23.559  10.967
59501W        W20922  17.291   7.323   2.353
59502W        W20923  29.439  24.571   3.731
59503W        W20924  28.031   9.386   3.710
59504W        W20925  21.181  34.043  10.543
59505W        W20926  24.060   5.229  13.497
59506W        W20927   0.857  33.519   1.214
59507W        W20928   4.781   0.883  13.329
59508W        W20929  22.175  13.802  12.984
59509W        W20930  16.590  35.977   3.649
59510W        W20931  26.107  11.232  11.024
59511W        W20932  36.478  37.939  13.370
59512W        W20933  33.125  30.104  10.473
59513W        W20934  34.578  22.545  10.913
59514W        W20935  20.205  21.257   3.183
59515W        W20936  35.049  32.091  11.007
59516W        W20937   1.348  38.330  14.472
59517W        W20938  17.798  39.487   0.421
59518W        W20939  14.179  26.199  12.906
59519W        W20940  10.813  26.145   3.180
59520W        W20941  37.846   0.317  12.987
59521W        W20942  26.959  41.000   1.441
59522W        W20943  13.251  43.835   1.780
59523W        W20944  32.509  28.667  12.078
59524W        W20945  42.468  23.153  14.842
59525W        W20946  20.178  20.538   2.788
59526W        W20947  38.026  19.675  11.878
59527W        W20948  32.917   4.313  11.954
59528W        W20949  41.825  16.100   3.793
59529W        W20950  25.515  13.255  14.965
59530W        W20951  28.585  22.554  10.474
59531W        W20952  37.341  37.359   0.333
59532W        W20953  26.500  35.953  10.489
59533W        W20954  24.987  21.662   3.201
59534W        W20955   8.227  39.857  11.415
59535W        W20956  30.438  35.574   3.737
59536W        W20957  21.057  27.007   2.697
59537W        W20958   9.290  39.857   0.860
59538W        W20959  17.105  13.196  11.975
59539W        W20960  34.388  31.539   2.681
59540W        W20961   8.700  15.216  13.940
59541W        W20962  43.968  26.129   2.178
59542W        W20963  12.267  14.254   1.241
59543W        W20964  17.557  21.741  12.892
59544W        W20965   9.789  16.743  10.421
59545W        W20966  43.285   3.865   4.230
59546W        W20967  43.859  41.515   4.188
59547W        W20968  20.553  33.961   1.445
59548W        W20969  38.866   1.877  10.559
59549W        W20970  39.925  29.145   3.761
59550W        W20971  37.902  29.029   3.319
59551W        W20972  33.474   3.869  12.012
59552W        W20973  26.604  40.916   4.613
59553W        W20974  27.132  42.806  14.892
59554W        W20975   7.757  32.886  10.470
59555W        W20976  37.469  28.488  11.428
59556W        W20977  19.639  31.427   3.380
59557W        W20978  13.740   1.767   4.154
59558W        W20979  22.555   8.374  11.606
59559W        W20980  34.952  40.367   0.271
59560W        W20981  29.616   2.259   0.459
59561W        W20982  16.145  14.728   9.437
59562W        W20983  20.242  25.023   0.451
59563W        W20984  16.780  18.704   0.750
59564W        W20985  33.008  26.033  11.538
59565W        W20986  36.044  44.399  12.383
59566W        W20987  29.615  17.640   1.895
59567W        W20988   1.301  37.919   0.262
59568W        W20989   8.859   7.275   2.212
59569W        W20990  43.018  24.116  10.540
59570W        W20991  13.747   0.962  14.316
59571W        W20992   5.438   6.862   2.208
59572W        W20993  10.758  14.629   2.833
59573W        W20994   7.733  21.630   4.644
59574W        W20995  16.135   4.297  14.833
59575W        W20996  37.038   8.747   3.326
59576W        W20997  41.346  33.396   3.752
59577W        W20998  10.155   0.813   4.694
59578W        W20999   9.707  15.283   3.766
59579W        W21000  38.569  33.480  13.337
59580W        W21001   8.693  21.023   3.642
59581W        W21002  10.783  25.966  10.568
59582W        W21003  19.567  10.829  10.624
59583W        W21004  38.410  36.069   4.743
59584W        W21005  17.800  25.603  13.017
59585W        W21006  22.172  27.502   2.402
59586W        W21007  15.217  35.564  13.987
59587W        W21008   4.387  23.518   0.922
59588W        W21009  43.292  25.057   0.481
59589W        W21010  41.897  28.088   0.424
59590W        W21011  21.654  40.531   3.191
59591W        W21012  29.166   9.204  13.365
59592W        W21013  25.509  36.996   2.382
59593W        W21014  31.433  27.567   1.294
59594W        W21015  18.156  16.694   1.757
59595W        W21016   7.330  32.447  10.971
59596W        W21017  18.069  31.943   5.140
59597W        W21018   1.976  13.800   4.794
59598W        W21019   2.262  18.647   4.200
59599W        W21020   2.727   9.766   2.681
59600W        W21021  26.609  20.592  10.129
59601W        W21022  19.766  18.745  11.567
59602W        W21023   3.826  15.307   3.771
59603W        W21024  31.644  30.567   1.865
59604W        W21025  24.501  17.756  12.049
59605W        W21026  35.933   3.852   3.784
59606W        W21027  19.578  17.114   3.268
59607W        W21028   9.260  15.286   2.774
59608W        W21029  22.705  41.921  14.473
59609W        W21030  14.714  14.645   0.948
59610W        W21031   4.904  30.436  11.518
59611W        W21032  10.285   8.790   4.279
59612W        W21033  16.726  27.126  12.943
59613W        W21034  40.858  19.136   0.961
59614W        W21035  18.770  10.215  12.030
59615W        W21036  27.953   8.246   0.858
59616W        W21037  27.482  35.531  14.458
59617W        W21038  42.388  37.029   1.339
59618W        W21039  37.527   7.313   0.341
59619W        W21040  20.208  15.770  13.862
59620W        W21041  18.637   3.716   3.840
59621W        W21042  16.634  31.445   0.466
59622W        W21043  34.954  12.778  14.327
59623W        W21044  28.000  43.936  11.522
59624W        W21045  19.084  22.112   4.127
59625W        W21046  28.624   9.319   3.828
59626W        W21047  42.484  21.120   0.872
59627W        W21048   8.367  30.915   2.331
59628W        W21049  17.090  36.373  12.370
59629W        W21050  10.720  31.561  14.935
59630W        W21051   8.741  30.161   3.803
59631W        W21052  27.972   1.877  11.589
59632W        W21053  40.871  19.631  10.631
59633W        W21054  18.784  17.122  12.977
59634W        W21055  15.181  34.001   1.438
59635W        W21056  11.825  36.528   1.215
59636W        W21057   5.839  21.729   4.192
59637W        W21058  15.650  13.249  11.450
59638W        W21059  17.598  14.305   1.272
59639W        W21060  23.539  30.989  13.017
59640W        W21061  29.154  15.683  14.801
59641W        W21062  31.599  24.045   2.411
59642W        W21063  16.265  23.066  11.561
59643W        W21064  40.053  36.985  12.976
59644W        W21065  27.132  32.134   5.109
59645W        W21066  31.580  25.078  11.943
59646W        W21067  29.069  38.014  10.913
59647W        W21068  39.449  23.074  10.492
59648W        W21069  29.621  16.739  12.533
59649W        W21070  43.306  38.834   4.212
59650W        W21071   5.339   0.984  14.330
59651W        W21072  19.220   2.845   1.931
59652W        W21073   2.348   7.856  12.061
59653W        W21074  37.924  17.240   3.312
59654W        W21075  12.732   7.897  12.413
59655W        W21076   9.849  42.326  12.573
59656W        W21077  38.453   9.833   1.901
59657W        W21078  17.687  34.540  13.391
59658W        W21079   7.812  19.175   2.235
59659W        W21080   9.271   2.453  14.953
59660W        W21081   2.866   7.411   4.300
59661W        W21082  43.967  37.484   0.482
59662W        W21083   9.384  34.906   1.932
59663W        W21084  27.666  28.122  12.934
59664W        W21085   1.743  38.965  11.899
59665W        W21086  35.865  17.802   1.705
59666W        W21087   5.821  43.949   3.830
59667W        W21088  12.786   4.800  11.530
59668W        W21089   5.402  17.131   4.798
59669W        W21090  22.007  39.328   3.804
59670W        W21091  21.106  26.544   0.786
59671W        W21092  10.149  37.871  14.286
59672W        W21093   2.887  33.598   2.834
59673W        W21094  36.523  32.603   1.448
59674W        W21095  17.628   3.321  14.800
59675W        W21096  23.728  11.644  13.809
59676W        W21097   5.208  30.911   3.672
59677W        W21098  18.634  42.821   2.360
59678W        W21099   4.402  42.012  11.476
59679W        W21100   5.349  33.050  10.108
59680W        W21101  43.017  23.105  11.064
59681W        W21102   9.281   0.785   4.160
59682W        W21103  10.229  23.603  13.356
59683W        W21104  43.335  34.485  14.921
59684W        W21105  18.207  14.823  14.870
59685W        W21106  10.358   1.239  10.892
59686W        W21107  24.618  28.116  11.094
59687W        W21108  31.065  21.130  12.340
59688W        W21109  31.480   1.929   1.263
59689W        W21110  10.284  27.527   9.942
59690W        W21111   0.369  27.493  10.960
59691W        W21112  42.342   6.874   2.249
59692W        W21113  10.342  10.286  14.365
59693W        W21114  12.690  29.561  13.000
59694W        W21115  20.031  16.598   3.245
59695W        W21116  22.530   3.453   4.675
59696W        W21117   2.434   3.346   2.727
59697W        W21118   0.271  43.896   2.858
59698W        W21119  42.806  34.005   1.850
59699W        W21120   5.824  40.839  11.469
59700W        W21121  33.088  38.420  12.416
59701W        W21122  25.673  24.005  14.873
59702W        W21123  31.028  28.050  13.545
59703W        W21124  44.490   9.757   0.294
59704W        W21125  38.908  41.944   3.364
59705W        W21126  13.181  17.725  10.889
59706W        W21127   8.212  39.381  12.345
59707W        W21128   8.314  35.993   0.787
59708W        W21129  11.215  27.068  14.470
59709W        W21130   7.906  10.844  10.995
59710W        W21131  29.174  10.865  11.553
59711W        W21132  43.453  27.656   1.439
59712W        W21133   8.852  29.005   0.418
59713W        W21134  27.071   2.927  11.057
59714W        W21135  37.980   6.773   2.675
59715W        W21136  37.350  25.656  10.468
59716W        W21137  37.888  10.745  13.991
59717W        W21138  17.100  34.988  11.117
59718W        W21139  40.507   5.311  14.471
59719W        W21140  29.656  20.086   4.814
59720W        W21141   4.316  39.035   0.758
59721W        W21142   5.879  39.855  12.938
59722W        W21143   0.364   6.889  13.392
59723W        W21144  22.685  29.464  10.426
59724W        W21145  13.161   1.914   3.702
59725W        W21146  31.922  14.164   5.256
59726W        W21147   6.709  12.263   2.819
59727W        W21148   4.905  13.216   3.783
59728W        W21149  19.608  36.491  11.942
59729W        W21150  16.571  12.200  11.612
59730W        W21151  24.988  18.616   0.469
59731W        W21152  11.652  18.585   0.308
59732W        W21153  10.323   9.219   2.848
59733W        W21154  28.590  12.776   9.570
59734W        W21155   4.253  41.816   0.320
59735W        W21156   1.915   9.351  10.971
59736W        W21157  39.543   9.230  11.397
59737W        W21158  30.432  17.205   3.232
59738W        W21159  20.108  36.485  13.426
59739W        W21160   7.253   0.338   1.349
59740W        W21161   0.431  17.706  11.013
59741W        W21162   4.851  37.442   2.391
59742W        W21163  20.686  38.371   3.368
59743W        W21164  14.126  20.171  12.360
59744W        W21165  36.451  30.461  13.511
59745W        W21166   3.383  14.284  12.888
59746W        W21167   4.729  23.620   2.741
59747W        W21168  11.849  29.504   0.920
59748W        W21169  25.660  31.986  14.023
59749W        W21170   7.175  22.079   3.741
59750W        W21171  28.147  33.382  10.577
59751W        W21172  13.185  26.701  13.983
59752W        W21173  42.908  33.442   3.709
59753W        W21174  37.540  12.726  14.023
59754W        W21175  42.422  37.868   0.761
59755W        W21176  26.200  38.907  10.471
59756W        W21177   3.409  31.009   0.277
59757W        W21178  25.042  12.288   4.772
59758W        W21179  19.285  38.029   0.305
59759W        W21180  14.284  16.783  11.948
59760W        W21181  35.359  15.140  12.007
59761W        W21182  42.322  26.027   1.342
59762W        W21183  43.416   1.976  11.059
59763W        W21184  36.586  36.477  12.967
59764W        W21185  32.971   3.763   4.251
59765W        W21186  34.969  16.176   3.225
59766W        W21187  38.538  41.345   3.797
59767W        W21188  20.246  27.519  13.397
59768W        W21189  37.970  44.380  14.793
59769W        W21190  22.528  32.419   2.771
59770W        W21191   4.937  10.767  11.572
59771W        W21192  13.339  13.199   4.122
59772W        W21193  12.669  13.112   1.814
59773W        W21194  17.598  38.961  14.359
59774W        W21195  29.117  37.924  14.765
59775W        W21196  11.229  31.914   3.176
59776W        W21197  24.514  20.076   1.858
59777W        W21198  21.646  25.485   2.213
59778W        W21199  30.519  41.433  12.012
59779W        W21200  44.987  20.694   0.376
59780W        W21201  30.455  28.159  10.931
59781W        W21202  25.487  30.488   0.830
59782W        W21203  26.511  24.646   2.402
59783W        W21204  17.556  38.488  13.357
59784W        W21205  43.314   0.800  14.410
59785W        W21206   0.412   2.787   3.691
59786W        W21207  17.119  38.870  14.966
59787W        W21208  32.520  27.629   3.756
59788W        W21209  25.063  21.066   2.284
59789W        W21210   9.149  10.648  13.389
59790W        W21211  27.163  39.021   0.297
59791W        W21212  14.314  29.157   4.719
59792W        W21213  25.571   6.896   5.707
59793W        W21214  12.808  10.231  12.863
59794W        W21215   8.365   0.381  11.072
59795W        W21216   3.935  31.101  11.971
59796W        W21217  32.001  19.588   1.887
59797W        W21218   3.398  32.031   3.376
59798W        W21219  42.019  29.165   2.687
59799W        W21220  40.023  13.600   1.394
59800W        W21221  28.476  23.650   3.681
59801W        W21222   8.224  43.408   3.691
59802W        W21223  40.369   5.870  10.410
59803W        W21224  11.848  41.308   3.271
59804W        W21225  22.159  25.589  14.988
59805W        W21226  24.981   4.917   0.417
59806W        W21227  19.240  38.827  13.862
59807W        W21228  14.770  40.924  10.952
59808W        W21229  18.188  20.086  13.382
59809W        W21230  40.842  37.914   4.312
59810W        W21231  18.644   7.770  12.940
59811W        W21232  32.513  33.102  12.403
59812W        W21233  38.384  28.626   2.182
59813W        W21234  12.852  33.886  14.029
59814W        W21235  33.926  21.697  11.006
59815W        W21236  37.990  25.200   4.804
59816W        W21237  18.198   4.355   3.224
59817W        W21238  12.735  43.387   1.365
59818W        W21239  32.960  34.578  12.824
59819W        W21240  35.895  21.183   4.743
59820W        W21241   1.784  19.742  11.588
59821W        W21242  33.622  38.466   3.243
59822W        W21243  23.222  40.344  13.919
59823W        W21244   8.279  34.527   0.836
59824W        W21245   1.270   8.858  14.505
59825W        W21246  22.567  16.217   0.348
59826W        W21247   9.773   5.236  10.980
59827W        W21248  12.349  31.579   1.861
59828W        W21249  17.260  19.771   0.763
59829W        W21250  36.043  29.113   3.282
59830W        W21251  41.957  36.997  13.458
59831W        W21252   0.468   1.911  12.905
59832W        W21253   6.842  30.139   4.299
59833W        W21254   7.291  27.532  11.924
59834W        W21255  35.896  44.295  13.054
59835W        W21256   2.267  34.436  12.341
59836W        W21257  36.007   6.332  10.553
59837W        W21258  37.574  10.312  13.423
59838W        W21259   3.341  23.029   0.745
59839W        W21260  16.314  36.945  13.490
59840W        W21261  41.359   6.746   2.669
59841W        W21262  19.275  43.822  11.061
59842W        W21263  33.997  43.428   2.262
59843W        W21264   8.371  35.070   0.399
59844W        W21265  26.607  37.930  11.040
59845W        W21266  24.093  21.687  10.472
59846W        W21267  42.442  42.384  10.941
59847W        W21268  10.192  19.645   2.181
59848W        W21269  44.985  29.099  10.540
59849W        W21270  26.116  10.805  11.392
59850W        W21271  13.681  16.180  10.430
59851W        W21272  32.559  28.598   3.241
59852W        W21273  18.552  33.101   3.196
59853W        W21274  42.378  29.467  12.027
59854W        W21275   6.680  28.500   1.838
59855W        W21276  36.422   3.896   0.951
59856W        W21277   6.734   5.306   4.832
59857W        W21278   3.389  22.649   2.867
59858W        W21279   0.441   8.404   3.682
59859W        W21280  28.015  42.911  12.869
59860W        W21281  14.124  19.190   2.746
59861W        W21282  20.625  24.021   1.788
59862W        W21283  31.002  28.156  14.031
59863W        W21284   6.386   2.837   0.908
59864W        W21285  28.490  33.114   0.782
59865W        W21286  31.431  15.325   2.347
59866W        W21287  43.516  19.771  12.928
59867W        W21288  31.622  17.623  10.635
59868W        W21289  40.431  27.527  12.471
59869W        W21290  14.328  29.965  10.019
59870W        W21291  14.621  40.549  13.848
59871W        W21292  12.350   2.907  11.543
59872W        W21293  12.625   6.889  14.814
59873W        W21294   2.904  31.460   1.256
59874W        W21295  31.142  30.109  11.965
59875W        W21296  22.161  43.405  12.981
59876W        W21297  29.541   8.315   0.341
59877W        W21298  40.048  42.350   2.679
59878W        W21299  14.215  32.086   3.169
59879W        W21300  33.617  37.955   2.385
59880W        W21301  16.595  20.207   4.628
59881W        W21302  10.752  37.550   1.370
59882W        W21303  21.179  20.618  14.919
59883W        W21304   3.907  13.670  11.426
59884W        W21305  19.718  17.088   1.353
59885W        W21306  39.918  40.405   3.677
59886W        W21307  32.914   3.876  13.319
59887W        W21308   1.761  23.572  12.414
59888W        W21309  20.669  16.124   1.268
59889W        W21310  26.015  32.459  10.533
59890W        W21311   5.708  28.614  14.301
59891W        W21312  31.076  31.513  11.064
59892W        W21313  29.447  29.069  12.366
59893W        W21314  31.424  36.423   4.265
59894W        W21315  18.587  23.705  10.983
59895W        W21316  42.423  25.075   4.795
59896W        W21317   1.850   6.350  10.637
59897W        W21318  21.048  35.475   4.229
59898W        W21319  19.240  30.427   2.190
59899W        W21320  36.989  41.504   2.833
59900W        W21321  25.110   0.327  13.534
59901W        W21322   9.725  29.621  14.471
59902W        W21323   3.844  21.617   1.709
59903W        W21324  10.867  36.859   2.755
59904W        W21325  10.351  26.616   3.652
59905W        W21326  16.270   8.389  11.585
59906W        W21327  40.327   7.291  13.064
59907W        W21328   5.848   3.745   4.652
59908W        W21329  10.663  31.094  14.851
59909W        W21330  39.451  25.651   4.291
59910W        W21331  34.428  33.100   1.734
59911W        W21332  23.209  26.953   0.815
59912W        W21333   3.719  32.042  14.802
59913W        W21334  33.622  40.897  11.603
59914W        W21335  29.053  29.015  13.988
59915W        W21336   3.264   4.738   3.630
59916W        W21337   1.748  23.031   0.794
59917W        W21338   0.937  28.648  14.290
59918W        W21339  36.926  38.973   3.299
59919W        W21340  43.481  26.655   2.864
59920W        W21341  26.517   9.680   0.339
59921W        W21342  25.156  15.089   2.676
59922W        W21343   0.264  29.557  11.987
59923W        W21344  40.418   5.436  11.007
59924W        W21345  12.199  26.108   4.816
59925W        W21346   0.892  43.946  10.976
59926W        W21347   7.399  38.852   3.198
59927W        W21348  21.677  36.410   2.410
59928W        W21349   1.320  34.958   3.819
59929W        W21350  36.068  19.742  14.397
59930W        W21351  28.525  39.332   4.721
59931W        W21352  12.629  15.321   0.476
59932W        W21353  31.138  18.282  11.552
59933W        W21354  14.238   6.845   3.281
59934W        W21355   9.218  42.512   5.158
59935W        W21356  20.135  24.723  10.516
59936W        W21357  35.000  10.291  13.052
59937W        W21358  32.138  10.709  10.525
59938W        W21359  14.133  35.889  11.116
59939W        W21360  31.409  44.472   3.382
59940W        W21361  19.705  17.634   3.342
59941W        W21362  38.392  18.621   2.738
59942W        W21363   7.862  44.348   1.413
59943W        W21364  28.481  43.310  13.921
59944W        W21365  37.570  41.366  10.424
59945W        W21366  35.071  44.338   0.919
59946W        W21367  39.832  39.420   3.368
59947W        W21368  37.902  27.176  12.010
59948W        W21369  15.291  20.273   4.255
59949W        W21370  22.663  22.075  13.055
59950W        W21371  32.075   0.841  12.492
59951W        W21372  22.227  24.508  14.441
59952W        W21373  36.379   9.753  11.012
59953W        W21374  34.954  26.209   0.312
59954W        W21375  26.563   2.325   4.167
59955W        W21376  26.071  38.051  11.511
59956W        W21377  26.620  31.586   0.280
59957W        W21378  12.197  29.520   0.876
59958W        W21379  20.731   6.404  14.417
59959W        W21380   5.209   3.756  12.916
59960W        W21381  41.472  44.373  13.826
59961W        W21382  22.605   0.253   4.309
59962W        W21383  35.497   4.784   3.253
59963W        W21384   9.713  42.796   2.235
59964W        W21385  30.561  28.629  14.025
59965W        W21386  24.230  28.628  10.582
59966W        W21387  27.945  27.623   0.745
59967W        W21388   3.294  24.162  11.875
59968W        W21389  13.620  41.495   1.729
59969W        W21390  32.543  22.031  14.879
59970W        W21391  34.497  21.707   2.292
59971W        W21392  19.171  11.693  10.526
59972W        W21393  37.381  35.957  11.885
59973W        W21394  39.363   5.194  12.435
59974W        W21395  36.055   8.714  11.960
59975W        W21396  17.787  22.540  11.954
59976W        W21397  42.310  10.276   1.310
59977W        W21398  30.598  28.656   3.184
59978W        W21399  14.691  36.845   1.746
59979W        W21400   8.871  16.651  12.985
59980W        W21401   9.758  43.827  11.040
59981W        W21402  37.982  40.942   3.859
59982W        W21403   9.803  10.734   0.455
59983W        W21404  13.328  30.506   5.667
59984W        W21405  31.453   1.326  10.908
59985W        W21406  16.200  38.045  12.340
59986W        W21407  29.105  35.073  13.422
59987W        W21408  17.163  35.934   0.868
59988W        W21409  24.623  17.574   0.732
59989W        W21410  23.006  37.913   0.433
59990W        W21411  29.611  31.973  13.016
59991W        W21412   9.694  26.551   1.451
59992W        W21413   0.308  13.140  14.008
59993W        W21414  43.872   8.242   3.154
59994W        W21415  13.208  15.280  14.304
59995W        W21416  29.569  34.595   4.150
59996W        W21417   6.253   9.257  11.057
59997W        W21418  10.222  42.295  12.865
59998W        W21419  40.431   5.292   3.263
59999W        W21420  12.349  22.614  14.977
60000W        W21421  34.418  31.141   1.303
60001W        W21422  39.387  26.115   2.777
60002W        W21423   6.711   0.847  14.929
60003W        W21424  33.064  39.500  14.877
60004W        W21425   8.275  13.257  13.468
60005W        W21426  16.315  28.978   1.381
60006W        W21427  29.151  34.500  11.515
60007W        W21428  28.486  38.474  12.413
60008W        W21429  32.897  35.359  12.947
60009W        W21430  43.482  23.067  12.994
60010W        W21431   9.762  18.180  13.468
60011W        W21432  19.650  35.093  10.494
60012W        W21433  25.651  26.459  11.539
60013W        W21434  25.617  35.598  14.854
60014W        W21435  21.156  28.630   2.764
60015W        W21436   3.298   8.190  12.078
60016W        W21437  32.111  36.014  12.545
60017W        W21438  41.011  35.065  14.332
60018W        W21439   5.798  14.207   2.748
60019W        W21440  11.346   2.893  10.992
60020W        W21441  22.037  34.949   3.192
60021W        W21442  27.583  26.954   3.761
60022W        W21443  37.914  31.997  10.453
60023W        W21444  11.292   3.860  13.986
60024W        W21445  36.991  14.310  11.486
60025W        W21446  29.084  37.483  14.405
60026W        W21447  41.936   6.840  14.821
60027W        W21448  26.589  28.644   3.260
60028W        W21449  33.545  16.597  13.820
60029W        W21450   8.217  44.346  13.012
60030W        W21451   1.871   7.718   3.851
60031W        W21452  42.810  24.503  13.983
60032W        W21453   8.376  35.534  11.024
60033W        W21454  14.250  15.807   2.204
60034W        W21455  24.660  39.987   4.160
60035W        W21456  24.180   1.407   1.292
60036W        W21457  12.641  15.123  12.836
60037W        W21458  29.497   2.736   0.331
60038W        W21459  27.082  43.422   2.846
60039W        W21460   6.687  29.587   2.762
60040W        W21461  41.930  40.511   0.389
60041W        W21462  29.559   6.912  14.410
60042W        W21463  15.696  27.640   1.830
60043W        W21464  24.116  35.398   3.241
60044W        W21465   1.450   6.205  14.967
60045W        W21466  34.098   7.744  10.440
60046W        W21467   8.759  16.143  11.449
60047W        W21468  13.645   0.318   0.382
60048W        W21469  25.066  23.640  14.340
60049W        W21470   7.818  28.039   5.216
60050W        W21471   1.411  36.089  13.830
60051W        W21472  19.542  28.131   4.817
60052W        W21473  23.212  20.215  13.308
60053W        W21474  21.647   3.811   4.262
60054W        W21475  21.560  20.553  10.892
60055W        W21476  21.699  12.740   2.268
60056W        W21477   3.252  34.480  14.318
60057W        W21478  10.354  14.770   2.293
60058W        W21479   6.805  42.821  11.484
60059W        W21480  16.681  37.489   1.423
60060W        W21481  32.981  43.975  10.581
60061W        W21482  21.630  25.548   4.175
60062W        W21483   3.432  33.981  11.042
60063W        W21484  30.556   6.844   2.208
60064W        W21485  19.647   7.799   3.807
60065W        W21486  10.849  37.537   4.600
60066W        W21487  11.292  19.203   3.148
60067W        W21488  21.082  16.620   4.616
60068W        W21489  14.634  44.761   2.293
60069W        W21490  10.673  36.033   2.290
60070W        W21491  39.361  13.777  13.929
60071W        W21492  11.222  15.320  11.481
60072W        W21493  39.894   6.231   2.839
60073W        W21494  11.734  43.980   0.844
60074W        W21495   1.368  13.801   1.395
60075W        W21496  44.316  17.137   5.121
60076W        W21497  34.409  41.913  10.430
60077W        W21498  38.040  25.563  14.318
60078W        W21499  33.392   6.703   4.205
60079W        W21500  41.963  30.547  12.047
60080W        W21501  38.040  28.948  11.589
60081W        W21502  11.208  43.813  12.073
60082W        W21503  34.540  16.747   3.371
60083W        W21504  27.073  38.488  14.445
60084W        W21505  13.142  40.845   4.664
60085W        W21506  22.503  23.110   3.363
60086W        W21507  19.155  11.275   1.227
60087W        W21508  36.515  23.985   1.862
60088W        W21509  33.459   5.759   1.848
60089W        W21510  41.922   5.777   2.297
60090W        W21511  44.836  41.910  14.292
60091W        W21512  13.121  39.047  13.520
60092W        W21513  13.326  11.712   4.333
60093W        W21514  15.303  28.490   3.641
60094W        W21515  25.599  40.490   2.866
60095W        W21516  28.521  26.574  14.845
60096W        W21517  43.864   1.818   0.443
60097W        W21518  20.040   6.881  14.359
60098W        W21519  39.472   7.888   4.764
60099W        W21520  31.142  31.567  13.490
60100W        W21521   0.786  12.767   5.238
60101W        W21522  24.974  28.566  11.376
60102W        W21523  33.024  33.121  13.539
60103W        W21524  14.641  38.561  12.426
60104W        W21525  35.572  22.603  13.012
60105W        W21526  29.534  31.097  10.608
60106W        W21527  41.352  28.664   3.866
60107W        W21528  30.495   2.870   4.745
60108W        W21529   4.709  44.774   0.763
60109W        W21530   2.321  29.499   1.337
60110W        W21531  18.620  10.153   3.673
60111W        W21532   6.737  36.965  14.985
60112W        W21533  10.155  37.363   0.480
60113W        W21534  44.883   1.443  14.765
60114W        W21535  40.371  43.324   1.431
60115W        W21536  15.777  17.110   9.928
60116W        W21537  27.492   5.258  10.599
60117W        W21538  18.719  19.660   2.371
60118W        W21539  36.009  41.419  11.895
60119W        W21540  30.128  27.605  11.541
60120W        W21541  33.398   1.754  11.858
60121W        W21542  38.519  27.014   4.835
60122W        W21543   0.431  17.091   2.336
60123W        W21544  21.735  39.382  13.828
60124W        W21545  35.034  19.174  12.906
60125W        W21546  37.521   7.180  10.581
60126W        W21547  20.658  24.531   1.790
60127W        W21548  24.111   1.943  10.494
60128W        W21549  35.854  38.505   3.766
60129W        W21550   3.945   7.251  13.454
60130W        W21551  27.148  25.145   4.345
60131W        W21552  18.558  27.516  10.629
60132W        W21553  24.562   4.885  14.376
60133W        W21554  26.091  16.167   3.629
60134W        W21555   4.879  12.786   3.633
60135W        W21556   1.885  31.039   0.852
60136W        W21557  30.576  18.588  13.518
60137W        W21558  38.977  32.399   2.784
60138W        W21559   0.858  19.605   1.384
60139W        W21560  31.623  43.773  10.634
60140W        W21561   4.300  31.584  11.542
60141W        W21562  19.673  14.128  13.822
60142W        W21563  43.831  42.460   0.813
60143W        W21564  36.484  22.244   2.184
60144W        W21565  12.811  17.075   3.867
60145W        W21566  40.895  12.644  10.126
60146W        W21567  21.672   5.314   1.773
60147W        W21568  41.514  11.825  12.952
60148W        W21569  12.219  24.625   3.260
60149W        W21570  33.065  11.299  11.508
60150W        W21571  27.499  14.776  13.033
60151W        W21572  15.188  14.669  11.393
60152W        W21573  30.518   6.911   3.707
60153W        W21574   5.917  38.904   0.901
60154W        W21575  34.613  32.579   1.434
60155W        W21576   2.737  17.211  13.321
60156W        W21577   0.868  16.753  12.962
60157W        W21578  38.498   2.434   4.702
60158W        W21579  27.137   2.752  13.339
60159W        W21580  22.729  30.935   1.284
60160W        W21581  17.108  16.134   3.702
60161W        W21582  14.614  34.600  12.573
60162W        W21583  11.811   2.820  12.381
60163W        W21584  24.598   1.760  11.000
60164W        W21585  29.146  16.690   2.325
60165W        W21586  24.152  39.387   3.686
60166W        W21587  34.876  16.165   0.849
60167W        W21588  19.687  35.951   4.713
60168W        W21589  25.065  12.304  14.512
60169W        W21590  10.676  41.958  11.519
60170W        W21591  10.245   0.287   4.296
60171W        W21592  37.439  37.447   1.313
60172W        W21593  15.814  40.990   3.676
60173W        W21594  42.930  14.762  14.401
60174W        W21595  14.765   0.449  11.447
60175W        W21596   7.733   2.855   4.677
60176W        W21597  13.787  34.876   4.767
60177W        W21598  36.943  27.452  10.552
60178W        W21599  23.708  40.005   3.309
60179W        W21600  22.201  11.626  12.075
60180W        W21601   4.215   8.673   2.664
60181W        W21602  38.968  24.143   2.879
60182W        W21603  21.557  11.770  14.812
60183W        W21604  44.985  40.828   2.807
60184W        W21605  22.076  23.553  13.346
60185W        W21606  25.984  14.597  14.289
60186W        W21607  38.985   7.876  14.371
60187W        W21608  18.785  22.709   2.213
60188W        W21609   4.211  18.696   4.694
60189W        W21610  37.040  34.615   3.160
60190W        W21611  41.385  18.261  12.939
60191W        W21612  35.019  26.474   2.233
60192W        W21613  37.022  40.897   0.458
60193W        W21614  14.311   0.468   0.248
60194W        W21615  38.946  37.476  14.361
60195W        W21616  12.731   0.321   2.333
60196W        W21617  42.338  31.906   2.245
60197W        W21618  11.777  41.401   2.242
60198W        W21619   9.361  42.902  13.871
60199W        W21620  18.762  29.563  12.438
60200W        W21621  27.978  35.944  14.499
60201W        W21622   4.260   1.806   1.365
60202W        W21623  39.321   6.730  13.924
60203W        W21624  28.186  17.731  13.911
60204W        W21625   7.697  38.425  14.862
60205W        W21626  36.386  41.502   1.257
60206W        W21627  41.372   2.385   3.776
60207W        W21628   0.984  25.184  12.577
60208W        W21629  12.826  14.789  13.436
60209W        W21630  33.124  12.322  14.849
60210W        W21631   6.182  40.382  11.527
60211W        W21632   7.718  19.543  12.056
60212W        W21633  41.492  14.600   0.300
60213W        W21634   4.370   0.470  14.516
60214W        W21635  30.967  30.510  12.576
60215W        W21636  39.954   4.922  12.346
60216W        W21637  42.297  21.537   4.755
60217W        W21638   6.726  35.069   1.798
60218W        W21639  14.140  37.877   2.768
60219W        W21640  39.827  11.162   0.338
60220W        W21641  20.189  25.589  11.977
60221W        W21642  25.638  32.579  12.828
60222W        W21643  17.195  13.235  10.456
60223W        W21644  31.903  29.506  11.596
60224W        W21645  44.417  14.191   4.288
60225W        W21646  17.758  28.070  13.012
60226W        W21647   4.837   7.415  10.911
60227W        W21648  27.578  36.560  10.408
60228W        W21649  43.768  22.194  11.061
60229W        W21650   5.850  20.127  11.052
60230W        W21651  32.070  36.875  10.589
60231W        W21652  22.146  29.019  14.445
60232W        W21653  28.064   1.466   0.384
60233W        W21654   3.305  29.664   0.766
60234W        W21655  41.790   4.802  11.976
60235W        W21656  35.556  31.013  13.040
60236W        W21657  23.731  19.655   4.709
60237W        W21658   0.934   0.418  13.368
60238W        W21659  39.812  14.647   1.375
60239W        W21660  43.838  26.628  12.349
60240W        W21661   7.675  11.674   0.956
60241W        W21662  33.422   3.330   9.490
60242W        W21663   6.835   3.811  13.924
60243W        W21664  14.740  17.652  11.578
60244W        W21665  35.084  41.827  10.976
60245W        W21666  12.842  39.980   4.179
60246W        W21667  42.791  10.336   4.607
60247W        W21668   7.759  20.747   3.151
60248W        W21669  23.112  19.764   4.660
60249W        W21670  14.192  33.103  14.867
60250W        W21671  32.534  43.413  12.377
60251W        W21672  31.971   5.843  13.885
60252W        W21673  13.158  44.885  11.610
60253W        W21674  19.594  13.614   2.308
60254W        W21675  19.125  22.228  12.515
60255W        W21676  43.019  16.076  14.015
60256W        W21677  28.105  10.799   4.715
60257W        W21678   4.352   3.428   0.913
60258W        W21679  43.998  12.241   4.311
60259W        W21680  40.844   5.413   4.270
60260W        W21681  29.435  38.550  12.033
60261W        W21682   9.803   2.765  14.337
60262W        W21683   7.177  25.020   2.787
60263W        W21684  38.374  14.145  13.368
60264W        W21685  13.238  30.006   2.221
60265W        W21686   8.872   1.402  12.530
60266W        W21687   0.923  43.831   1.870
60267W        W21688   0.470  11.639   0.386
60268W        W21689   9.834  22.569   2.260
60269W        W21690  12.730  42.326   1.725
60270W        W21691  12.797  14.113   3.714
60271W        W21692   8.740  32.515   3.236
60272W        W21693  37.405   1.249  14.291
60273W        W21694  31.442  40.458   4.116
60274W        W21695  43.962  20.235   4.297
60275W        W21696  40.458  21.039  12.526
60276W        W21697  17.676   3.288   4.167
60277W        W21698  43.473  26.996  13.548
60278W        W21699  10.238  26.169   4.289
60279W        W21700  42.390  43.798  14.470
60280W        W21701  26.578  21.060   0.909
60281W        W21702  38.526  42.000  11.969
60282W        W21703  13.681   1.307   1.344
60283W        W21704  28.001  35.541   3.153
60284W        W21705  42.963  33.518  10.589
60285W        W21706  38.478  39.838  12.543
60286W        W21707  17.097  38.441   4.723
60287W        W21708  16.079  16.716  14.412
60288W        W21709  12.221  42.810  14.472
60289W        W21710   4.882  33.899   0.376
60290W        W21711  27.668  14.792   2.402
60291W        W21712  39.809  43.951   2.821
60292W        W21713  39.864  21.252   4.325
60293W        W21714  26.668   6.889   2.260
60294W        W21715  24.174  13.197  11.566
60295W        W21716  34.954  25.176  12.050
60296W        W21717  29.666  22.199  11.434
60297W        W21718  43.270  39.388   2.888
60298W        W21719   7.171   3.709  10.603
60299W        W21720   9.168  13.704   2.231
60300W        W21721  11.710  12.612  11.894
60301W        W21722  23.240  26.097   3.269
60302W        W21723  34.063  17.234   3.865
60303W        W21724   4.434  25.617  10.978
60304W        W21725  42.486  24.032   2.809
60305W        W21726  20.244  44.889   2.328
60306W        W21727  44.446  34.933   4.806
60307W        W21728  31.906  23.591   4.777
60308W        W21729  38.381   1.348  14.903
60309W        W21730  32.104   4.401   2.400
60310W        W21731  19.686   5.862   3.206
60311W        W21732  35.455   5.422   4.769
60312W        W21733  23.718  11.247   4.213
60313W        W21734  20.227   5.710  13.004
60314W        W21735  41.038  12.648  10.554
60315W        W21736  32.925  22.048  12.406
60316W        W21737  32.427  11.159   4.242
60317W        W21738  44.316  27.664   3.375
60318W        W21739  42.870   4.810   2.301
60319W        W21740  38.558  31.524   1.219
60320W        W21741  16.096  41.375  14.786
60321W        W21742  16.769  28.515  11.928
60322W        W21743  25.010  17.080   1.803
60323W        W21744  39.332   6.250   2.888
60324W        W21745  35.087  19.675  11.041
60325W        W21746   3.269  28.497   3.363
60326W        W21747  23.021  28.172   2.736
60327W        W21748  23.098   0.842   4.330
60328W        W21749  29.084  37.537  11.446
60329W        W21750  36.016  29.067  13.406
60330W        W21751  25.201  34.614   4.188
60331W        W21752   7.344  11.310  10.576
60332W        W21753  30.009  32.428  12.026
60333W        W21754  40.336   5.382  10.608
60334W        W21755   3.315  32.441   9.658
60335W        W21756   7.233  16.773   1.379
60336W        W21757  15.706  12.853   1.406
60337W        W21758  31.005   6.798  11.055
60338W        W21759  10.151  12.631  14.973
60339W        W21760  31.434   6.779   2.305
60340W        W21761  20.071  29.053   1.751
60341W        W21762   6.906   2.849  12.400
60342W        W21763  22.563  18.745  11.969
60343W        W21764  31.476  13.180  12.922
60344W        W21765   8.362  29.453   3.808
60345W        W21766   1.935  10.698   3.685
60346W        W21767   9.168  16.183   4.643
60347W        W21768  18.788   3.855  11.592
60348W        W21769  41.917   6.263  12.475
60349W        W21770  41.928  35.041  13.793
60350W        W21771  13.304  13.114   2.813
60351W        W21772  10.728   8.225  14.430
60352W        W21773   1.344  17.768   4.199
60353W        W21774   7.680   8.816   5.303
60354W        W21775   6.199   1.884   4.727
60355W        W21776   4.390  16.197  14.896
60356W        W21777  18.165  26.150   4.332
60357W        W21778  26.149  31.081   4.723
60358W        W21779  20.260  18.694  14.400
60359W        W21780  43.010  31.443   0.300
60360W        W21781  33.110  10.717   0.390
60361W        W21782  36.939  38.504   3.301
60362W        W21783  12.154  22.630   3.381
60363W        W21784   8.674  35.108  14.760
60364W        W21785  34.516  29.075   3.646
60365W        W21786  38.008  31.143   4.294
60366W        W21787  44.328  10.201  12.942
60367W        W21788  22.169   4.885  12.961
60368W        W21789   1.974  11.765  14.916
60369W        W21790   7.172  26.565   0.307
60370W        W21791   5.772  18.210   2.704
60371W        W21792  36.937  27.087   4.615
60372W        W21793  44.966  42.452   2.865
60373W        W21794  32.494  21.580   4.679
60374W        W21795  20.068  33.415   9.981
60375W        W21796  15.692  10.187   2.240
60376W        W21797  13.619  22.546  14.766
60377W        W21798   1.311  12.672   0.244
60378W        W21799   9.385  40.982   3.704
60379W        W21800   5.755  39.363   2.382
60380W        W21801  43.510  17.275   1.861
60381W        W21802  29.435   6.726  13.383
60382W        W21803  15.668  12.159  13.460
60383W        W21804   8.714  15.597   0.819
60384W        W21805  36.941   9.328   2.813
60385W        W21806  23.056  21.241  14.843
60386W        W21807  13.204  14.784   0.314
60387W        W21808  40.383  10.162   3.636
60388W        W21809  11.656  41.397  12.992
60389W        W21810  13.186  29.036   1.410
60390W        W21811  43.476  16.756   3.294
60391W        W21812  18.238   9.685   1.427
60392W        W21813  18.623  24.047  10.950
60393W        W21814  10.680  31.523  10.924
60394W        W21815  44.843  30.045   3.286
60395W        W21816  21.092   3.791   0.257
60396W        W21817  30.959  25.569  11.473
60397W        W21818  17.692   7.181   0.247
60398W        W21819  21.750  19.219  14.333
60399W        W21820  23.718   7.397   0.469
60400W        W21821  30.966  15.626   2.778
60401W        W21822   7.230  22.085   1.768
60402W        W21823  23.616  27.589   0.383
60403W        W21824  36.866  33.075   2.815
60404W        W21825   3.799  15.136   1.230
60405W        W21826   3.864  34.439   2.903
60406W        W21827  24.171   0.803  11.878
60407W        W21828  31.907  37.341   3.162
60408W        W21829  17.288  30.628  11.060
60409W        W21830  24.170  33.392  13.992
60410W        W21831  18.696  42.905   0.409
60411W        W21832  10.186  39.888  12.959
60412W        W21833  24.627  13.306  14.970
60413W        W21834   2.863  23.078  14.333
60414W        W21835  11.359  14.733   2.822
60415W        W21836   7.194  36.586  12.401
60416W        W21837  23.994  24.569   0.359
60417W        W21838  24.650   3.756  12.372
60418W        W21839  42.781  32.544  14.465
60419W        W21840  33.498  34.998   5.141
60420W        W21841  29.087  38.528   2.860
60421W        W21842  15.744  17.270   3.192
60422W        W21843  37.360   6.773  11.433
60423W        W21844  28.448  38.005   0.410
60424W        W21845  32.142  30.011   2.672
60425W        W21846  13.623  15.131  11.993
60426W        W21847   2.458  26.461   3.801
60427W        W21848   8.298  17.574  11.911
60428W        W21849  16.244  42.927   2.813
60429W        W21850   4.867  28.556  14.465
60430W        W21851  27.631  37.358  12.995
60431W        W21852  44.816  16.267   0.890
60432W        W21853  39.928  40.820  13.862
60433W        W21854  25.137  13.340  12.976
60434W        W21855  44.825  11.783  11.402
60435W        W21856  22.553  38.973   1.231
60436W        W21857  26.468  28.511  13.410
60437W        W21858  25.992  43.908   3.712
60438W        W21859  44.376   2.895  13.332
60439W        W21860   7.343  31.606   2.378
60440W        W21861  21.093  32.540  14.784
60441W        W21862   8.665   9.322  12.890
60442W        W21863  23.675  39.887   2.790
60443W        W21864  13.837  39.466   1.249
60444W        W21865  32.565   0.403   4.132
60445W        W21866  21.070  27.492   0.249
60446W        W21867  26.187  12.754   3.188
60447W        W21868  17.619   8.328   1.242
60448W        W21869  22.155  34.951   4.835
60449W        W21870  18.639  13.839   2.689
60450W        W21871   8.243   2.440  12.354
60451W        W21872  17.136  30.509  11.482
60452W        W21873  16.170  44.990  10.510
60453W        W21874   8.811  30.436   3.379
60454W        W21875   8.788  31.975   2.237
60455W        W21876  21.733   2.756  14.773
60456W        W21877  15.129   1.411  10.916
60457W        W21878  28.621  33.994   2.187
60458W        W21879  44.427  35.965  11.923
60459W        W21880   5.895  36.025   2.816
60460W        W21881  29.663  10.688  10.946
60461W        W21882  42.450  10.813   4.146
60462W        W21883   8.262   1.940   0.330
60463W        W21884  25.996  37.511   1.213
60464W        W21885   6.825  38.021   1.775
60465W        W21886   5.906  13.328   4.730
60466W        W21887  42.918  11.201  13.361
60467W        W21888  34.969  20.674  11.085
60468W        W21889  43.902  42.495  13.378
60469W        W21890   9.334   6.295  10.909
60470W        W21891  38.541  10.681   1.719
60471W        W21892  10.759   1.472  14.339
60472W        W21893   9.286   3.853  13.396
60473W        W21894  39.440   5.719   4.353
60474W        W21895  40.829  27.466   2.373
60475W        W21896  26.201  31.576   0.730
60476W        W21897  30.653  37.479  11.498
60477W        W21898  20.668  43.380   4.785
60478W        W21899  33.384  22.612   3.658
60479W        W21900  31.945   7.900   0.406
60480W        W21901  20.679  20.231   0.262
60481W        W21902  34.978  34.912  10.472
60482W        W21903  21.239  44.366  13.420
60483W        W21904  41.938  18.675  13.421
60484W        W21905  11.755  21.674   0.815
60485W        W21906  30.978  34.586  10.491
60486W        W21907  12.157  40.336  14.791
60487W        W21908   3.367  11.231   0.926
60488W        W21909   3.901  32.460   1.879
60489W        W21910  27.994  10.826   1.781
60490W        W21911   6.276  17.182   0.910
60491W        W21912   6.253  33.941  14.497
60492W        W21913   2.949  40.007   2.754
60493W        W21914   3.888   9.864   2.723
60494W        W21915   5.318  32.584   1.785
60495W        W21916  11.336   2.307   3.861
60496W        W21917  38.879  41.964  11.128
60497W        W21918  27.062  12.693  14.316
60498W        W21919  11.716  22.050   0.375
60499W        W21920  10.156  12.203   3.330
60500W        W21921   0.486  26.513  11.950
60501W        W21922  18.241  15.738   2.278
60502W        W21923  24.600  38.961  11.918
60503W        W21924   6.220  21.071   1.848
60504W        W21925   5.383  16.615  14.837
60505W        W21926  31.126  11.823  12.989
60506W        W21927  31.641   9.240  12.572
60507W        W21928  37.976   6.869   0.879
60508W        W21929   7.808  23.734   3.149
60509W        W21930  20.715  27.120  13.915
60510W        W21931   5.300  40.415   2.357
60511W        W21932  29.556  11.862   3.745
60512W        W21933  40.829  16.310   2.751
60513W        W21934  20.168  22.508   3.826
60514W        W21935  21.248  20.539   3.341
60515W        W21936   6.278  30.508   2.805
60516W        W21937   8.855  13.664  11.394
60517W        W21938  30.452  32.432  12.829
60518W        W21939  13.605  21.730  12.517
60519W        W21940  19.166  32.526   2.401
60520W        W21941  26.010   3.450  10.930
60521W        W21942  25.702   7.259  14.915
60522W        W21943  35.879  23.078  11.113
60523W        W21944   3.258  13.253   0.882
60524W        W21945  10.750  44.770  14.494
60525W        W21946  38.926   1.752  13.049
60526W        W21947  32.997  10.738   1.302
60527W        W21948  26.478  15.181   3.714
60528W        W21949   8.238   3.839   3.646
60529W        W21950  38.455  13.261  10.417
60530W        W21951  13.144  20.760   2.747
60531W        W21952  22.620  23.134  11.125
60532W        W21953  41.494   7.673   4.245
60533W        W21954  23.126  22.629  11.499
60534W        W21955  11.716  26.965   3.653
60535W        W21956  37.865  36.065   2.203
60536W        W21957   9.659  22.095   2.273
60537W        W21958  29.081   2.727   1.272
60538W        W21959  32.498  24.196  12.052
60539W        W21960  27.454  40.853   2.395
60540W        W21961  38.973  24.513   2.410
60541W        W21962  22.648   7.683   4.660
60542W        W21963  17.080  42.360  13.489
60543W        W21964   8.728  20.240   0.930
60544W        W21965  19.758  25.491   1.424
60545W        W21966  38.073  40.969   4.741
60546W        W21967  41.919  22.535  13.427
60547W        W21968   3.380  22.124   9.955
60548W        W21969  34.929  41.904   1.913
60549W        W21970   9.857  21.636  14.025
60550W        W21971   3.284   5.236   2.737
60551W        W21972  12.170  32.467   5.588
60552W        W21973  29.485  41.820  11.587
60553W        W21974  25.090  25.596  10.445
60554W        W21975   8.400  31.587   4.641
60555W        W21976   7.267   8.786  11.517
60556W        W21977  12.855  19.559   1.714
60557W        W21978  29.485  15.663  11.961
60558W        W21979  28.476  27.061   1.276
60559W        W21980  40.908  36.011  14.812
60560W        W21981  17.134  24.485  13.331
60561W        W21982  18.244  24.489  12.950
60562W        W21983  40.891  15.325  14.498
60563W        W21984  37.918  42.308   3.282
60564W        W21985  10.772   0.384   2.838
60565W        W21986   7.382  23.697   1.374
60566W        W21987  13.836  28.930   0.941
60567W        W21988  21.666   7.297   0.800
60568W        W21989   9.363  31.988   0.825
60569W        W21990  38.444  14.312  11.441
60570W        W21991  17.099  41.787  10.986
60571W        W21992  37.376  15.243   9.457
60572W        W21993  27.181  28.582  12.558
60573W        W21994  28.958   9.751   1.696
60574W        W21995   1.352   4.395  13.053
60575W        W21996   1.743   5.698  12.432
60576W        W21997  41.399  34.887   0.932
60577W        W21998  44.890  30.510   4.264
60578W        W21999  28.435   7.748   1.423
60579W        W22000  41.037  30.443  12.849
60580W        W22001  12.165  33.102  13.050
60581W        W22002   7.701  28.507  14.411
60582W        W22003   5.283   7.803   4.248
60583W        W22004  13.300   6.327   1.247
60584W        W22005   5.309   5.794  12.850
60585W        W22006   7.183   6.228   0.903
60586W        W22007  30.481  29.599  12.502
60587W        W22008   7.344   3.381  14.347
60588W        W22009  26.470   6.383   0.838
60589W        W22010  21.626   2.830   3.674
60590W        W22011  14.827   4.359   2.725
60591W        W22012  38.968  33.421   5.309
60592W        W22013  25.710  22.544   1.865
60593W        W22014  34.401  32.116  11.460
60594W        W22015  37.466  22.997   1.707
60595W        W22016  38.049  15.691   2.741
60596W        W22017  39.958  27.110  14.945
60597W        W22018  23.653  44.294  11.061
60598W        W22019  21.679   1.796   4.189
60599W        W22020   8.337  33.404  13.875
60600W        W22021  13.267  37.519   4.262
60601W        W22022  11.365  37.531  10.515
60602W        W22023   6.286  40.797   0.476
60603W        W22024   9.680  35.461  12.502
60604W        W22025  28.986  42.790  10.152
60605W        W22026  11.868  37.574   4.760
60606W        W22027  37.003  40.923   1.723
60607W        W22028  22.641  27.667  11.121
60608W        W22029  40.027  11.299  12.048
60609W        W22030   3.390  12.120  14.881
60610W        W22031   6.380   0.293  13.497
60611W        W22032  20.169  17.096  11.002
60612W        W22033  27.958  18.243   2.714
60613W        W22034  30.512  11.691   2.854
60614W        W22035  13.181  11.864  12.370
60615W        W22036  14.668   6.793   0.810
60616W        W22037  33.496   9.816  12.030
60617W        W22038  44.305  18.772   1.375
60618W        W22039  29.475  41.955   2.301
60619W        W22040  41.401  12.188  11.600
60620W        W22041  37.943  35.011   2.241
60621W        W22042  24.085  20.089  13.366
60622W        W22043  15.243  31.987   1.918
60623W        W22044   3.759  33.999  14.803
60624W        W22045  33.615  40.546   4.643
60625W        W22046  26.530  18.646  10.616
60626W        W22047   4.865  22.598   3.152
60627W        W22048   9.796  35.459  11.033
60628W        W22049  44.485  30.044   0.479
60629W        W22050  24.539   4.443  12.387
60630W        W22051  21.019  37.497  13.815
60631W        W22052  33.497   4.874  10.568
60632W        W22053  35.906  41.982   4.168
60633W        W22054   0.919  36.066   0.379
60634W        W22055  13.802   0.380   3.670
60635W        W22056  27.492  15.261   4.300
60636W        W22057  30.497  38.871   0.447
60637W        W22058  35.463  10.193   0.284
60638W        W22059   1.858  34.887   0.263
60639W        W22060  26.060   6.251  13.914
60640W        W22061  22.053  23.499  11.431
60641W        W22062  23.019  28.602  11.469
60642W        W22063  14.704  13.623   1.228
60643W        W22064  30.570  24.629   0.373
60644W        W22065  23.492  37.876  11.012
60645W        W22066  35.493   8.834   0.745
60646W        W22067   1.935  12.731   1.268
60647W        W22068  43.514  44.885  10.899
60648W        W22069  10.212   7.871  13.006
60649W        W22070  11.659  15.631   4.795
60650W        W22071  25.112  36.929  12.834
60651W        W22072   2.472   7.383   0.369
60652W        W22073  22.191  15.120  11.475
60653W        W22074  27.096   2.429  12.554
60654W        W22075   9.736  18.545  12.375
60655W        W22076  43.469   5.435  12.078
60656W        W22077  29.615  18.606  13.993
60657W        W22078  34.107  38.851  10.429
60658W        W22079   0.342   6.231  14.285
60659W        W22080  23.190  39.428   4.736
60660W        W22081  23.599  42.860  11.597
60661W        W22082  10.680  19.137   2.321
60662W        W22083  25.053  17.113   5.163
60663W        W22084  25.987  37.902   2.793
60664W        W22085   0.950  27.525   1.883
60665W        W22086   7.865   8.350  14.513
60666W        W22087  18.670  14.767  11.590
60667W        W22088   1.279  26.104  13.988
60668W        W22089  28.968   2.341  12.560
60669W        W22090   1.277   0.913  10.509
60670W        W22091  35.367  11.352  14.822
60671W        W22092  35.022   3.344   2.376
60672W        W22093  18.618  39.008  13.850
60673W        W22094  35.394  28.681   1.891
60674W        W22095  42.795  22.511  12.848
60675W        W22096   3.415  36.079  11.957
60676W        W22097  37.984  43.765   0.843
60677W        W22098   3.302  39.376  12.914
60678W        W22099   3.907  33.617   4.206
60679W        W22100  40.320  40.416   4.238
60680W        W22101  29.118  22.591  14.835
60681W        W22102   1.323  15.615   2.256
60682W        W22103   2.796  19.160   4.312
60683W        W22104   1.737  17.062  11.078
60684W        W22105  41.996  16.125  12.354
60685W        W22106  41.001  44.419   2.237
60686W        W22107  14.181   2.868   0.790
60687W        W22108  39.837  18.271  14.507
60688W        W22109  42.946  10.287  13.875
60689W        W22110   9.753  21.567   3.767
60690W        W22111  31.906  18.225  13.017
60691W        W22112  15.250  28.975  14.460
60692W        W22113  30.087  42.307  13.369
60693W        W22114  43.315  14.681   2.213
60694W        W22115  13.166  18.263   4.685
60695W        W22116  38.979   4.840   5.223
60696W        W22117   9.753  43.382  12.406
60697W        W22118  32.982   6.731  12.447
60698W        W22119   9.782   0.366  12.934
60699W        W22120   3.849   6.888   1.759
60700W        W22121  35.997  34.520   0.440
60701W        W22122  21.677  23.646   3.315
60702W        W22123  13.638  30.659   9.447
60703W        W22124  39.892  14.188  14.343
60704W        W22125   0.860  14.298  13.798
60705W        W22126  18.089  15.283   1.342
60706W        W22127  12.750  44.457  14.282
60707W        W22128   8.726  12.827  14.978
60708W        W22129   2.782  41.408  12.909
60709W        W22130  28.148   2.858  11.075
60710W        W22131  42.382  21.144  10.523
60711W        W22132  31.912  11.339  11.470
60712W        W22133  11.274   0.770   2.718
60713W        W22134  40.828   7.795  13.916
60714W        W22135  40.538  30.122  12.367
60715W        W22136  10.727   8.249  11.453
60716W        W22137  34.489  29.940  13.420
60717W        W22138  33.604  10.795  11.096
60718W        W22139  31.937  42.500   2.406
60719W        W22140   3.219  43.973   3.289
60720W        W22141  11.812  34.943   3.714
60721W        W22142  20.228  36.447   2.698
60722W        W22143  28.658   6.827  13.858
60723W        W22144   3.217  26.043  11.912
60724W        W22145  17.243  19.273   3.747
60725W        W22146   7.672  19.046   3.641
60726W        W22147  32.398  44.835  12.963
60727W        W22148  42.427  43.510  14.508
60728W        W22149  29.080  38.935   4.168
60729W        W22150  42.369   7.665   0.785
60730W        W22151  35.907  35.495  11.054
60731W        W22152   7.300  33.568  10.499
60732W        W22153  14.185  35.993  12.388
60733W        W22154  18.203  43.362  14.975
60734W        W22155   5.366  19.666   0.410
60735W        W22156   7.397  26.585   4.761
60736W        W22157  27.546  44.397  11.860
60737W        W22158   8.300  15.613   4.114
60738W        W22159  37.461  11.131  12.861
60739W        W22160  38.568  21.069   3.338
60740W        W22161   7.745  19.576  10.919
60741W        W22162   5.299  19.091  11.467
60742W        W22163  42.831  12.307   2.676
60743W        W22164  26.600  15.615   4.199
60744W        W22165  42.013   4.391  11.446
60745W        W22166  23.011   9.842  10.995
60746W        W22167  22.193  33.569  14.855
60747W        W22168  21.593  22.656   4.347
60748W        W22169  27.491   3.895  14.927
60749W        W22170  29.943  13.825   0.845
60750W        W22171  43.466   7.235   1.704
60751W        W22172   2.865  30.139   3.825
60752W        W22173  42.802  28.069  13.487
60753W        W22174   3.229  17.706  12.875
60754W        W22175  16.732  12.227   3.639
60755W        W22176  21.615   3.388  10.121
60756W        W22177   8.297  44.288   0.290
60757W        W22178  35.896  19.591  11.543
60758W        W22179  40.858  28.657  12.579
60759W        W22180  20.647   6.824   4.228
60760W        W22181   9.888  35.384  12.849
60761W        W22182  15.275   8.352   2.281
60762W        W22183  37.486  20.535   3.687
60763W        W22184  26.481  16.722   4.653
60764W        W22185  14.750   5.846  13.538
60765W        W22186   9.811   3.299   2.184
60766W        W22187  12.174  18.243  13.995
60767W        W22188  38.923  43.880   4.287
60768W        W22189  38.873  31.151   1.806
60769W        W22190   0.292  30.112   3.671
60770W        W22191  42.368  26.080   0.366
60771W        W22192  44.320  40.898  12.373
60772W        W22193   0.345  28.106  12.855
60773W        W22194  14.635  23.500   0.809
60774W        W22195  34.503  44.000   1.697
60775W        W22196  21.663   0.819   4.256
60776W        W22197  10.681  41.003   4.795
60777W        W22198  14.727  35.052  12.959
60778W        W22199  42.439  38.442   2.230
60779W        W22200  26.986  28.556  13.030
60780W        W22201  31.538  24.656   3.728
60781W        W22202  36.474   6.252  12.868
60782W        W22203  42.875  17.630  14.902
60783W        W22204  16.575  16.165  11.427
60784W        W22205  30.554  15.588   2.417
60785W        W22206  31.972  21.642  12.846
60786W        W22207  28.935  31.505  14.350
60787W        W22208  38.417   3.347   2.687
60788W        W22209  31.147  15.810  12.516
60789W        W22210  28.487  32.533  11.548
60790W        W22211  22.154   3.334  11.095
60791W        W22212  37.559  24.516   2.335
60792W        W22213  36.408   1.440   3.318
60793W        W22214  14.723  38.940   3.154
60794W        W22215  15.736  39.388  14.467
60795W        W22216  32.481  23.059  11.974
60796W        W22217   9.218  28.047   0.893
60797W        W22218  31.917   7.715  10.615
60798W        W22219   1.806  14.246   1.835
60799W        W22220   7.702   6.416  10.434
60800W        W22221  30.106  27.096   1.303
60801W        W22222  29.626   1.875  10.418
60802W        W22223  35.917   4.749  14.943
60803W        W22224   0.486  21.049  13.399
60804W        W22225  38.487  34.996   1.404
60805W        W22226   5.904  36.540  12.567
60806W        W22227   9.339  41.943   9.530
60807W        W22228   3.869  31.424  12.844
60808W        W22229  23.095  23.029   1.921
60809W        W22230  44.880  44.373   3.695
60810W        W22231  44.397  34.500   3.184
60811W        W22232  37.496  14.212   5.239
60812W        W22233  38.340   6.214   4.194
60813W        W22234  31.010  10.800  11.968
60814W        W22235  42.325  36.922   4.776
60815W        W22236   1.923  25.032  13.354
60816W        W22237  41.829  39.984   3.728
60817W        W22238  27.591   7.705   4.258
60818W        W22239  22.582  22.502  14.918
60819W        W22240   0.777  14.141   4.710
60820W        W22241   5.284  22.105  14.356
60821W        W22242  10.837   4.387  14.992
60822W        W22243  36.978  25.145   3.843
60823W        W22244  29.959  16.635   2.865
60824W        W22245   1.414  27.058   1.828
60825W        W22246  27.026  31.530   0.769
60826W        W22247  27.646  42.367   4.165
60827W        W22248  38.343  23.723   4.742
60828W        W22249  25.192   7.304  14.382
60829W        W22250  43.826  31.010  10.494
60830W        W22251  34.567  38.871   1.346
60831W        W22252  23.996  17.778   2.180
60832W        W22253  42.334  17.103   4.228
60833W        W22254  24.222  17.283   2.231
60834W        W22255   9.849  11.687  10.440
60835W        W22256  23.991   1.786  11.929
60836W        W22257  38.491  42.481  14.496
60837W        W22258   0.832  27.447  10.956
60838W        W22259  43.874  19.055  13.858
60839W        W22260  40.369  43.359   2.811
60840W        W22261  13.234  22.605   5.163
60841W        W22262   2.412   4.837   0.379
60842W        W22263   3.285  36.079   3.698
60843W        W22264  14.610   6.872   2.853
60844W        W22265  14.787  21.230  12.076
60845W        W22266  32.620   9.154  14.333
60846W        W22267  40.306   8.372   0.876
60847W        W22268   6.698  39.514  14.781
60848W        W22269  19.161   2.236   0.923
60849W        W22270   6.184  24.500  11.879
60850W        W22271  37.449  14.239   1.705
60851W        W22272  12.156  12.611   0.263
60852W        W22273  22.172  29.129  11.938
60853W        W22274  12.212  44.965   0.249
60854W        W22275  17.645  40.546  11.534
60855W        W22276  29.002  38.330   0.798
60856W        W22277  23.133  22.157   0.265
60857W        W22278  22.596  30.012  14.794
60858W        W22279   4.795  25.554  12.363
60859W        W22280  18.775  34.961  14.513
60860W        W22281   8.659   3.424  12.360
60861W        W22282  23.605  36.047   2.898
60862W        W22283  11.178  10.801  10.644
60863W        W22284  38.074   6.706   3.307
60864W        W22285  11.754   5.301   2.825
60865W        W22286  13.238  18.206  11.087
60866W        W22287  20.766  12.128   1.781
60867W        W22288  15.114  37.560   4.690
60868W        W22289  38.863  42.819   0.853
60869W        W22290  29.552   4.824  13.992
60870W        W22291  30.992  29.563  12.508
60871W        W22292   8.320   2.890   0.311
60872W        W22293   1.757  28.575   3.331
60873W        W22294  18.642   6.767  11.118
60874W        W22295   0.944  38.491  11.108
60875W        W22296  18.294  33.029   3.660
60876W        W22297  11.676   2.960   3.304
60877W        W22298  29.603  16.582   2.191
60878W        W22299   9.344  11.641   1.743
60879W        W22300   7.174  26.618  11.103
60880W        W22301   7.355   1.794   2.723
60881W        W22302   3.236  25.469   3.244
60882W        W22303  30.988  11.715   2.243
60883W        W22304  14.230   1.352   1.781
60884W        W22305   7.368  12.187  12.003
60885W        W22306  39.915  35.510   1.806
60886W        W22307  26.645  14.234   1.814
60887W        W22308   7.328  34.580  14.430
60888W        W22309  22.095  17.150   4.241
60889W        W22310  37.052   7.277  13.976
60890W        W22311   9.862  29.476   2.364
60891W        W22312  25.006  43.014  14.319
60892W        W22313   7.384  29.473   2.865
60893W        W22314  24.535  34.531  12.841
60894W        W22315  25.540   7.797  13.899
60895W        W22316  37.408  20.105   2.738
60896W        W22317  37.075  44.780   1.719
60897W        W22318   1.287  22.027  11.904
60898W        W22319  44.435  15.702  11.876
60899W        W22320  17.084  14.654   1.920
60900W        W22321  10.711  25.531  11.497
60901W        W22322  28.973   1.349   4.818
60902W        W22323  44.929  16.777  12.024
60903W        W22324   9.759  38.497   4.302
60904W        W22325   3.729   3.956  12.546
60905W        W22326  11.231   6.224   1.719
60906W        W22327  21.241  20.532   2.755
60907W        W22328  21.034  21.183  13.803
60908W        W22329  26.690  26.490   2.836
60909W        W22330  34.473  11.857   0.937
60910W        W22331  20.688  31.916   4.782
60911W        W22332  33.908  29.047  12.846
60912W        W22333  31.426  37.994  10.428
60913W        W22334  29.657  39.966  10.141
60914W        W22335  20.755  32.433   3.635
60915W        W22336  31.120   3.318  13.841
60916W        W22337  25.694  24.690   0.453
60917W        W22338  31.466  28.070  11.932
60918W        W22339  17.137  28.472  11.565
60919W        W22340  43.277   7.903   4.119
60920W        W22341  38.950   4.377   3.364
60921W        W22342  38.537  26.474  13.481
60922W        W22343  36.976  43.297   2.831
60923W        W22344  37.566  22.249  14.850
60924W        W22345   5.432  44.473  11.421
60925W        W22346  25.500  36.571   2.820
60926W        W22347   3.780  19.045   4.224
60927W        W22348  25.178  40.370  11.529
60928W        W22349  23.160  39.892  11.494
60929W        W22350  21.124  22.146  10.473
60930W        W22351  31.442  16.153   3.642
60931W        W22352  42.023  33.883  10.937
60932W        W22353  15.784  35.468  14.451
60933W        W22354  19.684  27.623   0.820
60934W        W22355  41.980  11.648   3.147
60935W        W22356   3.277  14.721   4.618
60936W        W22357  36.043  28.472  11.096
60937W        W22358   0.421  35.078   3.306
60938W        W22359   0.770  28.958  11.472
60939W        W22360   8.253  29.934   0.376
60940W        W22361   2.372  30.139   0.852
60941W        W22362  16.687  42.926   0.861
60942W        W22363  17.228  31.127  11.584
60943W        W22364   3.816  29.616  14.440
60944W        W22365   6.727  21.735  11.913
60945W        W22366  18.742  34.492  11.903
60946W        W22367  27.468  35.859   0.459
60947W        W22368   5.786   4.769  11.083
60948W        W22369   7.881  17.657   4.292
60949W        W22370  41.342  34.865  11.104
60950W        W22371  18.248  33.891   0.777
60951W        W22372  32.516   1.417   5.272
60952W        W22373  32.539  21.178   1.860
60953W        W22374  32.505  27.195  14.293
60954W        W22375  43.783   7.173  10.931
60955W        W22376  44.989  39.317  14.374
60956W        W22377   8.194  25.670  12.508
60957W        W22378  14.195  15.803   3.195
60958W        W22379  33.527  40.384   1.783
60959W        W22380  44.959  43.892  13.800
60960W        W22381  35.877  31.082  11.579
60961W        W22382  29.637   1.390  13.030
60962W        W22383  21.238  26.161   0.391
60963W        W22384  30.017  40.956  10.907
60964W        W22385  28.478  10.156   4.834
60965W        W22386  34.896  43.323   2.882
60966W        W22387   6.371  27.542  12.835
60967W        W22388   1.817  40.845   0.483
60968W        W22389  24.671   5.911  14.840
60969W        W22390  24.668  16.784   1.434
60970W        W22391  40.952  26.668  10.981
60971W        W22392   7.389   3.715  11.086
60972W        W22393  31.504  39.363   1.933
60973W        W22394  42.442  28.009   2.188
60974W        W22395   6.377  34.569   1.852
60975W        W22396  27.986  19.205  12.342
60976W        W22397  19.633   3.342  11.884
60977W        W22398  35.441  34.929  12.509
60978W        W22399   1.944  30.503   1.325
60979W        W22400  33.445   6.426   5.111
60980W        W22401  14.770  21.243   3.736
60981W        W22402   3.940  20.047   2.243
60982W        W22403  37.929  36.047  14.913
60983W        W22404  23.584  12.346   4.754
60984W        W22405   0.789  35.931   4.299
60985W        W22406  40.880  32.104   4.649
60986W        W22407  31.123  28.065   2.405
60987W        W22408  35.593  36.882  14.021
60988W        W22409  17.256  32.501   2.757
60989W        W22410  44.300   1.280  13.336
60990W        W22411   5.230  11.337   4.321
60991W        W22412  22.074  33.475   0.428
60992W        W22413  33.567   0.261  11.445
60993W        W22414   5.417   1.908  13.848
60994W        W22415  44.983  32.886  13.903
60995W        W22416  29.514  15.626  10.584
60996W        W22417  23.209  33.388   0.791
60997W        W22418  38.977  39.809   0.363
60998W        W22419   8.665  41.354  14.971
60999W        W22420  39.329  41.422   4.242
61000W        W22421  22.545   8.392   0.255
61001W        W22422  26.576  33.587  11.514
61002W        W22423  24.500  17.290   2.786
61003W        W22424   7.210  37.397  14.389
61004W        W22425   1.240   2.280  12.374
61005W        W22426   0.789  44.903   3.295
61006W        W22427   0.847   9.352  14.365
61007W        W22428   4.743  31.067  13.945
61008W        W22429  33.096  33.519  11.046
61009W        W22430  11.195   1.875  11.590
61010W        W22431  34.389   5.411  14.869
61011W        W22432  40.924  40.348   2.315
61012W        W22433   5.242  44.282   2.859
61013W        W22434   4.884  41.400   0.407
61014W        W22435  20.224  36.022   9.924
61015W        W22436  11.325  12.807   1.933
61016W        W22437  41.884  44.496   1.727
61017W        W22438   5.252  22.622   5.232
61018W        W22439  33.097  16.692  11.875
61019W        W22440  22.998  41.856  13.540
61020W        W22441  23.987  22.031  13.965
61021W        W22442  24.537   8.280   4.635
61022W        W22443  16.596  28.160  11.058
61023W        W22444   7.314   1.437   1.701
61024W        W22445  34.877   1.902  11.418
61025W        W22446  40.918  36.881  11.970
61026W        W22447  31.922   8.833  12.825
61027W        W22448  27.470  18.741  14.867
61028W        W22449   3.835   7.205  12.452
61029W        W22450  15.242  22.067  14.815
61030W        W22451  33.103  44.357   4.339
61031W        W22452  27.142  20.732   3.637
61032W        W22453  35.533  43.022   0.482
61033W        W22454   5.303  34.607   2.831
61034W        W22455  10.225  22.161  12.067
61035W        W22456  17.302   8.838  12.522
61036W        W22457   8.771   8.172   3.234
61037W        W22458  23.563  17.153   3.708
61038W        W22459  37.873  43.941  12.347
61039W        W22460  36.858  24.532   0.856
61040W        W22461  34.089  13.659   1.436
61041W        W22462  35.025  17.290   1.320
61042W        W22463  40.304  39.452  10.553
61043W        W22464  15.750  25.554   0.753
61044W        W22465   2.819  36.484   3.788
61045W        W22466  42.348  40.457   3.800
61046W        W22467   8.677  26.019  13.358
61047W        W22468  36.086   5.839  14.372
61048W        W22469  17.598   4.227   4.659
61049W        W22470   8.188  44.397  10.934
61050W        W22471   7.275  29.094   0.442
61051W        W22472   1.279  25.036  11.026
61052W        W22473  27.510  15.250  14.312
61053W        W22474   2.438   8.235   2.833
61054W        W22475  15.660  14.654   2.355
61055W        W22476  39.849  32.072  14.288
61056W        W22477  30.462  20.034  12.877
61057W        W22478   1.401  38.413   4.334
61058W        W22479  39.821  36.497   1.699
61059W        W22480   8.695  38.498  11.479
61060W        W22481  17.727  28.510   3.216
61061W        W22482  16.088  24.686  12.890
61062W        W22483  12.743  19.560   4.783
61063W        W22484   5.406   6.193  14.950
61064W        W22485  40.832  17.756   3.342
61065W        W22486  39.517  32.447  12.557
61066W        W22487  44.909  21.252   3.693
61067W        W22488  15.598  17.733  12.831
61068W        W22489  15.324  22.636   0.857
61069W        W22490  22.653  20.554  14.493
61070W        W22491  41.019  12.332  12.018
61071W        W22492  33.558  34.397   9.934
61072W        W22493  43.375  38.978   3.704
61073W        W22494  42.379   3.939   1.417
61074W        W22495  42.964   5.200  14.454
61075W        W22496  31.591  23.694   4.628
61076W        W22497  20.729  22.107   3.814
61077W        W22498  15.717  23.687   0.317
61078W        W22499  40.416  24.122  13.050
61079W        W22500  36.364  34.896   3.843
61080W        W22501  32.417   4.934   3.808
61081W        W22502  39.923  31.028   4.224
61082W        W22503  23.187  11.215   0.317
61083W        W22504  30.602  10.142  11.941
61084W        W22505  30.090   7.229   3.717
61085W        W22506   2.243   2.422   3.689
61086W        W22507  24.993   1.879   0.415
61087W        W22508  43.020  18.600   2.236
61088W        W22509  21.071   4.388   4.746
61089W        W22510  40.505  33.454   5.113
61090W        W22511   0.848  19.139   4.719
61091W        W22512  27.488  17.573  14.012
61092W        W22513   9.846  26.582   1.840
61093W        W22514  11.805   7.212   4.784
61094W        W22515   3.797  44.845   0.366
61095W        W22516  22.028  42.316   4.705
61096W        W22517  44.269  23.064  14.021
61097W        W22518  34.581   0.424   9.585
61098W        W22519  32.115   6.797  14.300
61099W        W22520  26.561   4.880   0.286
61100W        W22521  18.286  21.164   2.814
61101W        W22522  39.430  20.585  11.472
61102W        W22523  17.621  38.490   1.753
61103W        W22524  13.231  39.959  13.522
61104W        W22525   9.350  24.544   0.333
61105W        W22526  10.739  33.062  13.834
61106W        W22527  32.444  40.359  13.808
61107W        W22528  19.619  20.747  12.426
61108W        W22529  40.358  34.978   3.351
61109W        W22530  40.967   9.845  11.863
61110W        W22531  41.950   9.693   0.949
61111W        W22532  17.159  27.977  11.472
61112W        W22533   7.269  12.223   1.800
61113W        W22534  25.110  13.336   1.435
61114W        W22535  20.192  40.438  14.884
61115W        W22536  31.007  10.800  14.900
61116W        W22537  32.963  25.569   4.665
61117W        W22538  41.403  22.573   4.281
61118W        W22539   4.931  13.824   1.802
61119W        W22540  41.369   7.832   2.670
61120W        W22541   9.371  23.067  13.405
61121W        W22542  18.593  17.563   2.320
61122W        W22543  30.506  36.481   2.725
61123W        W22544   3.290   5.729   2.802
61124W        W22545  10.845  19.572  14.316
61125W        W22546  36.464  42.520  12.050
61126W        W22547  34.398   3.806  13.469
61127W        W22548  10.189  30.423   1.709
61128W        W22549  20.148  36.052   3.815
61129W        W22550  35.060  18.664   4.684
61130W        W22551  36.936   9.330   2.341
61131W        W22552  14.242  36.471  12.425
61132W        W22553  27.629  38.928   0.793
61133W        W22554  23.122   9.314   3.361
61134W        W22555  28.985  36.066   0.264
61135W        W22556  14.800  37.489   1.244
61136W        W22557  38.976   2.885   4.735
61137W        W22558   2.843  37.845  11.909
61138W        W22559  17.692  36.507  11.922
61139W        W22560  31.026  14.112   5.714
61140W        W22561   3.911  13.726  12.939
61141W        W22562  28.539   9.359  14.399
61142W        W22563   9.338   1.879  14.307
61143W        W22564  18.054  11.220  10.504
61144W        W22565  23.496  32.430   2.233
61145W        W22566   3.903  37.430   1.857
61146W        W22567  18.149   1.793  11.092
61147W        W22568  13.649  24.991   2.399
61148W        W22569  23.567  33.400   0.375
61149W        W22570  17.727  17.140   3.819
61150W        W22571   8.346  39.455  11.973
61151W        W22572   6.790  44.492  14.844
61152W        W22573  35.577  20.104   1.293
61153W        W22574  17.126   1.844  13.534
61154W        W22575   3.262   1.318   2.316
61155W        W22576   6.204   3.933   3.740
61156W        W22577   4.362  11.726   4.666
61157W        W22578  37.426  39.531   1.889
61158W        W22579  25.700   6.332  11.486
61159W        W22580   0.491  13.778  11.057
61160W        W22581  24.988  19.554  11.476
61161W        W22582  28.617   2.781   1.730
61162W        W22583  24.204  15.153   3.171
61163W        W22584  33.563  18.223  10.565
61164W        W22585  25.561   9.212   4.649
61165W        W22586  16.754  13.609   2.190
61166W        W22587  16.129  13.744   2.388
61167W        W22588  22.606  32.592   0.843
61168W        W22589  12.689  39.911  12.379
61169W        W22590  20.247   1.735  11.012
61170W        W22591  30.086  17.261   1.811
61171W        W22592   6.260  20.242  14.448
61172W        W22593  17.188  10.212  12.847
61173W        W22594   1.300   4.898  12.918
61174W        W22595  33.574  44.446   4.714
61175W        W22596  22.553   0.876   5.139
61176W        W22597   8.266  15.718   1.215
61177W        W22598  22.026  32.568   3.733
61178W        W22599  30.042  15.738  12.559
61179W        W22600  13.312  30.141  11.883
61180W        W22601  19.595  21.697  13.824
61181W        W22602  43.944   5.348  12.053
61182W        W22603  41.374  15.628   1.907
61183W        W22604  38.398  26.684  12.456
61184W        W22605  29.601   1.789   1.225
61185W        W22606  16.073  44.330  10.986
61186W        W22607  11.733  40.924  14.891
61187W        W22608  17.793  31.538   5.683
61188W        W22609  37.029  32.955  11.572
61189W        W22610  31.988   6.688  11.033
61190W        W22611  24.196  18.658   1.294
61191W        W22612  21.518  38.383  12.868
61192W        W22613   7.410  27.098   3.806
61193W        W22614  29.990  38.056  11.512
61194W        W22615  17.236  23.709  12.567
61195W        W22616  25.500  42.306   0.744
61196W        W22617  15.214  20.263   2.758
61197W        W22618  33.607   5.256  13.915
61198W        W22619  20.647  35.932   4.792
61199W        W22620  25.072  15.788  10.450
61200W        W22621  15.265   1.369  13.520
61201W        W22622  24.015   1.840  14.791
61202W        W22623   6.896   8.828   2.283
61203W        W22624  40.826  43.269   3.190
61204W        W22625   0.432   3.778   3.352
61205W        W22626  38.957  33.095   2.359
61206W        W22627   4.402  36.023  14.368
61207W        W22628   7.729   0.359  11.507
61208W        W22629   8.311  15.606  14.891
61209W        W22630  36.562   2.870  11.600
61210W        W22631  42.302  20.032  11.391
61211W        W22632  24.690   0.251   4.227
61212W        W22633   8.671  19.582   0.872
61213W        W22634  17.229  24.065  12.497
61214W        W22635  17.616  31.577   9.506
61215W        W22636  18.249  12.222   2.686
61216W        W22637  19.734   1.945   1.220
61217W        W22638  43.275  19.121   2.377
61218W        W22639  11.665   4.448  11.934
61219W        W22640   6.187  25.023   0.937
61220W        W22641  22.553  29.454  11.073
61221W        W22642  12.304  35.597  13.404
61222W        W22643  18.707   4.871  14.025
61223W        W22644  14.624   6.413   1.324
61224W        W22645  19.647  44.362  14.784
61225W        W22646   5.296  24.056  11.987
61226W        W22647   1.361  39.818  14.305
61227W        W22648  32.089   3.429  14.855
61228W        W22649   8.295  14.335  13.460
61229W        W22650  12.810  33.547   4.657
61230W        W22651  17.303  28.160   1.294
61231W        W22652  41.329  27.569  12.861
61232W        W22653  12.165  43.820  10.640
61233W        W22654  20.136   0.941   0.898
61234W        W22655  34.882  10.839   1.805
61235W        W22656  32.044  29.990   2.340
61236W        W22657  34.020  19.715   1.860
61237W        W22658  14.830  19.201  13.938
61238W        W22659  10.231  27.030   0.272
61239W        W22660  14.214  20.684   0.417
61240W        W22661  21.059  27.688   2.892
61241W        W22662  13.673  41.308  11.891
61242W        W22663  36.940  11.759  10.948
61243W        W22664  39.427  31.993   4.236
61244W        W22665  36.356   2.416   1.850
61245W        W22666  35.955  34.061   1.252
61246W        W22667  40.466  14.630   5.305
61247W        W22668   1.772   8.848   3.377
61248W        W22669  19.648   2.821  11.128
61249W        W22670  17.604  22.592  14.977
61250W        W22671  28.995  39.052  11.601
61251W        W22672   6.410  20.569   3.686
61252W        W22673  22.169  21.173  10.470
61253W        W22674   1.847   9.758  14.389
61254W        W22675  16.592  24.647  13.947
61255W        W22676  12.771  28.443   1.772
61256W        W22677  26.617  12.271  12.447
61257W        W22678  12.653  42.011   4.653
61258W        W22679   5.818  14.732  14.021
61259W        W22680  21.157  18.204   0.459
61260W        W22681  39.902  31.600  13.901
61261W        W22682  29.652  15.189   3.670
61262W        W22683  41.806  15.726  10.498
61263W        W22684   0.454  37.560   5.241
61264W        W22685  16.811  39.026  14.975
61265W        W22686  40.390  25.669  12.043
61266W        W22687  15.228  25.604  14.976
61267W        W22688  11.239  34.952  13.845
61268W        W22689  30.419   6.889   4.790
61269W        W22690  29.151  13.178   0.880
61270W        W22691   3.830  27.981   0.887
61271W        W22692  25.082  20.623  14.902
61272W        W22693   0.954  24.053   0.905
61273W        W22694  10.281  21.132  10.923
61274W        W22695  30.645  41.862   2.257
61275W        W22696  34.025  23.560   4.177
61276W        W22697  30.650  10.786   5.109
61277W        W22698   7.701   9.834  11.066
61278W        W22699  42.013  15.661   4.354
61279W        W22700  27.999  38.866   2.397
61280W        W22701   1.268  27.004   3.731
61281W        W22702  25.213   6.328   4.670
61282W        W22703   7.200  21.558  12.823
61283W        W22704  31.909   0.300   0.460
61284W        W22705  27.133   7.781  13.524
61285W        W22706  17.674  30.422   4.152
61286W        W22707  24.531  36.398  11.061
61287W        W22708   1.343  35.399   2.229
61288W        W22709  30.517  28.091   3.324
61289W        W22710  29.477  26.559   4.742
61290W        W22711  33.469  40.315  12.494
61291W        W22712   7.357  24.227   9.989
61292W        W22713  41.012  28.047   1.292
61293W        W22714  30.572  19.077   3.354
61294W        W22715  11.356  18.631   3.272
61295W        W22716  38.876  40.364   1.270
61296W        W22717   7.844  38.930   1.387
61297W        W22718   8.863  44.905   4.707
61298W        W22719   5.797   1.825  13.333
61299W        W22720  39.973  12.638   1.853
61300W        W22721   0.482  35.864  11.093
61301W        W22722   7.223   7.272   1.275
61302W        W22723   8.341   5.239   0.443
61303W        W22724  17.125   4.293  13.548
61304W        W22725  26.695  39.457   0.339
61305W        W22726   1.481  16.292   4.684
61306W        W22727  33.397  24.106  10.535
61307W        W22728  11.176  35.978  14.790
61308W        W22729  27.999  20.649  13.922
61309W        W22730  27.040   8.778  13.368
61310W        W22731  16.620  30.607   4.739
61311W        W22732  39.536   5.847  11.975
61312W        W22733  44.482  29.470   3.701
61313W        W22734  11.281  12.348   0.919
61314W        W22735  23.052  13.274  11.126
61315W        W22736  15.271  23.040   1.887
61316W        W22737  34.037   8.776   0.329
61317W        W22738  23.231  25.530  10.910
61318W        W22739  40.353  26.605  10.482
61319W        W22740   1.426  13.668  10.569
61320W        W22741   3.786  32.446   4.660
61321W        W22742  29.098  19.636   3.679
61322W        W22743  26.473   4.360   2.902
61323W        W22744   8.726  42.924   1.422
61324W        W22745  27.092  26.532  11.476
61325W        W22746  13.131  25.083  10.001
61326W        W22747   6.263  25.065   1.392
61327W        W22748  24.687  31.543   2.772
61328W        W22749  28.468  15.287   3.370
61329W        W22750  33.908   7.220  12.925
61330W        W22751  36.049   8.887   2.202
61331W        W22752   0.353   1.863   1.222
61332W        W22753  22.033  44.386  13.847
61333W        W22754  38.332  32.504   4.185
61334W        W22755  24.071   2.309  13.840
61335W        W22756  30.943  13.617  10.549
61336W        W22757   4.423  16.136  13.935
61337W        W22758  39.915  31.925   2.331
61338W        W22759  21.610  34.928  11.884
61339W        W22760   5.833  21.021  10.413
61340W        W22761  33.127  30.926   1.875
61341W        W22762   6.779  11.844  10.632
61342W        W22763  41.914  27.518  13.896
61343W        W22764  23.557  38.570   0.828
61344W        W22765  10.330  12.312   4.712
61345W        W22766  36.866  41.313   2.336
61346W        W22767  27.111  43.828   0.366
61347W        W22768  11.753  16.283  13.332
61348W        W22769  42.389  16.142   3.818
61349W        W22770  25.655  31.107  12.837
61350W        W22771   2.389  43.434  13.926
61351W        W22772  43.379   9.276  12.849
61352W        W22773  20.227  10.322   2.323
61353W        W22774   4.211  21.543  12.444
61354W        W22775  42.847  20.688   3.176
61355W        W22776  32.598   0.967   3.822
61356W        W22777   7.200  21.747  12.000
61357W        W22778  31.556  42.010   2.317
61358W        W22779  11.278  35.567  10.951
61359W        W22780  27.141  35.882   5.117
61360W        W22781  14.273  16.668  10.538
61361W        W22782   1.254  39.824   2.852
61362W        W22783  17.206  27.984  12.864
61363W        W22784  39.813  39.944  12.077
61364W        W22785  33.995  24.606  10.535
61365W        W22786  21.584  13.110   2.237
61366W        W22787   6.212   4.772  13.845
61367W        W22788  13.185   5.932  11.592
61368W        W22789  34.490  34.387  14.387
61369W        W22790  25.648  35.584  12.512
61370W        W22791  34.866  14.616   1.340
61371W        W22792  30.087  34.377  12.405
61372W        W22793   6.188   6.243   3.383
61373W        W22794   2.229  24.200  13.801
61374W        W22795  27.587  28.540  10.416
61375W        W22796  37.893  11.666   4.152
61376W        W22797  20.667  36.432   3.260
61377W        W22798  43.321   5.792  10.598
61378W        W22799  29.625  34.577   1.934
61379W        W22800  13.777  35.025  13.861
61380W        W22801  17.573  38.459   0.305
61381W        W22802  18.585  16.252   0.834
61382W        W22803  39.832  10.341   1.428
61383W        W22804  43.386  21.707  14.342
61384W        W22805  41.826  27.983   2.222
61385W        W22806  42.016  37.560  11.117
61386W        W22807  15.627  21.180   1.746
61387W        W22808  25.571  13.231  13.057
61388W        W22809  16.260  41.354   4.296
61389W        W22810  24.494  14.129  14.418
61390W        W22811  41.470  41.891  11.504
61391W        W22812  17.682  22.617  10.519
61392W        W22813   7.703  17.758  11.923
61393W        W22814  16.133  14.792  13.021
61394W        W22815  23.146  10.830   1.229
61395W        W22816   8.283   7.303  14.759
61396W        W22817  23.561   8.710   5.281
61397W        W22818   9.187  26.554  12.387
61398W        W22819  35.881  15.750  13.032
61399W        W22820  21.709   2.439   4.186
61400W        W22821  26.055  19.605  14.976
61401W        W22822  33.440  20.240   0.339
61402W        W22823  26.702  26.672  11.072
61403W        W22824  38.011  12.717  12.066
61404W        W22825  21.243  21.638  12.503
61405W        W22826  30.093  23.637  14.487
61406W        W22827  28.604  28.445  12.569
61407W        W22828   8.783  23.089   0.286
61408W        W22829  12.235  31.473  11.386
61409W        W22830   5.206  23.658  11.587
61410W        W22831  39.357  16.676  12.436
61411W        W22832  20.139  11.143   3.296
61412W        W22833  33.436  16.573   9.948
61413W        W22834  11.344  10.146   2.280
61414W        W22835  40.884  39.451   3.147
61415W        W22836  35.102  41.466  10.109
61416W        W22837  12.616   8.383   2.836
61417W        W22838  26.699  28.142   4.198
61418W        W22839  27.479   8.782  12.436
61419W        W22840  43.943  37.900  10.970
61420W        W22841  11.297  34.003  13.058
61421W        W22842  43.806  29.031   0.347
61422W        W22843  31.440  24.615   3.168
61423W        W22844  31.438  32.435  12.540
61424W        W22845  15.217  42.777   0.437
61425W        W22846   2.313  44.870  11.548
61426W        W22847  14.174   3.403   5.300
61427W        W22848  30.027  21.749  12.851
61428W        W22849   5.212  28.498   3.839
61429W        W22850   3.870   9.260  10.495
61430W        W22851  23.081  24.219  14.853
61431W        W22852   0.863  27.647  13.866
61432W        W22853   9.667  13.727  14.824
61433W        W22854  35.451  20.592  14.785
61434W        W22855   0.485  22.540   4.322
61435W        W22856   5.731  43.387  13.839
61436W        W22857  23.502  29.634   4.291
61437W        W22858  44.841  18.140   4.300
61438W        W22859  39.479  42.509  13.883
61439W        W22860  29.648  42.967  14.320
61440W        W22861  10.800  14.754  11.025
61441W        W22862  16.121   4.714   1.775
61442W        W22863  25.077  22.575   1.230
61443W        W22864  33.097  22.093  14.961
61444W        W22865  42.428   9.248   2.694
61445W        W22866  31.436   2.351  11.113
61446W        W22867  15.735  42.523   0.274
61447W        W22868  14.625  44.440  10.975
61448W        W22869   3.253  33.582   1.253
61449W        W22870  22.583  10.345  13.887
61450W        W22871  19.230  13.656  12.037
61451W        W22872   0.465  10.228   4.643
61452W        W22873  35.482  33.884   2.415
61453W        W22874  21.027  12.340   2.838
61454W        W22875  24.551  32.938  13.948
61455W        W22876   0.391  26.137   0.906
61456W        W22877   1.257  32.407  12.580
61457W        W22878  21.630  19.278   0.805
61458W        W22879   5.364  19.271  14.325
61459W        W22880  26.687  34.431   0.300
61460W        W22881  35.509   2.958   0.959
61461W        W22882  26.087  44.783   0.317
61462W        W22883  25.572  23.733   4.203
61463W        W22884  13.112  38.488   4.214
61464W        W22885  24.698  20.129   0.433
61465W        W22886  35.414  40.051  13.928
61466W        W22887  28.495  39.370  13.400
61467W        W22888  26.523  11.288  12.967
61468W        W22889  21.180  25.497  13.972
61469W        W22890  16.160  33.059   0.272
61470W        W22891  36.405  20.201  13.980
61471W        W22892  29.987   1.976   3.258
61472W        W22893  22.118   1.891   0.461
61473W        W22894  25.058  13.299   4.303
61474W        W22895  39.439   9.207  13.859
61475W        W22896  40.521   1.375   3.224
61476W        W22897  21.172  12.700  12.519
61477W        W22898  10.671  37.515   0.897
61478W        W22899  25.623  18.213  14.450
61479W        W22900  11.823  20.246  12.485
61480W        W22901  24.543   6.313  10.122
61481W        W22902  40.971  12.199   1.272
61482W        W22903  14.336   2.755   2.757
61483W        W22904  22.610  28.102   4.329
61484W        W22905  29.650  34.865  13.047
61485W        W22906  18.065  16.136  14.498
61486W        W22907  37.866  10.874   3.741
61487W        W22908  30.554  12.806  12.340
61488W        W22909   4.944  34.593  13.397
61489W        W22910   5.254  39.875   5.674
61490W        W22911   9.367  10.368  12.877
61491W        W22912  34.589   8.861  11.593
61492W        W22913   5.817  20.143   1.349
61493W        W22914   6.303  19.108   1.931
61494W        W22915   1.772   4.887  11.909
61495W        W22916   7.780   0.835  10.064
61496W        W22917  39.056  36.001  12.488
61497W        W22918  21.584  35.513  12.498
61498W        W22919  37.337  32.550   4.795
61499W        W22920   4.866  38.411  11.446
61500W        W22921  39.444  34.506   2.820
61501W        W22922  12.127  33.593   0.474
61502W        W22923  25.701  33.066  10.916
61503W        W22924  29.659  18.241   2.711
61504W        W22925   7.682  34.931   4.338
61505W        W22926  28.653  29.037  11.380
61506W        W22927  42.991  35.039  12.085
61507W        W22928  42.810  41.896  11.103
61508W        W22929  39.838  12.747  10.936
61509W        W22930  27.002  17.604   1.263
61510W        W22931  26.520  42.968  10.614
61511W        W22932  37.884  38.824  12.829
61512W        W22933  12.220  36.573  14.780
61513W        W22934  16.315  36.856   0.439
61514W        W22935  18.580  29.923  12.866
61515W        W22936  17.693  38.047  12.410
61516W        W22937   9.804  31.914   4.836
61517W        W22938  16.307  33.449   4.787
61518W        W22939   7.370   8.752   4.307
61519W        W22940   2.325  36.060  12.874
61520W        W22941  11.267  26.501   1.435
61521W        W22942  22.631   5.829  13.930
61522W        W22943  25.169   5.267  10.157
61523W        W22944  21.661  24.042  11.529
61524W        W22945  15.657  19.676  12.087
61525W        W22946   3.458   7.765  11.533
61526W        W22947   6.182  27.975  10.945
61527W        W22948  35.872  40.334   1.767
61528W        W22949  33.063   1.359  13.040
61529W        W22950  25.067   6.401   5.114
61530W        W22951  42.473  38.884  11.452
61531W        W22952   4.390  30.420  11.086
61532W        W22953  30.966  25.062   3.157
61533W        W22954  39.984  24.990  13.013
61534W        W22955   8.294   7.738  12.488
61535W        W22956   3.807  25.580   1.326
61536W        W22957  44.406  22.694  12.434
61537W        W22958  20.174  29.143  11.922
61538W        W22959   8.368  24.161   4.685
61539W        W22960  12.333  27.543  14.425
61540W        W22961  39.991   0.972  11.110
61541W        W22962   4.305   9.297   2.273
61542W        W22963  43.865   5.779   0.364
61543W        W22964  18.280   5.399   0.765
61544W        W22965  20.729   8.265  13.377
61545W        W22966  29.541  43.283   2.709
61546W        W22967  28.985  27.591  11.447
61547W        W22968  26.030  22.639   2.852
61548W        W22969  24.665  12.166   2.867
61549W        W22970  40.804  41.845  14.772
61550W        W22971   6.248  29.003   4.282
61551W        W22972  27.039  19.062   2.394
61552W        W22973  31.009  30.149   0.279
61553W        W22974   6.349  20.068   1.723
61554W        W22975   9.271  42.486  14.769
61555W        W22976  44.873  27.176   3.711
61556W        W22977  14.323  13.652  12.070
61557W        W22978   0.382  13.695  12.842
61558W        W22979  33.500  40.988  11.988
61559W        W22980   5.250  15.665   4.751
61560W        W22981  44.971  43.437  10.445
61561W        W22982  41.447  22.621  13.921
61562W        W22983  42.487  19.187  11.859
61563W        W22984  42.333  36.029  13.024
61564W        W22985   8.282  13.201   1.782
61565W        W22986   1.438   8.762   3.856
61566W        W22987  33.083  19.082   0.344
61567W        W22988  25.977  36.938   1.808
61568W        W22989  28.148   1.300  10.619
61569W        W22990  40.988   7.833  10.973
61570W        W22991  43.903  36.566   4.708
61571W        W22992  24.012  42.818  11.473
61572W        W22993  19.100  44.822   4.263
61573W        W22994  20.049  12.777  14.809
61574W        W22995  17.716   2.864  14.411
61575W        W22996  40.302  38.444  12.829
61576W        W22997  44.283  38.989  13.883
61577W        W22998   4.715  31.648   2.778
61578W        W22999   0.319  29.483  10.497
61579W        W23000  19.213  33.976  12.556
61580W        W23001   6.190  26.003  10.460
61581W        W23002  21.719  15.792  14.297
61582W        W23003  32.049   9.831  11.376
61583W        W23004   8.310  24.054  11.603
61584W        W23005   4.309   0.427   3.719
61585W        W23006  44.852   6.278  13.536
61586W        W23007  40.010  42.853   1.904
61587W        W23008  22.563  31.143  13.925
61588W        W23009  40.023   8.748   2.261
61589W        W23010  36.980  21.628   2.809
61590W        W23011  17.603  10.835   4.817
61591W        W23012   3.756  30.638   0.882
61592W        W23013   6.383  22.592   0.253
61593W        W23014  11.342   5.759   3.854
61594W        W23015   7.807  44.403  13.341
61595W        W23016  41.842   0.354  14.284
61596W        W23017   0.313  11.711  12.548
61597W        W23018  36.419  36.374  11.112
61598W        W23019   3.750  33.075  10.634
61599W        W23020  35.929  17.701  12.020
61600W        W23021  39.026  40.859   2.266
61601W        W23022  10.785  11.193  13.027
61602W        W23023   9.669  13.163   1.336
61603W        W23024  22.624  30.947   0.452
61604W        W23025  24.641  37.836   1.252
61605W        W23026  35.079  13.806  13.798
61606W        W23027   1.858   8.228   0.291
61607W        W23028   1.295   5.283   2.329
61608W        W23029  18.256  40.400  10.534
61609W        W23030  18.628  13.297  11.900
61610W        W23031  25.526  32.920   2.848
61611W        W23032   5.803  15.730  14.456
61612W        W23033  12.766  13.812   1.810
61613W        W23034   1.408   4.831  10.972
61614W        W23035  23.235  38.838   1.835
61615W        W23036  44.850  10.244   2.364
61616W        W23037  28.055  24.507   4.138
61617W        W23038   2.880  19.690  14.851
61618W        W23039  42.446   4.383   1.894
61619W        W23040  34.547  28.932  14.497
61620W        W23041  41.787  31.020   0.896
61621W        W23042  16.311   6.342   2.684
61622W        W23043  35.467  11.866  13.793
61623W        W23044   1.347  15.636  13.978
61624W        W23045   3.438  11.739   1.375
61625W        W23046   8.223  34.907   4.665
61626W        W23047   0.263  12.345   4.297
61627W        W23048  38.443   9.882   2.765
61628W        W23049  41.999   1.400  10.447
61629W        W23050  33.956   2.739  11.526
61630W        W23051  10.866   1.301  12.037
61631W        W23052   6.409  15.139   0.308
61632W        W23053   0.413   5.311  13.017
61633W        W23054   7.393  19.190  10.443
61634W        W23055   5.903   0.971  12.936
61635W        W23056  38.849  43.478  12.832
61636W        W23057  22.697  37.074  11.055
61637W        W23058  18.112   8.840  12.916
61638W        W23059   7.173  34.051   4.137
61639W        W23060  15.701  24.176  11.981
61640W        W23061  15.665  30.992   1.926
61641W        W23062   1.281  26.484   4.825
61642W        W23063   1.263  35.033   2.325
61643W        W23064  20.233  27.999  10.504
61644W        W23065  10.297  29.971  10.040
61645W        W23066  18.070   2.894   1.816
61646W        W23067  18.726  32.071  14.459
61647W        W23068  30.923  13.315   0.285
61648W        W23069  43.963   6.210  14.453
61649W        W23070   7.359  42.392  14.449
61650W        W23071   3.313  15.751   3.233
61651W        W23072   0.984   0.761  11.943
61652W        W23073  37.534   7.686   4.623
61653W        W23074  10.716  39.063   1.284
61654W        W23075  38.431   2.722  14.335
61655W        W23076   8.881  27.024   4.760
61656W        W23077  17.235  43.476   0.727
61657W        W23078  43.821  25.195  11.493
61658W        W23079  38.834  40.872   2.807
61659W        W23080   3.942  24.119  13.525
61660W        W23081  40.907  37.491  13.010
61661W        W23082  43.819  34.872  11.040
61662W        W23083  39.511   7.257   5.264
61663W        W23084  22.152  14.202  14.425
61664W        W23085  38.024  29.030   4.660
61665W        W23086  24.224  22.648   0.752
61666W        W23087  11.225  13.234  14.448
61667W        W23088  28.998   7.788  11.898
61668W        W23089  25.180   0.877  12.371
61669W        W23090  15.291  44.905   3.808
61670W        W23091  42.776  34.464   9.937
61671W        W23092  27.152  19.227   2.766
61672W        W23093  19.185  44.359   1.226
61673W        W23094   7.721  19.600   5.130
61674W        W23095  35.543   8.756  11.607
61675W        W23096   5.321   7.301  12.835
61676W        W23097   0.308   1.449  12.006
61677W        W23098  38.537  22.166   4.760
61678W        W23099  24.545  13.689  10.542
61679W        W23100  23.226  22.587  13.543
61680W        W23101  25.063  21.036  12.378
61681W        W23102  25.036  16.080  13.948
61682W        W23103  17.643   8.229  13.424
61683W        W23104   6.184  35.072   3.294
61684W        W23105  35.063   7.293  10.053
61685W        W23106   2.231   7.323  12.909
61686W        W23107  26.970  24.514   0.424
61687W        W23108  34.955  38.828  11.593
61688W        W23109  15.592  31.944   1.359
61689W        W23110  36.546   1.968   3.166
61690W        W23111  36.422  42.308   0.282
61691W        W23112  13.777  30.466  12.498
61692W        W23113  37.472  30.027   2.226
61693W        W23114  32.953   2.315  11.474
61694W        W23115  40.358  42.486  10.478
61695W        W23116   9.373  43.787  13.058
61696W        W23117   7.886   0.430   3.822
61697W        W23118  12.724  27.981  14.436
61698W        W23119  42.005  21.037   1.870
61699W        W23120  11.209  15.324  13.921
61700W        W23121  41.912  26.969   4.332
61701W        W23122   4.392   7.808   2.844
61702W        W23123   0.878  27.116  14.979
61703W        W23124  18.167  32.137  11.972
61704W        W23125  17.595   8.873  14.789
61705W        W23126  23.166  39.506  13.798
61706W        W23127   7.382  18.737  12.960
61707W        W23128   4.785  29.163  13.981
61708W        W23129  17.062  16.787   2.788
61709W        W23130  33.092  37.456   4.143
61710W        W23131  17.576   7.767   2.858
61711W        W23132  18.590   8.308   1.291
61712W        W23133   8.778  20.697   1.705
61713W        W23134  27.601  35.098   1.284
61714W        W23135  11.285  26.039   1.267
61715W        W23136  38.820  27.661   2.721
61716W        W23137  42.469  12.350  11.556
61717W        W23138   7.890  17.688  14.444
61718W        W23139  18.598  31.411  14.912
61719W        W23140  34.888  21.583  12.375
61720W        W23141  32.124  15.307  13.836
61721W        W23142  40.907  11.151   3.681
61722W        W23143   0.289  44.346   3.220
61723W        W23144  30.908  25.641   3.158
61724W        W23145  40.851  27.688   0.462
61725W        W23146   6.213  41.791   3.171
61726W        W23147  16.596  13.271   0.376
61727W        W23148  34.431  33.103   4.276
61728W        W23149  42.954  40.963  10.557
61729W        W23150  22.624  26.518   2.259
61730W        W23151  35.422  42.871  12.069
61731W        W23152   9.835  40.390  12.580
61732W        W23153  43.505  14.800  13.791
61733W        W23154   1.272  31.541  13.024
61734W        W23155  24.192  42.301  10.581
61735W        W23156  27.999  23.623  11.600
61736W        W23157  28.497  11.302   2.792
61737W        W23158  11.829  39.506   2.244
61738W        W23159  34.097  23.992  11.983
61739W        W23160  44.819  25.054   4.326
61740W        W23161  26.523  41.041   3.267
61741W        W23162   5.703  28.176  13.421
61742W        W23163  25.090  30.112  14.325
61743W        W23164   6.361  44.913   5.154
61744W        W23165  24.988   2.814  14.797
61745W        W23166  26.006  30.009   1.854
61746W        W23167  26.060  42.340  13.474
61747W        W23168  37.548  19.650   2.809
61748W        W23169  13.769   9.195   2.891
61749W        W23170  14.330   8.316   4.299
61750W        W23171   2.822  13.288   4.601
61751W        W23172  41.890  25.037   4.712
61752W        W23173  41.029   0.263   3.247
61753W        W23174  25.194  44.440  13.375
61754W        W23175  20.675  19.766   3.688
61755W        W23176  17.738  26.689  11.985
61756W        W23177  15.577  22.675  14.831
61757W        W23178   0.770  33.520   0.305
61758W        W23179  32.931  35.040   4.605
61759W        W23180  43.787  15.164   3.714
61760W        W23181  13.764  15.623   3.745
61761W        W23182  15.292  31.460   1.925
61762W        W23183  27.581  37.924   3.768
61763W        W23184  25.152  31.408  14.505
61764W        W23185  13.276   0.294  12.020
61765W        W23186  12.661  42.962   0.330
61766W        W23187  38.555  42.308  13.875
61767W        W23188   7.820  16.811   3.760
61768W        W23189  24.566  20.743   0.421
61769W        W23190  18.639  40.938   4.829
61770W        W23191   8.233  21.529   2.826
61771W        W23192  42.897  14.167  13.000
61772W        W23193   6.422   7.186   0.257
61773W        W23194   9.831  36.436   4.213
61774W        W23195  40.016  23.674  14.338
61775W        W23196  35.056  18.730  13.384
61776W        W23197  17.582  31.052   4.748
61777W        W23198  35.411  41.486  10.894
61778W        W23199   8.676  19.702   3.327
61779W        W23200  23.669  34.480   4.307
61780W        W23201   6.249  34.989  11.372
61781W        W23202  34.095  42.913   4.255
61782W        W23203   2.753   3.792   2.738
61783W        W23204  19.259  12.766   0.364
61784W        W23205  13.159  16.806   0.257
61785W        W23206  38.977  25.072   3.281
61786W        W23207  20.077  42.903  11.499
61787W        W23208  36.996  22.220  14.988
61788W        W23209  24.045  10.223   3.287
61789W        W23210  27.956  33.546  14.468
61790W        W23211   4.863   4.845   1.796
61791W        W23212  12.620  19.106  10.464
61792W        W23213   1.441  24.996   0.783
61793W        W23214  13.724  36.361   0.895
61794W        W23215  44.935  20.214  14.357
61795W        W23216  19.150  18.109  10.991
61796W        W23217   2.788  22.648   4.265
61797W        W23218  22.692  10.236   4.605
61798W        W23219  13.153   9.155   4.220
61799W        W23220  25.005   5.921  12.075
61800W        W23221  33.106  36.088   1.919
61801W        W23222   3.950  16.215   3.675
61802W        W23223   1.372  41.968  13.496
61803W        W23224   9.653   2.857  10.630
61804W        W23225  34.613  27.536   0.922
61805W        W23226  18.550   1.811   0.935
61806W        W23227  37.415  33.926  13.803
61807W        W23228  43.390   1.960  10.146
61808W        W23229  39.864  38.038  11.467
61809W        W23230  25.052  43.966   1.819
61810W        W23231  31.941  13.778  14.392
61811W        W23232  42.505  43.453   1.394
61812W        W23233  11.632  23.560   3.189
61813W        W23234   9.277   9.844   2.739
61814W        W23235  19.076  44.908  12.014
61815W        W23236  31.025  34.540   1.822
61816W        W23237  21.168  17.576   2.741
61817W        W23238  34.068   4.339   4.346
61818W        W23239  11.153  43.876   2.383
61819W        W23240  39.869  17.220   2.817
61820W        W23241  10.264   4.388  11.095
61821W        W23242  23.228  17.098  12.394
61822W        W23243  36.364  22.733  12.564
61823W        W23244  36.529  31.105   0.857
61824W        W23245   8.889   7.726  13.815
61825W        W23246  22.152  25.513  10.910
61826W        W23247  32.517  41.991  10.502
61827W        W23248  13.769  41.965  11.032
61828W        W23249  31.640  34.104  12.427
61829W        W23250  12.159   9.858  12.490
61830W        W23251  37.936   9.233  10.912
61831W        W23252  44.763  26.699   1.316
61832W        W23253   9.376   3.882   1.379
61833W        W23254  31.994  27.561  10.082
61834W        W23255  23.564  42.380   1.777
61835W        W23256   4.843  25.498  11.476
61836W        W23257  33.382  20.629   0.828
61837W        W23258  27.014  24.135   1.439
61838W        W23259  26.024  30.571   1.275
61839W        W23260  22.667   0.891   1.448
61840W        W23261  14.220   3.784   3.219
61841W        W23262  39.480  24.602  14.997
61842W        W23263  22.107   8.209   3.213
61843W        W23264  17.089  35.008   4.628
61844W        W23265  22.121  18.295   3.855
61845W        W23266  18.272  19.063  11.907
61846W        W23267   9.194  24.147  14.824
61847W        W23268  26.590  13.136  12.875
61848W        W23269  13.294  29.439   3.261
61849W        W23270  17.144  22.728  10.406
61850W        W23271  38.370  33.090  10.408
61851W        W23272  14.645   1.906   4.795
61852W        W23273   7.864  25.469  10.406
61853W        W23274  26.207   7.280  10.054
61854W        W23275   9.271  19.591   3.295
61855W        W23276  35.457   7.819  11.122
61856W        W23277  43.444  34.610   1.308
61857W        W23278  35.856   3.400   2.730
61858W        W23279  24.212  21.080   5.256
61859W        W23280  11.785  18.142  12.071
61860W        W23281   0.450  12.174  10.433
61861W        W23282   5.293  16.196   3.341
61862W        W23283  19.641   8.242  12.464
61863W        W23284  18.285   0.934   3.639
61864W        W23285   3.336  37.040   1.773
61865W        W23286  19.216  26.071  11.434
61866W        W23287  41.534  18.646   0.730
61867W        W23288  15.105  20.244  12.005
61868W        W23289  30.599  15.728  10.450
61869W        W23290  38.025  29.006  13.441
61870W        W23291  10.263  34.401   0.395
61871W        W23292   8.379  38.438  12.989
61872W        W23293  16.711  21.516   2.315
61873W        W23294  35.441   0.308   3.263
61874W        W23295  32.043  14.703   4.612
61875W        W23296  10.810  27.625  11.427
61876W        W23297  34.113  40.421   3.680
61877W        W23298  25.554   4.225  13.051
61878W        W23299  17.080  25.561   0.765
61879W        W23300   1.406  15.294   0.251
61880W        W23301  20.634   7.705   0.375
61881W        W23302   9.783  32.012   2.273
61882W        W23303   6.824   5.789   1.934
61883W        W23304  22.130  14.248   4.196
61884W        W23305   2.448  14.241   0.254
61885W        W23306  42.383   8.799  14.386
61886W        W23307   7.895  39.507  11.473
61887W        W23308  25.562  13.263   2.220
61888W        W23309  26.105   9.815   1.831
61889W        W23310  43.011  21.545  14.282
61890W        W23311  33.467  40.367  13.377
61891W        W23312  31.100  37.580  14.384
61892W        W23313   9.795  16.129  14.861
61893W        W23314  29.660  10.318  13.835
61894W        W23315   8.869  22.045  13.968
61895W        W23316  13.253  33.066  14.277
61896W        W23317  29.029  18.786  10.892
61897W        W23318  38.476  40.535  14.957
61898W        W23319  23.592  23.517   4.753
61899W        W23320  36.903   6.812   4.352
61900W        W23321  12.668  11.208   4.696
61901W        W23322   6.343   5.745   0.416
61902W        W23323  28.674  10.203   0.816
61903W        W23324  23.997   0.402  14.007
61904W        W23325   5.306   0.393   3.336
61905W        W23326  11.657  13.770   2.832
61906W        W23327  29.048  33.029  14.023
61907W        W23328   8.186   1.734  13.830
61908W        W23329  18.128   5.310  14.395
61909W        W23330  27.508  24.568   4.343
61910W        W23331  20.750   3.881   1.375
61911W        W23332   6.254   4.852  11.875
61912W        W23333  22.700  25.128   4.796
61913W        W23334  33.470  30.644  13.896
61914W        W23335   0.349   6.719  12.514
61915W        W23336  23.026  10.142   4.189
61916W        W23337  27.578  42.512   3.178
61917W        W23338  28.560   9.863   0.251
61918W        W23339  28.165  31.083   0.451
61919W        W23340   2.296  15.785   3.352
61920W        W23341  35.874  19.172   3.757
61921W        W23342   3.339  37.483  11.582
61922W        W23343   5.301   1.387   1.343
61923W        W23344  15.191   7.861   1.278
61924W        W23345  22.686  17.699  12.420
61925W        W23346  24.083  19.186  13.977
61926W        W23347  35.032  22.078   0.481
61927W        W23348   1.478   7.342  10.606
61928W        W23349  13.615   8.663   1.389
61929W        W23350   5.294  28.030  12.003
61930W        W23351  29.934  30.628  12.883
61931W        W23352   0.925  21.184   5.277
61932W        W23353   8.733  26.699  11.461
61933W        W23354  18.060  36.012   3.195
61934W        W23355  39.341  30.651   2.746
61935W        W23356  19.628   5.373   3.175
61936W        W23357   7.310  22.541  12.496
61937W        W23358  35.568  34.040  11.959
61938W        W23359  31.045  37.004   0.884
61939W        W23360  13.737  27.625  10.546
61940W        W23361  34.084  39.891   0.475
61941W        W23362  14.600  44.408   0.474
61942W        W23363   9.719  24.548   3.635
61943W        W23364  24.218  30.586  12.871
61944W        W23365  22.224   2.899   9.993
61945W        W23366  44.392   8.358  10.982
61946W        W23367   0.270  15.157   3.784
61947W        W23368  19.196  44.432  11.890
61948W        W23369  11.739  38.939   1.833
61949W        W23370  27.144  22.511  14.843
61950W        W23371  32.100   6.795   0.457
61951W        W23372  32.404   2.430  14.435
61952W        W23373  26.669  11.726  12.538
61953W        W23374  15.599  15.121  10.935
61954W        W23375  17.137  24.613  12.476
61955W        W23376   7.727  12.146  11.379
61956W        W23377  27.131   6.777  14.825
61957W        W23378  30.047   9.734   9.527
61958W        W23379   5.742   8.757  12.019
61959W        W23380  10.794  33.010  11.023
61960W        W23381  27.495  31.402   4.616
61961W        W23382  23.188  39.526  14.847
61962W        W23383   8.854  30.043   0.785
61963W        W23384  39.814  12.726   1.219
61964W        W23385  29.979  34.879   1.428
61965W        W23386  37.052  40.018   0.363
61966W        W23387   9.278   9.874  14.019
61967W        W23388  23.573  24.601   4.698
61968W        W23389  40.537  20.141   0.291
61969W        W23390  24.229  42.958   1.732
61970W        W23391  16.203  38.344   3.793
61971W        W23392  10.313   8.261   0.859
61972W        W23393  22.532  26.984  10.448
61973W        W23394   6.381  19.269  11.956
61974W        W23395  38.006   2.332   4.257
61975W        W23396  32.415  36.447   1.853
61976W        W23397  44.773  39.838  13.307
61977W        W23398  13.624  23.990  13.446
61978W        W23399  11.165   3.278  11.544
61979W        W23400  16.597  34.429   4.242
61980W        W23401  30.512  18.281  14.503
61981W        W23402  16.170  13.334  10.462
61982W        W23403  41.845  43.470  11.995
61983W        W23404   8.250   2.262   3.738
61984W        W23405  11.263   8.723  14.856
61985W        W23406  13.662   5.744  14.455
61986W        W23407  14.647  18.052  11.872
61987W        W23408   2.839  31.471  12.457
61988W        W23409   1.456   3.760   0.813
61989W        W23410  35.912  35.914   2.894
61990W        W23411  11.188  18.227  10.519
61991W        W23412   5.783  44.862   0.831
61992W        W23413  23.722  40.979  10.422
61993W        W23414  21.588  15.159   1.760
61994W        W23415  24.973  19.557  13.440
61995W        W23416  41.454  30.079  11.525
61996W        W23417   8.826  23.201   2.208
61997W        W23418  16.605   2.390  11.928
61998W        W23419  24.206  23.222  11.973
61999W        W23420  30.076  28.549   4.772
62000W        W23421   3.725  26.484  14.003
62001W        W23422  24.144   6.679  12.038
62002W        W23423   3.744   3.943   4.743
62003W        W23424  16.187  38.041   3.164
62004W        W23425  44.932   6.845  13.390
62005W        W23426  17.157  26.639  10.071
62006W        W23427  42.911  21.017   1.315
62007W        W23428  17.107  33.450   0.943
62008W        W23429   2.754  16.203  13.514
62009W        W23430  24.167  14.715  11.401
62010W        W23431  22.027   1.807   0.734
62011W        W23432  26.161  12.191  13.895
62012W        W23433  10.241  36.483   2.704
62013W        W23434   2.751   5.796  13.442
62014W        W23435  39.970   0.296  14.285
62015W        W23436  10.354  32.975   0.296
62016W        W23437  12.643  11.134  11.873
62017W        W23438   1.268  30.604  12.042
62018W        W23439  14.143  43.017  14.925
62019W        W23440   2.287  40.816  11.970
62020W        W23441   1.301  43.314  13.508
62021W        W23442  22.245   3.361  13.815
62022W        W23443   6.884  25.646  14.025
62023W        W23444  39.005  14.113  12.394
62024W        W23445   8.691  25.014  11.478
62025W        W23446  25.472  26.061  13.385
62026W        W23447  42.333  10.668   0.298
62027W        W23448  21.097  21.691  11.959
62028W        W23449  37.059   9.885  10.964
62029W        W23450  17.613  41.995   2.399
62030W        W23451  44.954  30.449   3.639
62031W        W23452  17.246  30.962   0.372
62032W        W23453  31.555  43.948   2.695
62033W        W23454  29.047  23.106   0.394
62034W        W23455  29.997  18.705   0.426
62035W        W23456  31.000   9.302   0.267
62036W        W23457  40.408   6.687   4.711
62037W        W23458   6.758  10.297   2.849
62038W        W23459  27.454  24.601  10.537
62039W        W23460  25.536  23.197   4.138
62040W        W23461  41.308  30.029  12.456
62041W        W23462  29.006  11.641  11.898
62042W        W23463  25.689  14.171  13.003
62043W        W23464  38.453  25.544   4.615
62044W        W23465  37.521  28.001   2.386
62045W        W23466  42.016  29.598   1.708
62046W        W23467  31.962  11.710  10.933
62047W        W23468  44.857  10.231  12.852
62048W        W23469  41.878  32.527   2.726
62049W        W23470  32.012  12.656  13.389
62050W        W23471  42.833  36.560   4.758
62051W        W23472  34.905  41.862  14.897
62052W        W23473   8.359  21.153   3.174
62053W        W23474   3.784  44.464   0.244
62054W        W23475   9.390  15.255  14.906
62055W        W23476   3.726  19.240  13.792
62056W        W23477  29.142  28.091   0.404
62057W        W23478  15.275  38.445  11.863
62058W        W23479   9.223  35.593  11.457
62059W        W23480  40.358  28.637  10.412
62060W        W23481   8.778  33.505   0.459
62061W        W23482  12.823  21.520   0.478
62062W        W23483   9.738  10.280  13.339
62063W        W23484   6.869  27.521  12.439
62064W        W23485   7.908   1.410   5.221
62065W        W23486  17.099  22.068  14.858
62066W        W23487   9.705  31.633   3.714
62067W        W23488   2.439  34.103  12.397
62068W        W23489  17.279  39.484  14.963
62069W        W23490  12.752  41.940   2.256
62070W        W23491   0.806  26.063   2.859
62071W        W23492  14.159   5.370  11.856
62072W        W23493  11.774  40.918   0.248
62073W        W23494  34.450   9.157   4.706
62074W        W23495  32.417  42.491   1.421
62075W        W23496  30.049  21.227   0.277
62076W        W23497   0.785   1.793  13.014
62077W        W23498  39.838   2.234  12.538
62078W        W23499   7.263  18.781   4.272
62079W        W23500   7.700  37.019  11.452
62080W        W23501   3.328  19.143  10.915
62081W        W23502  11.185   2.376  13.889
62082W        W23503  14.269  18.642  10.641
62083W        W23504  32.637  39.550   1.434
62084W        W23505   2.804  18.200  14.424
62085W        W23506  19.620  25.101   4.637
62086W        W23507  14.814  24.982  10.966
62087W        W23508  30.002  14.295  14.420
62088W        W23509  42.818  29.065  14.904
62089W        W23510  28.466  30.082   2.396
62090W        W23511  15.084  40.480   1.358
62091W        W23512   1.316  20.242   3.376
62092W        W23513  19.154   2.939  11.013
62093W        W23514  30.061   5.865   2.787
62094W        W23515  19.211  14.223   9.951
62095W        W23516  37.958  24.518  14.973
62096W        W23517  12.333   7.312  14.349
62097W        W23518  31.007   6.832  12.410
62098W        W23519  23.557  15.734   2.354
62099W        W23520  29.613   0.341   4.710
62100W        W23521   7.223  43.477  13.049
62101W        W23522  34.559   0.918  10.108
62102W        W23523  37.479  20.621  14.365
62103W        W23524   7.175  44.391  14.507
62104W        W23525  19.140  22.632  12.443
62105W        W23526  13.658   0.374  12.836
62106W        W23527  22.699  39.317   4.832
62107W        W23528  27.049  44.956  12.866
62108W        W23529  22.558  15.689  10.541
62109W        W23530  31.647  33.079   2.409
62110W        W23531  43.357  21.141   2.277
62111W        W23532  42.837  38.379   3.771
62112W        W23533   2.294   4.357  14.926
62113W        W23534   2.817   1.297   2.821
62114W        W23535  29.509  24.664   1.354
62115W        W23536  39.358  29.669  14.284
62116W        W23537  26.055   4.796  14.457
62117W        W23538  38.988  14.300   2.338
62118W        W23539  17.590  44.883  12.888
62119W        W23540  26.001  18.126   3.865
62120W        W23541   7.862   5.914  14.982
62121W        W23542  21.519   3.444  14.936
62122W        W23543  15.598  38.345   3.792
62123W        W23544  35.988  39.437  11.588
62124W        W23545   0.836  26.526  13.847
62125W        W23546  30.987  11.685  11.420
62126W        W23547  42.934  12.832   4.732
62127W        W23548  18.133  29.557   2.419
62128W        W23549  24.224  14.638  14.881
62129W        W23550  24.204   1.948  11.509
62130W        W23551  32.015  37.947   3.149
62131W        W23552  35.915  27.983   0.760
62132W        W23553  13.230  30.441  12.883
62133W        W23554  33.893  42.297  14.310
62134W        W23555  30.124  29.582   4.628
62135W        W23556   1.967  18.590  12.001
62136W        W23557  23.692  27.463   0.813
62137W        W23558  16.640  24.694  14.439
62138W        W23559  23.153  42.954  12.512
62139W        W23560  19.160   5.284  10.481
62140W        W23561   9.848  42.400   4.833
62141W        W23562  41.841  30.604  11.409
62142W        W23563  22.546  40.856  10.595
62143W        W23564   8.891  34.880   2.881
62144W        W23565   9.646  39.936  13.002
62145W        W23566  22.117   3.424   1.419
62146W        W23567   9.201  43.776  11.591
62147W        W23568  15.802  24.085   2.839
62148W        W23569  41.400  38.373   4.136
62149W        W23570  20.647  34.491   2.888
62150W        W23571   7.804  37.359  14.322
62151W        W23572  20.061  30.043   3.296
62152W        W23573  16.787  25.524   2.356
62153W        W23574  29.961   1.482  12.405
62154W        W23575  37.067  34.466  12.562
62155W        W23576   9.680  40.821   4.815
62156W        W23577  38.448  10.776   1.218
62157W        W23578  18.154  27.470   2.228
62158W        W23579   6.876   3.441   4.663
62159W        W23580  36.062  40.004  11.379
62160W        W23581   4.875   4.223  11.448
62161W        W23582   0.854  14.206   1.358
62162W        W23583  20.198   9.697   1.262
62163W        W23584   3.822  43.771  11.422
62164W        W23585   6.362  18.632   3.162
62165W        W23586  42.849  29.946  10.475
62166W        W23587  21.753  28.655   2.897
62167W        W23588  15.600  39.002   2.247
62168W        W23589  42.458  20.124   0.339
62169W        W23590  42.433  10.189  11.952
62170W        W23591  29.029  34.985   0.754
62171W        W23592  34.448   8.393  12.934
62172W        W23593  11.860  27.495   2.747
62173W        W23594  37.508  38.992  11.555
62174W        W23595  15.223   3.746   1.263
62175W        W23596  22.172  19.253   4.262
62176W        W23597  19.616   6.720   1.752
62177W        W23598   9.383  24.073   1.755
62178W        W23599  31.423  30.085   0.803
62179W        W23600  29.143  31.010   2.749
62180W        W23601  27.624  36.039  10.981
62181W        W23602   5.809   7.676   2.304
62182W        W23603   4.391  40.829   4.685
62183W        W23604  18.278  24.544  14.367
62184W        W23605  22.081  27.488   0.475
62185W        W23606  13.287  16.201   4.338
62186W        W23607  25.511  29.527   3.304
62187W        W23608  35.051  10.298   2.359
62188W        W23609  15.815  36.858   4.329
62189W        W23610  15.101  33.536   1.332
62190W        W23611  41.328  39.845   2.867
62191W        W23612  23.985  24.583  12.989
62192W        W23613  13.677  38.331   4.799
62193W        W23614  28.629   8.875   4.807
62194W        W23615  20.551  12.818  12.477
62195W        W23616  28.606  19.649  11.907
62196W        W23617   7.280  27.555   3.653
62197W        W23618   8.267  13.678  12.045
62198W        W23619  29.649  24.203   2.896
62199W        W23620  19.661  32.961   4.302
62200W        W23621  35.395  42.880  11.101
62201W        W23622  29.147  39.905   2.664
62202W        W23623  13.262   7.776  12.890
62203W        W23624  18.593  24.627  10.625
62204W        W23625  42.328  33.001   1.433
62205W        W23626  29.551  28.607   0.898
62206W        W23627  27.986  35.433   3.754
62207W        W23628  17.284  44.789  11.417
62208W        W23629   9.672   7.376  12.892
62209W        W23630  37.064   4.785  11.522
62210W        W23631  34.097  36.511  12.460
62211W        W23632  35.060  17.147   0.829
62212W        W23633  26.039  19.244   1.447
62213W        W23634   4.818   9.352   3.654
62214W        W23635   2.952   3.261  12.496
62215W        W23636  15.688   6.407  12.358
62216W        W23637   0.809  39.444  14.441
62217W        W23638  29.076  36.551   1.755
62218W        W23639  10.244  12.732  11.581
62219W        W23640   0.358  32.505   0.933
62220W        W23641  21.056   2.430   4.318
62221W        W23642  41.323   4.899   5.201
62222W        W23643   3.820  25.220  12.831
62223W        W23644  18.187   9.315  12.515
62224W        W23645  12.627  37.397  11.855
62225W        W23646  31.593  24.565  14.001
62226W        W23647  21.755  30.996   3.353
62227W        W23648  32.031  40.311   3.752
62228W        W23649  43.819   3.353  12.438
62229W        W23650  34.910  15.685  13.032
62230W        W23651  44.363  34.923   0.286
62231W        W23652  15.690   1.770  10.495
62232W        W23653  27.002  30.449  11.938
62233W        W23654  31.133  10.747   3.336
62234W        W23655  41.999  17.180  12.073
62235W        W23656  38.026  38.429   4.744
62236W        W23657   6.844  13.729   0.764
62237W        W23658  27.476  16.142   3.280
62238W        W23659   8.299   7.709   0.321
62239W        W23660  40.388  19.699   3.254
62240W        W23661  41.449  38.358  12.415
62241W        W23662  17.258  38.989   2.273
62242W        W23663   4.239  42.024  14.333
62243W        W23664  30.033  33.913  13.952
62244W        W23665  34.468  17.202  14.832
62245W        W23666  32.496  12.850   1.927
62246W        W23667  17.648  34.075   4.214
62247W        W23668  28.626   0.824   0.449
62248W        W23669   8.255  25.712   0.873
62249W        W23670  16.763  44.002   1.297
62250W        W23671  24.564   0.429  14.514
62251W        W23672  10.158   9.311  12.881
62252W        W23673   9.728  16.216   2.262
62253W        W23674  42.909  30.578  11.392
62254W        W23675  11.306  28.051  12.576
62255W        W23676  44.479   8.853   4.827
62256W        W23677  42.519  27.061  13.494
62257W        W23678   2.731   2.888  12.383
62258W        W23679  40.432  34.571  12.932
62259W        W23680   2.437  20.594   4.214
62260W        W23681   2.293  40.863  10.406
62261W        W23682  24.077  40.854   2.178
62262W        W23683  17.679   4.919  12.024
62263W        W23684   7.858   7.237   4.816
62264W        W23685   1.302  26.513   0.471
62265W        W23686  13.214  26.681  13.374
62266W        W23687  29.008  15.609  14.421
62267W        W23688  33.123  24.140   0.463
62268W        W23689  20.224  17.723  10.407
62269W        W23690  29.477  36.491  13.470
62270W        W23691  43.952  17.080  14.031
62271W        W23692  15.769  41.991  12.526
62272W        W23693  12.316  42.384  10.977
62273W        W23694  11.161  38.959   3.732
62274W        W23695  16.785  15.795   1.708
62275W        W23696  38.557  43.425  14.435
62276W        W23697  18.607  23.134  12.420
62277W        W23698  22.050  43.328  11.471
62278W        W23699   2.302   9.823  12.835
62279W        W23700  14.795  25.974   0.358
62280W        W23701   0.751   9.813   0.910
62281W        W23702   3.313  27.171   4.178
62282W        W23703  26.703  13.304  14.440
62283W        W23704  39.488  21.189  11.530
62284W        W23705  21.060   6.305   3.870
62285W        W23706  34.075  17.294  11.545
62286W        W23707  12.834  13.652  12.040
62287W        W23708  44.835  26.186   0.266
62288W        W23709  36.951   4.804  13.882
62289W        W23710   9.765  18.591  11.105
62290W        W23711  31.121  20.619  11.489
62291W        W23712  30.013  31.591  10.469
62292W        W23713  40.530  40.850   1.885
62293W        W23714   6.215  20.214  12.018
62294W        W23715   6.886  18.656   3.670
62295W        W23716  33.435  33.947  14.782
62296W        W23717   5.876   5.732   1.871
62297W        W23718  12.647  16.102   2.394
62298W        W23719   1.741  17.206  12.557
62299W        W23720  10.333  36.546  14.428
62300W        W23721  20.624  11.827   1.283
62301W        W23722  37.056  24.086   1.372
62302W        W23723  26.509   6.198   2.864
62303W        W23724  38.841  35.865  12.886
62304W        W23725  38.363  19.068   0.456
62305W        W23726  24.028  38.918  14.473
62306W        W23727   8.786  42.526   9.958
62307W        W23728  40.832  42.469   3.238
62308W        W23729   9.886  33.604   3.200
62309W        W23730   1.781  43.415  11.393
62310W        W23731   5.412  14.235   2.367
62311W        W23732   8.352  38.967   1.798
62312W        W23733  15.184  29.431   4.650
62313W        W23734   7.716  15.157   1.748
62314W        W23735  29.537   6.271   2.205
62315W        W23736  32.990  25.508   1.797
62316W        W23737  40.392  12.356  11.049
62317W        W23738  35.887  33.607  10.914
62318W        W23739  36.476  11.862   4.167
62319W        W23740  41.329  44.258   3.653
62320W        W23741  24.056  15.718  14.452
62321W        W23742  24.695   9.377  12.547
62322W        W23743  21.628  17.710  10.591
62323W        W23744  41.836  30.528   0.421
62324W        W23745  35.026  10.718  13.882
62325W        W23746  27.558  44.861   4.261
62326W        W23747  40.802   9.286  14.990
62327W        W23748  34.482  22.698   3.325
62328W        W23749   8.900  39.898   5.615
62329W        W23750  39.495   3.890   1.255
62330W        W23751  32.547  24.532  10.596
62331W        W23752   8.897  42.281   2.334
62332W        W23753   7.912  16.152  12.533
62333W        W23754  27.536  11.867  12.359
62334W        W23755   8.681  29.977   2.739
62335W        W23756  20.612   1.942  14.360
62336W        W23757  43.792  35.008  14.506
62337W        W23758  18.264  21.626   3.156
62338W        W23759  20.030  10.225   1.740
62339W        W23760   7.315  13.711  13.880
62340W        W23761  21.138  39.547   2.785
62341W        W23762  18.127  34.976  14.788
62342W        W23763   1.242  19.589  12.566
62343W        W23764  15.662   5.776  10.934
62344W        W23765   0.477  18.573   2.719
62345W        W23766  12.202  41.412  10.520
62346W        W23767  39.550   0.377  14.376
62347W        W23768  24.179  26.536   3.299
62348W        W23769   7.799  11.264   1.365
62349W        W23770  27.129  35.542  14.354
62350W        W23771   7.822  34.976  11.991
62351W        W23772  39.819  20.131   2.813
62352W        W23773   1.877  23.669   2.267
62353W        W23774  27.566   7.900   0.446
62354W        W23775  23.168  23.089  10.560
62355W        W23776   4.345   1.381   2.749
62356W        W23777   2.866  42.402   1.228
62357W        W23778  27.050  27.992   3.296
62358W        W23779  41.790  22.113   4.329
62359W        W23780   3.743  17.272   2.333
62360W        W23781  29.164  21.597   1.364
62361W        W23782  43.930  39.941  12.978
62362W        W23783  42.937  27.577  14.307
62363W        W23784  32.392   6.421   2.291
62364W        W23785  43.498  31.009   0.278
62365W        W23786  43.333  39.478   0.967
62366W        W23787  44.786   5.813   3.362
62367W        W23788  34.507  14.643  11.073
62368W        W23789  21.604  17.096  12.466
62369W        W23790  37.838  40.512   1.275
62370W        W23791   4.716  41.302   2.294
62371W        W23792  36.552  14.168   1.344
62372W        W23793  24.708   3.871  11.520
62373W        W23794  39.820  40.994  13.443
62374W        W23795  41.309   1.331  13.486
62375W        W23796  11.361  12.818  11.438
62376W        W23797  41.309  34.415  12.015
62377W        W23798  18.261  16.075  12.975
62378W        W23799  33.002  33.937  12.408
62379W        W23800  22.521  34.604  13.050
62380W        W23801   5.202  24.568   0.775
62381W        W23802  34.464  35.887  11.568
62382W        W23803  24.067  10.252  14.331
62383W        W23804  40.515  10.800  13.337
62384W        W23805   9.656  44.418  12.515
62385W        W23806   1.841  16.191  11.891
62386W        W23807  18.771   1.468  10.965
62387W        W23808   4.312  15.251  13.840
62388W        W23809  34.504  42.904  14.448
62389W        W23810  12.226  11.725  12.017
62390W        W23811  14.762  30.091  14.457
62391W        W23812  18.739  15.612  13.847
62392W        W23813  19.758  26.684  13.926
62393W        W23814   2.894  34.561  11.903
62394W        W23815  24.099  11.263   3.283
62395W        W23816  41.827  15.266   1.263
62396W        W23817  34.101  42.856  14.280
62397W        W23818  23.231  16.739  11.433
62398W        W23819  14.276  26.469   4.616
62399W        W23820   5.378  21.042  13.437
62400W        W23821  11.723  21.556   2.709
62401W        W23822  21.657   2.421  10.945
62402W        W23823  23.602  33.386  14.820
62403W        W23824   9.703   1.870  10.545
62404W        W23825  31.405  19.603  13.937
62405W        W23826  11.215  21.511   3.636
62406W        W23827   6.392  44.935  13.329
62407W        W23828  18.222  29.515  12.480
62408W        W23829  29.587   8.736   0.833
62409W        W23830  39.531  40.547   1.349
62410W        W23831   6.722  22.221   3.308
62411W        W23832  34.530   1.424   5.659
62412W        W23833  20.569  35.529   4.323
62413W        W23834  19.712  16.795  11.562
62414W        W23835  35.361  43.847  12.991
62415W        W23836  44.820   8.850   4.192
62416W        W23837  10.710  23.658  14.516
62417W        W23838  44.363  32.960  14.422
62418W        W23839  33.979   0.798   3.362
62419W        W23840  28.551   4.900   4.827
62420W        W23841   6.198  12.356  10.636
62421W        W23842  23.223  13.759   3.778
62422W        W23843  11.729   0.863   0.344
62423W        W23844  39.338  21.153  13.411
62424W        W23845  34.487  41.317  12.890
62425W        W23846  20.593  31.944   1.305
62426W        W23847  17.247   5.275   1.244
62427W        W23848  30.545  16.605   2.288
62428W        W23849  28.136  33.127   3.664
62429W        W23850  37.363  23.538   0.804
62430W        W23851   2.834  43.011   3.828
62431W        W23852  40.880   7.192  12.010
62432W        W23853   5.235  31.963   2.196
62433W        W23854  37.487  38.949   1.364
62434W        W23855   0.284  13.195  12.062
62435W        W23856  17.570  32.078   2.179
62436W        W23857  33.407  30.960   3.860
62437W        W23858   5.925  33.915   2.814
62438W        W23859  40.488  18.258   0.334
62439W        W23860  28.002   1.243   4.621
62440W        W23861  14.722  16.667  11.081
62441W        W23862   0.947   6.917  14.403
62442W        W23863  10.849  44.775   1.294
62443W        W23864   1.814  35.498  14.299
62444W        W23865  29.512  23.022   2.697
62445W        W23866  36.096  38.856  12.515
62446W        W23867  14.219  42.453   1.791
62447W        W23868  28.490  14.115   0.389
62448W        W23869  41.857  37.565   2.902
62449W        W23870  16.786  38.000  13.451
62450W        W23871  19.107  11.771  14.332
62451W        W23872   5.279  29.110  11.867
62452W        W23873  12.169  38.859  11.109
62453W        W23874   3.878  30.042  14.460
62454W        W23875  33.992  22.192  10.501
62455W        W23876  27.474  41.957  14.769
62456W        W23877  21.058  15.320  11.386
62457W        W23878   4.282   5.791  10.991
62458W        W23879   3.876  27.667   2.180
62459W        W23880  27.514  11.208   3.722
62460W        W23881  20.754  30.489   2.382
62461W        W23882  18.720  22.162   1.922
62462W        W23883   4.705   8.258   4.263
62463W        W23884  17.143  31.623   0.815
62464W        W23885  30.416  38.340  14.880
62465W        W23886  34.948  21.092  14.878
62466W        W23887  41.023  14.265  12.894
62467W        W23888  20.129  19.562  14.872
62468W        W23889  14.261  32.935   2.808
62469W        W23890  10.846  33.096   0.449
62470W        W23891  27.576  21.632  13.419
62471W        W23892  19.131  28.949  12.853
62472W        W23893   3.330   4.360  12.925
62473W        W23894   3.753  21.758  11.014
62474W        W23895   6.838  27.064   3.840
62475W        W23896  12.265  40.323   1.425
62476W        W23897   8.829  44.904  14.783
62477W        W23898  30.451   0.982   4.704
62478W        W23899  30.985  19.212   1.818
62479W        W23900  38.880   5.828   3.374
62480W        W23901  42.869  27.131   4.176
62481W        W23902   0.977  32.412   0.412
62482W        W23903  21.590   6.783  11.859
62483W        W23904  26.666   3.256  12.850
62484W        W23905  15.779  25.109   1.211
62485W        W23906  27.126  20.250  13.793
62486W        W23907  27.057  37.496  14.919
62487W        W23908  21.263  42.312   1.384
62488W        W23909  21.598  28.602   3.337
62489W        W23910  28.623  43.846  11.117
62490W        W23911  19.609  14.661  13.865
62491W        W23912  32.584  39.506   0.379
62492W        W23913  44.851  21.218   2.818
62493W        W23914   6.251  44.931  12.396
62494W        W23915  12.758  32.564  11.456
62495W        W23916  21.247  13.313  13.533
62496W        W23917  14.214  31.898   2.303
62497W        W23918  30.127  41.863  11.049
62498W        W23919  17.113  24.180   0.743
62499W        W23920  41.493   4.324  10.444
62500W        W23921  25.553   6.684   0.827
62501W        W23922  17.179   0.318  10.420
62502W        W23923   7.904  41.806   1.887
62503W        W23924   1.740   4.780  13.891
62504W        W23925   7.790  12.706  14.911
62505W        W23926  21.183  32.976   2.749
62506W        W23927  10.181  38.894   3.862
62507W        W23928  34.897  38.885   0.832
62508W        W23929  15.814  39.373  14.971
62509W        W23930  44.503   6.914  14.411
62510W        W23931  22.144  31.004  11.518
62511W        W23932  35.083  25.034   5.132
62512W        W23933  19.050  21.070   4.218
62513W        W23934  41.813  31.934   2.250
62514W        W23935   3.856  18.740  14.305
62515W        W23936  14.169  24.197  11.379
62516W        W23937   4.377  27.644  11.380
62517W        W23938   0.793  38.479  12.380
62518W        W23939  42.887  24.093  11.433
62519W        W23940  35.551   7.886   2.790
62520W        W23941  30.641  38.987   2.804
62521W        W23942  17.176  16.796   2.402
62522W        W23943  33.555  22.540   2.716
62523W        W23944  41.003  35.870  11.464
62524W        W23945   2.242  27.637   0.890
62525W        W23946  29.614  16.645  12.928
62526W        W23947  23.551  14.234  13.330
62527W        W23948  18.257  38.994   1.824
62528W        W23949  15.233  33.568   1.840
62529W        W23950  23.006   8.900  13.910
62530W        W23951  12.282   6.824   1.448
62531W        W23952  20.615  27.092  11.950
62532W        W23953  18.785   9.313  12.489
62533W        W23954  32.909  14.648  14.996
62534W        W23955  24.218  37.578   9.937
62535W        W23956  21.725  11.741  13.968
62536W        W23957  37.931   7.328  10.518
62537W        W23958  18.285  40.879  11.008
62538W        W23959  14.757  12.822   2.416
62539W        W23960   3.259  11.345  14.881
62540W        W23961  29.154  44.804  10.467
62541W        W23962  20.765  35.039  11.859
62542W        W23963  28.967  19.738   2.843
62543W        W23964  40.939  27.983   3.169
62544W        W23965   1.913  23.628   0.476
62545W        W23966   9.673  26.511   3.279
62546W        W23967  27.980   2.830  12.474
62547W        W23968   8.781  33.097  14.349
62548W        W23969  19.583  23.225   4.682
62549W        W23970  15.702  32.495  14.449
62550W        W23971   9.373  17.298   4.354
62551W        W23972  42.788  19.231  11.426
62552W        W23973   5.904  37.009  10.945
62553W        W23974  20.066  31.003   0.443
62554W        W23975  12.162   5.869   4.648
62555W        W23976  29.169  19.075  14.364
62556W        W23977  27.040  11.338  11.996
62557W        W23978  14.270  14.835   0.865
62558W        W23979  18.608   5.726  12.538
62559W        W23980  32.399   6.297  13.377
62560W        W23981  33.026  11.794  14.860
62561W        W23982  19.262  41.890  11.121
62562W        W23983  22.217  34.391   3.799
62563W        W23984  38.511  38.858   3.364
62564W        W23985  28.075  21.565   0.374
62565W        W23986  26.635   5.431  10.550
62566W        W23987   4.836   5.903  13.037
62567W        W23988  23.121  27.159  11.049
62568W        W23989   8.819  11.129  10.476
62569W        W23990  17.680  19.573   3.316
62570W        W23991  40.308   2.370  14.987
62571W        W23992  36.901  10.799   3.762
62572W        W23993  31.070   4.904  11.397
62573W        W23994  26.523  18.551   0.758
62574W        W23995  29.485  27.609  10.422
62575W        W23996  18.077  26.656  14.315
62576W        W23997  33.381  26.107   3.766
62577W        W23998   6.347  36.875   3.153
62578W        W23999  36.476  25.043   4.159
62579W        W24000  29.521  44.952  12.457
62580W        W24001  31.052  26.557  14.404
62581W        W24002   2.798   6.316  12.057
62582W        W24003   9.271  23.020  13.921
62583W        W24004  44.292  32.961  10.530
62584W        W24005  38.440  30.155   0.328
62585W        W24006  19.183  19.110   0.767
62586W        W24007  35.388  39.833  11.108
62587W        W24008  35.555   0.851   0.316
62588W        W24009  20.695  17.771   1.393
62589W        W24010  12.643  36.900   3.332
62590W        W24011  27.546  32.515   2.845
62591W        W24012   1.390   0.363  13.346
62592W        W24013   4.915   2.898  14.912
62593W        W24014   8.769  30.463   2.807
62594W        W24015  17.676  37.940  10.496
62595W        W24016   2.362  40.801   1.756
62596W        W24017  40.973   2.270   3.725
62597W        W24018  10.200   5.778  12.445
62598W        W24019  35.419  31.141   1.450
62599W        W24020  34.879   2.384   0.407
62600W        W24021  32.142  44.805  13.969
62601W        W24022  20.168  21.137   0.925
62602W        W24023  23.720  32.093   2.230
62603W        W24024  16.237  23.996  14.896
62604W        W24025   7.778  20.686   2.403
62605W        W24026  22.525  42.303   9.936
62606W        W24027  11.754  40.421   2.292
62607W        W24028   3.350  25.137  14.296
62608W        W24029  27.544  34.030  14.918
62609W        W24030   5.820   1.939   4.630
62610W        W24031   3.348  38.424   1.935
62611W        W24032  34.431  34.541  11.452
62612W        W24033  40.364  26.476   3.723
62613W        W24034  40.973  40.391  12.452
62614W        W24035  28.019  21.681  11.067
62615W        W24036  22.089  20.561  11.398
62616W        W24037  20.630  18.056   1.259
62617W        W24038  36.429  15.704   1.922
62618W        W24039  16.762  31.961   9.505
62619W        W24040  38.352  40.963   2.874
62620W        W24041  37.921  15.162   4.297
62621W        W24042  43.839  19.054   3.767
62622W        W24043  26.118  31.608  12.067
62623W        W24044  34.479  28.586   4.778
62624W        W24045  19.267  36.070   3.375
62625W        W24046  28.459  33.608   3.147
62626W        W24047  36.863  40.050  14.854
62627W        W24048  16.125  28.158  11.955
62628W        W24049  34.095  14.303   4.225
62629W        W24050  11.783  17.622  12.967
62630W        W24051  18.082  10.845   3.737
62631W        W24052  25.522  30.938  14.431
62632W        W24053   9.660  14.219   0.317
62633W        W24054  37.930  33.461   4.259
62634W        W24055  25.694  34.919   9.950
62635W        W24056  32.479  43.497   1.303
62636W        W24057  24.201  25.558   3.768
62637W        W24058   5.934   6.280  11.444
62638W        W24059  12.255  12.345   2.178
62639W        W24060  31.467  28.461   3.254
62640W        W24061   9.857  14.615   2.696
62641W        W24062  41.998  10.825   1.900
62642W        W24063   3.819  29.572  12.978
62643W        W24064  43.440  29.952  11.128
62644W        W24065  25.581  29.109   0.419
62645W        W24066  24.566  25.638  14.427
62646W        W24067  13.266  24.999  14.770
62647W        W24068  22.687  41.368  10.889
62648W        W24069  10.648  21.637   4.254
62649W        W24070  33.426  17.120  12.576
62650W        W24071   5.338  25.149  11.489
62651W        W24072  10.816   2.256   4.711
62652W        W24073   4.326  38.957  10.947
62653W        W24074  12.811   3.737  12.932
62654W        W24075  44.490  24.133  14.958
62655W        W24076  35.376  19.268   3.769
62656W        W24077  16.774  40.904  13.977
62657W        W24078  32.457   1.741   0.838
62658W        W24079   1.346  14.212   4.812
62659W        W24080  30.492  29.047  11.973
62660W        W24081  42.423  44.765   3.213
62661W        W24082  30.530  43.876   3.672
62662W        W24083  24.128  32.516  14.973
62663W        W24084   3.890  33.419  10.492
62664W        W24085  15.123  18.683   4.223
62665W        W24086  13.346   9.703   3.840
62666W        W24087  29.612  39.047   0.886
62667W        W24088  23.655  41.503   0.727
62668W        W24089  10.248  19.545   4.813
62669W        W24090  39.849  36.062   0.395
62670W        W24091  40.835  18.664  10.889
62671W        W24092  24.053   3.337   1.872
62672W        W24093   3.740  12.206  10.531
62673W        W24094  39.048  27.101  10.589
62674W        W24095   0.408   7.376  10.925
62675W        W24096  22.624  42.309  11.046
62676W        W24097  31.637  24.670   4.753
62677W        W24098  12.281   3.818  14.842
62678W        W24099  28.643  27.968  14.914
62679W        W24100  43.910  44.305   3.208
62680W        W24101   7.726  21.153   1.783
62681W        W24102   2.324   2.295   2.778
62682W        W24103  20.202  40.802  12.564
62683W        W24104   9.163  20.567   0.471
62684W        W24105   4.253  44.306   1.237
62685W        W24106   4.216  15.642  11.082
62686W        W24107  15.665  12.241   1.737
62687W        W24108  30.486   4.859   3.630
62688W        W24109  22.580  24.072   1.319
62689W        W24110  39.874  31.997   0.324
62690W        W24111  27.955  41.910   2.272
62691W        W24112  30.926   1.923   4.825
62692W        W24113  41.031  18.625   4.803
62693W        W24114   1.901  19.719  11.949
62694W        W24115  38.925   9.788  11.991
62695W        W24116   2.896  29.959  13.908
62696W        W24117  40.977  18.637   2.382
62697W        W24118  33.389  12.692   4.262
62698W        W24119   6.222  23.106  13.324
62699W        W24120  17.191  14.133   0.960
62700W        W24121  29.043   4.805  10.630
62701W        W24122  33.985  21.521  13.340
62702W        W24123   8.824  21.017  14.410
62703W        W24124   0.844   2.345  13.446
62704W        W24125  23.184  35.107   1.889
62705W        W24126  28.623  13.317   3.830
62706W        W24127   2.269  18.595   2.833
62707W        W24128   2.346  31.975  11.901
62708W        W24129  17.791   8.892  13.466
62709W        W24130   0.743  38.393  14.508
62710W        W24131  35.065  20.747  14.393
62711W        W24132   7.210   3.718  10.065
62712W        W24133  20.270  18.222   1.747
62713W        W24134  21.734  11.772  13.316
62714W        W24135  37.578   9.832   2.228
62715W        W24136  13.167   7.190   4.787
62716W        W24137  28.519  18.735  11.399
62717W        W24138  12.679   6.252   4.725
62718W        W24139  14.270  35.006  14.289
62719W        W24140  16.690  30.472  14.371
62720W        W24141   8.724  40.386  11.878
62721W        W24142  22.604  29.028  13.415
62722W        W24143  25.639  24.985  10.600
62723W        W24144  12.317  25.590   0.788
62724W        W24145  15.783  41.381   4.733
62725W        W24146  34.570  28.118  12.846
62726W        W24147  36.026  13.614  12.863
62727W        W24148  35.368  42.951  10.630
62728W        W24149  44.860  15.723  14.901
62729W        W24150  30.417   4.909   5.096
62730W        W24151  27.662   5.196   2.823
62731W        W24152  24.181  24.107   0.912
62732W        W24153  42.888  13.823  13.053
62733W        W24154  34.464   8.879  13.419
62734W        W24155   2.964  26.595  14.874
62735W        W24156   7.364  15.740   2.712
62736W        W24157  28.975  11.151   1.815
62737W        W24158  15.741   0.874  13.343
62738W        W24159  24.102   6.690  12.988
62739W        W24160   6.800  14.324  12.074
62740W        W24161   9.655  37.497  13.451
62741W        W24162   0.391  21.628  12.059
62742W        W24163  20.533  19.690  13.329
62743W        W24164   8.756  24.210  12.532
62744W        W24165  33.972  42.991  13.536
62745W        W24166  30.032  16.139   2.716
62746W        W24167  14.755   1.307   4.118
62747W        W24168  19.763  11.819   4.736
62748W        W24169  24.093  44.401  12.986
62749W        W24170   6.712  30.607  11.057
62750W        W24171  25.626  31.911   5.178
62751W        W24172  19.228  27.473   1.229
62752W        W24173  17.567  43.890   3.767
62753W        W24174  14.289  38.859   3.672
62754W        W24175   1.825  18.626   1.900
62755W        W24176  26.962  33.944  12.902
62756W        W24177  18.251  11.753   0.323
62757W        W24178  34.900  33.071   1.226
62758W        W24179   4.244  17.264  11.042
62759W        W24180  30.925  41.793  11.073
62760W        W24181  10.309  35.064   3.682
62761W        W24182  22.068  12.721   3.859
62762W        W24183  15.793   4.434   3.800
62763W        W24184   6.885   8.384   1.863
62764W        W24185  26.642  26.657  13.361
62765W        W24186  36.512  14.286  14.854
62766W        W24187  40.999   7.829   2.868
62767W        W24188  33.020  42.450   3.809
62768W        W24189  25.134  23.514   2.668
62769W        W24190  20.749  30.524   4.199
62770W        W24191  26.512  36.490   4.633
62771W        W24192  29.115  21.696   4.249
62772W        W24193   7.376  22.509   1.379
62773W        W24194  25.547  43.481  11.864
62774W        W24195   2.794  17.641   0.426
62775W        W24196  39.368   6.922  11.608
62776W        W24197  21.728  41.795  14.410
62777W        W24198  35.567   9.722   0.252
62778W        W24199  26.535  39.811  10.526
62779W        W24200  43.461  11.355  10.921
62780W        W24201  19.067   0.267   1.767
62781W        W24202   1.463   5.205   4.341
62782W        W24203  31.522   5.851   0.962
62783W        W24204  36.390  21.594  12.089
62784W        W24205  39.335  28.640  12.090
62785W        W24206  44.503  33.564  14.005
62786W        W24207  14.252  36.554  12.844
62787W        W24208  11.215  27.492   1.252
62788W        W24209   8.816  39.407  10.626
62789W        W24210  23.629  27.563   2.849
62790W        W24211  37.521  41.932   1.261
62791W        W24212   0.330  40.018  13.843
62792W        W24213   8.696   8.791  13.818
62793W        W24214  35.367  18.648   1.845
62794W        W24215  44.816   6.260  11.467
62795W        W24216  15.646  20.523  12.985
62796W        W24217  27.654  41.465  10.532
62797W        W24218  29.666  44.366  10.483
62798W        W24219  10.767  18.108   4.623
62799W        W24220  35.039   7.266  14.454
62800W        W24221  39.889  29.985   4.815
62801W        W24222  12.187  42.523   2.340
62802W        W24223  31.571  17.193   2.392
62803W        W24224   4.386  25.636  14.425
62804W        W24225  37.493  34.948  11.494
62805W        W24226  31.546  36.576  12.885
62806W        W24227  14.310   0.897   5.283
62807W        W24228   2.856   1.476  13.347
62808W        W24229  20.073  19.619   2.386
62809W        W24230  31.512  21.065   4.350
62810W        W24231  29.565  28.168   3.220
62811W        W24232  19.175  17.576   1.247
62812W        W24233   6.750  28.056   4.218
62813W        W24234  26.115  36.935  13.323
62814W        W24235  20.094  19.702   5.246
62815W        W24236  18.247   8.200  13.858
62816W        W24237   5.908   3.727   3.287
62817W        W24238  30.078  13.129   2.192
62818W        W24239  29.426  30.164   0.884
62819W        W24240  30.973  22.657   4.715
62820W        W24241  30.650  29.647   3.188
62821W        W24242  28.952  19.049   1.437
62822W        W24243  44.463  41.311   3.273
62823W        W24244   4.809  29.073  12.832
62824W        W24245   6.310  40.370  14.436
62825W        W24246  13.703  43.007   1.403
62826W        W24247  25.184  23.699  12.428
62827W        W24248  12.656   3.953   0.387
62828W        W24249  25.502  30.014  14.335
62829W        W24250  12.190  36.853  14.895
62830W        W24251  36.588  14.145   3.279
62831W        W24252   9.230  18.563  12.513
62832W        W24253   4.244  27.125   2.835
62833W        W24254  38.469   1.246   1.870
62834W        W24255  29.492   7.781  14.879
62835W        W24256  37.420  36.006  10.004
62836W        W24257  38.825  13.174  11.899
62837W        W24258  11.240  36.891  13.046
62838W        W24259  27.177  26.459  14.495
62839W        W24260  40.354  41.800   2.719
62840W        W24261   1.826  22.052  10.439
62841W        W24262  41.901  32.532   4.139
62842W        W24263  38.062   3.234   4.217
62843W        W24264  30.559  34.578   3.387
62844W        W24265  16.611  11.722  13.824
62845W        W24266  26.040  27.647  10.960
62846W        W24267  39.962  31.083   0.406
62847W        W24268   7.823  36.886  10.413
62848W        W24269  37.940  23.691  11.399
62849W        W24270  34.570   9.325   3.213
62850W        W24271  22.698  44.815   3.233
62851W        W24272  21.251   8.290  14.858
62852W        W24273   5.309  12.311   4.195
62853W        W24274  15.184  26.090   3.175
62854W        W24275  12.193  39.398   0.732
62855W        W24276  32.511  13.730  13.865
62856W        W24277  17.623   0.458   2.804
62857W        W24278  14.801  27.577   3.316
62858W        W24279  25.120   9.341  12.484
62859W        W24280  34.430  31.087  12.893
62860W        W24281  20.248  10.801   2.876
62861W        W24282  21.713  27.636  13.513
62862W        W24283  40.451  24.221  11.864
62863W        W24284  11.624  17.199   0.946
62864W        W24285   8.362  14.232   3.652
62865W        W24286  10.640  41.867  13.014
62866W        W24287  26.503  18.057   3.162
62867W        W24288  41.407   8.742   0.420
62868W        W24289  19.274  17.145  10.629
62869W        W24290   1.244   2.948   4.750
62870W        W24291  31.985   3.798  12.832
62871W        W24292   8.770  28.611   4.292
62872W        W24293  10.152  43.398   3.815
62873W        W24294   1.928   2.288  13.503
62874W        W24295  13.230  32.615   0.422
62875W        W24296  18.696  16.110  11.906
62876W        W24297   6.198  12.168   3.754
62877W        W24298   1.462  35.604  12.449
62878W        W24299  14.831  18.277   1.869
62879W        W24300   7.753  28.472   3.251
62880W        W24301  38.566  42.903   1.356
62881W        W24302  34.439   7.725   2.185
62882W        W24303  35.594  23.539  10.635
62883W        W24304  22.724  30.538  14.275
62884W        W24305  39.860  37.336  10.439
62885W        W24306  38.935  21.205   3.342
62886W        W24307  31.031  13.177  12.538
62887W        W24308  43.780  41.441   0.404
62888W        W24309  10.357  19.169   2.292
62889W        W24310  12.846  20.666   2.781
62890W        W24311  41.965  42.961   3.219
62891W        W24312  12.308   7.184   4.721
62892W        W24313  40.444   1.396  12.913
62893W        W24314   8.300   3.405  14.923
62894W        W24315  19.068   1.747   2.415
62895W        W24316  32.610  25.179  13.983
62896W        W24317  32.613   3.847  11.013
62897W        W24318  10.162  41.447  10.607
62898W        W24319  17.203   4.385   0.915
62899W        W24320  37.915   6.806  13.819
62900W        W24321  41.023  29.457   4.798
62901W        W24322  25.688  23.531  13.854
62902W        W24323   6.221  33.488   1.366
62903W        W24324  38.334   3.244  10.500
62904W        W24325  12.789  36.569   1.802
62905W        W24326   7.391  14.679   3.281
62906W        W24327  31.939  43.484   2.244
62907W        W24328  36.506  10.155   2.673
62908W        W24329   9.191  32.636   1.875
62909W        W24330  22.159  23.555   3.366
62910W        W24331  14.790  39.315   0.833
62911W        W24332  27.533  15.636  14.849
62912W        W24333  20.069  20.182  12.063
62913W        W24334  37.539  18.146   2.709
62914W        W24335  36.578  29.152  11.978
62915W        W24336  22.538  39.371   0.261
62916W        W24337  35.417   8.661  12.423
62917W        W24338  27.554  17.117  10.466
62918W        W24339  29.984  28.560   2.684
62919W        W24340   0.276  36.979  13.329
62920W        W24341  33.468  32.085  10.527
62921W        W24342  41.916  31.116  14.987
62922W        W24343  27.029  13.321   1.913
62923W        W24344  18.205  17.273   0.915
62924W        W24345  33.489  40.426   3.194
62925W        W24346  28.591  31.532  12.844
62926W        W24347  31.572  39.322   1.440
62927W        W24348  39.953  35.433   2.254
62928W        W24349  22.036   3.271   0.362
62929W        W24350  26.657  42.900  14.960
62930W        W24351  20.602  41.385  12.378
62931W        W24352  15.713  21.142  10.123
62932W        W24353   8.258   1.429  10.993
62933W        W24354  44.761  17.074  14.400
62934W        W24355  35.403  21.728  12.954
62935W        W24356  33.992  31.068   4.146
62936W        W24357  18.564  34.466   1.441
62937W        W24358  19.590  42.411  12.562
62938W        W24359   8.260  28.978  11.550
62939W        W24360  20.166  21.160  14.274
62940W        W24361   9.826  25.629  11.117
62941W        W24362   4.424  38.381  11.958
62942W        W24363  32.622  40.386  13.395
62943W        W24364   7.317  18.561   0.846
62944W        W24365  29.460  25.017   5.083
62945W        W24366  30.547  38.416   0.395
62946W        W24367  40.463   3.321   3.718
62947W        W24368  12.834  25.502   0.887
62948W        W24369  35.865  32.907  12.824
62949W        W24370  35.874  38.398   4.609
62950W        W24371  18.570  34.015  11.549
62951W        W24372  21.049  19.612  10.561
62952W        W24373  40.905  39.894  13.508
62953W        W24374   3.415   7.804  14.491
62954W        W24375   9.217  29.460   0.359
62955W        W24376   8.394  21.632   0.465
62956W        W24377  19.125  37.930   2.880
62957W        W24378  31.959  16.146   2.818
62958W        W24379  37.481   4.432   3.220
62959W        W24380  12.616  24.028   1.441
62960W        W24381   4.420  37.395  10.427
62961W        W24382  40.862  15.685   5.790
62962W        W24383  13.753  44.355   0.801
62963W        W24384   3.877  33.411  12.897
62964W        W24385  22.147  44.917   2.823
62965W        W24386  22.577  38.962   3.843
62966W        W24387  44.457  38.039   0.801
62967W        W24388  25.520  41.331   5.138
62968W        W24389  44.988  26.108   3.660
62969W        W24390   8.316  11.629   1.901
62970W        W24391  23.643  17.754  13.048
62971W        W24392  26.597  25.708   1.277
62972W        W24393   5.393  33.921   9.943
62973W        W24394  38.848  31.085  13.425
62974W        W24395  14.193  39.825   1.856
62975W        W24396  28.660  31.621   3.694
62976W        W24397  43.900  41.439   4.727
62977W        W24398  32.103  39.859   4.644
62978W        W24399  30.957  15.128  10.083
62979W        W24400   6.875   6.216   3.346
62980W        W24401  29.995  26.173   0.951
62981W        W24402  28.082   9.264   2.395
62982W        W24403  25.689  30.025  10.588
62983W        W24404  15.765  38.508   4.816
62984W        W24405  16.619  34.375   0.907
62985W        W24406  44.809  33.922  12.565
62986W        W24407  27.617  15.148  14.988
62987W        W24408  13.281  22.165  12.397
62988W        W24409  37.430   5.737  13.800
62989W        W24410   1.289  12.231   0.799
62990W        W24411  17.749  18.753   0.349
62991W        W24412  13.674  18.784  14.844
62992W        W24413  17.588  12.160  13.802
62993W        W24414  23.729   7.290  11.038
62994W        W24415  25.061   1.410  11.919
62995W        W24416  33.624  23.040   0.860
62996W        W24417   5.797  34.921   1.278
62997W        W24418  43.454  11.169   2.849
62998W        W24419  37.869  11.745   1.286
62999W        W24420  35.417  28.962  12.965
63000W        W24421  38.335  35.430   2.234
63001W        W24422  33.067  37.403   0.375
63002W        W24423   4.936  22.696   1.764
63003W        W24424   1.926   4.331   2.667
63004W        W24425  20.094  34.578   4.165
63005W        W24426  24.590  20.645   4.189
63006W        W24427  21.082  34.588   3.337
63007W        W24428  39.930  41.338   0.856
63008W        W24429  22.611  15.128   4.277
63009W        W24430   5.723  24.550  11.967
63010W        W24431  33.433  18.605   1.346
63011W        W24432   0.756  20.649   1.882
63012W        W24433   4.800  19.615  12.903
63013W        W24434  33.874  13.652  12.520
63014W        W24435  33.572  13.764  11.412
63015W        W24436   9.259  21.226  13.846
63016W        W24437  37.399  25.507   4.169
63017W        W24438  17.144   5.207   0.926
63018W        W24439  21.638  40.026  12.552
63019W        W24440  21.753  12.649   1.881
63020W        W24441   4.910   5.410   0.776
63021W        W24442  21.250  33.926   2.360
63022W        W24443  10.194  30.659  12.874
63023W        W24444  17.639   0.797  12.007
63024W        W24445  24.680  28.659  11.480
63025W        W24446  30.590  21.707   3.248
63026W        W24447   3.944  15.163   1.834
63027W        W24448  22.129   2.880   2.418
63028W        W24449  41.403  44.945  13.913
63029W        W24450   8.283   9.874  11.107
63030W        W24451  14.647  35.511  10.494
63031W        W24452  29.645   3.293  14.779
63032W        W24453   4.889  36.421  10.606
63033W        W24454   9.157  11.770   4.246
63034W        W24455  16.775  41.794   0.474
63035W        W24456  22.043  26.620   0.748
63036W        W24457  24.681  37.021   3.205
63037W        W24458  28.003  30.420   4.730
63038W        W24459  11.140  24.205  14.759
63039W        W24460  18.137  11.640  14.852
63040W        W24461  34.370   1.455  10.945
63041W        W24462  23.605  28.101  14.961
63042W        W24463  39.405  34.964   1.218
63043W        W24464   6.783  14.219  10.971
63044W        W24465   9.831   7.765  13.964
63045W        W24466  17.078  17.682   4.259
63046W        W24467   4.373  17.210  11.535
63047W        W24468  26.086  18.790   3.188
63048W        W24469  40.410  15.811  13.802
63049W        W24470  18.603  26.002   2.851
63050W        W24471  26.191   3.886   1.274
63051W        W24472  37.969  33.903   0.910
63052W        W24473  36.886  33.121  12.852
63053W        W24474  24.070  37.492  14.875
63054W        W24475   9.226  27.000   1.898
63055W        W24476  43.329  31.098  11.474
63056W        W24477  44.497  29.925   0.757
63057W        W24478   2.760  16.202  12.989
63058W        W24479  17.752  23.113  10.937
63059W        W24480  11.680   6.320  11.380
63060W        W24481  39.487  19.090   4.143
63061W        W24482  32.477  23.723   2.308
63062W        W24483  28.099   7.282  12.040
63063W        W24484   7.711   7.251   0.357
63064W        W24485  36.071   6.910  14.976
63065W        W24486  34.877  42.794   2.285
63066W        W24487  32.109  29.576   1.712
63067W        W24488   1.808  18.284   3.262
63068W        W24489  30.055  32.138  11.514
63069W        W24490  34.107   2.787   2.412
63070W        W24491  27.622  21.224   0.467
63071W        W24492  43.834  18.673  13.450
63072W        W24493   3.907  27.574  10.504
63073W        W24494  34.522  12.816  13.469
63074W        W24495   0.357   4.752   2.403
63075W        W24496  18.273  16.736  10.606
63076W        W24497  42.816  18.576  12.429
63077W        W24498  40.487   2.467  11.387
63078W        W24499  39.846  23.645   4.259
63079W        W24500  35.384  15.797   3.303
63080W        W24501  11.641  18.107   2.755
63081W        W24502   9.863  14.133  13.045
63082W        W24503  35.385  20.636  13.856
63083W        W24504  27.531  19.228   0.933
63084W        W24505   8.851  41.970  14.858
63085W        W24506  37.414  16.683  11.007
63086W        W24507  38.442  28.007  11.898
63087W        W24508  23.183  31.922  12.488
63088W        W24509  25.987  29.465   0.794
63089W        W24510  29.919   6.747  14.821
63090W        W24511  30.452  13.344   0.814
63091W        W24512  38.001   9.240   1.299
63092W        W24513  26.479  35.001  11.455
63093W        W24514  33.982  25.211  11.425
63094W        W24515  40.329  15.617  10.587
63095W        W24516   8.319  44.805  11.107
63096W        W24517  24.695  24.539  13.848
63097W        W24518  12.297  41.347   0.429
63098W        W24519  17.295  14.297   4.290
63099W        W24520   5.333   1.404  11.967
63100W        W24521  23.048  29.459   0.885
63101W        W24522  13.275  13.180  13.518
63102W        W24523  19.628  11.207  10.102
63103W        W24524  29.529  11.292  13.422
63104W        W24525  12.830   3.388   4.640
63105W        W24526  33.048  31.597  13.320
63106W        W24527  38.920  13.825  11.928
63107W        W24528   3.386  29.466   1.230
63108W        W24529   1.936  20.063  13.000
63109W        W24530  21.204   8.676   0.444
63110W        W24531  23.702   5.881  11.895
63111W        W24532   9.318   5.240   2.375
63112W        W24533  32.413   8.697  11.542
63113W        W24534   2.329  33.540  12.565
63114W        W24535  29.016   3.385   2.708
63115W        W24536   7.892  29.651  11.976
63116W        W24537   9.320  17.072   3.790
63117W        W24538  37.902  15.711  12.080
63118W        W24539  31.941  27.507  14.017
63119W        W24540   4.930  41.882   4.215
63120W        W24541  40.048  18.645  14.498
63121W        W24542  23.720  38.006   1.404
63122W        W24543   0.936   1.328   2.671
63123W        W24544  18.771  37.460  14.987
63124W        W24545  36.850   4.234  11.551
63125W        W24546  19.766   3.790   0.955
63126W        W24547  33.592   2.958  13.029
63127W        W24548  10.202  29.963  13.884
63128W        W24549  33.994  26.108  11.410
63129W        W24550  19.134  26.654   1.790
63130W        W24551  17.589  27.111  11.419
63131W        W24552  13.223   2.346  11.459
63132W        W24553  36.441  41.006   2.328
63133W        W24554  11.745  26.101   4.793
63134W        W24555  28.509  30.422   0.798
63135W        W24556  18.608  42.527   4.157
63136W        W24557  36.439  40.816  13.844
63137W        W24558  36.999  38.996   1.734
63138W        W24559  11.793  24.030  10.965
63139W        W24560  22.534  18.076   4.599
63140W        W24561  26.662   3.264   4.322
63141W        W24562  17.596   2.870  10.441
63142W        W24563  35.570  38.498   4.680
63143W        W24564  44.828  10.815   0.246
63144W        W24565  20.700  31.527  11.595
63145W        W24566  32.110  34.401  12.435
63146W        W24567  40.864   7.401  12.874
63147W        W24568   2.886  29.131   1.374
63148W        W24569   5.803  14.644  11.530
63149W        W24570  22.157   7.358  12.961
63150W        W24571   3.335   0.303  12.085
63151W        W24572  25.505  11.845  13.377
63152W        W24573  34.875  44.392   4.249
63153W        W24574  15.650  15.298   3.380
63154W        W24575   1.925  23.721   4.345
63155W        W24576  44.819  16.194  11.590
63156W        W24577  10.252  27.653  14.374
63157W        W24578   4.936  21.229  11.527
63158W        W24579  17.732  39.536  14.457
63159W        W24580  15.134  28.502  10.139
63160W        W24581   5.214  36.538  12.397
63161W        W24582  20.634  43.778  10.494
63162W        W24583  36.469  18.702  12.926
63163W        W24584   2.441  14.324   2.701
63164W        W24585   7.747  35.580   1.259
63165W        W24586  10.652   7.223   1.705
63166W        W24587  36.369  26.187  11.018
63167W        W24588   2.958  42.991   3.166
63168W        W24589  24.492  42.824   1.408
63169W        W24590  33.444  25.649   1.700
63170W        W24591  18.203  41.810   1.898
63171W        W24592  25.687  14.209   3.300
63172W        W24593   5.898   2.751   1.796
63173W        W24594  42.810  29.523  12.990
63174W        W24595  12.826  10.849  14.336
63175W        W24596  12.360  10.850   0.813
63176W        W24597  14.736  10.684   0.960
63177W        W24598  21.709  10.213   4.352
63178W        W24599  11.657  32.104  12.411
63179W        W24600  26.169   4.284  12.580
63180W        W24601  31.899  41.927   1.224
63181W        W24602  24.116  33.001   0.443
63182W        W24603  38.046  21.128   1.332
63183W        W24604  27.979  12.235  10.152
63184W        W24605  17.112  39.851   1.412
63185W        W24606  32.057  30.977  14.338
63186W        W24607  37.955  43.918   1.852
63187W        W24608   4.920  16.222  10.608
63188W        W24609  42.935  40.949  13.980
63189W        W24610  11.751  30.561  13.350
63190W        W24611  27.465  36.515   4.827
63191W        W24612  24.995  23.168   0.371
63192W        W24613   0.482  19.728   4.311
63193W        W24614  32.045  30.437   0.400
63194W        W24615  12.807  27.034   1.375
63195W        W24616  15.703   5.864   4.775
63196W        W24617  17.163  39.026   0.305
63197W        W24618  34.462   0.486  14.899
63198W        W24619  39.839  29.511   3.790
63199W        W24620  10.859  33.467   1.221
63200W        W24621  12.188  40.051  11.969
63201W        W24622   2.755  29.014   1.935
63202W        W24623  41.294  18.237   1.787
63203W        W24624   7.779  29.147   4.256
63204W        W24625   2.890  43.019   1.409
63205W        W24626  12.347  24.187  14.978
63206W        W24627  40.008   8.327  12.423
63207W        W24628  24.570  33.998   1.870
63208W        W24629  28.538   3.384  13.000
63209W        W24630  18.577  26.156  12.838
63210W        W24631  40.461  43.446   1.705
63211W        W24632   8.896  34.990  10.590
63212W        W24633  10.869  14.628   4.240
63213W        W24634   6.346  40.040  11.580
63214W        W24635  22.591  44.981  13.445
63215W        W24636  40.398   9.274  14.825
63216W        W24637  38.477  14.689  11.454
63217W        W24638  38.450   1.386   3.841
63218W        W24639   7.332   7.848   4.812
63219W        W24640   7.881  14.796  11.397
63220W        W24641  11.826  43.357   1.230
63221W        W24642  42.807   4.739  11.383
63222W        W24643   7.300  23.097   4.312
63223W        W24644  23.054  19.611  14.865
63224W        W24645  10.270   3.748  12.374
63225W        W24646  42.295  39.353   0.830
63226W        W24647  30.521  14.655   3.760
63227W        W24648  13.821  14.234  10.973
63228W        W24649   6.266  29.056  11.927
63229W        W24650  32.921  39.393   0.481
63230W        W24651  35.954   3.389   0.457
63231W        W24652  28.026  43.790   0.303
63232W        W24653   3.856  19.657   2.817
63233W        W24654  41.497   4.338  12.568
63234W        W24655  36.903  22.233   1.894
63235W        W24656  10.196   8.722   9.937
63236W        W24657  43.776  25.508   2.671
63237W        W24658  22.172   4.442   2.365
63238W        W24659  13.688   3.365   2.320
63239W        W24660  30.532  13.235  11.493
63240W        W24661  42.389   0.375   0.414
63241W        W24662  13.697  13.165  13.442
63242W        W24663  37.492  12.682  12.047
63243W        W24664  16.201   3.818   1.278
63244W        W24665  14.835   6.389  13.365
63245W        W24666  10.658  29.127  12.004
63246W        W24667   7.301  39.385  14.366
63247W        W24668   2.456  44.416  13.922
63248W        W24669  18.546  44.286  11.902
63249W        W24670  44.353  23.585  12.397
63250W        W24671  16.760  26.616  11.983
63251W        W24672  32.515   7.329   3.164
63252W        W24673   1.250  25.620  14.469
63253W        W24674   6.771  38.862   3.854
63254W        W24675  16.248  17.166   4.145
63255W        W24676  16.094  32.558   2.807
63256W        W24677  42.864  36.554   3.676
63257W        W24678   1.764  16.678   1.832
63258W        W24679  10.688  22.200   2.866
63259W        W24680  43.387  10.812   2.363
63260W        W24681  22.089  32.468  14.448
63261W        W24682  26.137  19.743   4.689
63262W        W24683  38.011   9.757   0.265
63263W        W24684  11.326  33.507  13.872
63264W        W24685  20.250  13.261  11.519
63265W        W24686  41.523  28.939  11.589
63266W        W24687  27.083  27.087   1.317
63267W        W24688   5.407  10.636   2.666
63268W        W24689  33.462  34.901   0.872
63269W        W24690  13.802   9.743  13.010
63270W        W24691  32.500  40.954  12.513
63271W        W24692   2.874   3.256  11.583
63272W        W24693   2.440   4.919  10.891
63273W        W24694   6.383  38.410   9.549
63274W        W24695  12.321   5.691  14.853
63275W        W24696  43.471  23.660  11.430
63276W        W24697  41.821  30.081  14.944
63277W        W24698  34.941  28.118  10.478
63278W        W24699  19.074  24.539   1.863
63279W        W24700  29.024  44.872   2.750
63280W        W24701  37.873  27.646   2.374
63281W        W24702  39.901   4.877  10.962
63282W        W24703  38.061  37.439   2.880
63283W        W24704   8.322   0.392   3.204
63284W        W24705  23.547  30.993  14.836
63285W        W24706  23.581  17.722   2.279
63286W        W24707  25.701   5.858  11.942
63287W        W24708  42.307   5.433   1.908
63288W        W24709   0.988  34.932   3.154
63289W        W24710   4.286  17.597   1.857
63290W        W24711   4.704  40.431  11.406
63291W        W24712  18.182  12.169  11.910
63292W        W24713  11.858  25.129   2.188
63293W        W24714  38.040  29.055   1.927
63294W        W24715  28.041  20.240   3.344
63295W        W24716  25.611  10.377  11.573
63296W        W24717  14.308  39.819   2.682
63297W        W24718  29.523   1.894  11.916
63298W        W24719  44.399  36.075  13.978
63299W        W24720  27.556   8.721  14.452
63300W        W24721  38.898   0.304   3.861
63301W        W24722  31.589  29.039   1.320
63302W        W24723  16.168  38.389  14.986
63303W        W24724  34.423  32.023   2.873
63304W        W24725  44.457   6.308   2.798
63305W        W24726  42.341  19.575  13.046
63306W        W24727   7.861  15.208  12.510
63307W        W24728  25.026  34.449  11.963
63308W        W24729  22.066   6.240  14.449
63309W        W24730  18.055   3.749  14.482
63310W        W24731  38.488  15.712   1.789
63311W        W24732  12.196  37.910  13.810
63312W        W24733  39.495  38.072   0.313
63313W        W24734   0.934  42.514  12.396
63314W        W24735  31.538  22.080   2.796
63315W        W24736  40.419  30.959  14.874
63316W        W24737  22.232  43.859  11.528
63317W        W24738   1.371   1.409   4.658
63318W        W24739  36.908  42.519   3.845
63319W        W24740  42.783  11.283  12.056
63320W        W24741  42.467  43.955   4.315
63321W        W24742  28.074  15.641   1.698
63322W        W24743  15.747   6.810  13.373
63323W        W24744  43.970  11.849   0.433
63324W        W24745  30.122   2.763   0.424
63325W        W24746  29.100   4.795  14.496
63326W        W24747  41.843   4.841  11.086
63327W        W24748  18.785  35.992  13.792
63328W        W24749  12.693   0.428  11.124
63329W        W24750  14.278   1.285   3.645
63330W        W24751  38.840  35.379  11.085
63331W        W24752   9.717   4.328   2.751
63332W        W24753  38.520  38.484  12.901
63333W        W24754  10.639  39.968   5.248
63334W        W24755  27.568  32.582   0.966
63335W        W24756  37.517  42.343  12.508
63336W        W24757  38.914   6.772  12.089
63337W        W24758  33.075  11.143  12.436
63338W        W24759  35.549  19.194  11.564
63339W        W24760   1.305  17.087   0.251
63340W        W24761  25.489  36.526   0.341
63341W        W24762  21.237  27.063  13.904
63342W        W24763  40.420  26.560   5.309
63343W        W24764   4.736   2.289  11.867
63344W        W24765  20.726  37.986   2.365
63345W        W24766  34.106  10.186   2.233
63346W        W24767  36.991  15.723  13.376
63347W        W24768  37.034  15.138  13.877
63348W        W24769  29.448  36.946   1.703
63349W        W24770  24.999  18.746   4.797
63350W        W24771   8.849  41.858  11.461
63351W        W24772  28.611  24.722   0.311
63352W        W24773  19.649  26.065   4.629
63353W        W24774  43.884  39.856  11.548
63354W        W24775  26.645   0.760   1.857
63355W        W24776  32.547  19.102  13.498
63356W        W24777  30.080  21.685   0.242
63357W        W24778  24.125  37.548  12.404
63358W        W24779  33.973   1.949  13.878
63359W        W24780  34.938  40.451  13.339
63360W        W24781  10.311  35.866  11.064
63361W        W24782  31.535  23.562  12.876
63362W        W24783  43.899  37.058   0.279
63363W        W24784  15.763   7.391  13.334
63364W        W24785  21.515  39.442   3.321
63365W        W24786  13.269  20.642   0.767
63366W        W24787  43.866  11.196   2.343
63367W        W24788   9.716  25.075   4.284
63368W        W24789  17.736  10.716   2.873
63369W        W24790   6.376   7.284  13.009
63370W        W24791   6.896  32.585   3.683
63371W        W24792  12.710  43.921   2.826
63372W        W24793  15.092  33.096   2.197
63373W        W24794  16.603  18.683  13.009
63374W        W24795  37.366  23.987  13.365
63375W        W24796  41.420   7.867  11.040
63376W        W24797   2.890  19.755  11.546
63377W        W24798   2.758   1.287   0.802
63378W        W24799   7.688  10.192  14.931
63379W        W24800  24.559   7.302   3.836
63380W        W24801   2.261  38.925   4.718
63381W        W24802  29.499   6.826   0.816
63382W        W24803  38.967  43.401   0.880
63383W        W24804  18.769  32.050   3.313
63384W        W24805   8.725  15.111  10.517
63385W        W24806  11.264  33.908  13.808
63386W        W24807  30.074  38.447   0.732
63387W        W24808  41.974  29.601  14.344
63388W        W24809  24.579  22.541   3.794
63389W        W24810  23.041  42.426   4.204
63390W        W24811  29.002  37.575   0.876
63391W        W24812  36.977  29.621   4.137
63392W        W24813   2.792  17.704   3.291
63393W        W24814  12.260  41.804  10.510
63394W        W24815  24.143  12.204   3.193
63395W        W24816  44.362   4.833  13.529
63396W        W24817  20.597   8.354   0.287
63397W        W24818  28.960  20.629   3.275
63398W        W24819  42.834  28.630  10.590
63399W        W24820  21.734  29.664  13.429
63400W        W24821   1.918  21.635   0.804
63401W        W24822  44.378  13.140   5.188
63402W        W24823   3.402  44.990   5.155
63403W        W24824  30.161  41.348   3.207
63404W        W24825  34.488   1.917  11.103
63405W        W24826  42.974  43.304  11.477
63406W        W24827  31.445  14.597   0.894
63407W        W24828  40.851  13.638  12.914
63408W        W24829  29.654  42.428   0.250
63409W        W24830  32.584   8.364  13.854
63410W        W24831  22.503  15.590  14.401
63411W        W24832  16.788  31.511   3.195
63412W        W24833   4.846  30.040  11.028
63413W        W24834   6.350  41.400  10.613
63414W        W24835  22.667  20.109  14.476
63415W        W24836   4.706  32.543   3.148
63416W        W24837  32.950  43.912   4.745
63417W        W24838  39.350  24.497  12.509
63418W        W24839  41.306   4.941   1.412
63419W        W24840  12.685  37.905  14.499
63420W        W24841  11.704  15.111  11.966
63421W        W24842  36.912  10.695  12.085
63422W        W24843  26.069  41.494   4.661
63423W        W24844  29.111  39.916  14.381
63424W        W24845  26.025  34.399   2.879
63425W        W24846  27.490   8.844  14.854
63426W        W24847  20.100  20.118   0.410
63427W        W24848  16.755  32.531   1.727
63428W        W24849  34.585  35.951   4.653
63429W        W24850  42.459  15.807   0.799
63430W        W24851  31.130  35.367  14.493
63431W        W24852  18.190  12.334   4.354
63432W        W24853  42.010  27.034   3.647
63433W        W24854  21.207  10.730  13.798
63434W        W24855  32.972  19.113   1.348
63435W        W24856  16.147  23.062  14.905
63436W        W24857  28.944  12.206   0.833
63437W        W24858  32.030  16.743  13.864
63438W        W24859  13.681  26.078  10.577
63439W        W24860  27.487   6.408  12.553
63440W        W24861  40.322  29.557  12.914
63441W        W24862  44.892  30.065  11.462
63442W        W24863  40.898  31.570  12.403
63443W        W24864  36.522   9.771  13.422
63444W        W24865  25.614  35.081  14.946
63445W        W24866  39.839   8.740   4.251
63446W        W24867   3.376  23.066  13.455
63447W        W24868   6.250  15.586  13.363
63448W        W24869   6.826  17.728  14.476
63449W        W24870  31.918  38.878  14.450
63450W        W24871   8.351  29.643  13.546
63451W        W24872  21.118  27.948   5.317
63452W        W24873   6.884  13.738   2.318
63453W        W24874   5.215  22.721   0.919
63454W        W24875  29.049  13.633   9.953
63455W        W24876  10.186   3.240   0.760
63456W        W24877  26.574  32.459   4.734
63457W        W24878   0.454  10.716  14.360
63458W        W24879   9.693  40.461   1.727
63459W        W24880  23.643  30.084   2.225
63460W        W24881   6.229   9.332   1.442
63461W        W24882  32.617   6.182  14.894
63462W        W24883  40.951  26.108   2.232
63463W        W24884  23.496  20.587  14.502
63464W        W24885  17.085  34.104   3.684
63465W        W24886  12.669   2.899  10.977
63466W        W24887  37.956  27.098  13.353
63467W        W24888  39.057  27.951  12.036
63468W        W24889  26.044  42.380  11.914
63469W        W24890   3.429  26.984   0.462
63470W        W24891  32.957  31.423  14.983
63471W        W24892  34.059  41.445  13.400
63472W        W24893  18.676  14.332   1.212
63473W        W24894  27.540  28.665  14.973
63474W        W24895  24.704  29.094   3.379
63475W        W24896  13.178   4.243  12.079
63476W        W24897  44.428  34.998   1.421
63477W        W24898  37.579   0.947  14.397
63478W        W24899  18.562  18.621  11.106
63479W        W24900  22.723  38.427   2.802
63480W        W24901  24.105  17.307  14.768
63481W        W24902  22.607  20.603  13.538
63482W        W24903  27.549  26.516   0.841
63483W        W24904  33.457  12.825  12.893
63484W        W24905  44.000  16.713  13.893
63485W        W24906  28.027  43.900  14.008
63486W        W24907   2.775  43.879   4.316
63487W        W24908  26.965  35.572  11.003
63488W        W24909  27.965  22.731   9.970
63489W        W24910  26.149  17.577  11.127
63490W        W24911  22.100   9.159  14.009
63491W        W24912  31.630  21.755  14.379
63492W        W24913  11.250  42.900   2.784
63493W        W24914   9.736  38.434   9.462
63494W        W24915  17.075  32.135   3.676
63495W        W24916  33.003  35.549  14.834
63496W        W24917  32.903  24.692  11.019
63497W        W24918  35.598   2.867   3.676
63498W        W24919  28.021  40.490   1.782
63499W        W24920   0.491   1.292  10.994
63500W        W24921  21.536  34.998  14.356
63501W        W24922  43.843   5.831   2.706
63502W        W24923  33.990  26.005   0.941
63503W        W24924  14.101  44.495  14.780
63504W        W24925  43.839  32.012   2.736
63505W        W24926  31.417  40.440   1.727
63506W        W24927  21.693  40.030   1.818
63507W        W24928  42.386  31.496   2.369
63508W        W24929  37.872   6.772  13.002
63509W        W24930   7.856  44.909   0.279
63510W        W24931  41.434  36.507   3.199
63511W        W24932  30.142  10.346   1.298
63512W        W24933  28.172  28.647  13.467
63513W        W24934  24.635  28.137  14.372
63514W        W24935  32.480  34.452   4.755
63515W        W24936   0.920  21.132  11.547
63516W        W24937  14.774  30.110   1.723
63517W        W24938  37.989  40.317  11.508
63518W        W24939  44.948  41.482  11.984
63519W        W24940   7.198  44.886  12.918
63520W        W24941  27.472  36.515  11.373
63521W        W24942   7.903  24.529  14.914
63522W        W24943  26.697  42.359   1.295
63523W        W24944  10.322  43.924   0.453
63524W        W24945  14.729  43.371  13.932
63525W        W24946  31.422  19.582  14.996
63526W        W24947  11.224  12.278   4.623
63527W        W24948   8.259  44.845  14.888
63528W        W24949  18.096  16.764   1.240
63529W        W24950   5.744  34.007   3.331
63530W        W24951   2.348  29.473  13.538
63531W        W24952  40.336   5.320   0.474
63532W        W24953   7.882  32.938   1.293
63533W        W24954  31.513   6.420  13.851
63534W        W24955  39.440   3.862  12.088
63535W        W24956  41.789  23.136  12.935
63536W        W24957  27.485   4.433   2.780
63537W        W24958  42.465  25.197   0.874
63538W        W24959   3.366  17.307  13.049
63539W        W24960  12.199  18.209   0.407
63540W        W24961  28.147  30.941   4.819
63541W        W24962  41.029  24.022   0.459
63542W        W24963  13.709  28.521  12.009
63543W        W24964  11.862  30.450  12.008
63544W        W24965   7.864  36.556  12.975
63545W        W24966  29.617  18.288   3.304
63546W        W24967   6.725   1.915  10.464
63547W        W24968   5.788  26.104   5.097
63548W        W24969  25.617  26.592  10.565
63549W        W24970  31.137  13.197   1.282
63550W        W24971  38.891  31.119  12.472
63551W        W24972  25.977  36.406  12.387
63552W        W24973  33.985  13.135  13.063
63553W        W24974  38.988  15.142   4.253
63554W        W24975  44.349  34.612  13.813
63555W        W24976  34.952  38.028  10.531
63556W        W24977   1.444  39.011  14.836
63557W        W24978  24.567  42.503  14.482
63558W        W24979  35.870  42.834   2.406
63559W        W24980   6.698  10.185  13.048
63560W        W24981  17.597  29.101  14.400
63561W        W24982  29.435  28.638   3.372
63562W        W24983  16.176   9.223  14.376
63563W        W24984   3.294  22.050  12.839
63564W        W24985  20.731   9.814  14.513
63565W        W24986   6.688  18.154   0.384
63566W        W24987  27.135   4.705  13.024
63567W        W24988  13.683  18.064   1.298
63568W        W24989  17.282  17.291   3.743
63569W        W24990   1.313   0.866  14.434
63570W        W24991  44.880  34.913  13.917
63571W        W24992   3.378  24.122   1.744
63572W        W24993  32.624  20.107   2.743
63573W        W24994  42.285  30.125  14.358
63574W        W24995  44.263   7.884   9.961
63575W        W24996  27.145   7.245   3.311
63576W        W24997  31.474  36.357  13.348
63577W        W24998  35.952   8.314   1.916
63578W        W24999  28.469  14.178  12.860
63579W        W25000  44.762   8.338   1.242
63580W        W25001  37.429  29.648   2.188
63581W        W25002  33.108  16.603  10.899
63582W        W25003   2.905  32.039  14.362
63583W        W25004  39.020  22.726  13.874
63584W        W25005  24.513  34.899  12.509
63585W        W25006   5.922  18.124   3.298
63586W        W25007  32.479  33.102  11.456
63587W        W25008  21.712  32.020   1.432
63588W        W25009  17.237   3.376  10.028
63589W        W25010  17.123  39.900   3.209
63590W        W25011   6.803   4.353   3.291
63591W        W25012  10.699  39.025   2.213
63592W        W25013  26.957  38.901   3.801
63593W        W25014  12.706  23.641   1.258
63594W        W25015  39.427  39.423   4.254
63595W        W25016  31.426  36.929   3.792
63596W        W25017  36.991  10.644  13.865
63597W        W25018  16.592  28.470   3.326
63598W        W25019   4.927  43.495   4.309
63599W        W25020  38.059  32.421  13.905
63600W        W25021  29.105  21.624  13.941
63601W        W25022  42.346  26.155   4.197
63602W        W25023  18.269  18.615   4.631
63603W        W25024  25.997  10.819  13.835
63604W        W25025  17.088  21.591   0.288
63605W        W25026  17.672  13.636   2.789
63606W        W25027  24.004  38.542  11.609
63607W        W25028  29.947   4.298   0.258
63608W        W25029  36.516  25.167   0.380
63609W        W25030   6.391  39.331  13.428
63610W        W25031  30.559  35.864  13.921
63611W        W25032  25.020  18.198   2.788
63612W        W25033  17.090   4.934   0.374
63613W        W25034  40.445  28.675   3.853
63614W        W25035  11.354   6.181  10.482
63615W        W25036  24.674  44.812  14.442
63616W        W25037  19.222   5.826  12.528
63617W        W25038  40.439  26.105  13.819
63618W        W25039  20.680   2.243   1.281
63619W        W25040  39.376   7.839  11.514
63620W        W25041   0.780  27.953  12.916
63621W        W25042  25.202  22.653  13.945
63622W        W25043  19.249  25.972  13.471
63623W        W25044  34.594  10.711  10.617
63624W        W25045  22.174  12.727   9.928
63625W        W25046  26.024  35.465  13.407
63626W        W25047  11.720  16.799  12.405
63627W        W25048  35.060  27.453   4.787
63628W        W25049   2.404  41.913   1.883
63629W        W25050   4.259  32.026  11.038
63630W        W25051  31.902  33.542  10.523
63631W        W25052  29.669  29.576  13.044
63632W        W25053   8.263   0.280   0.425
63633W        W25054  16.083  13.118   9.964
63634W        W25055  25.031   1.764  13.386
63635W        W25056  16.712  41.889  10.491
63636W        W25057  22.709  21.556   2.303
63637W        W25058  30.504  14.187  12.041
63638W        W25059  25.979  18.170   4.174
63639W        W25060  40.935   4.344  12.903
63640W        W25061  35.002  16.282   4.685
63641W        W25062  38.545   1.802   1.386
63642W        W25063   9.150  34.932  13.510
63643W        W25064  40.352  29.026   3.651
63644W        W25065  11.837  14.336  14.342
63645W        W25066   1.317  42.864   4.668
63646W        W25067  17.619  28.047  14.923
63647W        W25068   5.396   3.782  13.402
63648W        W25069  42.400   1.782  10.613
63649W        W25070   9.193  32.067   3.361
63650W        W25071  10.734  34.391   2.770
63651W        W25072   0.961  38.891  11.459
63652W        W25073   2.354  30.144  12.073
63653W        W25074  15.222   9.745   0.272
63654W        W25075   0.298  22.611  10.443
63655W        W25076  12.146  43.352   0.303
63656W        W25077  43.314  28.143  11.989
63657W        W25078   5.693  30.438  11.062
63658W        W25079  34.538  23.682   2.337
63659W        W25080  25.509   3.879   2.364
63660W        W25081  33.894  16.097   2.362
63661W        W25082  14.317  36.450  13.478
63662W        W25083  28.632  10.236  14.873
63663W        W25084  25.485   2.307   3.213
63664W        W25085  29.520  18.638  13.487
63665W        W25086  35.942  37.904  14.473
63666W        W25087  38.518  14.638  10.943
63667W        W25088  21.601  16.155   2.320
63668W        W25089  13.291  36.088  12.956
63669W        W25090   1.430  20.259  13.385
63670W        W25091  10.157  16.206   1.240
63671W        W25092  22.605   6.732  12.024
63672W        W25093  19.640  18.226  12.997
63673W        W25094  22.603  42.456  12.908
63674W        W25095  40.361  17.596  10.030
63675W        W25096  27.596  19.745  10.569
63676W        W25097  38.334  41.996  13.387
63677W        W25098  14.696  38.892   1.359
63678W        W25099  36.495  21.243  11.031
63679W        W25100  19.266  29.620   0.913
63680W        W25101  27.161  22.677   1.782
63681W        W25102  30.125  33.579  12.515
63682W        W25103  36.030  11.775  13.397
63683W        W25104  13.695  15.721  12.414
63684W        W25105   9.730  34.072   4.181
63685W        W25106  34.992  14.320   1.263
63686W        W25107   0.825  28.454   2.768
63687W        W25108  44.927  23.704  13.867
63688W        W25109  29.041  14.734   4.636
63689W        W25110  14.821  35.030  10.601
63690W        W25111  28.498  43.303  10.446
63691W        W25112  24.983  25.652   2.197
63692W        W25113  42.337  11.725  10.576
63693W        W25114   7.877   2.230  13.829
63694W        W25115  13.790  26.140   1.872
63695W        W25116  28.969   1.268   0.897
63696W        W25117  20.530  39.863   1.847
63697W        W25118  26.695  38.897  14.818
63698W        W25119  44.988  40.982  12.428
63699W        W25120  30.060  13.698  14.798
63700W        W25121  15.165   9.822  11.013
63701W        W25122  36.973  34.900   4.318
63702W        W25123  30.512  35.009  11.541
63703W        W25124  41.461  29.994  13.982
63704W        W25125  10.209  16.226  10.937
63705W        W25126  30.050  27.670  10.585
63706W        W25127  16.600  33.596  12.049
63707W        W25128  13.812   2.941   2.814
63708W        W25129  41.413  16.140  10.565
63709W        W25130  12.852  34.897   2.214
63710W        W25131  24.719  40.359  11.864
63711W        W25132  29.954  21.685   2.332
63712W        W25133   7.342   9.154  12.035
63713W        W25134  43.769  41.804   3.721
63714W        W25135  18.207  15.595  13.956
63715W        W25136  23.703  41.528   2.355
63716W        W25137  40.361   8.215   4.828
63717W        W25138   4.840  16.627   2.801
63718W        W25139  31.580  20.685   2.315
63719W        W25140  38.004  17.149   2.235
63720W        W25141   2.328  37.380  10.127
63721W        W25142  30.132  15.761  13.422
63722W        W25143   6.816  21.097   2.746
63723W        W25144  31.634  17.660  12.072
63724W        W25145   4.260  34.590   4.811
63725W        W25146  40.812  42.306  12.965
63726W        W25147  11.766  27.970   0.320
63727W        W25148  32.995  32.103  12.352
63728W        W25149  37.064  30.605  13.882
63729W        W25150  30.142  19.697   3.743
63730W        W25151  39.844   8.788  14.436
63731W        W25152  20.682   6.825  12.864
63732W        W25153  21.735  16.713  14.505
63733W        W25154  13.262  32.417  14.967
63734W        W25155   9.381  33.917  11.604
63735W        W25156  19.779   8.689  14.900
63736W        W25157   5.818  37.568  12.034
63737W        W25158   1.780  17.279   4.803
63738W        W25159  32.030  44.769   0.355
63739W        W25160  12.229   0.434   4.755
63740W        W25161  16.210  11.807  10.504
63741W        W25162  10.645  13.177   2.663
63742W        W25163   8.696  41.397  13.037
63743W        W25164  24.518  10.801   4.803
63744W        W25165  43.020  41.976   5.142
63745W        W25166   0.880  18.722  11.389
63746W        W25167  16.654  13.108  11.598
63747W        W25168  18.777  27.672  14.004
63748W        W25169  43.453  28.579   4.125
63749W        W25170  38.380   0.828   0.456
63750W        W25171  33.562  14.217   3.678
63751W        W25172  18.253  29.051  14.379
63752W        W25173  32.503   7.205  11.894
63753W        W25174   5.196  36.485   2.183
63754W        W25175  17.698   0.824   2.297
63755W        W25176  25.665  16.625  10.588
63756W        W25177   8.170  25.605  14.280
63757W        W25178  43.294  11.373   0.875
63758W        W25179  12.724  30.005  11.451
63759W        W25180   8.406  11.847  10.440
63760W        W25181  13.804  30.529   3.691
63761W        W25182  43.385  22.146   1.893
63762W        W25183   4.796  33.083   1.808
63763W        W25184  36.035  32.936   2.329
63764W        W25185  17.677  40.390   4.234
63765W        W25186  10.206   4.273   2.781
63766W        W25187   7.182  22.581   0.773
63767W        W25188  26.015   3.924  13.507
63768W        W25189  15.782  38.414  10.018
63769W        W25190  40.341  28.111  11.052
63770W        W25191  10.254  44.893   0.279
63771W        W25192  42.794  11.311   4.793
63772W        W25193  22.016  28.553  11.023
63773W        W25194   5.246  27.570  11.968
63774W        W25195  12.294   7.831  12.361
63775W        W25196  14.212  44.320  14.511
63776W        W25197   3.792   5.731  12.475
63777W        W25198  27.194  17.091   3.233
63778W        W25199  22.692  25.628   1.874
63779W        W25200  32.906  38.019  13.530
63780W        W25201  18.549  20.225  11.898
63781W        W25202  34.411  27.064   3.316
63782W        W25203  25.067   0.821   1.895
63783W        W25204  29.432  23.121   3.165
63784W        W25205   9.209  40.385  14.922
63785W        W25206  10.739  14.132   1.311
63786W        W25207  32.392  26.185  11.083
63787W        W25208   4.700  16.633   1.728
63788W        W25209   2.879  35.889   2.893
63789W        W25210  14.762   8.880  13.939
63790W        W25211  13.785   4.769  12.038
63791W        W25212  30.955  28.642   4.742
63792W        W25213   6.769  23.206  13.908
63793W        W25214  44.906   9.658  11.014
63794W        W25215   9.732  20.538   2.243
63795W        W25216   7.309  27.110  13.319
63796W        W25217   8.697  25.646   1.316
63797W        W25218  13.312  15.118   0.406
63798W        W25219  35.572  20.606   1.354
63799W        W25220  30.430  43.904  13.821
63800W        W25221  17.676  29.517  12.357
63801W        W25222  41.355  31.532  11.467
63802W        W25223  36.454   3.732  12.882
63803W        W25224  30.056  26.693   3.689
63804W        W25225   8.252  22.169   2.230
63805W        W25226  14.753  16.250  13.526
63806W        W25227  33.978   0.414  11.582
63807W        W25228  39.487  30.007   2.693
63808W        W25229  21.706   2.729   4.291
63809W        W25230  15.172  23.582  13.972
63810W        W25231  41.453  44.863   0.383
63811W        W25232  10.168  17.719   4.215
63812W        W25233  41.038  25.485  14.289
63813W        W25234  20.174  26.066   1.365
63814W        W25235  43.516  12.719   2.376
63815W        W25236  28.987  21.212  13.459
63816W        W25237  14.170   0.481   4.732
63817W        W25238  27.665   0.378  10.934
63818W        W25239  36.475  10.681   2.713
63819W        W25240  26.179   2.755   1.775
63820W        W25241   6.250   3.943   1.447
63821W        W25242  30.006  24.707  11.049
63822W        W25243  16.785  17.624   1.447
63823W        W25244  12.185  19.554   2.856
63824W        W25245   3.263  11.867   0.424
63825W        W25246   9.788  32.034   3.271
63826W        W25247  37.957  36.436  13.498
63827W        W25248   9.702   6.358  13.439
63828W        W25249  19.780  32.625  13.408
63829W        W25250  39.428  30.916  14.774
63830W        W25251  23.163  17.265  14.430
63831W        W25252  24.664  17.622   2.790
63832W        W25253  26.050  16.097  12.344
63833W        W25254  44.400  36.488  14.872
63834W        W25255  39.984  20.230  13.469
63835W        W25256  37.507   2.920   0.879
63836W        W25257  33.892   5.730  11.446
63837W        W25258  38.521   6.232   4.720
63838W        W25259  10.144  42.784   4.710
63839W        W25260  31.108  34.523   2.400
63840W        W25261  44.311   8.826  12.414
63841W        W25262  18.774  30.158   0.257
63842W        W25263   8.782  41.024   3.832
63843W        W25264  26.030  28.633  11.590
63844W        W25265  10.688  25.165  14.835
63845W        W25266  24.123  37.857   0.818
63846W        W25267  43.867  42.943  10.440
63847W        W25268  28.139  35.504  14.969
63848W        W25269  23.081   6.722   4.712
63849W        W25270  38.355   7.233   2.687
63850W        W25271   3.750  28.585   4.335
63851W        W25272  42.336  28.641   0.744
63852W        W25273  11.767  18.671   2.768
63853W        W25274   8.262  43.463  13.460
63854W        W25275  38.569  26.594   4.745
63855W        W25276  44.442  39.025   1.419
63856W        W25277   0.913  10.846   4.249
63857W        W25278  23.079  27.074   2.827
63858W        W25279  24.981  25.104   2.228
63859W        W25280  12.784   4.773  14.955
63860W        W25281  26.073   0.359   2.773
63861W        W25282  20.266  32.632   0.454
63862W        W25283  30.529  13.619  10.013
63863W        W25284  31.620  25.112   3.753
63864W        W25285  35.512   1.428   1.695
63865W        W25286  25.052   8.824  13.931
63866W        W25287  26.688  11.813   3.664
63867W        W25288  16.120  16.214  10.469
63868W        W25289   1.794  29.656   4.793
63869W        W25290  13.742  11.837  14.955
63870W        W25291  30.986  16.593   5.676
63871W        W25292   4.789  44.465   5.307
63872W        W25293  33.430   1.284  12.522
63873W        W25294  22.078  41.849   2.285
63874W        W25295  16.222  11.822  11.930
63875W        W25296  27.638  43.445  13.882
63876W        W25297  20.088   5.435  12.525
63877W        W25298  23.074  10.873   4.215
63878W        W25299  43.933  20.643  14.835
63879W        W25300  32.056  35.101   5.284
63880W        W25301  30.045  13.690   1.769
63881W        W25302  28.115  42.398  13.475
63882W        W25303  24.036   2.786  11.419
63883W        W25304  24.612  36.997  14.795
63884W        W25305  36.914  38.930   0.731
63885W        W25306  38.359  10.668   2.391
63886W        W25307  27.195  14.736  14.003
63887W        W25308  20.112   1.908  12.838
63888W        W25309  29.596  15.193  14.829
63889W        W25310   8.717  33.542  11.494
63890W        W25311  33.620  27.049   4.658
63891W        W25312  10.666  14.820   4.807
63892W        W25313  26.549   9.719  14.985
63893W        W25314  26.694   3.716   4.306
63894W        W25315   0.906  16.083   2.384
63895W        W25316  21.552  42.851  12.877
63896W        W25317  39.333   2.748   0.348
63897W        W25318  27.541  16.600   3.289
63898W        W25319  41.523  23.624  13.970
63899W        W25320  17.065   6.832   3.848
63900W        W25321  34.517  29.571  10.553
63901W        W25322  36.444  37.916  14.952
63902W        W25323  31.062  43.004  14.761
63903W        W25324  44.799  25.041   4.721
63904W        W25325  34.066  39.536   1.345
63905W        W25326   0.815  39.019   3.715
63906W        W25327   3.357  31.434   3.682
63907W        W25328   7.329  32.950   3.764
63908W        W25329  10.858  40.840  14.302
63909W        W25330   5.435  41.332   4.715
63910W        W25331   9.806  18.766  14.964
63911W        W25332  10.318  25.046  13.410
63912W        W25333  11.205  37.869   2.326
63913W        W25334   3.906  31.965  13.047
63914W        W25335  38.863  35.022  14.793
63915W        W25336   7.251  24.035   1.244
63916W        W25337  14.793  24.670  12.475
63917W        W25338   6.915  39.386   1.358
63918W        W25339  38.557  30.649   2.863
63919W        W25340   8.759   1.881   1.400
63920W        W25341  34.571  37.498  14.027
63921W        W25342  36.013  15.203   1.757
63922W        W25343   6.396   1.401   0.321
63923W        W25344   3.759   4.448   1.746
63924W        W25345  17.736  17.066  14.794
63925W        W25346  28.628   7.174  13.930
63926W        W25347  14.634  39.444  12.345
63927W        W25348  21.249   2.731   3.268
63928W        W25349   4.341  37.386  14.458
63929W        W25350  33.439  29.649  12.984
63930W        W25351  14.660  35.417   4.212
63931W        W25352  21.698   7.171   3.671
63932W        W25353  42.446   4.743  12.341
63933W        W25354  17.573  39.042   0.370
63934W        W25355  36.559  38.051   3.312
63935W        W25356  25.139  35.553  10.949
63936W        W25357  29.512  41.420  14.023
63937W        W25358  33.592  31.075  11.489
63938W        W25359  20.089  37.084   3.857
63939W        W25360  21.225   8.381   3.707
63940W        W25361  20.083  27.187   1.233
63941W        W25362   0.820   1.288   2.291
63942W        W25363  36.888  15.264  12.367
63943W        W25364  22.596  11.244   2.295
63944W        W25365   6.229   4.938   1.376
63945W        W25366   8.358  44.908   3.724
63946W        W25367   6.726  21.598   0.738
63947W        W25368  31.066  11.347   4.611
63948W        W25369  22.596  14.233   5.311
63949W        W25370  35.471   7.858  13.971
63950W        W25371  14.789  25.579   1.405
63951W        W25372  21.249  25.507   3.699
63952W        W25373   9.380  31.582   4.762
63953W        W25374  31.461  20.245  13.320
63954W        W25375  22.201   6.694   3.181
63955W        W25376  32.912  42.331   2.257
63956W        W25377  41.898   4.411   3.692
63957W        W25378  34.608  44.963  11.011
63958W        W25379  26.591  33.949  10.930
63959W        W25380   9.803  31.438   2.897
63960W        W25381  26.200  41.805   3.300
63961W        W25382  30.624  24.979  12.488
63962W        W25383  30.135  23.220  13.538
63963W        W25384   8.203  30.977   2.730
63964W        W25385  39.923  29.022   4.670
63965W        W25386  21.024  36.965  14.326
63966W        W25387  11.814   5.316   2.329
63967W        W25388  17.208  43.784  10.614
63968W        W25389  43.828  14.318   3.321
63969W        W25390  18.290  35.454   2.873
63970W        W25391  37.871   0.810   4.683
63971W        W25392  28.085   3.439   3.723
63972W        W25393  21.673  40.484  13.500
63973W        W25394  41.377   1.784   2.728
63974W        W25395  22.219  16.674   2.887
63975W        W25396  24.169  21.225   4.276
63976W        W25397  29.568  15.697  14.898
63977W        W25398  42.288  32.499  13.367
63978W        W25399  23.690  13.341   3.764
63979W        W25400  35.547   2.966   3.309
63980W        W25401  33.508  14.616  14.509
63981W        W25402  27.111  41.345  12.377
63982W        W25403   2.898  41.447  13.387
63983W        W25404   3.800  13.241  11.117
63984W        W25405   7.796   5.325   4.145
63985W        W25406   3.394   0.976  11.504
63986W        W25407  25.594   4.839  12.411
63987W        W25408  39.347  43.813  14.841
63988W        W25409   4.798  40.032  12.352
63989W        W25410   2.901  31.926   2.289
63990W        W25411  44.839   3.835  11.858
63991W        W25412  10.789  43.000   4.787
63992W        W25413  19.159   5.401  12.021
63993W        W25414  40.975  42.806  13.060
63994W        W25415   5.806  33.060   3.679
63995W        W25416  16.662  41.302  11.402
63996W        W25417   0.452  20.147  11.375
63997W        W25418  33.920  22.996   2.695
63998W        W25419  41.356  38.339  14.333
63999W        W25420  27.127  42.291  14.295
64000W        W25421   0.981  24.638  13.333
64001W        W25422   0.368  41.857  14.886
64002W        W25423  37.064  31.135   2.752
64003W        W25424  42.310  38.541  10.440
64004W        W25425  23.020  32.622  11.986
64005W        W25426   3.344  43.988   0.357
64006W        W25427   0.746  17.581  12.890
64007W        W25428  13.656  19.155   1.704
64008W        W25429  40.852  13.191  14.471
64009W        W25430  13.815   6.278  14.889
64010W        W25431  37.052  42.810  12.501
64011W        W25432  24.712  26.670  11.497
64012W        W25433  25.603  33.964   2.313
64013W        W25434  42.428  27.640   1.359
64014W        W25435  23.612   9.788   4.645
64015W        W25436  37.838  33.888   1.754
64016W        W25437  31.420   0.277  11.972
64017W        W25438  29.436  29.653  11.527
64018W        W25439  23.509  36.853  12.839
64019W        W25440  14.715  23.140   0.332
64020W        W25441  32.006   8.232   1.405
64021W        W25442  31.084  37.086   2.741
64022W        W25443  21.179  17.598   2.386
64023W        W25444  32.983  31.976  14.341
64024W        W25445  24.072  18.572   1.911
64025W        W25446  40.327   3.250  10.126
64026W        W25447  35.031  12.194   1.724
64027W        W25448   0.352   5.333   3.225
64028W        W25449   0.421   0.837  13.492
64029W        W25450  20.215  11.652  11.118
64030W        W25451  11.789  41.857   0.946
64031W        W25452  18.670  38.074  11.465
64032W        W25453  39.408   8.339   3.165
64033W        W25454  36.936  37.515   4.215
64034W        W25455  33.031  16.264  11.904
64035W        W25456   2.430  41.428  10.485
64036W        W25457  15.134  11.162  12.403
64037W        W25458  27.126  36.948  12.047
64038W        W25459   2.888   9.721  12.419
64039W        W25460  14.752  11.171  10.526
64040W        W25461  37.835  23.177  12.083
64041W        W25462  15.207  21.207   0.799
64042W        W25463  16.166  29.650  14.963
64043W        W25464  36.434  26.155  14.856
64044W        W25465  35.066  28.997  14.475
64045W        W25466  23.565  44.408   1.287
64046W        W25467  37.908  12.764   2.180
64047W        W25468  40.986  41.812  12.556
64048W        W25469  38.011  28.633   3.315
64049W        W25470  36.491  42.787   4.619
64050W        W25471   3.767  22.035  13.925
64051W        W25472  39.540  30.076   2.270
64052W        W25473   0.973  26.192  10.501
64053W        W25474  15.236  38.409  14.505
64054W        W25475   3.361  22.602  10.913
64055W        W25476  25.551  34.090   1.443
64056W        W25477   6.284   5.820   2.182
64057W        W25478  17.659  37.419  12.840
64058W        W25479  36.411  23.696  14.907
64059W        W25480  10.376  33.003   4.310
64060W        W25481  21.690  31.024  10.985
64061W        W25482  16.665  40.848  13.494
64062W        W25483  10.840   2.241  14.400
64063W        W25484   3.854  33.938   4.269
64064W        W25485  18.572   9.325   1.336
64065W        W25486  15.579  10.705  12.018
64066W        W25487  29.547  36.484   3.859
64067W        W25488  16.675   0.395  13.311
64068W        W25489  38.842  22.224   1.877
64069W        W25490  24.986  15.108   3.348
64070W        W25491   1.398  27.648  10.994
64071W        W25492  17.731   7.333   0.966
64072W        W25493  14.199  14.125   0.400
64073W        W25494  10.814  20.175  14.312
64074W        W25495  16.668  39.448  10.434
64075W        W25496  29.014  23.183  12.037
64076W        W25497  42.345  40.852   0.376
64077W        W25498   8.268  38.354   0.763
64078W        W25499  23.236   9.243  14.776
64079W        W25500  34.518   6.805  12.904
64080W        W25501   1.262  30.556  14.808
64081W        W25502  42.840   9.348  11.856
64082W        W25503  27.177  11.168   0.965
64083W        W25504   0.858  25.163   2.417
64084W        W25505   4.832  36.515  14.832
64085W        W25506  38.354  31.507   0.327
64086W        W25507  22.652  21.570   0.363
64087W        W25508  33.499  24.973  12.513
64088W        W25509  15.717  13.686  14.495
64089W        W25510  24.680   9.820  12.499
64090W        W25511   5.380  44.342  11.032
64091W        W25512  35.007  19.631  12.362
64092W        W25513  25.602  24.493   2.801
64093W        W25514  35.557  13.815   0.419
64094W        W25515  31.968  11.727   5.768
64095W        W25516  37.365  31.000   5.263
64096W        W25517  25.009  26.078  10.893
64097W        W25518  29.527   9.839  12.055
64098W        W25519  32.960  23.146   2.244
64099W        W25520  17.750  31.018   0.476
64100W        W25521  20.616  18.707  14.818
64101W        W25522  44.309   0.435  14.932
64102W        W25523  18.168   2.887  11.111
64103W        W25524  18.624  17.165   5.183
64104W        W25525  35.531  29.626  14.760
64105W        W25526  10.331  35.590  13.520
64106W        W25527  21.177  12.150   0.915
64107W        W25528  26.625  19.577  12.457
64108W        W25529  39.516  28.940  12.863
64109W        W25530  20.131   5.225   5.646
64110W        W25531  35.567   2.344  12.083
64111W        W25532  18.704  29.543  14.866
64112W        W25533   9.393  29.052   5.261
64113W        W25534   9.778  29.619  10.412
64114W        W25535  26.142  13.621  12.491
64115W        W25536   5.782  33.423  12.551
64116W        W25537  24.668  15.810   0.376
64117W        W25538  19.550  25.161   0.847
64118W        W25539  29.635   7.744  12.562
64119W        W25540   3.324  21.036   3.734
64120W        W25541  32.114  32.413  11.436
64121W        W25542  28.957  33.510   1.772
64122W        W25543  34.479  37.023  13.548
64123W        W25544   8.335  38.929   1.224
64124W        W25545  10.762  38.496  11.071
64125W        W25546  42.804  23.532   4.118
64126W        W25547  13.300   7.887   1.769
64127W        W25548   6.414  25.111  13.949
64128W        W25549  11.796  26.576  10.962
64129W        W25550  42.947  25.634   2.236
64130W        W25551  22.605  10.659  12.365
64131W        W25552   4.939  14.198   2.794
64132W        W25553  26.051  19.734  14.459
64133W        W25554   8.661  37.461   2.272
64134W        W25555  40.489  35.942  14.769
64135W        W25556  17.710  10.242  14.931
64136W        W25557   0.854  26.685  13.011
64137W        W25558  43.951  17.077   4.738
64138W        W25559   3.742  32.583  12.931
64139W        W25560  37.442  41.961   4.286
64140W        W25561   6.733   4.392   1.723
64141W        W25562  36.925  34.047   0.403
64142W        W25563  32.887  27.514   1.225
64143W        W25564  11.827  19.765  13.991
64144W        W25565  19.654  26.469   1.363
64145W        W25566  12.834  36.015   0.277
64146W        W25567  30.039  31.103  13.027
64147W        W25568  19.606  24.662   2.355
64148W        W25569   3.856  27.942  14.977
64149W        W25570  24.995   5.843   3.207
64150W        W25571   2.261  23.671   5.098
64151W        W25572   1.853  18.744   3.726
64152W        W25573  40.950  30.471   4.322
64153W        W25574  35.038  18.726  10.515
64154W        W25575  18.052  18.644  14.857
64155W        W25576   1.374  21.701   0.962
64156W        W25577  35.460  35.107   4.265
64157W        W25578  14.612  41.808   2.221
64158W        W25579   0.470  28.661   2.689
64159W        W25580  37.347  27.030   1.749
64160W        W25581  35.361   9.207  13.497
64161W        W25582   1.770   6.756  13.968
64162W        W25583   9.228  24.996   1.424
64163W        W25584  35.439   2.242   3.262
64164W        W25585  37.403  34.950   4.619
64165W        W25586  16.801  20.104   2.353
64166W        W25587  19.578  41.407   4.755
64167W        W25588  20.553  38.560  12.930
64168W        W25589  43.410  38.328   0.456
64169W        W25590  22.159  32.531  13.521
64170W        W25591  21.199  31.564   0.764
64171W        W25592   5.871  21.589   4.763
64172W        W25593  24.486  16.215  10.509
64173W        W25594   7.209   6.686   4.327
64174W        W25595  18.641   6.792  12.374
64175W        W25596  27.461  38.327  12.576
64176W        W25597  15.618  13.742  14.014
64177W        W25598  30.010  12.740   0.373
64178W        W25599  16.717  44.956   2.306
64179W        W25600  15.103   0.347   0.729
64180W        W25601  26.573   5.339   0.903
64181W        W25602  41.901   2.798   4.612
64182W        W25603  17.728  17.663  12.061
64183W        W25604  14.682   6.189  10.988
64184W        W25605  12.649   0.396   0.390
64185W        W25606   8.658  26.989   3.218
64186W        W25607  26.170  15.206  14.320
64187W        W25608  23.536  19.043  13.419
64188W        W25609  26.168  15.097  11.496
64189W        W25610  10.716  17.070  10.601
64190W        W25611   5.208  28.507  11.395
64191W        W25612  37.875  16.290   0.933
64192W        W25613  11.327   1.315  13.527
64193W        W25614  36.099   3.399   3.193
64194W        W25615   8.824  39.319  14.865
64195W        W25616  29.560  17.180   1.842
64196W        W25617  21.696  18.676  11.014
64197W        W25618  27.065  35.570  11.518
64198W        W25619  11.359  31.142   0.881
64199W        W25620  24.505   6.692  14.436
64200W        W25621   0.423   4.885  11.914
64201W        W25622  19.156  37.546   0.954
64202W        W25623   3.388  34.017   2.228
64203W        W25624  30.139   5.907   4.345
64204W        W25625   1.479  37.376  12.430
64205W        W25626  10.203   1.332   3.794
64206W        W25627  15.287  20.208  14.890
64207W        W25628  33.603  36.426   4.683
64208W        W25629  15.772  40.322   5.152
64209W        W25630  23.165  32.457  12.563
64210W        W25631  36.505  40.302  12.377
64211W        W25632  36.365   4.926  13.929
64212W        W25633  16.144  17.172  11.493
64213W        W25634  42.441  26.537   3.162
64214W        W25635  24.600  42.902  13.370
64215W        W25636   4.767  32.953   0.795
64216W        W25637  17.674  42.922   1.233
64217W        W25638  33.413  19.719   3.220
64218W        W25639  12.778  37.929   5.184
64219W        W25640   7.886  25.577  12.480
64220W        W25641  35.920  15.589   4.766
64221W        W25642  11.313  17.181  12.516
64222W        W25643  12.644   9.693  10.420
64223W        W25644  16.716  37.393  13.978
64224W        W25645  35.503  43.916   1.437
64225W        W25646  27.174  41.898   0.354
64226W        W25647  39.862   4.761   1.860
64227W        W25648  19.741  17.249  13.410
64228W        W25649  20.136  15.322  14.381
64229W        W25650  36.527  39.508  12.413
64230W        W25651  34.042  29.662   0.284
64231W        W25652  37.557  37.338  14.903
64232W        W25653  34.396   2.468   3.350
64233W        W25654   6.241   8.398  12.094
64234W        W25655  10.752   9.256  12.062
64235W        W25656  15.105  14.690  10.898
64236W        W25657  41.873  41.827  14.353
64237W        W25658  30.630  20.581   1.223
64238W        W25659  11.845  10.756   3.374
64239W        W25660  30.515  34.115   1.770
64240W        W25661   7.806  25.662  11.484
64241W        W25662  26.061  12.856  11.522
64242W        W25663   4.897  41.378   4.825
64243W        W25664  36.981  28.455   2.803
64244W        W25665  37.906  10.801   0.925
64245W        W25666   1.811  29.597   3.312
64246W        W25667  21.598   7.268  14.386
64247W        W25668  18.170  11.868  13.329
64248W        W25669  39.404  30.494  11.518
64249W        W25670  43.786  36.396  10.642
64250W        W25671  32.503  42.381  14.409
64251W        W25672  38.905  41.999  14.435
64252W        W25673  13.687  29.459   0.421
64253W        W25674  31.958   0.373  14.760
64254W        W25675  21.703  18.229  10.912
64255W        W25676   8.801  23.714  12.899
64256W        W25677  39.314  14.737  13.360
64257W        W25678  18.050  35.994   0.416
64258W        W25679  34.407  43.902   0.385
64259W        W25680  19.685  31.058  10.621
64260W        W25681  27.157  39.420   2.746
64261W        W25682  44.867   9.241   1.858
64262W        W25683  33.429  21.680   5.156
64263W        W25684   7.768  25.197  10.098
64264W        W25685  11.312  34.995  14.877
64265W        W25686  21.131  25.528   0.272
64266W        W25687  21.101   3.791  14.826
64267W        W25688  35.537  34.947   0.341
64268W        W25689  22.737  30.925  11.865
64269W        W25690  38.909  42.420   1.803
64270W        W25691  12.272  22.648   4.182
64271W        W25692  39.441  40.854   2.854
64272W        W25693  30.155  29.160  10.630
64273W        W25694  11.707  12.330   0.922
64274W        W25695   3.277  27.599   3.858
64275W        W25696  40.497  42.023  13.475
64276W        W25697  41.381  39.468   1.821
64277W        W25698  40.909  31.967   4.272
64278W        W25699  15.731  38.048   0.777
64279W        W25700  31.097  14.307   0.814
64280W        W25701  40.515  35.386   0.819
64281W        W25702  42.458  28.528   3.209
64282W        W25703  11.674  21.229   3.316
64283W        W25704  34.019  43.489  13.903
64284W        W25705  26.958  19.065  11.870
64285W        W25706  37.427   1.787   0.360
64286W        W25707   4.916  43.317   4.796
64287W        W25708  30.994  32.603  12.467
64288W        W25709  11.822  20.702   0.297
64289W        W25710  23.202  20.677   1.820
64290W        W25711   0.337   6.278  12.966
64291W        W25712   8.747  40.882  13.356
64292W        W25713  42.031  27.981  11.907
64293W        W25714  36.900  13.218   2.182
64294W        W25715  33.912  18.562   0.872
64295W        W25716  23.636  24.149  11.375
64296W        W25717  35.360   6.308   2.185
64297W        W25718  16.078  35.879   1.427
64298W        W25719  25.013  39.432   3.705
64299W        W25720   0.978   1.263  11.021
64300W        W25721  30.937  28.521   2.881
64301W        W25722   2.326  11.264  14.989
64302W        W25723  34.579   5.198   4.661
64303W        W25724  31.052   6.418  13.937
64304W        W25725  11.322  31.641  13.414
64305W        W25726  21.609  13.346  14.910
64306W        W25727  19.617   4.306  10.535
64307W        W25728  37.577   2.824   2.289
64308W        W25729  27.029   3.281  14.411
64309W        W25730   3.285   8.897  14.442
64310W        W25731  20.639   9.257   3.681
64311W        W25732   1.439   5.788   1.854
64312W        W25733   4.759   3.835   4.651
64313W        W25734  26.683  41.495  12.964
64314W        W25735  21.036  10.687   1.822
64315W        W25736  12.617  36.503   2.736
64316W        W25737  27.621  42.899   1.351
64317W        W25738  26.138  33.908   0.911
64318W        W25739  17.262  20.610   2.888
64319W        W25740   0.949  22.685   2.669
64320W        W25741  28.615   3.835  13.540
64321W        W25742  29.008  34.974   4.708
64322W        W25743  42.960  34.073   4.831
64323W        W25744  40.370   5.777   9.974
64324W        W25745  34.385  42.412   4.167
64325W        W25746  28.156  20.104   4.170
64326W        W25747  15.813  18.648   1.386
64327W        W25748   7.330  19.650  13.909
64328W        W25749  19.110  12.250   3.740
64329W        W25750  29.034  31.608   3.634
64330W        W25751  20.681  13.272  14.314
64331W        W25752  42.817  18.686  10.612
64332W        W25753  38.885  40.373   4.209
64333W        W25754  10.173  13.828  14.324
64334W        W25755   7.203   8.848  12.444
64335W        W25756  18.058  21.659   0.875
64336W        W25757   1.847  12.192   4.623
64337W        W25758   2.885  35.998   4.254
64338W        W25759  39.316   3.921   0.451
64339W        W25760  11.165  15.731   0.306
64340W        W25761  11.322  33.095   3.202
64341W        W25762  23.023  28.070   0.321
64342W        W25763  44.454  36.575  14.366
64343W        W25764  17.750  28.575  14.005
64344W        W25765  44.938  27.952   2.771
64345W        W25766  35.043  42.280  14.960
64346W        W25767  38.426   9.277  14.278
64347W        W25768  36.929  41.495  14.018
64348W        W25769  43.809   2.953   3.179
64349W        W25770  40.325   2.254   0.879
64350W        W25771   8.166  34.494   4.149
64351W        W25772  30.558  26.971  14.373
64352W        W25773   2.831  21.572   3.829
64353W        W25774  33.966  12.221  11.604
64354W        W25775  44.819  12.763   2.310
64355W        W25776  41.024  37.466  11.945
64356W        W25777  40.334   3.335   0.258
64357W        W25778  18.250  40.953   4.146
64358W        W25779   9.717  42.995   4.624
64359W        W25780  16.197  40.336  13.350
64360W        W25781  38.372  31.016   4.751
64361W        W25782  26.510  35.930  12.471
64362W        W25783  20.244   7.778   0.391
64363W        W25784  20.120   1.895  11.995
64364W        W25785  39.951  39.976  12.974
64365W        W25786   0.405  18.274   2.661
64366W        W25787  29.112  43.834  11.487
64367W        W25788  43.937   1.938  13.967
64368W        W25789   1.392  23.162   2.260
64369W        W25790  32.032  26.976  10.615
64370W        W25791   1.277  34.966  12.555
64371W        W25792   5.842  34.006  13.829
64372W        W25793  39.984  37.839  10.966
64373W        W25794   4.768  32.090  13.319
64374W        W25795   2.419  15.751   4.323
64375W        W25796  23.671  34.008  12.833
64376W        W25797   7.714  18.090   4.610
64377W        W25798  27.006   0.878  14.867
64378W        W25799  15.317  17.256  14.890
64379W        W25800   7.274  11.672   0.936
64380W        W25801  20.127  13.168   2.315
64381W        W25802   1.736   1.786   0.826
64382W        W25803  41.805  10.648  11.003
64383W        W25804  15.281  17.792   2.703
64384W        W25805  43.935  25.038   4.724
64385W        W25806  37.413  41.988   0.336
64386W        W25807  18.080  23.020  14.796
64387W        W25808  34.381  31.025  11.905
64388W        W25809  36.386  13.645  13.342
64389W        W25810  38.517   9.233   3.650
64390W        W25811  14.627  32.114   2.668
64391W        W25812  13.719   2.337   0.880
64392W        W25813   3.366  30.569   1.695
64393W        W25814   7.812  31.950  12.441
64394W        W25815  17.750  23.014  12.423
64395W        W25816   9.852  26.079  13.053
64396W        W25817  43.285  19.217   2.745
64397W        W25818  39.387   3.299  10.942
64398W        W25819  21.582  40.472   2.741
64399W        W25820  10.848   3.416   2.318
64400W        W25821  19.106   2.928   0.434
64401W        W25822  18.551  30.000   1.226
64402W        W25823   0.803   8.768  13.040
64403W        W25824   4.386  13.599  14.435
64404W        W25825  24.012   2.785   4.300
64405W        W25826  12.325  32.983   0.878
64406W        W25827  19.201   0.468   4.341
64407W        W25828   1.265  38.978   4.739
64408W        W25829   0.845   6.733   2.810
64409W        W25830   5.693  25.996  14.471
64410W        W25831  31.898  44.310  12.921
64411W        W25832  32.047   5.720  11.574
64412W        W25833  34.891   9.708   0.734
64413W        W25834   7.401  37.426   9.968
64414W        W25835  40.884  41.036  11.100
64415W        W25836  21.060  41.844  14.471
64416W        W25837  43.933  16.104   4.290
64417W        W25838  44.297   2.774   0.452
64418W        W25839  30.992  23.221  13.426
64419W        W25840  12.821  26.098  13.964
64420W        W25841  39.483  37.497   3.203
64421W        W25842  43.779  44.992   2.857
64422W        W25843  39.401  37.070   3.830
64423W        W25844  38.385  44.875   3.372
64424W        W25845  12.261  29.966  14.453
64425W        W25846  11.701  20.592  11.039
64426W        W25847   0.339  34.372   2.861
64427W        W25848  21.626  43.406  13.004
64428W        W25849  11.326  35.873   2.876
64429W        W25850  20.125  43.859   3.171
64430W        W25851  25.167  44.939  11.033
64431W        W25852  24.113   8.230   9.513
64432W        W25853  22.664  42.975   1.265
64433W        W25854  20.689  43.325  11.408
64434W        W25855   9.220  41.294  11.082
64435W        W25856  23.025  43.817  10.926
64436W        W25857  14.709  37.973   3.788
64437W        W25858  36.471   1.934  13.462
64438W        W25859  24.062  31.486   2.795
64439W        W25860   5.716  17.177   0.755
64440W        W25861  40.854  10.306  10.635
64441W        W25862  21.255  14.738  14.413
64442W        W25863   8.868   1.239  13.419
64443W        W25864  25.023   8.257   3.166
64444W        W25865  37.348  33.442   2.320
64445W        W25866   0.453  39.525  12.985
64446W        W25867   1.358  25.978   5.635
64447W        W25868  41.908  11.643  13.044
64448W        W25869  10.665   3.889  14.837
64449W        W25870  32.889  32.949   2.258
64450W        W25871  12.717  13.639   0.420
64451W        W25872  37.052  33.128  12.456
64452W        W25873   3.865  44.295  13.398
64453W        W25874  13.693  11.298  14.342
64454W        W25875  12.666   6.760   1.379
64455W        W25876  39.454   4.740  14.794
64456W        W25877  33.961  44.394   1.216
64457W        W25878  39.925  12.833  12.004
64458W        W25879  23.228  13.810   2.719
64459W        W25880   2.342   2.880   3.636
64460W        W25881  38.329  32.896   4.321
64461W        W25882  29.922  23.692   2.812
64462W        W25883  13.736   0.477  13.877
64463W        W25884  33.016  41.013  12.400
64464W        W25885  37.554  37.988  13.511
64465W        W25886   7.723  30.609   1.847
64466W        W25887  22.566   1.407   3.366
64467W        W25888  38.457  25.972   1.718
64468W        W25889  10.789  11.658   0.790
64469W        W25890  36.938  30.065  12.828
64470W        W25891  34.423  24.623  14.389
64471W        W25892  43.863  14.781  13.802
64472W        W25893  23.628  12.654  12.951
64473W        W25894   8.684  16.263   1.714
64474W        W25895  34.082  29.033   3.212
64475W        W25896  11.730  24.098   3.777
64476W        W25897  30.042  12.315  13.386
64477W        W25898   0.909  12.699   0.288
64478W        W25899  15.740  31.934  12.390
64479W        W25900  23.512  42.388   0.456
64480W        W25901  22.603  38.330  10.551
64481W        W25902  44.952  30.979  10.035
64482W        W25903  43.296  13.220  13.838
64483W        W25904   0.978   4.349  14.851
64484W        W25905  28.027   6.407  14.840
64485W        W25906  17.143  30.584   3.818
64486W        W25907  26.701   6.691  13.796
64487W        W25908  42.854  21.568   4.824
64488W        W25909   3.925  26.481   4.619
64489W        W25910  13.752  34.613   4.779
64490W        W25911  32.621  42.368  13.359
64491W        W25912  26.678  17.259  11.943
64492W        W25913  35.583  23.132  12.573
64493W        W25914  43.502  14.096   0.938
64494W        W25915  23.577  24.176   1.346
64495W        W25916   0.816  13.654   0.397
64496W        W25917   9.352  32.427  13.351
64497W        W25918  43.801  32.525   0.263
64498W        W25919  26.573   1.844  12.832
64499W        W25920   3.266  27.494  11.417
64500W        W25921  14.147  23.154   2.709
64501W        W25922   9.149  34.501  13.988
64502W        W25923  26.666  12.238   0.315
64503W        W25924  40.340  23.994   2.303
64504W        W25925  12.735   3.397   0.945
64505W        W25926   9.149  22.090   4.264
64506W        W25927  22.665   4.418  12.883
64507W        W25928  26.583  43.343   5.310
64508W        W25929  12.741  29.602   0.309
64509W        W25930  22.159  10.345   2.378
64510W        W25931  30.027  44.781   0.349
64511W        W25932  44.989  17.622  12.429
64512W        W25933   8.219  44.923   2.862
64513W        W25934  36.873  40.383   0.790
64514W        W25935  35.889  32.493  11.870
64515W        W25936  30.440   0.769  14.024
64516W        W25937   7.882   4.825   1.276
64517W        W25938  24.563  28.599   3.251
64518W        W25939  18.688  44.887  11.443
64519W        W25940  10.261   3.884  14.826
64520W        W25941  15.097  32.421  12.503
64521W        W25942  36.922  32.938  11.025
64522W        W25943  41.804  20.535   2.839
64523W        W25944  11.224   2.966  10.643
64524W        W25945  41.325   8.302  11.903
64525W        W25946   0.249  14.282  13.965
64526W        W25947  29.545  30.642   3.676
64527W        W25948  37.456   9.229   0.247
64528W        W25949  38.038   1.950  13.865
64529W        W25950  33.075  32.041   1.341
64530W        W25951   8.388  29.155  13.351
64531W        W25952  20.562  11.320   3.284
64532W        W25953  10.637  17.664  12.537
64533W        W25954   5.900   0.750   2.211
64534W        W25955  32.528   1.297   4.614
64535W        W25956  29.531  35.468  14.502
64536W        W25957  16.269   5.840   0.768
64537W        W25958  40.039  24.054   0.954
64538W        W25959  18.177  17.249  13.355
64539W        W25960  44.456   0.483  13.442
64540W        W25961   0.360  19.132   1.751
64541W        W25962  39.333  17.238  13.938
64542W        W25963   5.203   7.795  13.461
64543W        W25964  25.618  24.611   3.366
64544W        W25965  10.165  40.358  13.050
64545W        W25966  24.615  27.175   2.334
64546W        W25967  25.119  39.848  14.346
64547W        W25968   3.842  26.200   3.162
64548W        W25969  41.499  33.544  12.341
64549W        W25970  12.214  37.458  12.521
64550W        W25971  15.784  35.520  12.034
64551W        W25972  24.552  37.057  11.940
64552W        W25973  23.682  35.923  12.859
64553W        W25974  42.478  34.565   0.245
64554W        W25975   2.417  27.163  14.301
64555W        W25976  19.209  40.994   0.745
64556W        W25977  18.286  39.374  13.860
64557W        W25978  28.121  43.455  14.032
64558W        W25979  32.434  10.237   4.639
64559W        W25980   9.882   6.796  11.101
64560W        W25981   7.810  25.568   2.318
64561W        W25982   9.258  24.140  12.342
64562W        W25983  38.474  20.046  14.431
64563W        W25984  21.110   7.343   2.265
64564W        W25985  28.950  20.236   2.737
64565W        W25986  20.731  33.497   4.671
64566W        W25987  11.150  17.204  12.998
64567W        W25988  32.554   4.750   0.906
64568W        W25989   9.224  27.579   2.209
64569W        W25990  23.153  19.560  11.047
64570W        W25991  38.516   6.252   0.920
64571W        W25992  10.782  39.420  11.431
64572W        W25993  43.859   2.789  12.966
64573W        W25994   6.744  44.006  14.831
64574W        W25995  38.884  11.218  14.838
64575W        W25996  21.712  19.123   1.301
64576W        W25997   6.718  27.169  10.463
64577W        W25998   2.285  44.799  11.902
64578W        W25999  20.587   3.795  11.502
64579W        W26000  25.492   2.831  13.372
64580W        W26001   9.275   4.446  14.326
64581W        W26002  13.340  36.862   2.798
64582W        W26003  26.094   8.777   4.277
64583W        W26004   2.409  35.429   3.212
64584W        W26005  27.648   9.691   4.835
64585W        W26006  27.472  36.449   1.783
64586W        W26007  18.697   6.820  11.427
64587W        W26008  27.143  33.458  10.595
64588W        W26009  16.665  21.605  12.056
64589W        W26010   0.273  22.630  14.895
64590W        W26011   3.235  13.735  13.476
64591W        W26012  43.410  25.661   4.296
64592W        W26013   7.882   0.397   4.753
64593W        W26014  11.127  23.626  14.295
64594W        W26015   4.902  18.153  13.895
64595W        W26016  30.025  16.247   3.635
64596W        W26017  33.535  21.165  11.071
64597W        W26018  38.561  29.022  11.522
64598W        W26019  44.985  42.788  10.595
64599W        W26020   2.376  19.266   4.626
64600W        W26021  27.014  21.723   1.771
64601W        W26022  39.902  32.589   3.726
64602W        W26023  26.509  21.619  14.465
64603W        W26024  23.106  18.772   1.761
64604W        W26025  40.926  36.042   2.315
64605W        W26026  18.634  28.071   3.767
64606W        W26027  17.769  22.725  12.508
64607W        W26028  43.310   0.855   2.331
64608W        W26029  13.120  35.481  11.542
64609W        W26030  34.934   6.249   1.262
64610W        W26031  16.566  42.399  12.843
64611W        W26032  34.051  18.063   3.267
64612W        W26033  14.595  24.039  10.479
64613W        W26034  26.084   9.179  11.946
64614W        W26035  15.263  31.038   4.284
64615W        W26036  23.208  22.601  14.888
64616W        W26037  25.185  24.589   4.318
64617W        W26038  33.519  19.152   0.796
64618W        W26039   2.397  40.026  10.080
64619W        W26040  37.994  11.846   3.772
64620W        W26041   2.294  16.790  14.455
64621W        W26042  16.807  30.462  12.008
64622W        W26043  17.564  17.712   3.649
64623W        W26044  21.551   6.764   0.344
64624W        W26045  28.027  12.248   0.952
64625W        W26046  43.342   5.252  14.835
64626W        W26047  26.096   0.756  11.875
64627W        W26048  44.392  44.374   5.219
64628W        W26049  36.015   1.772   9.628
64629W        W26050  11.161  32.109  10.467
64630W        W26051   7.172  26.187   1.752
64631W        W26052   6.897  30.487   1.867
64632W        W26053   7.743   2.357  10.643
64633W        W26054   8.883  19.202   3.219
64634W        W26055  43.414  13.696  14.822
64635W        W26056  23.160   3.826   0.736
64636W        W26057   4.909   5.400  14.495
64637W        W26058  44.857  34.426  12.937
64638W        W26059   9.154   0.867   0.904
64639W        W26060  15.302  17.201  11.972
64640W        W26061  32.118  16.647   1.796
64641W        W26062   2.229  17.198   3.856
64642W        W26063  24.579  40.491   0.308
64643W        W26064  22.521   4.711   4.302
64644W        W26065   3.893  16.124  13.988
64645W        W26066  36.465  21.584   3.252
64646W        W26067   6.735  35.599   3.802
64647W        W26068  31.962  40.823  13.949
64648W        W26069  20.212   8.709   1.297
64649W        W26070   2.937  21.548  11.529
64650W        W26071  11.253  28.940   0.285
64651W        W26072  29.977   1.939  14.423
64652W        W26073   8.694  27.941  14.395
64653W        W26074  15.789  23.018   4.718
64654W        W26075   2.469  23.003   4.321
64655W        W26076   8.340  41.008  10.000
64656W        W26077  12.675  12.826   0.287
64657W        W26078  13.153  21.080  11.881
64658W        W26079  28.115  11.286   3.249
64659W        W26080  26.561  11.144   4.323
64660W        W26081  28.140  22.153  13.047
64661W        W26082   1.293  19.727   3.680
64662W        W26083  19.765   9.167   5.170
64663W        W26084  15.694  40.894  13.398
64664W        W26085  44.991   8.862   4.715
64665W        W26086  41.467  44.865   4.656
64666W        W26087  27.068  41.347   1.441
64667W        W26088  36.508  10.244  12.505
64668W        W26089  10.814  12.270   3.648
64669W        W26090   8.301  20.675   2.801
64670W        W26091   3.446  36.940  11.523
64671W        W26092  32.602  11.862   2.683
64672W        W26093  15.267  40.434  13.814
64673W        W26094  19.736  13.348  10.898
64674W        W26095  15.707  36.895  12.450
64675W        W26096  19.041  14.258   4.767
64676W        W26097  14.760  26.475   2.714
64677W        W26098  33.521   2.246  13.464
64678W        W26099  13.316  27.098  12.056
64679W        W26100   2.284  23.049  13.327
64680W        W26101  18.645  16.724   4.614
64681W        W26102  13.250  25.207  14.446
64682W        W26103  22.623  23.544  11.073
64683W        W26104  27.070  19.283  13.907
64684W        W26105   2.723  25.470   1.795
64685W        W26106  39.458  32.524   1.434
64686W        W26107  44.406  24.668  11.118
64687W        W26108   3.821  44.444   2.228
64688W        W26109  35.945  22.081   1.861
64689W        W26110  17.783  19.713  10.498
64690W        W26111  13.688   4.741  12.897
64691W        W26112  40.041  42.953  14.320
64692W        W26113  20.154  36.553  14.886
64693W        W26114  29.015  30.065  11.876
64694W        W26115   3.948   3.745  11.379
64695W        W26116  22.532  38.443  11.541
64696W        W26117  18.272  35.040  11.581
64697W        W26118  43.875  11.316   3.352
64698W        W26119   6.807   4.205   2.751
64699W        W26120  38.877  27.488  10.422
64700W        W26121  23.676  40.548   0.302
64701W        W26122   3.363  17.142  10.984
64702W        W26123  28.019  36.593  10.602
64703W        W26124  42.312   6.730   3.161
64704W        W26125  41.844  25.987  14.861
64705W        W26126  43.397  18.699  13.019
64706W        W26127  22.659  13.608  11.602
64707W        W26128  36.070  18.594  14.955
64708W        W26129  13.662  25.074   0.844
64709W        W26130  17.647  40.975  11.858
64710W        W26131   1.752  14.256  14.474
64711W        W26132  20.257  10.333  14.337
64712W        W26133  38.440   3.875   4.224
64713W        W26134  23.522  16.786  10.515
64714W        W26135  29.141  39.408  11.999
64715W        W26136  17.234  33.927  14.839
64716W        W26137  14.248   7.847  14.783
64717W        W26138  12.709  38.064   1.802
64718W        W26139  43.328  32.566  13.959
64719W        W26140  41.884  20.533   2.231
64720W        W26141  42.315  33.603   3.635
64721W        W26142   5.846  32.515   3.757
64722W        W26143  22.708  35.525  10.486
64723W        W26144  33.478  40.881   0.922
64724W        W26145  43.781   0.807   4.790
64725W        W26146  19.274   5.260   4.306
64726W        W26147  23.671  44.478  12.564
64727W        W26148  31.483  25.114   4.261
64728W        W26149   4.815   6.248  14.454
64729W        W26150  12.790  20.248   0.895
64730W        W26151  17.731  16.151   2.802
64731W        W26152  11.248  19.666   0.741
64732W        W26153   3.779  28.046   9.980
64733W        W26154   4.353  11.678   0.384
64734W        W26155  32.036  20.628  13.378
64735W        W26156  39.872  16.176   0.895
64736W        W26157   9.258  23.670  14.508
64737W        W26158  11.849  16.265  14.811
64738W        W26159  14.633   2.409   4.126
64739W        W26160  17.226  36.352   1.729
64740W        W26161  26.557  14.225  10.588
64741W        W26162  34.872   4.410   9.569
64742W        W26163   0.848  23.993  14.431
64743W        W26164  41.438   0.784   5.268
64744W        W26165  33.101  24.724   2.774
64745W        W26166  14.660  17.080  14.886
64746W        W26167  20.639  10.739  12.047
64747W        W26168  28.541   6.241   1.393
64748W        W26169  25.082  14.310  10.919
64749W        W26170  41.799   3.415  10.510
64750W        W26171   3.932  18.171  13.939
64751W        W26172  42.974  15.226   1.700
64752W        W26173  22.744  27.492  14.437
64753W        W26174  16.312  19.109  14.934
64754W        W26175  40.387  17.158  10.622
64755W        W26176   5.393  18.719   2.294
64756W        W26177  37.069   0.835   3.195
64757W        W26178  39.907   2.229   0.375
64758W        W26179   4.730  26.468  14.374
64759W        W26180   2.836  42.842   4.136
64760W        W26181  26.561  39.810   4.199
64761W        W26182  40.032  35.557  11.608
64762W        W26183  39.326   1.312  11.985
64763W        W26184  25.021  19.058   1.290
64764W        W26185  21.610  32.490  12.980
64765W        W26186  27.648  31.011   1.266
64766W        W26187  40.943  36.563  13.363
64767W        W26188  11.628  22.204  11.528
64768W        W26189  36.432  11.718   0.309
64769W        W26190  33.065  16.248  10.493
64770W        W26191  32.607  40.802  14.475
64771W        W26192  11.354  36.910   0.250
64772W        W26193  15.278   9.850  10.409
64773W        W26194   9.686  12.247  11.530
64774W        W26195  10.775  41.347  13.048
64775W        W26196  41.008   8.232  13.525
64776W        W26197  11.687  36.401   3.163
64777W        W26198  38.933  15.208   9.946
64778W        W26199  34.939  20.222   2.360
64779W        W26200   9.758  44.957  12.022
64780W        W26201  38.399  22.219   1.245
64781W        W26202  36.509   8.396   3.318
64782W        W26203  10.874  28.160  14.015
64783W        W26204  41.915   7.274  13.898
64784W        W26205   0.404   8.728  14.300
64785W        W26206  29.482  11.278  12.882
64786W        W26207  18.182  31.067  12.457
64787W        W26208   9.852  12.830   3.786
64788W        W26209   2.362  25.582   2.308
64789W        W26210   1.257  36.012   3.733
64790W        W26211  32.936  15.599  13.045
64791W        W26212  31.009  44.761   3.651
64792W        W26213  36.979  20.198  13.061
64793W        W26214  14.746  22.506  10.522
64794W        W26215   9.314   1.801  10.527
64795W        W26216  27.019  31.966  11.992
64796W        W26217   9.340  36.988  11.041
64797W        W26218  42.420  42.031  12.978
64798W        W26219   6.326  29.048  14.911
64799W        W26220  17.129   1.413  14.312
64800W        W26221   1.441  20.553   1.335
64801W        W26222  41.922  41.870  13.832
64802W        W26223  21.638   3.323   2.412
64803W        W26224  17.687   1.475  10.433
64804W        W26225   4.275  10.224  10.452
64805W        W26226  34.980  33.088   2.367
64806W        W26227  11.722  31.462  11.956
64807W        W26228  31.028  20.094   4.218
64808W        W26229  14.225  29.602  11.472
64809W        W26230  24.681  27.010  12.365
64810W        W26231  11.724  40.404   1.931
64811W        W26232  18.085  41.939  14.304
64812W        W26233  14.749  40.408  13.459
64813W        W26234  17.614  39.534  12.345
64814W        W26235  30.002  30.583  10.616
64815W        W26236   4.447  29.060  11.987
64816W        W26237  27.687  12.318   4.250
64817W        W26238  30.573  16.625   1.450
64818W        W26239  18.111  39.481  14.488
64819W        W26240  19.049  27.501   2.282
64820W        W26241  25.628  34.914   2.744
64821W        W26242  28.493  22.059  12.903
64822W        W26243  16.282   8.749  13.428
64823W        W26244   4.935  10.865  12.988
64824W        W26245  30.453  26.544  12.083
64825W        W26246  43.771  12.818  11.912
64826W        W26247  42.367   7.174   2.218
64827W        W26248  15.196  13.833   2.399
64828W        W26249  29.598  27.990  11.950
64829W        W26250  37.947  37.973   0.751
64830W        W26251  25.595  14.611  13.354
64831W        W26252   6.342  28.009  14.832
64832W        W26253  39.927  31.621   1.226
64833W        W26254   7.400  12.219   0.755
64834W        W26255  41.374  24.084  10.894
64835W        W26256  14.290  10.370  14.367
64836W        W26257  27.544  22.028   4.755
64837W        W26258  16.650  12.806   4.348
64838W        W26259  35.016   2.788   0.933
64839W        W26260  14.166  21.187  14.433
64840W        W26261  18.147   7.713  13.364
64841W        W26262  15.728   4.450   4.130
64842W        W26263  32.068  39.421   3.783
64843W        W26264   7.778   1.966  11.983
64844W        W26265   8.775   2.292   1.916
64845W        W26266  21.019   9.856  10.950
64846W        W26267  25.970  21.125  11.872
64847W        W26268   5.241  30.029   3.159
64848W        W26269   5.890  41.882  13.843
64849W        W26270  29.611   6.822   3.265
64850W        W26271   4.354  20.157  11.579
64851W        W26272  41.868  17.268  10.505
64852W        W26273  42.511  38.405  11.027
64853W        W26274  25.566  12.724   4.199
64854W        W26275   0.321  22.688  11.390
64855W        W26276  19.587  30.487   4.275
64856W        W26277  34.452   8.309   3.306
64857W        W26278  28.493  23.731  14.881
64858W        W26279  16.688   6.739  11.927
64859W        W26280  38.060  20.050  10.494
64860W        W26281  25.650  17.076  12.552
64861W        W26282  14.767   6.722  14.782
64862W        W26283  23.009  31.104  11.545
64863W        W26284  11.269  23.027   1.269
64864W        W26285  24.596   6.805  11.984
64865W        W26286  32.988  40.051  12.465
64866W        W26287   0.455  34.873   0.374
64867W        W26288  12.842   1.308  12.969
64868W        W26289  27.469  22.033   1.890
64869W        W26290  36.987  20.224  10.595
64870W        W26291  12.803   8.675  10.474
64871W        W26292  16.274  26.467   3.335
64872W        W26293   1.306  22.230  13.053
64873W        W26294  42.430   0.745  14.368
64874W        W26295  29.445  13.834  12.403
64875W        W26296   1.746  37.515   4.795
64876W        W26297  39.368  33.098   3.723
64877W        W26298  38.377  11.826   0.411
64878W        W26299  24.124   3.785   0.905
64879W        W26300  22.694  28.051   0.281
64880W        W26301  21.698   1.477  12.419
64881W        W26302   5.213  21.046   4.258
64882W        W26303  28.170   3.460  12.064
64883W        W26304  29.102   4.302  14.326
64884W        W26305   3.862   0.888  13.510
64885W        W26306  31.154  10.243   0.419
64886W        W26307  18.281  20.739   1.315
64887W        W26308   5.868  18.705   1.787
64888W        W26309  16.715  28.510   0.899
64889W        W26310  27.020  31.424  13.796
64890W        W26311  12.739  43.303   3.761
64891W        W26312  39.922  33.520   4.711
64892W        W26313  23.076  34.534   1.710
64893W        W26314  38.565  18.674   1.893
64894W        W26315  39.439  21.175  14.971
64895W        W26316   5.328  37.084  14.762
64896W        W26317  41.989  39.880  13.359
64897W        W26318  10.669  10.752  11.071
64898W        W26319  14.650  38.945  10.042
64899W        W26320  11.371  21.638   4.813
64900W        W26321  28.646  24.193  10.018
64901W        W26322  42.851  34.879   4.769
64902W        W26323   4.437  24.197  14.348
64903W        W26324   0.840  13.626   3.264
64904W        W26325  43.281  32.554  13.476
64905W        W26326  36.430  13.721   0.734
64906W        W26327  31.464  25.695   0.850
64907W        W26328   0.270  42.391   3.752
64908W        W26329  37.544  30.078  11.088
64909W        W26330   1.838   0.329  14.416
64910W        W26331  43.876  39.993   0.431
64911W        W26332  27.031  19.558  13.389
64912W        W26333   3.789   7.190   1.899
64913W        W26334  29.668  22.068  12.836
64914W        W26335  24.206  30.466  11.890
64915W        W26336  29.093  40.871   0.347
64916W        W26337  39.488  22.058   1.270
64917W        W26338   5.198  18.082  14.897
64918W        W26339  17.182  39.843  13.943
64919W        W26340  42.809  10.300   2.696
64920W        W26341  31.947   6.712   2.355
64921W        W26342  28.091  29.034   5.273
64922W        W26343  40.803  38.048  11.092
64923W        W26344  20.084  18.204  12.409
64924W        W26345   6.211  24.099   3.824
64925W        W26346  35.374  20.161   3.294
64926W        W26347  44.839  11.715   4.770
64927W        W26348  17.267  27.010   1.230
64928W        W26349  23.181  39.845  13.902
64929W        W26350  38.047  35.517  11.080
64930W        W26351  32.025  43.307  11.039
64931W        W26352  28.979  31.447   1.715
64932W        W26353  33.102   1.926   2.250
64933W        W26354  27.614  34.995   1.789
64934W        W26355  24.019  38.441   2.862
64935W        W26356  44.005  41.818   1.249
64936W        W26357  12.125  20.688   0.329
64937W        W26358  35.021  28.637   3.812
64938W        W26359  33.586  24.213  14.990
64939W        W26360  28.084   4.325   4.822
64940W        W26361  25.046  32.598   1.430
64941W        W26362  17.290   1.250   0.407
64942W        W26363   5.918  31.608  13.820
64943W        W26364  10.741  28.648   4.676
64944W        W26365  16.223  13.173   2.747
64945W        W26366   7.864  32.038   3.836
64946W        W26367  16.310  42.472  11.381
64947W        W26368  37.011   3.292   4.217
64948W        W26369  19.041  12.182  14.398
64949W        W26370   9.194   7.405  13.466
64950W        W26371   2.452  23.713  13.795
64951W        W26372  37.444  43.790   4.708
64952W        W26373  16.147  32.039  13.363
64953W        W26374  21.755  43.866   0.257
64954W        W26375  13.743  44.808   1.273
64955W        W26376  14.773  18.629   2.725
64956W        W26377  32.547  18.190  12.377
64957W        W26378  42.879   7.403   0.745
64958W        W26379  34.877  14.601  12.981
64959W        W26380  21.645  13.157  11.015
64960W        W26381  27.677  22.524  10.511
64961W        W26382  22.726  25.181   9.986
64962W        W26383  23.218  42.000  12.067
64963W        W26384  27.464  27.130  13.958
64964W        W26385  36.358   0.285  14.477
64965W        W26386  41.002  21.043   1.919
64966W        W26387  27.036  24.123  14.284
64967W        W26388  27.583   6.426   0.856
64968W        W26389   2.396  16.704   2.753
64969W        W26390  21.114  16.657   0.954
64970W        W26391  17.784  43.515  14.029
64971W        W26392  15.290   0.432  11.103
64972W        W26393  12.773  30.934  12.833
64973W        W26394  23.009   3.789  12.072
64974W        W26395  39.868   9.353  14.897
64975W        W26396  15.641  24.720  14.494
64976W        W26397  29.623  40.973   0.754
64977W        W26398   1.286  19.085  12.546
64978W        W26399   6.718  31.109  12.016
64979W        W26400  32.493  38.400  12.868
64980W        W26401   4.788  31.008  12.942
64981W        W26402  32.480   6.808  14.295
64982W        W26403  38.457   0.329   4.160
64983W        W26404  25.111  21.716   2.762
64984W        W26405  34.895  39.509   0.921
64985W        W26406  21.647  14.751  14.275
64986W        W26407  30.924  30.029   1.220
64987W        W26408  27.453  30.550  12.559
64988W        W26409  21.087  32.036   2.854
64989W        W26410  29.630  22.045  10.571
64990W        W26411  38.845  13.152  14.820
64991W        W26412  33.568   6.718  13.492
64992W        W26413  21.261  39.508  14.922
64993W        W26414  36.981  14.834  11.984
64994W        W26415  43.005  32.902   3.674
64995W        W26416  14.278   0.757   2.694
64996W        W26417  23.016  29.481   4.113
64997W        W26418  39.414   4.878   0.266
64998W        W26419  16.568  15.773   0.477
64999W        W26420  36.391  16.277   1.356
65000W        W26421  33.563  10.704  13.817
65001W        W26422  41.527  15.144   2.767
65002W        W26423  28.500  32.405  14.988
65003W        W26424  25.658   7.270  12.556
65004W        W26425  29.013  14.748  12.078
65005W        W26426  27.029   3.812  14.905
65006W        W26427  20.260  43.387  10.426
65007W        W26428  31.411  18.124  12.427
65008W        W26429  32.971  40.513   2.695
65009W        W26430   1.739  17.099  13.866
65010W        W26431  14.809  40.341  10.636
65011W        W26432  26.583  39.887   2.761
65012W        W26433  40.548  13.804   9.988
65013W        W26434  24.500  33.547  13.321
65014W        W26435  41.009  13.121   0.795
65015W        W26436  31.045  36.912   3.705
65016W        W26437  13.726  35.884  13.488
65017W        W26438  44.871   5.327   4.178
65018W        W26439  35.893  28.626   1.703
65019W        W26440  10.832  23.170   0.270
65020W        W26441  27.535  44.917  11.884
65021W        W26442  18.559  12.288   0.294
65022W        W26443  32.088  27.183   1.326
65023W        W26444  23.612  17.680  13.811
65024W        W26445  23.236  31.104  11.086
65025W        W26446  10.324  14.155  14.469
65026W        W26447  40.927   7.409   2.743
65027W        W26448  26.625   2.762  14.857
65028W        W26449  14.631  10.846   1.705
65029W        W26450  22.240   3.864  12.468
65030W        W26451  20.187  12.350   3.180
65031W        W26452  20.640  21.707  13.400
65032W        W26453  18.583  20.224  11.048
65033W        W26454  13.160   8.738   2.736
65034W        W26455  41.350  21.552   3.762
65035W        W26456  13.721  19.162  14.811
65036W        W26457  22.058  31.129   3.234
65037W        W26458  20.646   7.211  14.295
65038W        W26459  42.894  27.128   3.282
65039W        W26460  20.210  44.819  12.525
65040W        W26461  32.997  32.477   4.209
65041W        W26462  13.184  25.163   0.947
65042W        W26463  12.635   6.680  14.439
65043W        W26464  23.713   8.661   4.154
65044W        W26465  37.341  32.939   0.919
65045W        W26466  30.415   3.901   0.805
65046W        W26467  30.593  25.155  11.437
65047W        W26468   8.322  31.638  12.905
65048W        W26469   3.348  14.234   3.771
65049W        W26470   5.372  27.996   4.215
65050W        W26471   1.743   7.745   1.738
65051W        W26472  19.606  41.898  13.338
65052W        W26473   0.312  18.187   1.821
65053W        W26474  37.401  30.928   4.611
65054W        W26475  13.139  39.957   1.404
65055W        W26476  11.349  22.230  14.028
65056W        W26477  39.978  21.038   2.355
65057W        W26478  23.217   5.434   1.430
65058W        W26479   7.743  41.856  10.576
65059W        W26480  28.058   3.879   3.229
65060W        W26481  21.063  27.066  12.471
65061W        W26482  14.105   0.846  13.054
65062W        W26483  14.711  32.913   0.351
65063W        W26484  13.749   1.900  13.876
65064W        W26485  27.660  34.375  13.882
65065W        W26486  34.986  42.032  11.885
65066W        W26487  32.470   6.197  11.531
65067W        W26488  15.808  18.243  12.963
65068W        W26489   0.885   4.899   1.424
65069W        W26490  12.669  15.698  11.469
65070W        W26491  37.420  37.526   3.234
65071W        W26492  21.595   6.801   2.246
65072W        W26493   7.891   6.736   0.432
65073W        W26494  18.732   7.263  12.373
65074W        W26495  42.913  16.086   0.731
65075W        W26496  30.472  10.292  12.352
65076W        W26497  21.567  30.951  12.405
65077W        W26498   4.378   2.440  14.781
65078W        W26499  35.896  44.419   2.229
65079W        W26500   9.777  15.168   1.293
65080W        W26501  23.011  17.237   4.834
65081W        W26502  13.281   0.958  10.547
65082W        W26503   5.263  10.689  13.375
65083W        W26504   5.236  13.637  12.876
65084W        W26505  28.572  39.891   4.805
65085W        W26506  11.341  38.836   0.752
65086W        W26507  22.042  20.624   2.327
65087W        W26508  33.497  29.606   1.742
65088W        W26509   8.732  14.663   2.727
65089W        W26510  19.702  26.963  14.471
65090W        W26511  25.007  40.839  14.385
65091W        W26512  38.893  39.943  13.956
65092W        W26513  37.383  38.903   5.211
65093W        W26514  38.044  35.419   2.389
65094W        W26515   6.200   6.741   0.883
65095W        W26516  25.621  10.280   0.923
65096W        W26517  32.616  14.733  12.076
65097W        W26518  13.228   6.739  14.964
65098W        W26519  12.311  27.468   3.243
65099W        W26520  37.073  20.721   3.295
65100W        W26521  23.081  33.924   2.717
65101W        W26522  11.782   4.841   4.824
65102W        W26523  21.182  15.093   3.850
65103W        W26524   5.408  30.649  12.356
65104W        W26525  22.591  17.269  13.865
65105W        W26526   5.330  42.511   1.434
65106W        W26527  33.511  44.822   2.256
65107W        W26528   7.694  16.194   4.620
65108W        W26529   1.263  24.715   1.434
65109W        W26530   2.436  14.818   4.189
65110W        W26531  12.271   8.751  14.821
65111W        W26532  22.052  19.690   0.962
65112W        W26533  44.460  19.048  13.518
65113W        W26534  41.295   4.358  12.935
65114W        W26535  30.577  25.026   1.695
65115W        W26536  30.593  36.876  13.921
65116W        W26537  27.504   0.761   3.660
65117W        W26538  43.904  21.042  12.547
65118W        W26539  18.731  14.150  12.005
65119W        W26540   6.254  38.842  13.349
65120W        W26541  38.416  22.007  11.590
65121W        W26542  28.559  40.532   2.276
65122W        W26543  43.309  16.634  14.935
65123W        W26544  17.146   2.958  13.828
65124W        W26545  16.598   2.347   0.326
65125W        W26546   0.876   1.423   3.276
65126W        W26547  19.158  29.078   3.379
65127W        W26548  34.588  27.098  13.061
65128W        W26549   1.904  23.015   2.680
65129W        W26550   7.395  21.091   3.301
65130W        W26551  39.913  27.520  10.624
65131W        W26552  13.709  12.269  10.581
65132W        W26553   8.173   0.971   1.241
65133W        W26554   4.241  32.933  11.596
65134W        W26555  11.297   0.948  14.394
65135W        W26556  18.782  16.583  10.478
65136W        W26557  36.946  41.414  14.913
65137W        W26558   2.826  25.100  14.827
65138W        W26559  43.292   5.792   4.758
65139W        W26560   8.769   7.196  14.444
65140W        W26561  15.290  33.013   4.116
65141W        W26562  19.544  17.724  11.493
65142W        W26563  18.113  26.519  11.440
65143W        W26564  10.333  32.118   0.954
65144W        W26565   8.836  17.644  13.385
65145W        W26566  20.121   4.933   0.290
65146W        W26567  22.677  35.049   3.290
65147W        W26568   0.978  33.463  14.497
65148W        W26569  12.842  44.987  14.958
65149W        W26570  11.311   8.718  14.453
65150W        W26571  30.544  40.001   3.663
65151W        W26572  40.337  18.604   2.834
65152W        W26573  41.942  17.611  12.934
65153W        W26574  21.615  14.295  11.858
65154W        W26575   9.369  11.222   2.770
65155W        W26576  33.512  38.016  10.892
65156W        W26577  10.372  22.245   1.762
65157W        W26578   3.381  28.544   2.791
65158W        W26579  37.389  36.879   1.726
65159W        W26580  15.688   8.397  11.497
65160W        W26581  34.014  13.835   5.644
65161W        W26582   5.433  14.758   1.902
65162W        W26583  21.723   8.397  11.391
65163W        W26584   3.362   8.714  11.912
65164W        W26585  21.597  12.293  12.842
65165W        W26586  14.815  27.015  10.552
65166W        W26587  16.606  37.958  12.448
65167W        W26588  25.096  25.127   1.773
65168W        W26589  25.615  26.131  10.463
65169W        W26590  30.988  10.189  14.879
65170W        W26591  16.790   0.250   2.722
65171W        W26592  37.886  38.342   2.773
65172W        W26593  44.002  29.054   4.743
65173W        W26594  39.432  43.920   3.178
65174W        W26595   8.183   9.830  14.024
65175W        W26596   5.826  14.232   4.312
65176W        W26597  11.757   4.415   2.874
65177W        W26598  14.120  25.156  14.342
65178W        W26599  25.476  27.177  12.846
65179W        W26600  11.339  37.899   0.336
65180W        W26601   0.285   1.854   0.839
65181W        W26602   3.946  40.951   4.202
65182W        W26603  44.759  36.421  14.407
65183W        W26604   4.751  40.430  12.012
65184W        W26605   0.794   3.813   3.640
65185W        W26606   0.382   3.731   1.403
65186W        W26607   8.293  16.308   1.744
65187W        W26608  12.303  37.421  12.884
65188W        W26609  27.013   8.853  12.357
65189W        W26610  32.485  30.581   2.770
65190W        W26611  33.490  39.547   2.718
65191W        W26612  16.167   5.388  14.974
65192W        W26613   2.924  39.314  13.821
65193W        W26614   3.743  17.786   4.220
65194W        W26615  32.598  10.294  12.038
65195W        W26616  16.624  35.517  14.844
65196W        W26617  11.769  11.819   4.642
65197W        W26618  37.860   7.301   2.335
65198W        W26619  35.923  21.088  14.515
65199W        W26620  41.396  16.785   0.329
65200W        W26621   7.412  20.135   2.280
65201W        W26622  29.044  21.158   4.121
65202W        W26623   6.275  36.398  10.612
65203W        W26624  25.099  24.082   4.148
65204W        W26625  20.737  40.362   3.757
65205W        W26626  32.080   0.946   0.818
65206W        W26627   0.440  26.540  10.998
65207W        W26628  24.039  11.803   0.729
65208W        W26629  43.326   2.818  14.946
65209W        W26630  35.523  19.694  14.356
65210W        W26631  33.095  12.176   3.324
65211W        W26632  22.668  43.315  12.530
65212W        W26633  38.431  33.610   3.642
65213W        W26634  39.459  41.434  10.617
65214W        W26635   2.763   6.906   4.613
65215W        W26636  20.144  22.014   2.386
65216W        W26637   2.754   6.918  12.993
65217W        W26638  33.130  20.750   4.601
65218W        W26639  23.654  10.313  10.984
65219W        W26640   8.830  29.949  12.986
65220W        W26641  14.659   0.824  11.608
65221W        W26642  31.027  18.575   1.319
65222W        W26643  26.061  34.933  12.021
65223W        W26644  39.857  18.742   3.666
65224W        W26645  41.327   8.176   3.633
65225W        W26646  33.016   3.310   3.670
65226W        W26647  17.139   7.240   1.266
65227W        W26648  43.864   9.675  13.476
65228W        W26649   3.791   0.278  14.454
65229W        W26650  18.704   3.246   2.667
65230W        W26651  21.584   4.925  13.333
65231W        W26652   1.919  44.861   2.749
65232W        W26653  35.514  14.271  13.422
65233W        W26654  25.700  13.281  13.827
65234W        W26655  18.623  38.393  14.996
65235W        W26656   7.367  39.030   3.676
65236W        W26657  41.433  33.584   1.245
65237W        W26658  10.761  23.696   0.924
65238W        W26659  36.420   8.894  10.499
65239W        W26660  18.615  37.443   3.856
65240W        W26661  29.588  20.690  11.888
65241W        W26662  30.584  16.141   3.758
65242W        W26663   5.895   0.797  11.534
65243W        W26664  33.874   0.338   1.328
65244W        W26665   1.876   7.348  11.880
65245W        W26666  28.144  24.640   0.948
65246W        W26667   1.308  14.600  12.061
65247W        W26668   1.766  12.830   2.353
65248W        W26669  15.599  39.359  13.844
65249W        W26670  37.394  11.332   0.934
65250W        W26671   4.376   6.685  13.940
65251W        W26672  28.627  21.186   1.791
65252W        W26673  31.924   3.392   2.186
65253W        W26674  34.465  36.553   4.802
65254W        W26675  42.828   0.306   2.307
65255W        W26676   4.304   0.823   3.824
65256W        W26677  11.795  40.950  14.010
65257W        W26678  19.160  19.558   2.886
65258W        W26679  35.949  10.680   1.824
65259W        W26680  28.974  26.204   2.685
65260W        W26681   5.750  36.978  10.581
65261W        W26682  43.764  31.963   0.914
65262W        W26683  11.325   0.303  11.091
65263W        W26684  20.077   0.299   0.349
65264W        W26685  15.120   9.329  11.505
65265W        W26686   7.313  35.885   0.410
65266W        W26687  31.975   4.765   2.684
65267W        W26688  18.192  27.179  14.956
65268W        W26689   7.873  11.835  10.155
65269W        W26690  40.373   5.717   0.420
65270W        W26691  11.658  18.155   0.951
65271W        W26692   6.322  21.692   1.260
65272W        W26693  25.033   8.883  10.982
65273W        W26694  40.413   8.194  13.835
65274W        W26695   3.222  15.188  10.991
65275W        W26696  23.641  16.112  14.393
65276W        W26697  17.622  30.096  13.384
65277W        W26698  12.156   4.227  14.292
65278W        W26699  44.320   1.906   2.745
65279W        W26700   8.186  20.116  13.790
65280W        W26701  27.487  42.351   3.654
65281W        W26702  34.567  17.262  11.476
65282W        W26703   5.368  19.705   0.833
65283W        W26704  41.368   3.314  11.007
65284W        W26705  14.268  37.396  13.500
65285W        W26706  12.660  17.704  11.554
65286W        W26707  34.950  10.223  14.303
65287W        W26708   2.723  30.025  13.425
65288W        W26709  30.644  43.391  11.959
65289W        W26710  33.023  29.019   2.736
65290W        W26711  16.197  23.210  13.053
65291W        W26712  25.025   3.379   0.808
65292W        W26713  39.008  43.470  14.420
65293W        W26714  11.325  14.127  13.990
65294W        W26715  11.130  27.676  13.967
65295W        W26716  20.224  38.871  13.939
65296W        W26717  31.438  19.047  10.526
65297W        W26718  12.675  31.550   2.833
65298W        W26719   7.374   2.464   4.673
65299W        W26720  21.152  10.727  12.392
65300W        W26721  23.121  18.125  11.588
65301W        W26722  23.021  31.132  12.574
65302W        W26723  26.560  38.965  10.904
65303W        W26724  12.273   7.734   0.894
65304W        W26725  33.025  26.980   2.714
65305W        W26726  31.518  24.676  10.901
65306W        W26727  26.129  10.315   1.349
65307W        W26728  23.228  40.931  10.917
65308W        W26729  28.483  12.816  14.356
65309W        W26730  32.948  30.109   0.359
65310W        W26731   6.712   5.837   1.263
65311W        W26732  25.480   3.776   1.797
65312W        W26733  34.545  17.790   2.201
65313W        W26734  17.597  13.606  12.992
65314W        W26735  40.418  37.907   4.663
65315W        W26736  30.587   1.332   4.832
65316W        W26737   6.403  15.703  14.508
65317W        W26738  23.671  37.840   4.275
65318W        W26739  38.996  40.347  11.863
65319W        W26740  33.453   8.672  14.447
65320W        W26741  37.935   0.262  14.370
65321W        W26742  16.638   5.900  13.871
65322W        W26743  25.600  10.837   1.846
65323W        W26744  34.864  27.162  14.276
65324W        W26745  20.088  22.176   3.676
65325W        W26746  24.139  27.461   2.299
65326W        W26747  12.295  26.541   0.293
65327W        W26748  41.511  18.591   4.162
65328W        W26749  29.965  11.679   4.227
65329W        W26750   8.820  41.940  11.980
65330W        W26751  44.859  33.064   4.280
65331W        W26752  35.030  15.688  14.496
65332W        W26753  44.781  36.955  13.439
65333W        W26754  41.524  16.701  12.066
65334W        W26755  11.157  11.657   1.807
65335W        W26756  29.650  32.083  12.546
65336W        W26757   3.287  15.325   3.154
65337W        W26758  42.028   3.377   0.410
65338W        W26759  43.793   5.408  13.933
65339W        W26760   2.845   0.422   1.443
65340W        W26761  35.528  38.945   2.269
65341W        W26762   8.891  38.488  14.489
65342W        W26763  33.431  19.131  14.912
65343W        W26764  16.606   2.832  12.090
65344W        W26765  37.415  40.543   4.347
65345W        W26766  37.489  34.578  13.949
65346W        W26767  34.030  41.799  10.438
65347W        W26768  18.704   2.771  12.969
65348W        W26769  11.277  16.314   2.364
65349W        W26770  36.901   3.244  11.907
65350W        W26771  26.692  28.032  10.518
65351W        W26772  12.345  37.908  11.998
65352W        W26773  10.874  18.707   3.247
65353W        W26774  28.067  32.137  10.459
65354W        W26775  21.132  40.874  11.122
65355W        W26776  17.189  40.386   3.655
65356W        W26777  43.832  10.776   2.897
65357W        W26778  28.163  15.611  10.940
65358W        W26779  28.014   5.292   3.352
65359W        W26780   5.351  22.080   2.739
65360W        W26781  43.802  21.684   0.746
65361W        W26782   4.404  14.699   1.294
65362W        W26783  25.208   1.443   4.663
65363W        W26784  14.688  13.229   4.641
65364W        W26785   5.808   6.703   4.650
65365W        W26786  32.442   3.742  13.949
65366W        W26787  26.557  33.483   1.699
65367W        W26788  43.007  13.199  11.046
65368W        W26789  10.228  31.623  13.961
65369W        W26790   3.376  32.936   2.414
65370W        W26791  21.738   0.821   3.711
65371W        W26792  28.107  17.242  11.569
65372W        W26793  30.957  43.330  10.572
65373W        W26794  12.214  11.649   3.871
65374W        W26795  16.765  11.281   0.786
65375W        W26796   4.270   5.759  12.927
65376W        W26797  11.240  24.646   4.768
65377W        W26798  25.604  33.900  13.038
65378W        W26799  10.680  15.185  14.900
65379W        W26800   8.835  28.025   1.306
65380W        W26801   0.857  19.650  13.874
65381W        W26802   9.665  21.099   1.315
65382W        W26803   7.198   7.669  14.974
65383W        W26804  38.433  25.503   2.199
65384W        W26805  25.701  22.220   2.377
65385W        W26806  42.980  26.569  10.482
65386W        W26807  10.293  22.656   3.208
65387W        W26808   0.862  37.544  10.956
65388W        W26809  10.725  28.448  13.316
65389W        W26810   8.712   3.801   4.152
65390W        W26811  39.511   5.898  14.281
65391W        W26812  26.091  18.631  12.420
65392W        W26813   2.425   1.247  12.073
65393W        W26814  44.762  11.253   2.345
65394W        W26815  34.018  44.962   0.432
65395W        W26816  30.646  12.159  13.866
65396W        W26817  38.357   6.271   1.855
65397W        W26818  43.500  11.369  13.833
65398W        W26819  41.925  22.116  13.907
65399W        W26820   3.933  38.983  14.495
65400W        W26821  25.469   2.305   3.648
65401W        W26822  40.988  22.553  13.927
65402W        W26823  34.388  10.674  12.516
65403W        W26824  44.985  26.027  12.878
65404W        W26825  29.558  18.647  11.471
65405W        W26826  43.796  28.573   4.679
65406W        W26827  38.918  26.645   4.263
65407W        W26828  40.836  43.785   0.355
65408W        W26829  17.573  32.978  11.426
65409W        W26830  15.192  10.167   0.870
65410W        W26831  10.193  15.721   1.295
65411W        W26832  42.878  26.486  13.800
65412W        W26833  42.470  23.518   0.896
65413W        W26834  42.973  13.788  14.346
65414W        W26835  20.622  33.382  10.538
65415W        W26836  35.853  25.026  14.867
65416W        W26837   4.915   2.912  13.941
65417W        W26838   7.835   5.842   0.766
65418W        W26839  34.591  15.275  13.359
65419W        W26840  28.074  41.857   4.644
65420W        W26841   6.833  27.575   0.253
65421W        W26842  16.153  16.307   1.859
65422W        W26843  12.789  43.002  11.912
65423W        W26844  28.137  41.513   3.779
65424W        W26845  44.779  30.038   0.294
65425W        W26846  19.258  25.653  14.777
65426W        W26847  44.261  23.992   0.961
65427W        W26848   5.328  31.625  13.056
65428W        W26849  15.193  19.102  12.358
65429W        W26850  27.184  30.520   2.747
65430W        W26851  42.434  44.909   2.722
65431W        W26852  40.486  16.208  11.066
65432W        W26853   4.209  25.965  11.611
65433W        W26854  20.677  20.086   0.884
65434W        W26855  14.646  43.853  12.474
65435W        W26856  33.059  14.154  12.842
65436W        W26857  22.639   8.839  13.419
65437W        W26858   2.946  37.886   1.887
65438W        W26859   8.288  30.968   1.379
65439W        W26860  40.995  39.912  14.998
65440W        W26861   6.304  36.516   4.321
65441W        W26862  39.879   2.888   0.392
65442W        W26863  17.201  31.001  14.498
65443W        W26864  24.711   2.393   3.709
65444W        W26865  27.491  30.035  13.479
65445W        W26866  21.095  18.119  11.509
65446W        W26867  36.467  35.978   0.293
65447W        W26868  36.468  18.628   3.729
65448W        W26869  30.635  21.607   1.812
65449W        W26870  30.117   8.693   2.293
65450W        W26871  16.718  44.397   0.288
65451W        W26872  21.034  41.919  13.961
65452W        W26873   5.269  18.699   4.335
65453W        W26874   3.804  28.466   3.271
65454W        W26875  10.796  28.139   0.751
65455W        W26876  44.770  35.463   1.362
65456W        W26877   6.904   8.276  13.354
65457W        W26878  34.557  33.077   3.769
65458W        W26879  39.400  21.158   4.721
65459W        W26880  11.739  10.146  12.349
65460W        W26881   7.394  31.956  14.906
65461W        W26882  21.036  22.178  10.010
65462W        W26883  31.971  34.067   0.905
65463W        W26884  13.138   2.230   3.374
65464W        W26885  22.519  17.738  14.789
65465W        W26886  37.438   2.752   4.812
65466W        W26887  29.103  44.372  12.376
65467W        W26888  29.045   8.826   3.819
65468W        W26889  35.098  43.875  12.539
65469W        W26890  16.183  14.749  13.946
65470W        W26891  33.909  23.036  13.411
65471W        W26892  12.744  11.756   1.836
65472W        W26893   3.903   6.730  10.959
65473W        W26894  18.068   9.154   0.478
65474W        W26895  27.615  42.917   0.918
65475W        W26896  24.034  34.379  12.492
65476W        W26897  13.314  25.011  11.047
65477W        W26898   4.888  35.104  14.009
65478W        W26899   5.869   8.658   3.763
65479W        W26900   1.481  43.384  11.007
65480W        W26901   8.892   1.378  11.049
65481W        W26902  13.211   7.794   0.801
65482W        W26903  37.856  44.324   4.344
65483W        W26904  34.987  24.168   0.779
65484W        W26905   6.206  29.981  14.476
65485W        W26906   5.240  36.885   1.699
65486W        W26907  20.071  18.271  14.311
65487W        W26908  22.518  16.573  10.135
65488W        W26909  20.094  14.667  11.863
65489W        W26910  16.641  34.535   4.830
65490W        W26911  38.396  30.619   3.327
65491W        W26912  28.999  35.871   0.963
65492W        W26913  13.828  16.597   4.138
65493W        W26914  29.574  35.050  10.535
65494W        W26915   9.189  31.484  10.582
65495W        W26916   0.986  44.489   3.867
65496W        W26917  25.197  21.594  10.913
65497W        W26918  41.413  22.616   2.835
65498W        W26919   8.274  32.439  12.081
65499W        W26920   5.730  36.398   1.212
65500W        W26921  37.363  22.023   1.229
65501W        W26922  38.527   7.266  12.938
65502W        W26923  41.893  26.659  11.057
65503W        W26924  34.556   9.821  10.581
65504W        W26925  14.245  42.352  12.052
65505W        W26926  41.931   0.945   0.798
65506W        W26927  42.352   9.695   3.203
65507W        W26928  30.658  11.301   4.758
65508W        W26929   2.825  15.705   0.875
65509W        W26930  26.517   1.850   3.678
65510W        W26931  29.111  11.814   0.331
65511W        W26932  36.453  43.797   2.797
65512W        W26933  32.085  27.459  12.012
65513W        W26934  14.783  28.500   5.260
65514W        W26935  39.845   2.427   3.335
65515W        W26936  40.801  16.702  13.429
65516W        W26937  35.490   7.671   2.351
65517W        W26938  16.804  40.402   1.887
65518W        W26939  43.007  20.743   2.781
65519W        W26940  36.410  32.895   0.375
65520W        W26941  33.103  28.455  14.370
65521W        W26942  16.163  12.778   1.278
65522W        W26943  16.240  13.612  12.044
65523W        W26944  22.702  22.692   0.436
65524W        W26945   5.728  31.587   2.772
65525W        W26946  29.982  22.214   2.274
65526W        W26947  17.264  27.628   2.369
65527W        W26948  34.546  36.002   1.848
65528W        W26949  11.205  15.302  14.428
65529W        W26950  26.666  12.669  11.935
65530W        W26951  32.898   1.821  12.362
65531W        W26952  40.311  17.272  11.539
65532W        W26953   9.286  28.125  10.070
65533W        W26954  38.371  34.433  11.032
65534W        W26955  12.765  36.397  12.465
65535W        W26956  16.101  10.657  13.992
65536W        W26957  36.950   2.435  14.874
65537W        W26958  27.099  42.918   2.856
65538W        W26959  39.917  13.660  13.396
65539W        W26960   4.334  29.175   2.743
65540W        W26961   9.351   8.371  12.861
65541W        W26962  14.602  16.737  14.906
65542W        W26963  38.479   5.438  11.064
65543W        W26964  17.656  30.519  12.062
65544W        W26965  35.072  42.285   3.710
65545W        W26966   0.341  13.284   4.762
65546W        W26967  21.194  39.815  12.435
65547W        W26968  20.259   4.828  12.032
65548W        W26969   9.220  34.527  11.442
65549W        W26970   3.447   5.228   0.951
65550W        W26971   8.328   0.468   1.441
65551W        W26972  21.113  20.107  13.855
65552W        W26973  28.005  30.018   0.915
65553W        W26974  14.102  41.011   4.170
65554W        W26975  44.824  41.953   1.395
65555W        W26976   7.310   8.901  12.027
65556W        W26977  22.996  40.815  14.779
65557W        W26978  44.955   9.172  10.478
65558W        W26979  36.558  22.572   0.734
65559W        W26980  15.578  42.803  11.551
65560W        W26981  17.666  10.799  12.401
65561W        W26982  37.423  29.641   0.343
65562W        W26983  23.155  25.177  14.347
65563W        W26984   5.308  10.298  12.026
65564W        W26985  40.491  40.995  14.505
65565W        W26986  31.014   3.762   3.160
65566W        W26987   7.397  15.646   3.670
65567W        W26988  42.487  11.218   5.764
65568W        W26989  10.685  44.960  10.431
65569W        W26990  24.999   8.791   4.225
65570W        W26991  29.168  38.568   2.408
65571W        W26992  11.345  14.279  10.528
65572W        W26993   9.373  13.221   4.647
65573W        W26994  33.051   3.255  12.981
65574W        W26995  33.468  22.152  14.466
65575W        W26996  16.745   0.835   1.295
65576W        W26997  17.675  15.316   2.182
65577W        W26998   9.339  22.138  14.471
65578W        W26999   3.331  35.408  13.350
65579W        W27000  20.678  23.596  14.864
65580W        W27001  27.579   2.738  11.896
65581W        W27002  18.100  31.102   9.634
65582W        W27003  22.658  28.591   4.800
65583W        W27004  21.562  22.105  12.951
65584W        W27005   3.399   1.271   0.917
65585W        W27006  25.569  11.857   4.237
65586W        W27007  40.850  12.750   2.355
65587W        W27008  44.889  41.337   0.826
65588W        W27009   8.297  24.014  12.377
65589W        W27010  37.367   7.357  12.536
65590W        W27011  32.952  40.538   3.291
65591W        W27012  42.449  17.141  14.473
65592W        W27013  21.545  30.579   0.915
65593W        W27014  10.801  27.605   2.404
65594W        W27015  18.259  25.646   4.349
65595W        W27016  41.328  34.881   2.797
65596W        W27017  21.158  43.835  12.965
65597W        W27018  32.920  32.902  14.444
65598W        W27019  40.843   7.790   4.225
65599W        W27020   4.750  44.817  14.409
65600W        W27021  33.015  30.001   1.910
65601W        W27022  22.569   1.832  14.905
65602W        W27023  43.448  12.656   0.950
65603W        W27024  36.508  33.586  11.553
65604W        W27025   8.216  13.246   0.853
65605W        W27026  23.583  42.313  11.038
65606W        W27027  43.842  41.879   3.278
65607W        W27028  18.131  11.670  12.043
65608W        W27029  30.551  14.162   3.781
65609W        W27030   8.229  26.114   1.866
65610W        W27031   3.418  17.575  11.052
65611W        W27032   0.977  29.620   0.384
65612W        W27033  39.443  39.012  13.961
65613W        W27034  15.678  29.559   2.296
65614W        W27035   9.160  20.261  10.950
65615W        W27036  34.415  26.145   1.703
65616W        W27037  18.697  14.297  14.973
65617W        W27038  38.543  12.613  14.316
65618W        W27039  11.736   7.366   1.311
65619W        W27040  26.103   0.756  12.447
65620W        W27041  13.671  15.817   0.898
65621W        W27042  16.606  15.304   3.807
65622W        W27043  27.954  24.035   2.864
65623W        W27044  13.108   3.383   0.942
65624W        W27045  11.306  17.676   2.326
65625W        W27046  15.696  22.052   2.182
65626W        W27047  26.156  26.069  12.368
65627W        W27048  26.966  13.346   2.282
65628W        W27049   6.816  28.975  14.323
65629W        W27050  15.737  14.213   1.301
65630W        W27051  23.662  30.959  10.430
65631W        W27052  27.098  24.116   1.924
65632W        W27053  10.640  40.366   2.697
65633W        W27054  38.403  31.578   1.922
65634W        W27055  29.029  23.593   1.765
65635W        W27056  35.891  44.474   2.892
65636W        W27057  43.003  39.032  10.949
65637W        W27058   3.460  15.656   2.265
65638W        W27059  29.455  44.488   3.688
65639W        W27060  28.015  19.218   4.670
65640W        W27061  40.832  20.569   0.429
65641W        W27062  20.644  28.935  10.572
65642W        W27063   6.201   3.874  14.873
65643W        W27064  14.137  39.321   4.753
65644W        W27065  38.823  37.879  10.508
65645W        W27066  25.651  25.060   4.126
65646W        W27067   6.367  41.443  12.073
65647W        W27068  15.273  36.891  13.941
65648W        W27069  12.181  42.347   0.298
65649W        W27070   3.830  24.613   0.406
65650W        W27071  43.821  39.934   2.694
65651W        W27072  21.659   5.857  11.454
65652W        W27073  16.290  30.110   0.921
65653W        W27074  21.651  41.977  11.473
65654W        W27075  29.653   5.784   0.438
65655W        W27076  36.530  28.628  10.980
65656W        W27077  12.270  12.774  12.449
65657W        W27078  33.120   8.325   0.361
65658W        W27079  37.884  44.456  10.902
65659W        W27080   3.334  35.070   4.644
65660W        W27081   2.316  38.829  12.067
65661W        W27082  17.284   8.827   1.824
65662W        W27083  38.410  23.230  12.903
65663W        W27084  25.046  16.646  12.515
65664W        W27085  38.879  16.634   1.438
65665W        W27086  27.527   8.274   4.302
65666W        W27087  15.161  21.178   4.806
65667W        W27088  15.611  22.562  13.363
65668W        W27089  21.633  33.003  14.984
65669W        W27090  35.953  12.130   3.824
65670W        W27091  36.015  39.865   3.371
65671W        W27092   8.688  15.267  14.862
65672W        W27093  21.064  29.129  13.957
65673W        W27094  41.356  31.448  13.400
65674W        W27095  11.293  42.377  13.793
65675W        W27096  21.051  34.456   4.218
65676W        W27097  28.663  27.957  10.943
65677W        W27098  18.548   0.916  11.913
65678W        W27099  43.402   8.310  11.428
65679W        W27100  10.729  21.140  11.437
65680W        W27101  34.607   0.396   5.806
65681W        W27102   0.753  17.745   4.300
65682W        W27103  32.394  34.003   1.418
65683W        W27104  27.071  16.104   2.381
65684W        W27105  20.149  28.970  13.447
65685W        W27106  10.173  18.597   3.270
65686W        W27107  21.619  20.259  14.467
65687W        W27108  21.616  12.134   5.805
65688W        W27109  38.949   7.905   1.799
65689W        W27110  13.329  22.997   0.885
65690W        W27111  12.286   2.304  10.603
65691W        W27112   9.836  36.582   0.931
65692W        W27113  19.725  18.769  13.519
65693W        W27114   6.781   7.871   4.117
65694W        W27115  14.765   7.854  11.426
65695W        W27116   4.775   2.426   2.363
65696W        W27117   3.829  18.208   2.843
65697W        W27118  34.108  31.137   2.776
65698W        W27119  44.974  36.592  12.827
65699W        W27120  41.463  19.259   2.193
65700W        W27121  29.606  22.188  13.899
65701W        W27122  29.442  27.963   0.298
65702W        W27123  18.739   5.380  13.480
65703W        W27124  42.511  23.528  10.459
65704W        W27125  32.608  29.615   3.328
65705W        W27126  29.518  10.180  12.436
65706W        W27127  43.896  34.020   3.200
65707W        W27128   9.813  20.115  13.345
65708W        W27129   2.784  26.653  11.094
65709W        W27130  43.857  12.195   4.666
65710W        W27131  12.804   4.924  12.405
65711W        W27132  30.425  28.086  12.971
65712W        W27133  29.036   2.441   2.370
65713W        W27134   1.329  13.808  13.374
65714W        W27135   7.307  33.382  13.433
65715W        W27136  17.071  18.235   1.345
65716W        W27137  22.708   8.690  10.471
65717W        W27138  14.809  22.667   2.346
65718W        W27139  38.492  24.502   2.352
65719W        W27140  36.068  15.771  14.976
65720W        W27141   4.251  31.126   5.776
65721W        W27142   2.742   8.294  12.561
65722W        W27143  26.129   2.400   0.912
65723W        W27144  41.319  21.157  10.028
65724W        W27145  16.151  33.881   5.673
65725W        W27146  28.451  42.322  11.091
65726W        W27147   0.296  17.203  14.977
65727W        W27148  19.120   6.326   2.360
65728W        W27149  17.248  37.025  11.379
65729W        W27150   5.387   8.271   0.770
65730W        W27151  22.648  17.102   1.720
65731W        W27152  42.298  44.326  14.452
65732W        W27153  15.587  17.090   4.738
65733W        W27154  35.979  22.732  14.383
65734W        W27155  21.547  15.812   4.211
65735W        W27156  21.102  11.328  10.033
65736W        W27157  17.679  15.190   3.672
65737W        W27158  31.404  23.707   1.410
65738W        W27159  17.105  10.634   0.341
65739W        W27160  36.409   9.778   4.630
65740W        W27161  27.683  31.104  12.549
65741W        W27162   7.893  44.270   0.922
65742W        W27163  40.380  43.775  12.022
65743W        W27164  35.572  15.652   5.236
65744W        W27165   3.716  21.156  13.335
65745W        W27166  11.173  16.264  12.548
65746W        W27167   2.434  20.664  12.919
65747W        W27168   0.744   6.399   0.388
65748W        W27169  28.497  31.623  13.317
65749W        W27170  37.983  20.653  12.409
65750W        W27171  29.036  24.150  14.382
65751W        W27172  24.090  33.956  11.084
65752W        W27173  24.185  12.253   1.237
65753W        W27174  42.964  16.093   3.667
65754W        W27175  29.627  43.323  11.413
65755W        W27176   5.305  37.957   1.923
65756W        W27177  12.758  29.585  14.515
65757W        W27178  24.046  19.640  13.847
65758W        W27179   3.949  20.547   0.347
65759W        W27180  34.433  26.966  11.439
65760W        W27181   4.828  28.466   3.229
65761W        W27182  18.266  24.013  14.449
65762W        W27183  25.011  29.424   3.363
65763W        W27184  32.142   6.221   1.220
65764W        W27185  13.162   1.952  12.887
65765W        W27186  33.006  11.356   4.336
65766W        W27187  40.938   1.362  13.984
65767W        W27188  23.009  41.857   1.712
65768W        W27189  12.714  37.370   0.474
65769W        W27190  29.579  21.719  11.482
65770W        W27191  15.640  28.649   0.791
65771W        W27192  44.982  34.479   0.809
65772W        W27193  33.008   1.960   3.254
65773W        W27194  15.718  35.862  13.061
65774W        W27195  39.342  17.167  12.920
65775W        W27196  11.169  15.291   2.699
65776W        W27197   7.307   2.285   3.221
65777W        W27198   4.847   8.249  11.927
65778W        W27199  41.530  22.251  14.277
65779W        W27200  17.290   0.914   4.320
65780W        W27201  34.456  11.664   1.874
65781W        W27202  37.004   0.328   2.878
65782W        W27203   0.953   5.720  12.064
65783W        W27204  37.944  14.329   0.367
65784W        W27205  15.680  27.587  12.896
65785W        W27206  19.151  36.587   2.285
65786W        W27207  28.498  23.204   1.302
65787W        W27208   5.815  11.349  12.443
65788W        W27209  29.467  33.890   3.353
65789W        W27210  19.718  20.617  12.939
65790W        W27211   5.709  25.635  11.043
65791W        W27212  41.509  43.483   3.863
65792W        W27213  27.153   8.751   0.846
65793W        W27214   5.927  10.161   3.211
65794W        W27215  38.027   1.348   2.894
65795W        W27216  30.963  42.473  14.984
65796W        W27217  43.293  31.928   2.856
65797W        W27218   8.299   0.459  14.895
65798W        W27219   0.489  38.398   4.331
65799W        W27220  24.109   5.826  11.014
65800W        W27221  32.121   5.813   2.250
65801W        W27222  41.041  24.067  14.786
65802W        W27223  15.784  38.038   3.205
65803W        W27224  16.651  26.652   1.930
65804W        W27225  19.775  24.061   0.354
65805W        W27226  14.317   9.724  11.095
65806W        W27227  44.346  27.159  13.863
65807W        W27228  23.240  16.579  14.002
65808W        W27229  37.373  23.684   3.834
65809W        W27230   2.904  43.269  11.497
65810W        W27231   1.824  16.797  11.045
65811W        W27232  15.622  33.114  10.444
65812W        W27233  34.054  21.718   2.237
65813W        W27234  36.426  23.120   1.349
65814W        W27235   1.303   4.932   4.224
65815W        W27236  23.108  25.611  10.558
65816W        W27237  35.533  37.387  10.918
65817W        W27238  38.926  12.834   3.336
65818W        W27239   5.295  14.814  13.358
65819W        W27240  26.662  11.767  12.022
65820W        W27241   9.651  18.157  10.986
65821W        W27242  19.619  26.662   1.792
65822W        W27243  33.078  14.226   3.247
65823W        W27244  34.391  17.579  14.925
65824W        W27245  33.544  44.302   2.666
65825W        W27246  36.970  16.713  12.000
65826W        W27247  30.920  11.764  10.946
65827W        W27248  41.030  22.532  12.070
65828W        W27249  29.442  42.417   3.857
65829W        W27250  27.176  13.315  11.081
65830W        W27251  10.272  13.599   0.931
65831W        W27252  24.140  10.660   1.699
65832W        W27253  26.679  11.242  10.412
65833W        W27254  15.606  27.006  11.873
65834W        W27255  15.110  30.578   4.746
65835W        W27256  14.683  31.596  12.418
65836W        W27257  42.006   9.246   3.218
65837W        W27258  25.083  38.904  11.571
65838W        W27259  17.794  24.558   1.371
65839W        W27260  35.379  10.715   1.339
65840W        W27261  14.254   4.897   2.187
65841W        W27262  16.251  28.012   1.919
65842W        W27263  33.928  16.164   3.231
65843W        W27264  12.357  21.242  14.499
65844W        W27265  40.493  38.964  12.940
65845W        W27266  11.319   5.195  13.480
65846W        W27267  42.934  17.632   4.127
65847W        W27268  10.276   5.278   1.381
65848W        W27269  14.209   6.713   2.312
65849W        W27270  35.482   5.693  11.388
65850W        W27271  12.696  30.086   1.228
65851W        W27272   5.818   4.861   3.168
65852W        W27273  29.519  30.920  12.452
65853W        W27274  16.150  38.329   4.668
65854W        W27275  30.519  28.175   1.718
65855W        W27276  11.839  10.250   1.921
65856W        W27277   7.321  41.512   0.849
65857W        W27278  15.097  39.811   3.223
65858W        W27279  38.873  29.585   5.178
65859W        W27280  30.611  39.320   2.199
65860W        W27281  38.050  16.769  14.986
65861W        W27282  13.794  29.097   1.262
65862W        W27283  19.695   3.825  10.618
65863W        W27284  37.487  34.908  14.898
65864W        W27285  13.656   0.817  12.941
65865W        W27286  39.063  21.578   0.320
65866W        W27287  11.849  23.557   1.726
65867W        W27288  36.365  30.474   3.812
65868W        W27289   8.823  39.505  12.011
65869W        W27290  37.055   5.249   3.727
65870W        W27291  27.141  21.556   2.801
65871W        W27292  30.922  22.010  14.951
65872W        W27293  27.017   1.760   1.266
65873W        W27294  44.846  39.918  13.923
65874W        W27295   3.272  42.863   3.828
65875W        W27296  27.108   5.427   3.734
65876W        W27297  10.187  17.634   1.874
65877W        W27298  33.504  22.120   9.986
65878W        W27299  39.398  31.922   4.659
65879W        W27300   5.391  12.704   4.646
65880W        W27301  39.990  24.523  12.969
65881W        W27302  15.596  32.620  14.012
65882W        W27303  23.073  27.138   1.834
65883W        W27304  32.399  19.272   3.286
65884W        W27305  37.882  19.277  11.428
65885W        W27306   7.188  33.970   0.398
65886W        W27307   1.281  15.685  12.493
65887W        W27308  26.620  29.140  14.290
65888W        W27309   3.768   1.961   0.380
65889W        W27310  17.779  12.761   0.906
65890W        W27311  30.478   3.436   0.429
65891W        W27312  21.585  10.161   0.265
65892W        W27313  35.032  15.278  13.810
65893W        W27314  38.857   2.745   3.705
65894W        W27315  23.065  38.417   4.345
65895W        W27316  41.354  44.331  11.426
65896W        W27317  18.761  30.121  11.977
65897W        W27318  28.560  22.182   4.804
65898W        W27319   7.272  37.344   5.615
65899W        W27320  24.538  15.116  13.367
65900W        W27321   5.215  10.207   1.282
65901W        W27322  41.043  30.065   1.411
65902W        W27323  25.152  35.493  12.397
65903W        W27324  27.127  22.084   3.257
65904W        W27325  17.076  23.647  14.281
65905W        W27326  12.236   5.793  12.542
65906W        W27327   5.934   6.224   1.746
65907W        W27328  15.686   6.698   3.768
65908W        W27329   2.806  23.076   2.761
65909W        W27330  15.784  32.099  14.486
65910W        W27331  21.141  23.647   4.275
65911W        W27332  21.195   4.281  13.959
65912W        W27333  36.554  15.661  11.921
65913W        W27334  15.687  44.336  10.923
65914W        W27335   0.897  18.054  10.622
65915W        W27336  44.844  34.105  10.496
65916W        W27337   9.309  26.053  14.319
65917W        W27338  30.098  26.137  13.957
65918W        W27339  44.320  15.112   5.235
65919W        W27340  44.783   5.766  12.479
65920W        W27341  16.233   5.760   3.741
65921W        W27342   4.938  29.949   3.166
65922W        W27343  23.225   9.288   0.409
65923W        W27344  39.477   9.183  10.992
65924W        W27345  11.795  22.156   3.308
65925W        W27346  42.297   6.323   0.451
65926W        W27347  32.532   8.861   4.143
65927W        W27348  17.667  15.787  13.818
65928W        W27349  44.281  19.648   1.263
65929W        W27350  20.635  12.353  10.993
65930W        W27351  11.786  36.847  11.908
65931W        W27352  20.644  26.066  14.006
65932W        W27353  24.083  26.552   3.840
65933W        W27354  16.286   9.649  11.554
65934W        W27355  17.605  18.717  14.433
65935W        W27356  44.495  42.347  14.321
65936W        W27357  10.837  21.673  11.971
65937W        W27358  16.745  19.122  14.831
65938W        W27359   2.416  38.922  12.824
65939W        W27360  22.229  40.501   2.299
65940W        W27361   8.383  39.503   2.338
65941W        W27362  12.733   6.866   0.404
65942W        W27363  36.520  41.810  14.789
65943W        W27364  11.790   1.315   1.317
65944W        W27365  43.814  17.142   2.684
65945W        W27366  15.204  14.195  13.866
65946W        W27367  20.708   8.388  14.841
65947W        W27368  17.779  32.429  11.859
65948W        W27369  32.463  20.698  10.636
65949W        W27370  29.566   2.439   0.817
65950W        W27371  20.719  41.013  12.348
65951W        W27372  40.488   0.792   0.334
65952W        W27373  20.768   5.759   9.482
65953W        W27374  27.657  41.505   2.244
65954W        W27375  40.041  22.653   2.888
65955W        W27376  34.527  33.103   3.278
65956W        W27377  32.071  22.047  14.442
65957W        W27378   6.850  15.140  12.342
65958W        W27379  40.331  23.197  10.573
65959W        W27380  37.517  24.684   0.946
65960W        W27381  14.214  41.809   1.770
65961W        W27382  23.183  30.611  10.904
65962W        W27383  19.753  16.585   4.786
65963W        W27384  35.522  10.152  13.822
65964W        W27385  22.547  41.535  13.812
65965W        W27386  16.673  24.691  12.854
65966W        W27387  14.757  27.170   1.266
65967W        W27388  36.494  28.645   3.679
65968W        W27389   7.744  10.160  10.892
65969W        W27390   6.819  25.151  12.444
65970W        W27391  13.166   0.803   2.283
65971W        W27392  44.394  14.691  11.878
65972W        W27393  38.466  24.181  13.912
65973W        W27394  32.030  10.676  14.400
65974W        W27395  16.220  12.264  14.439
65975W        W27396  34.602  40.910   0.376
65976W        W27397  13.333   7.296   2.263
65977W        W27398  37.956  25.008   4.312
65978W        W27399  22.522  25.986  11.103
65979W        W27400  40.303  36.069  13.987
65980W        W27401  32.632   7.706  12.885
65981W        W27402  42.981  32.142   0.889
65982W        W27403  15.229   2.324   4.788
65983W        W27404  31.566  17.278   4.342
65984W        W27405  16.757  29.014   2.731
65985W        W27406  38.328  22.747  13.336
65986W        W27407  29.133  11.325   3.633
65987W        W27408  29.034  38.949   0.322
65988W        W27409  19.174  18.747   5.225
65989W        W27410  10.295  34.991   4.808
65990W        W27411  11.805  35.527   2.891
65991W        W27412   5.252   0.817   2.784
65992W        W27413  41.420  33.415  13.437
65993W        W27414  42.286  36.350  13.877
65994W        W27415  42.899  23.117  13.378
65995W        W27416  23.734   5.273   3.839
65996W        W27417  35.013   4.844  11.396
65997W        W27418  35.071  44.857   0.435
65998W        W27419  37.526  28.930  12.550
65999W        W27420  18.290   5.352   3.786
66000W        W27421  27.144  28.121  13.940
66001W        W27422  32.095  43.427  11.986
66002W        W27423  18.666   7.703   1.384
66003W        W27424  18.610   2.344  11.037
66004W        W27425  14.710  23.641   2.734
66005W        W27426   9.203   6.815  10.583
66006W        W27427   6.728  13.688  11.567
66007W        W27428  10.824  41.410   1.758
66008W        W27429  29.527   3.946  10.631
66009W        W27430  32.912   8.819   3.758
66010W        W27431  38.505  31.996   2.295
66011W        W27432  42.377  35.591   1.816
66012W        W27433  40.441  31.404   1.891
66013W        W27434  14.634  30.442   0.319
66014W        W27435  14.677  44.794   4.675
66015W        W27436  36.381  34.947   3.302
66016W        W27437  35.526   9.288   2.687
66017W        W27438  22.169  27.010  11.111
66018W        W27439  34.607   0.811   0.793
66019W        W27440  14.704   3.952   2.824
66020W        W27441  11.704  13.249  11.008
66021W        W27442  29.525  21.102  13.866
66022W        W27443  23.092  28.669   2.354
66023W        W27444  15.156  37.398   2.190
66024W        W27445  33.933  14.635   1.437
66025W        W27446  36.870  14.666  10.978
66026W        W27447   2.889  41.798   2.261
66027W        W27448  39.866   3.856   3.344
66028W        W27449  27.491  37.463  14.346
66029W        W27450  10.243  36.425  10.952
66030W        W27451  42.383  19.155  13.357
66031W        W27452  17.586  15.175   5.268
66032W        W27453   8.718   4.800  13.879
66033W        W27454  19.197  28.117   0.247
66034W        W27455   2.428  12.855  12.065
66035W        W27456   5.213  42.338   2.258
66036W        W27457  10.711   1.797   4.352
66037W        W27458  33.390  27.558  14.456
66038W        W27459  33.445  15.159  13.536
66039W        W27460  32.537  33.585   4.229
66040W        W27461  44.417  16.230  13.911
66041W        W27462  39.937  11.312  13.064
66042W        W27463  30.581  29.007   3.237
66043W        W27464   0.913  31.636  13.049
66044W        W27465  38.829  36.509   4.616
66045W        W27466  31.438  31.922  10.607
66046W        W27467  15.607   8.795  12.082
66047W        W27468  27.535  23.087   4.684
66048W        W27469  20.035  23.182  12.984
66049W        W27470   2.776  26.964  12.029
66050W        W27471   0.786   6.390   1.887
66051W        W27472  16.261  36.478  14.414
66052W        W27473  43.914  26.200   3.785
66053W        W27474  38.562  26.083  14.838
66054W        W27475  18.266  35.050  10.475
66055W        W27476   7.898   2.328  14.343
66056W        W27477  24.014  12.145   0.737
66057W        W27478  25.209  14.327   1.402
66058W        W27479  27.653  15.640   1.267
66059W        W27480  14.641   9.765  12.877
66060W        W27481  12.183  38.892   0.369
66061W        W27482   8.281   5.902   0.920
66062W        W27483  28.571  31.130   1.368
66063W        W27484  37.034   5.225   0.335
66064W        W27485  23.560  22.247  13.935
66065W        W27486  42.393  14.630   9.947
66066W        W27487  32.526  16.576   4.279
66067W        W27488  36.982  38.408  11.903
66068W        W27489  27.981  25.540  14.346
66069W        W27490  30.468  40.841  11.420
66070W        W27491   5.762  37.432   2.329
66071W        W27492   5.806  41.486   5.226
66072W        W27493  38.396   6.900  11.599
66073W        W27494   5.910   4.759   3.802
66074W        W27495  33.124  27.474  12.339
66075W        W27496  23.208  11.704  11.441
66076W        W27497  28.446  18.293   2.324
66077W        W27498   0.935   0.484  13.057
66078W        W27499  44.000   2.733  10.562
66079W        W27500   5.696  23.105   4.328
66080W        W27501   4.252  39.828  13.904
66081W        W27502  23.082  15.698   3.150
66082W        W27503  21.095  26.985  10.632
66083W        W27504  20.158  29.475  11.901
66084W        W27505  19.191   0.349  14.339
66085W        W27506  26.051  41.993   1.737
66086W        W27507  44.840  21.533   3.215
66087W        W27508  31.498  31.988  13.897
66088W        W27509  16.074  30.044  11.435
66089W        W27510  44.910  42.955   2.319
66090W        W27511  40.437  26.119  13.038
66091W        W27512  21.680  24.547   2.234
66092W        W27513  37.988  34.878  10.522
66093W        W27514   7.810   3.783  14.803
66094W        W27515  24.595  25.983  12.901
66095W        W27516  43.905  35.531   1.867
66096W        W27517   8.204  12.752   4.267
66097W        W27518   3.759  18.072  13.537
66098W        W27519  13.305  39.545   3.291
66099W        W27520  27.054  19.564   1.913
66100W        W27521  23.060  20.731   2.327
66101W        W27522   8.338  40.854   9.630
66102W        W27523  12.295  32.134  11.397
66103W        W27524  20.213   6.189  13.471
66104W        W27525  41.340  21.647  13.492
66105W        W27526  34.497  10.226  12.959
66106W        W27527   0.868  11.699   0.287
66107W        W27528   7.756  42.469  12.521
66108W        W27529  22.246  31.109   2.356
66109W        W27530   9.322  33.104  11.509
66110W        W27531  20.645   6.329   2.237
66111W        W27532  26.684   4.753   1.720
66112W        W27533  24.135  42.401  12.048
66113W        W27534   2.949  22.718   3.704
66114W        W27535   9.749  44.899  14.031
66115W        W27536  26.073  18.637   3.759
66116W        W27537  15.228  14.140   2.241
66117W        W27538  19.679   1.752  10.032
66118W        W27539   1.954   0.367   3.146
66119W        W27540   2.877  29.512  11.501
66120W        W27541  31.465  42.818  10.413
66121W        W27542  29.926  12.817  14.279
66122W        W27543   4.727  27.647  12.927
66123W        W27544  35.998  24.010  10.961
66124W        W27545  18.670  20.028  14.353
66125W        W27546  36.406  12.334  11.431
66126W        W27547  10.840   0.783   3.148
66127W        W27548  32.562   5.210   0.439
66128W        W27549  32.954  42.782   4.652
66129W        W27550   9.685  26.991  13.943
66130W        W27551  26.147  28.508  12.424
66131W        W27552  37.968   3.346   1.251
66132W        W27553   5.898  27.111   0.915
66133W        W27554  39.949   4.347  14.984
66134W        W27555  39.357  29.158  10.958
66135W        W27556  15.106  34.604  12.451
66136W        W27557   4.410  43.001   4.236
66137W        W27558  36.456  23.064   2.740
66138W        W27559  38.963  21.527  14.281
66139W        W27560  39.436  25.506   1.902
66140W        W27561  42.010  26.473   1.695
66141W        W27562  12.691  16.719  11.988
66142W        W27563  23.657  36.052  11.874
66143W        W27564  40.829  16.792   0.917
66144W        W27565   0.409  32.955   4.123
66145W        W27566  31.973  36.945  14.848
66146W        W27567  17.219   1.861   0.321
66147W        W27568   6.423  33.877  13.536
66148W        W27569  14.601  40.530  14.493
66149W        W27570  30.648  44.342   1.774
66150W        W27571  35.076  10.863   2.822
66151W        W27572  41.442  13.168  11.980
66152W        W27573  25.000  15.676  14.449
66153W        W27574  17.133  44.430  10.459
66154W        W27575  31.570  27.049   0.316
66155W        W27576  44.942   4.247  11.514
66156W        W27577  42.459  21.230   3.717
66157W        W27578  33.566  19.209   4.812
66158W        W27579  41.792  11.332   1.914
66159W        W27580  15.741  20.031  12.876
66160W        W27581  44.353  12.675   3.230
66161W        W27582  19.688  30.598   0.853
66162W        W27583  25.628  43.271  12.944
66163W        W27584  34.053  12.308  12.354
66164W        W27585  43.466  35.515   3.680
66165W        W27586  25.603  21.579  14.959
66166W        W27587  31.081  10.262   4.779
66167W        W27588  40.473   2.734   1.232
66168W        W27589   5.831   1.329  14.925
66169W        W27590  19.269  37.440   2.815
66170W        W27591  23.570   1.970  11.489
66171W        W27592  12.341   1.861   2.729
66172W        W27593  37.908  36.496   2.249
66173W        W27594   5.851  33.504   3.679
66174W        W27595  36.353   5.436  12.900
66175W        W27596  15.644  22.206  12.957
66176W        W27597  14.776   8.812   1.712
66177W        W27598   0.252   3.855  13.470
66178W        W27599  43.280  42.438  14.925
66179W        W27600  19.692  11.680  13.967
66180W        W27601   4.224  41.398  13.376
66181W        W27602   4.867   4.823   0.842
66182W        W27603  34.943  20.608   3.654
66183W        W27604   0.875  29.943  10.907
66184W        W27605   2.451  38.073  13.469
66185W        W27606   9.653  19.621   0.342
66186W        W27607  39.922   5.235  11.055
66187W        W27608  36.417  29.666  10.443
66188W        W27609  26.175   7.767  14.337
66189W        W27610  25.205  32.098   3.726
66190W        W27611  15.320  39.994   1.724
66191W        W27612  44.375   9.746  12.015
66192W        W27613  40.832  10.805  10.418
66193W        W27614   7.290  42.812  13.047
66194W        W27615   5.312  38.977   5.257
66195W        W27616  24.976  21.670  12.827
66196W        W27617  10.292  38.375   5.226
66197W        W27618   2.300   3.274  14.932
66198W        W27619  30.558   7.728  14.803
66199W        W27620  31.545   3.305   2.418
66200W        W27621  42.832  13.790  11.021
66201W        W27622  13.842  22.701   0.347
66202W        W27623  35.102  22.244  13.824
66203W        W27624   7.815   4.233  12.353
66204W        W27625   1.337   0.255   4.820
66205W        W27626  33.896  42.419  11.474
66206W        W27627  10.727  27.111  14.365
66207W        W27628  14.746  14.134   1.765
66208W        W27629  13.262   6.276   3.678
66209W        W27630   6.315  24.037   5.194
66210W        W27631   1.248  26.570  12.830
66211W        W27632  11.801  35.422  14.867
66212W        W27633  27.023  15.236  11.567
66213W        W27634  44.837   0.852   3.226
66214W        W27635  39.511  20.675  11.052
66215W        W27636  22.159  17.609  10.974
66216W        W27637  35.946  21.603  12.418
66217W        W27638  15.101   5.261  14.006
66218W        W27639  16.246  10.645  10.635
66219W        W27640  13.728  21.128  14.759
66220W        W27641   9.385  14.662   1.445
66221W        W27642   0.807  29.098   2.700
66222W        W27643  12.697  23.160   2.194
66223W        W27644  28.140  19.138  14.951
66224W        W27645  30.132  38.010   3.643
66225W        W27646  21.099  43.012  13.350
66226W        W27647   4.249  16.278   4.690
66227W        W27648  44.363  43.873  10.406
66228W        W27649   6.357  32.624   1.720
66229W        W27650  11.699  22.539   0.774
66230W        W27651  24.070  12.641  13.327
66231W        W27652  30.610   0.493   4.665
66232W        W27653  13.227  44.311   0.951
66233W        W27654   2.249  32.056  13.383
66234W        W27655   4.895   6.870   4.759
66235W        W27656  35.999  27.975  10.589
66236W        W27657  24.626   3.813  10.482
66237W        W27658   8.202  17.160   4.635
66238W        W27659   1.295  34.057  13.478
66239W        W27660  41.356  28.159   1.795
66240W        W27661  13.217  41.031  14.826
66241W        W27662  44.355  30.961  12.885
66242W        W27663  27.621  34.901   3.278
66243W        W27664  34.612  10.274  11.490
66244W        W27665  19.632  31.038  11.054
66245W        W27666  14.331  43.809   0.466
66246W        W27667  13.272  38.927  12.404
66247W        W27668  16.147  19.677   2.693
66248W        W27669  29.923  35.061  14.958
66249W        W27670   7.685   1.448   1.749
66250W        W27671  30.522  10.287   0.478
66251W        W27672  21.244  15.170   2.750
66252W        W27673   2.782   9.301   2.413
66253W        W27674  39.505  13.627   0.246
66254W        W27675  32.081  24.641  11.536
66255W        W27676   8.254   3.907  13.833
66256W        W27677  44.814  28.467  12.833
66257W        W27678  36.999  18.254   3.646
66258W        W27679  10.275   5.758   5.089
66259W        W27680  22.610  23.164   1.835
66260W        W27681   4.361  35.894   4.609
66261W        W27682  30.550  11.150   2.900
66262W        W27683  19.200  31.149  13.946
66263W        W27684  36.905  33.976  12.390
66264W        W27685  40.353  31.584   2.846
66265W        W27686  27.034  28.992  10.455
66266W        W27687  34.535  44.010   3.355
66267W        W27688  35.547  42.426   4.231
66268W        W27689  34.537  19.181  14.462
66269W        W27690  16.761  17.100   3.631
66270W        W27691  27.084  16.777   2.276
66271W        W27692  30.573  17.751   4.283
66272W        W27693  42.935   0.248  14.784
66273W        W27694   2.404  10.750  10.948
66274W        W27695  42.931  42.976  10.123
66275W        W27696  21.623  26.566  12.548
66276W        W27697  16.582  37.918   2.710
66277W        W27698  19.676  37.904   2.818
66278W        W27699  19.647  37.999  11.927
66279W        W27700  33.884  32.901   0.917
66280W        W27701   5.407  37.564  13.824
66281W        W27702  42.016  40.467  12.352
66282W        W27703  38.503  44.993   1.907
66283W        W27704  31.043  25.539   3.779
66284W        W27705  24.543   3.366  14.813
66285W        W27706  17.637  36.878  10.506
66286W        W27707   1.248  17.732   1.381
66287W        W27708  36.975  29.137  12.936
66288W        W27709   3.956  28.144  13.327
66289W        W27710  40.839   4.873  10.533
66290W        W27711  22.236   1.277   2.414
66291W        W27712  37.063  31.426  10.464
66292W        W27713  33.548  12.258   2.206
66293W        W27714  41.426   1.764  12.521
66294W        W27715  35.557  13.818   1.304
66295W        W27716  36.532   9.643   1.340
66296W        W27717  21.111  14.334  13.826
66297W        W27718  21.165  20.162  14.449
66298W        W27719   1.427  37.956  14.005
66299W        W27720  17.605  30.413   3.637
66300W        W27721   5.691  26.192   0.781
66301W        W27722  37.009  34.385   0.296
66302W        W27723  42.865  43.274   2.782
66303W        W27724  32.949  31.418  13.927
66304W        W27725  12.842  33.995  10.506
66305W        W27726  25.034  14.754  13.447
66306W        W27727  42.811  17.745  10.927
66307W        W27728  19.539  26.485   4.779
66308W        W27729  39.878  36.010   2.357
66309W        W27730  25.174  37.839  11.869
66310W        W27731  20.661  30.652  12.354
66311W        W27732  21.561  25.099   1.917
66312W        W27733  18.190   1.261   0.375
66313W        W27734  18.626  22.635  13.923
66314W        W27735  15.690  19.673   3.682
66315W        W27736  27.084   5.835  12.984
66316W        W27737   9.769  16.229  13.516
66317W        W27738  38.444  22.552  12.024
66318W        W27739  11.696  36.012  14.427
66319W        W27740  40.963   8.841   0.957
66320W        W27741  21.028  43.312  11.409
66321W        W27742  28.129  25.076  14.388
66322W        W27743   2.907  31.537   1.829
66323W        W27744  44.394   8.281  11.499
66324W        W27745  30.121   7.372  11.001
66325W        W27746   6.271  12.678  14.988
66326W        W27747  37.424  44.273  11.389
66327W        W27748  27.499   9.872   1.338
66328W        W27749  30.064  33.011  11.604
66329W        W27750  37.364   2.325   3.232
66330W        W27751  32.416  24.133  14.953
66331W        W27752  26.104  35.438  14.975
66332W        W27753  11.186   7.826  11.084
66333W        W27754  13.183  42.524  13.351
66334W        W27755  25.023  16.593  14.281
66335W        W27756  38.476  44.923   0.870
66336W        W27757  32.399  11.329  12.906
66337W        W27758  10.654   4.262   3.715
66338W        W27759   6.363  15.633  14.792
66339W        W27760  25.118   8.232   0.807
66340W        W27761  16.132  20.685   4.668
66341W        W27762  23.120   2.468   4.792
66342W        W27763  18.616  17.783   3.258
66343W        W27764  42.025  39.482   3.852
66344W        W27765  15.161   6.252  12.850
66345W        W27766  43.980  35.468   1.364
66346W        W27767  39.041  20.587   4.748
66347W        W27768  30.146  10.731   3.688
66348W        W27769   5.706  14.752   1.843
66349W        W27770  26.967  42.977   3.314
66350W        W27771  29.039   0.836  14.772
66351W        W27772   8.166  41.415  13.893
66352W        W27773  21.704  31.441   3.206
66353W        W27774  20.651  21.647   0.893
66354W        W27775  16.075  44.997   2.704
66355W        W27776  26.459  10.848   0.345
66356W        W27777  24.716  27.149  14.473
66357W        W27778  38.880  29.587   3.800
66358W        W27779   7.863   9.858   4.209
66359W        W27780  17.653   4.800  11.021
66360W        W27781  41.301  32.991   2.780
66361W        W27782  40.876  16.180  14.982
66362W        W27783  44.297  32.049   4.118
66363W        W27784  13.275  12.814   3.278
66364W        W27785  40.393  37.053   1.428
66365W        W27786  42.924  44.475  11.896
66366W        W27787   2.325  20.723  10.531
66367W        W27788  34.881  30.954  12.970
66368W        W27789  42.352  18.161   2.413
66369W        W27790   2.295  10.227  11.453
66370W        W27791  13.158  36.060  12.475
66371W        W27792   6.254  34.485  14.292
66372W        W27793  14.129  26.681   3.752
66373W        W27794  25.674  21.643  12.538
66374W        W27795  44.282   7.314  12.356
66375W        W27796  32.943  22.525   3.206
66376W        W27797   3.948   2.787   4.253
66377W        W27798   3.250  13.692   0.900
66378W        W27799  17.591   7.776   3.725
66379W        W27800  44.011   1.737  11.016
66380W        W27801   9.722  12.701   2.209
66381W        W27802   6.679  33.484   1.436
66382W        W27803  33.499  34.420  13.431
66383W        W27804   9.251   5.792   0.727
66384W        W27805  24.673  41.361   2.231
66385W        W27806  41.467  42.868   3.297
66386W        W27807  34.086  37.421   3.368
66387W        W27808  27.580   3.922   1.851
66388W        W27809  33.397  10.876  14.282
66389W        W27810   0.428   5.223   3.635
66390W        W27811  26.497  37.436  14.880
66391W        W27812  40.450  18.630  10.575
66392W        W27813  38.859  42.504  12.005
66393W        W27814  30.428   6.695  11.508
66394W        W27815   9.224  41.357  12.923
66395W        W27816  38.915  42.863   2.342
66396W        W27817  41.837  44.289  11.087
66397W        W27818  12.630  28.536   0.315
66398W        W27819  17.181  24.065   2.862
66399W        W27820  35.478   7.337  13.949
66400W        W27821  18.263  10.264  11.116
66401W        W27822  42.867  44.898  14.461
66402W        W27823  32.615  21.665   4.279
66403W        W27824  21.730  28.974  10.614
66404W        W27825  24.125   7.177  14.003
66405W        W27826  25.054   6.200   9.522
66406W        W27827  11.635  43.318   3.864
66407W        W27828  10.147   6.827   0.883
66408W        W27829   0.791  15.578  12.516
66409W        W27830  19.685   4.935  13.515
66410W        W27831  43.022   8.234   2.220
66411W        W27832  24.974  27.196   2.301
66412W        W27833  41.850   2.372  13.891
66413W        W27834  42.441  41.388  12.004
66414W        W27835  35.394  25.471   3.176
66415W        W27836  18.670  36.527  14.977
66416W        W27837  35.943  26.603  11.913
66417W        W27838  31.533  37.485  10.432
66418W        W27839  37.468  42.848   4.672
66419W        W27840  26.632  18.745   1.765
66420W        W27841  26.022  12.856  12.478
66421W        W27842  33.395  30.959  14.931
66422W        W27843  27.665   2.933  13.476
66423W        W27844  33.509  14.629   3.385
66424W        W27845  40.053  18.607  13.932
66425W        W27846  20.243  37.920   1.314
66426W        W27847   2.418  19.700  12.345
66427W        W27848  15.655  20.553   3.272
66428W        W27849  42.475  42.423  11.373
66429W        W27850  31.566  33.029   1.417
66430W        W27851  38.871  39.554   2.719
66431W        W27852  14.705  36.472  11.098
66432W        W27853  19.164  34.997  11.472
66433W        W27854   7.835  44.764   0.736
66434W        W27855  26.630  43.999   1.749
66435W        W27856  28.073   5.785  14.984
66436W        W27857   3.751  33.558  14.306
66437W        W27858  41.384  32.503   2.751
66438W        W27859  37.987   2.776   0.250
66439W        W27860  41.921  43.874   2.728
66440W        W27861  22.694  32.605  14.936
66441W        W27862  17.258   5.439  13.539
66442W        W27863  24.669  34.045  13.326
66443W        W27864   5.793  44.833  12.048
66444W        W27865   1.845  39.443  13.448
66445W        W27866  32.121   4.847   4.720
66446W        W27867  12.248  39.439  12.414
66447W        W27868  21.679   3.307   1.910
66448W        W27869  29.062   3.727  10.416
66449W        W27870  36.471  34.100  14.305
66450W        W27871  24.975  31.547   4.166
66451W        W27872  37.085   2.243   9.493
66452W        W27873  40.886  23.104   4.812
66453W        W27874  19.242  17.280   9.962
66454W        W27875  17.145  34.876  12.547
66455W        W27876   8.204  20.714   3.860
66456W        W27877  43.876   4.814  11.023
66457W        W27878  11.332  10.215   4.342
66458W        W27879   6.382   9.649  13.451
66459W        W27880  38.427   2.350   4.323
66460W        W27881  33.010  37.388  13.940
66461W        W27882  36.096  30.478  14.495
66462W        W27883  13.125  29.102   0.939
66463W        W27884  42.444  26.698   2.827
66464W        W27885  24.064  18.712  14.287
66465W        W27886  11.826   4.881   1.787
66466W        W27887  23.661  37.566   1.697
66467W        W27888  22.022  24.713   4.119
66468W        W27889  11.677  10.656   2.267
66469W        W27890  29.527  25.175   9.926
66470W        W27891  21.257  33.442   4.707
66471W        W27892  16.278  40.844   4.240
66472W        W27893  31.117  27.972  11.436
66473W        W27894  10.244   0.937  11.071
66474W        W27895  29.460   7.817   3.641
66475W        W27896   4.392  11.181  14.838
66476W        W27897  41.374   9.228   3.254
66477W        W27898  15.085   6.193  14.800
66478W        W27899  17.266  13.261   0.914
66479W        W27900  28.037  24.647   2.202
66480W        W27901  29.551  22.007   1.860
66481W        W27902  35.933  23.704   2.768
66482W        W27903   9.240  29.052  10.550
66483W        W27904  26.606  43.509  11.374
66484W        W27905  25.523  14.594   2.717
66485W        W27906   5.856  13.719   0.898
66486W        W27907  32.471  44.298  14.859
66487W        W27908  24.051  41.374   1.935
66488W        W27909  39.839  15.822   1.435
66489W        W27910  11.196  13.261   3.163
66490W        W27911  39.428  12.647   4.783
66491W        W27912  27.184  33.554   0.249
66492W        W27913  31.958  28.560   0.814
66493W        W27914  13.149  32.920   0.863
66494W        W27915  20.152  28.575   4.726
66495W        W27916  21.704  22.607   0.749
66496W        W27917  27.558  22.722  12.414
66497W        W27918  40.032  37.979   4.287
66498W        W27919  27.027   3.782   4.765
66499W        W27920  13.785  32.603  12.851
66500W        W27921  42.330  44.420   1.812
66501W        W27922  13.174  41.374  14.959
66502W        W27923  25.518  43.857  11.473
66503W        W27924   4.724  39.970  12.027
66504W        W27925   8.760   6.899   2.232
66505W        W27926   8.662   2.865   4.734
66506W        W27927  31.070  41.921   3.150
66507W        W27928  20.212  13.209  14.837
66508W        W27929  23.593  15.589   2.746
66509W        W27930  17.719  35.462   0.435
66510W        W27931   5.361   9.877  14.004
66511W        W27932   1.853   6.681   3.781
66512W        W27933  34.006  10.219   4.643
66513W        W27934  17.608   8.319  14.941
66514W        W27935   9.355  19.129  14.494
66515W        W27936   7.401  21.023  14.358
66516W        W27937  15.141  39.535  13.026
66517W        W27938  14.620   1.827   4.201
66518W        W27939   3.312   8.376   2.256
66519W        W27940   7.330   4.709  13.547
66520W        W27941  24.599   5.801  13.405
66521W        W27942  34.979  33.470   5.170
66522W        W27943  32.025  30.428  13.350
66523W        W27944  16.736  32.447  11.397
66524W        W27945  16.793  25.691  14.885
66525W        W27946  10.267  44.351  12.365
66526W        W27947  42.844  39.427   4.631
66527W        W27948   9.332  12.684   3.264
66528W        W27949   9.269   6.279   0.762
66529W        W27950  19.105   2.866  12.046
66530W        W27951  40.443   3.399  12.904
66531W        W27952  24.528  39.992  13.429
66532W        W27953   0.420  24.153  14.462
66533W        W27954   7.258   5.268   2.279
66534W        W27955  29.466   7.197   3.235
66535W        W27956  26.555   8.830   1.787
66536W        W27957  35.865  32.085   3.858
66537W        W27958   1.854  10.371   0.880
66538W        W27959  42.886   3.954  13.001
66539W        W27960  10.644  13.656  12.973
66540W        W27961  10.713  39.447   1.846
66541W        W27962  27.683  27.110   1.748
66542W        W27963  31.605  13.213  13.326
66543W        W27964  35.513  31.070  12.485
66544W        W27965  13.116  25.674  13.876
66545W        W27966  14.197  34.083   4.684
66546W        W27967  41.874  35.109  12.928
66547W        W27968  25.089   5.314   0.266
66548W        W27969  26.007  36.008  11.570
66549W        W27970   0.891  34.085  12.927
66550W        W27971  15.715  23.150   4.171
66551W        W27972  12.840  34.494   2.761
66552W        W27973   7.832  31.440  13.891
66553W        W27974  27.962  11.860   2.349
66554W        W27975  22.196  41.520   2.870
66555W        W27976  36.438   7.378   5.236
66556W        W27977  37.033  27.675   0.254
66557W        W27978  43.785  44.994  10.452
66558W        W27979  19.068  43.781  10.490
66559W        W27980  25.064  42.002  10.946
66560W        W27981   3.417  12.680  13.967
66561W        W27982  29.487  36.504  14.443
66562W        W27983   0.256  13.345   0.457
66563W        W27984   0.855  18.588  13.852
66564W        W27985  11.855  19.195   1.862
66565W        W27986  35.482  40.944   4.737
66566W        W27987  18.051   8.262   4.788
66567W        W27988  30.583  19.096  11.395
66568W        W27989  43.893  12.645  11.560
66569W        W27990   7.864  28.158   2.369
66570W        W27991  21.125  29.967   0.428
66571W        W27992  40.908  34.593   2.731
66572W        W27993  29.057  26.071  12.086
66573W        W27994  11.369  30.049  11.029
66574W        W27995  26.571  21.075   4.793
66575W        W27996  18.224  36.875  11.535
66576W        W27997   0.463  42.369  13.894
66577W        W27998  19.041  40.444   0.398
66578W        W27999  13.257  39.384   2.269
66579W        W28000  16.720  42.500  12.044
66580W        W28001  23.126   9.647   0.898
66581W        W28002  35.477  22.724   3.281
66582W        W28003  27.564  30.596   2.372
66583W        W28004   4.718  14.182  13.011
66584W        W28005  13.645  35.069  13.349
66585W        W28006   4.738  19.171   1.892
66586W        W28007  36.455  13.644   2.393
66587W        W28008  22.064  29.932   2.349
66588W        W28009  11.788  10.287  11.541
66589W        W28010  38.037  24.656  13.497
66590W        W28011  26.109   2.723   3.380
66591W        W28012  17.145  16.163  11.612
66592W        W28013  29.543  10.218   4.210
66593W        W28014  42.917  38.494   4.131
66594W        W28015  35.949  39.950   0.967
66595W        W28016  23.160   1.757   2.765
66596W        W28017   4.310  44.006   4.337
66597W        W28018  38.501   1.849   2.364
66598W        W28019  18.724  13.127   9.666
66599W        W28020  28.570   3.753   2.761
66600W        W28021  20.647  20.111  14.361
66601W        W28022  30.611  32.523  14.315
66602W        W28023  28.173  24.985  10.414
66603W        W28024   7.905   9.385  11.452
66604W        W28025  43.933  35.064   1.404
66605W        W28026  11.233  12.791  10.436
66606W        W28027  24.559   8.678   1.912
66607W        W28028  19.207  38.998   4.600
66608W        W28029  37.044  22.664   2.376
66609W        W28030   0.931  34.578   1.254
66610W        W28031  11.200  30.561   3.753
66611W        W28032  24.489  44.286   4.231
66612W        W28033  18.128  26.523   2.247
66613W        W28034  21.128   4.857  14.791
66614W        W28035  13.106  27.527   1.364
66615W        W28036  19.208  44.440  12.440
66616W        W28037  19.742  11.741   2.219
66617W        W28038   9.356  16.793  12.417
66618W        W28039  22.626  21.238   1.864
66619W        W28040  11.621  33.479  13.507
66620W        W28041  20.698  43.372  11.878
66621W        W28042   6.859  12.192  13.957
66622W        W28043  43.491  25.165   1.246
66623W        W28044   6.334  39.470   2.374
66624W        W28045  17.605  19.175  14.941
66625W        W28046   2.243  40.523  12.489
66626W        W28047  35.997  10.197   1.845
66627W        W28048  37.865  17.301  10.041
66628W        W28049  42.947  38.983   5.214
66629W        W28050  39.944  26.141  13.478
66630W        W28051  44.461  11.185   4.656
66631W        W28052  10.653  40.455  14.767
66632W        W28053   4.364  12.731   4.138
66633W        W28054  13.238   6.356  14.956
66634W        W28055  30.163  37.993   4.630
66635W        W28056   2.316  41.297   0.248
66636W        W28057  39.856  16.762   3.630
66637W        W28058  44.459   2.393  11.961
66638W        W28059  36.989  34.967  14.814
66639W        W28060  21.736  21.735   3.758
66640W        W28061  35.984   1.940  10.027
66641W        W28062   7.702  40.468  14.819
66642W        W28063   3.851  32.486  12.018
66643W        W28064   0.751  42.969   4.136
66644W        W28065   3.376  22.514  12.922
66645W        W28066   6.194  10.138  13.472
66646W        W28067   8.879  40.028  11.857
66647W        W28068  41.817  39.357   2.369
66648W        W28069   6.244  20.569  13.964
66649W        W28070   7.678   9.175   4.193
66650W        W28071  15.218  16.785  14.984
66651W        W28072   6.379  25.086   3.242
66652W        W28073  26.681  33.066   1.364
66653W        W28074  35.889   3.349   4.703
66654W        W28075  15.303  25.632  14.023
66655W        W28076  36.063  20.267  13.999
66656W        W28077   5.314  35.499   2.666
66657W        W28078  20.176  12.191  13.362
66658W        W28079  11.194  37.358  12.956
66659W        W28080   0.989  14.223   5.287
66660W        W28081  39.534   1.827   4.796
66661W        W28082   2.429  40.380   0.329
66662W        W28083  14.317  11.637   4.832
66663W        W28084  43.469   7.336   3.247
66664W        W28085   5.352  13.707  14.845
66665W        W28086  13.788  44.316   3.814
66666W        W28087  22.084   7.855   2.371
66667W        W28088   6.743  44.868  11.464
66668W        W28089  41.867  11.215  14.840
66669W        W28090  33.548  13.106  11.502
66670W        W28091  25.994  42.429   0.361
66671W        W28092  25.021  31.030   1.298
66672W        W28093  44.769  13.190   2.303
66673W        W28094  21.691  43.505  11.101
66674W        W28095  27.985  14.332   2.664
66675W        W28096  21.720  22.119  14.778
66676W        W28097   3.374  40.313  11.611
66677W        W28098  38.422  38.070   2.266
66678W        W28099  13.322  15.819  10.485
66679W        W28100  10.172   9.723  10.559
66680W        W28101  30.644   2.383  14.406
66681W        W28102  15.608  36.413   3.362
66682W        W28103  32.053  37.939   2.668
66683W        W28104  42.514  29.551  10.986
66684W        W28105  29.580  20.214   3.198
66685W        W28106  31.475   1.423   3.861
66686W        W28107   2.759  29.974  11.070
66687W        W28108  22.559  43.355   1.803
66688W        W28109  24.169  18.596  12.070
66689W        W28110  13.165  13.273  11.069
66690W        W28111  37.883  13.213  13.984
66691W        W28112  34.866   2.456   3.804
66692W        W28113  10.368  20.536  13.364
66693W        W28114  32.597   9.378   2.875
66694W        W28115  21.555  11.174  10.936
66695W        W28116  32.408  38.466  11.084
66696W        W28117  11.745  27.196   1.309
66697W        W28118  10.689  30.131  12.439
66698W        W28119  32.044  26.024  13.363
66699W        W28120  12.813  22.201   3.824
66700W        W28121   2.912  39.376  10.986
66701W        W28122  35.461  44.944   2.859
66702W        W28123  26.507   9.329  11.389
66703W        W28124  41.028  29.050  11.012
66704W        W28125  42.833  31.923   1.348
66705W        W28126  29.956  14.159   3.662
66706W        W28127  20.690  33.874  11.912
66707W        W28128   5.379  14.756  11.861
66708W        W28129  40.869   8.197   2.741
66709W        W28130  15.267   3.363  10.452
66710W        W28131   9.859  41.476   1.320
66711W        W28132  33.511  21.197  14.423
66712W        W28133   0.748  27.674   1.428
66713W        W28134  14.775  14.149  13.002
66714W        W28135  30.163  26.085   2.394
66715W        W28136  31.503  15.707  13.461
66716W        W28137   8.380  13.603  14.304
66717W        W28138  44.291   8.760   9.952
66718W        W28139  18.706  33.606   4.146
66719W        W28140  12.353   6.223  11.472
66720W        W28141  27.597  41.442  11.425
66721W        W28142  28.005  28.534  14.513
66722W        W28143   0.933  10.291  14.470
66723W        W28144  40.040  13.842   2.276
66724W        W28145   5.382  36.391   2.673
66725W        W28146  13.122  29.066  10.953
66726W        W28147  25.621  18.649  13.874
66727W        W28148   6.214  11.245   0.414
66728W        W28149  35.481  31.637  13.321
66729W        W28150  14.275   5.921   1.406
66730W        W28151  11.634  22.219   0.951
66731W        W28152  31.907   3.790  14.404
66732W        W28153  10.659  29.583   2.248
66733W        W28154   1.817   1.836  12.347
66734W        W28155   5.911  21.190  14.972
66735W        W28156  35.931  21.133   1.763
66736W        W28157  41.844  14.756   3.262
66737W        W28158  36.369  13.799   2.761
66738W        W28159  25.157   3.236  11.453
66739W        W28160  30.601   3.400   3.747
66740W        W28161  16.129  16.690  13.900
66741W        W28162  16.317  12.217  12.444
66742W        W28163  23.635  23.026   4.728
66743W        W28164  23.198  31.459   4.138
66744W        W28165   3.759  11.846  11.871
66745W        W28166  30.075  33.464   3.345
66746W        W28167  18.588  17.786  13.948
66747W        W28168  26.154  32.440  13.469
66748W        W28169   0.930  19.049  14.501
66749W        W28170  25.165  20.140  12.985
66750W        W28171   5.194   7.671  14.380
66751W        W28172  32.548  43.509   2.783
66752W        W28173  26.107  35.088  12.464
66753W        W28174  44.804  26.177   2.799
66754W        W28175  39.832  16.304   3.789
66755W        W28176  33.949  35.028   1.426
66756W        W28177  12.194  34.948   3.188
66757W        W28178   6.384  39.905   3.268
66758W        W28179   5.713  13.323  13.440
66759W        W28180  43.464  32.612  14.769
66760W        W28181   9.347  37.951   2.699
66761W        W28182  44.394  27.035  14.429
66762W        W28183  40.363  39.352  12.551
66763W        W28184  26.204   1.310  10.920
66764W        W28185  15.091  26.626  14.415
66765W        W28186  36.358  25.676  11.110
66766W        W28187   9.813  17.643   2.409
66767W        W28188  44.007   6.691   0.463
66768W        W28189   3.818  14.617   3.807
66769W        W28190  32.118  23.016  13.879
66770W        W28191   0.295   5.428   4.646
66771W        W28192  10.271  44.930   3.377
66772W        W28193  44.483  44.762   3.788
66773W        W28194   4.396  21.627  13.395
66774W        W28195  26.967  33.934  13.451
66775W        W28196  22.093  23.235  12.923
66776W        W28197   2.960  43.966  10.915
66777W        W28198  24.483  44.319  13.413
66778W        W28199  36.460   6.250   5.289
66779W        W28200  25.556  19.180  14.906
66780W        W28201   4.790   8.708  14.415
66781W        W28202  43.916  11.222   1.830
66782W        W28203  11.153  41.384   2.191
66783W        W28204  19.156  10.173   2.663
66784W        W28205   5.865   5.839   4.664
66785W        W28206  22.183  36.003  11.550
66786W        W28207  42.526   3.331   4.756
66787W        W28208   5.865  34.058  14.350
66788W        W28209  13.772   8.800  11.386
66789W        W28210  20.627  41.919  11.022
66790W        W28211  26.468   1.306  11.886
66791W        W28212  21.678  15.169   1.237
66792W        W28213  10.803   6.714  10.947
66793W        W28214  43.417   6.234  14.509
66794W        W28215  14.341  34.982  10.448
66795W        W28216   9.820  38.420   5.687
66796W        W28217  13.172  42.436  11.954
66797W        W28218  39.366  17.165  10.564
66798W        W28219  16.203  10.862  11.965
66799W        W28220  43.846  33.024  12.061
66800W        W28221  27.995   5.829   2.283
66801W        W28222  26.664  38.553   4.714
66802W        W28223  15.298  14.832  13.530
66803W        W28224  39.908  15.129   4.308
66804W        W28225  27.590  24.990   3.187
66805W        W28226   1.738  24.034  10.068
66806W        W28227  27.643  44.807  14.786
66807W        W28228  31.423  29.549  13.993
66808W        W28229  43.002  16.109  14.416
66809W        W28230  37.384  13.121   3.680
66810W        W28231  33.563  26.603   4.154
66811W        W28232   9.837  10.157  13.814
66812W        W28233  33.067  19.114   4.736
66813W        W28234  44.498  21.142  10.499
66814W        W28235  24.202  29.562  12.476
66815W        W28236   0.799  24.707   0.889
66816W        W28237  32.458  28.010   2.849
66817W        W28238  39.391  29.643   2.284
66818W        W28239  19.255   2.959  13.474
66819W        W28240  42.324  39.346  10.943
66820W        W28241  23.614   6.387   1.451
66821W        W28242  42.816  13.149   1.315
66822W        W28243  10.274  20.268  13.815
66823W        W28244  44.937  31.057   1.301
66824W        W28245   6.385   0.915  11.124
66825W        W28246  23.566   7.325  13.007
66826W        W28247  16.105  11.766  12.915
66827W        W28248  33.460   9.652  10.992
66828W        W28249  20.559  11.789   1.882
66829W        W28250   9.755  39.872   4.831
66830W        W28251  37.366  22.032   2.206
66831W        W28252  38.035  43.455  14.463
66832W        W28253  15.225  41.344  11.015
66833W        W28254   0.431  10.160   3.838
66834W        W28255  21.574  19.270   0.354
66835W        W28256  37.854  17.683  13.950
66836W        W28257  42.334   8.311  14.505
66837W        W28258  43.299  21.256  10.017
66838W        W28259  19.615   1.325  12.016
66839W        W28260   1.243   5.757   4.324
66840W        W28261   4.766  22.526   5.318
66841W        W28262  17.199  13.342   2.279
66842W        W28263  42.418  19.761   4.346
66843W        W28264  37.448  19.738  11.879
66844W        W28265   4.718  10.240   1.287
66845W        W28266  40.947   2.450   4.209
66846W        W28267  17.244  14.138  11.912
66847W        W28268   1.926  40.927  14.400
66848W        W28269   2.791  38.399   0.888
66849W        W28270   9.385  42.479   4.286
66850W        W28271  25.645  41.888  11.974
66851W        W28272   1.295  21.217   5.258
66852W        W28273  24.573  20.135   2.750
66853W        W28274  33.002  32.125  12.060
66854W        W28275  20.243  17.782   4.734
66855W        W28276  35.453   8.286   2.335
66856W        W28277  37.444  17.714  10.938
66857W        W28278  30.911  42.325   2.407
66858W        W28279  21.552  41.010   4.197
66859W        W28280   1.387  17.677  11.937
66860W        W28281  25.713  23.024  11.029
66861W        W28282  22.108  30.608  12.888
66862W        W28283  39.553  35.993  10.477
66863W        W28284  43.001  20.063  12.047
66864W        W28285  31.032  32.919   1.295
66865W        W28286  23.617  28.175   3.811
66866W        W28287  24.575  16.609  11.602
66867W        W28288  24.527  25.122   3.687
66868W        W28289   2.786   1.360  14.465
66869W        W28290   9.325  11.163   0.315
66870W        W28291   6.280  20.112   3.152
66871W        W28292  22.615   7.287  14.882
66872W        W28293  28.453   3.841   3.757
66873W        W28294   9.701  35.488  14.392
66874W        W28295  31.479   0.251   4.835
66875W        W28296  17.658  39.817  13.536
66876W        W28297  27.692  29.429   1.809
66877W        W28298  29.055  27.625   2.753
66878W        W28299  35.992  25.153  13.056
66879W        W28300  41.797  12.118  11.044
66880W        W28301  18.768  42.989  13.008
66881W        W28302   9.762  21.191   3.310
66882W        W28303  43.276  11.188  14.275
66883W        W28304   3.343  37.893  11.392
66884W        W28305  37.391  33.518   0.793
66885W        W28306  30.113  17.643   2.831
66886W        W28307  27.175  25.524  12.828
66887W        W28308  17.131  35.963   0.430
66888W        W28309  35.420  26.477   1.838
66889W        W28310  16.194  43.503  11.429
66890W        W28311  24.974  43.837  13.329
66891W        W28312   3.380  39.940   2.376
66892W        W28313   9.391  38.507   2.687
66893W        W28314  22.649  20.676   2.779
66894W        W28315  34.035  15.821  14.505
66895W        W28316  28.482  16.641  14.908
66896W        W28317  31.905   7.301   1.850
66897W        W28318  25.111  20.721  11.401
66898W        W28319  35.367   6.803  13.826
66899W        W28320   7.863  26.698  10.461
66900W        W28321   7.854  41.359   1.391
66901W        W28322   1.822  26.116   5.607
66902W        W28323  37.002  42.466  11.422
66903W        W28324   5.821  28.077   2.418
66904W        W28325  21.024   7.277   0.471
66905W        W28326  25.647  30.548  10.033
66906W        W28327  11.717   0.407  10.993
66907W        W28328  20.668  42.790  12.003
66908W        W28329   7.868  20.115  14.968
66909W        W28330  27.026  22.182  13.548
66910W        W28331  26.562  44.288  11.599
66911W        W28332  34.970  22.700  10.034
66912W        W28333  11.714  33.929   4.186
66913W        W28334  24.605   8.781  13.527
66914W        W28335  17.676   1.742  11.406
66915W        W28336   7.404  19.747  11.109
66916W        W28337  44.497  26.648   0.398
66917W        W28338  41.415   8.202   3.147
66918W        W28339  15.796  18.149  14.385
66919W        W28340  44.952   9.779  11.993
66920W        W28341  40.351  19.761   1.335
66921W        W28342  43.488  23.131  11.492
66922W        W28343  20.259  37.351   3.761
66923W        W28344  38.353  20.715   2.760
66924W        W28345  26.964  20.052  12.003
66925W        W28346  36.440  27.455   0.428
66926W        W28347  11.809  14.593   1.780
66927W        W28348  33.989  12.687  14.875
66928W        W28349   2.829  17.669  14.790
66929W        W28350  22.552  35.487  12.996
66930W        W28351  38.002  27.967  10.479
66931W        W28352   4.766  20.181  13.526
66932W        W28353  41.997  16.803   3.249
66933W        W28354  30.633  11.778  12.996
66934W        W28355   0.262  27.661  13.361
66935W        W28356   3.309  21.035   0.862
66936W        W28357  38.963  44.326   0.342
66937W        W28358  12.763  39.014  10.951
66938W        W28359  20.606   8.726   4.777
66939W        W28360  31.481   4.288   1.907
66940W        W28361  30.922  33.421  10.109
66941W        W28362  30.909   1.929   1.445
66942W        W28363   1.742  38.416   0.304
66943W        W28364  17.623  42.475   1.318
66944W        W28365  10.665   7.226  12.855
66945W        W28366  31.495  25.673   1.924
66946W        W28367   0.861  10.864   3.815
66947W        W28368  39.035   6.816   4.227
66948W        W28369  40.359   5.341  13.373
66949W        W28370  27.008  32.627   0.736
66950W        W28371   8.272   7.770   4.248
66951W        W28372   2.230  22.019   1.220
66952W        W28373  23.085  11.774  12.849
66953W        W28374  15.621  12.355   0.904
66954W        W28375   5.437  36.881   4.736
66955W        W28376  10.647  30.457  11.379
66956W        W28377  32.123   3.401   5.158
66957W        W28378   0.391   6.919  11.451
66958W        W28379  11.195   2.935   4.296
66959W        W28380  34.891   9.361  14.802
66960W        W28381  38.345  21.658   1.698
66961W        W28382  27.453  39.048   4.320
66962W        W28383  28.983  35.870   2.181
66963W        W28384   9.825  35.490   4.687
66964W        W28385  30.943   9.215   0.771
66965W        W28386  29.512  29.634   0.302
66966W        W28387   4.782  34.565   1.769
66967W        W28388   5.255  42.376  10.516
66968W        W28389  28.046  15.097   9.924
66969W        W28390  21.683  19.201  11.953
66970W        W28391  31.140  42.499  14.385
66971W        W28392  34.008  43.933   4.619
66972W        W28393  42.403   6.750   4.113
66973W        W28394  25.092  14.106  14.308
66974W        W28395  33.875  37.515   4.130
66975W        W28396  11.241  29.579  11.505
66976W        W28397  31.522  26.168  14.806
66977W        W28398   0.899  42.292   0.838
66978W        W28399  32.040  12.218   2.371
66979W        W28400  29.089  41.014  10.604
66980W        W28401  26.151   4.265   4.241
66981W        W28402  17.074  13.842   2.762
66982W        W28403  28.505  15.804   2.715
66983W        W28404  13.185  35.994   4.766
66984W        W28405  14.234  40.466   1.312
66985W        W28406  24.520  22.631   2.782
66986W        W28407  26.635  44.439  14.412
66987W        W28408  30.117  31.041   0.263
66988W        W28409  12.820  25.992  11.127
66989W        W28410  19.085  39.837  13.829
66990W        W28411  44.945  40.317  11.890
66991W        W28412  27.087  41.946   1.432
66992W        W28413   2.942  11.852  12.470
66993W        W28414  34.541  30.626   2.298
66994W        W28415   8.340   5.256  13.910
66995W        W28416  30.952  37.427   1.823
66996W        W28417  24.603  41.386   3.283
66997W        W28418  14.098  23.139   3.264
66998W        W28419  23.197  35.852  11.961
66999W        W28420   0.339  34.603   2.370
67000W        W28421  40.330  34.567   3.262
67001W        W28422  20.526  41.309   4.746
67002W        W28423  35.404  23.068  13.937
67003W        W28424  32.922  18.641  14.393
67004W        W28425  29.603  23.500   2.401
67005W        W28426   6.421  11.248  14.419
67006W        W28427  42.407  31.582   3.682
67007W        W28428   2.861  35.875  12.507
67008W        W28429  23.217  35.468  13.426
67009W        W28430  21.646   7.415   1.892
67010W        W28431  17.239  25.704  12.418
67011W        W28432  38.918   3.935  12.399
67012W        W28433   2.457  11.719   2.666
67013W        W28434  39.533  41.949  11.981
67014W        W28435  14.160   7.768   0.296
67015W        W28436  41.790   7.337   1.892
67016W        W28437   4.864  18.753   5.199
67017W        W28438  40.335  29.068   4.640
67018W        W28439   9.194  32.124   3.654
67019W        W28440  19.681   3.885   2.839
67020W        W28441  27.524  34.423  14.354
67021W        W28442  42.836  22.243   3.385
67022W        W28443  34.946   0.349  10.061
67023W        W28444  25.137  43.399  14.827
67024W        W28445  29.034  32.498   3.653
67025W        W28446   7.184  38.989  11.925
67026W        W28447  20.115  23.158   2.811
67027W        W28448   6.341   7.243   4.145
67028W        W28449  23.565   1.926  12.517
67029W        W28450  33.551   9.669   0.839
67030W        W28451   2.796  11.629  14.291
67031W        W28452  22.136  35.537   1.328
67032W        W28453  18.698  29.465  13.872
67033W        W28454  37.993  13.231   5.117
67034W        W28455  44.378  35.452  13.437
67035W        W28456  19.775  15.644   2.190
67036W        W28457   4.358  11.206   1.697
67037W        W28458  12.813  19.160  10.918
67038W        W28459  41.804  16.317   0.321
67039W        W28460  34.038  11.134  14.782
67040W        W28461  33.073   5.723   3.157
67041W        W28462  23.083   1.247  14.793
67042W        W28463  26.965  44.468   2.295
67043W        W28464   6.800   0.469   0.387
67044W        W28465  21.181  18.781  12.953
67045W        W28466  12.731   9.277  13.022
67046W        W28467  32.400  23.010  12.977
67047W        W28468  36.963  34.871  13.874
67048W        W28469  11.792  39.999  13.866
67049W        W28470  13.602  22.512  12.095
67050W        W28471  26.486   0.354  11.868
67051W        W28472   7.783  14.114   2.866
67052W        W28473  39.456  38.325  14.030
67053W        W28474  43.465  26.098   2.841
67054W        W28475  33.570  20.147   4.287
67055W        W28476  17.067   1.917  14.942
67056W        W28477  35.994   2.846   0.335
67057W        W28478  14.732   3.334   0.911
67058W        W28479  23.012  14.812  14.798
67059W        W28480   0.823  31.620  14.323
67060W        W28481  36.017  33.946   0.419
67061W        W28482  23.093  17.106   4.195
67062W        W28483  16.720  41.900  14.888
67063W        W28484  35.509  38.476   2.245
67064W        W28485  11.657  39.995   3.773
67065W        W28486  14.777  40.009   4.189
67066W        W28487  43.995  30.045   1.377
67067W        W28488  44.849   5.931   0.734
67068W        W28489  19.119  17.160  14.451
67069W        W28490  31.940  44.953  10.450
67070W        W28491  18.554  13.609  14.314
67071W        W28492  19.270  30.561  13.922
67072W        W28493  16.570  36.509  11.515
67073W        W28494  20.612   6.286   9.481
67074W        W28495   9.382  32.620   0.304
67075W        W28496   1.481   1.946   3.254
67076W        W28497   7.732  36.047  10.591
67077W        W28498  40.833  25.133   2.295
67078W        W28499   4.254   1.349  11.886
67079W        W28500  15.782   0.273   0.905
67080W        W28501  43.452  31.614   3.716
67081W        W28502  11.265  27.518   4.774
67082W        W28503  19.190   0.761   2.787
67083W        W28504   5.306  13.626   0.379
67084W        W28505  15.245  43.818   4.639
67085W        W28506   4.270   3.778   5.779
67086W        W28507  25.664  33.509   0.784
67087W        W28508  21.750  22.155  11.605
67088W        W28509   6.764  36.425  14.352
67089W        W28510   4.778  39.056   3.787
67090W        W28511  33.411  26.681  13.948
67091W        W28512  33.506  19.682   5.302
67092W        W28513   2.337  34.042   4.723
67093W        W28514  16.779  15.263  13.386
67094W        W28515  14.192  17.145  14.764
67095W        W28516   0.843  28.939  13.846
67096W        W28517  21.654  28.568  14.807
67097W        W28518  42.462  19.734   0.393
67098W        W28519  29.140   0.753  10.423
67099W        W28520   8.832  35.509   3.687
67100W        W28521  14.118  19.235   0.416
67101W        W28522  40.045   3.881  12.434
67102W        W28523  21.553  21.253   4.162
67103W        W28524  30.000  43.412  11.054
67104W        W28525  39.011  29.513  10.084
67105W        W28526  15.703  42.888   1.352
67106W        W28527  22.106   4.864  11.913
67107W        W28528  42.998   3.861   0.832
67108W        W28529   5.719  30.969   2.233
67109W        W28530   1.466   9.869  11.097
67110W        W28531  24.156  15.278   3.787
67111W        W28532   3.749  13.809  14.907
67112W        W28533  33.897  22.091  11.053
67113W        W28534   3.432  29.538  10.921
67114W        W28535  19.620   2.339  14.929
67115W        W28536  31.436  18.783   0.455
67116W        W28537  38.954  10.685   3.654
67117W        W28538  29.519  32.065  11.587
67118W        W28539   0.339  27.569   2.203
67119W        W28540   5.821  25.714  13.512
67120W        W28541  40.431   4.321  12.965
67121W        W28542  32.437  36.384  11.075
67122W        W28543  10.288  17.594   2.893
67123W        W28544  35.927  42.896  11.988
67124W        W28545   0.264  31.993  14.510
67125W        W28546  42.008  19.044  13.968
67126W        W28547   1.293  11.652   0.445
67127W        W28548  11.752  19.133   2.266
67128W        W28549  33.922   1.275   5.625
67129W        W28550  17.118   6.233   5.100
67130W        W28551  32.502  21.048  12.963
67131W        W28552  16.072  27.135   4.640
67132W        W28553   0.479  14.218  11.091
67133W        W28554   9.287   3.254   9.948
67134W        W28555  28.948   7.265  13.794
67135W        W28556   0.898  14.198   3.257
67136W        W28557  24.015  24.496  14.008
67137W        W28558  40.395  20.580   0.948
67138W        W28559  28.068  38.526  14.763
67139W        W28560  34.893  20.619   0.911
67140W        W28561   2.332   7.186   1.913
67141W        W28562  23.537  10.639  11.988
67142W        W28563  29.432  38.876   5.227
67143W        W28564  42.886  44.429  12.372
67144W        W28565  34.476  39.039   0.396
67145W        W28566  29.615  37.434  10.579
67146W        W28567  10.244  16.121  13.461
67147W        W28568  44.341  10.772   4.196
67148W        W28569  19.257   9.685   0.441
67149W        W28570  36.009   6.896   3.746
67150W        W28571   2.802  38.938   3.677
67151W        W28572  32.052   0.271   1.289
67152W        W28573   5.778  22.572  14.335
67153W        W28574  28.160  44.422   2.409
67154W        W28575  17.700  24.016   4.326
67155W        W28576   7.674  30.157  12.418
67156W        W28577  36.417  24.509  10.407
67157W        W28578   5.228  43.002   4.835
67158W        W28579  40.836  44.892  11.507
67159W        W28580   2.919  31.963   3.374
67160W        W28581  10.283  13.286   0.254
67161W        W28582   9.168  36.432  13.465
67162W        W28583  36.039  23.577   4.118
67163W        W28584  30.146  21.660  14.502
67164W        W28585  20.527  34.077  14.822
67165W        W28586  27.606  26.038  11.568
67166W        W28587  45.000  11.214  11.535
67167W        W28588  37.470   9.709  11.454
67168W        W28589  16.665  44.351   3.852
67169W        W28590   0.464  11.177  11.910
67170W        W28591  25.613  26.138  12.876
67171W        W28592  13.735   2.366   3.755
67172W        W28593  24.710   2.364   0.838
67173W        W28594  11.276  28.496   1.741
67174W        W28595  35.022  30.438   4.641
67175W        W28596  31.922   5.277  10.101
67176W        W28597  31.941  14.182   2.276
67177W        W28598  27.974  42.360  11.508
67178W        W28599  15.324  14.628   3.165
67179W        W28600   3.729  42.784   4.599
67180W        W28601  34.059   2.907  13.879
67181W        W28602  32.541  14.713   3.805
67182W        W28603   8.687  28.663  11.871
67183W        W28604  41.988  22.230  13.475
67184W        W28605   4.851  42.008  11.554
67185W        W28606  28.178  35.979  10.501
67186W        W28607  13.113  20.155  10.429
67187W        W28608  25.008  32.618  14.345
67188W        W28609  33.596  37.464  10.996
67189W        W28610   3.891  17.682   3.197
67190W        W28611  36.075  32.395   1.333
67191W        W28612   3.290  36.559   1.861
67192W        W28613  39.348  12.252   4.700
67193W        W28614  24.493   1.952   4.757
67194W        W28615  42.360  43.904  13.045
67195W        W28616  23.527  22.173   0.873
67196W        W28617  32.009  39.529  14.336
67197W        W28618   6.919  24.976   5.612
67198W        W28619  41.925  40.038   1.862
67199W        W28620  16.645   3.355   1.236
67200W        W28621   8.656  15.620   4.597
67201W        W28622  18.670  40.310  12.016
67202W        W28623   2.759  26.204  13.356
67203W        W28624   2.918  24.680   0.404
67204W        W28625  28.579   9.333  13.416
67205W        W28626  17.291   5.740   1.800
67206W        W28627  11.244  43.998  14.427
67207W        W28628  27.008  14.677   3.207
67208W        W28629  37.911  37.984   4.340
67209W        W28630  18.210  32.892  10.456
67210W        W28631  23.121  31.403   2.414
67211W        W28632  20.179  31.507   4.162
67212W        W28633   1.759  10.357  11.008
67213W        W28634  25.479   3.296   4.666
67214W        W28635  23.636  34.020   3.235
67215W        W28636   5.687  40.957  14.478
67216W        W28637   4.290  15.712  13.006
67217W        W28638  40.887  34.018   0.339
67218W        W28639  14.323   3.729   2.233
67219W        W28640  21.573  25.631  11.551
67220W        W28641   4.931  21.647  13.521
67221W        W28642  22.155  29.009   3.156
67222W        W28643  36.925  12.627  11.953
67223W        W28644   2.412  40.389   2.729
67224W        W28645  18.750   6.770   3.804
67225W        W28646   6.308   3.915  10.450
67226W        W28647  26.000  30.075   0.917
67227W        W28648  25.020  18.066   2.333
67228W        W28649  32.912  28.438  12.825
67229W        W28650  22.564   3.301   0.312
67230W        W28651  21.672   7.713  13.356
67231W        W28652   0.409  17.718   2.385
67232W        W28653  40.874   9.811   1.308
67233W        W28654  14.823  28.649  11.036
67234W        W28655  30.509  14.723   3.199
67235W        W28656  21.241  25.180   4.725
67236W        W28657   6.292   8.827   3.740
67237W        W28658  24.198  34.551   0.852
67238W        W28659  16.123  34.391   2.711
67239W        W28660   4.755  28.473  11.392
67240W        W28661   2.251  30.162   4.617
67241W        W28662  39.348  28.482   3.164
67242W        W28663   0.947  37.489   0.401
67243W        W28664  23.660  14.684  10.439
67244W        W28665  43.822   3.802   0.782
67245W        W28666  26.482  24.665   0.738
67246W        W28667  26.188  16.810  12.446
67247W        W28668  22.129  44.779  12.997
67248W        W28669  29.669   6.336   1.419
67249W        W28670   7.353  16.641  11.059
67250W        W28671  26.015  35.966   4.184
67251W        W28672  21.555  35.508  10.489
67252W        W28673  27.663  16.278   2.256
67253W        W28674  41.037  29.026  12.981
67254W        W28675   2.958  28.007   1.302
67255W        W28676  30.626   6.426  11.490
67256W        W28677  16.257  18.061  12.478
67257W        W28678  20.745   8.395  11.553
67258W        W28679  30.470  26.034   0.330
67259W        W28680  23.552  19.740   2.678
67260W        W28681  33.532  12.851  10.566
67261W        W28682  10.300  37.388   4.638
67262W        W28683  14.644  28.502  10.614
67263W        W28684  34.604  41.786  11.901
67264W        W28685  40.515  10.718   2.252
67265W        W28686  35.898  37.963  11.034
67266W        W28687  16.220  38.463  12.340
67267W        W28688  31.067  28.009   0.445
67268W        W28689  32.975   6.884  13.907
67269W        W28690  27.458   8.376   1.800
67270W        W28691  17.634   6.902  11.018
67271W        W28692  30.013   2.728   1.220
67272W        W28693  10.801  11.363  11.531
67273W        W28694   6.307   4.910   3.274
67274W        W28695  19.128  27.986   4.663
67275W        W28696  20.646  22.700   2.672
67276W        W28697   6.847  42.472  13.856
67277W        W28698   6.269  21.629   0.907
67278W        W28699   2.361  23.574  11.004
67279W        W28700  44.818  41.002   1.740
67280W        W28701  39.475  10.256   2.303
67281W        W28702  12.644  17.205  13.350
67282W        W28703  26.053  16.246   2.303
67283W        W28704  26.125  35.552   2.385
67284W        W28705  44.832  21.645  13.458
67285W        W28706  27.466  19.285  10.438
67286W        W28707  35.069  29.591  14.328
67287W        W28708  16.806  12.684  10.887
67288W        W28709  22.709  29.630  12.506
67289W        W28710   5.863   7.911  10.957
67290W        W28711  30.573   6.374  12.872
67291W        W28712  17.197  42.873   0.961
67292W        W28713  36.002  34.029  12.419
67293W        W28714  21.649  18.097  11.443
67294W        W28715  36.440  37.509  12.944
67295W        W28716  25.570   9.374  13.060
67296W        W28717   3.954  28.645  10.930
67297W        W28718  36.048  34.409  13.337
67298W        W28719  31.577  41.329   3.809
67299W        W28720  39.454  11.858  10.967
67300W        W28721  36.995  24.146   3.851
67301W        W28722  37.928  44.448   3.330
67302W        W28723  37.047  22.588  11.076
67303W        W28724  38.441  39.407  14.783
67304W        W28725   4.280  18.610  14.019
67305W        W28726  14.601  22.592   2.680
67306W        W28727  25.177  20.244   0.895
67307W        W28728  43.967   2.228  10.631
67308W        W28729  26.123  43.395   0.297
67309W        W28730  23.596  17.714  14.337
67310W        W28731  11.822  12.253  13.495
67311W        W28732  10.189  15.290  13.434
67312W        W28733  10.244  16.302   3.638
67313W        W28734  22.728  37.936  13.903
67314W        W28735  24.588  30.530  13.932
67315W        W28736   5.329  30.608   9.612
67316W        W28737  29.953  24.618   1.402
67317W        W28738  10.707  26.961   1.416
67318W        W28739  16.193  27.568   4.816
67319W        W28740   0.946  33.127   4.209
67320W        W28741   5.720   4.343  10.405
67321W        W28742   5.332  31.963  13.850
67322W        W28743  33.584  16.243   1.448
67323W        W28744  13.826  17.274   3.165
67324W        W28745  11.698  19.643   2.404
67325W        W28746   5.319  32.505  11.382
67326W        W28747  17.196  28.657   1.366
67327W        W28748  27.056  16.129  12.566
67328W        W28749  25.117  27.109   4.729
67329W        W28750  38.994   5.217  13.974
67330W        W28751  43.447  20.710   0.263
67331W        W28752  37.581  27.973  13.843
67332W        W28753  12.644   1.868   2.357
67333W        W28754   5.710  38.830  13.352
67334W        W28755  30.538  29.173  10.952
67335W        W28756  26.663  14.166  14.435
67336W        W28757  27.078  38.044  14.308
67337W        W28758   6.807  37.373   3.259
67338W        W28759   5.223  27.152   3.793
67339W        W28760  36.415  29.115   2.245
67340W        W28761  12.299  44.391  12.914
67341W        W28762  44.454  41.815   0.462
67342W        W28763  43.838  27.507  14.476
67343W        W28764  14.120  18.764  11.470
67344W        W28765  24.655  23.698  14.976
67345W        W28766   4.287  18.082   1.403
67346W        W28767   8.365   2.867  11.041
67347W        W28768  28.454   3.749  13.996
67348W        W28769  31.009  24.160   3.811
67349W        W28770  39.456  25.626  10.927
67350W        W28771   3.392   8.708  12.941
67351W        W28772  44.413  11.250  12.836
67352W        W28773  21.540  39.894   2.403
67353W        W28774  39.876  26.072   2.327
67354W        W28775  19.622   7.299   4.776
67355W        W28776  39.031   9.743   3.166
67356W        W28777  39.947   4.385   0.283
67357W        W28778  23.540  11.217   2.374
67358W        W28779  31.969  26.054  10.496
67359W        W28780   7.683  35.039  12.853
67360W        W28781   2.469  19.275  13.313
67361W        W28782  24.022  31.550  13.794
67362W        W28783  33.964  26.508   4.157
67363W        W28784  29.551  11.360  11.523
67364W        W28785  20.241  18.128   4.754
67365W        W28786   7.235  14.314   3.838
67366W        W28787  14.201  44.840  14.879
67367W        W28788   9.248  21.576   1.772
67368W        W28789   7.904  17.556  10.449
67369W        W28790   9.363  30.144  12.013
67370W        W28791  26.660  40.925   1.348
67371W        W28792  12.734  36.965  12.416
67372W        W28793  28.133  18.064  12.006
67373W        W28794   4.943  43.985   0.462
67374W        W28795  19.671  43.897   2.862
67375W        W28796  22.163  43.362  13.309
67376W        W28797  43.891  37.923   0.428
67377W        W28798  26.177  23.013  14.006
67378W        W28799  26.001   0.396  14.421
67379W        W28800   6.414  10.793  12.042
67380W        W28801   4.705  22.232   4.759
67381W        W28802  29.103  20.570   1.879
67382W        W28803  36.443  17.166  14.507
67383W        W28804  38.866   6.757   2.847
67384W        W28805  16.315  38.837  14.477
67385W        W28806  38.383  36.558  10.451
67386W        W28807  44.397  27.996   2.759
67387W        W28808   4.747  27.504  11.524
67388W        W28809  19.209  41.330  12.450
67389W        W28810   0.943  15.302  14.453
67390W        W28811  32.461   2.854  11.908
67391W        W28812  18.144  13.158   5.208
67392W        W28813   6.692  42.799   1.919
67393W        W28814  33.446  27.515  12.036
67394W        W28815  34.420   2.244   0.728
67395W        W28816   1.297  13.183   4.613
67396W        W28817  30.525  35.980   2.809
67397W        W28818  41.433  23.631   4.236
67398W        W28819  18.184   0.783   2.805
67399W        W28820  27.173  14.769  10.897
67400W        W28821  28.501  23.161  14.018
67401W        W28822  32.490  39.357   3.235
67402W        W28823  23.726  36.535   1.704
67403W        W28824  19.627  23.201   0.319
67404W        W28825  23.193   5.832  10.495
67405W        W28826  11.183   6.427  11.110
67406W        W28827   0.860  21.210  10.573
67407W        W28828  14.634   6.866  13.945
67408W        W28829  42.440  17.792   2.837
67409W        W28830  33.450  19.055  12.933
67410W        W28831   5.889   5.882   2.207
67411W        W28832  18.279   1.807   3.714
67412W        W28833   4.320   5.376  13.475
67413W        W28834  26.026  41.360  12.374
67414W        W28835  43.442  31.440   2.365
67415W        W28836  39.992  29.607   1.849
67416W        W28837   8.690  20.723  10.589
67417W        W28838  34.035  19.220   2.190
67418W        W28839  41.869  16.790  11.459
67419W        W28840  17.212  11.354   0.801
67420W        W28841  16.773  11.627  12.523
67421W        W28842   6.692  40.047  13.427
67422W        W28843  11.129   8.856   3.700
67423W        W28844  17.267  14.673   5.687
67424W        W28845   0.839   8.276   2.767
67425W        W28846  19.572  36.893  13.470
67426W        W28847  18.288   9.777  12.921
67427W        W28848  17.717  12.790  13.839
67428W        W28849  43.986  43.931   2.685
67429W        W28850  41.434  38.337  13.032
67430W        W28851  12.679   0.966  11.081
67431W        W28852  21.215  34.972   1.793
67432W        W28853   7.800   2.421   2.822
67433W        W28854   4.403  39.498   0.802
67434W        W28855  11.766   7.788   3.691
67435W        W28856  37.941  10.251  11.874
67436W        W28857  37.545  23.056  13.340
67437W        W28858   2.906  29.014   4.261
67438W        W28859  15.823   4.419   2.760
67439W        W28860   9.733  38.515   5.108
67440W        W28861  38.398   5.423   3.299
67441W        W28862  34.377  39.029   2.388
67442W        W28863  34.965  24.573   1.725
67443W        W28864  42.455  24.975  12.953
67444W        W28865  35.513   5.426  11.110
67445W        W28866  27.487  16.680   2.835
67446W        W28867   6.796  23.990   0.447
67447W        W28868   6.252  31.594  14.829
67448W        W28869  36.406  38.891  10.013
67449W        W28870  16.748  12.154   4.815
67450W        W28871  12.728  19.655  14.499
67451W        W28872  35.914  34.567  13.011
67452W        W28873  30.632  10.327   4.607
67453W        W28874  21.227  14.729   0.750
67454W        W28875  29.923  36.427  14.279
67455W        W28876  32.564  20.057  13.859
67456W        W28877  14.293   3.764  11.040
67457W        W28878   9.183  16.264   3.244
67458W        W28879  15.773  36.066   1.802
67459W        W28880  18.557   7.186   2.680
67460W        W28881  23.607   3.286   4.232
67461W        W28882   5.711   5.230   3.671
67462W        W28883  32.033  37.854   5.105
67463W        W28884  18.766  41.472   3.653
67464W        W28885  38.062  28.669  10.968
67465W        W28886  15.227  11.713  13.812
67466W        W28887  34.505  30.936   3.692
67467W        W28888  44.317   0.280   3.314
67468W        W28889  29.932  39.514   2.276
67469W        W28890  31.956  24.639  13.903
67470W        W28891   3.235  41.972   2.370
67471W        W28892  28.089  42.895   4.326
67472W        W28893  29.985  36.917  13.364
67473W        W28894  36.577  12.182  13.859
67474W        W28895  21.667  34.035  14.374
67475W        W28896  33.426   4.427  11.942
67476W        W28897   3.303  33.511  14.367
67477W        W28898   7.283  24.551  11.856
67478W        W28899  39.908   2.723  12.389
67479W        W28900   7.910  17.713   3.332
67480W        W28901  11.145  34.966   4.672
67481W        W28902  28.658   8.203  10.543
67482W        W28903   8.671  23.159  13.405
67483W        W28904   4.214  35.429   2.360
67484W        W28905  16.626  34.395   0.460
67485W        W28906   7.824  16.584  14.353
67486W        W28907   9.684  28.617  12.856
67487W        W28908  41.962  33.075  11.944
67488W        W28909  30.915  10.650  12.400
67489W        W28910  41.454   3.905   1.382
67490W        W28911   0.971  21.649   2.357
67491W        W28912  16.794   7.174   3.349
67492W        W28913  28.662  23.036   4.828
67493W        W28914  25.137  20.671  10.931
67494W        W28915  28.447  14.151  13.822
67495W        W28916  12.242  34.537   0.445
67496W        W28917  28.145  33.131  10.405
67497W        W28918  11.844  39.863  12.555
67498W        W28919  29.511  16.783  10.979
67499W        W28920  11.259  21.141   0.842
67500W        W28921  15.112   3.388   5.314
67501W        W28922   6.843  24.722   9.994
67502W        W28923  35.359  14.117   2.210
67503W        W28924  10.206  31.939  11.076
67504W        W28925  29.588  38.535   3.773
67505W        W28926  22.634  27.540  13.803
67506W        W28927   4.924   3.254  14.024
67507W        W28928  40.508  27.464   4.771
67508W        W28929  30.416  20.758  14.506
67509W        W28930  23.535   8.211   2.771
67510W        W28931  31.608  19.648   4.141
67511W        W28932  11.223   2.463  13.038
67512W        W28933  34.507  13.805  13.995
67513W        W28934  41.509   6.886   2.215
67514W        W28935  15.298  12.259  11.051
67515W        W28936   6.360  43.799   3.753
67516W        W28937  20.069  10.637   1.371
67517W        W28938  40.837  35.500   1.711
67518W        W28939  43.286   0.772  13.926
67519W        W28940  23.089  25.000  14.016
67520W        W28941   0.949   4.243   0.886
67521W        W28942  11.241  40.504   1.761
67522W        W28943  44.479  14.791   3.828
67523W        W28944  13.320  34.092  14.982
67524W        W28945  26.988  23.556   3.759
67525W        W28946   0.840  15.103   4.319
67526W        W28947   7.887  27.057   4.185
67527W        W28948  31.147  10.173  14.358
67528W        W28949  39.460   2.437   4.337
67529W        W28950  37.889  40.901  13.474
67530W        W28951  17.732  25.500  13.818
67531W        W28952  27.558  40.523  13.062
67532W        W28953  36.899  43.344   2.414
67533W        W28954  16.166  33.607  12.495
67534W        W28955  44.900  21.133   4.833
67535W        W28956  11.343   8.324   1.214
67536W        W28957  17.093  26.491  11.031
67537W        W28958   2.347  16.258   1.708
67538W        W28959  40.826  26.609   1.362
67539W        W28960  39.877  44.936  11.404
67540W        W28961  32.442  35.952  13.488
67541W        W28962  30.068  39.041  13.924
67542W        W28963  30.554  26.513  13.945
67543W        W28964  37.541  18.786   5.287
67544W        W28965  12.696  15.241  10.492
67545W        W28966   0.465   4.752   1.339
67546W        W28967  38.019   9.697   0.922
67547W        W28968  40.944  11.706   2.334
67548W        W28969  27.005  38.911   9.961
67549W        W28970  36.510  25.690  13.806
67550W        W28971  32.032  43.882  11.903
67551W        W28972  21.674  30.588   4.133
67552W        W28973  44.998  10.219  11.121
67553W        W28974  30.086  26.476  10.930
67554W        W28975  37.857  34.545   1.906
67555W        W28976  23.061  42.305   2.876
67556W        W28977   0.773  26.548   5.268
67557W        W28978  11.845  40.520  14.385
67558W        W28979  28.088  11.802   0.892
67559W        W28980  33.592  17.624   4.659
67560W        W28981  15.223  29.031   2.337
67561W        W28982  28.139   2.302  10.901
67562W        W28983  31.630  10.690  12.883
67563W        W28984  10.720   8.851  12.548
67564W        W28985  26.533  31.643   2.680
67565W        W28986  13.212  14.664   1.441
67566W        W28987   1.785  20.613   4.708
67567W        W28988   3.379  37.857   0.727
67568W        W28989  31.475  38.466   3.741
67569W        W28990  25.106  32.032  11.060
67570W        W28991  38.036   8.402   1.855
67571W        W28992  17.278  11.759   4.332
67572W        W28993   3.926  24.993  11.413
67573W        W28994  38.941  32.969   1.860
67574W        W28995  30.047  16.795   2.312
67575W        W28996  13.319  27.082  12.884
67576W        W28997   2.874  42.297  14.998
67577W        W28998  11.156  40.902   0.743
67578W        W28999   6.308  16.239  12.059
67579W        W29000  41.313  17.264  14.393
67580W        W29001   4.842  26.069   4.664
67581W        W29002  12.647  15.673   9.927
67582W        W29003   1.285   2.927  14.352
67583W        W29004   3.750  29.006   5.235
67584W        W29005  25.010  35.969  11.426
67585W        W29006  15.735  10.786   0.287
67586W        W29007  22.092  16.313   1.397
67587W        W29008  12.272  29.056   1.856
67588W        W29009  43.839   2.774  11.954
67589W        W29010  16.601  30.913  14.771
67590W        W29011  36.890  24.987   0.393
67591W        W29012  27.567   1.444   1.420
67592W        W29013   6.306  38.482  14.305
67593W        W29014   4.875  14.670  12.559
67594W        W29015   9.327  19.624   5.297
67595W        W29016  17.067  24.067   0.309
67596W        W29017  42.884  42.927  11.962
67597W        W29018  41.326  43.474  14.469
67598W        W29019  20.066  26.508  14.430
67599W        W29020  42.916  18.559  12.895
67600W        W29021  20.657  13.132   3.239
67601W        W29022   4.342  19.537   1.795
67602W        W29023  28.577  33.619   1.746
67603W        W29024  31.486   9.343  10.506
67604W        W29025  30.047  42.287  13.931
67605W        W29026   9.247  12.191  13.828
67606W        W29027  25.031  21.057  13.518
67607W        W29028  42.784  44.371   1.835
67608W        W29029  26.530  16.725  14.881
67609W        W29030  24.531  26.188   3.633
67610W        W29031  21.205  11.666  12.893
67611W        W29032  22.133  32.434  13.831
67612W        W29033  10.225  29.562  11.878
67613W        W29034  20.653   6.196   0.896
67614W        W29035   8.311  36.516  11.048
67615W        W29036  35.436   2.897  11.474
67616W        W29037  20.524  38.885  10.905
67617W        W29038  14.698   4.355   0.462
67618W        W29039  36.347  20.173   0.749
67619W        W29040  44.435  11.273   1.841
67620W        W29041   8.372  10.741   2.369
67621W        W29042  11.636  27.568  12.040
67622W        W29043   3.752  39.935   1.825
67623W        W29044  11.855   8.834  12.944
67624W        W29045  36.063   3.829   1.907
67625W        W29046  42.916  35.391   2.759
67626W        W29047  32.629  20.677  14.497
67627W        W29048   2.762  21.153   3.849
67628W        W29049  21.524  32.525   2.689
67629W        W29050  29.125  12.186   5.290
67630W        W29051  20.719  29.155  11.056
67631W        W29052   3.404  20.671  14.898
67632W        W29053  32.517  32.052  13.920
67633W        W29054  20.673  31.078   2.364
67634W        W29055  26.575  39.343  13.430
67635W        W29056   2.884  43.487  11.938
67636W        W29057  35.539  32.477  14.031
67637W        W29058  35.439  33.492  13.821
67638W        W29059  30.988  19.697   1.347
67639W        W29060  33.613  19.592  10.082
67640W        W29061   8.396   0.276   1.828
67641W        W29062  11.232  13.793   2.797
67642W        W29063  20.234   5.225   4.137
67643W        W29064  12.772  37.889  13.445
67644W        W29065  30.570   1.300   0.791
67645W        W29066  39.423  30.622   1.259
67646W        W29067  43.484   9.290  13.824
67647W        W29068   3.348  38.537   4.235
67648W        W29069  27.107   5.300  11.498
67649W        W29070  35.517  35.109  13.482
67650W        W29071  43.952  20.179   1.316
67651W        W29072  39.322   9.852  12.826
67652W        W29073   0.875  41.391   2.286
67653W        W29074  29.001   0.456   4.226
67654W        W29075   2.929  28.451   2.876
67655W        W29076  32.973  24.533  13.986
67656W        W29077  37.021  23.685   3.758
67657W        W29078  16.601  43.427  13.882
67658W        W29079  30.540  17.068   5.221
67659W        W29080  41.900  13.661   0.299
67660W        W29081  14.134  11.680  12.837
67661W        W29082  14.338  17.615  13.427
67662W        W29083  13.599  33.910   4.186
67663W        W29084  15.237  37.463  13.893
67664W        W29085  42.363  33.057  13.850
67665W        W29086  14.688  17.195  11.112
67666W        W29087   3.813  35.509   2.332
67667W        W29088  20.273   3.398  12.051
67668W        W29089  43.297  11.726  11.077
67669W        W29090  43.345  36.917  14.292
67670W        W29091  41.519  38.522  11.491
67671W        W29092  20.729  41.384  13.819
67672W        W29093  13.688  19.086   2.771
67673W        W29094  41.871  18.654   2.706
67674W        W29095  37.945  37.863  12.865
67675W        W29096  23.175  43.273   0.285
67676W        W29097  38.897  44.978  11.902
67677W        W29098   9.247  34.083  13.802
67678W        W29099  15.782  12.716   3.685
67679W        W29100  24.158  19.597   0.403
67680W        W29101   2.312  35.518   0.812
67681W        W29102  19.128   8.691  10.961
67682W        W29103  16.099  36.060  13.357
67683W        W29104  36.068  22.690  14.808
67684W        W29105   1.320   5.249  10.447
67685W        W29106  37.951  13.260   3.841
67686W        W29107   6.878  40.359  10.089
67687W        W29108  30.592  29.467  12.087
67688W        W29109   5.375  16.204   1.316
67689W        W29110   1.369  20.746  10.464
67690W        W29111  44.399  35.104  10.083
67691W        W29112  39.875   0.330   0.342
67692W        W29113  24.708   3.895  13.398
67693W        W29114  28.130  35.595  12.482
67694W        W29115  29.459  33.470   1.361
67695W        W29116   7.274  31.912  11.090
67696W        W29117  17.577  20.042   2.750
67697W        W29118  31.024  38.498  13.442
67698W        W29119  32.467   1.241  12.973
67699W        W29120  37.869  26.696   2.807
67700W        W29121   9.193   8.851  10.108
67701W        W29122  14.173   1.391  10.945
67702W        W29123  11.855  16.630   3.770
67703W        W29124  43.847   2.376   0.958
67704W        W29125  26.135  38.969  11.426
67705W        W29126   6.376  42.436  13.312
67706W        W29127  30.163  26.573  12.868
67707W        W29128   5.698  15.188  11.524
67708W        W29129  12.194  35.868  10.463
67709W        W29130  10.666  31.919   2.749
67710W        W29131  26.121  36.531  12.012
67711W        W29132  20.613  43.884   0.306
67712W        W29133  10.225   2.315   4.662
67713W        W29134  35.590  31.899  12.379
67714W        W29135  34.938  43.852  11.384
67715W        W29136   7.816  16.280   1.420
67716W        W29137  28.668  13.177  11.086
67717W        W29138  14.160  40.017  10.536
67718W        W29139  33.432  37.578   3.769
67719W        W29140  30.007   8.749   1.224
67720W        W29141  21.635  14.236  12.463
67721W        W29142   6.228   4.292   2.401
67722W        W29143  27.085  44.299  14.363
67723W        W29144  33.483   1.849  13.990
67724W        W29145  19.731  20.166   0.845
67725W        W29146  32.941  27.155   3.692
67726W        W29147  42.860  20.096   4.722
67727W        W29148   2.778   6.838  11.106
67728W        W29149  23.550  12.684   1.432
67729W        W29150  22.021   7.698  13.790
67730W        W29151  14.095  34.568  12.477
67731W        W29152  12.719  28.457   3.372
67732W        W29153   8.286  35.913  10.444
67733W        W29154   7.836  32.022   2.196
67734W        W29155  33.571  23.634   1.780
67735W        W29156  42.996  33.496   2.384
67736W        W29157  42.876   0.433  11.493
67737W        W29158  31.442   7.809  11.536
67738W        W29159  33.096  22.737  13.322
67739W        W29160  41.535   4.276  13.447
67740W        W29161  36.395  35.884  11.944
67741W        W29162  17.066  38.498   0.339
67742W        W29163  43.350  12.341   0.756
67743W        W29164  29.443  44.826  14.887
67744W        W29165  37.847   7.248   2.678
67745W        W29166  31.149  29.140  11.917
67746W        W29167   9.152  36.474   2.870
67747W        W29168  34.438   3.786  12.476
67748W        W29169  26.021   6.790  11.114
67749W        W29170  23.646  19.260  10.529
67750W        W29171   8.319   0.257   2.664
67751W        W29172  23.092   9.209  13.885
67752W        W29173   9.294   9.339  13.323
67753W        W29174  11.297  33.017   2.772
67754W        W29175  29.132   3.251  11.028
67755W        W29176  25.065  40.890  10.540
67756W        W29177   6.221  29.496   0.345
67757W        W29178  23.633   5.430  14.968
67758W        W29179  31.929   8.777   4.262
67759W        W29180  27.077   2.432  12.013
67760W        W29181   0.970  29.928  11.421
67761W        W29182  17.729  42.887  14.340
67762W        W29183   1.969   4.907   2.207
67763W        W29184   9.231  13.289  12.962
67764W        W29185  17.291  40.949   2.706
67765W        W29186  39.443  19.657   2.856
67766W        W29187   3.392  43.889  10.470
67767W        W29188  13.796  39.466  11.423
67768W        W29189  17.187  21.116   2.283
67769W        W29190  26.468   2.472  13.381
67770W        W29191  21.122   7.354  12.889
67771W        W29192  13.615  10.681  14.469
67772W        W29193  35.476   6.851   0.463
67773W        W29194  29.643   3.711   0.819
67774W        W29195  20.737   0.417   3.785
67775W        W29196  37.482   3.739   3.773
67776W        W29197  11.816  19.549  11.493
67777W        W29198  41.881  29.627   2.224
67778W        W29199   1.766  36.846   0.924
67779W        W29200   0.942  15.578   4.239
67780W        W29201  28.493  22.572  14.915
67781W        W29202  22.746  41.017  10.158
67782W        W29203  40.482   8.282  11.962
67783W        W29204   4.385   0.777  10.473
67784W        W29205  22.205   7.306   2.722
67785W        W29206   6.837   2.444   4.703
67786W        W29207   8.369  14.337  12.346
67787W        W29208  28.623  13.668   3.652
67788W        W29209  12.830  38.497  11.858
67789W        W29210  33.590  15.180  14.479
67790W        W29211  30.147   7.833  13.813
67791W        W29212  22.657  39.863  10.527
67792W        W29213  33.400  40.478  12.901
67793W        W29214  11.771  32.896   0.272
67794W        W29215  28.133  39.985   0.389
67795W        W29216   1.814  44.827   3.770
67796W        W29217  38.891  16.097   3.383
67797W        W29218  13.193  35.522  14.837
67798W        W29219  20.042  37.418   0.277
67799W        W29220  14.618  23.234  12.559
67800W        W29221  18.738  38.385  10.477
67801W        W29222  28.090  39.846  13.510
67802W        W29223  10.165  44.804   3.705
67803W        W29224  30.597  19.189   1.284
67804W        W29225  44.935  40.511  10.151
67805W        W29226  17.722  30.116  14.430
67806W        W29227  37.440  38.072   0.953
67807W        W29228  13.225  18.065  12.938
67808W        W29229  34.386  18.696  13.392
67809W        W29230   2.430  22.206   4.710
67810W        W29231  35.022  37.499  12.976
67811W        W29232  25.620  17.139   0.333
67812W        W29233   6.732   2.805   2.290
67813W        W29234  38.487   0.299   0.906
67814W        W29235  28.980   4.853   3.857
67815W        W29236  25.155   5.319   1.712
67816W        W29237  30.160  24.046  13.035
67817W        W29238  29.939  23.622  13.503
67818W        W29239  33.041  42.466   3.221
67819W        W29240  25.680  32.536   3.355
67820W        W29241  12.652  22.544   3.655
67821W        W29242  33.572   6.217   0.792
67822W        W29243   9.648  24.225   0.483
67823W        W29244  39.883  21.536   0.271
67824W        W29245   7.213  14.251   1.301
67825W        W29246  43.325  30.546  11.094
67826W        W29247  40.008  12.257   2.389
67827W        W29248  35.966  35.104  14.921
67828W        W29249  37.073  35.947   2.234
67829W        W29250  31.416  22.223  14.445
67830W        W29251  25.510   1.913   1.432
67831W        W29252  24.560  10.279   1.893
67832W        W29253  28.966  18.112   4.740
67833W        W29254  12.678  29.595   4.134
67834W        W29255  26.690   9.649   1.843
67835W        W29256  44.815  29.486  14.983
67836W        W29257  24.642   9.724   1.712
67837W        W29258   4.314  26.635   4.301
67838W        W29259  29.445  33.966   4.312
67839W        W29260  30.650  28.171   5.295
67840W        W29261  12.252  40.812  10.922
67841W        W29262  13.645  10.350  12.037
67842W        W29263  41.036   1.343   2.256
67843W        W29264  15.746  11.342   2.875
67844W        W29265  14.207  41.014  14.453
67845W        W29266  27.977  42.461   3.374
67846W        W29267  38.338  29.096  14.422
67847W        W29268   3.771  22.619   0.334
67848W        W29269   6.822   6.204   0.430
67849W        W29270  23.133  11.686   2.399
67850W        W29271   6.403  43.307   0.440
67851W        W29272  29.164   8.328  14.375
67852W        W29273  19.730  43.937  12.972
67853W        W29274  26.512  27.073  12.016
67854W        W29275  10.155  14.181  13.804
67855W        W29276   1.242  19.671  14.943
67856W        W29277   8.388  38.345  10.497
67857W        W29278  15.156  37.462  11.914
67858W        W29279  26.008  14.119  14.360
67859W        W29280  30.450  15.123  10.612
67860W        W29281  38.924  32.483   4.718
67861W        W29282  29.437  33.005  14.994
67862W        W29283  14.686  22.182  13.420
67863W        W29284  29.061  18.689   3.307
67864W        W29285  25.989  32.972  12.388
67865W        W29286  12.653  15.088  13.804
67866W        W29287  30.450  31.099   2.855
67867W        W29288  29.603  24.158   3.733
67868W        W29289  10.214  28.466   0.947
67869W        W29290  28.138  19.071  11.014
67870W        W29291  44.415   9.390   3.243
67871W        W29292  38.996  41.483   9.955
67872W        W29293  33.597   7.911   4.686
67873W        W29294   5.847   0.454   1.695
67874W        W29295  25.003  32.975   4.689
67875W        W29296  44.994  42.007  11.047
67876W        W29297   7.187  38.515   0.314
67877W        W29298  38.534  12.671   2.255
67878W        W29299  31.023  15.608   0.746
67879W        W29300  44.894   5.883   4.738
67880W        W29301   1.757  17.075   3.737
67881W        W29302  13.197   2.415   0.873
67882W        W29303  28.935  26.201  14.900
67883W        W29304  19.554  12.307  14.379
67884W        W29305  44.846  41.962   3.333
67885W        W29306  44.934  22.014  13.329
67886W        W29307  33.109  36.578   4.178
67887W        W29308  37.435   2.913   1.289
67888W        W29309  41.532  32.631  14.928
67889W        W29310  32.400   3.413   0.776
67890W        W29311  25.499  41.392  10.431
67891W        W29312  31.516  18.108   1.798
67892W        W29313  21.085   0.404  10.445
67893W        W29314  10.852  32.083   4.818
67894W        W29315   5.734  28.964   4.600
67895W        W29316   2.412   2.883   0.774
67896W        W29317  16.743  34.571  14.512
67897W        W29318   0.285  24.104  13.032
67898W        W29319  41.438  44.800  11.035
67899W        W29320  20.123  29.143  14.429
67900W        W29321  16.625  26.016  14.814
67901W        W29322  43.974   8.765   2.398
67902W        W29323   5.781  25.023   3.803
67903W        W29324  41.845  15.726   3.162
67904W        W29325   6.827  27.107  13.393
67905W        W29326  20.222  16.617  11.924
67906W        W29327   5.735   6.890   0.894
67907W        W29328  12.620   6.309  14.887
67908W        W29329  13.110  22.531  12.575
67909W        W29330   2.370  20.574   3.717
67910W        W29331  16.722  14.698   2.306
67911W        W29332   1.929   9.205   1.784
67912W        W29333  39.907  42.795   3.155
67913W        W29334   0.418   8.404   1.427
67914W        W29335   4.442   3.269   1.809
67915W        W29336  21.195  43.900  10.959
67916W        W29337  38.949  37.558   2.704
67917W        W29338  13.342  35.054  11.556
67918W        W29339  22.544  44.305   3.795
67919W        W29340   4.791  25.534   2.357
67920W        W29341  44.345   6.787  13.838
67921W        W29342  39.412  23.013   1.868
67922W        W29343   4.732  36.057  11.535
67923W        W29344   3.901  37.833  12.988
67924W        W29345  27.557  20.551  12.567
67925W        W29346  18.781  37.386   0.265
67926W        W29347  13.126  28.159   3.322
67927W        W29348  16.775   1.321  13.874
67928W        W29349   6.776  27.944  11.517
67929W        W29350  29.668   6.258  11.125
67930W        W29351  36.562  19.627   4.758
67931W        W29352  12.745   5.203   1.345
67932W        W29353   8.866  21.168   3.277
67933W        W29354   9.660  25.583  12.890
67934W        W29355  26.144  14.625  13.471
67935W        W29356  43.466  28.032   4.629
67936W        W29357  10.245  39.026  14.435
67937W        W29358  43.947   4.868   1.380
67938W        W29359  25.046  29.075   4.752
67939W        W29360  11.230   8.196  11.586
67940W        W29361  19.114   1.240   1.286
67941W        W29362   8.679  11.219   4.226
67942W        W29363   6.376  26.530   1.390
67943W        W29364   1.850   7.197   3.767
67944W        W29365  30.058  36.574   2.663
67945W        W29366  33.995  35.379  14.277
67946W        W29367  16.238  37.581  14.761
67947W        W29368  35.516  11.290   2.697
67948W        W29369  34.986  29.056   4.659
67949W        W29370  25.096  40.411  13.966
67950W        W29371  25.504  13.748   4.733
67951W        W29372  29.174  19.671  14.843
67952W        W29373  19.629  25.581  12.838
67953W        W29374  20.748   5.417   4.265
67954W        W29375  22.545   5.871   3.245
67955W        W29376  27.144  24.548  13.002
67956W        W29377  10.248  25.075  14.884
67957W        W29378  40.525  27.051   2.686
67958W        W29379  37.059   7.789  11.480
67959W        W29380  41.871  23.625   1.313
67960W        W29381   9.251   1.267  12.917
67961W        W29382  20.746  19.766  10.994
67962W        W29383  35.002  22.106  10.574
67963W        W29384  16.296   1.882  13.540
67964W        W29385  11.263   5.861  13.428
67965W        W29386  38.853   6.333   1.724
67966W        W29387  22.629  34.036  11.522
67967W        W29388  41.297  40.428   4.132
67968W        W29389  38.340  23.157  13.458
67969W        W29390   0.859  19.142  14.887
67970W        W29391  20.068  26.468   2.188
67971W        W29392  10.171  41.392   4.259
67972W        W29393   1.856  23.640   2.681
67973W        W29394  19.129  10.328   1.295
67974W        W29395   2.919  21.663  14.474
67975W        W29396  43.883  15.590   2.263
67976W        W29397  16.750  37.438   3.653
67977W        W29398  44.362  11.800   0.785
67978W        W29399  24.050  28.571  13.472
67979W        W29400  43.501  23.545   0.277
67980W        W29401  44.783  13.246   3.198
67981W        W29402  27.099  22.508  12.839
67982W        W29403   3.402  24.584   2.833
67983W        W29404   2.277  37.568  10.970
67984W        W29405   8.323  35.962  14.400
67985W        W29406  31.045  20.736  13.322
67986W        W29407  44.944  37.398  12.481
67987W        W29408   2.788  28.124  12.992
67988W        W29409  19.199  25.979  12.942
67989W        W29410  24.220  32.438  12.078
67990W        W29411  26.960  35.399  13.022
67991W        W29412  27.086  16.100  13.968
67992W        W29413  35.013  30.418   3.369
67993W        W29414  43.844  33.989   1.905
67994W        W29415  27.951  27.462   4.680
67995W        W29416   5.315   8.230  10.913
67996W        W29417  32.415  12.305   2.269
67997W        W29418   0.877  31.117   1.329
67998W        W29419  27.955  10.340  11.563
67999W        W29420  17.660  21.725   0.445
68000W        W29421  41.435  35.021  14.976
68001W        W29422  35.360  32.471   0.382
68002W        W29423  42.345  31.641  11.022
68003W        W29424  34.548  25.523   2.300
68004W        W29425  33.572   5.704   5.227
68005W        W29426  17.683  13.174  13.887
68006W        W29427   0.970  26.627  12.026
68007W        W29428   8.302  20.696   4.743
68008W        W29429  22.653   4.851   9.488
68009W        W29430  28.646  25.215  13.353
68010W        W29431  14.833  10.814  14.811
68011W        W29432   5.206  38.368  14.912
68012W        W29433  27.107  33.579   2.303
68013W        W29434  30.442   4.205   4.331
68014W        W29435  39.552  19.704   1.882
68015W        W29436  31.552  40.882   3.295
68016W        W29437  41.816  36.079   0.341
68017W        W29438  38.045   5.926   1.846
68018W        W29439  35.877   5.267  10.010
68019W        W29440  42.870   4.750  14.765
68020W        W29441  12.140  42.030   2.777
68021W        W29442   3.805  11.819   3.154
68022W        W29443  36.396   0.288  10.899
68023W        W29444  19.097  26.173  13.938
68024W        W29445   1.852  34.118  13.931
68025W        W29446  12.666  11.264   4.230
68026W        W29447  12.774   1.847  10.934
68027W        W29448   4.317  41.005  14.867
68028W        W29449  29.930  35.063   2.745
68029W        W29450  29.015  25.575  13.470
68030W        W29451  39.342  40.435  12.481
68031W        W29452  27.662  36.426  11.060
68032W        W29453  17.589  28.486   3.824
68033W        W29454  12.150  42.790   2.394
68034W        W29455  44.837  26.019  11.114
68035W        W29456  16.127   2.390  14.988
68036W        W29457   7.229  40.825   3.704
68037W        W29458  10.794  36.514   3.659
68038W        W29459  19.730  22.046  13.863
68039W        W29460  44.360  20.570  10.978
68040W        W29461  14.754  37.000  11.860
68041W        W29462  25.984  38.880  12.339
68042W        W29463   4.271   8.379   2.719
68043W        W29464  22.566  33.387   5.292
68044W        W29465  20.171   1.825   3.338
68045W        W29466  26.596  28.498  14.774
68046W        W29467   8.736  33.998  11.479
68047W        W29468  32.999   6.233   3.850
68048W        W29469   0.330  41.030  12.935
68049W        W29470  20.145  39.330  13.925
68050W        W29471  37.440  35.047   2.310
68051W        W29472  30.070   1.398  11.426
68052W        W29473   6.387  11.276   3.868
68053W        W29474  41.408  10.344  13.329
68054W        W29475  18.655  33.614  11.098
68055W        W29476  25.545  13.789   2.837
68056W        W29477  27.460  37.366   4.730
68057W        W29478  14.288  24.190   0.386
68058W        W29479  38.418  25.618  11.881
68059W        W29480  21.109  27.548   3.823
68060W        W29481  12.275   6.852   0.741
68061W        W29482  13.254  25.565   1.287
68062W        W29483  29.441  30.481   2.685
68063W        W29484  16.132  27.968  11.528
68064W        W29485  33.384  38.550   0.341
68065W        W29486   4.751   1.331   2.357
68066W        W29487  41.812  25.191  14.400
68067W        W29488  31.125  36.512  14.794
68068W        W29489   8.669  19.761  11.042
68069W        W29490  12.193  43.869  14.488
68070W        W29491   8.360  15.282   2.669
68071W        W29492   4.852   0.346  11.923
68072W        W29493  41.898  15.329  12.390
68073W        W29494  29.651  33.887   4.815
68074W        W29495  30.138   2.470   1.753
68075W        W29496   4.220  33.540  14.979
68076W        W29497   7.909  22.033  12.505
68077W        W29498  44.915  14.149   1.837
68078W        W29499  36.089  27.487   0.858
68079W        W29500  14.100  23.565  14.787
68080W        W29501  43.774  29.102   3.251
68081W        W29502  22.079  30.069  10.968
68082W        W29503  18.590  17.251   1.263
68083W        W29504  38.515   0.284  12.958
68084W        W29505  35.910   4.857  14.032
68085W        W29506   7.361  23.732   3.234
68086W        W29507  27.114  35.440   0.757
68087W        W29508  41.988  30.585   4.160
68088W        W29509  28.540  34.066  10.580
68089W        W29510  41.012  31.640   2.348
68090W        W29511  20.051  29.474  11.488
68091W        W29512  26.078  16.751   0.838
68092W        W29513  13.127  32.076   5.155
68093W        W29514  23.039  29.607  13.379
68094W        W29515   2.323  24.189   1.406
68095W        W29516  42.932  25.964   0.942
68096W        W29517  38.505  34.090  11.456
68097W        W29518   0.753   3.317  14.493
68098W        W29519  34.002  26.043  14.318
68099W        W29520  14.315   6.257   2.895
68100W        W29521  33.530  29.174   4.597
68101W        W29522   1.975   8.294  14.764
68102W        W29523  20.633  36.444  12.904
68103W        W29524  44.342  19.761  12.509
68104W        W29525  12.342  17.135  13.945
68105W        W29526  13.301  12.212   4.310
68106W        W29527  11.267  26.002  12.421
68107W        W29528  36.855  43.000  14.511
68108W        W29529  42.861  13.687   3.267
68109W        W29530  38.348  11.175  14.823
68110W        W29531  25.545  34.076  14.282
68111W        W29532  20.138  39.925   2.802
68112W        W29533   6.793  21.609   1.353
68113W        W29534  35.946  31.032  10.939
68114W        W29535  26.695  16.638  11.865
68115W        W29536  41.535  26.677  14.993
68116W        W29537   1.859  37.371  14.771
68117W        W29538  30.434  22.598   0.904
68118W        W29539  23.090  36.384   4.645
68119W        W29540  15.183  29.165  12.851
68120W        W29541  27.589  11.236   0.261
68121W        W29542  16.613  14.177   5.176
68122W        W29543  11.829  42.441  13.371
68123W        W29544   2.249  31.003  13.971
68124W        W29545  18.569  29.174  14.927
68125W        W29546  37.946  11.251  13.541
68126W        W29547  38.992  25.172   4.730
68127W        W29548  33.118  23.190   1.791
68128W        W29549  37.370   3.841   1.214
68129W        W29550   8.765   3.366  13.877
68130W        W29551  35.886  24.618   1.700
68131W        W29552  38.421   2.852  13.956
68132W        W29553   9.165   3.857   2.267
68133W        W29554  35.569  26.593   4.638
68134W        W29555  24.548  40.913   1.803
68135W        W29556  44.905  27.687  12.977
68136W        W29557  14.270  12.810  12.459
68137W        W29558  34.112  25.514  12.842
68138W        W29559  27.575   7.881  11.059
68139W        W29560  30.007   9.758  14.831
68140W        W29561  39.518  19.722  10.458
68141W        W29562  41.506  35.050   0.360
68142W        W29563  15.255  24.995   4.134
68143W        W29564  36.592   5.215  13.919
68144W        W29565  42.381  31.559  11.566
68145W        W29566  16.198   4.707   4.686
68146W        W29567  26.078  40.810  11.455
68147W        W29568  29.500  16.595   0.403
68148W        W29569   3.762  13.244   3.195
68149W        W29570   6.721  28.489  11.530
68150W        W29571  35.889   0.763   3.213
68151W        W29572  10.197  33.008  11.407
68152W        W29573  13.637  32.633  10.903
68153W        W29574  14.222  33.104   1.356
68154W        W29575  25.571  41.986  13.348
68155W        W29576  36.359  26.674   0.959
68156W        W29577  40.843   6.766   3.689
68157W        W29578  30.492  32.965  12.082
68158W        W29579  12.213  43.275  14.377
68159W        W29580   9.662   3.789   4.171
68160W        W29581   4.243   5.239  12.494
68161W        W29582   5.917  39.040   2.405
68162W        W29583  32.048   4.860  10.534
68163W        W29584  25.711   6.869  10.022
68164W        W29585  22.120  13.696   1.431
68165W        W29586  42.467  18.095  11.045
68166W        W29587  32.974  37.831  10.547
68167W        W29588   3.822  35.394   1.752
68168W        W29589  44.773   1.857  11.579
68169W        W29590  25.999  35.063  10.594
68170W        W29591  36.971   4.843   1.923
68171W        W29592  29.924   2.724  12.870
68172W        W29593   7.380  20.665  11.063
68173W        W29594  34.611   9.326   0.840
68174W        W29595   2.313   4.276  12.038
68175W        W29596  42.837  39.021  13.411
68176W        W29597  20.646   2.765  10.908
68177W        W29598  12.610  14.287   0.407
68178W        W29599  17.575   3.445   0.737
68179W        W29600  16.684  42.012   0.826
68180W        W29601  14.828  43.410   3.637
68181W        W29602  13.797  28.173  13.368
68182W        W29603  22.176  30.420   1.888
68183W        W29604  21.110  16.088  12.343
68184W        W29605  36.053  39.864   4.249
68185W        W29606   0.943   3.731   0.313
68186W        W29607  29.613  40.811  14.771
68187W        W29608  22.023  33.122  13.537
68188W        W29609  29.425  39.823  11.382
68189W        W29610  13.800  14.780   0.278
68190W        W29611  26.521  34.115   4.680
68191W        W29612   0.837  25.469  13.006
68192W        W29613  22.528  22.184  14.006
68193W        W29614  27.064  17.635  12.484
68194W        W29615  40.505  33.996   3.639
68195W        W29616  29.483  39.500   3.146
68196W        W29617   9.736   6.377  11.421
68197W        W29618  20.552  40.885   1.786
68198W        W29619  16.318  11.223  13.455
68199W        W29620  31.644  31.445   0.483
68200W        W29621  30.414  28.057   3.868
68201W        W29622  43.286  22.705   3.636
68202W        W29623  44.283  40.515   5.186
68203W        W29624  24.978   5.360   4.249
68204W        W29625   3.709   1.324  11.469
68205W        W29626  42.325  22.642  12.058
68206W        W29627  23.146  38.509   1.272
68207W        W29628  17.279  17.166  10.425
68208W        W29629   3.783  35.013   3.675
68209W        W29630  32.629  44.975  13.898
68210W        W29631  43.415   6.676  11.396
68211W        W29632  32.892  26.954  10.638
68212W        W29633   0.409  11.366  11.093
68213W        W29634  44.476  34.584   1.304
68214W        W29635  11.232  38.985   0.395
68215W        W29636  19.224   7.821  12.443
68216W        W29637  18.641  22.586   4.710
68217W        W29638  16.600  42.500   1.318
68218W        W29639   7.294  20.676  12.893
68219W        W29640  20.065   8.266   4.776
68220W        W29641  28.595  40.871  10.441
68221W        W29642   1.783  15.159  14.956
68222W        W29643  34.438  24.543  13.900
68223W        W29644  25.995  28.935  10.888
68224W        W29645  10.334   1.297   3.282
68225W        W29646  28.930  17.567   0.391
68226W        W29647  44.297   0.883  14.447
68227W        W29648  33.113  22.719  11.430
68228W        W29649  12.123  23.557   1.386
68229W        W29650  22.667   7.771   2.772
68230W        W29651  11.628  26.545  14.780
68231W        W29652   2.802  24.155  10.985
68232W        W29653  38.942  31.963  10.436
68233W        W29654  31.097  38.954   4.691
68234W        W29655   6.292  42.813   0.782
68235W        W29656   7.341  30.997  11.916
68236W        W29657   6.247  39.951   0.782
68237W        W29658   4.712  34.897   3.803
68238W        W29659  37.908  27.983  13.893
68239W        W29660  31.010  32.963   2.381
68240W        W29661  19.113  43.387  10.617
68241W        W29662  11.740   1.440   4.737
68242W        W29663  42.354   3.839  10.431
68243W        W29664  10.648  36.940   1.744
68244W        W29665  37.579   5.238  14.399
68245W        W29666  32.637  38.535   3.302
68246W        W29667  29.173  33.094   1.699
68247W        W29668  38.360  19.626   0.456
68248W        W29669  29.092  39.905  11.604
68249W        W29670  34.040   4.373   3.690
68250W        W29671  43.279  23.111   1.788
68251W        W29672  36.535   0.826  13.903
68252W        W29673  32.488  40.396  11.963
68253W        W29674  26.487  43.277  12.520
68254W        W29675  27.591  14.821  14.920
68255W        W29676  28.665   5.902   4.790
68256W        W29677  19.697  44.891   0.406
68257W        W29678  20.605  14.781  13.493
68258W        W29679  30.972  23.213   2.871
68259W        W29680  38.003  30.101  14.998
68260W        W29681  14.729   2.794   1.277
68261W        W29682  31.642  27.027  12.052
68262W        W29683  36.007   2.312  14.961
68263W        W29684  42.858  20.057   5.217
68264W        W29685  27.685  42.445  11.521
68265W        W29686  28.175  36.405   4.255
68266W        W29687   3.834  35.539   3.150
68267W        W29688  28.166  40.544  14.334
68268W        W29689  44.281   3.432   0.775
68269W        W29690  20.108  26.661   1.896
68270W        W29691   9.736   1.779   2.688
68271W        W29692  10.180   7.198  14.766
68272W        W29693   9.873  19.751  12.409
68273W        W29694  32.011  21.061   1.829
68274W        W29695   5.309  15.243  13.349
68275W        W29696  26.074   8.860  14.338
68276W        W29697  24.230  20.523  14.922
68277W        W29698  12.635  27.030   0.864
68278W        W29699   3.281   2.783   0.943
68279W        W29700  15.608  31.424  12.537
68280W        W29701  37.030  43.903   1.854
68281W        W29702   7.680  15.307  13.804
68282W        W29703  15.129   9.385  14.764
68283W        W29704  21.576  44.857   3.358
68284W        W29705   2.308  36.413   4.721
68285W        W29706  30.655  11.225  13.809
68286W        W29707  27.528  34.957  11.404
68287W        W29708  42.837  26.631   0.474
68288W        W29709  11.191  16.136   4.660
68289W        W29710   9.683   3.741  14.467
68290W        W29711   6.810  39.453   1.697
68291W        W29712  20.255  16.632   0.810
68292W        W29713   9.391  12.711  14.925
68293W        W29714  36.428   1.314   4.635
68294W        W29715   4.767   4.879   1.365
68295W        W29716  38.900   6.832  10.546
68296W        W29717  22.582   9.768  11.895
68297W        W29718  27.942   2.835  11.474
68298W        W29719  36.551  25.130  13.807
68299W        W29720  23.605  10.254  14.350
68300W        W29721  36.495  38.344  14.364
68301W        W29722  26.462   9.764   2.347
68302W        W29723  37.417  17.288   1.248
68303W        W29724  16.710  20.079  12.014
68304W        W29725   5.307  27.489   4.323
68305W        W29726   2.459  17.574   1.436
68306W        W29727  40.474  32.890   2.325
68307W        W29728  36.540  23.490  12.407
68308W        W29729   5.317  25.195   1.902
68309W        W29730  11.329   3.816   2.417
68310W        W29731   3.381  34.494   0.776
68311W        W29732  36.967  31.613  12.006
68312W        W29733   9.373  42.392  13.499
68313W        W29734  27.979   8.331  13.415
68314W        W29735  18.091  34.424   2.781
68315W        W29736  41.954   1.429   2.273
68316W        W29737  28.179   9.753  11.925
68317W        W29738  11.799  37.078  13.912
68318W        W29739  11.697  41.418   4.760
68319W        W29740  10.741  30.107  12.960
68320W        W29741   8.687  24.054   2.726
68321W        W29742  38.356  35.062  11.991
68322W        W29743  26.092  39.406  12.028
68323W        W29744   4.307  22.601   1.706
68324W        W29745  44.982   0.839   2.197
68325W        W29746  11.808  11.638   0.842
68326W        W29747  15.681  32.550  11.496
68327W        W29748   2.751   7.388  11.926
68328W        W29749  28.463   2.361  11.909
68329W        W29750  30.925  41.939   0.870
68330W        W29751  43.974  19.550   1.391
68331W        W29752  37.059   0.476  14.332
68332W        W29753  32.057  18.563  12.344
68333W        W29754  23.137   2.226  13.515
68334W        W29755  35.867  12.248  13.439
68335W        W29756   3.814  37.575  10.099
68336W        W29757  40.951  36.462  12.031
68337W        W29758  12.306   8.262  11.034
68338W        W29759  37.929  33.389  11.502
68339W        W29760  23.205   3.952  10.505
68340W        W29761  14.752   8.878   3.155
68341W        W29762  43.515  36.423  12.887
68342W        W29763   7.889  26.082  12.055
68343W        W29764   1.772  40.872  10.580
68344W        W29765  26.087  15.702   2.269
68345W        W29766   3.281  44.864  13.796
68346W        W29767  40.043  24.064   2.841
68347W        W29768  15.327  39.529   4.703
68348W        W29769  42.820  39.315  12.442
68349W        W29770  21.261  32.438  12.344
68350W        W29771  21.721  41.887  13.352
68351W        W29772  22.565   4.827   2.178
68352W        W29773  38.534  14.166   9.589
68353W        W29774   3.342  21.741  10.911
68354W        W29775  28.458  30.570  13.908
68355W        W29776  38.324  21.125  12.556
68356W        W29777   4.863  38.904  11.518
68357W        W29778  21.141   0.797   4.340
68358W        W29779   2.265  41.449  12.417
68359W        W29780  23.090   6.217  12.892
68360W        W29781  42.998  19.779   3.788
68361W        W29782   5.358   6.345  11.471
68362W        W29783   2.256  22.039  14.019
68363W        W29784  25.988   5.918  11.522
68364W        W29785  34.433   9.167   2.371
68365W        W29786   7.251  26.120   3.317
68366W        W29787  14.731  28.145   4.655
68367W        W29788  15.274  38.037  12.401
68368W        W29789  18.756  17.671  11.024
68369W        W29790  12.787  40.417  13.544
68370W        W29791  10.750  19.662  10.639
68371W        W29792  40.439  43.477   3.845
68372W        W29793  10.326  33.516   1.842
68373W        W29794  23.091  14.715  13.342
68374W        W29795  44.289  24.082   2.903
68375W        W29796  14.790  10.255   0.749
68376W        W29797  40.944  22.138   0.395
68377W        W29798   6.249  22.637   1.817
68378W        W29799  37.446  18.771   2.286
68379W        W29800  24.492  29.583  14.789
68380W        W29801  34.463  17.644  13.865
68381W        W29802  34.369  22.733   3.797
68382W        W29803  27.615   9.391  12.918
68383W        W29804  23.100   4.437   2.766
68384W        W29805   6.276  17.120   1.265
68385W        W29806  28.623  37.345   4.128
68386W        W29807  30.647   9.784  12.996
68387W        W29808  33.088  38.354  14.344
68388W        W29809  38.839  32.095  14.316
68389W        W29810  33.392  21.536   4.679
68390W        W29811   1.482  40.521   4.115
68391W        W29812   7.221   9.253   4.342
68392W        W29813  41.476  28.535   1.232
68393W        W29814  17.161  23.174  13.809
68394W        W29815  42.775  24.038   2.884
68395W        W29816  39.964  10.837  12.348
68396W        W29817   3.848   8.755  12.976
68397W        W29818   8.711  27.001  13.364
68398W        W29819  22.183  11.857  13.510
68399W        W29820  38.849  40.998  14.508
68400W        W29821  39.012  13.112  12.564
68401W        W29822  25.013  27.575   1.891
68402W        W29823   4.339  36.397   4.652
68403W        W29824  34.118  40.457  10.618
68404W        W29825  30.544  13.634   1.757
68405W        W29826  11.163  33.617  14.367
68406W        W29827  17.589  32.475   0.325
68407W        W29828  13.246  30.036  10.901
68408W        W29829  30.426   1.361  11.566
68409W        W29830  21.067  40.825   1.848
68410W        W29831  37.482  13.738   4.222
68411W        W29832  35.901  23.585  13.013
68412W        W29833  25.122  25.613   0.783
68413W        W29834  28.653  32.047  11.492
68414W        W29835  28.660  39.035   0.462
68415W        W29836  24.658  18.773   0.475
68416W        W29837   2.353  15.242  11.108
68417W        W29838   3.387   0.909   4.733
68418W        W29839  17.288  12.299   4.674
68419W        W29840  42.801  16.085   3.200
68420W        W29841   8.179  31.081  14.435
68421W        W29842  27.628  33.570  13.920
68422W        W29843   2.816  11.160   2.811
68423W        W29844  29.155  17.229  11.421
68424W        W29845  34.614  16.273   2.252
68425W        W29846  22.222  35.981  10.469
68426W        W29847  38.454   0.744   4.155
68427W        W29848  21.582   8.197  14.010
68428W        W29849  15.733  27.197   1.267
68429W        W29850  36.370   7.181   1.756
68430W        W29851   7.294  29.072   0.835
68431W        W29852  20.090  20.105  14.514
68432W        W29853  25.002  43.020   5.132
68433W        W29854  17.070  25.074   2.692
68434W        W29855  39.988  16.635   0.475
68435W        W29856  16.805  43.338   3.701
68436W        W29857  14.295  36.063   4.299
68437W        W29858  10.761  15.622   3.296
68438W        W29859  37.427  43.895  14.952
68439W        W29860  33.544  21.535  11.549
68440W        W29861  41.989  40.814  12.996
68441W        W29862   3.789  10.193  11.465
68442W        W29863  21.558  29.114  14.834
68443W        W29864  42.972   9.643  14.810
68444W        W29865  38.342  21.192  11.515
68445W        W29866   4.934  40.999   1.210
68446W        W29867  30.126  22.138   1.924
68447W        W29868  20.143  16.575  13.954
68448W        W29869  27.545   6.850  14.963
68449W        W29870   0.895  12.716   2.289
68450W        W29871  39.918  19.736  10.417
68451W        W29872  24.045  36.988   0.877
68452W        W29873  20.559  20.559  10.525
68453W        W29874  12.764  24.709  12.078
68454W        W29875  35.483  23.114   2.695
68455W        W29876   5.778  37.955   0.947
68456W        W29877  21.545  39.930   3.289
68457W        W29878  34.035   8.771  13.903
68458W        W29879  24.199  21.074   1.301
68459W        W29880  24.632  44.771  13.869
68460W        W29881  35.430  32.025   0.466
68461W        W29882   7.260   4.215   0.293
68462W        W29883   6.317   4.831  12.551
68463W        W29884  19.087  43.954   2.178
68464W        W29885  39.995   9.863   3.671
68465W        W29886  16.685   9.650  13.312
68466W        W29887  37.047  39.446   1.926
68467W        W29888   8.225  13.812   0.343
68468W        W29889  19.667  13.292   0.384
68469W        W29890  17.596  10.666  11.028
68470W        W29891  31.088  30.458   0.844
68471W        W29892   0.386   9.758  10.617
68472W        W29893  39.452  37.430   1.344
68473W        W29894  37.891  35.433  11.908
68474W        W29895   6.284  11.780  13.536
68475W        W29896   7.306   8.196  12.060
68476W        W29897   7.670  22.183  10.916
68477W        W29898   2.878  23.693  14.432
68478W        W29899   2.358  42.004  10.528
68479W        W29900  22.647  27.135  10.922
68480W        W29901  16.582  29.658   0.483
68481W        W29902  21.028  12.212   3.795
68482W        W29903  43.849  10.762   1.853
68483W        W29904  35.939  35.868   1.219
68484W        W29905  30.933   2.803   2.897
68485W        W29906  13.108  37.465   3.234
68486W        W29907  24.538   6.200   4.223
68487W        W29908  21.525  24.595   2.893
68488W        W29909   6.333  42.917   9.970
68489W        W29910  19.769  29.021  14.295
68490W        W29911   6.409  43.350   4.756
68491W        W29912   9.217  37.443  11.866
68492W        W29913  32.398   2.240  11.599
68493W        W29914  14.726   2.903   2.847
68494W        W29915   6.683   1.458   2.229
68495W        W29916  40.009   9.270  13.523
68496W        W29917   1.788  35.931   1.315
68497W        W29918  31.462  23.729  13.798
68498W        W29919  17.127  40.807  11.026
68499W        W29920   4.336   7.240  12.031
68500W        W29921  31.495  31.959   1.896
68501W        W29922  19.652  11.652  10.475
68502W        W29923  37.055  18.252   4.152
68503W        W29924  12.224  34.458   4.708
68504W        W29925  39.333  26.672  12.956
68505W        W29926  29.137  36.509  10.555
68506W        W29927   0.864  42.826   0.269
68507W        W29928  14.206  16.193  13.966
68508W        W29929  15.606  24.596   2.215
68509W        W29930  29.086  30.602  12.070
68510W        W29931  38.325   4.826  11.909
68511W        W29932   6.270  33.955  12.352
68512W        W29933   1.449  21.548   4.341
68513W        W29934  19.133   5.388   1.785
68514W        W29935   3.274   7.223  13.479
68515W        W29936  25.564  28.659  13.865
68516W        W29937  42.810  41.303   0.388
68517W        W29938  17.684  12.823   2.774
68518W        W29939   0.264  20.068  11.957
68519W        W29940  39.866  35.362  11.902
68520W        W29941   1.972  21.259   2.851
68521W        W29942  18.197   7.687   0.857
68522W        W29943  31.898  43.450  14.434
68523W        W29944   2.904  38.542   0.348
68524W        W29945   6.805  10.873   0.280
68525W        W29946  11.134   7.728   4.223
68526W        W29947  27.596  26.701  13.363
68527W        W29948  28.166  25.595   3.722
68528W        W29949  33.108  13.294  14.429
68529W        W29950  25.193  12.814   1.270
68530W        W29951  11.757  16.766  13.986
68531W        W29952  41.484  19.621   3.211
68532W        W29953  23.067  21.108   1.787
68533W        W29954  30.530  27.946  12.531
68534W        W29955  18.598  11.788   3.817
68535W        W29956  18.120  20.703  11.500
68536W        W29957  10.370  38.554   1.850
68537W        W29958  17.180  20.716  10.621
68538W        W29959  27.100  14.695   0.269
68539W        W29960   0.934  33.480  13.366
68540W        W29961  26.690  17.623   1.917
68541W        W29962  28.479  33.433  12.891
68542W        W29963  29.121  40.443   1.767
68543W        W29964  44.993  44.756   2.838
68544W        W29965  17.259   4.837  13.390
68545W        W29966  21.261   9.348   2.190
68546W        W29967  36.042   8.355  12.947
68547W        W29968  17.140  20.138  13.432
68548W        W29969  28.673   7.825  13.483
68549W        W29970   1.963  32.557  11.019
68550W        W29971  27.691   4.767  14.437
68551W        W29972  12.680  15.772   1.694
68552W        W29973   0.280  32.554   0.309
68553W        W29974  34.891  15.232  10.550
68554W        W29975  20.150  35.039   2.876
68555W        W29976  22.029  31.056  11.978
68556W        W29977   0.906   7.891  12.469
68557W        W29978   5.221  35.541   4.211
68558W        W29979  23.505   4.392  13.531
68559W        W29980  13.616  35.548  13.443
68560W        W29981   0.471  16.732   1.245
68561W        W29982  38.926  33.469  11.569
68562W        W29983  19.209   9.757  12.550
68563W        W29984  24.079  37.062   3.734
68564W        W29985  16.243   1.318   2.410
68565W        W29986  16.706  17.701  10.431
68566W        W29987  11.670  14.259   4.293
68567W        W29988  12.301   1.288   3.642
68568W        W29989  13.700  34.468   0.731
68569W        W29990  35.409  14.626   3.304
68570W        W29991   1.771   3.249  12.518
68571W        W29992   9.759  11.648   3.807
68572W        W29993  21.226  11.299   1.785
68573W        W29994   3.315   1.247  12.870
68574W        W29995  39.883  26.542  14.484
68575W        W29996  43.342   7.287   1.398
68576W        W29997   5.694  20.611   4.302
68577W        W29998  29.603  22.727  13.883
68578W        W29999  13.249   1.399  14.998
68579W        W30000  19.164  16.187   0.967
68580W        W30001  18.735   2.933   3.190
68581W        W30002   6.357  13.703   0.772
68582W        W30003  36.508  34.069   3.167
68583W        W30004  27.113  32.011  13.526
68584W        W30005  25.609  11.175   1.769
68585W        W30006   3.445   2.252   2.197
68586W        W30007  21.166   6.282  12.894
68587W        W30008   7.803  34.461   2.409
68588W        W30009  14.291  29.539   2.687
68589W        W30010  11.841  16.290  14.450
68590W        W30011   5.699  25.713   0.416
68591W        W30012  18.241   7.222   4.311
68592W        W30013  26.662  22.611   5.253
68593W        W30014  21.644  27.095  12.911
68594W        W30015  14.207  25.155   1.796
68595W        W30016  42.399  25.111  11.413
68596W        W30017  28.144  22.559   1.243
68597W        W30018  34.894   7.277   0.931
68598W        W30019  15.126  19.278  14.837
68599W        W30020  40.874  12.340  14.967
68600W        W30021  32.592   3.231  12.444
68601W        W30022   8.346   9.280  11.079
68602W        W30023  24.133  34.041   4.279
68603W        W30024  21.191  28.628   0.477
68604W        W30025  14.163  17.604  11.971
68605W        W30026  18.258   2.282  11.064
68606W        W30027   0.407  19.266  11.094
68607W        W30028  28.994  44.404  10.505
68608W        W30029  18.233   9.762   3.297
68609W        W30030  33.987  19.735   2.812
68610W        W30031  33.493  21.060  11.542
68611W        W30032  14.175  18.069  13.415
68612W        W30033  21.137   9.306  12.035
68613W        W30034  21.222  35.039  12.999
68614W        W30035  31.024   8.269  13.985
68615W        W30036  44.355  41.348  11.937
68616W        W30037  14.769  41.933  12.556
68617W        W30038   5.409  42.362  12.948
68618W        W30039  42.861  15.782   4.225
68619W        W30040  22.196  31.920  11.041
68620W        W30041  34.522   7.182  14.862
68621W        W30042   6.707   6.887  13.009
68622W        W30043   3.777   3.346   5.198
68623W        W30044   8.750  27.079  14.849
68624W        W30045  22.605   3.812   5.217
68625W        W30046  26.576  11.834  14.759
68626W        W30047   0.293  34.487  14.426
68627W        W30048  20.097  10.824   4.191
68628W        W30049  18.087  37.944  10.640
68629W        W30050  33.944  14.329  11.446
68630W        W30051  19.703  39.524   4.211
68631W        W30052  15.665  19.125   3.241
68632W        W30053  10.288   5.777   1.801
68633W        W30054  32.100   7.364  14.985
68634W        W30055   3.757  17.601   0.317
68635W        W30056   0.803  20.632  10.611
68636W        W30057   7.204  10.315   4.264
68637W        W30058  10.348  20.719   0.769
68638W        W30059   1.750  37.510   3.241
68639W        W30060   6.240   2.270   0.466
68640W        W30061  30.106   9.380  10.523
68641W        W30062  32.447  42.947   2.721
68642W        W30063  12.730  16.645   2.392
68643W        W30064  31.530  21.668  13.020
68644W        W30065  16.730  14.721   4.320
68645W        W30066  34.530  27.488  12.917
68646W        W30067  34.969  30.530   5.164
68647W        W30068  33.399  38.983   0.783
68648W        W30069  42.825  15.221  14.806
68649W        W30070  19.043  10.802   1.264
68650W        W30071   4.418  17.160   3.248
68651W        W30072   5.830  21.556  12.526
68652W        W30073  19.773  25.522   1.911
68653W        W30074   9.374  19.132   3.712
68654W        W30075  17.113  15.615   0.932
68655W        W30076  19.728  18.696  12.084
68656W        W30077   1.915  16.248  14.361
68657W        W30078  39.810  31.633  13.496
68658W        W30079  17.618  20.272  11.122
68659W        W30080   8.665  43.507  13.801
68660W        W30081  36.575  22.629  14.308
68661W        W30082   2.945   0.454   2.255
68662W        W30083  12.187  21.178  11.894
68663W        W30084  38.424  38.847   2.270
68664W        W30085  33.575   1.414  13.056
68665W        W30086  13.349  26.590   2.674
68666W        W30087  15.822  20.046   1.715
68667W        W30088  23.591  43.827  13.858
68668W        W30089  28.079  24.515  10.612
68669W        W30090   6.325   8.869  10.437
68670W        W30091  10.257  38.997   2.345
68671W        W30092   7.206   8.849   0.883
68672W        W30093  17.766   0.390   3.155
68673W        W30094  13.694  25.996  13.474
68674W        W30095  20.619   2.914   2.207
68675W        W30096  32.135  38.048  12.061
68676W        W30097  38.932  24.605  13.804
68677W        W30098  17.699  38.000  14.415
68678W        W30099  37.967   1.473  14.299
68679W        W30100  27.645  10.787  14.945
68680W        W30101  27.991  32.517   3.668
68681W        W30102  23.700  10.704   4.246
68682W        W30103  16.614  35.409  13.889
68683W        W30104  30.083  39.440  11.418
68684W        W30105  28.176  42.459  14.941
68685W        W30106  38.445  16.644  13.382
68686W        W30107  16.172   0.305   2.745
68687W        W30108   8.776   8.222   0.738
68688W        W30109  26.096  10.248   0.266
68689W        W30110  11.652  29.104  12.944
68690W        W30111   3.282   1.769   3.713
68691W        W30112   0.372   1.966   1.807
68692W        W30113  28.677  10.679   5.299
68693W        W30114  23.597  20.142   2.849
68694W        W30115   9.760  36.530   2.262
68695W        W30116  31.496  10.141   4.708
68696W        W30117  42.323  33.404  13.834
68697W        W30118  16.781  14.141  11.419
68698W        W30119  13.200  35.853  14.854
68699W        W30120  32.014  11.270   3.199
68700W        W30121  26.171  27.687   3.852
68701W        W30122  14.719   7.414  13.504
68702W        W30123  17.688  36.916  13.461
68703W        W30124  33.571  25.009  10.628
68704W        W30125  31.085  26.565   1.260
68705W        W30126  36.494  10.649  13.401
68706W        W30127   6.370  44.494   0.913
68707W        W30128  12.816  29.637   1.872
68708W        W30129  25.611  27.011   0.790
68709W        W30130   5.846  18.734   2.359
68710W        W30131  12.790  28.086   2.218
68711W        W30132  18.719   7.892   4.659
68712W        W30133  44.368   2.301  12.546
68713W        W30134  25.158  10.294   3.692
68714W        W30135   7.266   2.460  13.441
68715W        W30136   9.765  23.229   0.390
68716W        W30137  23.173  11.791  10.915
68717W        W30138  40.829  36.372  13.047
68718W        W30139  42.794  13.751   1.326
68719W        W30140  25.550  30.111  12.339
68720W        W30141   1.931  37.078  13.407
68721W        W30142  35.870   0.253   1.213
68722W        W30143  19.701   1.771  13.510
68723W        W30144  40.967  24.090   0.783
68724W        W30145  24.649  13.292  14.471
68725W        W30146  32.102  30.135   4.307
68726W        W30147  43.852   4.773   1.805
68727W        W30148  37.391  10.768  14.385
68728W        W30149   7.787  26.191   3.336
68729W        W30150   4.909  36.980  12.022
68730W        W30151  25.122  17.586   2.417
68731W        W30152  39.317  40.507   0.296
68732W        W30153  16.641  17.606   0.934
68733W        W30154  27.605  10.164  13.313
68734W        W30155   6.253  29.092  10.599
68735W        W30156  35.973  25.471  12.904
68736W        W30157  14.141  20.661  12.902
68737W        W30158   8.195  11.860   1.391
68738W        W30159   9.178  43.459  11.094
68739W        W30160  43.991  24.195  12.977
68740W        W30161   4.828  21.649  13.034
68741W        W30162  22.669  40.976   3.163
68742W        W30163  21.518  31.612  12.934
68743W        W30164  33.066  10.704   4.327
68744W        W30165  31.586  18.571   2.312
68745W        W30166  16.806   4.261  13.419
68746W        W30167  34.867  18.683  12.526
68747W        W30168   2.808  32.403   1.818
68748W        W30169   3.298  29.027   4.222
68749W        W30170  19.624  13.227   1.855
68750W        W30171  38.417  25.082   1.908
68751W        W30172  26.171  15.599  11.965
68752W        W30173  43.406  14.217   5.184
68753W        W30174  19.065   0.339  10.938
68754W        W30175  37.977  21.154  12.542
68755W        W30176   7.745  28.632   0.326
68756W        W30177  25.092   9.803   2.686
68757W        W30178  41.885  36.864   0.878
68758W        W30179  34.409  30.969   1.694
68759W        W30180  40.827  40.944   1.357
68760W        W30181  19.053  22.729  10.423
68761W        W30182  26.630  39.389  13.808
68762W        W30183  44.851   1.920   3.257
68763W        W30184  32.456  38.379  11.916
68764W        W30185  15.706  24.028  13.001
68765W        W30186  38.957  14.205  11.553
68766W        W30187  28.969  20.054   1.262
68767W        W30188  16.162  41.854  13.059
68768W        W30189  15.243   3.943  12.847
68769W        W30190  35.484   8.731  10.975
68770W        W30191  21.112  24.644   2.416
68771W        W30192  28.615  37.356   0.908
68772W        W30193  18.108  10.183   5.319
68773W        W30194  44.968  31.029  11.857
68774W        W30195   2.298  40.529  10.417
68775W        W30196  34.888  44.773  12.077
68776W        W30197  10.806   0.388   3.669
68777W        W30198  35.093   5.738   0.771
68778W        W30199  37.931  27.973  12.505
68779W        W30200  17.188  27.626  14.402
68780W        W30201  13.193  28.102   1.382
68781W        W30202  35.421  10.372   1.335
68782W        W30203  23.091   1.316  12.976
68783W        W30204   9.812  33.065  13.405
68784W        W30205  43.774  29.470  10.974
68785W        W30206   0.978  24.704   1.415
68786W        W30207   0.965  41.917   4.279
68787W        W30208  28.574  35.928  13.967
68788W        W30209  31.500  19.678  12.906
68789W        W30210  40.870  31.916   0.263
68790W        W30211  42.309  26.551   4.243
68791W        W30212  35.579   4.393  12.366
68792W        W30213  43.403  18.712   4.217
68793W        W30214  30.641  34.072   3.382
68794W        W30215  14.105  43.304  13.379
68795W        W30216  24.979  10.837  13.319
68796W        W30217  30.038  11.867  14.420
68797W        W30218   5.786  22.667   2.856
68798W        W30219   6.825   9.787  11.101
68799W        W30220  41.894  42.960   2.769
68800W        W30221  19.714   0.282  11.860
68801W        W30222  11.800  26.139  12.988
68802W        W30223  32.416  13.112  13.798
68803W        W30224  26.628  19.633   0.802
68804W        W30225   7.789  22.091  13.961
68805W        W30226  30.556  25.502   0.278
68806W        W30227  14.210  12.817   4.266
68807W        W30228  13.115  25.159  13.933
68808W        W30229   3.778  34.047  14.341
68809W        W30230  18.726  32.029   3.636
68810W        W30231  10.151  40.412   3.321
68811W        W30232  34.395  40.798  13.928
68812W        W30233  14.599  18.636  13.824
68813W        W30234  39.374  28.592  12.974
68814W        W30235   3.282  30.142  11.585
68815W        W30236  33.479  32.048   3.760
68816W        W30237  37.958  14.692   4.633
68817W        W30238  36.364  24.639   0.387
68818W        W30239  34.576  10.358   4.294
68819W        W30240  41.386  23.706   2.272
68820W        W30241  10.285  27.182  14.778
68821W        W30242  33.957  42.825   3.374
68822W        W30243  36.466  27.070  14.393
68823W        W30244  18.151  36.591  10.447
68824W        W30245  16.115  44.448  11.997
68825W        W30246   7.727  43.973   1.703
68826W        W30247  11.322  22.619  10.444
68827W        W30248   6.870  11.246  10.996
68828W        W30249  22.075   3.724  14.824
68829W        W30250  39.050  34.000   2.366
68830W        W30251   1.260   9.237  11.915
68831W        W30252   5.238  35.604   0.327
68832W        W30253   1.281  21.087   1.416
68833W        W30254   0.368  23.646  12.341
68834W        W30255  18.744  19.662   5.119
68835W        W30256  38.016  43.882  12.095
68836W        W30257  17.242  24.531  12.908
68837W        W30258  24.127   5.853  14.850
68838W        W30259   4.884  22.215  11.458
68839W        W30260  42.925  27.005  11.009
68840W        W30261  20.687   0.467  13.453
68841W        W30262   7.666   4.310  13.546
68842W        W30263  20.046   3.753   4.335
68843W        W30264  23.021  41.447  10.488
68844W        W30265  38.966  21.745  10.059
68845W        W30266  27.073  26.121  14.390
68846W        W30267  14.636   8.271  13.384
68847W        W30268   8.892   2.894  13.793
68848W        W30269  26.111  44.294  13.048
68849W        W30270  10.224  25.584   0.916
68850W        W30271  32.531  39.555  14.916
68851W        W30272  43.339   2.880  14.408
68852W        W30273  24.478  12.317  14.908
68853W        W30274  24.057   4.856   9.528
68854W        W30275  26.658  36.888   3.250
68855W        W30276   0.464  32.400  12.040
68856W        W30277  30.451  15.731   1.857
68857W        W30278  31.065   0.848   4.243
68858W        W30279  34.972   1.739   2.357
68859W        W30280  17.802  12.845  11.433
68860W        W30281  19.687  33.518   4.736
68861W        W30282  16.187  41.821   1.421
68862W        W30283  44.864   8.811  13.036
68863W        W30284   4.864  14.168   1.412
68864W        W30285   6.270   8.735  11.073
68865W        W30286  32.939  30.657  13.541
68866W        W30287  25.086  41.837   2.388
68867W        W30288  24.143  41.403   0.481
68868W        W30289  33.996  17.176  14.451
68869W        W30290  41.363  44.011  11.954
68870W        W30291  14.339   7.403   4.271
68871W        W30292  34.030  25.713  14.760
68872W        W30293  21.039  11.740  11.539
68873W        W30294  20.655  19.182  14.509
68874W        W30295  14.337  34.382   2.364
68875W        W30296  43.965  15.247  12.998
68876W        W30297  11.716  31.499   2.768
68877W        W30298  31.901  31.100  11.439
68878W        W30299  26.148  44.492   1.332
68879W        W30300  13.280   9.755   4.333
68880W        W30301  43.917   1.916   3.712
68881W        W30302  25.203  35.026   0.847
68882W        W30303  44.764  16.088  11.098
68883W        W30304   4.923  14.641  10.973
68884W        W30305  43.506  38.821   2.248
68885W        W30306  37.363  21.757  10.596
68886W        W30307  18.243  28.103  12.438
68887W        W30308  20.131  39.380   0.273
68888W        W30309   3.916   0.367  12.897
68889W        W30310  42.856  24.221  11.983
68890W        W30311  39.989  13.260   1.758
68891W        W30312  21.223  23.125   3.251
68892W        W30313  21.514   7.177  12.347
68893W        W30314  12.819  26.639   3.359
68894W        W30315  39.332  11.756  13.020
68895W        W30316  10.659  35.465  10.409
68896W        W30317  16.710  35.459  12.426
68897W        W30318  29.114   1.766   0.947
68898W        W30319   6.890   2.780  10.620
68899W        W30320   5.368   4.772   4.135
68900W        W30321  34.107  26.058  13.894
68901W        W30322  42.873   7.198  10.944
68902W        W30323  40.957  29.965  13.435
68903W        W30324  20.248  14.129  13.405
68904W        W30325  26.631  42.505   2.887
68905W        W30326  11.760   9.751  14.394
68906W        W30327   1.242  35.541  12.997
68907W        W30328  38.891  37.850  13.055
68908W        W30329  42.969  34.957   5.199
68909W        W30330   8.706   2.753  12.426
68910W        W30331  33.526  25.022  14.761
68911W        W30332  22.732   4.323  12.065
68912W        W30333  37.872  43.424   4.763
68913W        W30334  43.990  33.606   0.777
68914W        W30335  34.073  22.537   0.363
68915W        W30336  39.479   8.872  14.470
68916W        W30337  41.476  16.691  12.836
68917W        W30338  13.705  32.080  13.450
68918W        W30339  33.590   6.252   3.655
68919W        W30340   9.338   6.730   4.730
68920W        W30341  26.136  39.864  14.910
68921W        W30342  31.636   0.802  14.509
68922W        W30343  21.039  39.824  14.014
68923W        W30344   4.236   6.731   4.652
68924W        W30345  20.078  18.720  14.850
68925W        W30346  37.877  32.412  12.900
68926W        W30347  25.150  28.987  12.906
68927W        W30348  22.732   8.758   1.717
68928W        W30349   7.263  36.062   3.755
68929W        W30350  32.935  22.115  13.367
68930W        W30351  29.089  22.606   1.842
68931W        W30352   8.839  16.306  13.329
68932W        W30353   6.348   2.280   1.843
68933W        W30354  35.480   5.705  13.446
68934W        W30355  14.183  28.060   3.636
68935W        W30356   7.262   6.235  12.470
68936W        W30357  16.104  11.697   4.812
68937W        W30358  32.580  17.620  14.912
68938W        W30359  32.519  35.401  12.092
68939W        W30360   7.876   8.680   3.259
68940W        W30361  35.475  20.233  11.885
68941W        W30362  17.601  17.741   1.439
68942W        W30363  36.578  44.495  14.504
68943W        W30364  29.146  19.592  11.960
68944W        W30365   1.858  31.106  13.505
68945W        W30366  42.887   7.294   1.434
68946W        W30367   2.389  27.123  12.882
68947W        W30368  21.754  24.490  13.004
68948W        W30369   5.362  17.608   2.381
68949W        W30370   5.326  11.699  13.429
68950W        W30371  17.597  14.140   3.660
68951W        W30372  12.849   0.330   4.286
68952W        W30373   9.672  19.667  10.456
68953W        W30374  14.325  41.821  14.435
68954W        W30375  43.974  15.242   1.804
68955W        W30376   3.389  25.644  12.512
68956W        W30377  40.810   8.772   3.844
68957W        W30378   6.766  42.496  12.007
68958W        W30379  36.088  42.388  12.433
68959W        W30380  14.248  30.479   2.312
68960W        W30381   9.817  16.235   3.168
68961W        W30382  13.707  23.540  14.942
68962W        W30383  36.025  12.638  12.078
68963W        W30384  37.359   5.285   0.257
68964W        W30385  29.652  35.970  13.893
68965W        W30386  11.820   1.811  14.816
68966W        W30387   8.868   2.266   2.690
68967W        W30388  35.589  40.987  12.824
68968W        W30389  27.945  20.564  14.805
68969W        W30390  34.408  24.634  10.497
68970W        W30391  15.146  11.159   1.424
68971W        W30392  35.088  42.347  11.030
68972W        W30393  35.549  19.657  11.037
68973W        W30394   8.253   6.816  10.506
68974W        W30395   3.888  26.628  12.523
68975W        W30396   8.887  19.082  13.064
68976W        W30397  31.955   9.241  14.454
68977W        W30398  35.983  26.642  12.847
68978W        W30399  24.156  20.069  14.371
68979W        W30400  43.000  22.013  13.510
68980W        W30401  23.996  38.861   1.307
68981W        W30402  30.480  17.751  12.559
68982W        W30403   9.321   1.385   2.394
68983W        W30404  38.968   9.223   3.203
68984W        W30405  15.636   9.169  11.602
68985W        W30406  27.668  33.582   0.789
68986W        W30407   6.907  42.831  13.910
68987W        W30408   8.873   7.405  11.043
68988W        W30409   9.258  17.802   2.357
68989W        W30410  22.074  18.176   0.819
68990W        W30411  36.372  30.538  11.376
68991W        W30412  34.064  11.337  14.472
68992W        W30413  41.496  12.283  11.889
68993W        W30414  43.451  41.302  14.816
68994W        W30415  40.414  28.025  10.454
68995W        W30416  22.636  27.987  12.946
68996W        W30417  18.069  25.069  10.523
68997W        W30418  11.230  42.871   2.392
68998W        W30419  18.556  36.569  12.959
68999W        W30420  17.274  38.401  14.309
69000W        W30421  33.939  23.610  14.026
69001W        W30422   3.387   9.831  10.468
69002W        W30423  43.834  23.549  14.471
69003W        W30424  42.026   2.336  11.542
69004W        W30425  30.488  24.198  11.912
69005W        W30426  14.259  28.603   1.210
69006W        W30427  21.135  31.146   2.315
69007W        W30428  24.199   7.724   3.736
69008W        W30429  23.694   9.310   3.331
69009W        W30430  44.872  28.180   0.859
69010W        W30431  10.217  22.662   1.827
69011W        W30432  18.072   2.252  14.029
69012W        W30433  43.441  25.098   0.957
69013W        W30434  38.922  27.943   4.640
69014W        W30435  22.716   4.700  14.284
69015W        W30436  42.848   0.792  11.602
69016W        W30437   1.307  11.818  11.043
69017W        W30438  44.762  18.618   1.411
69018W        W30439  18.206   2.389  14.291
69019W        W30440   6.707  32.559   4.231
69020W        W30441  42.375  41.532  13.436
69021W        W30442  38.022  24.082  10.999
69022W        W30443  44.505  12.667  12.492
69023W        W30444  28.640  36.012  11.513
69024W        W30445  36.956   5.790   0.344
69025W        W30446  27.990  33.976   4.116
69026W        W30447  33.913  30.515  14.805
69027W        W30448  33.532  12.839  12.364
69028W        W30449  28.177   7.199  10.088
69029W        W30450   9.699  30.443   2.669
69030W        W30451   1.870  30.503  11.586
69031W        W30452  32.130  32.077  12.045
69032W        W30453  19.698  40.324   0.306
69033W        W30454   5.795  20.270  14.506
69034W        W30455  30.977  39.542   1.846
69035W        W30456  40.379  10.173  10.441
69036W        W30457  35.095   1.894   1.213
69037W        W30458  17.248   4.846  12.025
69038W        W30459   7.780  22.540   0.301
69039W        W30460  42.320  13.792  13.808
69040W        W30461  25.544  43.383  12.379
69041W        W30462   2.877   0.779   0.733
69042W        W30463  16.621  15.194   1.293
69043W        W30464  42.827  37.375  12.828
69044W        W30465  39.469   7.395  11.952
69045W        W30466  43.349  15.698  13.872
69046W        W30467   2.876  36.559  13.061
69047W        W30468   3.794  37.066  12.922
69048W        W30469  33.379   2.255  14.924
69049W        W30470  36.593  28.093   2.800
69050W        W30471  38.888  19.740   4.251
69051W        W30472  35.405   7.877   4.222
69052W        W30473  22.563  34.003   3.724
69053W        W30474   5.896  20.708   3.715
69054W        W30475  43.855  43.807   3.831
69055W        W30476  11.276   8.699   1.436
69056W        W30477  34.048   9.155  12.073
69057W        W30478  32.885  26.517   0.926
69058W        W30479  13.617  33.100   3.711
69059W        W30480   7.893  10.873  13.853
69060W        W30481  29.425  22.243   0.909
69061W        W30482  31.446  16.771  12.944
69062W        W30483   2.311  32.613   3.630
69063W        W30484  23.633  11.734   4.117
69064W        W30485  14.333  33.036   3.283
69065W        W30486  38.532  35.885  12.001
69066W        W30487  31.436  34.067   1.397
69067W        W30488  22.573  39.020   2.402
69068W        W30489  20.266  44.496  12.347
69069W        W30490  44.272  42.991  13.443
69070W        W30491  37.541  32.635  10.497
69071W        W30492  40.392  18.719  14.853
69072W        W30493  11.312  27.977  10.412
69073W        W30494  31.056  11.333   1.372
69074W        W30495  18.662  21.607  13.037
69075W        W30496  29.600  17.784   1.448
69076W        W30497  31.131  12.633   1.720
69077W        W30498  44.783   0.889  13.344
69078W        W30499   1.299  11.295   3.657
69079W        W30500  32.428  11.261  13.397
69080W        W30501  36.546  22.175  12.856
69081W        W30502  28.128  38.058   1.883
69082W        W30503  12.324  21.531  13.958
69083W        W30504  44.992   0.351   4.195
69084W        W30505  43.932  34.597   3.786
69085W        W30506  16.706   8.207   2.293
69086W        W30507  23.545  22.633   3.869
69087W        W30508  24.073  28.644   3.165
69088W        W30509  26.960   6.355   0.807
69089W        W30510  44.816  16.625  13.343
69090W        W30511  42.366  25.707  12.361
69091W        W30512  15.774  31.541  10.017
69092W        W30513  35.062  19.772   1.865
69093W        W30514  34.576  16.796  14.350
69094W        W30515  43.355   3.778   1.261
69095W        W30516  22.664   9.734   3.318
69096W        W30517   7.895  14.220   3.714
69097W        W30518  43.327   7.732   2.190
69098W        W30519  44.374  26.687   2.275
69099W        W30520   2.402   8.181  11.476
69100W        W30521  12.645  39.059  12.880
69101W        W30522  13.298  16.107   1.878
69102W        W30523   4.837  39.479  10.892
69103W        W30524  44.308  40.953   5.134
69104W        W30525  37.449  12.275  12.505
69105W        W30526  13.636   5.845   0.749
69106W        W30527  26.024   6.810   0.742
69107W        W30528  19.222  13.708   3.691
69108W        W30529  40.437  15.792   1.901
69109W        W30530  29.580   5.720  10.912
69110W        W30531  16.296  11.776  12.345
69111W        W30532  33.550  39.047   0.361
69112W        W30533  21.553   0.833  13.954
69113W        W30534  19.620  15.188   0.375
69114W        W30535  28.571  35.494   1.853
69115W        W30536  24.987   6.309  11.578
69116W        W30537  14.768   7.416   1.881
69117W        W30538  43.827  33.998   1.365
69118W        W30539  28.674  19.548   1.442
69119W        W30540  42.815  15.291  11.063
69120W        W30541   5.693  15.199   1.362
69121W        W30542  13.787  31.573  13.403
69122W        W30543  42.828   0.247   4.254
69123W        W30544  33.471  29.660   3.221
69124W        W30545  14.285  24.556  11.862
69125W        W30546  19.064  10.241  12.027
69126W        W30547  32.981  37.020  11.535
69127W        W30548  40.818  27.164   2.208
69128W        W30549  35.494  40.892  12.453
69129W        W30550   4.934   3.283  14.884
69130W        W30551  42.873  31.901  13.832
69131W        W30552  15.792   3.340   0.794
69132W        W30553  26.525  24.591   4.807
69133W        W30554  32.062  43.923  14.373
69134W        W30555   4.358  29.920  14.882
69135W        W30556  28.676  42.421   1.219
69136W        W30557   6.793  42.972   4.192
69137W        W30558  37.036  37.371  14.958
69138W        W30559  35.574  10.690   4.157
69139W        W30560  39.938  39.009  10.495
69140W        W30561  42.322  35.928   2.217
69141W        W30562  37.006   8.229  11.534
69142W        W30563  15.784  30.146  10.051
69143W        W30564  28.486  12.847  11.005
69144W        W30565   9.776  39.334  14.897
69145W        W30566  36.864  31.011  10.958
69146W        W30567  35.586  31.916  14.456
69147W        W30568  14.746  33.979  11.128
69148W        W30569  13.726  40.934   2.189
69149W        W30570  15.213  35.411   0.787
69150W        W30571   0.834  31.419  13.832
69151W        W30572  27.497  34.461   1.787
69152W        W30573   0.470  43.455   1.381
69153W        W30574  18.292  21.592  13.030
69154W        W30575  18.195  42.478   2.306
69155W        W30576  12.294  26.033   4.206
69156W        W30577  10.290  26.190   1.705
69157W        W30578  10.811  29.666   0.273
69158W        W30579  37.923   2.786   4.286
69159W        W30580  17.766  17.087  11.970
69160W        W30581  29.433  10.668  13.044
69161W        W30582   0.781   7.374   3.236
69162W        W30583  20.523  10.802  14.895
69163W        W30584  34.458  22.606   1.745
69164W        W30585  13.154  38.897   0.373
69165W        W30586  18.683  38.493  12.027
69166W        W30587  16.092  38.052  12.071
69167W        W30588  17.122   2.398  14.387
69168W        W30589  27.492  40.900  14.352
69169W        W30590  17.278  32.061   0.289
69170W        W30591  43.438  30.010  10.644
69171W        W30592  37.838  10.303   1.822
69172W        W30593  25.190  41.813   3.179
69173W        W30594  41.950  25.128   5.188
69174W        W30595  11.179   6.869   4.728
69175W        W30596  41.351   7.191   2.890
69176W        W30597   6.195   7.273  14.439
69177W        W30598  26.062  30.165  13.542
69178W        W30599  33.409  25.126   2.418
69179W        W30600  29.147  40.411  14.933
69180W        W30601  41.800  38.865  14.887
69181W        W30602  20.166  25.093  13.401
69182W        W30603  17.588  15.723  10.552
69183W        W30604  34.589   7.208  14.330
69184W        W30605  16.174   1.257  12.834
69185W        W30606  21.617  23.736  11.927
69186W        W30607   5.424  26.192   2.340
69187W        W30608  17.153  42.475  13.055
69188W        W30609  33.479  11.861  14.446
69189W        W30610  31.896  44.355  12.084
69190W        W30611  22.130  41.956  12.951
69191W        W30612  40.938   5.799  13.896
69192W        W30613  15.234  16.587  13.483
69193W        W30614  30.106  28.490  10.503
69194W        W30615   0.858  16.249  11.875
69195W        W30616  30.456  34.484  13.897
69196W        W30617   2.418   6.252  11.961
69197W        W30618  29.439  36.945  13.028
69198W        W30619  17.739  35.515   0.918
69199W        W30620  20.696  29.537  12.387
69200W        W30621  36.945  43.977   4.783
69201W        W30622  12.801  40.977   4.836
69202W        W30623  24.224   1.397   4.246
69203W        W30624   2.776   1.863   3.259
69204W        W30625   9.207  18.671   3.377
69205W        W30626  17.706  29.537   1.304
69206W        W30627  36.516  36.067   2.766
69207W        W30628  39.899  20.712  14.409
69208W        W30629  19.649  33.066  13.425
69209W        W30630   1.400  21.188  11.590
69210W        W30631  25.700  44.822  11.539
69211W        W30632   2.366   3.270  13.873
69212W        W30633  20.675  14.294  12.987
69213W        W30634  24.622  31.620  13.371
69214W        W30635  24.981  14.116  12.380
69215W        W30636   5.437   6.870   0.886
69216W        W30637   7.691  41.881  13.312
69217W        W30638  16.624  30.083  12.511
69218W        W30639   4.291   3.354   0.261
69219W        W30640   8.738   3.352   2.199
69220W        W30641  35.021   9.784   2.372
69221W        W30642  32.401  25.656  14.498
69222W        W30643  14.719  23.151   3.311
69223W        W30644   8.671  11.311   3.790
69224W        W30645  38.043   6.202  13.971
69225W        W30646  41.321  39.439   0.406
69226W        W30647  10.874   5.841   4.802
69227W        W30648  14.716  18.782  11.511
69228W        W30649  36.861   7.338  10.625
69229W        W30650  23.655  33.077  12.980
69230W        W30651  32.604  42.429   3.828
69231W        W30652  25.098  10.267   1.252
69232W        W30653  35.907  27.194   3.152
69233W        W30654  14.600  34.879   3.859
69234W        W30655  28.524  16.167  13.802
69235W        W30656  28.162  38.555   3.767
69236W        W30657  40.529  35.015   5.089
69237W        W30658   3.307  44.894  14.323
69238W        W30659  44.007  28.067   1.263
69239W        W30660  40.800  35.078  11.510
69240W        W30661   7.328  11.659  13.912
69241W        W30662  38.870  30.047  13.355
69242W        W30663  31.072  36.994   0.272
69243W        W30664  32.958  20.035   3.658
69244W        W30665   0.802  12.808  11.479
69245W        W30666  39.998  16.197  13.326
69246W        W30667   2.755  18.566   0.274
69247W        W30668  23.569  16.637  13.876
69248W        W30669  26.490  11.713  11.057
69249W        W30670   0.794   0.813   3.347
69250W        W30671  24.538  30.095  12.033
69251W        W30672   4.404  43.911  12.084
69252W        W30673  40.826  25.037  12.421
69253W        W30674  20.181  24.165  10.526
69254W        W30675  17.169  36.491   2.319
69255W        W30676   6.381   9.194   1.874
69256W        W30677  29.045  42.412  11.087
69257W        W30678   1.440  23.525   2.230
69258W        W30679  12.820  33.420   4.164
69259W        W30680  44.990  41.325   4.789
69260W        W30681   0.756  26.498  10.417
69261W        W30682  41.016   7.874   0.952
69262W        W30683  36.542  36.863  13.476
69263W        W30684  40.334  31.556  11.536
69264W        W30685   5.792  30.512  14.798
69265W        W30686   6.411   9.179  14.932
69266W        W30687   5.275  26.627   4.612
69267W        W30688  22.047  17.171   0.307
69268W        W30689  39.948  39.385  14.458
69269W        W30690  21.591   7.198  13.397
69270W        W30691   0.450   6.815  14.803
69271W        W30692  14.766  22.146   3.857
69272W        W30693  43.389  20.147   4.647
69273W        W30694  33.977   4.934   1.843
69274W        W30695   2.267  35.590   2.235
69275W        W30696   8.687  31.586   2.763
69276W        W30697  17.732  23.536  14.492
69277W        W30698  32.482  28.057  13.430
69278W        W30699  22.619  15.683   3.241
69279W        W30700  30.605   7.219  14.468
69280W        W30701  38.362   0.409  13.972
69281W        W30702   7.324   8.690   0.352
69282W        W30703  44.313  32.443  12.356
69283W        W30704  34.585  24.650   0.835
69284W        W30705  28.140  31.590  13.007
69285W        W30706  19.134   7.909  13.311
69286W        W30707  31.450  20.660   3.178
69287W        W30708   5.929   8.345   3.293
69288W        W30709  31.455  44.312  11.375
69289W        W30710  23.674   0.895   3.313
69290W        W30711  19.101  20.184   1.825
69291W        W30712  29.593  28.971   1.817
69292W        W30713  35.521   6.892  12.570
69293W        W30714  37.920  30.062  10.473
69294W        W30715  28.505  26.456  10.493
69295W        W30716  27.462  21.614   1.706
69296W        W30717  40.895  21.149   0.910
69297W        W30718  25.084  23.141  12.073
69298W        W30719  22.108  19.666   0.432
69299W        W30720   9.321  39.054   0.732
69300W        W30721  13.298   1.811  11.522
69301W        W30722  19.770  44.874   2.260
69302W        W30723  29.080  40.509  10.488
69303W        W30724  32.098  40.804   3.769
69304W        W30725  38.503   7.283  13.472
69305W        W30726  26.042  13.219  12.520
69306W        W30727  21.076  36.976   2.765
69307W        W30728  42.508   2.757   4.798
69308W        W30729  36.906  27.162   1.360
69309W        W30730  43.934   4.897  12.006
69310W        W30731  41.863  38.906   4.707
69311W        W30732   0.945  27.013   1.374
69312W        W30733   3.949   9.216  11.474
69313W        W30734   5.362  29.076  13.884
69314W        W30735   5.694  19.574   0.752
69315W        W30736  39.560  39.344   0.408
69316W        W30737   4.226  40.438   3.680
69317W        W30738  34.966  28.008   1.933
69318W        W30739  38.863  39.528  12.830
69319W        W30740  12.358   1.444  14.440
69320W        W30741  35.434  32.479   3.675
69321W        W30742  32.429  12.856  12.457
69322W        W30743   8.679  30.455  11.387
69323W        W30744  16.784   4.741   3.859
69324W        W30745   8.896   7.326  13.403
69325W        W30746   7.314  20.643  13.446
69326W        W30747  30.079  18.237   4.774
69327W        W30748   6.197  33.389  14.971
69328W        W30749   8.243   6.762  14.859
69329W        W30750  24.491  31.009  14.417
69330W        W30751  27.139  27.528   1.449
69331W        W30752   1.465  17.572  13.468
69332W        W30753  18.615  25.005   2.293
69333W        W30754  35.550  43.289   1.855
69334W        W30755   4.717  38.931   2.283
69335W        W30756  29.174  34.055  11.037
69336W        W30757  20.590   6.275  13.801
69337W        W30758  20.663  16.776  14.291
69338W        W30759  42.341  22.152   2.382
69339W        W30760  21.719  12.673  12.399
69340W        W30761  36.526  17.092  13.791
69341W        W30762  39.427  18.766  11.074
69342W        W30763  43.862  13.199   3.815
69343W        W30764  10.184  25.161  13.864
69344W        W30765  14.588  37.835  11.942
69345W        W30766   4.914  32.529  11.403
69346W        W30767  15.221  21.080  12.048
69347W        W30768   2.885  32.062   3.773
69348W        W30769  43.314  34.598  11.577
69349W        W30770  20.582  24.658   4.813
69350W        W30771   9.793   5.281   3.685
69351W        W30772  26.661  10.315   2.799
69352W        W30773  39.888  32.973   3.160
69353W        W30774   8.793  16.085   0.888
69354W        W30775   7.196  44.482  11.519
69355W        W30776  10.325  13.642   0.296
69356W        W30777  42.421  23.004   2.685
69357W        W30778  23.200  17.278   1.371
69358W        W30779  19.544  29.138   2.728
69359W        W30780  11.270   2.434  12.012
69360W        W30781  12.690  36.413   4.150
69361W        W30782  19.069  22.736   2.306
69362W        W30783   0.286  21.648   2.735
69363W        W30784  19.042  28.063   1.407
69364W        W30785  36.401  15.094  13.533
69365W        W30786  18.648  39.395  10.634
69366W        W30787  15.700  43.320   4.235
69367W        W30788  36.452  10.823   0.889
69368W        W30789   6.276   4.446  11.031
69369W        W30790  26.486  39.851  13.510
69370W        W30791  44.335  22.623   3.710
69371W        W30792  31.108  28.941   9.954
69372W        W30793  18.089  34.393  14.778
69373W        W30794  18.617  37.893   2.234
69374W        W30795  33.435   8.660  12.961
69375W        W30796  17.666  29.935   3.359
69376W        W30797  26.028  17.099   4.208
69377W        W30798   9.188  44.905   0.342
69378W        W30799  17.146  40.441  14.856
69379W        W30800  39.351   5.806   3.287
69380W        W30801  28.507  43.414  11.438
69381W        W30802  39.011  34.040   4.207
69382W        W30803  13.147  13.333  13.866
69383W        W30804   7.799  22.227   3.290
69384W        W30805  13.227   7.278   5.093
69385W        W30806  21.190  19.247   3.647
69386W        W30807  42.007  44.354  11.488
69387W        W30808   3.268   6.752   0.924
69388W        W30809  14.227  10.188   0.285
69389W        W30810  23.590  23.606  13.944
69390W        W30811  30.589  17.782  11.971
69391W        W30812   4.449  22.622  10.559
69392W        W30813  27.671  30.150   2.367
69393W        W30814  24.526  30.624  13.541
69394W        W30815  20.094  38.952  10.434
69395W        W30816  11.132  17.236   2.363
69396W        W30817  22.719  30.448  12.953
69397W        W30818  19.636  34.101   2.860
69398W        W30819   2.892  34.456   1.271
69399W        W30820  26.078  35.951   3.380
69400W        W30821   4.857  38.497  13.947
69401W        W30822  30.024   8.226  11.004
69402W        W30823  16.240  23.144   2.811
69403W        W30824  11.678   0.957   2.774
69404W        W30825  26.506  29.005   0.332
69405W        W30826  35.968  18.554   2.867
69406W        W30827  40.431   7.298   1.860
69407W        W30828   1.351  12.671   0.852
69408W        W30829  16.775  21.682  13.357
69409W        W30830  26.006  26.106   3.148
69410W        W30831  27.481  34.019  14.396
69411W        W30832  15.619  14.691  12.080
69412W        W30833  28.099  32.979  13.026
69413W        W30834  37.005  22.568  11.566
69414W        W30835  15.587  41.923   4.646
69415W        W30836  30.959  16.733   1.376
69416W        W30837  39.987   9.368   0.914
69417W        W30838   7.881   1.755  12.341
69418W        W30839  11.861   0.251  10.532
69419W        W30840  20.258   2.844  11.033
69420W        W30841   3.787  15.732   4.620
69421W        W30842  25.680  15.823   0.249
69422W        W30843  41.492  43.274  11.998
69423W        W30844  29.093  38.493  14.310
69424W        W30845  23.054  14.244  13.912
69425W        W30846  27.623  30.513   0.851
69426W        W30847   3.379   6.685   2.838
69427W        W30848  20.054  28.096   1.412
69428W        W30849   1.248  10.138   0.818
69429W        W30850  43.390  38.823  13.442
69430W        W30851  12.312  15.120   3.848
69431W        W30852  13.798  24.031   2.774
69432W        W30853  36.061  17.767   0.938
69433W        W30854  14.205  16.073  14.882
69434W        W30855  31.505  23.561   2.189
69435W        W30856   0.318  37.837  14.320
69436W        W30857  42.000  23.081   0.281
69437W        W30858  28.472  22.620  11.953
69438W        W30859  26.698  44.937  12.371
69439W        W30860  29.567   5.810   2.756
69440W        W30861  41.893  13.194   5.285
69441W        W30862  38.337  44.489   4.250
69442W        W30863  16.203   9.163   0.311
69443W        W30864  12.276  41.359   3.318
69444W        W30865  36.468  42.510   1.222
69445W        W30866  29.079   9.209  12.448
69446W        W30867  30.423  13.265   3.637
69447W        W30868   9.764  22.618  10.971
69448W        W30869  31.645  38.432   2.824
69449W        W30870  17.251  35.990   4.779
69450W        W30871  21.257  19.122   4.614
69451W        W30872   6.814   4.417  12.888
69452W        W30873  26.697  26.663  10.549
69453W        W30874  30.052  31.150  10.961
69454W        W30875  43.362  42.898   3.821
69455W        W30876  14.670  27.578  14.866
69456W        W30877   4.255   3.926   5.263
69457W        W30878  23.549  31.098  11.901
69458W        W30879  29.991   7.379   4.297
69459W        W30880   6.697  19.621  10.920
69460W        W30881  28.991   1.773  11.513
69461W        W30882   6.374  24.211  13.970
69462W        W30883  31.563  44.824   3.175
69463W        W30884  16.578  40.888   2.377
69464W        W30885  16.227  44.797  14.824
69465W        W30886  23.532   8.191   3.365
69466W        W30887  44.984  21.567   0.920
69467W        W30888  24.092  43.425   2.799
69468W        W30889  30.461  44.905  12.031
69469W        W30890  27.543  11.230  10.046
69470W        W30891  38.385   7.814  11.539
69471W        W30892  17.148  25.081  14.470
69472W        W30893  42.786  37.572   2.836
69473W        W30894  34.503  11.792   1.428
69474W        W30895   0.263   9.266  14.388
69475W        W30896  36.869  22.613   4.146
69476W        W30897  39.854  43.497  13.921
69477W        W30898  12.840  42.476   1.230
69478W        W30899  37.391  42.880   1.411
69479W        W30900   3.278  37.070   2.315
69480W        W30901  20.273  34.374   0.418
69481W        W30902  25.093  29.446  13.335
69482W        W30903  20.735  33.012   3.648
69483W        W30904  20.063  21.216  12.426
69484W        W30905  26.618  42.456  10.989
69485W        W30906   9.677   1.480   4.673
69486W        W30907  34.021  18.207   2.880
69487W        W30908  13.623  19.127  11.522
69488W        W30909   6.886  39.026   1.288
69489W        W30910  42.825  24.105   0.409
69490W        W30911   7.283  32.009   1.414
69491W        W30912  33.984   5.850   0.455
69492W        W30913  16.208  39.497  12.444
69493W        W30914  33.536  22.556  13.797
69494W        W30915  38.471  35.106   0.846
69495W        W30916  35.059  10.650  14.482
69496W        W30917  32.115  27.612   3.338
69497W        W30918  34.891   7.200  11.031
69498W        W30919   4.913  29.432   3.375
69499W        W30920   8.308  24.223   1.419
69500W        W30921  40.949  15.678  11.563
69501W        W30922  11.152  38.333   5.798
69502W        W30923  35.961   7.391  10.433
69503W        W30924  42.416  40.496   0.326
69504W        W30925   2.944  19.633  12.422
69505W        W30926   4.747  26.148  14.461
69506W        W30927  39.040  12.715  13.846
69507W        W30928  40.444  18.730  11.992
69508W        W30929   0.459  38.046  11.404
69509W        W30930   0.801  25.194  10.909
69510W        W30931  20.715  42.969   0.260
69511W        W30932   4.803  14.653   3.814
69512W        W30933  21.200  29.140  12.944
69513W        W30934  43.505  28.963  13.327
69514W        W30935   2.841   6.279   2.850
69515W        W30936  14.754   8.169   0.852
69516W        W30937  25.589  35.859  14.908
69517W        W30938  15.789  24.485  14.918
69518W        W30939  30.950  41.852  10.625
69519W        W30940   6.864   6.829   2.252
69520W        W30941  10.819  34.397  10.995
69521W        W30942  28.502   9.757  13.008
69522W        W30943  35.990  39.326   2.396
69523W        W30944  43.875  29.944  14.025
69524W        W30945  27.083  36.497   1.285
69525W        W30946  28.113  24.616  11.387
69526W        W30947   9.302  30.933  10.513
69527W        W30948  21.227  41.826   1.302
69528W        W30949  44.870  44.278   2.262
69529W        W30950  14.809  26.563   3.863
69530W        W30951  42.028  11.829  14.392
69531W        W30952  42.938   9.770   2.732
69532W        W30953  37.021  24.025  14.465
69533W        W30954  43.280  25.702   1.922
69534W        W30955  34.066  32.952   1.305
69535W        W30956  20.195  13.222   1.757
69536W        W30957  42.023  40.549   4.180
69537W        W30958  30.083   2.798  13.534
69538W        W30959  32.415  10.781  10.581
69539W        W30960  15.082  13.690  10.573
69540W        W30961  22.641   4.891   2.851
69541W        W30962  16.783  13.687   4.717
69542W        W30963  38.856   8.774   0.319
69543W        W30964  35.923   9.684  13.015
69544W        W30965  44.777  39.866   0.313
69545W        W30966  35.601  44.457  14.422
69546W        W30967  14.201  43.346  12.964
69547W        W30968  31.628  40.028  11.893
69548W        W30969   2.910  29.060  13.463
69549W        W30970  11.701  35.536   4.220
69550W        W30971  44.830   2.429   0.887
69551W        W30972   5.829  35.588   3.771
69552W        W30973  18.668  39.532   3.696
69553W        W30974   8.184  25.702  13.482
69554W        W30975   5.907  38.556   4.626
69555W        W30976   5.918   7.687   0.860
69556W        W30977  32.060   2.878  12.454
69557W        W30978  12.719  15.710   1.299
69558W        W30979   4.912  15.307  14.309
69559W        W30980  23.551   8.812  14.339
69560W        W30981  16.765  17.218  12.468
69561W        W30982  38.054   8.831   4.116
69562W        W30983  27.006  42.506   1.741
69563W        W30984  20.184  38.966  12.343
69564W        W30985  31.444  31.976  14.969
69565W        W30986  14.156  27.475  12.560
69566W        W30987  25.636  27.474   0.925
69567W        W30988   8.658  37.057   0.336
69568W        W30989  15.609  12.340   4.285
69569W        W30990  32.537  26.550  10.560
69570W        W30991  34.076   1.832   1.870
69571W        W30992  32.108   4.856   1.788
69572W        W30993  35.426  27.978  10.536
69573W        W30994  25.687  22.685   1.429
69574W        W30995  39.377  10.223  13.999
69575W        W30996  30.132   9.815   0.350
69576W        W30997  16.598  34.002  10.417
69577W        W30998  13.168   6.380  14.417
69578W        W30999  17.740   6.841   3.686
69579W        W31000  32.545  25.588  11.859
69580W        W31001  30.058  21.607  14.866
69581W        W31002  32.118   0.325   4.266
69582W        W31003  39.508  21.659   1.924
69583W        W31004  33.976  29.036  12.433
69584W        W31005  39.513  25.003   0.385
69585W        W31006  23.065  15.150  12.994
69586W        W31007  44.448   7.314   3.635
69587W        W31008   7.313  34.943   4.276
69588W        W31009  39.023  38.973  11.486
69589W        W31010  22.617  27.579  12.900
69590W        W31011   1.905   8.314  13.835
69591W        W31012  30.588  39.877  13.001
69592W        W31013   9.873  39.516   2.235
69593W        W31014   2.277  38.840  10.942
69594W        W31015   3.295  23.614  14.405
69595W        W31016  33.054  38.437  14.946
69596W        W31017  12.783   6.783  12.004
69597W        W31018  17.765  20.225   4.279
69598W        W31019   9.324  27.512  11.947
69599W        W31020  11.641   5.704   0.450
69600W        W31021   9.808   2.261   1.859
69601W        W31022  29.052  12.799  11.522
69602W        W31023   8.303  22.563   0.734
69603W        W31024  21.208  41.360  10.966
69604W        W31025  19.234  16.073   3.694
69605W        W31026   3.250  33.455  13.467
69606W        W31027   4.738  12.315   4.786
69607W        W31028  24.723  22.059  14.980
69608W        W31029  24.156  14.813   1.703
69609W        W31030  33.007  26.039  10.567
69610W        W31031  29.555  41.427  10.540
69611W        W31032  26.522  41.440  10.419
69612W        W31033  17.147  28.487   3.839
69613W        W31034  11.757  41.532  10.962
69614W        W31035   1.368  15.123   1.419
69615W        W31036  19.771  34.368  12.824
69616W        W31037  11.269  26.186  13.339
69617W        W31038  13.665  42.999   4.342
69618W        W31039  34.481   8.895   4.145
69619W        W31040  37.980  29.019   0.920
69620W        W31041  27.147   4.445   2.778
69621W        W31042  13.644   2.912   4.151
69622W        W31043  10.765  38.032   1.325
69623W        W31044  15.139  36.964   2.784
69624W        W31045  35.421  41.847  13.864
69625W        W31046   5.290  15.238  12.493
69626W        W31047  28.452  26.002  11.463
69627W        W31048  30.106  44.282   1.298
69628W        W31049  15.103   4.216   1.717
69629W        W31050  12.252  28.625   2.279
69630W        W31051   1.841  29.996  13.841
69631W        W31052  32.429   9.361   1.315
69632W        W31053  15.221  10.250  14.297
69633W        W31054  19.222  41.929  11.555
69634W        W31055  10.856  27.972  11.608
69635W        W31056  31.133  16.759  14.495
69636W        W31057  16.227   9.706  12.496
69637W        W31058   3.841  29.616   2.731
69638W        W31059  31.587  38.884   3.775
69639W        W31060  32.410  23.002  10.907
69640W        W31061  18.227   0.840   0.869
69641W        W31062  19.134  10.339   1.934
69642W        W31063   8.736  16.746   3.316
69643W        W31064  14.729  19.082  13.471
69644W        W31065  36.578   5.892   2.198
69645W        W31066  28.436  18.674   3.222
69646W        W31067  10.261  20.551   4.808
69647W        W31068  38.933   8.270   0.889
69648W        W31069  39.980   3.852  11.930
69649W        W31070  42.506  35.057  11.021
69650W        W31071  16.289  41.788  10.956
69651W        W31072  22.613  24.200  10.953
69652W        W31073  13.691  37.494  14.819
69653W        W31074   0.252  31.024  13.895
69654W        W31075  17.070  43.908   3.784
69655W        W31076  18.631   6.683  10.532
69656W        W31077  22.185  16.735   2.405
69657W        W31078  31.523   4.706   0.315
69658W        W31079  30.032  19.584   2.879
69659W        W31080  13.683  19.739  13.864
69660W        W31081  35.572  24.040  10.527
69661W        W31082  13.752  43.813   3.314
69662W        W31083  26.653  34.057  14.308
69663W        W31084  41.490   7.406   4.306
69664W        W31085   3.716  16.591  12.538
69665W        W31086   5.890  37.079   0.965
69666W        W31087  18.125  21.093  12.409
69667W        W31088  41.927  14.652  10.404
69668W        W31089  32.112  14.738   3.806
69669W        W31090  42.862   6.257  15.000
69670W        W31091  20.178  31.964  11.401
69671W        W31092  32.930  14.631   2.673
69672W        W31093  11.842  27.079   4.703
69673W        W31094  14.340   0.380   0.780
69674W        W31095   9.721  38.427  14.856
69675W        W31096   0.815   9.685  14.848
69676W        W31097  28.156  11.814  13.941
69677W        W31098  10.656  14.645  11.873
69678W        W31099  14.762  13.143   4.183
69679W        W31100  14.112   6.312  13.970
69680W        W31101  22.107  15.748  10.549
69681W        W31102   0.747  43.372  10.900
69682W        W31103  38.562   1.756   4.256
69683W        W31104  16.680   1.276  11.067
69684W        W31105  22.522  29.536  11.991
69685W        W31106  13.268  28.055   2.344
69686W        W31107   6.799   1.309  13.356
69687W        W31108   5.229  41.344  11.930
69688W        W31109   0.460  38.417  10.618
69689W        W31110  33.108   2.397  12.936
69690W        W31111   3.728  24.135  11.991
69691W        W31112  35.531  42.978  12.479
69692W        W31113  16.293   1.482   1.931
69693W        W31114   9.207  10.780   3.749
69694W        W31115  23.630  27.941   4.789
69695W        W31116  18.593  23.216  14.783
69696W        W31117  27.613  12.625  14.435
69697W        W31118  21.687  32.526   0.407
69698W        W31119   4.305   3.247   3.252
69699W        W31120  20.194  32.009   4.723
69700W        W31121  22.178   4.704  14.419
69701W        W31122  38.514  29.036   1.286
69702W        W31123   0.948   8.884   4.651
69703W        W31124  27.545  41.039   4.237
69704W        W31125  42.347   1.781  11.093
69705W        W31126  36.530  25.476   3.157
69706W        W31127  34.562  30.133   1.445
69707W        W31128  44.449  19.056   0.404
69708W        W31129   9.282  39.380  12.424
69709W        W31130   8.177  32.545   1.788
69710W        W31131  43.425  16.808  11.884
69711W        W31132  18.185   9.809  13.534
69712W        W31133  20.620   5.328  11.569
69713W        W31134  15.312  34.027  13.326
69714W        W31135  25.200   0.356   0.254
69715W        W31136   8.322  17.747   0.770
69716W        W31137  19.043  25.649   3.235
69717W        W31138   5.797  15.166  12.401
69718W        W31139  44.473  42.385  14.008
69719W        W31140   7.691  42.917   3.288
69720W        W31141  11.857  12.662  12.869
69721W        W31142  20.056  34.909   0.749
69722W        W31143  32.000  33.093   4.271
69723W        W31144  39.397  36.374   1.696
69724W        W31145  44.278  37.549  10.029
69725W        W31146  40.829   5.334  13.349
69726W        W31147   4.426   6.886  12.840
69727W        W31148  41.829   5.844   3.753
69728W        W31149   4.396  13.305  10.585
69729W        W31150  39.445   1.754  13.361
69730W        W31151  23.086  24.592  12.949
69731W        W31152  37.463  17.739   3.857
69732W        W31153  42.020   3.402  11.884
69733W        W31154  11.329  18.187   3.714
69734W        W31155   4.940   5.247   5.121
69735W        W31156  22.142  33.501   2.744
69736W        W31157  11.767  29.136  11.398
69737W        W31158  33.435  10.833   4.656
69738W        W31159   3.367  13.629   4.115
69739W        W31160  39.480  25.097  12.946
69740W        W31161  39.450  41.954   2.227
69741W        W31162  18.232  30.148  10.511
69742W        W31163  41.965   2.465  10.540
69743W        W31164  19.709  33.571   3.856
69744W        W31165  18.133   6.822   0.350
69745W        W31166  35.089   1.255   1.742
69746W        W31167  26.573  25.200  12.525
69747W        W31168   5.817  31.146   0.446
69748W        W31169   1.896  37.832   4.262
69749W        W31170  19.208   7.334   0.922
69750W        W31171  21.688   1.819  10.573
69751W        W31172  38.465  20.556  10.530
69752W        W31173  18.766  14.649   3.845
69753W        W31174   3.900  18.141   1.827
69754W        W31175  10.377  39.506  14.311
69755W        W31176  34.588  32.024  11.091
69756W        W31177  19.098  21.534  14.830
69757W        W31178  27.466  22.503   4.125
69758W        W31179   3.457  10.847   2.842
69759W        W31180  11.640  20.168   3.861
69760W        W31181   4.738   4.329   9.969
69761W        W31182  33.431  34.512  13.970
69762W        W31183   6.297  35.938  13.970
69763W        W31184  36.006  21.189  13.793
69764W        W31185  13.225  15.699  10.054
69765W        W31186  26.133  43.855   2.199
69766W        W31187   9.764   6.914   2.294
69767W        W31188  24.623  21.637   0.875
69768W        W31189  38.050  43.414   3.353
69769W        W31190  34.088  27.164   1.292
69770W        W31191  31.631  29.989  10.611
69771W        W31192  27.473   4.264   4.818
69772W        W31193  30.558  10.216  13.029
69773W        W31194  19.254  33.876   2.394
69774W        W31195  24.128  44.281   3.159
69775W        W31196   5.212  30.598  12.997
69776W        W31197   8.358  11.355  12.056
69777W        W31198  35.861  31.905  12.965
69778W        W31199   3.323  14.117   4.125
69779W        W31200  41.302  17.119   3.815
69780W        W31201  13.161  19.626   3.807
69781W        W31202  44.342  17.277  11.071
69782W        W31203  19.656  37.930   4.808
69783W        W31204  42.402  39.987   4.817
69784W        W31205   8.202  28.985  14.006
69785W        W31206  35.478  15.746  14.001
69786W        W31207   2.955  13.216   3.208
69787W        W31208  26.513  31.460   1.894
69788W        W31209   4.701  28.144   2.205
69789W        W31210  19.063  42.435  11.375
69790W        W31211  41.896  10.748  10.598
69791W        W31212  12.251  21.605  11.114
69792W        W31213  41.457  35.599   3.642
69793W        W31214  15.681   0.377   3.237
69794W        W31215  44.335  30.009   3.233
69795W        W31216  12.212  43.303  10.436
69796W        W31217  34.545  24.698   4.146
69797W        W31218  39.041  25.968  13.058
69798W        W31219  25.184   3.235   2.256
69799W        W31220  44.870  11.372   1.731
69800W        W31221  32.136   0.833  13.309
69801W        W31222  21.617  25.571  14.972
69802W        W31223  16.141   1.936   0.458
69803W        W31224  20.616  13.157  11.111
69804W        W31225  10.839   6.338  12.027
69805W        W31226  43.926  16.764   4.745
69806W        W31227  10.839  28.938  12.856
69807W        W31228  31.461  20.743  13.810
69808W        W31229  21.591  17.108   4.738
69809W        W31230  43.783  28.548   1.418
69810W        W31231  26.082   6.793  14.983
69811W        W31232   8.847   7.878  11.962
69812W        W31233   8.706  20.525  11.375
69813W        W31234  39.941   1.480  12.014
69814W        W31235  31.430  37.008   0.899
69815W        W31236  39.459  39.944   2.725
69816W        W31237  15.590  29.461   4.752
69817W        W31238  11.155  41.468   1.738
69818W        W31239  21.017  33.471  13.522
69819W        W31240  14.332  22.555   2.845
69820W        W31241  16.124  13.647   0.482
69821W        W31242  15.782  26.152   1.332
69822W        W31243   1.734  39.982   1.446
69823W        W31244  23.710  44.431   1.774
69824W        W31245  25.069  33.592  14.937
69825W        W31246  11.260  36.005   4.699
69826W        W31247  34.983  19.551  13.814
69827W        W31248  20.104   6.908  10.021
69828W        W31249   1.309   3.800   3.633
69829W        W31250  22.125  28.617  13.982
69830W        W31251  41.975  29.995   2.214
69831W        W31252  29.965  15.120   2.280
69832W        W31253  39.365  36.417  12.889
69833W        W31254  33.881  28.101  10.484
69834W        W31255  30.617  15.329   0.737
69835W        W31256  30.159   2.915   3.719
69836W        W31257  27.075  28.009  12.349
69837W        W31258  38.374   7.309   4.813
69838W        W31259  37.025  44.002   4.290
69839W        W31260  39.322   0.282  11.426
69840W        W31261  35.031  13.639  12.399
69841W        W31262   5.769   1.831  13.840
69842W        W31263  16.189  26.681   2.323
69843W        W31264  11.338  11.713   0.430
69844W        W31265   3.722  36.517   2.201
69845W        W31266  24.167  16.181   0.275
69846W        W31267  21.563  35.967   2.273
69847W        W31268   4.439  21.606  14.316
69848W        W31269  21.053  23.729  11.022
69849W        W31270   5.883  11.799   1.263
69850W        W31271  13.771  31.081  13.874
69851W        W31272  38.000  35.537   1.434
69852W        W31273  19.593  25.646   0.460
69853W        W31274   3.900   5.781   3.354
69854W        W31275   1.780   2.275   0.923
69855W        W31276  14.305  10.818  13.884
69856W        W31277  40.049  22.654  12.898
69857W        W31278  37.834   5.285   3.862
69858W        W31279   4.330  40.966   0.889
69859W        W31280  24.217  10.376  10.085
69860W        W31281   1.824  34.476   0.257
69861W        W31282   7.235  14.098  12.032
69862W        W31283  40.442  17.265  14.829
69863W        W31284   0.308  32.925  11.494
69864W        W31285  24.028  13.838   1.881
69865W        W31286  35.921  15.776  10.636
69866W        W31287   0.339  16.212   0.264
69867W        W31288  32.976   2.956  14.397
69868W        W31289  23.192  35.438  11.905
69869W        W31290  39.946  26.699   2.875
69870W        W31291  17.752  41.501   0.291
69871W        W31292  32.490  41.979  12.484
69872W        W31293  17.088  40.839  14.328
69873W        W31294  14.110  42.287   2.900
69874W        W31295  30.157  11.780   9.576
69875W        W31296  26.692   2.816  13.048
69876W        W31297  33.553  33.446  13.962
69877W        W31298  33.942   1.289  14.504
69878W        W31299  11.366   2.385  13.484
69879W        W31300  18.220   8.818  10.582
69880W        W31301  42.961   0.813   0.817
69881W        W31302  16.682  31.999   2.295
69882W        W31303  41.427  20.725  13.880
69883W        W31304  43.946  26.122  12.976
69884W        W31305  19.766  33.558   2.818
69885W        W31306   9.772  36.972   2.879
69886W        W31307  34.482  41.817   1.247
69887W        W31308  27.542  10.718   2.826
69888W        W31309   6.217  29.558   3.155
69889W        W31310  23.659   2.801   4.293
69890W        W31311   1.253  28.957  12.845
69891W        W31312   3.235  23.096  12.869
69892W        W31313   2.412  31.091  13.454
69893W        W31314  35.972  28.055  11.917
69894W        W31315   0.803  43.513  14.979
69895W        W31316  16.275   1.266  12.408
69896W        W31317   7.698  32.141  11.859
69897W        W31318  35.404  30.919  10.470
69898W        W31319  39.032   7.388  11.900
69899W        W31320  25.634  41.315  10.089
69900W        W31321  40.828  16.685  10.993
69901W        W31322  23.490  41.944  13.491
69902W        W31323   0.878  22.176   4.141
69903W        W31324  25.563   2.457  13.899
69904W        W31325  10.856  25.478  12.063
69905W        W31326  14.662  19.212   4.269
69906W        W31327  36.514   3.443   5.168
69907W        W31328  37.839   8.732   4.665
69908W        W31329  13.682  26.160   1.407
69909W        W31330  29.501  34.398   4.692
69910W        W31331  18.627  13.665   1.221
69911W        W31332  18.627  40.409  13.541
69912W        W31333  20.642   4.411   2.759
69913W        W31334  28.988  24.678   1.859
69914W        W31335   1.355  29.031   3.297
69915W        W31336  36.394  27.588   2.805
69916W        W31337   0.925  22.021  11.113
69917W        W31338  14.816  43.891   2.766
69918W        W31339  34.437  14.664   3.870
69919W        W31340  12.666  11.202   1.390
69920W        W31341  23.558  12.715   1.842
69921W        W31342  41.977  42.410   1.922
69922W        W31343  20.128   0.810  13.930
69923W        W31344  35.572   4.324   1.221
69924W        W31345  11.278   4.804   0.922
69925W        W31346   6.276  18.733   4.277
69926W        W31347   6.737  34.016   1.215
69927W        W31348  29.952  18.559   4.313
69928W        W31349   0.906   1.975   0.282
69929W        W31350   1.439  23.707  14.314
69930W        W31351  30.053  41.478  13.818
69931W        W31352  11.234  20.181   0.906
69932W        W31353  17.717  24.116  10.613
69933W        W31354  21.758  14.159  10.514
69934W        W31355  20.275  23.531  13.901
69935W        W31356  15.582  12.768  14.792
69936W        W31357  36.885  30.585   0.756
69937W        W31358   9.705  29.149   0.868
69938W        W31359  38.516   4.312   3.750
69939W        W31360  22.056   0.288  11.545
69940W        W31361   0.300  42.802   2.374
69941W        W31362  35.864   3.778  11.439
69942W        W31363  36.900  33.503  11.114
69943W        W31364  27.598  20.116   1.309
69944W        W31365  42.293  34.049   0.942
69945W        W31366  28.164  21.718  11.384
69946W        W31367  22.087   2.439   3.285
69947W        W31368   5.829  19.662  10.526
69948W        W31369  35.921  38.019   4.644
69949W        W31370  39.356  12.647   0.344
69950W        W31371  26.071  12.341   1.436
69951W        W31372  32.543  40.333   2.842
69952W        W31373  22.721   5.419   0.835
69953W        W31374  31.538  40.038  13.436
69954W        W31375   3.935   0.482   2.898
69955W        W31376  38.964   9.253   4.165
69956W        W31377  29.110   8.763  12.400
69957W        W31378   7.850  40.820  14.429
69958W        W31379  19.187  12.724   3.274
69959W        W31380  20.163  21.238   3.670
69960W        W31381  30.588   7.229   3.305
69961W        W31382   7.704  38.421  13.377
69962W        W31383  33.949  15.257   3.711
69963W        W31384  44.804   7.250   2.230
69964W        W31385  30.595   0.334   4.276
69965W        W31386  28.165   6.919  12.350
69966W        W31387   6.419  17.577   2.269
69967W        W31388  11.708   3.282   9.959
69968W        W31389  38.366  22.207  12.889
69969W        W31390  17.061   6.883   0.373
69970W        W31391  24.645  37.964   3.328
69971W        W31392   0.821  38.035   3.781
69972W        W31393   8.814  40.509   4.607
69973W        W31394  23.702  33.625  12.931
69974W        W31395  40.828  25.662  14.885
69975W        W31396  25.038  28.668  12.824
69976W        W31397  23.567   7.774  13.996
69977W        W31398  17.685   4.386  14.280
69978W        W31399  31.637  21.177  14.412
69979W        W31400  16.240  27.582  14.891
69980W        W31401  30.539   9.266   4.230
69981W        W31402   9.171   1.937  14.969
69982W        W31403  14.295   4.273   2.662
69983W        W31404   0.828  12.268   1.363
69984W        W31405  39.346  13.838  13.464
69985W        W31406  29.060  24.058  12.393
69986W        W31407  33.524   1.449   5.677
69987W        W31408  39.969  19.665   1.807
69988W        W31409   8.244   6.400  13.921
69989W        W31410  10.332  16.156   0.472
69990W        W31411  32.112  44.439  11.388
69991W        W31412  12.727  24.983   2.386
69992W        W31413  23.562  39.368  14.761
69993W        W31414  42.015  15.323  12.861
69994W        W31415  40.364  38.948  11.504
69995W        W31416   6.246  18.137  10.032
69996W        W31417  16.576  22.596   1.890
69997W        W31418   3.745  27.104  12.899
69998W        W31419  15.274  23.735  13.500
69999W        W31420  24.637  21.170  11.464
70000W        W31421   3.780  15.749  13.836
70001W        W31422  40.525  16.709  13.857
70002W        W31423  11.345  44.397  12.045
70003W        W31424  44.280   2.444   2.277
70004W        W31425  34.467  40.937   1.786
70005W        W31426  21.552   4.273   2.415
70006W        W31427  20.648  28.577  12.848
70007W        W31428  40.416   5.767  14.471
70008W        W31429  31.911  12.755  14.840
70009W        W31430   2.463   7.676   0.890
70010W        W31431  43.924   4.729   2.701
70011W        W31432  33.491  38.469  12.094
70012W        W31433  21.060  14.203  14.476
70013W        W31434  20.740   1.861  11.005
70014W        W31435  35.471   6.317   0.431
70015W        W31436  12.851  44.375   5.298
70016W        W31437   3.360  22.735   4.177
70017W        W31438  25.016  27.572   1.336
70018W        W31439  22.227  33.590   3.271
70019W        W31440  28.560  26.610  14.300
70020W        W31441   5.300  14.287   5.108
70021W        W31442   4.761  38.911  14.784
70022W        W31443   6.402  15.655   0.429
70023W        W31444  26.567  44.782  12.049
70024W        W31445   4.930  36.989   4.697
70025W        W31446  22.547  13.792   3.371
70026W        W31447  33.533   9.233   1.212
70027W        W31448   6.409  40.377   1.252
70028W        W31449  15.323  34.549  11.611
70029W        W31450  25.578  25.699   4.268
70030W        W31451  12.816   2.237  12.040
70031W        W31452  40.995  13.162  13.855
70032W        W31453  35.512  32.106  10.456
70033W        W31454  36.367  13.168  13.349
70034W        W31455  36.028  36.915  13.461
70035W        W31456  32.047   9.825   9.964
70036W        W31457  11.260   2.259   2.204
70037W        W31458   3.232  15.779   0.332
70038W        W31459  29.169  43.338   0.405
70039W        W31460  42.778   3.450  12.365
70040W        W31461  40.798  23.656  14.933
70041W        W31462  27.585  31.076   3.841
70042W        W31463  18.727  16.209  14.433
70043W        W31464  40.825  32.068   2.874
70044W        W31465  36.979  18.555  11.448
70045W        W31466  16.260  27.194  12.973
70046W        W31467  11.648  35.044   0.914
70047W        W31468  35.051  22.613  11.120
70048W        W31469  35.426  13.123   3.783
70049W        W31470  37.883  25.966  11.990
70050W        W31471  33.916  19.632  13.545
70051W        W31472   3.281  11.139   3.840
70052W        W31473   7.404  22.143   3.367
70053W        W31474  34.456  24.224  12.523
70054W        W31475   4.442   4.360  13.413
70055W        W31476  19.113   8.218  11.081
70056W        W31477  18.219  28.063   4.160
70057W        W31478  25.165  43.805   4.642
70058W        W31479  30.534  14.816  10.898
70059W        W31480  26.493   3.389   2.891
70060W        W31481   5.730  24.149  11.999
70061W        W31482  12.651   5.344   4.638
70062W        W31483   4.728  14.696  12.992
70063W        W31484  37.830  15.604  13.022
70064W        W31485   6.697  21.708   4.121
70065W        W31486  34.532  23.189  13.522
70066W        W31487  29.951   7.721  14.367
70067W        W31488   6.813  17.242  11.879
70068W        W31489  15.752  27.692  14.901
70069W        W31490   9.205  43.402  14.496
70070W        W31491  18.229  32.995   1.449
70071W        W31492  40.813  31.012   2.349
70072W        W31493   6.791   2.866   4.223
70073W        W31494  24.599  43.942   2.382
70074W        W31495  25.035   5.259  14.971
70075W        W31496  11.676  30.628   2.233
70076W        W31497  31.988  12.615   1.351
70077W        W31498  32.908  39.880   3.734
70078W        W31499  10.855  25.073   3.230
70079W        W31500  12.179   5.245   3.746
70080W        W31501  42.281  27.505  10.623
70081W        W31502  16.757  16.210   2.771
70082W        W31503  21.046   7.290  12.537
70083W        W31504  24.583   8.257  13.521
70084W        W31505   1.362   7.339  12.435
70085W        W31506  27.995   3.936   2.778
70086W        W31507  42.820   4.226  11.888
70087W        W31508  38.884  22.529   3.369
70088W        W31509   4.926  22.504  10.582
70089W        W31510  16.628   8.274  12.532
70090W        W31511   8.274  25.072   2.773
70091W        W31512  21.033  27.605   0.805
70092W        W31513   7.287  43.295  11.093
70093W        W31514  33.953   8.718   4.166
70094W        W31515  16.594  42.861   5.162
70095W        W31516  10.835   0.460  14.800
70096W        W31517  34.453  31.120   0.481
70097W        W31518  31.584  22.085  13.998
70098W        W31519  37.949  13.778  13.045
70099W        W31520   0.980  29.021   0.307
70100W        W31521  42.926  17.092  13.489
70101W        W31522  27.610  18.165  11.473
70102W        W31523  13.612  20.625  13.963
70103W        W31524   3.299  44.306  13.368
70104W        W31525  29.127   4.786   4.653
70105W        W31526  30.627  15.194   3.788
70106W        W31527   8.660  41.024   4.184
70107W        W31528  25.160  19.263  13.405
70108W        W31529  18.137  20.740  13.324
70109W        W31530  25.020  25.126   4.146
70110W        W31531  22.023  30.561  14.385
70111W        W31532  10.236   7.812  12.091
70112W        W31533   5.729  43.891  12.027
70113W        W31534   2.879  28.018  14.493
70114W        W31535   9.197  11.220   3.168
70115W        W31536   6.300  38.393  11.541
70116W        W31537  17.221   2.240  13.021
70117W        W31538  23.237   4.418   4.698
70118W        W31539  18.195  37.949   2.780
70119W        W31540  38.996  26.207  11.453
70120W        W31541   9.761  34.556   0.388
70121W        W31542  14.759  17.654  11.858
70122W        W31543  38.985  23.622  11.046
70123W        W31544  42.494  18.727  12.923
70124W        W31545  13.762  12.764   2.753
70125W        W31546  42.383  37.389  10.484
70126W        W31547  43.015  17.565  14.488
70127W        W31548  34.405   4.839   5.166
70128W        W31549  12.230   7.261  11.118
70129W        W31550  27.131  23.076  10.938
70130W        W31551  17.231  18.697  12.972
70131W        W31552   3.290   9.324   3.666
70132W        W31553  38.487  13.766   1.343
70133W        W31554  28.063   4.759   1.332
70134W        W31555  25.986   9.280  13.917
70135W        W31556  33.994  24.097  10.998
70136W        W31557  30.466  13.249  10.888
70137W        W31558  40.984  34.545  11.112
70138W        W31559  35.363  43.974  13.470
70139W        W31560  11.854  24.694   1.284
70140W        W31561  34.107  36.432  12.074
70141W        W31562   1.425  36.439   1.236
70142W        W31563  14.279  39.979  13.431
70143W        W31564  10.694  18.566   0.312
70144W        W31565  17.271  31.453   0.458
70145W        W31566  16.208  28.669  13.044
70146W        W31567  43.876   0.912  14.005
70147W        W31568  27.471  12.720  12.902
70148W        W31569  33.436  33.503  10.503
70149W        W31570  34.013  30.972   4.789
70150W        W31571  30.432  16.171   4.686
70151W        W31572  24.040  15.632  10.538
70152W        W31573  23.986  36.004  13.919
70153W        W31574  18.579   2.294  10.570
70154W        W31575  42.010  34.081   0.410
70155W        W31576  16.617  13.296  12.060
70156W        W31577  28.945  34.908   2.187
70157W        W31578  27.049  34.496   4.729
70158W        W31579  17.744  27.535  12.470
70159W        W31580  35.046  43.940  11.096
70160W        W31581   3.879  23.204   1.257
70161W        W31582  10.822  14.316  14.867
70162W        W31583  39.505  33.959  14.496
70163W        W31584  15.728  25.586   0.261
70164W        W31585  34.555  17.762   1.916
70165W        W31586   6.865  15.179   2.213
70166W        W31587  21.031  40.521  14.440
70167W        W31588  31.134   5.768   2.791
70168W        W31589  44.000  25.706   3.770
70169W        W31590   2.244   3.417   1.694
70170W        W31591   0.752  37.424   2.791
70171W        W31592  28.980  20.046   3.822
70172W        W31593  20.706  42.019   1.750
70173W        W31594   6.326  31.562  11.078
70174W        W31595  44.320  28.493  11.555
70175W        W31596  32.094  37.351  14.283
70176W        W31597  34.061   2.271   3.152
70177W        W31598  31.474   1.744  11.930
70178W        W31599  43.839  13.675  10.935
70179W        W31600  11.843   1.342   2.884
70180W        W31601  16.241  44.343   1.724
70181W        W31602  38.054  37.903   1.868
70182W        W31603  44.318  28.623  12.951
70183W        W31604  40.408  12.149  14.857
70184W        W31605   0.853  43.343   1.275
70185W        W31606  24.490  38.070   2.859
70186W        W31607  24.509  33.890   4.124
70187W        W31608  13.349  12.698  14.329
70188W        W31609  31.047  29.599   3.228
70189W        W31610   1.823  24.693  14.382
70190W        W31611  16.583  23.538   1.394
70191W        W31612   6.851  16.752   4.290
70192W        W31613   1.958   7.748   3.169
70193W        W31614  32.628  29.441   4.762
70194W        W31615  19.243  37.939   3.206
70195W        W31616   0.763   6.296  12.034
70196W        W31617  34.579  14.319  13.060
70197W        W31618  36.495  43.007   5.259
70198W        W31619  39.329  16.126   1.746
70199W        W31620  12.726  15.206  14.384
70200W        W31621  29.019  31.644  11.434
70201W        W31622  39.410  37.570   9.976
70202W        W31623   8.215  17.569  11.000
70203W        W31624  44.262  43.792  14.876
70204W        W31625  31.047   6.312  11.448
70205W        W31626  12.197  38.826  12.079
70206W        W31627  36.573  43.890  11.856
70207W        W31628  34.429  15.744   4.817
70208W        W31629  27.034  11.277  12.848
70209W        W31630   7.851  29.994  11.121
70210W        W31631  27.628  41.530   0.735
70211W        W31632  20.617  17.158   0.923
70212W        W31633   4.844  37.910  14.853
70213W        W31634  17.232  13.740  13.522
70214W        W31635  36.487  18.251   2.308
70215W        W31636   8.284  27.018   1.299
70216W        W31637  12.713  39.529   1.431
70217W        W31638  37.910   2.735  12.839
70218W        W31639  18.592  39.923   2.734
70219W        W31640  15.295   4.441   4.711
70220W        W31641  22.604  42.954  13.010
70221W        W31642  38.508  22.231   0.773
70222W        W31643  16.124  43.018  10.478
70223W        W31644  18.124  30.460   4.759
70224W        W31645   3.253   3.744  13.982
70225W        W31646   9.217  23.223   1.276
70226W        W31647   8.656  18.126  13.818
70227W        W31648  12.349   3.244  11.539
70228W        W31649  19.608   7.355  11.458
70229W        W31650   2.241  10.192   0.309
70230W        W31651  23.693  22.663   2.719
70231W        W31652  30.636  24.601  14.425
70232W        W31653  44.956  34.907  14.508
70233W        W31654   5.245  44.992  12.913
70234W        W31655   7.347  35.482  14.977
70235W        W31656  28.069  23.103   3.234
70236W        W31657   2.362  34.374   4.754
70237W        W31658  36.959  32.455   3.199
70238W        W31659  16.132  12.217  13.792
70239W        W31660  42.025  10.201  11.405
70240W        W31661  10.714   2.281   3.742
70241W        W31662  24.118  19.699   5.193
70242W        W31663  31.102   3.369  13.007
70243W        W31664  35.857  16.813   0.369
70244W        W31665  23.653   9.780  12.897
70245W        W31666  16.189  24.038  11.905
70246W        W31667  15.310  10.228   0.375
70247W        W31668   4.374  42.953   0.340
70248W        W31669  15.764  13.689  11.931
70249W        W31670  43.811  12.758   5.244
70250W        W31671   1.282  15.279   1.694
70251W        W31672  17.126  24.505  10.550
70252W        W31673   8.352   6.794  14.358
70253W        W31674  33.457  15.779   0.445
70254W        W31675  20.189  10.750  11.407
70255W        W31676  30.029  29.986  10.564
70256W        W31677  32.983  30.470  10.595
70257W        W31678  26.528   9.374  12.351
70258W        W31679  36.077  39.044   4.115
70259W        W31680  23.491  12.265   0.916
70260W        W31681   4.222  19.064   4.229
70261W        W31682  22.103   9.801  13.861
70262W        W31683  36.528   6.784   3.777
70263W        W31684   9.723  38.555  13.456
70264W        W31685  36.414  11.283   4.283
70265W        W31686  22.738  39.934  12.376
70266W        W31687  38.017  10.238  13.472
70267W        W31688  14.736  20.660   3.154
70268W        W31689  43.378  24.554  12.356
70269W        W31690  38.880  32.065  10.914
70270W        W31691  22.219  16.111  14.437
70271W        W31692  38.386   4.314  12.540
70272W        W31693  41.946  27.612   2.848
70273W        W31694  36.383  17.183   0.845
70274W        W31695  31.969  14.132  11.912
70275W        W31696  28.953  22.007  12.572
70276W        W31697  39.884  16.748  10.544
70277W        W31698   7.732  29.106   4.656
70278W        W31699   0.808  41.991  14.831
70279W        W31700   9.825  24.649   0.905
70280W        W31701  22.110  23.008  12.549
70281W        W31702  27.587  36.918  13.510
70282W        W31703  19.639   9.231   4.232
70283W        W31704   5.721  36.957   5.142
70284W        W31705   8.350  39.484   1.816
70285W        W31706  43.376   4.805   3.864
70286W        W31707  44.907  35.077  10.989
70287W        W31708  33.899   0.443   0.866
70288W        W31709  34.427  35.563  11.426
70289W        W31710  28.007  41.931  10.997
70290W        W31711  18.217  29.940   1.848
70291W        W31712  22.637  33.962  12.388
70292W        W31713   0.979  17.293  11.116
70293W        W31714  24.025  18.115   2.205
70294W        W31715  11.766  13.327   4.765
70295W        W31716  14.729  33.513  11.013
70296W        W31717   6.252   6.368   9.961
70297W        W31718  28.527  30.617  14.373
70298W        W31719  22.191  18.158   0.390
70299W        W31720  39.891  18.740   3.307
70300W        W31721  38.011  34.869  14.401
70301W        W31722  18.149  21.181   3.718
70302W        W31723  31.903   1.779   0.761
70303W        W31724  26.050  26.633  10.918
70304W        W31725  26.193  14.233   3.831
70305W        W31726  31.640   2.886   0.891
70306W        W31727  43.823  13.694   2.801
70307W        W31728  31.052  31.561   1.257
70308W        W31729  36.843   7.680   2.885
70309W        W31730  34.885  10.680   1.295
70310W        W31731  36.027  29.956  10.454
70311W        W31732  11.867  36.439   4.285
70312W        W31733   1.483  29.168   3.852
70313W        W31734  25.007  38.409   2.227
70314W        W31735   6.250  25.559  12.394
70315W        W31736   6.727  41.299  11.410
70316W        W31737   3.396  27.615   4.269
70317W        W31738  40.912   9.740   3.789
70318W        W31739  17.139  14.289   1.350
70319W        W31740   0.326  13.282   3.864
70320W        W31741  44.921  34.568   3.718
70321W        W31742  16.234  14.671  11.972
70322W        W31743  24.513  23.608   4.597
70323W        W31744  42.791  29.584  14.828
70324W        W31745  14.193   2.819   4.214
70325W        W31746  28.055  38.970   1.360
70326W        W31747  30.030   4.915  14.962
70327W        W31748  30.596   9.716  10.960
70328W        W31749  32.065  29.147  13.013
70329W        W31750  10.856   2.317  14.990
70330W        W31751  34.483  19.740  13.871
70331W        W31752   3.270  12.160  14.419
70332W        W31753  20.708   9.187  14.369
70333W        W31754  37.561  36.932  13.533
70334W        W31755  11.759   6.281   1.746
70335W        W31756   7.719  20.171  11.931
70336W        W31757   0.783   8.769  11.951
70337W        W31758   7.320  41.841  13.413
70338W        W31759  21.193  42.939   5.298
70339W        W31760   9.168  26.625   1.239
70340W        W31761   8.307  18.204  12.069
70341W        W31762  21.751  41.967   3.187
70342W        W31763   8.742  37.399  13.923
70343W        W31764   9.866  13.197   0.942
70344W        W31765   5.433   0.975   0.943
70345W        W31766   5.294  26.471   2.849
70346W        W31767  20.583  40.468  14.030
70347W        W31768  44.372   0.813   5.281
70348W        W31769   4.804   0.846  11.109
70349W        W31770  25.529  37.881  11.374
70350W        W31771  39.506  30.966   2.377
70351W        W31772  36.973  43.794   3.275
70352W        W31773  10.691  29.093   0.316
70353W        W31774  31.031  37.977  13.899
70354W        W31775  30.456  17.563  13.383
70355W        W31776   7.248  10.337   2.861
70356W        W31777  23.148  12.284   2.278
70357W        W31778  14.246  36.962   4.143
70358W        W31779   8.793  18.288   0.346
70359W        W31780  14.105  15.250   1.783
70360W        W31781  17.085  33.590  10.887
70361W        W31782  43.779  39.913   4.273
70362W        W31783   5.933  38.058   2.871
70363W        W31784   0.903   5.341  11.098
70364W        W31785   0.953  34.534   0.265
70365W        W31786  35.521  27.994   0.777
70366W        W31787  10.331   0.408  10.035
70367W        W31788   8.823  31.476   0.889
70368W        W31789  43.367  38.397   1.766
70369W        W31790  37.388  23.555  12.855
70370W        W31791  26.088  42.798   0.340
70371W        W31792  24.621   4.350   4.308
70372W        W31793  21.046  35.089   1.413
70373W        W31794   6.285  14.611   0.889
70374W        W31795  22.733  28.587   1.343
70375W        W31796  13.813  35.493  12.993
70376W        W31797   8.277  35.004  14.278
70377W        W31798   3.866  40.909  13.032
70378W        W31799  19.219  33.590   1.333
70379W        W31800   6.299  34.896   0.420
70380W        W31801  12.228  35.977   4.761
70381W        W31802   3.244  25.537  14.894
70382W        W31803   1.809  31.927   3.154
70383W        W31804  30.022  31.401  10.894
70384W        W31805  36.559   8.799   1.821
70385W        W31806  41.411  36.367  14.960
70386W        W31807  39.457  30.968   3.843
70387W        W31808   0.307   9.182  11.453
70388W        W31809  35.979  32.924  11.105
70389W        W31810   2.449  31.529   1.241
70390W        W31811  17.793  30.024   4.786
70391W        W31812  30.440  11.333   5.293
70392W        W31813  34.907  31.900  14.280
70393W        W31814  42.409  33.582   4.688
70394W        W31815  32.914  24.037   3.675
70395W        W31816   5.826  39.534  11.508
70396W        W31817  44.971   7.840   2.258
70397W        W31818  11.663  38.849   3.810
70398W        W31819  28.989  23.051  13.061
70399W        W31820  39.361   5.854  13.807
70400W        W31821  18.280   8.281  14.458
70401W        W31822  29.174   5.926  10.406
70402W        W31823  33.549  23.127  12.493
70403W        W31824  22.643  27.515  12.521
70404W        W31825  44.900   0.445   0.883
70405W        W31826  17.664  24.693   2.687
70406W        W31827  17.579  13.349   3.153
70407W        W31828  33.945  14.713  11.098
70408W        W31829  33.110   5.924  11.056
70409W        W31830   4.438  16.794   3.242
70410W        W31831  29.660   0.462   2.687
70411W        W31832   4.754  39.048   1.424
70412W        W31833  15.617   1.878   0.904
70413W        W31834  12.719  34.922   1.376
70414W        W31835  39.952   9.707   1.427
70415W        W31836   5.703  27.097   1.409
70416W        W31837  29.498  38.332   3.346
70417W        W31838  43.350   0.256   1.338
70418W        W31839  26.570  16.706   4.285
70419W        W31840  33.410  27.565   3.848
70420W        W31841   4.360  39.878   3.324
70421W        W31842  40.007  34.115  14.870
70422W        W31843  24.072  23.624   2.846
70423W        W31844  23.639  12.148   1.331
70424W        W31845  33.443  32.572   3.688
70425W        W31846  18.120  31.003   0.312
70426W        W31847  22.540  30.601   1.320
70427W        W31848  34.401  20.600  11.883
70428W        W31849  13.121  28.484  11.002
70429W        W31850   6.872  21.075  11.585
70430W        W31851  44.500  11.682  10.542
70431W        W31852  16.124  15.148   3.194
70432W        W31853   2.319  27.596  13.919
70433W        W31854   0.948   2.884  14.351
70434W        W31855   5.301   7.308   4.163
70435W        W31856   8.873  10.219   2.779
70436W        W31857  33.111   0.483  14.964
70437W        W31858  13.820   8.718   0.473
70438W        W31859  21.748  28.465   4.167
70439W        W31860   2.815  13.173  14.886
70440W        W31861  18.268  18.087  13.812
70441W        W31862  10.745  41.941  10.496
70442W        W31863  32.909  28.983  11.585
70443W        W31864  33.975   2.725  13.499
70444W        W31865  34.465  44.402   1.856
70445W        W31866   0.391  14.330   0.390
70446W        W31867  19.682  18.648   3.207
70447W        W31868   4.314  30.133  12.058
70448W        W31869  23.584  27.678  11.003
70449W        W31870  21.227  24.689   3.333
70450W        W31871  21.037  32.941   4.827
70451W        W31872  29.045   6.184  13.388
70452W        W31873  30.912  15.132  11.982
70453W        W31874  10.816  40.047   4.800
70454W        W31875   9.822  14.667   2.179
70455W        W31876  18.159  31.457  12.068
70456W        W31877   4.342  12.303   1.793
70457W        W31878  44.378  25.026   1.710
70458W        W31879   0.361  15.706   1.695
70459W        W31880  27.961  20.767   3.182
70460W        W31881   3.713  24.541   2.359
70461W        W31882  26.034   2.277   0.390
70462W        W31883  44.918  28.008  10.504
70463W        W31884  18.740  43.493   1.323
70464W        W31885  11.284  27.013   2.886
70465W        W31886  10.162  16.704  11.994
70466W        W31887   0.796  31.540   1.739
70467W        W31888  30.583  11.849  12.345
70468W        W31889  30.577  38.943   2.269
70469W        W31890  40.462  24.715   3.237
70470W        W31891  40.928  30.945   3.364
70471W        W31892  39.055  14.790   0.467
70472W        W31893  44.272  20.243  14.308
70473W        W31894   1.395  23.996   9.927
70474W        W31895  32.008  28.471  13.464
70475W        W31896   9.341   3.841  10.534
70476W        W31897  17.226  32.415  10.605
70477W        W31898   6.190  24.032  14.796
70478W        W31899  18.690  28.099   4.115
70479W        W31900   7.768  40.374   2.738
70480W        W31901  28.139  40.934   1.733
70481W        W31902   9.208  27.193  12.571
70482W        W31903   9.772  17.594  14.767
70483W        W31904   8.659   0.980  12.554
70484W        W31905  10.804   5.403  10.453
70485W        W31906  29.429  17.641  12.423
70486W        W31907  44.291   9.336   4.147
70487W        W31908   3.741  19.197   0.941
70488W        W31909  13.311  20.174  12.372
70489W        W31910  33.894  34.511   0.464
70490W        W31911  31.923   4.736  11.040
70491W        W31912  20.686   7.263   1.814
70492W        W31913   2.771   0.372  12.576
70493W        W31914  10.156   6.688  12.508
70494W        W31915  30.936  23.133   0.905
70495W        W31916  24.035   3.715  11.117
70496W        W31917  37.075  32.438  14.509
70497W        W31918  17.215  12.691  13.051
70498W        W31919  36.076   4.759   2.802
70499W        W31920   8.173  23.991  11.045
70500W        W31921  25.118   5.253  10.421
70501W        W31922  32.952  30.659   2.831
70502W        W31923   9.236  43.955   3.255
70503W        W31924  41.950  25.670  11.120
70504W        W31925  24.708  30.145  11.472
70505W        W31926  21.742   0.482   4.710
70506W        W31927  21.692  12.614  14.883
70507W        W31928  26.066  31.479   3.272
70508W        W31929  29.099  36.031  12.458
70509W        W31930  44.475  32.911   0.427
70510W        W31931   8.897  29.014   0.812
70511W        W31932  16.297  40.396   0.292
70512W        W31933   9.337  17.274   3.369
70513W        W31934  34.588  26.112   4.808
70514W        W31935  11.264  31.989   1.302
70515W        W31936   8.866  15.247   2.885
70516W        W31937  40.883  30.100  10.621
70517W        W31938  28.669  11.865   1.738
70518W        W31939  34.534  25.060  12.874
70519W        W31940  43.272  34.107  14.888
70520W        W31941   8.888  22.011   2.744
70521W        W31942  10.242  15.744  13.400
70522W        W31943  15.092  25.051  13.944
70523W        W31944   3.302  38.400  11.112
70524W        W31945  34.015  42.992   0.436
70525W        W31946   4.256  27.546  14.424
70526W        W31947  33.581  35.931   5.320
70527W        W31948  32.531  33.079   4.654
70528W        W31949  42.826  37.406   1.301
70529W        W31950   9.268  24.226  13.008
70530W        W31951   5.285  43.306  11.041
70531W        W31952   8.171  17.658  11.392
70532W        W31953  35.453  39.395   4.285
70533W        W31954  34.947  25.991   0.794
70534W        W31955   5.757  22.594   0.897
70535W        W31956  25.554  17.610  11.054
70536W        W31957  17.798  16.286  10.468
70537W        W31958  13.756  44.756   2.759
70538W        W31959   2.395  40.406  14.833
70539W        W31960  17.653  22.062   3.179
70540W        W31961  42.005  18.656   3.385
70541W        W31962  12.212  12.266  11.539
70542W        W31963  39.888  16.701   5.719
70543W        W31964   1.369   2.802  12.824
70544W        W31965  29.426   1.770   4.674
70545W        W31966  19.220  37.843   3.800
70546W        W31967  32.036  25.513   4.641
70547W        W31968  37.941  21.697   2.202
70548W        W31969  33.129  26.517  11.541
70549W        W31970  16.745  35.023   2.717
70550W        W31971  40.937   3.885  11.896
70551W        W31972  26.007  27.585   1.451
70552W        W31973   5.835   7.247  10.556
70553W        W31974  14.605  44.777   4.262
70554W        W31975   1.344  34.422   0.326
70555W        W31976  32.909  22.627  11.027
70556W        W31977   2.831  30.636  13.976
70557W        W31978   8.817  20.682   2.692
70558W        W31979  17.124  23.236  14.302
70559W        W31980   8.859  25.673  13.543
70560W        W31981   3.237  34.445   3.331
70561W        W31982  40.390  12.186   9.554
70562W        W31983  22.645  37.420  10.425
70563W        W31984  35.524  31.528   1.809
70564W        W31985  32.630  12.853   2.246
70565W        W31986  36.446   5.768  13.541
70566W        W31987  37.992  40.895   2.298
70567W        W31988  25.152   1.401  14.881
70568W        W31989  39.957   5.860  14.426
70569W        W31990  37.844  29.424  11.863
70570W        W31991  16.239  42.899  12.455
70571W        W31992  26.529  42.381   4.622
70572W        W31993  41.824  28.947   2.359
70573W        W31994  12.731  34.114  14.832
70574W        W31995  31.483  10.688  14.443
70575W        W31996  20.550  31.444  14.955
70576W        W31997   6.184  36.501   2.328
70577W        W31998  12.304  38.471  14.950
70578W        W31999  39.451  24.090  10.910
70579W        W32000  11.701  33.044   4.637
70580W        W32001  35.420  42.283  10.898
70581W        W32002   0.356  25.714   0.786
70582W        W32003  41.346  37.055   0.332
70583W        W32004  39.894   2.967  12.931
70584W        W32005  26.019  30.529  13.406
70585W        W32006  42.459   9.385  12.397
70586W        W32007  27.052  12.224   4.226
70587W        W32008   0.769  33.449  12.966
70588W        W32009  17.155  33.028   4.304
70589W        W32010  24.192  36.407  12.507
70590W        W32011  37.925  23.182   1.324
70591W        W32012  24.996   3.231  14.861
70592W        W32013  42.432  18.744   3.754
70593W        W32014   0.326  16.702  11.122
70594W        W32015  42.483  38.826   0.745
70595W        W32016  28.523  38.940   2.759
70596W        W32017  41.308  25.129   4.780
70597W        W32018  22.574  36.856  14.964
70598W        W32019  26.673  15.249  10.509
70599W        W32020  28.566  35.024  12.964
70600W        W32021  44.483  26.192   4.646
70601W        W32022  20.710   7.212   3.722
70602W        W32023  32.475  28.639   0.936
70603W        W32024  28.946  16.284  10.981
70604W        W32025  20.209  11.625   5.319
70605W        W32026  41.824  21.072  13.866
70606W        W32027  42.895  22.051   2.869
70607W        W32028   2.314   3.781  11.571
70608W        W32029  31.965   4.907  13.419
70609W        W32030  40.336  33.942  14.771
70610W        W32031  30.016  43.384  10.472
70611W        W32032   4.280  38.486  10.465
70612W        W32033  20.740  10.249  13.482
70613W        W32034  28.108  34.531   1.242
70614W        W32035  36.446  12.699  12.899
70615W        W32036  35.379  26.040   0.317
70616W        W32037  30.554  28.637   4.657
70617W        W32038  32.591  19.215  10.586
70618W        W32039   3.895  28.452  13.486
70619W        W32040   8.289  43.997  10.611
70620W        W32041  14.184  42.507   0.380
70621W        W32042  44.493  30.524   0.802
70622W        W32043  33.893  23.097   0.929
70623W        W32044  37.506  44.812  14.276
70624W        W32045  35.896  39.014   4.811
70625W        W32046  23.696   4.399   3.752
70626W        W32047  30.954  11.771   1.366
70627W        W32048  31.910  26.640  11.543
70628W        W32049   5.887   6.835   4.284
70629W        W32050  40.911   2.427  14.847
70630W        W32051  17.269   3.839  13.018
70631W        W32052  44.381  28.541  13.523
70632W        W32053  14.272  34.939   4.263
70633W        W32054  13.815  44.469   4.290
70634W        W32055  24.058  32.971   4.597
70635W        W32056  40.491   8.791  14.350
70636W        W32057  33.944  24.622   2.187
70637W        W32058  28.543  16.238   3.796
70638W        W32059  34.432  38.468   0.801
70639W        W32060  42.981  41.950  12.381
70640W        W32061  38.893  17.729  11.413
70641W        W32062  23.713  23.045  10.981
70642W        W32063   4.265  21.756  11.899
70643W        W32064  32.467   5.800   2.841
70644W        W32065  10.183   4.406   3.335
70645W        W32066  28.031  27.469  10.050
70646W        W32067  17.742  26.520   3.754
70647W        W32068   9.651  36.382   2.789
70648W        W32069  19.168  22.106  10.458
70649W        W32070  41.295  14.284   1.419
70650W        W32071  42.869  33.024  12.845
70651W        W32072  14.127  38.376   3.271
70652W        W32073   2.741  40.346   4.615
70653W        W32074  22.017   9.379   3.770
70654W        W32075   1.873  23.108   3.815
70655W        W32076  42.354  26.676  10.494
70656W        W32077  29.164  31.612   0.305
70657W        W32078   2.243  21.106  14.305
70658W        W32079  15.743  43.351  12.580
70659W        W32080  17.756  32.140  13.022
70660W        W32081   8.691  31.618  10.946
70661W        W32082   0.297  12.212   0.892
70662W        W32083  36.057  25.507   0.905
70663W        W32084   0.319  31.102   3.680
70664W        W32085  41.042  40.321   4.293
70665W        W32086  23.168   9.301   0.852
70666W        W32087  44.447  26.512  13.443
70667W        W32088  41.386  29.174   1.268
70668W        W32089  22.168  11.793   1.316
70669W        W32090  16.751   8.366   1.739
70670W        W32091   4.302  29.007  14.901
70671W        W32092  38.497  21.028  13.971
70672W        W32093  29.097  16.151   1.307
70673W        W32094  42.969  24.529   1.789
70674W        W32095  31.938  20.107  13.367
70675W        W32096   2.736  28.445  12.883
70676W        W32097  17.083   4.422  14.015
70677W        W32098   2.941  41.473  14.427
70678W        W32099  25.989  30.479   3.651
70679W        W32100   3.342  22.565  14.019
70680W        W32101  10.194  30.979  10.940
70681W        W32102   1.952  20.051  13.332
70682W        W32103  34.916  37.922  14.994
70683W        W32104  22.080  36.523   1.362
70684W        W32105   8.856  17.622  13.822
70685W        W32106   7.845  42.410   1.362
70686W        W32107  13.755   3.326   0.901
70687W        W32108  19.130  26.183   3.334
70688W        W32109  28.587   6.235  10.051
70689W        W32110   8.885  36.508   3.363
70690W        W32111  34.539  42.819  10.459
70691W        W32112  14.620  30.135  11.461
70692W        W32113  25.675  15.102  14.427
70693W        W32114  17.754  12.131   0.914
70694W        W32115  17.170  18.603  10.493
70695W        W32116  42.983  20.044  11.502
70696W        W32117   4.255  10.859  12.482
70697W        W32118   3.819  43.015   1.435
70698W        W32119  25.123   0.293   4.254
70699W        W32120  20.650   8.796  10.421
70700W        W32121   7.785  28.109  11.480
70701W        W32122  23.210  14.747  14.427
70702W        W32123  23.011  34.468  12.908
70703W        W32124  28.179   9.722  11.491
70704W        W32125  18.271  37.383  14.996
70705W        W32126   9.650   8.204   2.300
70706W        W32127   3.715  21.568  12.870
70707W        W32128  27.159   2.415   3.727
70708W        W32129  37.052  33.441   2.726
70709W        W32130  44.754  39.493   3.190
70710W        W32131  13.601  37.407   3.644
70711W        W32132  40.922   2.367  12.387
70712W        W32133  26.113   1.744   4.689
70713W        W32134   7.300  13.664   3.827
70714W        W32135   3.883  23.698  12.052
70715W        W32136  32.457  36.963   3.212
70716W        W32137  28.177  28.472  14.961
70717W        W32138   6.879   5.395  13.902
70718W        W32139  22.084  35.925  13.330
70719W        W32140  11.725  40.381  13.472
70720W        W32141  28.046  12.347   1.699
70721W        W32142  44.477   5.353   2.793
70722W        W32143   5.931  19.108  13.504
70723W        W32144  42.489  37.522   3.284
70724W        W32145  42.848  30.145  14.774
70725W        W32146  18.131   4.700   1.361
70726W        W32147  40.871  34.883   1.440
70727W        W32148   5.382  27.044   0.831
70728W        W32149  10.766   8.857   0.437
70729W        W32150  35.877  17.783  11.504
70730W        W32151   0.315  21.171  12.405
70731W        W32152  31.116  28.032  14.783
70732W        W32153   9.717  18.659   0.448
70733W        W32154  38.535  41.850  14.278
70734W        W32155  31.635  15.789   2.234
70735W        W32156  30.926   5.889   0.270
70736W        W32157  24.170  14.295  11.598
70737W        W32158  12.205  29.439  13.388
70738W        W32159  35.932   4.279  12.371
70739W        W32160  30.582  22.602  11.544
70740W        W32161  18.726  32.078   4.752
70741W        W32162  18.771  11.772  11.388
70742W        W32163  24.706  35.476   0.412
70743W        W32164  17.599  39.488   3.803
70744W        W32165  43.508  44.504  11.373
70745W        W32166  10.218   2.732  13.891
70746W        W32167  31.527   3.755  10.434
70747W        W32168  30.497   6.347   2.736
70748W        W32169  22.746   5.379  10.641
70749W        W32170  13.681  22.160   4.278
70750W        W32171   4.257  23.157   3.211
70751W        W32172  14.309   9.727   1.266
70752W        W32173  21.524  39.880  10.992
70753W        W32174   8.256  27.195  13.924
70754W        W32175  17.243  38.853  10.415
70755W        W32176  34.557  31.053   2.771
70756W        W32177  14.728  36.456  11.961
70757W        W32178  20.028  32.447   2.353
70758W        W32179  33.958  32.068   1.887
70759W        W32180  32.942   9.391  11.599
70760W        W32181  21.576  38.495   3.230
70761W        W32182  35.596  27.549   3.711
70762W        W32183  37.079  36.056   0.355
70763W        W32184   2.764  42.527   4.776
70764W        W32185   5.790  16.679  14.458
70765W        W32186  43.410  38.974  14.364
70766W        W32187  15.322  22.234  10.998
70767W        W32188  10.258  15.285   0.824
70768W        W32189  17.801   2.952   3.773
70769W        W32190  29.435  27.664  14.801
70770W        W32191  40.307  14.710   2.764
70771W        W32192  13.623  44.379   2.194
70772W        W32193   8.825  32.396   1.309
70773W        W32194  25.137  36.423   0.890
70774W        W32195  15.607  44.422   2.898
70775W        W32196   3.870  29.625   0.958
70776W        W32197  13.113  27.100  12.493
70777W        W32198  16.800  30.075   0.877
70778W        W32199  26.093  13.289  14.489
70779W        W32200  22.052  12.256   0.393
70780W        W32201  23.612  32.012  11.123
70781W        W32202  15.128  13.709  12.049
70782W        W32203   8.171  18.279   0.961
70783W        W32204   8.722   6.349  12.076
70784W        W32205  18.116  34.996  11.125
70785W        W32206  27.615  44.964   4.704
70786W        W32207  36.360  19.069   4.765
70787W        W32208  12.837  40.918   2.375
70788W        W32209  24.543  30.456   2.369
70789W        W32210   5.195  11.740   3.638
70790W        W32211  27.642  37.975  10.923
70791W        W32212  31.120  31.419   2.767
70792W        W32213   7.760  38.413   0.729
70793W        W32214  24.160   0.382   0.806
70794W        W32215  23.589  18.076   0.791
70795W        W32216   1.363  17.148   3.756
70796W        W32217   7.192  31.419   3.159
70797W        W32218  32.125  39.029   4.169
70798W        W32219   4.357   6.296   3.321
70799W        W32220   3.337  33.431  11.991
70800W        W32221  18.206   3.322  11.494
70801W        W32222  20.550  33.048  14.447
70802W        W32223  27.170  11.155   1.701
70803W        W32224  34.036  30.106  13.482
70804W        W32225  43.417   3.788  11.516
70805W        W32226  23.731   4.233  12.897
70806W        W32227  43.443  10.694  12.080
70807W        W32228   2.442   7.797   3.798
70808W        W32229  41.997  19.119  12.056
70809W        W32230  37.415  11.837   0.861
70810W        W32231   2.950   4.269   2.676
70811W        W32232   2.853  23.214   0.738
70812W        W32233   3.852   4.726   2.726
70813W        W32234  30.597  42.402  12.914
70814W        W32235  43.923  43.307  10.906
70815W        W32236   1.857  39.455  11.581
70816W        W32237  32.579  44.503  13.375
70817W        W32238  44.892  16.313   3.796
70818W        W32239  11.226   6.192  12.436
70819W        W32240  17.168  16.616  14.350
70820W        W32241   6.702   9.705   3.205
70821W        W32242   1.362  11.159   4.225
70822W        W32243  17.069  41.531  14.411
70823W        W32244   2.868  17.773  10.468
70824W        W32245   1.806  15.281  13.975
70825W        W32246  12.743   3.300   0.367
70826W        W32247  41.019  43.362   2.280
70827W        W32248  39.981  27.026   0.926
70828W        W32249  25.481  11.637  13.038
70829W        W32250   6.407  32.961   0.817
70830W        W32251  14.728  21.598   2.792
70831W        W32252   4.391  18.756   0.482
70832W        W32253  29.523  19.723  13.864
70833W        W32254  20.683  37.456  11.407
70834W        W32255  11.359  38.068   4.673
70835W        W32256   5.362  43.484   1.835
70836W        W32257  12.171  24.169  12.446
70837W        W32258  41.795   0.828  14.334
70838W        W32259  23.084  12.635   2.186
70839W        W32260  20.222  12.642   0.388
70840W        W32261  10.671   2.238   0.333
70841W        W32262  37.904  28.064  10.023
70842W        W32263   9.791   3.745   1.708
70843W        W32264  38.070  35.489   0.737
70844W        W32265  12.312  41.339   1.301
70845W        W32266   0.281  11.186   0.321
70846W        W32267  40.924  39.451   4.352
70847W        W32268   6.725  34.872  14.832
70848W        W32269   8.741  36.061   3.192
70849W        W32270  10.351  23.640   2.396
70850W        W32271  15.124  28.542  12.965
70851W        W32272  20.553  44.350  12.919
70852W        W32273  28.107  43.400   2.815
70853W        W32274  12.119  30.471  10.598
70854W        W32275  19.614  15.138  12.904
70855W        W32276  23.217  17.572   3.640
70856W        W32277   6.905  23.575   3.184
70857W        W32278  13.602  26.021   4.216
70858W        W32279  16.769  15.689   0.952
70859W        W32280  14.723  12.233  11.054
70860W        W32281   0.266  36.550   0.450
70861W        W32282  20.636  36.014   0.903
70862W        W32283  41.894  33.468  14.851
70863W        W32284  16.101  34.923   2.852
70864W        W32285  24.486  28.163   3.346
70865W        W32286   3.713  43.426   4.271
70866W        W32287  35.933  25.023  11.989
70867W        W32288  42.850   6.218   1.724
70868W        W32289  11.861  31.977   2.269
70869W        W32290  15.769  44.866  12.073
70870W        W32291  42.878   1.408   4.700
70871W        W32292   5.890  29.930  10.592
70872W        W32293   7.698  16.090  11.470
70873W        W32294   9.212  38.972  14.920
70874W        W32295  40.332   6.233   0.850
70875W        W32296  25.599  16.610  12.892
70876W        W32297  36.566  18.555  11.420
70877W        W32298  34.970  32.562  11.999
70878W        W32299  30.976   8.785   0.875
70879W        W32300   3.410  33.079   0.364
70880W        W32301  13.341  12.715   5.213
70881W        W32302   9.885  26.157   3.792
70882W        W32303  28.173  18.586  11.039
70883W        W32304  39.967   6.888  14.828
70884W        W32305  36.080  24.040   3.273
70885W        W32306  25.539  38.360   2.755
70886W        W32307  14.780  20.667  13.975
70887W        W32308   3.306  30.104   1.409
70888W        W32309  30.534  43.365  14.460
70889W        W32310  30.921  36.025   4.214
70890W        W32311  15.314  11.176   4.119
70891W        W32312  34.596  25.050  11.923
70892W        W32313  11.137  43.308   1.737
70893W        W32314  12.312   8.293   0.359
70894W        W32315  16.075  27.519   1.431
70895W        W32316  16.280  35.027  11.095
70896W        W32317   5.259  14.202  12.431
70897W        W32318  31.609  40.973   1.225
70898W        W32319   6.185  28.609   4.686
70899W        W32320   3.320  41.386   4.677
70900W        W32321   8.315  42.941  11.435
70901W        W32322   0.403  39.974   3.680
70902W        W32323  37.384  44.398  14.418
70903W        W32324  15.167  21.570  11.441
70904W        W32325  41.801  36.410  11.606
70905W        W32326   5.821   1.852   9.501
70906W        W32327  14.618   5.384  14.499
70907W        W32328  28.536  18.171  14.805
70908W        W32329  35.057  33.551   1.816
70909W        W32330  18.722  37.525   2.838
70910W        W32331  31.641   9.728   0.414
70911W        W32332  42.935   3.405  13.006
70912W        W32333  30.473  10.729   0.809
70913W        W32334  37.369  15.180  11.457
70914W        W32335  33.969  17.800   0.831
70915W        W32336  10.359  39.957  12.566
70916W        W32337  33.987  20.735   2.764
70917W        W32338  16.732  19.675   1.344
70918W        W32339  13.612   7.736  12.938
70919W        W32340  32.043  39.521  12.355
70920W        W32341  14.125  12.799  11.425
70921W        W32342  23.197  19.546  14.431
70922W        W32343  31.930  24.554   1.405
70923W        W32344  42.867  21.565  10.524
70924W        W32345  29.975  32.945   0.445
70925W        W32346  13.840  30.037   3.661
70926W        W32347  42.311  21.581  10.578
70927W        W32348   0.921  19.753  12.987
70928W        W32349  30.091   4.725  11.425
70929W        W32350  28.533  12.183   0.748
70930W        W32351   0.291  12.148   1.331
70931W        W32352  28.165  30.097  13.939
70932W        W32353  33.921  25.510   0.259
70933W        W32354   1.960  38.504  14.294
70934W        W32355  13.204   1.355   0.927
70935W        W32356  10.361   1.374   2.893
70936W        W32357  37.989  27.123  14.896
70937W        W32358  22.124  38.917  10.558
70938W        W32359   6.348  10.771  10.623
70939W        W32360  20.686  29.651   0.764
70940W        W32361  36.986  12.231   1.713
70941W        W32362  11.787  23.491   2.837
70942W        W32363   4.788   8.836  13.832
70943W        W32364  26.951   5.913   3.796
70944W        W32365  40.892   7.252   1.232
70945W        W32366   0.984  32.977   1.424
70946W        W32367  36.987  17.655   3.678
70947W        W32368  12.157  16.695   0.293
70948W        W32369  10.790  28.074  13.415
70949W        W32370  10.160   2.797   0.848
70950W        W32371  34.414  17.738  14.372
70951W        W32372  38.490  38.998  12.353
70952W        W32373  34.894  26.498   3.777
70953W        W32374  10.762  10.785  11.489
70954W        W32375   0.390  29.648  14.799
70955W        W32376  40.433  28.637  11.381
70956W        W32377   7.791  20.657   2.826
70957W        W32378   6.919  35.093   4.195
70958W        W32379  35.585  15.187  12.537
70959W        W32380  19.144  30.462   1.305
70960W        W32381   3.272  37.921  11.877
70961W        W32382  21.567  30.479  11.926
70962W        W32383   6.676  36.394   4.208
70963W        W32384  19.237  43.801   1.444
70964W        W32385  43.764   5.238   0.872
70965W        W32386   4.804  40.470   4.836
70966W        W32387  19.735  31.041   2.773
70967W        W32388   0.957   1.896  12.580
70968W        W32389  28.502  26.136  12.455
70969W        W32390   7.378  43.509   0.394
70970W        W32391  10.351  28.580   0.456
70971W        W32392  44.337  27.025   4.625
70972W        W32393  19.599   6.297   3.842
70973W        W32394   6.364  17.583   0.751
70974W        W32395  13.266   3.422   4.662
70975W        W32396  24.499  34.952  13.807
70976W        W32397  32.903   8.744  10.904
70977W        W32398  19.570  29.482   0.248
70978W        W32399   0.827  31.029   9.525
70979W        W32400  19.720  33.922  13.497
70980W        W32401  17.560  22.131  14.998
70981W        W32402   8.752  18.644  14.780
70982W        W32403  38.439  35.584   4.134
70983W        W32404   7.258  43.371  12.408
70984W        W32405  31.059  23.639   2.203
70985W        W32406  10.848  13.317   4.750
70986W        W32407   7.743   4.246  10.476
70987W        W32408  28.970  36.440  12.370
70988W        W32409  36.564  36.084  10.123
70989W        W32410  34.489  18.261   1.329
70990W        W32411  13.322   6.922   3.346
70991W        W32412  25.479  19.738  11.504
70992W        W32413  38.539   8.671  14.784
70993W        W32414   6.254  43.287  14.920
70994W        W32415   1.239  32.912  14.400
70995W        W32416  26.470  38.484   1.248
70996W        W32417  15.284  28.556   0.816
70997W        W32418  35.512   9.777   3.860
70998W        W32419  18.666  26.584  14.491
70999W        W32420  30.483  25.498  13.382
71000W        W32421   0.857  36.989   4.208
71001W        W32422  23.571  40.972  11.955
71002W        W32423  19.158  38.452   1.443
71003W        W32424   1.803   9.348   4.790
71004W        W32425  33.979  25.116  14.457
71005W        W32426  33.889   0.849   0.811
71006W        W32427  15.778  37.407  10.504
71007W        W32428  36.480  33.492  13.474
71008W        W32429  18.137  10.299  11.425
71009W        W32430  39.445   9.360   4.129
71010W        W32431  38.891  12.176   4.269
71011W        W32432  44.858  43.923   1.443
71012W        W32433  42.980   3.851   1.369
71013W        W32434  31.604   7.848   4.270
71014W        W32435   0.791  42.354  10.589
71015W        W32436   4.944  25.597  14.451
71016W        W32437  18.072  33.575  13.973
71017W        W32438  14.781   5.220  13.055
71018W        W32439  14.659  30.469  13.395
71019W        W32440  25.499  19.099   2.309
71020W        W32441  18.646   0.388  11.495
71021W        W32442  19.563  10.657   0.790
71022W        W32443  15.287  13.725   0.900
71023W        W32444   3.424  26.700   1.450
71024W        W32445  30.944  35.952   2.665
71025W        W32446  38.895  39.866  11.000
71026W        W32447  23.675  20.529   2.377
71027W        W32448  41.422   1.440  11.026
71028W        W32449   2.772  17.672  12.951
71029W        W32450  43.304   0.827  13.517
71030W        W32451  29.427  40.537   0.844
71031W        W32452  29.526  27.640  11.928
71032W        W32453  12.133  32.025   4.144
71033W        W32454  22.053  11.321   1.220
71034W        W32455  35.068   4.221  13.040
71035W        W32456  42.883  22.039   0.373
71036W        W32457  19.543  12.267   1.844
71037W        W32458  16.103  33.105   2.870
71038W        W32459  12.828  10.677  13.809
71039W        W32460  21.646   4.245  14.832
71040W        W32461  27.692  17.265   2.262
71041W        W32462  28.447   6.921   3.765
71042W        W32463  22.671  13.115   4.119
71043W        W32464  20.233  21.739   0.361
71044W        W32465  40.486  31.590   3.641
71045W        W32466  25.157  36.007  13.491
71046W        W32467  39.863  38.879  10.891
71047W        W32468   9.878  35.909  12.453
71048W        W32469  29.579  32.500  12.524
71049W        W32470  23.027  39.055   3.382
71050W        W32471  33.389  23.583  13.533
71051W        W32472  29.049  31.969  12.849
71052W        W32473  17.111  40.419   3.220
71053W        W32474  25.667  25.986   3.358
71054W        W32475  28.445  42.300  14.430
71055W        W32476  37.045  41.940  12.402
71056W        W32477  33.448  43.484  14.762
71057W        W32478  27.526  21.066   3.712
71058W        W32479  14.248  21.032  12.471
71059W        W32480  38.823   5.705   4.812
71060W        W32481  39.484   9.332  13.386
71061W        W32482  27.582  11.769   9.514
71062W        W32483   2.845  25.647   2.223
71063W        W32484  38.831  23.646  13.431
71064W        W32485  38.836  41.895   4.265
71065W        W32486  42.961  14.741   3.354
71066W        W32487  24.975  33.967   2.671
71067W        W32488  43.849  19.278   4.232
71068W        W32489  44.318   6.709  13.409
71069W        W32490  16.074  35.933  14.824
71070W        W32491  30.975  12.665  12.886
71071W        W32492  23.531  43.998   2.280
71072W        W32493  44.918  23.125   0.737
71073W        W32494  14.628   0.928  14.940
71074W        W32495   4.746   1.806   1.771
71075W        W32496  12.300  15.700  10.079
71076W        W32497  33.049  22.607   2.298
71077W        W32498  40.332  37.869  11.975
71078W        W32499  26.572   7.884   2.289
71079W        W32500  13.235  15.739  11.081
71080W        W32501  25.992  13.696  11.568
71081W        W32502  35.436  25.152   3.177
71082W        W32503   2.245  24.228   2.774
71083W        W32504  28.074  39.933  12.824
71084W        W32505  29.056   5.411  10.541
71085W        W32506   9.736  17.093   2.881
71086W        W32507  38.510  31.496  11.480
71087W        W32508  34.020  31.601  13.054
71088W        W32509   9.345   2.730  14.301
71089W        W32510  33.046  15.258  14.962
71090W        W32511  42.459   1.416  13.348
71091W        W32512  11.255  43.828   1.348
71092W        W32513  44.393  35.887   3.693
71093W        W32514   9.876  32.437   3.249
71094W        W32515  24.124  24.000  14.009
71095W        W32516   2.833   5.404  10.955
71096W        W32517   9.693  21.228   4.131
71097W        W32518  41.002  38.855   4.602
71098W        W32519  22.530  34.592   0.848
71099W        W32520  24.991  16.152  14.760
71100W        W32521  37.907  19.721  11.039
71101W        W32522  24.174  44.456  14.332
71102W        W32523   7.863  42.359   5.272
71103W        W32524  31.004   4.220   0.384
71104W        W32525  12.758   8.895   3.306
71105W        W32526  23.098  25.155  12.485
71106W        W32527  35.422   8.795   4.817
71107W        W32528   4.393   5.392  12.852
71108W        W32529  13.163  13.137  12.869
71109W        W32530  40.818  11.684  14.365
71110W        W32531  34.460  29.144  11.550
71111W        W32532  11.838  39.460  12.456
71112W        W32533   2.367   8.269  10.575
71113W        W32534   5.240   5.932   4.813
71114W        W32535  25.588  31.152  10.487
71115W        W32536  33.392  34.966   3.854
71116W        W32537   4.815  34.369  12.465
71117W        W32538  27.558   3.907  13.418
71118W        W32539   7.811  27.952  10.897
71119W        W32540  30.441  25.162   3.637
71120W        W32541  38.955  40.504  12.420
71121W        W32542  31.112   5.213   4.606
71122W        W32543  29.614  26.539   3.658
71123W        W32544   0.270   5.916  10.904
71124W        W32545  25.565  39.880  12.439
71125W        W32546  16.251  42.798   1.852
71126W        W32547  44.406  26.126  10.115
71127W        W32548  19.545   2.738  14.424
71128W        W32549  34.869  41.524   4.697
71129W        W32550   3.750  41.919  10.631
71130W        W32551  21.241  30.480   4.694
71131W        W32552  23.659  20.581  11.944
71132W        W32553  29.025  11.826   3.296
71133W        W32554  43.917   4.898   3.151
71134W        W32555  30.459  14.202   4.270
71135W        W32556  42.381  13.293   5.726
71136W        W32557  38.358  23.506   1.883
71137W        W32558  43.512  18.681   1.711
71138W        W32559  13.814  44.892   0.411
71139W        W32560  15.818   9.646   4.643
71140W        W32561  31.999  16.191   2.310
71141W        W32562  36.885   5.792  13.463
71142W        W32563  36.060   1.763   5.162
71143W        W32564  43.356  42.006  12.003
71144W        W32565  16.175  16.799  12.011
71145W        W32566  42.892  39.396   1.221
71146W        W32567   8.321  40.433   0.293
71147W        W32568  31.137   5.775   3.812
71148W        W32569  30.149  43.446  13.328
71149W        W32570  18.125  14.114   1.388
71150W        W32571  41.379  44.355  12.866
71151W        W32572  35.104  44.826   4.212
71152W        W32573   5.779   8.806  10.490
71153W        W32574  11.152   6.900  12.838
71154W        W32575  44.838  42.929   3.710
71155W        W32576   3.296   7.827   4.823
71156W        W32577  24.569  29.577   3.377
71157W        W32578  13.261  32.454   1.877
71158W        W32579  17.768  27.468  12.034
71159W        W32580  35.921  12.781   0.796
71160W        W32581   2.245  27.515  10.993
71161W        W32582  27.534  24.147  14.285
71162W        W32583  39.524  42.783   4.255
71163W        W32584  34.912  32.892   3.328
71164W        W32585   4.790  41.042   3.319
71165W        W32586  25.196   0.291   2.848
71166W        W32587  12.773  40.353  13.014
71167W        W32588  12.361   7.785   4.190
71168W        W32589  25.217  32.989  12.885
71169W        W32590  24.497   6.357   1.829
71170W        W32591  43.354   8.199  14.298
71171W        W32592  19.229  36.489  10.946
71172W        W32593   7.403   2.385   2.662
71173W        W32594  40.428  30.163   0.744
71174W        W32595   6.849  28.488  13.377
71175W        W32596  27.034  42.848  13.497
71176W        W32597   5.225  11.164  13.335
71177W        W32598   3.740  27.645   1.267
71178W        W32599  16.104  15.227  13.408
71179W        W32600  27.996   0.391   3.239
71180W        W32601   4.937  37.932  13.423
71181W        W32602  20.107  37.083  13.868
71182W        W32603  38.842   1.439   0.785
71183W        W32604   9.316  32.549  12.363
71184W        W32605  35.932  21.756  14.391
71185W        W32606  29.468  21.237   3.251
71186W        W32607  18.588   2.917   1.315
71187W        W32608   1.828  25.468   1.827
71188W        W32609  30.114  19.217  11.860
71189W        W32610  18.749  33.002   0.466
71190W        W32611  41.382  38.496   1.716
71191W        W32612  44.852  21.056  11.427
71192W        W32613   3.878  18.757  11.478
71193W        W32614  29.116  22.724  13.308
71194W        W32615  44.443  24.663   4.600
71195W        W32616  23.690  26.998  14.286
71196W        W32617  14.760  28.029  12.014
71197W        W32618  28.996  37.931  12.909
71198W        W32619   8.260  13.177  13.939
71199W        W32620  37.510  30.579   1.439
71200W        W32621  15.143  41.308   1.241
71201W        W32622  24.086  41.034  12.535
71202W        W32623  31.115   7.323  11.930
71203W        W32624  25.158  15.286   0.883
71204W        W32625  33.945  30.987  12.969
71205W        W32626   9.201  12.727  14.440
71206W        W32627  38.374   5.242  13.839
71207W        W32628  10.236  15.215  11.995
71208W        W32629   7.782  30.591   4.351
71209W        W32630  39.977   3.343   1.830
71210W        W32631  34.370  44.914  11.445
71211W        W32632   0.761  44.917  11.554
71212W        W32633  34.924   5.361  14.925
71213W        W32634  18.570  18.117   3.750
71214W        W32635  10.852  42.892   4.132
71215W        W32636  21.614  11.190   2.300
71216W        W32637  19.089  16.679   3.359
71217W        W32638  29.138  24.057  11.918
71218W        W32639  31.074  13.670   4.778
71219W        W32640  43.286   3.360  11.077
71220W        W32641   1.451  38.457  11.575
71221W        W32642   9.743  27.661   3.167
71222W        W32643  41.321  26.068   3.675
71223W        W32644  42.988  36.528   1.260
71224W        W32645  37.905  11.202  11.530
71225W        W32646  42.997  15.823  13.401
71226W        W32647  20.538  41.884  11.477
71227W        W32648  33.621  16.669   2.823
71228W        W32649  15.706   3.787   2.781
71229W        W32650  39.375  27.154   0.750
71230W        W32651  33.445  25.693  10.621
71231W        W32652  18.565  34.433   2.300
71232W        W32653  39.001   6.307   2.715
71233W        W32654  41.484  25.484  12.027
71234W        W32655  28.054  12.704   2.252
71235W        W32656  35.490  15.691   2.676
71236W        W32657  25.572   5.256   4.792
71237W        W32658   1.329  43.816  14.331
71238W        W32659  42.988  30.630   1.231
71239W        W32660  40.935  12.757   3.665
71240W        W32661  26.504   6.821  12.900
71241W        W32662  25.161   0.872  14.484
71242W        W32663  31.142  43.437  12.091
71243W        W32664  29.598  43.944  10.413
71244W        W32665  17.158  26.111  11.516
71245W        W32666  12.130  30.916   0.865
71246W        W32667  16.746  16.780  13.895
71247W        W32668  39.854  19.728   2.865
71248W        W32669   2.253  25.621  12.542
71249W        W32670  39.974  34.598  12.827
71250W        W32671  42.814  27.123  13.518
71251W        W32672  21.039  11.848  12.452
71252W        W32673   0.759  23.569  10.929
71253W        W32674  16.758   7.179  14.338
71254W        W32675  28.975   7.262   0.366
71255W        W32676  42.790  14.705   1.702
71256W        W32677   7.195  29.532   1.719
71257W        W32678  38.895   7.315  10.149
71258W        W32679  20.702  39.023   1.236
71259W        W32680  42.944  12.840  12.070
71260W        W32681  20.632   7.842   4.303
71261W        W32682  25.614  34.500   2.248
71262W        W32683  39.459  27.127   4.347
71263W        W32684  19.639   0.331   0.365
71264W        W32685  13.746   1.259  14.367
71265W        W32686  26.602  40.475  14.357
71266W        W32687  16.629  18.598   0.260
71267W        W32688  39.917   8.287   0.905
71268W        W32689  19.693  28.029   2.782
71269W        W32690  26.125   0.340  12.869
71270W        W32691  42.398  33.615  10.905
71271W        W32692  31.902  40.385   4.151
71272W        W32693  20.759   4.836  13.513
71273W        W32694  26.127  24.179   1.350
71274W        W32695  19.195  39.540   0.470
71275W        W32696  23.544  40.012   4.162
71276W        W32697  26.192  13.626  13.995
71277W        W32698  14.315  20.109  13.325
71278W        W32699  25.155   3.807  10.531
71279W        W32700  27.468  37.017  13.991
71280W        W32701  39.419   5.241   0.919
71281W        W32702  38.051   9.171   3.652
71282W        W32703  27.053  24.217   0.383
71283W        W32704  13.772  37.880  11.909
71284W        W32705  39.903  37.044  13.846
71285W        W32706  36.033  38.513   3.197
71286W        W32707  30.643  15.755   0.445
71287W        W32708   4.360  25.081  10.634
71288W        W32709   3.387   8.230   4.824
71289W        W32710  18.151  28.490   1.773
71290W        W32711   3.232  18.678   0.746
71291W        W32712  19.130  21.054   1.807
71292W        W32713   8.680  19.071  13.966
71293W        W32714  25.089  14.687  11.470
71294W        W32715  13.249  15.581   2.683
71295W        W32716  34.447  40.506  14.873
71296W        W32717  42.520  19.221   1.252
71297W        W32718  13.724  41.454  10.419
71298W        W32719  27.603  25.502  10.450
71299W        W32720   5.256   7.874   2.406
71300W        W32721  24.126  14.662   4.619
71301W        W32722   8.180  18.069  11.073
71302W        W32723  20.709  24.033   1.386
71303W        W32724  10.353   4.207   9.963
71304W        W32725  10.649  31.452  13.800
71305W        W32726  41.459  24.612   1.427
71306W        W32727  10.254  14.651   3.254
71307W        W32728  31.567   3.871   4.294
71308W        W32729  29.478  37.914   2.364
71309W        W32730  14.746  18.554  10.507
71310W        W32731  43.322  40.950  13.371
71311W        W32732  28.461  19.776  12.964
71312W        W32733  35.026  37.965   0.734
71313W        W32734   9.720  34.519  11.059
71314W        W32735  18.656   5.402  14.873
71315W        W32736  40.043  25.470   1.757
71316W        W32737  12.241  14.710  12.981
71317W        W32738  17.244   2.419  11.559
71318W        W32739  20.740  31.496   2.301
71319W        W32740  13.281   4.342   1.797
71320W        W32741  16.135  24.158  13.545
71321W        W32742  16.282  17.667  13.933
71322W        W32743  27.494  36.019   2.291
71323W        W32744   5.439  24.014   0.469
71324W        W32745   3.788  36.528  11.107
71325W        W32746  19.141  32.908  10.626
71326W        W32747  39.427  27.132  12.354
71327W        W32748  37.561  41.033   1.874
71328W        W32749  33.989   2.423  13.432
71329W        W32750   4.406   9.769   2.840
71330W        W32751  32.415  39.358   4.832
71331W        W32752   9.780  24.621   2.670
71332W        W32753  25.067  40.334   1.228
71333W        W32754  30.488   6.751   1.747
71334W        W32755  17.301  12.299  14.447
71335W        W32756  38.540  19.056   4.809
71336W        W32757  17.591   7.722  11.443
71337W        W32758  40.420   6.782  11.912
71338W        W32759   6.701  34.034  13.863
71339W        W32760  37.023  35.883   3.196
71340W        W32761  41.346   4.708   3.172
71341W        W32762  20.764  43.778  11.593
71342W        W32763   5.792  37.354  10.049
71343W        W32764  27.550   1.886  12.537
71344W        W32765  13.745  13.185  14.937
71345W        W32766   6.917  12.736   1.906
71346W        W32767   7.305  44.917  13.961
71347W        W32768  17.585   5.339  13.422
71348W        W32769  19.722  37.001   2.826
71349W        W32770  30.937  38.498  14.888
71350W        W32771  24.693  14.103  13.995
71351W        W32772  41.445   1.358   4.267
71352W        W32773   3.447   2.786   3.306
71353W        W32774  19.140  32.607   4.697
71354W        W32775  39.843  34.072   3.368
71355W        W32776  41.970   5.873  13.493
71356W        W32777   6.696   4.902  12.511
71357W        W32778  14.339  21.208   3.236
71358W        W32779   7.392  20.039  13.389
71359W        W32780  12.184  13.317  11.584
71360W        W32781   9.218  44.780   1.841
71361W        W32782  26.026  44.791  13.477
71362W        W32783  35.579  13.172  14.282
71363W        W32784  26.044  13.154  13.873
71364W        W32785  20.154  10.155   1.214
71365W        W32786  10.196  13.264  14.408
71366W        W32787   1.955  19.105   4.204
71367W        W32788   9.737  43.989  10.579
71368W        W32789  44.811  32.055   3.206
71369W        W32790  14.317  42.809  11.600
71370W        W32791  36.895  18.559  11.909
71371W        W32792  30.107   8.831  12.460
71372W        W32793  12.210  22.215  11.523
71373W        W32794   2.345  26.202   4.321
71374W        W32795   0.775  26.666  10.930
71375W        W32796  29.459  26.037   1.281
71376W        W32797  14.116  30.938  11.970
71377W        W32798  32.431  30.977   4.190
71378W        W32799  31.938  23.212   2.769
71379W        W32800  28.013  15.656   2.344
71380W        W32801   8.220  23.109  13.456
71381W        W32802  12.701  28.931   0.948
71382W        W32803   0.257   6.219   4.747
71383W        W32804   4.207  20.670   1.819
71384W        W32805  23.545  23.116   1.253
71385W        W32806  16.659  39.398  13.000
71386W        W32807  11.189  42.862  13.845
71387W        W32808  21.038   7.799   0.760
71388W        W32809   5.257  18.254  11.995
71389W        W32810   7.816  31.025   3.175
71390W        W32811  12.267  41.962  13.856
71391W        W32812  18.075  12.333  10.072
71392W        W32813   9.797  20.090   0.888
71393W        W32814  24.223  41.996   0.797
71394W        W32815   4.731   2.439  13.493
71395W        W32816  38.329  39.810  11.493
71396W        W32817  19.734  25.049  14.792
71397W        W32818   3.245  28.962   2.185
71398W        W32819  23.135  37.434  12.842
71399W        W32820  29.034  29.141  12.571
71400W        W32821  19.726  14.287  14.916
71401W        W32822  24.588   1.292  10.945
71402W        W32823  37.849  19.775   4.212
71403W        W32824  38.056   1.269  10.587
71404W        W32825  31.094  34.595   0.816
71405W        W32826  32.044   1.317  14.991
71406W        W32827  25.164   1.890   1.295
71407W        W32828  23.210   3.804   2.362
71408W        W32829  35.103  30.599  14.297
71409W        W32830  10.363  14.804  11.028
71410W        W32831  11.817  32.029  11.463
71411W        W32832  28.158  27.036   9.976
71412W        W32833  31.900  24.722   3.350
71413W        W32834  43.304  30.946  10.609
71414W        W32835  19.208   6.878   2.751
71415W        W32836  33.487  33.548   4.775
71416W        W32837  12.783  37.567   3.197
71417W        W32838   0.459  10.185  13.366
71418W        W32839  18.655  41.900  13.914
71419W        W32840  40.353  37.424  14.283
71420W        W32841  39.875  18.601   1.879
71421W        W32842  20.177  13.778   5.603
71422W        W32843  41.536   1.752   2.238
71423W        W32844  21.133  22.015   0.929
71424W        W32845  25.679   9.336   4.209
71425W        W32846  38.520  16.674  10.535
71426W        W32847  32.626   7.328   2.815
71427W        W32848  27.080  11.823   2.815
71428W        W32849  12.269   0.767   1.741
71429W        W32850   6.898   0.910  10.055
71430W        W32851  11.137   3.925   2.664
71431W        W32852  30.505  38.060  13.375
71432W        W32853   6.200   7.849  10.922
71433W        W32854  28.628  38.992  11.904
71434W        W32855  30.932  20.086  10.440
71435W        W32856  41.882  22.683  10.634
71436W        W32857  42.313  10.661  13.918
71437W        W32858  33.060  28.675  11.019
71438W        W32859  30.480  32.635   0.797
71439W        W32860  13.220   2.300  13.410
71440W        W32861  38.521  40.037   2.869
71441W        W32862  27.026  44.893  11.571
71442W        W32863  28.045  30.443  12.983
71443W        W32864  39.964  28.511   2.293
71444W        W32865  14.322  35.401  13.935
71445W        W32866  19.547  26.064  10.583
71446W        W32867   2.382  11.219  11.568
71447W        W32868  31.604  11.824   2.413
71448W        W32869  27.624  21.200   2.349
71449W        W32870   9.159  33.533   1.292
71450W        W32871  18.741  11.275  10.439
71451W        W32872   3.768   8.817  11.524
71452W        W32873  30.605  20.722   4.280
71453W        W32874  33.957  13.299  10.482
71454W        W32875  17.687  36.409   1.869
71455W        W32876  36.390  44.294   3.630
71456W        W32877  21.093  29.464   5.094
71457W        W32878  32.056  11.156   1.297
71458W        W32879   1.341  37.042  12.934
71459W        W32880   9.768  29.645   2.662
71460W        W32881   2.461  20.048  13.472
71461W        W32882  24.196  12.136   0.423
71462W        W32883  33.542  25.143   2.891
71463W        W32884   2.245  38.058  14.386
71464W        W32885   0.888  17.231   1.213
71465W        W32886  31.584  11.188  13.041
71466W        W32887  29.962   3.858   1.838
71467W        W32888  37.395  15.328   5.272
71468W        W32889   8.772   2.307  14.398
71469W        W32890  17.237  37.024  13.913
71470W        W32891  33.429  18.221  12.340
71471W        W32892  35.015  29.104   4.131
71472W        W32893   9.707  35.370   4.154
71473W        W32894  21.227  17.734  11.412
71474W        W32895   5.193  42.522  13.899
71475W        W32896  21.106   2.410   2.270
71476W        W32897   2.402  35.510  13.932
71477W        W32898   7.228  20.029  10.448
71478W        W32899  21.093   9.245  10.531
71479W        W32900   9.702   9.764  13.063
71480W        W32901  23.099   1.929  13.390
71481W        W32902  33.068   4.246   2.391
71482W        W32903  23.216   7.384   4.702
71483W        W32904   8.361  11.160   1.734
71484W        W32905  37.483  32.565  10.887
71485W        W32906  39.001  20.185  10.942
71486W        W32907   2.289  11.738   3.164
71487W        W32908  40.540  28.653  10.896
71488W        W32909  23.072  39.818  10.473
71489W        W32910  43.924  17.759  11.438
71490W        W32911  34.070  30.441  12.419
71491W        W32912   0.253  15.782   4.286
71492W        W32913   7.289  42.501  10.081
71493W        W32914  42.368   0.958  12.918
71494W        W32915   6.890  10.864   1.876
71495W        W32916  25.524  38.993  14.011
71496W        W32917  26.697  34.513  11.869
71497W        W32918   1.308  23.004  11.016
71498W        W32919  27.107   7.227  13.969
71499W        W32920  40.427  17.678  14.970
71500W        W32921  13.823   4.445  11.583
71501W        W32922   5.361  33.941  11.490
71502W        W32923  32.911  37.491   3.860
71503W        W32924  43.018  21.573  14.918
71504W        W32925  10.146   9.377  12.380
71505W        W32926   6.728  41.519   4.239
71506W        W32927  37.859  25.163   0.359
71507W        W32928  34.526  11.214   1.232
71508W        W32929   9.760  10.239   4.248
71509W        W32930   2.804  41.301  11.882
71510W        W32931  37.916  15.689  10.563
71511W        W32932  36.978  15.199   2.892
71512W        W32933  21.064   2.243  11.046
71513W        W32934  24.190  27.146  10.958
71514W        W32935  32.063   8.663  12.462
71515W        W32936  37.486  11.740  11.387
71516W        W32937  37.440  39.981  12.385
71517W        W32938   7.308  32.044   4.227
71518W        W32939  16.130   4.205  10.458
71519W        W32940  19.067   0.867  11.990
71520W        W32941   7.828  15.652   0.459
71521W        W32942  11.808   7.211   3.740
71522W        W32943   9.765  30.629  14.801
71523W        W32944   6.345  30.443  12.846
71524W        W32945   5.689  22.714   3.661
71525W        W32946  33.999  42.449   3.653
71526W        W32947  33.557   9.314  13.358
71527W        W32948   2.352  33.036   4.237
71528W        W32949   0.313  23.540  13.504
71529W        W32950  42.315  42.334  13.843
71530W        W32951  33.406  43.309   4.815
71531W        W32952  22.178  39.537  14.770
71532W        W32953  22.020  20.180   4.259
71533W        W32954  20.273  44.431   3.333
71534W        W32955  14.658  27.654  10.904
71535W        W32956  32.578  40.861  14.973
71536W        W32957  43.949   1.775   1.365
71537W        W32958  31.630  36.917   4.614
71538W        W32959  37.935  23.610   3.239
71539W        W32960  40.313  42.980   1.881
71540W        W32961  20.185  20.615  13.521
71541W        W32962  34.501  11.359   0.964
71542W        W32963   1.446  44.762  11.110
71543W        W32964   4.319  28.572   4.268
71544W        W32965  18.281  22.079   0.329
71545W        W32966  28.538  25.616   2.823
71546W        W32967  38.981  37.522  13.438
71547W        W32968  29.163  38.937  13.854
71548W        W32969  32.117  19.212   2.744
71549W        W32970  14.329  24.978   3.851
71550W        W32971  38.426  43.454   1.871
71551W        W32972  22.168  42.517  11.015
71552W        W32973  16.621   9.775  11.537
71553W        W32974  43.831  43.981  11.476
71554W        W32975  29.012  10.274   1.412
71555W        W32976  34.981   3.261  12.963
71556W        W32977   2.828  42.300   0.288
71557W        W32978  29.487  23.194  12.569
71558W        W32979  35.455  11.135   3.780
71559W        W32980  32.964  41.003   3.339
71560W        W32981   4.248   5.247   3.723
71561W        W32982   4.742  14.192   2.196
71562W        W32983  23.522   0.312  14.874
71563W        W32984  41.873  13.350   2.873
71564W        W32985   0.472  43.931  12.826
71565W        W32986  10.231  18.082   3.815
71566W        W32987   1.268   1.734  11.552
71567W        W32988   7.756   6.804  10.967
71568W        W32989   9.167  44.423  13.020
71569W        W32990  40.395  44.885   3.315
71570W        W32991  41.467  26.158  12.414
71571W        W32992  37.043  10.216   1.772
71572W        W32993  20.251  42.932   0.825
71573W        W32994  43.474  28.585  10.590
71574W        W32995   7.832  36.480  14.408
71575W        W32996  36.531  35.530   1.296
71576W        W32997   0.398  26.197  13.356
71577W        W32998  32.405  41.888  12.063
71578W        W32999   2.866  38.949   3.300
71579W        W33000  15.655  18.599   2.306
71580W        W33001  13.171  29.970  12.559
71581W        W33002  41.408  31.914  14.371
71582W        W33003  21.026  18.160   2.302
71583W        W33004   3.323  41.496  11.867
71584W        W33005   9.727  19.565   1.900
71585W        W33006  16.760  38.326   3.274
71586W        W33007  17.188  30.544  10.561
71587W        W33008  28.126  10.797  11.022
71588W        W33009  43.016  15.738  14.024
71589W        W33010  31.492   8.713   2.824
71590W        W33011  17.246  29.438  14.509
71591W        W33012  34.045  42.500  13.805
71592W        W33013   0.437  25.981  11.556
71593W        W33014  22.613  16.288  11.538
71594W        W33015  40.937  14.642  13.377
71595W        W33016  22.041  21.248  14.469
71596W        W33017   7.214  10.762   0.473
71597W        W33018  13.292  18.134  13.389
71598W        W33019  27.170  35.445  10.536
71599W        W33020  30.088  37.565  12.578
71600W        W33021   0.274  20.066   2.338
71601W        W33022  20.115  21.241  14.794
71602W        W33023  23.157   1.930   4.770
71603W        W33024  14.141   0.344  13.964
71604W        W33025  11.133  43.984   4.767
71605W        W33026   4.773  42.849   3.254
71606W        W33027  38.850  11.842  11.929
71607W        W33028  11.236  21.619   1.761
71608W        W33029   4.337  33.577   1.755
71609W        W33030  23.693   5.756  14.991
71610W        W33031  23.589  37.986  14.405
71611W        W33032  29.931  27.155  12.490
71612W        W33033   6.198  33.559  11.104
71613W        W33034  23.069  22.087  11.103
71614W        W33035  11.291  23.547  13.403
71615W        W33036  17.263  24.508   2.732
71616W        W33037  36.042  30.021  11.860
71617W        W33038   0.395  27.673   4.739
71618W        W33039  28.949  39.508   1.851
71619W        W33040  36.071  29.452   2.810
71620W        W33041  30.083  19.168  10.510
71621W        W33042  35.904   4.924   3.841
71622W        W33043  21.657  37.559   2.230
71623W        W33044   5.807   5.871   1.403
71624W        W33045  41.896  18.249  11.107
71625W        W33046  29.580   8.345   2.345
71626W        W33047  17.091  37.488  14.928
71627W        W33048   1.467  11.841   4.345
71628W        W33049   2.751   3.461   0.926
71629W        W33050  39.954  15.250  14.912
71630W        W33051  35.416  33.101  14.031
71631W        W33052  37.345   0.749  12.568
71632W        W33053   4.300   4.865   0.897
71633W        W33054  16.670  24.165  14.497
71634W        W33055  26.053  41.439  10.997
71635W        W33056  44.260  25.580  14.434
71636W        W33057   8.164  16.281  14.891
71637W        W33058  32.002  32.557   2.820
71638W        W33059  36.510  37.002   3.326
71639W        W33060  41.941  37.431  12.062
71640W        W33061  14.696  41.295  13.441
71641W        W33062  43.319  17.177  11.046
71642W        W33063  26.489  38.989  12.389
71643W        W33064   8.162  44.364   1.444
71644W        W33065  23.506   0.318   3.837
71645W        W33066   4.923  35.460  11.439
71646W        W33067  20.603  25.164   1.848
71647W        W33068  28.580  44.901  10.950
71648W        W33069  22.131  12.784  11.118
71649W        W33070  16.127  39.970   4.184
71650W        W33071  11.280   0.955   3.358
71651W        W33072  39.922  32.403   0.964
71652W        W33073  37.395  39.526  11.870
71653W        W33074  22.584  30.017   9.987
71654W        W33075  26.192   6.785   5.729
71655W        W33076  39.534  15.190   3.638
71656W        W33077  19.727  10.194  14.943
71657W        W33078   9.373  23.039   4.321
71658W        W33079  16.635  37.406   4.323
71659W        W33080  20.148  19.241   0.264
71660W        W33081  24.627  15.217  13.948
71661W        W33082  12.727  41.301  14.907
71662W        W33083  33.116  20.749  12.828
71663W        W33084  38.516  37.496   0.829
71664W        W33085  29.931  20.591  11.494
71665W        W33086  24.109  32.994  14.948
71666W        W33087  42.018  34.392   1.787
71667W        W33088   7.345  44.985  12.066
71668W        W33089  36.064   2.962   0.785
71669W        W33090  30.021  37.494  13.341
71670W        W33091  14.778  32.404   5.097
71671W        W33092  24.671  36.421  13.874
71672W        W33093  38.849  32.930  12.524
71673W        W33094  19.574  26.204   2.355
71674W        W33095  25.497   7.899  14.934
71675W        W33096  19.244   9.660  10.934
71676W        W33097  39.443   1.290   1.709
71677W        W33098  27.543  28.107  13.504
71678W        W33099   8.169  14.626   1.816
71679W        W33100   7.268  22.172  14.894
71680W        W33101  35.548  18.102   0.415
71681W        W33102   2.789   5.438  13.535
71682W        W33103  35.455  21.262  13.361
71683W        W33104   0.339   1.261   1.821
71684W        W33105  36.019  25.604   1.771
71685W        W33106   4.323  12.821   2.378
71686W        W33107  25.501  19.058  10.575
71687W        W33108  22.660  27.954  12.418
71688W        W33109  42.334  22.550  11.077
71689W        W33110  34.083  18.149   0.739
71690W        W33111  17.694  21.690   4.332
71691W        W33112  37.945  32.136  14.438
71692W        W33113  29.598  38.974  12.503
71693W        W33114  20.272  35.602   4.697
71694W        W33115  28.541  27.562  13.818
71695W        W33116  23.564  25.531   3.837
71696W        W33117  23.127  10.793   3.275
71697W        W33118  37.494  21.062   2.349
71698W        W33119  34.570   6.751  11.494
71699W        W33120  19.206  16.612   2.326
71700W        W33121   7.694  41.403   2.685
71701W        W33122   3.941  30.532   2.831
71702W        W33123  13.177  19.254   4.334
71703W        W33124   0.931  22.527  10.618
71704W        W33125  15.774  40.982   1.420
71705W        W33126  44.416  37.069   1.848
71706W        W33127  18.279   1.792  14.408
71707W        W33128  12.310  23.535  14.368
71708W        W33129   4.401  39.977  14.776
71709W        W33130  11.685  11.660  13.044
71710W        W33131  34.508  30.044  14.403
71711W        W33132  33.910  11.155  10.443
71712W        W33133  44.814  10.640  13.016
71713W        W33134  28.487  31.062  10.918
71714W        W33135  35.476  41.496  11.543
71715W        W33136  13.202   3.408   3.674
71716W        W33137  38.413  42.996   2.711
71717W        W33138  31.536   3.322  14.992
71718W        W33139  41.930   4.787   3.148
71719W        W33140  33.532  16.748   4.690
71720W        W33141  26.683  37.924  14.817
71721W        W33142   3.399   1.733  11.419
71722W        W33143   5.824  28.566  12.566
71723W        W33144  19.558  14.300   1.344
71724W        W33145  30.558  10.647  12.058
71725W        W33146  21.687  24.973  12.044
71726W        W33147  13.107  19.777  13.944
71727W        W33148   9.312  36.558   1.788
71728W        W33149  28.535  14.790  11.510
71729W        W33150  21.685  28.150  14.799
71730W        W33151  19.634  17.218  12.576
71731W        W33152  41.396  15.210  14.461
71732W        W33153  21.161  19.617  13.340
71733W        W33154  10.687  31.619   4.788
71734W        W33155   2.792  23.649  11.893
71735W        W33156  24.146  14.320   1.212
71736W        W33157  10.222  36.018   0.886
71737W        W33158   3.235   8.722  10.101
71738W        W33159  36.422  24.486  14.799
71739W        W33160  20.764   0.769  11.908
71740W        W33161  13.722  21.157   4.738
71741W        W33162   1.304  20.161   2.413
71742W        W33163  41.489   8.327  13.914
71743W        W33164   8.898  24.573  11.524
71744W        W33165  35.063  40.319  13.840
71745W        W33166   4.301   7.271  14.298
71746W        W33167  16.611   6.210  12.905
71747W        W33168  22.223  41.040  11.919
71748W        W33169  33.489   2.753   1.769
71749W        W33170  33.402  17.062  11.039
71750W        W33171  35.602  23.005   2.376
71751W        W33172   9.210   6.892   0.445
71752W        W33173  35.429  22.199  14.498
71753W        W33174  27.161   0.810  11.947
71754W        W33175  19.599  34.102  11.114
71755W        W33176  43.769  10.217   0.332
71756W        W33177  16.570   9.807  12.045
71757W        W33178  41.464  31.057   2.201
71758W        W33179  34.462  38.447  11.501
71759W        W33180   1.359   1.455  14.960
71760W        W33181  41.294  33.504  11.437
71761W        W33182  38.550  29.452  12.091
71762W        W33183  44.971  11.273   2.685
71763W        W33184   0.811  14.803  11.380
71764W        W33185  39.848  18.181   3.854
71765W        W33186  10.144  37.984  13.452
71766W        W33187   5.331  32.918  10.497
71767W        W33188  28.525  18.146   1.719
71768W        W33189  18.122  36.347  11.893
71769W        W33190  35.412  37.911  10.534
71770W        W33191  20.166  11.791   1.709
71771W        W33192  15.143  14.636   3.680
71772W        W33193  42.374   9.847   1.297
71773W        W33194  36.003  38.366   0.859
71774W        W33195  11.177  35.106  12.073
71775W        W33196  19.614   4.889   4.757
71776W        W33197  21.587   5.820  11.885
71777W        W33198  28.676  35.583   2.838
71778W        W33199  20.607  16.791  12.514
71779W        W33200  37.479  40.341  11.075
71780W        W33201  35.000   6.293  14.814
71781W        W33202  29.053  36.555  11.579
71782W        W33203  21.180  21.677   3.813
71783W        W33204   6.771   4.403   1.450
71784W        W33205  35.924   2.366   1.396
71785W        W33206  42.347   5.245  14.348
71786W        W33207  16.787  26.193   2.280
71787W        W33208  23.715   2.330   1.325
71788W        W33209  39.815  28.594   2.858
71789W        W33210  28.129  25.602  14.775
71790W        W33211  15.701   0.923   1.227
71791W        W33212  41.481  31.085   4.779
71792W        W33213  43.281  34.042   3.766
71793W        W33214  21.557  35.858  14.995
71794W        W33215  36.496  39.522  13.015
71795W        W33216  19.130  21.246  14.788
71796W        W33217  19.534   7.887   1.862
71797W        W33218  41.362   4.314   3.644
71798W        W33219  38.883  10.381   5.188
71799W        W33220  18.714  17.307  13.894
71800W        W33221  17.614  43.016  13.858
71801W        W33222  23.071  17.271   3.178
71802W        W33223  34.591  21.650  11.410
71803W        W33224  37.986  37.905   2.858
71804W        W33225  42.527  24.227   4.195
71805W        W33226  15.329  31.146  11.935
71806W        W33227  40.032  16.806  13.995
71807W        W33228  37.840  43.316  12.560
71808W        W33229  20.679  32.104  14.941
71809W        W33230  25.607  27.669   1.776
71810W        W33231  25.569  44.935   0.277
71811W        W33232  19.706  15.243   2.687
71812W        W33233  16.743  44.352  12.573
71813W        W33234  32.971  23.193  14.322
71814W        W33235  22.174  40.404  13.447
71815W        W33236  41.483  11.332   1.366
71816W        W33237  40.404  24.989   1.733
71817W        W33238  37.837   0.908   1.709
71818W        W33239  14.340  24.482  10.955
71819W        W33240  24.684  38.879   4.702
71820W        W33241  16.195  42.851   1.444
71821W        W33242  23.217  34.007  12.956
71822W        W33243  31.405  15.753   0.905
71823W        W33244  36.581  28.679   0.825
71824W        W33245   7.848   9.836  14.832
71825W        W33246  42.321   4.907  10.595
71826W        W33247  16.663  37.915  14.297
71827W        W33248  30.087  27.076   0.925
71828W        W33249  33.430  31.624   4.313
71829W        W33250  21.567   9.679   4.245
71830W        W33251  33.980  20.082   0.313
71831W        W33252  40.316  13.603  14.275
71832W        W33253  25.977  23.562   4.704
71833W        W33254  36.914  10.772  10.925
71834W        W33255  25.544   1.309  11.055
71835W        W33256  27.126  32.091   3.251
71836W        W33257  30.557  34.113  10.471
71837W        W33258  17.118  12.129  14.808
71838W        W33259  13.687  18.616   2.882
71839W        W33260  31.464  17.791   4.659
71840W        W33261  39.363  12.165   2.732
71841W        W33262  41.983   3.810   2.294
71842W        W33263   9.670  15.321  10.458
71843W        W33264  22.584   3.830  14.954
71844W        W33265  42.003  23.573   2.251
71845W        W33266   4.429  25.536   1.867
71846W        W33267  30.562  37.910   3.677
71847W        W33268  14.229  28.663  12.894
71848W        W33269  35.596   1.455  13.504
71849W        W33270  16.272   2.927   3.372
71850W        W33271   9.818  13.293  13.386
71851W        W33272  16.640   4.919  13.477
71852W        W33273  27.173  36.515  13.501
71853W        W33274  33.569  27.007  14.792
71854W        W33275  41.965  35.523   3.207
71855W        W33276  29.116  28.502  10.605
71856W        W33277  24.168  27.134  13.309
71857W        W33278  11.147  11.821  11.935
71858W        W33279  21.142  33.901   5.087
71859W        W33280  18.274   5.931  13.992
71860W        W33281  41.483  31.091   1.408
71861W        W33282  38.858  18.697   0.279
71862W        W33283  14.093  17.619  14.981
71863W        W33284  31.153  36.010   1.326
71864W        W33285  11.737  40.828  10.059
71865W        W33286  31.051  25.078  14.332
71866W        W33287  26.565  25.142   0.473
71867W        W33288  19.705  31.028   2.215
71868W        W33289  27.558  38.518  10.641
71869W        W33290  23.085  25.038   1.738
71870W        W33291   0.869   7.903  10.480
71871W        W33292  36.081   9.311   0.864
71872W        W33293  31.039   3.378  12.532
71873W        W33294  11.186  23.508   3.684
71874W        W33295  30.162  26.637   2.413
71875W        W33296  24.109  14.812   1.237
71876W        W33297  26.085   4.897  11.601
71877W        W33298  36.950  28.681   1.703
71878W        W33299   6.902  14.595   1.932
71879W        W33300  33.500   6.233  11.112
71880W        W33301  12.156   3.903   3.669
71881W        W33302   7.190  18.791   2.845
71882W        W33303  42.387  22.644  13.315
71883W        W33304  40.837   2.803   4.322
71884W        W33305  23.087  31.148   3.856
71885W        W33306  10.193  44.280  12.022
71886W        W33307  27.152   2.899   2.872
71887W        W33308  22.011  10.363  12.027
71888W        W33309  15.233   2.874   1.437
71889W        W33310  32.624  31.027  14.966
71890W        W33311  11.689  42.469   3.813
71891W        W33312  32.920   8.827  12.824
71892W        W33313  30.424  29.485   2.801
71893W        W33314  32.479   7.754  14.485
71894W        W33315  26.473  26.121   4.236
71895W        W33316  18.649   5.712   1.238
71896W        W33317   3.361  16.690   0.763
71897W        W33318  38.926  40.538   5.263
71898W        W33319  36.061  14.671   3.179
71899W        W33320  12.709  17.289   1.753
71900W        W33321  30.650  15.085   4.246
71901W        W33322  35.019   9.302   3.234
71902W        W33323  30.161  19.105  11.451
71903W        W33324  38.034  39.062   4.662
71904W        W33325  29.516   8.862  14.405
71905W        W33326  42.524  34.098   3.662
71906W        W33327  23.585   5.853   2.267
71907W        W33328  17.697  41.449   1.307
71908W        W33329  39.438  42.024  13.493
71909W        W33330  27.613  37.992  10.503
71910W        W33331  21.168  11.340  12.844
71911W        W33332   3.336  11.197   1.392
71912W        W33333  26.479  32.569  14.956
71913W        W33334  31.982  35.012  13.332
71914W        W33335  25.674   0.383   3.256
71915W        W33336  24.702  13.226   3.319
71916W        W33337   5.243  15.583   0.368
71917W        W33338   7.206  17.762   4.831
71918W        W33339   2.815  29.433   4.248
71919W        W33340  26.500   5.692   1.278
71920W        W33341  30.458  22.215  11.003
71921W        W33342   6.413  44.887  12.973
71922W        W33343  24.094  40.948  11.428
71923W        W33344  38.006  32.014  12.519
71924W        W33345   3.919   8.211   4.192
71925W        W33346  18.587   1.370   2.698
71926W        W33347  22.151   8.842  14.880
71927W        W33348  34.911  43.313  11.560
71928W        W33349  31.934  19.640  10.092
71929W        W33350  24.652  20.165  12.515
71930W        W33351   9.376  35.979  11.471
71931W        W33352   5.315  38.992   0.475
71932W        W33353  15.195  16.209   3.278
71933W        W33354  30.440  22.137  12.573
71934W        W33355  29.115  10.328  14.884
71935W        W33356  27.671  29.561   1.318
71936W        W33357  44.911  37.075   4.236
71937W        W33358  34.530  42.363   3.836
71938W        W33359  37.042  18.073   0.436
71939W        W33360   8.185  21.664   4.732
71940W        W33361  24.146  17.114  10.131
71941W        W33362  28.626  29.976  12.882
71942W        W33363  32.032   2.262   0.934
71943W        W33364  11.725  30.908  11.863
71944W        W33365  39.528  10.732   3.239
71945W        W33366   9.844   5.722  14.946
71946W        W33367   4.739  10.683   2.763
71947W        W33368  26.056   7.798  12.062
71948W        W33369  14.102  30.991   1.321
71949W        W33370  19.081   3.411   0.276
71950W        W33371  20.691   8.667   0.327
71951W        W33372  40.371  17.631   0.481
71952W        W33373  43.848  17.074   0.476
71953W        W33374   1.312   4.856  13.361
71954W        W33375  12.171  19.256   1.715
71955W        W33376  28.051   9.373   0.452
71956W        W33377  30.016  17.561  14.407
71957W        W33378  24.681  19.685   1.880
71958W        W33379  25.682  14.224  14.796
71959W        W33380   9.219  37.406   3.220
71960W        W33381  34.494  39.810  14.345
71961W        W33382  42.305  26.973   2.699
71962W        W33383  30.621  34.927   3.221
71963W        W33384   0.956  19.042   2.390
71964W        W33385  36.440  22.562  11.608
71965W        W33386  19.222  26.202   2.396
71966W        W33387  24.676  30.004   3.715
71967W        W33388  22.637  40.953  10.895
71968W        W33389  29.169   9.349  12.003
71969W        W33390  31.626  37.391  11.018
71970W        W33391  37.951   3.355  10.122
71971W        W33392  38.478  34.061  14.880
71972W        W33393  28.106  43.378   0.843
71973W        W33394  30.046  16.164   1.356
71974W        W33395  26.604  28.458   2.193
71975W        W33396  32.919   7.391  10.420
71976W        W33397  37.945  42.888   4.210
71977W        W33398  15.155  15.258  13.005
71978W        W33399  36.350  29.620  13.480
71979W        W33400   8.388  40.418  12.396
71980W        W33401   3.936  31.057   1.359
71981W        W33402  19.198  11.357  11.063
71982W        W33403  41.352   7.244  12.057
71983W        W33404   5.785  40.797   4.794
71984W        W33405  35.072   2.354   2.676
71985W        W33406  11.622  19.052  13.507
71986W        W33407  25.694  14.193   1.727
71987W        W33408   2.820  41.890   1.291
71988W        W33409  15.640   4.885  13.486
71989W        W33410  39.547   2.774  12.418
71990W        W33411  27.491   4.704  14.861
71991W        W33412  24.567  41.517  13.343
71992W        W33413   8.787  40.811   2.353
71993W        W33414  42.423  38.979   1.814
71994W        W33415  19.759  27.648   2.846
71995W        W33416  35.406   0.757  14.898
71996W        W33417  20.068  29.113  13.965
71997W        W33418  31.900  29.602   1.271
71998W        W33419  21.629  43.479  14.948
71999W        W33420   4.884  40.971  10.600
72000W        W33421  44.287   6.814   3.256
72001W        W33422   4.776  34.422  14.865
72002W        W33423  42.487  33.082  14.832
72003W        W33424  32.564  41.361  13.833
72004W        W33425  32.470  13.800   1.808
72005W        W33426  28.676   6.325   3.309
72006W        W33427   4.339  23.034  12.358
72007W        W33428   2.412   7.821  13.994
72008W        W33429  19.637   3.432  11.023
72009W        W33430   0.817  24.169   4.229
72010W        W33431  15.601   0.957  10.998
72011W        W33432  15.178  44.401  12.533
72012W        W33433  15.806   8.692  12.838
72013W        W33434   6.901  12.347   4.211
72014W        W33435   3.712  17.161  14.332
72015W        W33436   1.387  18.199  10.438
72016W        W33437  37.002  17.149  14.395
72017W        W33438   8.167  28.041   4.237
72018W        W33439  17.122  33.426  12.043
72019W        W33440  17.112  32.557   3.347
72020W        W33441  24.125  24.049  14.817
72021W        W33442  43.350   2.275   3.685
72022W        W33443   9.771  33.046   4.183
72023W        W33444  18.653  18.639   1.336
72024W        W33445  37.436  14.769  12.909
72025W        W33446  38.409   4.832  10.432
72026W        W33447  11.713   9.874  10.512
72027W        W33448  18.051  42.462   2.881
72028W        W33449  17.164  38.386  11.565
72029W        W33450  33.518   8.669  10.407
72030W        W33451  25.989  19.124   0.412
72031W        W33452   3.442  39.492  10.941
72032W        W33453  40.516  13.819   4.307
72033W        W33454  15.174   7.312  12.970
72034W        W33455  34.573  29.145  13.536
72035W        W33456  22.639  44.926  11.587
72036W        W33457  12.158  34.510  10.944
72037W        W33458  32.050   5.222   3.689
72038W        W33459  26.022  16.240   1.908
72039W        W33460   4.274  42.451   0.351
72040W        W33461  37.884  39.026   0.910
72041W        W33462  22.729  17.585   2.371
72042W        W33463  40.519  30.630   5.197
72043W        W33464   5.439  43.367  14.928
72044W        W33465   2.457  22.517   4.223
72045W        W33466  10.181   2.323   4.122
72046W        W33467  10.700  29.504   4.317
72047W        W33468  17.761  33.961  14.961
72048W        W33469  17.072  41.974  14.797
72049W        W33470   0.298  18.562   4.713
72050W        W33471  24.575  39.860   3.280
72051W        W33472   8.280  40.918   4.240
72052W        W33473  14.280  24.655   2.181
72053W        W33474  27.508  16.207  13.931
72054W        W33475   6.293  44.756   2.330
72055W        W33476   7.817  14.194   1.240
72056W        W33477   7.888  23.711   2.887
72057W        W33478  34.947  27.156  14.769
72058W        W33479  27.629   5.365   4.661
72059W        W33480  35.564   3.293  13.901
72060W        W33481  16.611  39.982   1.375
72061W        W33482  18.576  15.133  11.508
72062W        W33483  23.160  36.098   4.703
72063W        W33484  32.091  40.022   3.759
72064W        W33485   2.322  44.501  14.340
72065W        W33486  33.915   8.892  10.488
72066W        W33487  33.060   8.900  11.873
72067W        W33488  11.768  17.564  13.400
72068W        W33489  21.045  18.207  14.972
72069W        W33490   2.806  20.687  14.356
72070W        W33491  29.147  44.952  13.326
72071W        W33492  25.075  30.495  12.396
72072W        W33493  11.321  35.588   4.243
72073W        W33494  14.219  34.934   1.277
72074W        W33495  33.454  10.363   5.095
72075W        W33496   7.706   0.917   0.842
72076W        W33497  35.042  28.958   0.748
72077W        W33498  34.611   2.383   0.310
72078W        W33499  28.009  23.214   3.748
72079W        W33500  38.895  44.359   2.372
72080W        W33501   1.928  15.260  11.524
72081W        W33502  36.021   0.355  10.462
72082W        W33503  32.610  38.343  14.427
72083W        W33504  27.541   0.396  10.474
72084W        W33505  18.645  40.388   2.869
72085W        W33506   8.852  26.060   1.845
72086W        W33507   5.425  24.077   3.776
72087W        W33508  15.229  34.421  14.854
72088W        W33509  17.565  16.651  12.993
72089W        W33510   0.765  43.886   0.940
72090W        W33511  38.006  22.134   1.289
72091W        W33512  20.670   8.312  11.073
72092W        W33513  23.717  18.694  11.912
72093W        W33514  16.668  36.466  14.295
72094W        W33515  13.126  21.153   3.696
72095W        W33516   0.874   4.901   4.793
72096W        W33517  39.868  29.428   4.699
72097W        W33518  36.448  30.083  14.799
72098W        W33519  13.640  15.731   1.407
72099W        W33520  15.246  36.070   3.695
72100W        W33521  19.772  44.368  12.418
72101W        W33522  10.266   3.786  11.008
72102W        W33523  30.152  36.941  12.988
72103W        W33524   4.889  39.490  14.883
72104W        W33525  17.072  11.754  12.013
72105W        W33526  36.493  37.990   1.386
72106W        W33527   6.738   5.287  14.426
72107W        W33528  32.492   9.346  10.513
72108W        W33529  13.175  37.910  11.448
72109W        W33530  21.612  32.539   1.800
72110W        W33531  30.576  10.379  13.357
72111W        W33532  17.224  44.998  11.973
72112W        W33533  25.681  17.135  11.391
72113W        W33534  16.633  12.282  13.025
72114W        W33535  30.992  18.566  10.947
72115W        W33536  12.248  30.627  10.090
72116W        W33537  15.791  19.084  14.918
72117W        W33538   2.447   9.816   4.754
72118W        W33539  21.589   0.406  14.393
72119W        W33540  28.994  30.074   0.841
72120W        W33541  23.131   3.921   5.228
72121W        W33542   9.714  31.577  14.417
72122W        W33543  35.971   2.879   9.522
72123W        W33544  11.286  30.036   3.221
72124W        W33545  34.956   0.492   3.732
72125W        W33546  21.034   9.364  13.379
72126W        W33547  19.141  19.558   3.855
72127W        W33548   5.843  24.525  13.362
72128W        W33549  26.045  25.641   4.163
72129W        W33550  15.677  35.903   3.300
72130W        W33551  28.493  26.652   3.193
72131W        W33552  16.250  11.213   1.749
72132W        W33553  26.627  17.110  10.963
72133W        W33554   2.233  23.568  12.395
72134W        W33555  31.129  38.939   0.830
72135W        W33556   2.438  11.306   0.460
72136W        W33557   8.772   7.246   1.319
72137W        W33558  33.004   5.885   1.222
72138W        W33559  15.767  42.293   0.840
72139W        W33560  42.840   1.963  12.930
72140W        W33561  16.653   5.301  12.473
72141W        W33562  41.016  29.611  12.408
72142W        W33563  38.978  30.950  10.089
72143W        W33564  44.950  31.949   0.875
72144W        W33565   6.258  36.041   1.323
72145W        W33566  24.691  44.452   3.362
72146W        W33567  18.139  32.917  13.794
72147W        W33568   9.718   9.188   0.844
72148W        W33569  20.747  21.148   3.681
72149W        W33570   4.811  10.299  12.006
72150W        W33571  19.568   7.864   2.867
72151W        W33572  23.000  29.089   1.765
72152W        W33573  31.557  11.262   1.794
72153W        W33574  24.537  37.480  12.045
72154W        W33575  19.735   8.257   4.260
72155W        W33576   8.688  35.852   1.935
72156W        W33577   8.316  23.033   1.373
72157W        W33578  11.804  33.607   1.799
72158W        W33579  27.562  13.666  14.807
72159W        W33580  23.591  18.752  11.037
72160W        W33581  36.927  15.305   3.701
72161W        W33582  40.322   3.324   1.758
72162W        W33583  37.909  33.539  14.979
72163W        W33584  20.073  15.674  14.991
72164W        W33585  25.097  28.961   2.371
72165W        W33586  41.398  27.130  11.089
72166W        W33587  36.461   8.342  12.343
72167W        W33588   2.874  29.519  12.345
72168W        W33589  41.388  32.436  13.896
72169W        W33590  35.528  12.774   1.896
72170W        W33591  28.943  33.590   2.873
72171W        W33592  31.616   8.283  12.047
72172W        W33593  36.095  27.602  11.899
72173W        W33594   2.770  31.001   0.300
72174W        W33595   3.306   3.889   2.888
72175W        W33596   2.926  43.501  13.821
72176W        W33597  13.279  18.051  14.333
72177W        W33598   2.944  31.473   0.833
72178W        W33599  20.726  12.743   0.462
72179W        W33600  36.443  42.340  12.359
72180W        W33601  27.186   1.836  11.896
72181W        W33602  41.030  37.575   1.923
72182W        W33603  30.489   2.299   0.922
72183W        W33604  14.665  30.039  10.006
72184W        W33605  22.559  22.149  13.486
72185W        W33606  26.548  10.821   1.316
72186W        W33607  37.464   1.305   0.343
72187W        W33608  15.798  21.070  11.552
72188W        W33609  20.045  21.616  11.613
72189W        W33610   2.791  30.429   4.680
72190W        W33611   5.710  11.240  14.020
72191W        W33612  41.839  39.526   0.953
72192W        W33613  36.371  32.415  14.505
72193W        W33614  27.669   2.368  14.863
72194W        W33615  20.595  32.485  13.469
72195W        W33616   5.376  11.856  10.927
72196W        W33617  14.621  41.982   4.335
72197W        W33618  24.627  30.522   1.351
72198W        W33619  39.844  20.174  13.042
72199W        W33620  42.383  16.612   3.757
72200W        W33621  35.089  14.167   0.823
72201W        W33622  41.514  16.099  13.859
72202W        W33623   2.297  32.480  14.372
72203W        W33624  13.799  12.722  10.575
72204W        W33625  20.723  10.739   1.435
72205W        W33626  44.001  43.457  12.568
72206W        W33627   8.375  35.992  11.444
72207W        W33628  29.587  26.496  12.452
72208W        W33629   6.389  13.686   4.169
72209W        W33630  17.682  44.436  10.106
72210W        W33631  32.950   3.845   2.793
72211W        W33632  31.643  13.680   5.733
72212W        W33633  10.751  13.620   1.786
72213W        W33634   1.348  12.240  10.440
72214W        W33635  30.456  37.864  14.802
72215W        W33636  17.773  27.020   1.783
72216W        W33637  12.823  18.748  13.058
72217W        W33638  18.085   3.385   0.873
72218W        W33639  10.846  14.650  10.554
72219W        W33640  37.417   9.645  12.557
72220W        W33641  30.997  18.056  10.586
72221W        W33642  28.587  38.827   3.341
72222W        W33643   4.379  26.998  14.360
72223W        W33644  10.766  28.989  13.309
72224W        W33645   9.729   4.795   4.725
72225W        W33646  15.648  29.502   4.330
72226W        W33647   1.822  43.314   2.886
72227W        W33648  21.115  23.060  10.491
72228W        W33649  13.223  30.596  10.898
72229W        W33650  35.475  26.609  12.846
72230W        W33651  17.231   3.743   1.825
72231W        W33652  15.650  20.669   0.307
72232W        W33653  36.356  12.636   3.262
72233W        W33654  36.461  29.067   3.735
72234W        W33655  43.469   0.403  12.499
72235W        W33656  44.488  34.869  11.040
72236W        W33657  10.824  41.398   0.859
72237W        W33658  28.474  34.038  14.409
72238W        W33659  39.458  11.312   5.231
72239W        W33660   6.824  33.392  11.985
72240W        W33661  22.126  15.144  14.514
72241W        W33662  19.543  33.464  11.998
72242W        W33663  41.857  41.431  14.450
72243W        W33664   7.884  18.610   3.161
72244W        W33665  13.687  31.940  14.792
72245W        W33666  32.565  42.892   1.717
72246W        W33667  42.025  23.016   3.347
72247W        W33668  18.565  18.608   2.865
72248W        W33669   0.782  39.448   1.920
72249W        W33670   1.917  13.796  10.514
72250W        W33671  24.020   4.370   2.188
72251W        W33672  18.144  43.018   1.885
72252W        W33673  26.546   6.347  13.893
72253W        W33674  18.274  17.695   2.269
72254W        W33675  10.688  10.337   3.378
72255W        W33676   9.854   9.177   3.239
72256W        W33677  23.167  13.192   0.346
72257W        W33678  43.287  29.644   3.291
72258W        W33679   2.751   2.318   0.362
72259W        W33680  32.427  19.051  12.352
72260W        W33681  27.539  29.126   3.168
72261W        W33682  11.740  38.523  10.591
72262W        W33683  18.062  15.235  14.406
72263W        W33684  27.941  24.994  12.444
72264W        W33685  15.648  31.437   1.789
72265W        W33686  12.754  25.153  14.873
72266W        W33687  44.438   0.299   0.728
72267W        W33688  39.452  43.950   0.481
72268W        W33689  40.944  31.564   0.961
72269W        W33690   7.315   3.803   3.270
72270W        W33691  39.998  24.616   0.343
72271W        W33692   4.845  30.105  14.877
72272W        W33693   3.216  42.390   3.859
72273W        W33694  35.434   6.704   4.821
72274W        W33695   8.750  40.852  11.535
72275W        W33696  14.662  38.843  10.904
72276W        W33697  43.871  39.377   2.707
72277W        W33698  42.913  15.269   3.672
72278W        W33699   6.185   7.308  13.377
72279W        W33700  21.596  30.080  14.773
72280W        W33701   9.773  17.072   3.808
72281W        W33702  37.557  15.193   5.595
72282W        W33703   6.745  30.587  12.411
72283W        W33704  30.472  35.374   0.290
72284W        W33705  42.434  31.619   4.797
72285W        W33706  29.557  29.137   0.242
72286W        W33707  27.476  14.312   0.781
72287W        W33708  38.821  34.438  11.385
72288W        W33709  30.057  44.328   2.322
72289W        W33710   4.368  12.615   2.807
72290W        W33711  41.951  20.091  11.007
72291W        W33712  44.867  30.519   2.886
72292W        W33713  40.928  11.697  12.469
72293W        W33714   2.957  25.978   4.679
72294W        W33715   7.786   0.885   1.450
72295W        W33716  33.107  35.962  13.898
72296W        W33717   3.305  37.418  10.598
72297W        W33718  24.553  14.833  11.099
72298W        W33719  22.232  43.015   0.867
72299W        W33720   9.758  13.334  14.361
72300W        W33721   1.267  24.570  11.036
72301W        W33722   5.766  14.145  13.870
72302W        W33723  43.357  42.421  12.519
72303W        W33724   0.811  11.179  11.989
72304W        W33725  13.320  27.033   3.182
72305W        W33726  24.155  44.489   1.355
72306W        W33727  17.248  33.418   2.362
72307W        W33728  31.088   5.423   1.264
72308W        W33729  40.998  23.181   3.322
72309W        W33730  22.016  14.811  14.027
72310W        W33731  35.908   5.386   0.399
72311W        W33732   9.201  28.563  10.588
72312W        W33733  31.068  10.718   4.167
72313W        W33734  36.994  24.659   1.827
72314W        W33735  25.061   3.292  10.423
72315W        W33736  38.867  12.621   2.402
72316W        W33737   3.724  13.350  13.034
72317W        W33738  27.022  42.905   2.189
72318W        W33739  34.501   9.311  13.804
72319W        W33740  38.923   0.303   5.134
72320W        W33741  42.435  23.544   4.283
72321W        W33742  27.579   4.905   1.728
72322W        W33743  42.473   1.742   2.787
72323W        W33744  30.045  29.981  14.412
72324W        W33745  33.933   4.278   4.616
72325W        W33746  10.652  10.818   2.248
72326W        W33747  36.884  43.894  13.992
72327W        W33748  29.520  39.506  11.925
72328W        W33749  41.821  41.520  13.960
72329W        W33750  21.247   2.297  12.379
72330W        W33751   9.156  37.064   0.432
72331W        W33752  39.972  24.629   0.887
72332W        W33753  40.383  11.859  10.041
72333W        W33754  19.141  27.142  13.977
72334W        W33755  12.829  23.495   0.743
72335W        W33756  36.512   0.389   3.771
72336W        W33757  15.612   9.677   3.759
72337W        W33758  12.270   6.255  14.342
72338W        W33759  26.631  43.408  12.038
72339W        W33760   5.926  42.434   3.296
72340W        W33761   9.727  17.652   0.351
72341W        W33762  24.537   8.339  10.481
72342W        W33763  21.631  30.544  14.494
72343W        W33764  31.897  10.845  12.880
72344W        W33765  36.051  15.787   0.876
72345W        W33766  36.523  14.188  11.051
72346W        W33767  19.140  39.334  11.424
72347W        W33768  12.743  42.992   2.676
72348W        W33769   3.724  23.127   1.816
72349W        W33770  12.667  28.540  12.949
72350W        W33771  19.712  25.647  11.379
72351W        W33772  36.588  24.485  11.548
72352W        W33773  21.633  15.219  14.288
72353W        W33774   4.929  14.620   0.866
72354W        W33775  24.101  32.422   1.842
72355W        W33776  27.138   7.342  10.937
72356W        W33777  21.531  18.189  14.894
72357W        W33778  23.100  16.705  10.559
72358W        W33779  14.771  16.312   3.222
72359W        W33780  41.015  39.051  14.998
72360W        W33781  40.316  36.988   0.255
72361W        W33782  29.006  32.109  10.464
72362W        W33783  20.759   7.373  12.347
72363W        W33784   6.298  15.802   4.311
72364W        W33785  21.511  29.508   4.345
72365W        W33786  13.767  11.175   4.752
72366W        W33787  26.079  17.199   4.725
72367W        W33788  25.530   7.226   0.318
72368W        W33789  42.452  10.207  14.356
72369W        W33790  18.180   2.762  10.512
72370W        W33791  41.940  21.643  13.405
72371W        W33792  11.825  25.150   4.611
72372W        W33793  27.624  27.559   1.417
72373W        W33794  20.600   4.438  10.145
72374W        W33795  27.594  24.586  11.476
72375W        W33796  16.611  13.759  13.357
72376W        W33797  23.491  38.864  10.421
72377W        W33798  38.872  13.284  13.863
72378W        W33799  22.667   8.403   1.438
72379W        W33800  19.750  12.803  14.759
72380W        W33801  24.663  30.968   3.662
72381W        W33802   8.297  11.668  14.470
72382W        W33803  13.717  23.565  11.045
72383W        W33804  19.666   1.463   0.282
72384W        W33805  22.117  37.020  10.921
72385W        W33806  26.029   2.318  12.567
72386W        W33807  42.430  33.931  13.007
72387W        W33808  41.866   0.868   2.868
72388W        W33809  43.988  23.024  10.422
72389W        W33810  22.019  17.118  12.076
72390W        W33811  39.457  41.394  14.898
72391W        W33812   7.234  38.541  14.016
72392W        W33813  26.134  33.906  11.558
72393W        W33814   5.781  29.423   3.338
72394W        W33815  20.680  43.344  14.927
72395W        W33816  13.189   1.930   1.852
72396W        W33817   6.229  35.038   5.308
72397W        W33818  34.082  34.372  13.038
72398W        W33819  33.489  41.443  10.917
72399W        W33820  21.567  24.091  12.997
72400W        W33821  37.404  15.667   0.959
72401W        W33822   1.455   1.263   2.223
72402W        W33823  35.489  40.831   0.758
72403W        W33824  31.617  40.983   4.775
72404W        W33825  39.438  19.204   1.309
72405W        W33826  43.017  41.842  12.889
72406W        W33827  37.931  31.950  11.434
72407W        W33828  23.024  12.855   1.840
72408W        W33829  27.539  19.155   3.816
72409W        W33830  20.531  23.114  11.120
72410W        W33831  39.002  20.131  14.411
72411W        W33832  44.792  28.535  12.466
72412W        W33833  27.565  17.765  10.563
72413W        W33834  38.010  31.608   1.240
72414W        W33835  26.671  40.360   4.332
72415W        W33836  34.117  10.700  14.820
72416W        W33837  19.069  20.544  13.476
72417W        W33838   1.847   0.944   2.902
72418W        W33839  35.019   0.786  13.313
72419W        W33840  25.674  22.237  11.094
72420W        W33841  39.812  44.817  11.031
72421W        W33842  19.176  22.063  10.935
72422W        W33843  36.432  30.541   4.784
72423W        W33844   2.352   3.715   2.275
72424W        W33845  36.908   2.252   2.697
72425W        W33846  21.137  21.679  11.445
72426W        W33847  39.860  39.892  13.365
72427W        W33848  18.076  38.936  14.943
72428W        W33849  41.797  23.647   0.863
72429W        W33850  27.114  36.569   4.173
72430W        W33851  22.712  21.114  14.388
72431W        W33852  18.075  24.145  10.631
72432W        W33853  31.089  39.820   0.771
72433W        W33854  29.949  32.994  12.918
72434W        W33855  27.094   7.198  12.577
72435W        W33856  38.337  10.184  10.643
72436W        W33857  29.658  23.595  13.824
72437W        W33858  34.040   7.357   0.778
72438W        W33859  15.158   1.906  14.344
72439W        W33860  24.598  18.224   2.249
72440W        W33861  11.724  28.966  10.566
72441W        W33862  44.823  40.508   1.296
72442W        W33863  25.496  38.953  13.392
72443W        W33864  24.052  43.466   2.267
72444W        W33865  10.748  32.552  12.402
72445W        W33866  19.732   5.696  14.837
72446W        W33867  19.122  16.157  14.763
72447W        W33868   1.442   2.911   0.906
72448W        W33869  23.499  15.584   1.328
72449W        W33870   0.413   7.299   4.238
72450W        W33871  31.043  14.815   3.704
72451W        W33872  22.561  15.230  10.969
72452W        W33873  20.649  20.767   1.890
72453W        W33874  15.737  24.644   0.347
72454W        W33875  11.702  27.186  10.487
72455W        W33876  31.637  37.934   4.193
72456W        W33877   5.425  36.911  11.959
72457W        W33878  18.561  20.555  14.948
72458W        W33879  43.471  41.369   4.274
72459W        W33880   5.841  41.365  12.517
72460W        W33881  28.598  37.534   1.396
72461W        W33882  11.139  44.389   4.685
72462W        W33883  18.160  11.323   2.750
72463W        W33884  23.235  44.864  12.374
72464W        W33885  13.259  27.476   1.820
72465W        W33886  21.210  32.021   0.840
72466W        W33887  41.434  11.338   2.814
72467W        W33888  13.233  31.954   0.469
72468W        W33889   4.919   6.755   0.287
72469W        W33890  43.512   0.786   1.912
72470W        W33891   1.479  30.990  14.991
72471W        W33892  26.973  24.141  11.525
72472W        W33893  39.527  11.792  10.072
72473W        W33894  35.935  23.627   0.739
72474W        W33895   2.356  30.547   0.382
72475W        W33896  33.120  35.067  13.338
72476W        W33897   1.259  23.518   4.195
72477W        W33898  26.010   6.752   5.138
72478W        W33899  13.304  33.408   3.723
72479W        W33900  11.820   7.342  14.879
72480W        W33901   4.347  42.823   1.436
72481W        W33902  13.142  43.884   2.703
72482W        W33903  27.138  42.360  12.399
72483W        W33904  36.842   7.319  14.443
72484W        W33905  12.258  30.967  11.036
72485W        W33906   0.815   1.947  13.834
72486W        W33907  18.678  36.529  12.472
72487W        W33908  42.813   0.893   5.252
72488W        W33909   8.767  33.583   3.216
72489W        W33910  33.029  12.180  10.547
72490W        W33911  28.958   0.342   1.339
72491W        W33912  16.219  34.497   9.663
72492W        W33913  38.413  43.464  13.966
72493W        W33914  28.578  19.108   4.209
72494W        W33915  37.899  29.993  13.528
72495W        W33916  39.336  25.641  13.952
72496W        W33917  17.296   3.245   1.245
72497W        W33918  20.743  31.630  13.450
72498W        W33919  12.815   6.366   2.877
72499W        W33920  25.598   6.680   3.694
72500W        W33921  42.872  13.345   2.185
72501W        W33922   0.854  39.057  10.933
72502W        W33923  31.643  34.521  13.842
72503W        W33924  17.216  15.780  11.605
72504W        W33925  43.006   5.726   1.279
72505W        W33926  34.912  27.520  11.374
72506W        W33927  11.219  34.432  12.066
72507W        W33928  27.077   6.239  11.090
72508W        W33929   9.751  26.495   3.814
72509W        W33930  23.166  21.735  11.920
72510W        W33931   8.744   1.275  10.617
72511W        W33932   4.387  21.568  14.928
72512W        W33933  18.276  40.349   4.215
72513W        W33934  31.570  35.433   3.859
72514W        W33935  23.605  27.162   4.807
72515W        W33936  29.050   6.738   0.275
72516W        W33937  30.638  16.208   0.470
72517W        W33938  40.356  22.719   5.123
72518W        W33939   3.774  11.130   3.724
72519W        W33940  26.168  29.100  14.478
72520W        W33941  19.711  16.803   0.949
72521W        W33942   8.654   2.889   1.922
72522W        W33943   8.265  38.330   4.168
72523W        W33944  41.035  20.711   1.911
72524W        W33945  38.553  32.095  10.978
72525W        W33946  29.015  12.830   5.799
72526W        W33947   2.761  43.879  14.301
72527W        W33948  26.559  23.664   3.272
72528W        W33949  40.471  38.544   1.381
72529W        W33950  35.882   7.819   0.949
72530W        W33951  15.309  37.937  11.050
72531W        W33952  34.920  37.849   2.318
72532W        W33953  24.624  41.894  13.045
72533W        W33954  19.153  22.235   2.732
72534W        W33955  14.714  24.553   2.850
72535W        W33956  37.949   8.257  10.940
72536W        W33957  16.149   3.889  10.418
72537W        W33958  14.600  16.154  14.864
72538W        W33959  22.747  10.271  10.153
72539W        W33960  39.437   8.726  12.029
72540W        W33961  16.177   4.923  11.878
72541W        W33962  23.079  37.844  14.765
72542W        W33963   4.826  32.921  13.388
72543W        W33964  33.610  38.058   0.385
72544W        W33965  27.010  11.241  12.425
72545W        W33966  35.102   1.464  13.799
72546W        W33967  13.773  14.723   1.834
72547W        W33968  44.994  42.890   1.847
72548W        W33969   5.280  13.156   3.372
72549W        W33970  21.246   0.461   4.337
72550W        W33971   4.263  42.999   2.902
72551W        W33972  17.712  18.264   2.232
72552W        W33973  14.240   5.705  13.014
72553W        W33974   1.249  20.238  14.351
72554W        W33975   5.794   7.846   2.717
72555W        W33976  36.985  33.520   1.303
72556W        W33977   2.436  40.341  14.378
72557W        W33978  14.256  32.028  14.924
72558W        W33979  16.240  16.146   2.818
72559W        W33980  41.879  14.620  12.002
72560W        W33981  41.311  27.036   1.935
72561W        W33982  43.810  17.642   0.786
72562W        W33983  19.085  11.768  11.529
72563W        W33984   5.884  38.543  14.910
72564W        W33985   2.926  24.628   9.436
72565W        W33986   7.407  23.574  12.969
72566W        W33987  19.599   1.281  11.024
72567W        W33988  44.307  11.339  10.946
72568W        W33989  11.253  11.302   3.253
72569W        W33990  37.864   9.744   4.625
72570W        W33991  43.798  10.822  13.962
72571W        W33992  40.901  39.964  11.402
72572W        W33993   6.259  23.009  12.024
72573W        W33994  25.143  40.908   0.383
72574W        W33995  35.944  12.819  13.920
72575W        W33996  43.769   3.941   4.285
72576W        W33997  20.218  23.099   0.928
72577W        W33998   7.184   6.792   2.257
72578W        W33999  35.435  28.492   2.713
72579W        W34000  28.600  28.142   4.769
72580W        W34001  13.801  36.467   1.801
72581W        W34002  44.962  17.767  14.903
72582W        W34003  34.059   7.178  13.482
72583W        W34004  30.594  12.361  11.028
72584W        W34005   0.310  14.819   3.808
72585W        W34006   4.794  28.085   4.805
72586W        W34007   9.748  10.680   4.779
72587W        W34008  44.954  43.828  12.975
72588W        W34009  16.246  27.589   2.738
72589W        W34010  13.211  14.741  13.825
72590W        W34011   2.319  43.924  10.986
72591W        W34012   0.473  33.989   2.867
72592W        W34013  36.366  39.845  13.490
72593W        W34014   8.691  33.581  10.416
72594W        W34015  41.294  26.474   0.850
72595W        W34016  18.221  19.191  11.005
72596W        W34017  17.583  25.218  13.976
72597W        W34018  17.109  43.368  13.517
72598W        W34019  22.715  24.490  13.471
72599W        W34020  44.841  30.938  13.900
72600W        W34021  19.118   0.958   1.451
72601W        W34022  11.838   9.282  14.313
72602W        W34023  13.134  35.410   1.353
72603W        W34024  42.871  41.398  13.513
72604W        W34025  25.111   8.342   1.435
72605W        W34026  25.623  38.018   3.383
72606W        W34027  36.581  21.197   4.302
72607W        W34028  26.042  42.296   3.792
72608W        W34029  35.457  24.714  11.944
72609W        W34030  15.746  29.060   1.892
72610W        W34031   4.782   3.405   0.917
72611W        W34032  43.926  35.479   4.184
72612W        W34033   8.338  29.949   0.819
72613W        W34034  43.896  37.548   1.447
72614W        W34035  28.472  35.423   2.298
72615W        W34036  43.018  19.681  12.839
72616W        W34037  19.719  43.971  13.407
72617W        W34038   6.903  29.095  14.980
72618W        W34039  42.422   3.347  13.506
72619W        W34040   2.913  10.221   3.296
72620W        W34041  23.527  35.364  14.852
72621W        W34042  44.423  31.143   4.609
72622W        W34043  17.760  15.139  13.054
72623W        W34044  37.495  19.594   3.238
72624W        W34045  31.410   9.319   2.664
72625W        W34046  39.021  24.089   2.243
72626W        W34047  31.903   3.813   3.630
72627W        W34048  26.070   6.833  14.496
72628W        W34049   2.428  32.001   9.964
72629W        W34050  23.686  16.732   3.336
72630W        W34051  44.359  36.361  13.318
72631W        W34052  44.503  43.902   4.176
72632W        W34053  30.112  29.494  12.940
72633W        W34054  26.682  33.046   0.837
72634W        W34055  42.507  35.574  14.824
72635W        W34056  32.546  15.703  14.444
72636W        W34057   3.843  36.068   4.650
72637W        W34058  12.847  42.331  13.890
72638W        W34059  31.450   5.694   4.767
72639W        W34060  38.850  23.207  13.922
72640W        W34061   1.849   6.284   4.257
72641W        W34062  40.454  11.707  11.992
72642W        W34063   0.828  26.496   2.738
72643W        W34064  12.722  31.620  14.760
72644W        W34065  13.233  26.056  14.789
72645W        W34066  32.532  16.599  14.449
72646W        W34067  33.003  36.888   0.810
72647W        W34068  17.291  20.680   3.277
72648W        W34069  15.105  44.384   0.334
72649W        W34070  21.129   0.876  12.450
72650W        W34071  22.112   4.361   4.673
72651W        W34072   4.222  21.233  12.383
72652W        W34073  37.008  23.102   4.331
72653W        W34074  27.128   1.390   1.854
72654W        W34075  15.672  39.353   0.793
72655W        W34076  32.572  26.144   3.773
72656W        W34077  23.671  19.584  12.381
72657W        W34078  34.034   7.193  10.575
72658W        W34079  29.478  21.033  10.533
72659W        W34080   7.704  12.227   0.395
72660W        W34081  27.655   5.335  14.962
72661W        W34082  38.517  35.092   3.246
72662W        W34083  35.949  41.439   4.262
72663W        W34084  41.995  16.245   1.278
72664W        W34085  16.786   2.763   0.808
72665W        W34086  37.841  42.920  13.929
72666W        W34087  29.609  11.197   2.333
72667W        W34088   4.778  39.942  14.925
72668W        W34089  16.794   6.765   1.758
72669W        W34090  36.432  25.156   4.675
72670W        W34091   0.487  40.931  11.983
72671W        W34092  16.746   1.419  12.518
72672W        W34093  34.480  31.950  12.881
72673W        W34094  41.356   6.209   3.738
72674W        W34095  25.478  25.125   0.319
72675W        W34096  27.115  29.093   2.704
72676W        W34097  34.026   3.442   1.437
72677W        W34098  34.544  40.932   4.195
72678W        W34099  16.166  16.782  10.505
72679W        W34100  13.676   3.854   3.790
72680W        W34101  24.703  13.638  11.470
72681W        W34102  20.091  26.091  10.935
72682W        W34103   9.378  41.842   3.686
72683W        W34104   4.246  33.904   4.640
72684W        W34105  14.266   1.760   1.756
72685W        W34106  15.734   5.397   4.202
72686W        W34107  12.736   4.896  11.896
72687W        W34108  12.639  15.084   1.807
72688W        W34109  43.323  40.456   9.988
72689W        W34110  13.619   6.346   1.443
72690W        W34111  44.767  44.917  14.832
72691W        W34112  16.192  11.835   3.211
72692W        W34113  11.751  17.114  10.967
72693W        W34114  24.690  27.465   2.859
72694W        W34115  40.024  32.087   2.850
72695W        W34116   2.825  30.443   0.730
72696W        W34117   6.913  39.956   1.848
72697W        W34118  39.517  20.627  11.897
72698W        W34119  21.604  26.498   4.257
72699W        W34120   3.829  30.485  14.969
72700W        W34121   3.777  31.927   3.377
72701W        W34122  10.868   9.650   2.732
72702W        W34123  31.447  27.134  10.953
72703W        W34124  31.057  15.237   3.297
72704W        W34125  35.568  17.195  13.062
72705W        W34126   6.269  24.164  11.373
72706W        W34127  40.810  34.388   3.220
72707W        W34128  35.945   0.313   0.287
72708W        W34129  37.980  35.103   1.313
72709W        W34130   0.394   1.256   4.351
72710W        W34131  17.585  27.976   4.187
72711W        W34132  16.769   3.912   1.300
72712W        W34133  12.615  18.560   1.434
72713W        W34134  20.178  20.574  10.532
72714W        W34135  10.681  29.439  14.401
72715W        W34136  40.443  28.147   3.728
72716W        W34137  14.824  32.574   3.204
72717W        W34138  10.336   1.259  14.459
72718W        W34139  19.660  24.690  11.382
72719W        W34140  20.611   6.682   0.378
72720W        W34141  31.899  22.632   4.721
72721W        W34142  19.168  33.386   4.135
72722W        W34143  27.541  22.018  11.889
72723W        W34144  10.640   6.784   4.641
72724W        W34145  33.006  27.653   0.920
72725W        W34146  20.095  24.179  12.513
72726W        W34147   9.773  41.886  14.774
72727W        W34148  29.017   5.349  13.938
72728W        W34149  31.914   6.329  12.351
72729W        W34150  36.454  13.267   2.328
72730W        W34151  21.018   4.221   2.829
72731W        W34152  44.355  30.952   2.868
72732W        W34153  15.768  42.871  13.471
72733W        W34154  12.312  40.974  14.958
72734W        W34155  34.925  43.269   4.136
72735W        W34156  42.930  35.861   3.328
72736W        W34157  16.576  36.998   0.447
72737W        W34158  22.632  44.342  13.387
72738W        W34159  27.650  25.184  14.903
72739W        W34160  15.305  11.343   0.965
72740W        W34161  12.236  36.503   2.775
72741W        W34162  11.141   1.259  10.639
72742W        W34163   3.852  27.148  13.843
72743W        W34164  28.988  35.401   2.771
72744W        W34165  11.177  29.647   4.651
72745W        W34166  39.392  36.875  10.556
72746W        W34167  34.070   0.786   2.797
72747W        W34168  16.223   5.706  14.993
72748W        W34169  10.848  20.523   2.354
72749W        W34170   8.862  25.567  14.511
72750W        W34171  44.277   2.448  11.538
72751W        W34172  20.151   2.937   4.325
72752W        W34173   5.928  15.780  12.970
72753W        W34174   6.260   6.250   0.867
72754W        W34175  17.646  13.634  12.558
72755W        W34176   8.661  11.771   4.733
72756W        W34177   3.308  27.191   3.154
72757W        W34178   3.250   4.400  11.487
72758W        W34179  29.130  36.593  10.903
72759W        W34180  30.628  41.910  12.867
72760W        W34181   4.381  22.548  12.019
72761W        W34182  26.971  19.116  13.465
72762W        W34183  41.447   0.319   1.388
72763W        W34184  42.390   0.840   1.916
72764W        W34185   1.277   7.779   3.249
72765W        W34186  36.852  15.739   0.387
72766W        W34187   2.868  21.251  12.366
72767W        W34188  14.135   0.815   2.384
72768W        W34189   6.729  31.965  12.828
72769W        W34190  17.693  36.373   4.786
72770W        W34191   9.710  22.173   0.445
72771W        W34192  28.149  38.390  11.884
72772W        W34193   7.381  36.093  10.419
72773W        W34194  26.129   3.450  12.412
72774W        W34195   3.768  44.868   1.265
72775W        W34196   3.421  11.716  11.899
72776W        W34197  43.937  32.496  13.329
72777W        W34198  31.064  44.472   3.668
72778W        W34199  38.067   1.953  14.423
72779W        W34200  44.451  10.634   4.712
72780W        W34201   8.689  18.071   4.319
72781W        W34202   5.789   1.932   2.763
72782W        W34203  30.635  20.232   0.359
72783W        W34204  44.921   7.284  10.938
72784W        W34205   8.392  10.178  11.088
72785W        W34206  33.090  41.337  11.947
72786W        W34207   1.941  27.601   2.753
72787W        W34208  32.039   1.324   3.797
72788W        W34209   1.298  23.005  13.834
72789W        W34210  38.058  39.877  13.822
72790W        W34211  14.146  25.520   3.252
72791W        W34212  34.392   9.718  13.531
72792W        W34213  26.531   2.465   0.807
72793W        W34214   5.356  31.633   2.241
72794W        W34215  17.194  25.651  11.098
72795W        W34216  40.440  11.773   3.797
72796W        W34217  28.076   6.874  12.989
72797W        W34218  22.608  24.581   1.899
72798W        W34219  40.848  19.575   1.249
72799W        W34220  36.059   4.420   1.814
72800W        W34221  40.517  26.008   1.314
72801W        W34222  44.962  42.832   0.908
72802W        W34223   6.382  39.334   0.475
72803W        W34224   1.898   5.708   1.286
72804W        W34225  25.685  41.522   3.865
72805W        W34226  34.876  32.010   1.858
72806W        W34227  42.816   2.846   3.158
72807W        W34228  14.322  43.277   1.271
72808W        W34229   6.865  26.199   3.862
72809W        W34230  43.317  17.256   0.967
72810W        W34231   9.154  17.161  14.501
72811W        W34232  22.007  12.154  14.795
72812W        W34233  26.980   3.319   3.765
72813W        W34234  11.712  35.092   3.253
72814W        W34235   0.320  38.494   3.760
72815W        W34236  41.030  32.081   0.870
72816W        W34237  25.567  35.900  12.580
72817W        W34238   3.247  31.967   3.642
72818W        W34239  38.365  18.545  11.599
72819W        W34240  32.444   8.857  11.118
72820W        W34241  28.021  35.093   5.136
72821W        W34242  20.677   3.772   9.560
72822W        W34243  34.397   5.196  12.578
72823W        W34244  28.533  11.127   1.279
72824W        W34245  33.578  13.278   3.301
72825W        W34246  15.723   5.842  10.614
72826W        W34247  25.079  28.478   4.196
72827W        W34248   6.231  38.342   3.257
72828W        W34249  38.906  41.834   1.253
72829W        W34250   9.646  20.531   4.688
72830W        W34251   9.227   6.742   2.203
72831W        W34252  40.438  15.589   5.291
72832W        W34253   0.791  11.141   2.357
72833W        W34254  44.284  26.500   0.959
72834W        W34255  30.014  43.015   4.207
72835W        W34256  42.367  30.075   4.187
72836W        W34257   9.782  43.482   2.326
72837W        W34258   8.899  30.973   1.365
72838W        W34259  43.790   5.230   0.434
72839W        W34260  29.153  35.880  13.359
72840W        W34261  34.898  39.906   3.752
72841W        W34262  26.046  10.381  12.990
72842W        W34263  26.580  25.173   4.620
72843W        W34264   5.242  23.535   3.329
72844W        W34265   6.832  21.710   3.864
72845W        W34266  28.106  19.684   5.315
72846W        W34267  37.565  28.029   1.388
72847W        W34268  40.826  30.092  14.011
72848W        W34269  14.292  10.811   1.760
72849W        W34270   8.871  41.495  14.353
72850W        W34271  16.658  28.062   2.755
72851W        W34272  22.694  19.142   2.254
72852W        W34273  33.513   9.351   3.281
72853W        W34274  31.483  11.760   4.121
72854W        W34275   8.278  16.216  10.420
72855W        W34276  24.987  34.022   3.804
72856W        W34277  30.072  22.017   1.339
72857W        W34278  13.600  43.501  11.984
72858W        W34279  29.432   8.276  13.038
72859W        W34280  16.735  12.722   0.260
72860W        W34281  14.739  41.990   2.746
72861W        W34282  15.695   8.304   2.669
72862W        W34283   7.333  36.855   5.778
72863W        W34284  10.806  30.628   1.216
72864W        W34285  13.262  26.607   3.802
72865W        W34286  37.898  18.268  11.422
72866W        W34287  38.055  27.470  11.438
72867W        W34288  29.960  13.214  13.446
72868W        W34289  42.992   4.814   0.430
72869W        W34290   1.407  35.946  11.560
72870W        W34291  28.991  41.911   1.737
72871W        W34292   6.398  32.576  13.870
72872W        W34293   1.262  22.625   3.776
72873W        W34294  25.053  37.017   4.263
72874W        W34295  24.620  21.559  11.989
72875W        W34296   1.283   0.397   2.870
72876W        W34297  33.108  15.238   0.392
72877W        W34298  12.149  34.584   2.684
72878W        W34299  44.955   1.379  14.428
72879W        W34300  21.524   4.435  11.571
72880W        W34301  39.945  28.488  13.979
72881W        W34302  32.138  23.237   0.284
72882W        W34303  32.098   8.812  11.443
72883W        W34304  19.208  38.524  12.926
72884W        W34305   7.233  25.678  10.911
72885W        W34306   2.464  15.766  14.387
72886W        W34307  34.497  27.971  14.451
72887W        W34308  22.615   2.813  12.954
72888W        W34309   1.774  32.050  10.557
72889W        W34310   0.938  35.372  11.428
72890W        W34311  16.783  41.960  13.000
72891W        W34312  13.704  25.509  10.974
72892W        W34313  20.650   1.285  11.414
72893W        W34314   9.327  33.547  14.504
72894W        W34315  23.523  28.984  13.055
72895W        W34316   9.855  10.302   3.689
72896W        W34317  34.079  43.783   2.406
72897W        W34318  27.129   2.728  12.515
72898W        W34319   3.435  13.196   2.336
72899W        W34320  17.135  36.479  12.058
72900W        W34321  30.954  13.837   2.418
72901W        W34322   6.290   4.767   4.734
72902W        W34323   5.199  25.713   2.813
72903W        W34324   7.171  13.785  12.390
72904W        W34325   6.717  30.447  14.883
72905W        W34326  22.070   8.709  10.528
72906W        W34327  28.565  25.963  11.076
72907W        W34328  34.085  34.493   4.263
72908W        W34329  21.148  23.499   2.225
72909W        W34330   8.685  17.236  11.533
72910W        W34331   5.435   1.306  10.566
72911W        W34332  34.111  27.946   3.330
72912W        W34333  14.230  20.720  10.478
72913W        W34334  33.542  43.861   3.654
72914W        W34335  42.348   0.287  11.444
72915W        W34336  37.549  15.607   1.865
72916W        W34337  30.424  14.656  11.890
72917W        W34338  34.456  35.944  13.038
72918W        W34339  28.653  10.634  10.436
72919W        W34340   4.419  33.513  12.405
72920W        W34341   0.867  16.606   1.245
72921W        W34342  20.749   1.780  12.526
72922W        W34343  13.803  29.143  10.619
72923W        W34344   9.668   7.679   4.828
72924W        W34345  22.007   4.444   5.136
72925W        W34346  18.265  17.710   0.271
72926W        W34347  30.935   0.944  11.907
72927W        W34348  22.563   1.920   2.264
72928W        W34349  40.029   6.321   2.325
72929W        W34350  16.618   5.689   3.686
72930W        W34351  39.901  24.645  11.573
72931W        W34352  43.272  13.696   2.278
72932W        W34353  19.099  38.518  11.526
72933W        W34354  13.733  39.880  14.798
72934W        W34355   7.358  16.096   3.337
72935W        W34356  31.141  18.284   3.175
72936W        W34357  34.497  24.112  11.984
72937W        W34358  41.432  21.667   0.361
72938W        W34359  11.234   5.371  10.554
72939W        W34360  37.909  18.771  14.832
72940W        W34361  21.136  44.444  10.443
72941W        W34362  27.131  22.039  11.532
72942W        W34363  18.576  36.972  11.081
72943W        W34364  10.712  30.431  11.939
72944W        W34365  25.708   5.802   9.578
72945W        W34366  27.991  32.574  12.908
72946W        W34367  43.987   0.384   1.322
72947W        W34368  14.625  10.633   3.151
72948W        W34369   8.852  21.588  12.868
72949W        W34370  30.985   0.330   0.755
72950W        W34371  29.489  43.862  14.394
72951W        W34372  44.802  42.981  13.461
72952W        W34373  20.609  32.572  11.020
72953W        W34374  42.497  12.770  12.415
72954W        W34375  40.006  11.711   2.749
72955W        W34376   0.301  15.179   0.458
72956W        W34377   2.258  11.276   4.297
72957W        W34378  40.501  29.661   2.746
72958W        W34379  34.415   7.368  12.900
72959W        W34380  29.616  23.580   4.602
72960W        W34381   9.296   8.896   3.263
72961W        W34382  34.464  26.670   1.400
72962W        W34383  25.127  23.553   2.244
72963W        W34384  41.509   2.367  10.998
72964W        W34385   2.299  34.053   0.856
72965W        W34386  21.201  37.887   4.731
72966W        W34387  26.465  13.317   5.299
72967W        W34388   3.286  14.626  13.980
72968W        W34389  19.265  23.568   2.377
72969W        W34390  18.683  40.361  13.898
72970W        W34391  17.746  17.754   4.802
72971W        W34392  24.086  39.012  10.004
72972W        W34393  34.980  32.531  13.518
72973W        W34394  35.457  25.572  11.119
72974W        W34395   9.244  26.613  10.502
72975W        W34396  12.783  17.787  10.941
72976W        W34397  39.008  27.943   2.338
72977W        W34398  40.867  34.056  14.508
72978W        W34399  14.804  26.991  12.860
72979W        W34400  33.002   7.711   1.352
72980W        W34401  24.582   3.236   3.868
72981W        W34402  43.361  27.599  11.554
72982W        W34403  28.655  44.888  14.371
72983W        W34404   3.455  29.528  12.506
72984W        W34405  33.892  23.203  11.041
72985W        W34406   2.426  31.921  13.942
72986W        W34407  26.569  24.004   4.332
72987W        W34408  18.702  11.837  11.088
72988W        W34409  34.530  36.440   3.747
72989W        W34410  25.158  12.130   3.377
72990W        W34411  14.125  14.277  11.061
72991W        W34412   7.843  44.374  11.534
72992W        W34413   5.798  42.891   2.199
72993W        W34414  37.495  41.473  11.986
72994W        W34415  29.175  23.093   0.887
72995W        W34416   8.340  23.163   1.809
72996W        W34417   1.761  38.561   1.726
72997W        W34418   7.288  21.098  11.571
72998W        W34419  22.150  15.157   5.086
72999W        W34420  41.863  10.255  14.807
73000W        W34421  10.280   1.809  12.483
73001W        W34422  16.221   8.817   1.886
73002W        W34423  24.184  35.585   4.645
73003W        W34424   4.812   2.357   3.242
73004W        W34425  37.347  40.013   0.330
73005W        W34426  29.044  35.048  10.974
73006W        W34427   5.823  25.496   2.259
73007W        W34428   8.877  30.578  13.949
73008W        W34429  12.338   9.783  10.632
73009W        W34430  33.529  28.585  13.948
73010W        W34431  42.495  36.572  11.936
73011W        W34432  41.308  36.496  13.352
73012W        W34433  38.073  10.278   3.278
73013W        W34434  18.149   3.891   3.859
73014W        W34435  32.469  11.699  13.351
73015W        W34436   3.733   7.245  10.498
73016W        W34437  21.583   8.188   2.202
73017W        W34438   0.323  44.457   1.882
73018W        W34439   7.227  18.100  11.586
73019W        W34440  14.313  30.070   2.247
73020W        W34441  23.101  32.561   2.727
73021W        W34442  27.589  43.897   2.263
73022W        W34443  34.911  29.026   2.728
73023W        W34444  10.658  19.761   0.914
73024W        W34445   4.768  26.094   0.868
73025W        W34446   2.408  25.182  12.856
73026W        W34447  25.149  32.106   0.910
73027W        W34448  26.583  42.348   1.799
73028W        W34449  44.849  15.712   0.933
73029W        W34450  16.572  29.985  14.898
73030W        W34451  23.160  44.841   2.816
73031W        W34452  13.836  27.196   0.371
73032W        W34453  33.431  28.164   4.137
73033W        W34454  31.419  16.764  13.322
73034W        W34455   1.805  11.632  13.943
73035W        W34456  39.900  17.258  11.605
73036W        W34457  31.989  42.384   4.791
73037W        W34458  43.871   3.743   4.712
73038W        W34459   1.284  25.476  12.073
73039W        W34460  27.096  25.473   0.263
73040W        W34461   8.351  37.579  14.470
73041W        W34462  17.146  23.143   4.693
73042W        W34463  12.315   2.874   3.307
73043W        W34464  14.151  43.779  11.086
73044W        W34465  37.876  17.128   0.322
73045W        W34466   5.894   9.720  10.579
73046W        W34467  30.497  12.743  13.529
73047W        W34468  32.425  15.317   1.750
73048W        W34469  24.989  20.236  12.431
73049W        W34470   6.183  35.867   3.831
73050W        W34471  35.578  33.965   1.878
73051W        W34472  40.857  23.539   1.823
73052W        W34473  41.468   6.730   0.476
73053W        W34474   6.847  25.678  13.543
73054W        W34475  23.629   1.375   3.858
73055W        W34476   1.323  36.592   2.711
73056W        W34477  16.223   0.943  14.419
73057W        W34478  34.104  28.653   4.774
73058W        W34479  20.524  18.142   3.845
73059W        W34480  13.637  10.178   1.413
73060W        W34481   8.160   4.888   1.381
73061W        W34482  44.283  27.531   4.330
73062W        W34483  42.897  24.049   3.709
73063W        W34484  14.231  15.164  11.460
73064W        W34485  33.483  43.864   2.709
73065W        W34486  33.950  23.553  11.874
73066W        W34487  15.703  40.471   0.366
73067W        W34488   6.426   3.315  14.927
73068W        W34489  10.378  42.391   1.829
73069W        W34490   8.869  26.599   3.682
73070W        W34491  39.991  21.710  14.887
73071W        W34492  13.833  41.303   1.436
73072W        W34493  42.005   1.479   3.679
73073W        W34494   9.295  19.060   2.314
73074W        W34495   2.786  23.531   0.429
73075W        W34496  22.192  33.426  13.534
73076W        W34497  12.251  11.661  10.908
73077W        W34498  32.611  22.688  12.848
73078W        W34499  44.337  23.178  14.400
73079W        W34500  24.706  12.611  11.424
73080W        W34501  43.920  12.348  13.840
73081W        W34502   6.184  32.598  12.901
73082W        W34503  37.955   6.191   0.429
73083W        W34504   3.737  25.091   1.712
73084W        W34505  38.837  38.882  13.052
73085W        W34506  35.498  33.060   3.775
73086W        W34507   3.269  28.072  11.117
73087W        W34508  18.735  23.510   2.854
73088W        W34509  40.815  16.585   3.679
73089W        W34510   5.236  34.896  11.411
73090W        W34511   6.764   5.364   4.340
73091W        W34512  28.601  42.383   3.805
73092W        W34513  42.012  37.515  10.141
73093W        W34514  16.602   0.428  14.361
73094W        W34515  34.389  21.253   3.352
73095W        W34516  42.341  14.712   0.888
73096W        W34517  37.994  42.379   2.286
73097W        W34518  31.084  44.267  14.899
73098W        W34519   5.325   1.300   0.334
73099W        W34520  26.144   6.221   3.819
73100W        W34521  43.386  19.092  10.947
73101W        W34522  41.449  39.906  12.485
73102W        W34523  14.204  29.522  10.969
73103W        W34524  44.941   9.251   1.362
73104W        W34525  14.713  30.586   0.835
73105W        W34526  22.185  10.285  12.988
73106W        W34527  37.555  36.913   0.341
73107W        W34528  33.557  41.388   3.804
73108W        W34529  13.656  17.151   0.735
73109W        W34530  27.962   9.347   0.827
73110W        W34531  21.626  37.441   4.287
73111W        W34532   6.841  28.153  10.497
73112W        W34533  10.794   4.918  14.820
73113W        W34534  34.370  31.616  11.596
73114W        W34535   7.688  20.760   4.293
73115W        W34536  36.366  13.232   5.125
73116W        W34537  24.489  40.514  12.890
73117W        W34538  10.332  29.168  11.911
73118W        W34539  38.561   7.852   2.700
73119W        W34540  15.817  25.531  14.311
73120W        W34541  17.232   5.359  13.936
73121W        W34542  14.717  10.263  14.308
73122W        W34543   6.325   2.893   1.418
73123W        W34544   9.189  26.671   2.842
73124W        W34545  21.027  40.894  14.829
73125W        W34546   1.381  13.621  12.486
73126W        W34547   1.766  43.865  14.314
73127W        W34548   1.759  28.070   0.880
73128W        W34549   9.363  41.382   2.363
73129W        W34550   4.301   4.840   0.373
73130W        W34551  35.998   9.816   3.362
73131W        W34552  43.800  19.149  12.380
73132W        W34553  39.348  23.194   4.283
73133W        W34554  26.038  34.062  14.404
73134W        W34555  20.215   7.193  11.605
73135W        W34556  44.823  24.191  14.998
73136W        W34557  13.136  14.188  11.033
73137W        W34558  37.433  30.429  12.441
73138W        W34559  11.668   5.424   0.316
73139W        W34560  42.007  13.791   2.679
73140W        W34561  18.763  27.647  12.401
73141W        W34562  37.849  22.591   3.284
73142W        W34563  14.755   7.744   4.339
73143W        W34564  35.481  17.748  12.343
73144W        W34565  30.055  36.583   0.830
73145W        W34566  39.384  42.845  11.066
73146W        W34567  39.407  42.481  11.974
73147W        W34568  28.098  28.136  12.548
73148W        W34569  24.081  36.406  13.802
73149W        W34570  16.127  16.308   0.746
73150W        W34571  36.007   0.757  11.405
73151W        W34572  26.535   9.186   0.966
73152W        W34573  37.854  34.592   4.783
73153W        W34574   9.267  35.553   2.292
73154W        W34575  12.355  29.048  13.064
73155W        W34576  31.638  41.946  13.349
73156W        W34577  37.066  19.602   4.297
73157W        W34578  28.563   1.795   2.305
73158W        W34579  27.074  16.706  14.513
73159W        W34580  34.440  32.104   4.131
73160W        W34581  24.089  27.553  10.413
73161W        W34582  38.453  22.205   0.318
73162W        W34583  35.392   4.449   4.270
73163W        W34584   2.253  29.537   2.738
73164W        W34585  16.253   1.270  10.962
73165W        W34586  20.611  22.066   4.649
73166W        W34587  32.136  16.147  12.402
73167W        W34588  21.131  28.055   1.838
73168W        W34589  42.304  42.386  14.955
73169W        W34590  33.594   6.286   4.288
73170W        W34591  31.972  23.549   2.303
73171W        W34592  20.097   4.887   4.644
73172W        W34593  10.141  35.985   1.438
73173W        W34594  12.282  18.547  12.930
73174W        W34595  17.120  10.858  14.941
73175W        W34596  23.102  30.646  13.469
73176W        W34597  29.558   7.697   0.426
73177W        W34598   8.760  43.508  13.514
73178W        W34599  42.480  34.943   1.230
73179W        W34600  39.415   3.769   2.739
73180W        W34601  25.070  31.078  12.404
73181W        W34602  17.704  25.091   2.766
73182W        W34603  24.666  15.299   1.293
73183W        W34604  22.119   4.280   2.888
73184W        W34605   5.867  16.689   0.315
73185W        W34606  35.086  36.357  10.476
73186W        W34607  17.087  44.436   2.729
73187W        W34608  10.174  17.638  10.523
73188W        W34609  43.942  18.637   0.814
73189W        W34610  44.904  36.385  13.325
73190W        W34611  13.685   6.268  11.536
73191W        W34612  34.529   2.279  11.585
73192W        W34613  17.176   9.705   2.699
73193W        W34614  21.600  12.332  14.371
73194W        W34615  30.521  24.497  11.021
73195W        W34616  42.430  44.864  12.093
73196W        W34617   0.387   4.250  14.772
73197W        W34618   0.417  36.846   2.376
73198W        W34619   6.310   6.354  12.463
73199W        W34620   1.294  26.093  13.497
73200W        W34621  19.215  29.936  13.319
73201W        W34622  16.092  37.072   3.162
73202W        W34623   1.882  31.073  11.965
73203W        W34624  14.679  39.460   1.841
73204W        W34625  38.391  11.664  10.610
73205W        W34626  15.719  13.827  13.379
73206W        W34627  30.434  14.185   0.414
73207W        W34628  17.588   8.793   1.708
73208W        W34629  20.099  27.978   4.146
73209W        W34630  42.327  27.646  13.318
73210W        W34631   5.341  27.528  12.577
73211W        W34632  32.407  23.718   4.736
73212W        W34633  42.012   7.232   2.207
73213W        W34634  12.248  16.632   4.790
73214W        W34635  43.011   5.197  13.911
73215W        W34636  30.939   7.387  10.404
73216W        W34637  31.111   9.328  13.008
73217W        W34638   8.719   7.376  10.530
73218W        W34639  34.588  29.572   1.365
73219W        W34640   8.298  38.402   1.756
73220W        W34641  22.612  43.419  14.780
73221W        W34642  39.940   1.781   3.772
73222W        W34643  35.482  37.907   0.415
73223W        W34644  12.665  31.920   4.276
73224W        W34645  28.464  31.633  10.481
73225W        W34646  36.886   7.805   3.650
73226W        W34647  41.529  20.084   3.675
73227W        W34648   3.903   3.801  12.925
73228W        W34649  40.304  25.676  12.911
73229W        W34650  15.673  23.030   3.193
73230W        W34651   2.277  33.060  10.911
73231W        W34652  21.571  43.439   1.731
73232W        W34653  32.624  30.641   0.280
73233W        W34654  25.562  39.360  11.024
73234W        W34655  22.532  14.738  10.497
73235W        W34656  31.647  44.842  11.073
73236W        W34657  23.668  21.604   1.332
73237W        W34658  44.876   9.771  14.345
73238W        W34659   8.250  16.229   3.827
73239W        W34660  12.742  36.432  10.519
73240W        W34661  17.784  39.459   1.306
73241W        W34662  42.502   3.343  14.917
73242W        W34663   6.185   9.297   2.681
73243W        W34664   6.922  42.292  14.285
73244W        W34665  34.392  36.467   1.241
73245W        W34666   5.372   3.432  10.148
73246W        W34667  26.064  14.147   4.628
73247W        W34668   6.367   1.847   4.167
73248W        W34669  26.475  33.586   0.253
73249W        W34670  23.578  40.934   3.801
73250W        W34671  21.138  40.398  11.956
73251W        W34672  40.037  21.132  12.369
73252W        W34673  36.977  41.307   4.295
73253W        W34674  12.803  44.353   2.841
73254W        W34675   2.746  13.794  13.311
73255W        W34676  16.782  11.860   0.322
73256W        W34677  30.100  34.574  11.056
73257W        W34678  30.097  32.046  12.453
73258W        W34679  40.908  12.786  14.878
73259W        W34680  36.389  36.435   3.647
73260W        W34681   0.870  33.897  14.904
73261W        W34682  36.944  17.239   1.448
73262W        W34683  15.201  39.384  11.871
73263W        W34684  27.550  23.615   4.273
73264W        W34685  27.188  31.557  11.427
73265W        W34686  43.973  10.370  12.372
73266W        W34687   8.167  27.996  12.980
73267W        W34688  30.657   8.654  12.075
73268W        W34689  15.283  16.115  12.874
73269W        W34690  13.730   7.856  13.348
73270W        W34691   0.776  33.941  14.304
73271W        W34692  17.109  28.490  14.762
73272W        W34693   9.795   7.821   2.668
73273W        W34694   1.244  30.646   3.339
73274W        W34695  12.196   3.459   1.849
73275W        W34696  30.641   4.232   2.363
73276W        W34697  25.650  19.074  13.456
73277W        W34698   3.252  42.472  12.505
73278W        W34699   0.841  25.004   4.717
73279W        W34700  10.643  40.831  10.536
73280W        W34701  40.988   8.310   0.764
73281W        W34702  31.522   0.764   0.902
73282W        W34703  10.740  33.874  14.288
73283W        W34704  14.276  13.659   0.247
73284W        W34705  11.831  17.197  10.594
73285W        W34706  16.741  33.005  11.033
73286W        W34707   7.310  37.013  14.326
73287W        W34708  29.963   4.826  10.411
73288W        W34709   6.386  25.559   0.257
73289W        W34710  43.421  43.306  12.950
73290W        W34711  27.516  39.905  13.035
73291W        W34712  10.796  24.609   2.779
73292W        W34713  34.444  16.641   1.809
73293W        W34714  43.413  25.091   9.921
73294W        W34715  44.903  23.593  13.017
73295W        W34716  10.145  28.142   3.358
73296W        W34717   4.405   3.301  14.831
73297W        W34718  21.675  44.944  10.975
73298W        W34719  28.185   8.658   3.710
73299W        W34720  39.448  28.954   4.120
73300W        W34721  34.098  24.214  11.502
73301W        W34722  38.930  15.674   0.765
73302W        W34723  11.699   2.442   1.394
73303W        W34724  22.102  21.514   4.742
73304W        W34725  16.177   6.367  11.500
73305W        W34726   7.402   0.398   0.408
73306W        W34727   6.355  43.829  13.371
73307W        W34728   3.919  31.409  11.986
73308W        W34729  38.971  41.436   1.880
73309W        W34730  26.029  40.422   4.167
73310W        W34731  12.221  18.182   4.624
73311W        W34732  37.381   7.700   0.302
73312W        W34733  17.703   6.404   4.134
73313W        W34734   7.330   5.404   4.136
73314W        W34735   1.245  35.472   0.457
73315W        W34736  29.083  31.064  11.545
73316W        W34737  29.088  24.717  10.921
73317W        W34738  33.990  39.481   3.247
73318W        W34739  44.867  39.392  10.445
73319W        W34740   9.719  21.189  14.000
73320W        W34741  32.999  30.082   3.376
73321W        W34742  32.603  30.944   2.190
73322W        W34743  12.659  40.841   1.722
73323W        W34744  44.835  29.490   1.845
73324W        W34745  13.259  22.071  13.874
73325W        W34746  11.664  17.610   1.771
73326W        W34747   4.864   3.956  14.435
73327W        W34748  10.191  10.862   0.748
73328W        W34749   1.384  36.941   1.286
73329W        W34750  16.300   8.680   3.186
73330W        W34751  37.484  44.831  13.818
73331W        W34752  36.018  19.551   0.786
73332W        W34753  14.114  25.610  14.403
73333W        W34754  33.991  34.960  14.779
73334W        W34755   7.391   1.468  13.381
73335W        W34756  41.839  14.781  12.523
73336W        W34757  35.870   4.324  14.370
73337W        W34758  21.053  24.533  12.383
73338W        W34759  16.126  32.600  13.465
73339W        W34760  28.098  37.495   3.772
73340W        W34761  13.834   1.977   4.653
73341W        W34762   2.382   5.762  12.839
73342W        W34763  39.879  21.678   1.395
73343W        W34764   1.430   0.917   1.778
73344W        W34765  35.961  34.550  13.958
73345W        W34766  37.988   9.814  10.526
73346W        W34767  40.978  36.872  13.455
73347W        W34768  13.131  13.787   0.825
73348W        W34769  41.905   8.672   3.352
73349W        W34770  28.047  38.516  14.366
73350W        W34771   9.806  19.723   1.364
73351W        W34772  39.031   6.341  10.508
73352W        W34773  31.961   8.237   2.806
73353W        W34774  41.868  32.078   0.382
73354W        W34775  26.620  40.462   5.214
73355W        W34776  38.325  15.198  12.049
73356W        W34777  41.886  43.359  13.918
73357W        W34778  21.672  32.459  11.544
73358W        W34779  20.572   0.943  12.447
73359W        W34780  37.453   7.893  10.894
73360W        W34781  33.968  41.966  12.354
73361W        W34782  30.540  25.518   1.443
73362W        W34783   6.189  13.750   4.790
73363W        W34784  14.259  27.459   3.230
73364W        W34785   6.240  16.799  14.337
73365W        W34786   4.942  36.976  12.828
73366W        W34787  10.690  30.124  13.946
73367W        W34788   9.849   7.345   2.216
73368W        W34789  33.045  44.280   1.249
73369W        W34790  10.208  37.051   3.646
73370W        W34791  26.206   7.244   0.480
73371W        W34792  20.712  21.138  10.632
73372W        W34793  27.655   4.283   0.858
73373W        W34794  11.262  13.816  12.056
73374W        W34795  14.293  26.535   4.239
73375W        W34796  34.031   7.208   3.260
73376W        W34797  20.091  21.105   0.287
73377W        W34798   9.840  25.670  14.421
73378W        W34799  41.498  25.076  11.003
73379W        W34800   9.751  37.494  12.096
73380W        W34801  15.807  22.076  13.372
73381W        W34802  40.476  20.065   3.156
73382W        W34803  22.692   1.440   0.347
73383W        W34804  16.177  16.222   4.209
73384W        W34805  13.717   7.248  11.532
73385W        W34806  11.224  41.936  14.009
73386W        W34807   1.245  42.341   1.715
73387W        W34808   7.221   6.388   3.710
73388W        W34809  24.502  24.104   0.377
73389W        W34810   9.215  34.486   2.286
73390W        W34811  11.639  39.315   2.813
73391W        W34812  38.828  11.127  10.408
73392W        W34813  16.214   9.811   3.691
73393W        W34814  19.147   6.275   2.717
73394W        W34815  24.702   1.396  13.421
73395W        W34816   2.956  30.006   4.290
73396W        W34817  15.678  21.669   0.339
73397W        W34818  19.704   1.260   3.178
73398W        W34819  24.609  40.527   4.307
73399W        W34820  20.611  22.717  11.916
73400W        W34821  27.058  22.663  14.020
73401W        W34822  39.408  35.921  13.054
73402W        W34823  31.562  26.619   0.930
73403W        W34824   6.231  25.600   1.818
73404W        W34825  33.112  42.802  12.894
73405W        W34826   6.822  23.671   2.188
73406W        W34827  23.023  37.359  13.842
73407W        W34828  11.789  42.023   1.828
73408W        W34829  15.730  15.195   2.390
73409W        W34830  19.638   1.435   4.197
73410W        W34831  33.497  17.600   2.840
73411W        W34832  41.794  16.090   2.859
73412W        W34833  28.006  36.359  13.982
73413W        W34834   2.386  18.618   4.777
73414W        W34835  38.048  13.342   0.939
73415W        W34836   2.795  33.535   3.772
73416W        W34837  27.592  36.476  14.484
73417W        W34838  41.024  13.240   2.375
73418W        W34839  42.023  40.492  12.043
73419W        W34840  28.665  21.665   4.705
73420W        W34841  24.046   6.916   3.831
73421W        W34842  11.738  17.669  11.035
73422W        W34843   7.688  43.019   1.720
73423W        W34844  41.811  43.362  10.985
73424W        W34845  30.972  30.145  11.409
73425W        W34846   2.265  20.698   4.686
73426W        W34847  29.527  20.097  11.598
73427W        W34848  34.930   0.249   5.282
73428W        W34849  36.976  36.015  12.506
73429W        W34850   3.893   6.386   3.691
73430W        W34851  10.773  27.559   3.359
73431W        W34852  10.709  38.521  14.965
73432W        W34853  28.994  21.558   3.658
73433W        W34854   6.205  25.209   2.319
73434W        W34855  30.939  27.574  13.840
73435W        W34856   7.836  39.366  11.916
73436W        W34857  38.983  38.001  14.869
73437W        W34858   3.827  17.172  10.432
73438W        W34859  12.357  10.732  11.606
73439W        W34860   9.286  35.598   3.831
73440W        W34861  42.848   7.845  13.308
73441W        W34862  12.726  15.327   0.889
73442W        W34863  32.519   4.253  13.497
73443W        W34864   2.277  43.859   1.255
73444W        W34865  22.514  43.308  10.086
73445W        W34866  17.590   8.310  10.559
73446W        W34867  40.824  14.234   0.446
73447W        W34868  35.882  27.028   1.274
73448W        W34869   4.320   2.767   1.810
73449W        W34870  12.671  10.211  10.423
73450W        W34871  31.121  14.746  12.530
73451W        W34872  28.632  44.951  12.918
73452W        W34873  13.645  24.146  12.009
73453W        W34874  19.122  15.177   2.281
73454W        W34875  35.980  33.406   1.732
73455W        W34876  37.901  38.367   4.243
73456W        W34877  36.385  27.136   3.806
73457W        W34878  16.074  37.536  14.426
73458W        W34879  34.611  18.105  12.872
73459W        W34880  44.303  18.093   3.839
73460W        W34881  19.216  23.522   4.117
73461W        W34882  19.564  22.671   3.835
73462W        W34883  32.071   3.855  14.785
73463W        W34884  14.265  12.220  14.378
73464W        W34885   1.912  35.874   2.882
73465W        W34886  13.196  36.399   1.868
73466W        W34887  26.023   3.749   0.387
73467W        W34888  24.717  20.198  14.892
73468W        W34889  40.922   4.365   2.661
73469W        W34890  17.757  25.056  13.008
73470W        W34891   4.326  31.546   1.918
73471W        W34892  13.662  16.242  12.853
73472W        W34893   5.749  31.909   2.190
73473W        W34894  19.189  14.213  11.940
73474W        W34895   0.475  21.167   2.775
73475W        W34896   2.822  18.755  13.490
73476W        W34897  41.959  12.186  11.897
73477W        W34898   3.297   6.756   4.239
73478W        W34899  35.411  16.247  12.866
73479W        W34900   3.224  43.355   5.103
73480W        W34901  23.720   8.175  10.434
73481W        W34902  20.199  42.525  14.905
73482W        W34903  26.134  28.595   3.642
73483W        W34904  38.980  42.899  10.091
73484W        W34905  32.524  13.790  13.496
73485W        W34906  38.894   6.259   4.665
73486W        W34907  20.036  28.159   3.737
73487W        W34908  19.186  41.963  12.876
73488W        W34909   4.239  31.091   9.924
73489W        W34910  19.566  41.953  10.597
73490W        W34911  44.825   0.284   1.322
73491W        W34912  43.889  23.189   0.372
73492W        W34913  21.106  40.422  13.513
73493W        W34914  10.163  25.966   0.345
73494W        W34915  14.264  27.044  11.056
73495W        W34916  26.503  15.129   3.165
73496W        W34917  29.098  20.540   4.660
73497W        W34918  11.625  33.025   1.706
73498W        W34919  30.441   8.726   0.394
73499W        W34920  11.220  43.305  14.883
73500W        W34921   7.173  22.175   0.478
73501W        W34922  36.090  33.959   2.838
73502W        W34923  12.652   2.252  12.948
73503W        W34924   6.302  10.192  12.089
73504W        W34925  39.016  19.160  14.963
73505W        W34926   1.840  19.607  10.903
73506W        W34927   6.834  15.088  13.524
73507W        W34928   3.782   2.233  14.835
73508W        W34929  14.757  41.035   3.801
73509W        W34930  29.059  42.293  13.513
73510W        W34931  11.244  30.597   4.181
73511W        W34932   8.786  15.135   4.126
73512W        W34933  21.134   1.958  14.770
73513W        W34934  16.287  31.066  11.429
73514W        W34935  15.265  38.355   3.651
73515W        W34936  42.934  18.549   2.831
73516W        W34937  37.456  19.148  13.000
73517W        W34938  18.588  39.899  10.605
73518W        W34939  29.048  43.929  12.908
73519W        W34940  24.503  17.150  13.327
73520W        W34941  21.683   5.745  13.008
73521W        W34942   8.390   0.311  12.845
73522W        W34943   8.888  27.489  11.878
73523W        W34944  44.854  39.927   3.159
73524W        W34945  40.029  43.373   3.726
73525W        W34946  14.273   6.259   3.318
73526W        W34947  24.091  22.543   9.998
73527W        W34948  32.566  23.220  14.945
73528W        W34949  32.009  11.630   4.765
73529W        W34950  19.102  28.035  14.356
73530W        W34951  27.655  42.835  10.922
73531W        W34952  28.542  35.367   1.226
73532W        W34953  13.640   9.188   1.430
73533W        W34954  33.897  22.672  10.638
73534W        W34955  20.658  33.415  12.351
73535W        W34956   3.260  14.325  14.334
73536W        W34957   9.832  15.316   3.311
73537W        W34958  22.668  38.853  12.371
73538W        W34959  16.226  20.193  11.418
73539W        W34960  31.098  27.515   2.240
73540W        W34961  31.904  24.610   3.864
73541W        W34962  24.559   1.445   1.699
73542W        W34963   1.451   4.412   2.311
73543W        W34964   3.396  42.923  13.891
73544W        W34965  17.119   4.738  10.907
73545W        W34966  29.001  15.248  11.592
73546W        W34967  29.932   8.772   5.249
73547W        W34968   9.394   4.369  12.915
73548W        W34969   0.251  23.172  10.465
73549W        W34970  16.211   5.323  11.568
73550W        W34971  38.456  13.774   0.316
73551W        W34972  12.771  36.982  14.868
73552W        W34973  34.391   7.813  12.877
73553W        W34974  30.164  33.518   2.864
73554W        W34975  20.065  20.688   3.713
73555W        W34976   9.671  39.982   3.827
73556W        W34977  32.446  37.079   2.742
73557W        W34978  40.481  38.869   3.716
73558W        W34979  24.706   6.198  13.052
73559W        W34980  15.116  42.513   4.835
73560W        W34981  14.262   9.356   1.901
73561W        W34982   6.861  37.455   1.346
73562W        W34983   6.727   3.431   9.605
73563W        W34984   5.238  22.554   1.874
73564W        W34985  21.610  18.057   1.357
73565W        W34986  11.750   4.900  11.479
73566W        W34987  44.297  26.052   2.276
73567W        W34988  23.601  18.263  14.322
73568W        W34989  33.045  10.743   1.784
73569W        W34990  11.354   6.383   4.213
73570W        W34991  12.721   5.345   2.413
73571W        W34992  22.006   4.348  10.948
73572W        W34993  18.730  41.926   3.285
73573W        W34994  14.706   2.766  10.613
73574W        W34995   1.411  28.174  12.401
73575W        W34996   0.768   8.777   0.816
73576W        W34997  14.134  12.165   0.886
73577W        W34998   8.266   9.730   4.315
73578W        W34999  27.050  37.876   4.676
73579W        W35000   5.786  10.223   0.958
73580W        W35001  16.219   7.379   0.845
73581W        W35002  33.911  40.858   0.830
73582W        W35003  16.780  41.309   1.828
73583W        W35004  22.707  17.157  13.008
73584W        W35005  18.703  34.956   1.911
73585W        W35006  44.504  33.045  12.940
73586W        W35007  26.992  36.414   4.679
73587W        W35008  26.498  10.185   5.190
73588W        W35009   0.361  18.281  14.913
73589W        W35010  34.005  35.973   4.809
73590W        W35011  24.134   6.235   0.352
73591W        W35012  34.094  13.833   4.247
73592W        W35013  31.075   9.170   3.187
73593W        W35014   3.840  24.601  13.383
73594W        W35015   5.731  15.805   4.718
73595W        W35016  38.412  24.574  14.805
73596W        W35017  30.512   1.241   4.338
73597W        W35018  43.418  38.892  13.980
73598W        W35019  33.887  16.730  12.356
73599W        W35020  40.840  16.274   0.436
73600W        W35021   1.904  33.528   0.292
73601W        W35022   9.837  13.682  11.592
73602W        W35023  20.247  32.452   4.248
73603W        W35024  33.565  26.695  10.464
73604W        W35025  40.869  26.683   4.684
73605W        W35026  27.998  43.802   1.418
73606W        W35027  18.129   6.843   1.444
73607W        W35028   9.807   6.192   1.879
73608W        W35029  34.972  27.986   2.275
73609W        W35030   8.328  42.365  11.556
73610W        W35031  14.747  40.445   0.770
73611W        W35032  37.533  21.745  13.386
73612W        W35033  17.103  33.903  11.605
73613W        W35034   0.460  15.687  10.154
73614W        W35035  38.056  18.746   3.355
73615W        W35036  33.456   8.898  13.504
73616W        W35037  30.102   8.251   0.894
73617W        W35038  13.609   5.374   4.654
73618W        W35039  35.586  43.000  13.545
73619W        W35040  44.917   3.865  14.809
73620W        W35041   6.699  30.503   3.186
73621W        W35042  21.222  27.989  12.393
73622W        W35043   6.377   6.359   2.759
73623W        W35044   2.784  39.401  13.428
73624W        W35045   2.854  36.026  12.988
73625W        W35046  24.689  16.602   4.613
73626W        W35047  32.137   1.740  14.031
73627W        W35048   1.276   1.901  12.841
73628W        W35049  30.988   3.219   5.243
73629W        W35050  22.526  41.466  10.604
73630W        W35051   9.808  20.753  10.968
73631W        W35052  16.132  15.238  12.393
73632W        W35053  31.901  15.192   0.877
73633W        W35054  17.794  21.263  13.482
73634W        W35055  23.694  16.691  11.968
73635W        W35056  34.914   8.764  13.889
73636W        W35057   9.386  44.344  14.470
73637W        W35058   6.366   2.891  10.535
73638W        W35059  10.677  43.934  11.056
73639W        W35060  23.658  14.122  11.099
73640W        W35061  13.302  43.457  10.944
73641W        W35062  10.241   9.651   1.225
73642W        W35063   7.839  34.611   0.878
73643W        W35064  17.719  15.292  14.319
73644W        W35065  17.223  32.992   3.244
73645W        W35066  12.275  14.636  11.037
73646W        W35067  14.821  17.088   3.722
73647W        W35068  18.750  24.209   4.677
73648W        W35069  43.848   5.346   4.829
73649W        W35070  44.826   5.867  13.357
73650W        W35071  29.576  12.222   2.837
73651W        W35072  31.133  29.494   2.748
73652W        W35073  13.841  38.029  12.371
73653W        W35074  21.152   0.478   3.327
73654W        W35075  34.519  13.651   1.405
73655W        W35076  38.940  35.593   1.319
73656W        W35077   7.383  43.835  11.946
73657W        W35078  18.632  32.019  10.121
73658W        W35079  21.062  30.592  10.451
73659W        W35080  40.848   9.844   4.208
73660W        W35081  22.032  13.744  10.007
73661W        W35082  23.671  29.164   2.871
73662W        W35083   4.239  21.086   1.247
73663W        W35084  14.150  17.672   1.877
73664W        W35085   4.270  40.502  14.805
73665W        W35086   3.444  42.428   2.886
73666W        W35087  41.866  29.052  13.386
73667W        W35088  29.167  34.400   2.289
73668W        W35089   4.393   3.422  14.468
73669W        W35090  25.209   0.267   3.851
73670W        W35091  30.907   1.771   5.700
73671W        W35092   9.341  37.339   2.388
73672W        W35093  10.680  24.071   1.427
73673W        W35094   5.359  38.526   3.175
73674W        W35095   7.715  43.804  12.869
73675W        W35096  21.078  39.896  11.599
73676W        W35097   0.807   4.769   2.829
73677W        W35098  39.919  16.237   5.599
73678W        W35099  28.652  25.665   3.154
73679W        W35100  27.455  12.785   3.292
73680W        W35101   7.892  43.979  13.424
73681W        W35102   1.444   4.852  11.504
73682W        W35103  10.836  14.177  14.464
73683W        W35104  30.008   9.812  10.143
73684W        W35105  18.273  38.382   2.184
73685W        W35106  25.133  43.418   0.751
73686W        W35107  25.591   7.207  10.480
73687W        W35108  10.797  44.969   3.284
73688W        W35109  13.620  40.469   1.920
73689W        W35110   6.842  36.929   2.692
73690W        W35111  25.579  35.009   1.913
73691W        W35112  29.084   3.347   4.229
73692W        W35113  30.569  11.247  11.938
73693W        W35114  43.415  19.130  11.492
73694W        W35115  33.996  34.019   4.313
73695W        W35116  35.890  26.176  13.933
73696W        W35117   9.174  19.534   0.326
73697W        W35118  28.946  13.302   1.227
73698W        W35119  22.521  31.087   3.170
73699W        W35120  13.288  22.169   3.264
73700W        W35121  18.082  33.513   1.397
73701W        W35122   3.361   0.792  10.619
73702W        W35123  15.692  29.668   3.158
73703W        W35124  20.213  11.145  14.343
73704W        W35125   2.851  13.783  12.560
73705W        W35126  36.091  11.769   1.847
73706W        W35127   7.883  12.833   4.332
73707W        W35128  38.893  37.552   9.922
73708W        W35129  13.801  42.378   2.879
73709W        W35130  16.711  17.067   4.217
73710W        W35131  44.804  23.634  11.529
73711W        W35132  44.396  39.808   2.739
73712W        W35133  10.834  40.346  13.475
73713W        W35134  19.566  44.788  14.350
73714W        W35135  19.752   0.249  14.449
73715W        W35136  38.527   2.779   1.736
73716W        W35137  27.017  15.124   1.300
73717W        W35138  17.647  26.180  14.927
73718W        W35139  29.570  38.001  14.796
73719W        W35140  38.955  11.699  11.600
73720W        W35141   7.780  27.645  12.389
73721W        W35142  20.643  28.006  13.857
73722W        W35143  16.786   9.193   2.830
73723W        W35144   5.375  12.624  12.094
73724W        W35145  11.134  39.381  13.316
73725W        W35146  13.291  42.934  12.550
73726W        W35147  26.602  18.583  12.422
73727W        W35148   8.291  32.618  13.521
73728W        W35149  28.543  16.799  11.981
73729W        W35150  26.632  28.608   0.343
73730W        W35151  30.020   8.313   3.286
73731W        W35152  25.679  38.845  11.438
73732W        W35153   3.318  15.685  12.963
73733W        W35154  11.831  39.391  10.509
73734W        W35155   8.888  33.524  14.500
73735W        W35156   1.399  10.176  10.469
73736W        W35157   0.949   5.363   0.929
73737W        W35158  43.490  24.641   1.379
73738W        W35159  17.744  36.581  12.574
73739W        W35160   5.851  29.533   1.873
73740W        W35161  23.224  43.914   2.268
73741W        W35162  33.388   5.814  14.831
73742W        W35163   3.882  27.579   0.310
73743W        W35164   0.767   1.731   4.692
73744W        W35165  41.317   5.907  14.790
73745W        W35166   5.826   5.381  12.898
73746W        W35167  11.258  14.796  10.462
73747W        W35168  29.606  17.746  14.007
73748W        W35169  44.272  14.103   3.357
73749W        W35170   2.411   6.301   5.190
73750W        W35171  44.980  42.902   0.360
73751W        W35172  19.625  32.899  14.896
73752W        W35173  18.184   6.769   4.671
73753W        W35174  38.846   0.397  11.959
73754W        W35175  38.541   8.885   0.775
73755W        W35176  32.937  33.946  11.477
73756W        W35177   4.855  24.182  12.340
73757W        W35178  36.354   4.216  12.867
73758W        W35179  19.646  11.800  11.947
73759W        W35180  23.063   2.776  10.038
73760W        W35181  25.656  22.592  14.974
73761W        W35182  32.552   0.971   1.412
73762W        W35183   5.283  12.650   3.217
73763W        W35184  18.595  23.024   2.785
73764W        W35185  21.031  38.955  13.451
73765W        W35186  22.189   3.218   5.089
73766W        W35187  10.731  34.399  14.912
73767W        W35188   1.271  29.598   3.272
73768W        W35189  25.694   5.299  12.913
73769W        W35190  30.116  32.468   3.375
73770W        W35191  40.386   8.217   2.328
73771W        W35192  24.512   0.299  12.545
73772W        W35193  16.709   1.767   0.356
73773W        W35194  31.128  39.513   0.257
73774W        W35195   5.762  29.655   4.163
73775W        W35196  23.681  12.327  13.055
73776W        W35197  35.934  35.898  13.953
73777W        W35198  44.416  23.648  13.978
73778W        W35199  26.168  41.340   3.175
73779W        W35200  23.496  28.054  12.562
73780W        W35201   8.264   6.262  11.881
73781W        W35202   2.272  18.251  11.044
73782W        W35203  15.216  32.574   1.397
73783W        W35204  25.008  23.005   2.875
73784W        W35205  26.684  24.645  12.435
73785W        W35206   5.212   5.766   2.295
73786W        W35207  44.836  36.888   0.892
73787W        W35208  31.035  30.147  13.503
73788W        W35209  17.285  14.736   0.307
73789W        W35210  13.235  15.594   4.336
73790W        W35211  38.898  22.247   4.344
73791W        W35212  43.841  21.193   2.867
73792W        W35213  24.035  26.655   2.354
73793W        W35214   7.280   3.898  12.074
73794W        W35215  37.352  34.545   3.357
73795W        W35216   1.872  36.872   1.928
73796W        W35217  28.070   7.372  11.117
73797W        W35218  17.298  21.584  13.435
73798W        W35219  19.197  20.223   2.380
73799W        W35220  42.376  11.215   4.634
73800W        W35221   0.773  17.292  13.904
73801W        W35222  27.135  12.325   2.372
73802W        W35223  32.929   1.785  12.842
73803W        W35224  18.762  25.607   0.772
73804W        W35225   1.366  30.511   9.541
73805W        W35226  17.602  15.591   0.851
73806W        W35227  32.466   3.325  11.607
73807W        W35228  20.705  36.356  14.925
73808W        W35229  31.590  14.706   4.677
73809W        W35230   9.228  35.407   0.288
73810W        W35231  19.653  38.951  12.994
73811W        W35232  44.850  31.639   5.614
73812W        W35233   4.760  43.786  12.423
73813W        W35234  23.213  43.368   4.245
73814W        W35235  44.906  19.690   0.956
73815W        W35236  31.486   6.736  13.988
73816W        W35237  25.208  21.673   0.769
73817W        W35238  28.066   9.724   9.942
73818W        W35239  37.577  28.679   3.674
73819W        W35240  15.630  42.309  10.557
73820W        W35241   5.394  28.571   5.101
73821W        W35242  36.398   4.780  14.292
73822W        W35243  44.946  12.627   1.800
73823W        W35244  30.960  20.677  10.585
73824W        W35245  26.009   0.863   1.704
73825W        W35246  35.069  32.631   1.253
73826W        W35247  28.979  30.907  14.765
73827W        W35248   9.256  26.686  11.582
73828W        W35249  28.116  13.112   9.975
73829W        W35250   7.786   4.907   2.780
73830W        W35251  24.495   6.298  11.950
73831W        W35252  43.819   4.275   2.821
73832W        W35253  31.434  30.635  10.467
73833W        W35254  30.627  31.973  11.010
73834W        W35255  39.531  24.086  12.460
73835W        W35256  20.199  38.836   3.675
73836W        W35257  22.144  15.596  14.512
73837W        W35258  11.685   0.487  14.464
73838W        W35259  31.134   4.733   3.637
73839W        W35260  28.082  16.622  11.856
73840W        W35261  30.628  36.434   2.404
73841W        W35262  33.504  14.641  13.364
73842W        W35263  43.468  20.039   2.684
73843W        W35264   1.359  43.837   0.900
73844W        W35265  11.730  14.145   9.976
73845W        W35266   8.738  40.415  14.369
73846W        W35267  35.022  16.131   4.205
73847W        W35268   2.955   3.353   5.300
73848W        W35269  35.369   7.314   2.883
73849W        W35270  16.594  39.899  12.039
73850W        W35271  16.257   4.334   1.296
73851W        W35272   6.739  25.558   1.872
73852W        W35273  26.604  15.625   5.211
73853W        W35274  27.463  30.973   2.686
73854W        W35275  14.684  15.629   2.708
73855W        W35276  40.839  39.901  12.562
73856W        W35277  17.620   9.800   0.948
73857W        W35278  20.553  16.704  12.890
73858W        W35279  34.518  43.876   2.870
73859W        W35280  29.580  42.513   3.164
73860W        W35281  38.989  14.291  13.872
73861W        W35282  39.549   8.891   2.386
73862W        W35283  34.470  41.019  10.600
73863W        W35284  22.698  35.418   4.225
73864W        W35285  26.113  33.047  10.562
73865W        W35286  17.674  44.967   2.376
73866W        W35287  38.912  34.053   1.433
73867W        W35288  30.115  16.739   3.254
73868W        W35289  23.522  31.503  14.408
73869W        W35290  23.237  13.348  14.896
73870W        W35291   8.822  36.856   3.281
73871W        W35292  25.025   4.333  14.919
73872W        W35293  33.921  37.549  11.017
73873W        W35294  36.070   3.445  10.421
73874W        W35295  33.111  29.969  14.818
73875W        W35296  43.807   0.918   0.849
73876W        W35297   0.874  41.876   4.642
73877W        W35298  18.055  39.858  14.834
73878W        W35299   2.834  40.921   3.287
73879W        W35300  23.996  39.554  13.413
73880W        W35301  36.886  10.820  12.951
73881W        W35302   7.897  37.521  11.561
73882W        W35303  24.983  38.552  11.547
73883W        W35304   3.242  36.945  12.347
73884W        W35305  22.600  30.613   0.293
73885W        W35306  18.550  33.971   1.903
73886W        W35307  12.611   6.782  12.858
73887W        W35308  44.848   4.332   0.729
73888W        W35309  38.442  17.148  14.931
73889W        W35310  27.545  36.547  13.354
73890W        W35311  17.621  20.765   4.638
73891W        W35312  41.924  18.682  11.553
73892W        W35313  38.924  25.051  13.979
73893W        W35314   3.748  41.466  10.605
73894W        W35315  29.029  10.646  12.865
73895W        W35316  31.012   6.323  11.018
73896W        W35317  25.093  33.094   0.445
73897W        W35318  26.181  12.847   2.317
73898W        W35319  24.000  36.881   2.696
73899W        W35320  18.242   7.772   4.609
73900W        W35321  11.153  13.633  13.937
73901W        W35322   1.320  11.832  14.998
73902W        W35323  44.297  26.190   1.271
73903W        W35324  35.372  10.300   4.194
73904W        W35325   8.895  31.417  13.995
73905W        W35326   1.978  15.578  10.112
73906W        W35327  30.575  26.200   4.344
73907W        W35328   3.941  31.073   4.186
73908W        W35329  28.603  34.436   2.394
73909W        W35330  15.156   0.817  12.064
73910W        W35331  40.848  28.586   1.785
73911W        W35332  44.899   3.911   2.237
73912W        W35333   0.470  41.805   4.198
73913W        W35334  22.191  13.615   5.677
73914W        W35335  22.186  13.269  11.386
73915W        W35336  28.010  30.445   0.452
73916W        W35337  40.374  19.615  11.435
73917W        W35338  14.601  35.514  12.872
73918W        W35339  44.992   8.339   1.767
73919W        W35340   1.841  33.478  14.961
73920W        W35341   7.870   6.384   3.649
73921W        W35342  16.792  22.694  12.451
73922W        W35343  43.806  12.118   3.834
73923W        W35344   8.814   5.276  12.462
73924W        W35345  10.634  42.822  10.622
73925W        W35346  42.838  43.959   3.297
73926W        W35347  42.966  35.520  14.765
73927W        W35348  36.927   3.441   4.780
73928W        W35349  31.547  18.258  13.062
73929W        W35350  29.138   4.426  12.044
73930W        W35351   7.256   0.889   1.699
73931W        W35352  22.034  32.073   0.773
73932W        W35353  36.069  39.933  12.843
73933W        W35354  44.768  32.903   2.321
73934W        W35355  42.400  29.126  14.858
73935W        W35356  44.468  28.493   2.752
73936W        W35357  12.248  42.420  10.583
73937W        W35358  22.089  16.239   3.262
73938W        W35359  30.026  11.644  10.506
73939W        W35360  18.060   6.765  12.883
73940W        W35361  28.631  33.937   3.374
73941W        W35362  36.972  19.545   1.242
73942W        W35363  28.658  22.146   3.696
73943W        W35364  28.159  34.551  13.959
73944W        W35365  34.577  29.430  12.889
73945W        W35366  12.738   7.244   0.947
73946W        W35367  11.257  19.226  12.362
73947W        W35368   9.803  24.990  14.761
73948W        W35369  13.743  32.437   0.900
73949W        W35370  37.885  35.049   4.672
73950W        W35371  29.940   2.355   4.653
73951W        W35372  37.842  16.089   3.256
73952W        W35373  32.087  21.169  13.045
73953W        W35374  21.516  12.308  12.396
73954W        W35375  24.535  22.110   4.761
73955W        W35376  28.089  18.610   1.929
73956W        W35377   9.875  29.942   0.401
73957W        W35378   1.747  13.717  12.552
73958W        W35379  24.225  39.469   3.169
73959W        W35380   2.452  41.478   2.243
73960W        W35381  33.131  22.210   1.779
73961W        W35382   4.206  28.672   3.744
73962W        W35383  32.912  42.360  12.568
73963W        W35384  14.735   5.228  13.514
73964W        W35385   5.221  14.737   3.761
73965W        W35386  34.992  30.056   3.765
73966W        W35387  33.076  13.683  12.558
73967W        W35388  38.494  23.116   1.844
73968W        W35389  39.992  38.033   1.874
73969W        W35390  17.108  22.236  12.897
73970W        W35391  20.175  35.949   0.335
73971W        W35392   6.389  16.630  13.981
73972W        W35393  37.539  34.541   2.745
73973W        W35394  34.031  25.536  10.479
73974W        W35395  21.670  37.999  13.891
73975W        W35396  15.770   3.389   3.863
73976W        W35397   8.388  22.049  11.121
73977W        W35398  40.850  29.174   4.729
73978W        W35399   4.742  10.799   3.668
73979W        W35400  13.247  28.012   0.362
73980W        W35401  21.679  40.539   1.427
73981W        W35402  42.510  21.107  13.800
73982W        W35403  19.674  10.870  11.112
73983W        W35404  30.483  32.980  10.549
73984W        W35405  41.878  25.561   3.377
73985W        W35406   7.782  38.938   3.252
73986W        W35407  25.564  40.924  11.867
73987W        W35408  38.535  12.761  11.429
73988W        W35409  14.761  16.593  11.432
73989W        W35410  42.982  34.505   2.204
73990W        W35411  18.143   9.248  13.519
73991W        W35412  12.629  41.894  12.918
73992W        W35413  38.851   0.772  10.926
73993W        W35414   7.672   5.286  12.087
73994W        W35415  38.325  14.103  13.835
73995W        W35416  42.384  31.463  14.771
73996W        W35417  21.089  43.011  11.399
73997W        W35418  20.215   2.801   1.406
73998W        W35419   5.249  40.312   9.978
73999W        W35420  31.443  23.653   3.858
74000W        W35421  37.560  12.772   1.320
74001W        W35422  42.401  44.447   1.305
74002W        W35423  23.715  39.353   2.236
74003W        W35424  10.356  10.792   1.437
74004W        W35425  16.116   3.276   2.855
74005W        W35426  38.490   5.337   3.864
74006W        W35427  33.448  38.400   3.733
74007W        W35428   6.313   7.357   1.223
74008W        W35429  41.428  17.282  11.442
74009W        W35430  17.126   0.827  11.581
74010W        W35431  11.826   0.343   2.893
74011W        W35432  40.544  10.699   0.438
74012W        W35433  21.114  36.929   4.338
74013W        W35434  17.114  18.266   4.610
74014W        W35435  21.246  13.140  13.949
74015W        W35436  31.120  42.365   3.864
74016W        W35437  36.355  19.279  11.892
74017W        W35438  43.464  15.312   3.290
74018W        W35439   1.935  19.659   2.387
74019W        W35440  18.704  16.768   2.198
74020W        W35441  19.689   0.781  10.522
74021W        W35442  25.169  28.166  12.970
74022W        W35443   1.865  18.626   0.788
74023W        W35444  29.969   0.328   2.844
74024W        W35445  12.209   2.947  13.817
74025W        W35446  44.492   6.307  10.644
74026W        W35447  28.673  40.442   0.803
74027W        W35448  11.795  22.211   1.815
74028W        W35449  12.803  39.332  11.118
74029W        W35450  23.607  26.465  12.513
74030W        W35451  41.406   9.229   4.292
74031W        W35452  34.968  30.970   2.691
74032W        W35453  40.866   5.740  13.438
74033W        W35454  24.022  12.643   5.115
74034W        W35455   1.778  19.752   4.669
74035W        W35456  34.089  30.923   2.368
74036W        W35457  21.563  32.397   3.329
74037W        W35458  32.512   9.873  10.514
74038W        W35459  19.244  44.484  11.084
74039W        W35460  26.032  40.852  12.009
74040W        W35461  28.556  29.041   3.383
74041W        W35462   5.748  18.722   2.735
74042W        W35463  39.403   9.354   4.732
74043W        W35464  33.926  41.425   2.392
74044W        W35465  21.544  43.377  11.867
74045W        W35466  18.218  16.153   4.200
74046W        W35467   9.283  15.171  11.466
74047W        W35468   3.856   6.415   5.310
74048W        W35469  32.622   4.816  12.892
74049W        W35470  20.536   4.863  11.934
74050W        W35471   1.800  23.185  14.394
74051W        W35472   5.262   7.827  10.521
74052W        W35473  30.947  12.182  11.017
74053W        W35474  27.554  40.444   1.915
74054W        W35475  24.066  35.581  12.561
74055W        W35476  35.869   9.224   5.300
74056W        W35477  42.493  29.147   1.231
74057W        W35478  20.664  42.491   1.850
74058W        W35479  13.759  33.955  11.023
74059W        W35480   6.798   0.432   3.868
74060W        W35481   9.248  11.798   2.748
74061W        W35482  31.903  30.517   1.429
74062W        W35483  35.103  21.261  10.017
74063W        W35484   2.332  32.120  14.789
74064W        W35485  15.304  43.851  10.915
74065W        W35486  42.427  40.397  14.819
74066W        W35487  29.062  13.719   2.795
74067W        W35488  19.774   0.327  13.548
74068W        W35489  20.528  44.839   4.809
74069W        W35490  15.304   4.799   3.383
74070W        W35491   1.869   1.348   1.221
74071W        W35492  24.150  17.257   3.731
74072W        W35493  14.624   4.724   1.419
74073W        W35494  23.184  32.995  10.644
74074W        W35495  19.538  18.229   1.837
74075W        W35496  41.024  43.014  11.950
74076W        W35497  18.608  11.349   2.401
74077W        W35498   8.191   1.866   2.223
74078W        W35499   9.769  36.561   3.210
74079W        W35500  43.820  11.696  13.045
74080W        W35501  24.039  24.145   3.631
74081W        W35502   0.265   4.230  12.563
74082W        W35503  27.657  15.617   3.790
74083W        W35504  14.778  25.151  13.054
74084W        W35505  36.479   6.388  14.894
74085W        W35506  27.192  18.575   4.633
74086W        W35507  34.387   9.761  11.966
74087W        W35508  19.122  34.464   1.878
74088W        W35509  14.309  29.047   2.712
74089W        W35510  43.989  19.758  11.088
74090W        W35511  24.606  23.684  12.983
74091W        W35512  23.001  34.108  11.953
74092W        W35513  21.738  21.055  14.305
74093W        W35514   4.431  20.110  13.981
74094W        W35515   4.893   0.281  14.416
74095W        W35516  11.721  23.215   4.679
74096W        W35517  31.596  21.733   3.799
74097W        W35518  21.066  30.018   3.657
74098W        W35519  23.036  17.174   1.898
74099W        W35520  40.426  44.793  11.508
74100W        W35521   9.342  20.657  13.944
74101W        W35522  34.104   1.736  11.589
74102W        W35523  16.164  24.032  12.344
74103W        W35524  18.075  27.152   0.903
74104W        W35525  11.305   1.755   2.273
74105W        W35526   3.833  23.183   3.367
74106W        W35527  23.510  25.149  12.410
74107W        W35528  40.534  26.079   4.789
74108W        W35529  25.092  30.617  13.887
74109W        W35530  34.879  35.009  13.015
74110W        W35531   3.847   3.743   5.690
74111W        W35532  36.886   1.870   2.319
74112W        W35533  18.759  42.822   3.819
74113W        W35534  20.721  12.127   4.119
74114W        W35535  29.510   9.702   4.764
74115W        W35536  23.208  31.072   2.195
74116W        W35537   9.722  35.037   4.331
74117W        W35538  36.451   8.885   1.261
74118W        W35539  12.320   9.358  11.864
74119W        W35540  23.223   1.468  11.064
74120W        W35541  11.200  13.761  10.512
74121W        W35542   4.351  21.743   4.274
74122W        W35543   2.380  33.940  14.882
74123W        W35544   8.790  21.260   1.247
74124W        W35545  20.153   1.350  14.760
74125W        W35546  26.553  36.455   2.796
74126W        W35547  41.523  39.811   1.762
74127W        W35548  40.893   0.788  12.417
74128W        W35549  14.800   1.881  14.843
74129W        W35550  12.227  40.816  12.882
74130W        W35551  34.384  28.677  10.899
74131W        W35552  37.075  16.572  14.841
74132W        W35553   2.954  25.997   0.281
74133W        W35554  35.427  17.226   0.334
74134W        W35555  39.945  21.610   3.758
74135W        W35556   6.835   4.377  11.974
74136W        W35557   8.212   8.877  12.509
74137W        W35558  35.965  20.587  12.038
74138W        W35559   7.728   2.301   0.780
74139W        W35560  19.736  37.991   1.242
74140W        W35561  25.674  22.686  12.009
74141W        W35562  14.338  28.596   5.116
74142W        W35563  34.439  32.067  10.513
74143W        W35564  42.447   6.732  10.907
74144W        W35565  38.973  18.746  13.817
74145W        W35566  10.769  12.842  11.477
74146W        W35567   7.413  31.908  13.505
74147W        W35568  12.851  39.382   3.184
74148W        W35569  30.516  37.492  13.869
74149W        W35570  36.905  38.550   0.277
74150W        W35571   4.872   4.797  14.362
74151W        W35572  17.261  23.596  10.414
74152W        W35573  41.300  11.325   4.730
74153W        W35574  16.190   0.471   1.228
74154W        W35575  11.339   1.446  12.443
74155W        W35576   6.267  28.580   0.878
74156W        W35577  32.425  17.086  13.879
74157W        W35578  20.643  20.691  11.477
74158W        W35579  44.419  26.617   3.249
74159W        W35580  27.689  22.021  14.017
74160W        W35581   1.821  18.575   3.205
74161W        W35582  40.826  40.442  11.092
74162W        W35583  38.058   0.397   4.347
74163W        W35584  15.817   3.428  11.929
74164W        W35585  40.912  19.255  11.504
74165W        W35586  31.977  23.015  10.432
74166W        W35587  11.797  37.385   4.192
74167W        W35588  14.721   9.660   1.233
74168W        W35589  17.662  28.971   2.846
74169W        W35590  40.031  19.712  13.976
74170W        W35591  36.351   4.365  13.510
74171W        W35592  41.492   1.257   2.883
74172W        W35593  26.015   9.800   3.350
74173W        W35594  26.969   7.320  14.472
74174W        W35595  40.039  11.190   2.898
74175W        W35596  11.776   8.203   0.911
74176W        W35597  12.296  33.994  11.972
74177W        W35598   5.226  32.561   4.128
74178W        W35599  40.913   5.251   3.240
74179W        W35600  44.267  11.676  13.833
74180W        W35601  17.110  13.777   4.188
74181W        W35602   5.849  11.208  13.394
74182W        W35603   6.819  19.065   2.355
74183W        W35604   6.911   1.759   4.249
74184W        W35605  34.614  34.536  14.928
74185W        W35606   8.168  30.624  13.897
74186W        W35607  35.525  28.106   4.266
74187W        W35608  25.649  34.901  12.457
74188W        W35609  29.047  32.101  11.961
74189W        W35610  42.001  13.698  11.509
74190W        W35611  12.152  33.123  10.906
74191W        W35612  31.483  30.473   4.236
74192W        W35613   7.406  37.437   1.318
74193W        W35614  44.782  13.660  11.897
74194W        W35615  16.744  29.070  11.412
74195W        W35616  34.881  13.832   0.334
74196W        W35617  15.225  11.788  14.782
74197W        W35618  31.125  15.177   1.726
74198W        W35619  30.485  32.100   1.922
74199W        W35620  33.617  31.085   0.962
74200W        W35621   3.440   1.390   3.684
74201W        W35622  44.833  41.907   0.813
74202W        W35623  41.458   4.920   0.371
74203W        W35624  25.575  37.921   2.183
74204W        W35625  36.010   4.778   1.239
74205W        W35626  30.161   7.408  12.007
74206W        W35627  20.537  31.073   0.803
74207W        W35628  38.490  17.781   3.202
74208W        W35629  44.449   5.864  13.532
74209W        W35630   1.426   2.896  10.509
74210W        W35631   6.208   4.430  11.908
74211W        W35632  39.066  29.926  11.876
74212W        W35633   5.713  43.284   0.395
74213W        W35634  33.618  22.065   4.130
74214W        W35635  28.124  33.535   5.274
74215W        W35636   9.664  12.194  14.422
74216W        W35637  36.922   0.373   3.193
74217W        W35638  30.415  38.393   1.310
74218W        W35639  23.043  30.047  11.069
74219W        W35640   8.180  32.001  11.937
74220W        W35641  41.829  13.319  11.381
74221W        W35642  37.377   2.303   4.163
74222W        W35643  44.413  34.043   0.456
74223W        W35644   2.850   8.666  14.978
74224W        W35645  42.366  38.861   0.407
74225W        W35646  18.205   9.279   2.271
74226W        W35647  11.741  17.687   2.880
74227W        W35648  28.098   1.249  12.541
74228W        W35649  26.616  32.919   4.246
74229W        W35650  25.575  11.178  14.777
74230W        W35651  32.554  36.423  14.825
74231W        W35652   2.886  36.495   4.783
74232W        W35653  26.203  42.412  13.800
74233W        W35654  38.032  37.500  10.448
74234W        W35655  28.553  12.847  13.053
74235W        W35656  17.084  30.515  12.368
74236W        W35657   5.235  28.179  14.902
74237W        W35658  34.517  41.027   3.232
74238W        W35659  18.607   3.769  14.018
74239W        W35660  44.305  29.437   1.817
74240W        W35661  11.184  29.668   0.296
74241W        W35662  31.956   4.716   3.808
74242W        W35663   9.859  14.698  14.932
74243W        W35664  15.238  43.808  11.551
74244W        W35665  44.933   2.264   2.823
74245W        W35666   8.395  24.095   0.924
74246W        W35667  34.536   8.405  10.543
74247W        W35668  39.059  17.781  12.471
74248W        W35669   6.896  13.739   1.855
74249W        W35670  27.500  24.138   2.671
74250W        W35671  15.247  34.572  13.906
74251W        W35672   9.749  20.143   1.298
74252W        W35673   0.805  32.571  13.476
74253W        W35674   9.885  27.139   1.833
74254W        W35675  12.831   7.864   4.319
74255W        W35676  42.800  31.645   3.700
74256W        W35677  14.166  26.116  13.416
74257W        W35678  41.852  38.396  14.840
74258W        W35679  17.107   6.703  12.875
74259W        W35680  12.256  40.051  10.477
74260W        W35681  19.274  32.636  14.807
74261W        W35682  18.052  44.821   3.731
74262W        W35683   5.368  13.136   0.899
74263W        W35684  21.585  22.641  13.439
74264W        W35685  28.487  43.997   4.650
74265W        W35686   1.915  24.112   0.462
74266W        W35687   8.329  25.059   1.935
74267W        W35688  36.054   0.390  11.929
74268W        W35689   0.954  34.991   4.650
74269W        W35690  20.058  25.012   3.754
74270W        W35691  35.374  41.369   4.268
74271W        W35692  29.974  31.073  12.378
74272W        W35693  31.613  42.790  12.465
74273W        W35694  41.346   3.263   4.274
74274W        W35695  24.655   0.858  11.609
74275W        W35696  14.640   7.816   1.277
74276W        W35697   2.409  37.067  13.342
74277W        W35698   3.825  19.598   0.774
74278W        W35699  30.974   8.886   2.778
74279W        W35700  28.606  24.163   4.278
74280W        W35701  31.492  24.482  11.474
74281W        W35702  38.836  25.479  11.085
74282W        W35703   0.886  28.594   2.343
74283W        W35704  15.752   7.803   4.670
74284W        W35705   1.302   8.890  12.957
74285W        W35706  31.912   0.249  11.534
74286W        W35707  41.794  22.628  10.936
74287W        W35708   2.885   5.716  13.033
74288W        W35709  34.064   6.319   1.773
74289W        W35710  40.998  27.507  12.408
74290W        W35711  13.249  27.654  14.313
74291W        W35712  39.001  34.473  13.497
74292W        W35713  42.417   3.358  12.554
74293W        W35714  41.477  11.841   0.855
74294W        W35715  43.795  18.071  10.605
74295W        W35716  19.058  34.057  14.490
74296W        W35717  39.935  40.457   4.687
74297W        W35718  34.421   3.301   2.785
74298W        W35719  42.447  13.119  14.951
74299W        W35720  13.107   4.367  12.386
74300W        W35721  19.066  23.161   4.626
74301W        W35722  23.175  25.165  14.765
74302W        W35723  43.482  29.617  12.440
74303W        W35724  20.552  11.862  13.487
74304W        W35725   4.881  19.237   1.339
74305W        W35726  10.661  29.938  11.881
74306W        W35727  19.058  14.133  14.284
74307W        W35728  41.435  19.098   1.935
74308W        W35729  21.574  36.976  11.527
74309W        W35730   6.712  26.026  10.602
74310W        W35731  15.801  43.914   2.898
74311W        W35732  29.492  33.536   0.310
74312W        W35733  31.436  44.985   3.723
74313W        W35734   6.235  28.028  10.524
74314W        W35735  32.896  44.820  11.435
74315W        W35736   2.372  41.477   4.202
74316W        W35737  14.318  42.923   2.739
74317W        W35738   8.271  30.912  12.413
74318W        W35739  17.060  37.364   2.306
74319W        W35740  29.960   8.712  10.591
74320W        W35741   8.797  28.162   2.397
74321W        W35742  23.617   1.334   4.642
74322W        W35743  28.115  22.064  11.095
74323W        W35744  25.131  21.193   0.955
74324W        W35745  27.518  10.297  14.420
74325W        W35746  36.984  19.627  11.126
74326W        W35747   4.937  44.995  13.011
74327W        W35748  20.211  43.992  14.373
74328W        W35749  24.626   0.297   1.698
74329W        W35750  18.569  39.976   4.269
74330W        W35751  40.530  42.883   2.232
74331W        W35752  24.179  35.486   0.403
74332W        W35753  33.582   8.843   2.719
74333W        W35754  36.029   3.917   5.148
74334W        W35755  38.961  18.227  10.068
74335W        W35756  23.123  11.148  14.462
74336W        W35757  35.054  24.206  10.590
74337W        W35758  36.928  11.157  11.928
74338W        W35759  42.999  11.252  14.453
74339W        W35760  43.985  25.072  13.950
74340W        W35761  22.216  31.128  10.411
74341W        W35762  20.602  18.694   0.833
74342W        W35763  20.618  18.567  11.401
74343W        W35764  39.032  27.603   1.270
74344W        W35765  41.458  34.921   3.796
74345W        W35766   9.187  42.413  10.634
74346W        W35767   4.384   7.908   3.789
74347W        W35768  43.981  24.722   4.749
74348W        W35769  24.511  22.672   0.283
74349W        W35770  22.624  15.810   1.723
74350W        W35771  43.994  37.566   3.228
74351W        W35772  16.613  15.194   2.398
74352W        W35773  22.036  17.575   1.757
74353W        W35774   7.392  44.875  12.502
74354W        W35775  30.413  37.453  10.444
74355W        W35776  16.213   9.863   1.333
74356W        W35777  37.061   6.818   2.684
74357W        W35778  37.923  40.338  14.357
74358W        W35779  25.219  35.997   0.434
74359W        W35780  36.505  17.730   0.252
74360W        W35781  15.156  34.438   4.834
74361W        W35782  14.187  10.379  11.078
74362W        W35783  27.134  42.518   0.255
74363W        W35784  36.022  34.426   3.782
74364W        W35785  33.526  17.285   0.954
74365W        W35786  21.520  38.381  14.328
74366W        W35787  20.109   1.876   1.699
74367W        W35788   8.662  11.668  14.013
74368W        W35789  32.524  38.864  14.450
74369W        W35790  34.600  39.912   4.152
74370W        W35791   4.226  26.124   3.863
74371W        W35792  36.936  11.754   4.822
74372W        W35793  18.780  27.544  14.284
74373W        W35794   4.876  30.473  14.466
74374W        W35795   2.256   4.925   2.340
74375W        W35796  18.585  23.631   1.918
74376W        W35797  41.469  22.551  14.443
74377W        W35798  18.688  42.339   3.156
74378W        W35799  42.527  43.771  13.539
74379W        W35800  24.639   0.786   0.342
74380W        W35801  32.922  42.374  13.028
74381W        W35802  26.684  21.714  13.862
74382W        W35803  41.810  44.852  12.550
74383W        W35804  15.798  42.506  12.427
74384W        W35805  18.683  21.556   1.421
74385W        W35806  23.499  31.130   2.809
74386W        W35807  10.761  13.756   4.296
74387W        W35808  24.112  17.064  12.906
74388W        W35809   6.246  14.330  13.993
74389W        W35810   8.368  13.681  11.372
74390W        W35811  18.202  24.593  11.478
74391W        W35812  27.511   7.212   1.395
74392W        W35813   4.225   1.764  11.862
74393W        W35814  31.042   0.828   0.368
74394W        W35815  32.440   5.932   3.641
74395W        W35816  14.650  28.620  13.418
74396W        W35817   4.243  20.562  10.976
74397W        W35818   0.850  38.029  10.966
74398W        W35819  18.265   5.745   1.211
74399W        W35820  34.109   2.819  11.128
74400W        W35821  30.132  28.153  10.455
74401W        W35822  26.970  41.378  14.012
74402W        W35823   9.383   8.191   4.303
74403W        W35824  44.887  27.490  13.452
74404W        W35825  31.083  35.042   0.476
74405W        W35826  26.089  38.026  13.841
74406W        W35827   7.705  43.900  14.515
74407W        W35828   8.681  17.795  12.556
74408W        W35829  32.496  32.476  10.621
74409W        W35830   4.281  10.778  13.311
74410W        W35831   1.861  32.579   1.401
74411W        W35832   9.717  19.069  12.038
74412W        W35833  40.915  14.194  11.986
74413W        W35834  40.806  15.600   4.211
74414W        W35835  28.576  26.993   2.722
74415W        W35836   1.816  32.503  10.106
74416W        W35837  26.580  27.577   4.729
74417W        W35838  20.588  16.696   0.450
74418W        W35839  18.207  31.607   1.881
74419W        W35840  14.675  30.635  13.924
74420W        W35841  44.327   7.408   1.855
74421W        W35842  15.600  10.286   1.728
74422W        W35843  33.948  31.031   1.225
74423W        W35844   7.285  28.150   2.357
74424W        W35845  16.717  33.996   4.352
74425W        W35846  36.021  16.141   1.222
74426W        W35847  31.080  27.487   1.837
74427W        W35848  10.169  44.263   1.773
74428W        W35849  39.324  36.930  13.818
74429W        W35850  28.124  10.349   2.327
74430W        W35851  44.422  39.938  12.528
74431W        W35852   9.718  35.465  10.583
74432W        W35853   2.431   3.850   1.244
74433W        W35854  26.688  37.904   3.151
74434W        W35855   0.258  42.372  11.429
74435W        W35856  42.388  17.685   1.426
74436W        W35857   9.837  17.664  11.404
74437W        W35858  20.073  11.856  13.946
74438W        W35859  42.785  16.141  12.525
74439W        W35860  21.686  18.170  12.493
74440W        W35861   8.395  27.458  10.610
74441W        W35862   3.795  19.237   4.685
74442W        W35863  25.963   9.786  14.509
74443W        W35864  31.991   0.423  10.616
74444W        W35865  44.893  44.787   0.429
74445W        W35866  37.340  21.569   0.962
74446W        W35867  42.809  39.852   4.249
74447W        W35868  24.630  43.339   1.321
74448W        W35869  41.952   2.965  13.989
74449W        W35870   5.784   4.825   1.225
74450W        W35871  10.793  32.068   1.261
74451W        W35872  20.085  26.537  11.857
74452W        W35873  14.684  33.597   3.272
74453W        W35874  27.493  17.234   0.956
74454W        W35875   6.301  32.904  14.400
74455W        W35876  37.456  38.448  11.068
74456W        W35877  22.015  41.001  13.503
74457W        W35878  17.070  44.405   5.319
74458W        W35879  32.567  14.662   3.309
74459W        W35880  39.359  11.264   0.894
74460W        W35881  32.614  32.627  12.881
74461W        W35882  35.100  40.351   4.719
74462W        W35883  25.160   7.722  10.931
74463W        W35884  41.793   5.208   4.629
74464W        W35885   1.908   1.888   2.719
74465W        W35886  12.838  38.466  14.000
74466W        W35887  31.579   7.369  13.453
74467W        W35888   4.931   5.704  14.906
74468W        W35889  10.197  24.213  10.422
74469W        W35890  22.656   6.415   2.877
74470W        W35891  31.475  36.374  12.016
74471W        W35892  20.559  35.026   0.915
74472W        W35893  32.971   6.262  11.453
74473W        W35894  33.534  35.921  14.877
74474W        W35895  44.399  27.176  14.903
74475W        W35896  19.547  41.537  13.481
74476W        W35897   0.908  14.192   0.455
74477W        W35898  39.825  42.456  14.512
74478W        W35899  35.971  38.503   0.434
74479W        W35900   9.295  13.772  14.763
74480W        W35901  44.783   4.934   4.196
74481W        W35902  21.245  41.398  10.139
74482W        W35903  41.007   1.847  13.043
74483W        W35904  17.603  23.119   1.439
74484W        W35905  10.698  43.967  14.765
74485W        W35906   0.787  37.545  11.889
74486W        W35907  43.472   9.832  10.572
74487W        W35908  38.544   8.375   2.838
74488W        W35909   3.389   0.968   1.297
74489W        W35910  15.731  33.591  12.544
74490W        W35911  36.075  36.948   3.349
74491W        W35912  35.989  35.022   3.253
74492W        W35913  17.583  24.565  11.608
74493W        W35914  34.006   0.281  10.987
74494W        W35915   8.757  42.960   2.263
74495W        W35916  32.396  22.114   1.766
74496W        W35917  32.094   5.416   1.862
74497W        W35918  16.263  15.697   4.724
74498W        W35919  30.435  42.297   0.247
74499W        W35920   8.366  39.513  14.348
74500W        W35921  29.609  11.847  14.870
74501W        W35922  18.142  11.642  14.404
74502W        W35923  38.042  16.088  11.022
74503W        W35924  17.104  39.332  13.013
74504W        W35925  33.471  26.008   0.759
74505W        W35926  32.588   5.405  13.323
74506W        W35927  44.410   6.745  10.567
74507W        W35928  36.974   5.338   3.162
74508W        W35929  42.338  31.944   4.215
74509W        W35930  40.439  35.596  10.911
74510W        W35931   3.359  39.353   3.244
74511W        W35932  15.655  21.205   4.805
74512W        W35933   9.264   5.347  11.907
74513W        W35934  26.518  44.825  11.580
74514W        W35935  12.244  40.990   4.214
74515W        W35936   9.859  12.150   3.735
74516W        W35937  37.005  26.057   1.215
74517W        W35938  24.001  20.191  12.001
74518W        W35939  34.983  35.399   3.317
74519W        W35940  29.067  28.658   4.697
74520W        W35941   3.322  12.196  13.970
74521W        W35942  11.817   5.694   9.926
74522W        W35943  39.926  34.957   0.772
74523W        W35944  17.667  23.993   1.307
74524W        W35945  40.946   9.742   2.197
74525W        W35946  29.484   8.889  13.905
74526W        W35947  31.638   4.735  14.827
74527W        W35948  41.503  16.160  13.370
74528W        W35949  11.249  11.799  13.518
74529W        W35950  42.023   7.225   0.895
74530W        W35951  21.576   4.414   2.695
74531W        W35952  43.284  39.475  11.611
74532W        W35953   5.380  40.344   3.272
74533W        W35954  37.356  28.554   0.366
74534W        W35955   9.826  41.323   2.216
74535W        W35956  20.537  20.626   0.821
74536W        W35957  25.969  37.380   3.167
74537W        W35958   6.211  22.090  12.082
74538W        W35959  35.407   5.315   0.738
74539W        W35960  43.966  22.017   4.633
74540W        W35961   9.326   9.734  12.008
74541W        W35962  33.983  21.204  11.961
74542W        W35963   7.668  40.802  11.950
74543W        W35964  40.015  22.057  10.986
74544W        W35965   5.231  19.717   4.732
74545W        W35966  18.216  18.126  14.465
74546W        W35967  42.786  33.907  11.613
74547W        W35968  28.965  15.317   1.815
74548W        W35969  28.436  36.382  11.866
74549W        W35970  27.159   9.392   4.278
74550W        W35971   1.442  15.686   4.300
74551W        W35972  41.806  38.055  11.407
74552W        W35973  20.181  24.545   1.896
74553W        W35974  11.805  21.622   3.862
74554W        W35975  31.405  41.811   0.783
74555W        W35976  42.787  28.680  14.454
74556W        W35977   4.765  18.680  12.359
74557W        W35978  42.336  14.241  14.797
74558W        W35979   8.822   1.252  14.505
74559W        W35980  10.791  32.098  14.509
74560W        W35981  33.051   6.726   1.317
74561W        W35982  12.118  20.648   0.945
74562W        W35983  29.507  30.114   3.745
74563W        W35984  17.109  44.969   2.719
74564W        W35985  28.002  36.087   1.798
74565W        W35986  23.151  20.750  10.580
74566W        W35987  39.968  16.310  14.508
74567W        W35988  31.552   4.439  13.817
74568W        W35989  32.098   9.685  14.929
74569W        W35990   8.697  33.979  12.425
74570W        W35991  29.635  40.824   2.399
74571W        W35992  27.084  34.461  12.404
74572W        W35993  19.204  23.532   1.873
74573W        W35994   2.227  20.058  13.048
74574W        W35995  29.058  27.536  12.534
74575W        W35996  42.873  29.172  13.521
74576W        W35997  16.622  12.233  13.848
74577W        W35998   9.809   7.351  13.431
74578W        W35999  23.567  21.083   4.823
74579W        W36000   7.342   5.820   1.418
74580W        W36001   4.345  16.573  14.456
74581W        W36002  44.311   9.670  14.430
74582W        W36003  20.642  30.047   0.742
74583W        W36004  40.427  13.309  13.010
74584W        W36005  18.078   3.762  11.986
74585W        W36006  25.079  29.088   0.295
74586W        W36007  13.222  24.571  10.892
74587W        W36008  35.461  23.655   0.808
74588W        W36009   5.812  28.089   4.348
74589W        W36010  26.107  44.311  14.774
74590W        W36011  39.450  29.498   0.758
74591W        W36012   7.697   7.211   9.939
74592W        W36013  40.454  38.022  13.854
74593W        W36014   1.380  16.770   1.334
74594W        W36015  34.594   6.212  10.973
74595W        W36016  31.632  25.033   2.203
74596W        W36017  31.621   2.720  13.420
74597W        W36018   0.911   0.467  13.851
74598W        W36019  20.052   3.430   3.858
74599W        W36020  21.209  40.441  11.605
74600W        W36021  36.439  28.445  13.517
74601W        W36022  15.775  38.333   3.329
74602W        W36023  31.108  23.528  11.954
74603W        W36024  13.316   0.984  13.998
74604W        W36025   0.758   1.252  11.384
74605W        W36026  36.493   9.176   2.697
74606W        W36027   6.699  44.992   4.687
74607W        W36028  30.611  33.918  12.949
74608W        W36029   8.740  40.820   1.313
74609W        W36030  19.701  25.690  14.503
74610W        W36031  30.980   5.423   4.289
74611W        W36032  16.665  16.183   3.299
74612W        W36033  20.119  14.725  14.015
74613W        W36034  37.960   8.224  14.409
74614W        W36035   0.745   2.275   3.328
74615W        W36036  20.647  22.674   0.940
74616W        W36037  23.010  40.399   4.708
74617W        W36038  39.550  42.821   3.250
74618W        W36039  22.084  15.779   0.242
74619W        W36040  34.021   4.902   3.687
74620W        W36041  14.241  14.249   0.813
74621W        W36042  31.988  33.923   3.644
74622W        W36043  34.865   4.785  10.934
74623W        W36044   2.765  32.485  12.924
74624W        W36045  23.581  18.723   0.319
74625W        W36046   5.741  11.635  14.913
74626W        W36047  25.174  17.180  14.408
74627W        W36048  32.577  42.889   2.358
74628W        W36049  44.860  30.101   4.135
74629W        W36050   9.808  19.213  12.525
74630W        W36051  20.649  42.836  12.387
74631W        W36052  42.355   2.227   3.689
74632W        W36053  41.041   1.459   2.890
74633W        W36054  36.456  20.540   1.716
74634W        W36055   2.893  33.402   2.275
74635W        W36056  40.477  21.671   0.755
74636W        W36057  35.938  41.345  10.514
74637W        W36058   1.447   5.808  13.429
74638W        W36059   8.692  13.691  10.485
74639W        W36060  11.841  33.463   1.315
74640W        W36061  26.028  25.063   4.243
74641W        W36062  29.543  18.581   3.689
74642W        W36063   4.750   4.821  11.125
74643W        W36064  44.875  12.121   0.352
74644W        W36065  32.899   6.206   0.374
74645W        W36066  28.173   6.762   4.611
74646W        W36067  39.392   1.942   1.734
74647W        W36068  39.363  37.366   4.787
74648W        W36069  32.971  30.649  11.050
74649W        W36070  18.055  40.919  13.919
74650W        W36071   9.154  40.053   5.144
74651W        W36072  11.760   8.307  14.950
74652W        W36073  10.856   8.752   1.440
74653W        W36074  11.262   2.923  13.404
74654W        W36075   8.773  44.829   2.804
74655W        W36076  26.667  11.837   0.313
74656W        W36077   4.821  25.658  10.576
74657W        W36078   6.330  20.766   2.791
74658W        W36079  14.656  42.923  11.404
74659W        W36080  43.018  42.946   3.251
74660W        W36081   9.853  28.639   2.404
74661W        W36082  13.112  14.319   4.200
74662W        W36083  40.448   1.882   2.734
74663W        W36084  31.635  32.925  13.798
74664W        W36085  17.172  38.343  11.981
74665W        W36086  27.445   3.927  12.897
74666W        W36087   0.475  30.005   1.439
74667W        W36088  43.828   0.400  12.453
74668W        W36089  23.727  18.763  14.275
74669W        W36090  44.323  39.460  13.332
74670W        W36091  31.416   8.866   5.158
74671W        W36092  25.568   2.335   4.216
74672W        W36093   5.766  28.550   1.752
74673W        W36094  20.752   8.747  13.981
74674W        W36095   8.244   2.961  14.999
74675W        W36096   8.277  30.417  10.636
74676W        W36097   8.682  17.583   2.735
74677W        W36098  34.455   4.449  14.516
74678W        W36099  23.219   3.460   3.341
74679W        W36100   2.872  38.040   0.924
74680W        W36101  20.679  24.115   2.667
74681W        W36102  44.463  21.718   2.695
74682W        W36103  25.660  21.747  13.967
74683W        W36104  15.631  10.707   3.307
74684W        W36105   2.859  12.225  14.510
74685W        W36106  18.722   6.260  13.988
74686W        W36107  18.597  23.616  12.880
74687W        W36108  16.658   6.276  14.905
74688W        W36109   0.921  17.781   2.759
74689W        W36110  36.420  34.534   3.344
74690W        W36111  28.649  24.003   0.805
74691W        W36112  32.517  18.677  12.557
74692W        W36113  11.776  15.589  12.483
74693W        W36114  36.058  23.221   2.302
74694W        W36115   6.188  12.179   3.181
74695W        W36116  30.641   8.897  14.879
74696W        W36117  16.200   1.420  10.475
74697W        W36118  43.312  22.199  13.489
74698W        W36119  44.899  38.559   3.223
74699W        W36120  37.505  16.617  13.954
74700W        W36121  17.284   6.897   1.908
74701W        W36122  19.576  27.100   4.613
74702W        W36123  28.989  39.558  13.464
74703W        W36124   0.927  33.967   2.673
74704W        W36125   8.710  36.541  12.073
74705W        W36126  32.941  44.495  12.912
74706W        W36127   9.772   4.375  10.576
74707W        W36128  30.015  26.646   0.316
74708W        W36129  41.526  19.118   4.702
74709W        W36130   1.309  37.424  11.536
74710W        W36131  12.251  30.164   3.162
74711W        W36132  34.943  25.993   1.332
74712W        W36133  29.542  20.739   4.345
74713W        W36134  42.357  37.497   2.890
74714W        W36135  37.444  33.105  14.344
74715W        W36136  34.501  33.469   2.760
74716W        W36137  22.006  38.884  12.012
74717W        W36138  44.461  41.886   2.721
74718W        W36139  24.088  28.435   0.882
74719W        W36140   3.361  11.313  13.986
74720W        W36141  35.365   3.721  12.415
74721W        W36142  25.163   5.329  13.987
74722W        W36143   5.788   8.330  11.561
74723W        W36144   8.720  31.541  14.383
74724W        W36145  13.214  27.036   2.180
74725W        W36146  24.490  33.007   3.302
74726W        W36147  44.389   3.349   2.817
74727W        W36148  28.945  15.587   1.914
74728W        W36149  28.043  39.427  13.019
74729W        W36150   8.288  32.561   3.230
74730W        W36151  36.467  44.873   0.288
74731W        W36152  33.508  42.925   1.710
74732W        W36153  24.495   4.355   5.115
74733W        W36154  25.530  17.762  13.886
74734W        W36155  21.147  12.339  12.558
74735W        W36156  35.455  27.018   4.768
74736W        W36157   3.910  23.193  10.528
74737W        W36158   3.918   3.848   0.461
74738W        W36159  32.428  40.545  11.579
74739W        W36160  24.078  35.475   4.218
74740W        W36161  31.516  21.585   0.427
74741W        W36162  31.576   2.898   4.666
74742W        W36163  17.689  44.295   2.699
74743W        W36164  42.784  44.293   1.332
74744W        W36165  44.960   6.901  12.040
74745W        W36166  30.534  14.108  10.155
74746W        W36167  18.206   4.907  10.422
74747W        W36168  34.472   4.283  10.541
74748W        W36169  40.438  31.645  13.411
74749W        W36170  44.460  33.877  13.816
74750W        W36171  32.997   0.325   1.726
74751W        W36172  17.797  11.345  13.309
74752W        W36173  16.750  42.996   2.321
74753W        W36174  11.634  12.196   1.236
74754W        W36175   7.293  10.872   3.257
74755W        W36176  41.920  43.435   1.890
74756W        W36177  32.989  10.843   4.617
74757W        W36178  44.865  42.355  13.981
74758W        W36179  22.013  31.526   0.381
74759W        W36180  29.602  10.363  11.051
74760W        W36181  25.044  26.108  14.988
74761W        W36182  19.066  21.259   3.386
74762W        W36183  43.954  42.360  12.472
74763W        W36184   7.743   2.958   0.405
74764W        W36185  26.637  13.174  12.518
74765W        W36186  10.160  18.553  12.507
74766W        W36187  20.657   4.777   1.795
74767W        W36188  27.071  19.687   0.758
74768W        W36189  24.500  15.792   1.698
74769W        W36190  16.315  35.005   2.358
74770W        W36191  28.641   7.798   2.782
74771W        W36192  40.379   1.770   1.811
74772W        W36193   7.904  17.110   3.856
74773W        W36194  25.141   2.747  10.951
74774W        W36195  30.420  12.356   2.781
74775W        W36196  37.072  33.543  12.910
74776W        W36197  26.649  25.006  10.902
74777W        W36198   8.385  20.134  13.414
74778W        W36199  24.492  30.448  11.911
74779W        W36200  36.078  14.215  13.955
74780W        W36201  12.153  39.422  12.092
74781W        W36202  14.144  20.264  10.435
74782W        W36203  38.498  17.240   1.307
74783W        W36204  12.849  27.104  13.439
74784W        W36205  35.592  20.117   4.818
74785W        W36206   8.672   2.781  13.390
74786W        W36207  34.942  12.233  10.538
74787W        W36208  36.051   6.290   2.198
74788W        W36209  29.666  10.157  10.505
74789W        W36210  19.047  40.464  14.895
74790W        W36211  34.373  43.021  11.036
74791W        W36212   3.456  18.194  11.116
74792W        W36213   8.233  12.311  14.780
74793W        W36214  27.162   4.434   4.770
74794W        W36215  38.365  13.219   1.739
74795W        W36216  30.462   1.406   1.408
74796W        W36217   7.287  32.945   0.471
74797W        W36218   2.275  36.369  14.366
74798W        W36219  41.897  18.189   3.771
74799W        W36220  27.672  28.045  13.806
74800W        W36221  33.033  11.184  13.354
74801W        W36222  30.920  29.071   1.923
74802W        W36223  39.494  40.368  12.944
74803W        W36224  43.488  20.611  10.591
74804W        W36225  12.217  18.146   2.315
74805W        W36226   0.962  33.101   3.294
74806W        W36227  39.043  29.020  10.596
74807W        W36228   7.878  42.011  13.013
74808W        W36229  43.479   5.737   0.881
74809W        W36230  28.044  31.551  13.895
74810W        W36231  25.693  20.135   4.255
74811W        W36232  39.903  20.066  13.922
74812W        W36233   6.821  41.369   0.415
74813W        W36234  32.612   2.469   0.399
74814W        W36235   3.459   9.256  11.010
74815W        W36236   4.280  31.965  13.894
74816W        W36237  33.545   9.671  11.613
74817W        W36238   1.436  25.110  13.034
74818W        W36239   1.958  40.325   3.271
74819W        W36240  43.885  40.431  13.993
74820W        W36241  39.426  21.046  14.013
74821W        W36242  10.329   0.345  12.460
74822W        W36243  22.543  16.224  10.457
74823W        W36244  26.203  27.535   0.246
74824W        W36245  10.301  30.419   0.945
74825W        W36246  17.580  44.438   1.931
74826W        W36247   8.831   2.416   4.128
74827W        W36248   2.749  41.340  10.435
74828W        W36249   4.722  25.168   1.298
74829W        W36250  37.550  18.271   0.467
74830W        W36251  38.491  32.500   0.788
74831W        W36252  15.256  25.544   0.455
74832W        W36253  32.921  38.439   1.730
74833W        W36254  15.822  25.983  11.584
74834W        W36255  43.445  10.705  13.450
74835W        W36256   3.350  21.659   0.330
74836W        W36257   0.308  18.615  14.498
74837W        W36258  27.665  13.824   0.392
74838W        W36259   4.297  14.230  10.519
74839W        W36260  43.885  25.038   3.800
74840W        W36261   1.375  18.139   4.758
74841W        W36262  41.353  31.458  12.404
74842W        W36263  16.573   0.807  11.430
74843W        W36264  11.716  24.162   3.380
74844W        W36265  41.814  20.124   4.261
74845W        W36266  20.241  10.285   3.172
74846W        W36267  12.272  14.171   3.170
74847W        W36268  15.278  39.511  11.115
74848W        W36269  43.953   6.257  14.021
74849W        W36270  11.238  32.999   4.280
74850W        W36271  39.401  10.803   5.166
74851W        W36272  12.669  17.779   0.331
74852W        W36273   1.374  31.531   3.860
74853W        W36274   0.384   2.352  10.577
74854W        W36275  37.076  37.087  10.959
74855W        W36276  38.364  31.994  10.642
74856W        W36277  13.805  14.330   3.770
74857W        W36278  24.091  41.506  12.874
74858W        W36279  26.168  22.634   3.373
74859W        W36280   4.866   1.480   9.488
74860W        W36281   4.844  30.922  11.452
74861W        W36282  43.990  27.153  10.571
74862W        W36283  33.491  41.415   4.289
74863W        W36284  24.007  15.708  10.043
74864W        W36285  29.588  14.112  11.079
74865W        W36286  37.483   4.707  13.412
74866W        W36287  17.579  26.475  13.849
74867W        W36288  19.137  43.952   4.162
74868W        W36289  39.921  40.899   4.720
74869W        W36290  23.187  43.998  10.600
74870W        W36291  30.154  23.151  10.609
74871W        W36292  39.519  40.371   4.294
74872W        W36293  32.439   0.901   1.820
74873W        W36294  33.448   7.741  10.468
74874W        W36295   4.313  28.011  13.939
74875W        W36296  38.532  44.894  13.366
74876W        W36297  23.728  31.404   4.792
74877W        W36298  17.561  17.750   5.757
74878W        W36299  39.816  25.215  10.999
74879W        W36300  33.509  24.068   4.735
74880W        W36301  13.225   0.393   0.918
74881W        W36302  19.262  38.515  12.574
74882W        W36303  34.877  28.148  10.000
74883W        W36304  26.676  18.275   2.779
74884W        W36305   6.816  14.727  11.859
74885W        W36306  14.726  43.352   1.866
74886W        W36307   5.195   8.695   4.287
74887W        W36308  41.812  44.411  11.874
74888W        W36309  16.143  36.575  13.926
74889W        W36310   5.930  20.583   1.234
74890W        W36311  14.306   4.763  13.868
74891W        W36312  21.659  19.596  11.923
74892W        W36313  43.881  10.754  11.451
74893W        W36314  14.171  33.893  14.477
74894W        W36315  32.580  21.055   3.368
74895W        W36316  26.577  10.160  10.067
74896W        W36317   4.904  13.613   0.300
74897W        W36318  29.134  24.481  12.026
74898W        W36319  23.030   8.283   0.793
74899W        W36320   8.354  44.455  13.458
74900W        W36321  17.783   1.280   3.673
74901W        W36322  12.125  22.569   2.249
74902W        W36323   4.914  36.362   4.599
74903W        W36324  13.699  41.503   3.829
74904W        W36325   7.728  36.937   4.617
74905W        W36326  35.450  14.748  11.605
74906W        W36327   1.477   6.766  14.889
74907W        W36328  36.985   2.936  10.955
74908W        W36329  38.869   3.238  14.803
74909W        W36330  11.751  42.497  12.929
74910W        W36331  21.156  11.771   4.653
74911W        W36332  26.640  29.469   4.747
74912W        W36333  22.526  15.779  11.945
74913W        W36334   2.406  43.796  10.428
74914W        W36335  12.226   9.705   2.698
74915W        W36336  30.436  30.988   3.645
74916W        W36337  11.223  31.428   0.828
74917W        W36338   3.906  42.802  13.441
74918W        W36339  18.090   2.292   1.869
74919W        W36340   5.346  30.094   0.819
74920W        W36341  19.737   2.773  11.496
74921W        W36342  26.006  24.657  10.425
74922W        W36343  30.431  42.368  11.088
74923W        W36344   1.953   4.804  14.292
74924W        W36345  36.955  16.594   3.817
74925W        W36346  37.060  41.446  13.494
74926W        W36347  24.051  28.946  11.906
74927W        W36348  18.773  17.788   2.716
74928W        W36349  17.294  22.196  12.003
74929W        W36350   9.649  23.007  10.604
74930W        W36351  32.565   1.463   0.410
74931W        W36352  41.887   2.756  11.113
74932W        W36353  43.882  33.503   2.888
74933W        W36354   2.259  33.430   0.451
74934W        W36355  20.083  37.531  12.417
74935W        W36356  40.943  39.830   2.309
74936W        W36357  30.598  35.057   4.773
74937W        W36358  28.676  40.817  13.411
74938W        W36359   9.784  34.966   3.266
74939W        W36360  18.172  10.651  11.912
74940W        W36361  10.287   4.372   3.728
74941W        W36362  12.649   8.682  14.867
74942W        W36363  33.459  21.198   5.302
74943W        W36364  31.435  22.040   3.770
74944W        W36365  31.642   2.426  14.474
74945W        W36366  20.748   0.988   4.618
74946W        W36367  11.772  11.834  13.856
74947W        W36368   5.387  10.798  11.038
74948W        W36369  14.273  38.876  10.960
74949W        W36370   7.849  22.249  12.038
74950W        W36371   4.372  40.385  11.406
74951W        W36372  31.143  17.183   9.983
74952W        W36373  28.671  36.976  13.310
74953W        W36374  37.831  13.803  10.903
74954W        W36375  26.159  10.823  12.499
74955W        W36376  11.321   3.910  11.902
74956W        W36377  44.379  29.580   2.326
74957W        W36378   9.389  18.657   1.267
74958W        W36379   5.395   5.710  13.814
74959W        W36380  23.046  13.159   1.928
74960W        W36381  28.178  17.220   1.377
74961W        W36382  20.159  32.557   1.849
74962W        W36383  27.622   6.784  14.283
74963W        W36384  11.771  38.459  11.915
74964W        W36385  30.469  37.994  11.409
74965W        W36386  27.135  15.755   1.832
74966W        W36387  25.526   3.748  14.808
74967W        W36388  37.377   3.316   0.879
74968W        W36389  13.846  27.556   4.127
74969W        W36390  39.034  26.025   3.225
74970W        W36391   5.811  30.131   4.719
74971W        W36392  13.714   9.853  12.514
74972W        W36393  12.649  42.324  11.393
74973W        W36394  14.594  28.120   2.268
74974W        W36395   1.417  44.504   0.793
74975W        W36396  16.753  16.087   4.263
74976W        W36397  43.829   8.255   1.735
74977W        W36398  22.146  29.133   2.895
74978W        W36399  32.505   4.311  10.406
74979W        W36400  22.549  30.072   1.234
74980W        W36401  18.717  25.610  13.911
74981W        W36402   7.289  44.867   1.802
74982W        W36403  43.489   9.299   0.876
74983W        W36404  44.008  24.530  11.550
74984W        W36405   4.382  41.808   3.810
74985W        W36406  30.040  18.712   4.758
74986W        W36407   3.897  32.558   4.318
74987W        W36408  43.290  25.073   3.693
74988W        W36409   8.870   3.413   4.136
74989W        W36410  23.070   3.258  14.457
74990W        W36411   8.846  27.155   1.898
74991W        W36412  23.031  30.493   2.730
74992W        W36413  25.644  28.558   1.399
74993W        W36414  40.852  24.615   4.130
74994W        W36415  38.959  17.103   3.646
74995W        W36416  18.663  28.086   0.252
74996W        W36417   7.392   4.247   3.350
74997W        W36418  33.508  42.492  13.837
74998W        W36419   0.383   3.398  12.366
74999W        W36420  33.570  42.926  12.854
75000W        W36421  22.173  22.720  10.634
75001W        W36422  21.625  17.708  14.352
75002W        W36423  12.359  13.118  14.948
75003W        W36424  18.170  28.466  10.507
75004W        W36425  11.227  18.225   2.274
75005W        W36426  33.479   3.397   3.283
75006W        W36427   8.256  38.505  12.058
75007W        W36428  10.234  13.700  14.806
75008W        W36429  11.771  39.961  12.901
75009W        W36430  27.989  21.231   1.411
75010W        W36431  42.787  23.641   1.774
75011W        W36432  21.701   8.346   0.887
75012W        W36433  17.226  12.797   2.801
75013W        W36434  12.706   3.336  12.520
75014W        W36435  37.849  10.351  10.405
75015W        W36436   1.244  43.433   2.872
75016W        W36437  35.082  12.160   0.851
75017W        W36438  35.072   1.308  11.006
75018W        W36439  13.204   1.736  10.112
75019W        W36440  21.751  25.652  14.004
75020W        W36441  30.153  24.498  12.884
75021W        W36442  21.730  15.245  13.506
75022W        W36443  29.035  32.625  11.031
75023W        W36444   2.419  44.440   0.847
75024W        W36445  34.579   6.273  10.049
75025W        W36446  39.377   6.238   4.300
75026W        W36447  43.996  23.530  14.813
75027W        W36448  20.688   3.299  14.308
75028W        W36449  38.420  44.313   2.216
75029W        W36450  41.037  10.777   3.302
75030W        W36451  22.238  40.888  11.580
75031W        W36452  35.456  21.517  14.354
75032W        W36453  43.824  29.454   3.345
75033W        W36454  25.504  20.592  11.037
75034W        W36455   6.850  36.841  13.529
75035W        W36456  25.206   5.376  13.462
75036W        W36457  11.832  43.349  12.404
75037W        W36458  29.981   9.366   1.212
75038W        W36459  24.197  12.659  12.045
75039W        W36460   6.851  19.150   3.789
75040W        W36461   2.304   8.876   3.316
75041W        W36462  20.075   7.366   2.722
75042W        W36463   1.895  17.703   0.386
75043W        W36464   3.805  42.403  14.760
75044W        W36465  41.444  30.131   4.244
75045W        W36466  25.040  26.000  11.424
75046W        W36467   8.792   0.455  11.945
75047W        W36468  43.877  16.767   3.343
75048W        W36469  25.127   0.947  11.400
75049W        W36470  36.413   6.707   1.917
75050W        W36471  15.087  19.085   1.744
75051W        W36472  28.508  18.185  10.956
75052W        W36473  43.803  40.389  10.501
75053W        W36474   2.419  40.516   1.701
75054W        W36475   3.345  23.551   4.772
75055W        W36476  29.466  33.875   0.400
75056W        W36477  34.492  34.982   2.704
75057W        W36478  31.077  20.068  14.871
75058W        W36479  33.393  20.245  13.442
75059W        W36480  29.614   6.735   2.672
75060W        W36481  35.409  12.660  11.544
75061W        W36482  44.999  11.707   0.808
75062W        W36483  32.424  21.258   0.854
75063W        W36484  31.089  29.038   4.699
75064W        W36485  36.076  20.580   2.311
75065W        W36486   8.900  18.607   5.155
75066W        W36487   7.339   5.913   3.744
75067W        W36488  40.434   1.888  13.479
75068W        W36489  35.387  20.097   4.219
75069W        W36490   3.794   5.356   4.145
75070W        W36491  10.303   7.364   1.290
75071W        W36492  25.104   5.904   2.407
75072W        W36493  26.192   1.385   4.805
75073W        W36494   6.207  24.655  14.420
75074W        W36495  31.541  18.133   0.759
75075W        W36496  23.620   0.960   0.461
75076W        W36497  42.987  18.057   4.601
75077W        W36498  13.659  27.108  14.012
75078W        W36499  21.029  35.431   4.792
75079W        W36500  29.108  25.133   3.280
75080W        W36501  13.328  39.971  12.898
75081W        W36502  38.989  34.429   1.331
75082W        W36503  41.307  15.305  14.796
75083W        W36504  14.706  35.486  14.510
75084W        W36505  14.617  37.467  14.471
75085W        W36506  17.670  18.674  11.077
75086W        W36507  26.687  32.512   0.422
75087W        W36508  41.319  14.172   2.284
75088W        W36509  37.528  34.089   3.352
75089W        W36510   9.829  42.387   1.383
75090W        W36511  35.434  31.023  13.886
75091W        W36512  41.486  36.086  11.413
75092W        W36513  21.240   2.910   4.747
75093W        W36514  10.218  18.660   0.361
75094W        W36515  12.707   9.174   1.914
75095W        W36516   4.406   1.844   1.785
75096W        W36517  34.532  37.497   3.741
75097W        W36518   6.260  33.043   3.824
75098W        W36519  34.941  32.633   2.314
75099W        W36520   9.239   5.388   1.360
75100W        W36521  33.621  25.163  10.043
75101W        W36522  31.082  11.253  10.027
75102W        W36523  12.782  17.196   2.204
75103W        W36524  37.004  18.615   2.737
75104W        W36525  44.967  20.626   4.670
75105W        W36526  26.958  31.620   3.202
75106W        W36527  40.451   6.340  14.354
75107W        W36528  27.033  23.025  11.552
75108W        W36529  18.653  22.656  12.359
75109W        W36530  10.640  27.016   2.296
75110W        W36531  23.683  42.437  14.445
75111W        W36532   3.337  28.145   3.706
75112W        W36533  15.145  12.796   2.383
75113W        W36534  37.087  23.720  14.488
75114W        W36535  28.171  15.718   0.785
75115W        W36536  29.431  21.134  11.424
75116W        W36537   8.798   4.849   2.691
75117W        W36538   4.338  40.977   2.669
75118W        W36539  16.230  37.388   4.714
75119W        W36540  12.748  19.040  14.393
75120W        W36541  36.391  32.082  13.444
75121W        W36542  28.484  11.298  13.022
75122W        W36543  25.059  35.388  14.944
75123W        W36544  44.774  25.611  11.092
75124W        W36545   6.740  19.082  14.899
75125W        W36546  18.086  42.908  14.940
75126W        W36547  31.146  29.937   4.730
75127W        W36548  15.702   9.828  13.954
75128W        W36549  21.542  13.180   1.698
75129W        W36550  41.320  41.829  10.545
75130W        W36551  42.848  38.388  10.999
75131W        W36552  14.735  26.954  10.899
75132W        W36553   6.841  44.305   2.264
75133W        W36554   5.772   1.910  11.473
75134W        W36555  17.614  38.856  10.604
75135W        W36556  17.634  30.441   0.396
75136W        W36557   3.364  24.500  11.612
75137W        W36558  32.116  24.035   0.365
75138W        W36559   3.954   1.344  14.960
75139W        W36560   6.861  36.029   2.749
75140W        W36561  40.986  11.783   4.652
75141W        W36562  18.294  13.196   1.878
75142W        W36563  19.752  43.840  11.610
75143W        W36564  43.947  21.656  12.912
75144W        W36565  35.057  37.368  11.941
75145W        W36566  37.369  44.943   1.382
75146W        W36567  13.149  26.498  12.032
75147W        W36568  30.094  40.355  13.793
75148W        W36569   2.923  18.221  11.104
75149W        W36570  10.836  20.600   0.762
75150W        W36571   9.836  35.412  13.991
75151W        W36572  33.941  17.204  12.392
75152W        W36573  23.141  36.538   3.642
75153W        W36574   7.199  36.578  10.989
75154W        W36575   7.721  19.146  12.944
75155W        W36576  28.638   0.863  10.439
75156W        W36577  33.077  34.381  13.360
75157W        W36578   8.360  19.080  14.427
75158W        W36579  32.624   4.839  14.826
75159W        W36580  39.506  22.521   2.238
75160W        W36581  27.117  43.282  10.572
75161W        W36582  33.556  18.731  11.603
75162W        W36583  43.404  34.484  10.447
75163W        W36584  16.682  43.314   0.791
75164W        W36585  24.142  26.974  12.442
75165W        W36586  16.228  17.104   1.866
75166W        W36587  11.796   9.187  13.310
75167W        W36588  40.004   0.852  12.564
75168W        W36589   7.353  13.274  10.508
75169W        W36590  15.610   9.692  13.525
75170W        W36591  36.852  21.101  10.489
75171W        W36592  36.918  26.198  14.842
75172W        W36593   9.740  25.568   4.277
75173W        W36594  31.905  25.973  14.973
75174W        W36595   6.202  43.296  11.460
75175W        W36596  10.329   4.711  14.405
75176W        W36597  20.729  44.800   1.709
75177W        W36598  27.114  37.047   0.965
75178W        W36599  11.753  24.554  13.801
75179W        W36600   8.708  30.545  12.579
75180W        W36601  31.074   2.353  11.384
75181W        W36602  12.277   6.748  11.856
75182W        W36603  19.116  19.617   0.484
75183W        W36604  40.043  39.465  10.948
75184W        W36605  16.571   8.370  12.905
75185W        W36606  41.897  14.210   3.318
75186W        W36607  25.521  37.978   3.707
75187W        W36608   3.240   7.310  14.440
75188W        W36609  37.567   9.756  11.933
75189W        W36610  37.342  17.115  10.421
75190W        W36611  21.580  16.163   4.308
75191W        W36612  26.557   5.726  10.599
75192W        W36613  33.474  13.217   3.632
75193W        W36614  27.992  41.454  11.887
75194W        W36615  42.374   4.810  11.971
75195W        W36616  31.406   4.780  13.798
75196W        W36617  44.771  28.007   0.284
75197W        W36618  18.774   7.742   3.319
75198W        W36619  33.431   4.223   3.251
75199W        W36620  24.037  33.494  10.119
75200W        W36621  12.253  23.634   4.307
75201W        W36622  32.399  15.278   1.445
75202W        W36623  43.514  32.494   4.630
75203W        W36624   8.365   2.397   4.704
75204W        W36625   6.297   2.845  13.546
75205W        W36626  32.609   7.718  10.596
75206W        W36627  15.284  34.114  13.814
75207W        W36628  39.060  31.025   3.696
75208W        W36629  40.531   0.763   5.244
75209W        W36630  38.474  13.132   5.696
75210W        W36631   6.856  18.633  10.644
75211W        W36632  11.634  11.782  10.938
75212W        W36633  29.139  33.586  11.940
75213W        W36634  39.052  32.404  13.034
75214W        W36635  24.082  20.632  13.955
75215W        W36636  20.657  18.051   3.350
75216W        W36637   0.394  40.488  12.358
75217W        W36638  38.897  20.060   4.697
75218W        W36639  39.840  40.449  12.007
75219W        W36640   6.298  22.715   9.929
75220W        W36641  43.392  29.022   0.351
75221W        W36642  21.081   8.874   5.210
75222W        W36643  37.356   3.773   4.728
75223W        W36644  22.630  28.582  12.430
75224W        W36645  26.031  12.749   1.244
75225W        W36646  15.282  28.079   4.345
75226W        W36647  10.699  22.601   2.846
75227W        W36648  35.039  32.103  11.862
75228W        W36649  10.245  42.422  10.966
75229W        W36650  28.985  23.568   2.283
75230W        W36651  13.670  26.969  14.921
75231W        W36652  30.133  34.890   2.383
75232W        W36653  25.062  10.743  12.977
75233W        W36654  17.787   7.383  12.993
75234W        W36655  17.071  21.626  11.458
75235W        W36656  10.860   5.728  12.902
75236W        W36657  30.937  25.617   2.885
75237W        W36658   7.319   5.859  13.526
75238W        W36659  17.256  23.126   4.292
75239W        W36660   3.227  12.668   1.327
75240W        W36661  42.398  11.218  12.036
75241W        W36662  26.590   2.440  10.964
75242W        W36663   5.270  27.140   4.720
75243W        W36664   8.351  37.031  12.429
75244W        W36665  42.801   9.704   0.728
75245W        W36666  20.533  31.012   0.317
75246W        W36667   2.752  25.532  11.464
75247W        W36668  12.183  32.399  10.413
75248W        W36669  15.213  32.132   1.326
75249W        W36670  37.460  10.671  12.075
75250W        W36671   0.451   9.339   1.826
75251W        W36672  24.046  22.138  11.956
75252W        W36673  27.127  37.345  13.877
75253W        W36674   7.183  36.079   2.402
75254W        W36675   1.317  41.821   3.834
75255W        W36676  29.943  18.655   1.844
75256W        W36677  33.491  36.970  13.476
75257W        W36678   6.789  14.804   2.840
75258W        W36679  18.719   0.454  12.000
75259W        W36680  35.476  24.093   1.770
75260W        W36681   5.374  39.323   3.175
75261W        W36682   3.441  38.408   0.885
75262W        W36683   8.758  10.182  11.583
75263W        W36684  13.679  42.526   4.643
75264W        W36685  25.505  21.585   1.902
75265W        W36686  38.553  20.612  11.456
75266W        W36687  17.672   5.368   3.352
75267W        W36688  37.399  35.971   3.190
75268W        W36689  37.552  15.155   0.877
75269W        W36690  18.124  34.118   2.365
75270W        W36691  27.077  17.716   2.715
75271W        W36692  28.519  23.653   2.853
75272W        W36693   6.428  34.932  10.639
75273W        W36694   9.715  33.957  10.978
75274W        W36695  41.808   2.761  14.439
75275W        W36696  37.474  17.618  12.407
75276W        W36697   7.412  28.666  11.925
75277W        W36698  18.218  34.957  12.376
75278W        W36699  33.942  23.632  10.904
75279W        W36700  25.982   3.935  12.960
75280W        W36701  35.386  23.492  14.810
75281W        W36702  16.586   0.923  13.449
75282W        W36703  15.215  33.391   3.665
75283W        W36704  30.511   5.409   4.720
75284W        W36705  14.801  40.347  12.527
75285W        W36706  12.672   3.766   1.283
75286W        W36707  44.299  39.466   1.876
75287W        W36708  31.496   1.848  10.593
75288W        W36709  13.312  10.659   3.172
75289W        W36710   2.404   1.777  11.399
75290W        W36711  13.753  23.730   0.405
75291W        W36712  31.145   9.826   5.284
75292W        W36713  33.075   8.406  14.347
75293W        W36714  22.659  19.771   1.307
75294W        W36715   5.291  40.331  13.888
75295W        W36716  29.525  39.822  10.446
75296W        W36717   6.688  40.943  14.301
75297W        W36718   0.335   1.899   3.319
75298W        W36719  18.172   7.219   2.266
75299W        W36720  40.303  15.254   5.123
75300W        W36721  22.669  21.072  13.349
75301W        W36722  40.010  29.047   0.897
75302W        W36723  36.563  36.561   0.402
75303W        W36724   8.174  23.025   3.352
75304W        W36725  32.886  29.595   4.201
75305W        W36726  44.495  37.388  11.602
75306W        W36727   7.822  26.557  12.385
75307W        W36728  21.119  20.708   2.384
75308W        W36729  11.817  31.590  12.503
75309W        W36730  27.512  38.066   0.933
75310W        W36731  24.003  20.191   0.946
75311W        W36732  40.827  26.955   0.936
75312W        W36733  30.140  17.115   4.603
75313W        W36734  10.356  28.662   4.314
75314W        W36735  38.035  30.143  12.518
75315W        W36736  25.004   9.297   5.267
75316W        W36737  41.946  27.062   3.174
75317W        W36738   2.389  33.909  10.036
75318W        W36739   8.810  31.494  12.490
75319W        W36740  10.820  40.966   1.447
75320W        W36741  33.934  23.004  14.782
75321W        W36742  44.856  16.635   0.807
75322W        W36743  10.192  32.559  14.775
75323W        W36744  20.082   1.347  11.392
75324W        W36745  39.904  36.918   4.351
75325W        W36746  32.408   3.274  10.594
75326W        W36747  27.196  30.017   3.698
75327W        W36748  27.502   6.717   4.323
75328W        W36749  13.607  25.479  11.384
75329W        W36750   9.188  16.785  11.922
75330W        W36751  17.601  31.040  12.964
75331W        W36752  16.146   4.431   3.146
75332W        W36753  24.225  31.525   0.449
75333W        W36754  12.835  35.040  13.473
75334W        W36755   9.191  22.664   3.720
75335W        W36756   5.828   8.830  11.094
75336W        W36757  42.882   3.217   3.699
75337W        W36758  40.484  20.569   0.255
75338W        W36759  22.239  14.326  12.480
75339W        W36760  23.560  27.118   1.711
75340W        W36761   2.316  32.458   0.397
75341W        W36762  16.807  15.117   0.927
75342W        W36763  31.604  38.060  11.461
75343W        W36764  21.557  38.820  10.413
75344W        W36765  25.662  21.679  14.338
75345W        W36766  38.902  27.574  12.514
75346W        W36767   3.354  26.108   0.419
75347W        W36768  13.635   9.845  10.921
75348W        W36769  28.568  16.714  11.101
75349W        W36770  26.476   7.755  14.932
75350W        W36771  44.885  33.512  10.954
75351W        W36772  20.110   7.897  12.011
75352W        W36773  37.085  26.567  10.491
75353W        W36774  21.223  22.127  13.486
75354W        W36775  14.166   6.875  11.512
75355W        W36776  44.350  34.579   3.703
75356W        W36777  10.770  37.961  14.338
75357W        W36778  25.619  15.160   4.301
75358W        W36779  13.665  20.063   4.143
75359W        W36780  24.531   9.769   3.810
75360W        W36781  18.078  12.261  14.423
75361W        W36782  32.015  30.113   3.677
75362W        W36783  41.949  39.814   2.750
75363W        W36784  27.948  17.580   4.671
75364W        W36785  28.036  17.187  12.359
75365W        W36786  40.480  42.918  10.590
75366W        W36787   5.794   1.901   4.136
75367W        W36788   1.899  37.922   4.790
75368W        W36789  37.962   4.250  10.643
75369W        W36790  14.269  32.480  13.379
75370W        W36791  19.762  43.429   2.819
75371W        W36792  37.945   7.701   1.275
75372W        W36793  30.619  37.016   0.936
75373W        W36794   3.758  23.155   4.787
75374W        W36795  13.312  12.280  13.338
75375W        W36796  17.698  37.527  12.013
75376W        W36797  21.553   4.926   2.394
75377W        W36798  41.955  39.908   0.776
75378W        W36799  16.721  30.008  10.064
75379W        W36800  25.543  13.814  11.098
75380W        W36801  39.013  17.575  11.970
75381W        W36802   6.233  14.113  14.298
75382W        W36803  20.731   3.771   0.820
75383W        W36804   2.302  43.444  14.479
75384W        W36805  20.112   7.344   1.394
75385W        W36806  41.370  11.314  10.515
75386W        W36807   1.961   2.383  12.007
75387W        W36808   5.401  43.806   1.312
75388W        W36809  12.300  24.555  13.341
75389W        W36810   9.881  37.538  13.035
75390W        W36811  11.646  20.176  12.993
75391W        W36812  35.955  20.153   1.905
75392W        W36813   0.390  38.044  14.858
75393W        W36814  10.201  20.080   2.693
75394W        W36815  29.550  39.475   4.728
75395W        W36816  16.168  13.627  10.601
75396W        W36817  23.060  10.331  14.423
75397W        W36818   5.205  44.386   3.860
75398W        W36819  23.178  13.673  13.921
75399W        W36820  32.890  19.284  13.385
75400W        W36821  43.416   4.239   1.917
75401W        W36822  27.578  14.184   4.768
75402W        W36823   4.833   7.900   0.788
75403W        W36824  39.552  39.967  11.576
75404W        W36825  19.735  40.863  11.048
75405W        W36826  29.596  15.166   0.322
75406W        W36827  33.045  41.891  14.823
75407W        W36828  31.098  12.155   4.136
75408W        W36829  29.040  12.716  14.326
75409W        W36830  17.240  21.242  11.050
75410W        W36831  22.034  10.869   2.733
75411W        W36832   6.390  17.200  13.801
75412W        W36833  28.142  21.136  10.930
75413W        W36834  21.073  37.932   2.689
75414W        W36835  23.576  23.172  13.411
75415W        W36836  13.749  28.098   1.721
75416W        W36837  15.287  31.102  12.931
75417W        W36838  12.121  21.018   2.765
75418W        W36839  27.567  32.914   0.464
75419W        W36840   4.244  22.588   2.404
75420W        W36841  31.014  18.118  13.542
75421W        W36842  10.809  33.942  14.936
75422W        W36843  31.428  10.362   1.408
75423W        W36844  27.574   8.792  10.607
75424W        W36845  17.137  35.934   4.179
75425W        W36846  20.075   0.797  12.547
75426W        W36847   3.884  17.212   4.597
75427W        W36848  26.660  42.280   3.155
75428W        W36849   8.214   3.395   0.421
75429W        W36850  20.761   6.306   4.259
75430W        W36851  41.470  24.110   1.904
75431W        W36852  33.546   6.203  14.821
75432W        W36853  39.839  16.204  12.835
75433W        W36854  28.493   5.410  11.407
75434W        W36855  27.687   0.325   0.815
75435W        W36856   6.888  31.151   1.318
75436W        W36857   4.255   0.943   3.369
75437W        W36858  11.295  34.451  14.868
75438W        W36859   3.812  30.537  10.011
75439W        W36860   2.739  14.153   1.769
75440W        W36861  30.583  14.829   1.914
75441W        W36862  24.207  33.618  10.968
75442W        W36863  20.632  27.636   3.689
75443W        W36864   3.427   2.788   2.276
75444W        W36865  12.842  13.181   0.839
75445W        W36866   5.256  16.266  14.819
75446W        W36867  21.568  27.526  14.987
75447W        W36868  12.822   9.278   4.151
75448W        W36869  24.703   7.832   2.739
75449W        W36870  30.643   3.878  12.437
75450W        W36871   8.710  31.466   3.360
75451W        W36872  26.199  24.521  10.907
75452W        W36873  11.211  29.104   0.937
75453W        W36874   0.749  43.431  14.465
75454W        W36875  11.333  30.639   0.278
75455W        W36876  41.305  15.220  13.424
75456W        W36877  37.392  26.059   1.923
75457W        W36878   3.827   5.801   5.146
75458W        W36879  17.213  24.988   1.387
75459W        W36880  33.385   0.281  14.874
75460W        W36881  29.514  19.769  12.438
75461W        W36882   2.848  36.510  12.089
75462W        W36883  28.986  28.982  14.486
75463W        W36884   5.788  44.932  13.052
75464W        W36885  41.340  29.052  11.997
75465W        W36886   1.347   0.868   1.260
75466W        W36887  32.981  17.649  13.945
75467W        W36888   6.893  26.681  14.784
75468W        W36889   8.278  29.613   2.797
75469W        W36890  42.350  14.143   1.710
75470W        W36891   4.830  28.454  10.472
75471W        W36892  33.051  41.394   4.200
75472W        W36893  31.609   9.201  14.024
75473W        W36894  14.223  34.033  10.463
75474W        W36895   7.713  13.177   0.311
75475W        W36896  30.009  15.253  13.488
75476W        W36897  16.653   1.834  10.536
75477W        W36898  13.641  43.918   0.877
75478W        W36899  40.475  26.080  11.990
75479W        W36900  28.453   4.712   0.327
75480W        W36901   6.378  38.389  13.534
75481W        W36902   1.884  20.613   3.358
75482W        W36903  37.886  26.037   3.358
75483W        W36904  28.009  17.646   4.294
75484W        W36905  39.400  10.735  14.817
75485W        W36906  38.453   1.902  13.016
75486W        W36907   4.737  24.189   3.188
75487W        W36908   9.206   3.304  12.556
75488W        W36909  10.194   4.872   3.648
75489W        W36910  18.620  29.642  11.912
75490W        W36911  22.689  26.677   1.439
75491W        W36912  41.361   0.762   4.838
75492W        W36913  42.849  30.464  12.827
75493W        W36914   0.309   4.793  10.628
75494W        W36915  37.913  41.007   0.308
75495W        W36916  41.863  20.141   0.741
75496W        W36917   2.732   7.173   4.716
75497W        W36918  39.539  29.981  14.304
75498W        W36919  42.905  14.613  14.949
75499W        W36920  28.090  29.034   4.277
75500W        W36921   7.256  24.597  10.156
75501W        W36922   5.743  12.846  12.039
75502W        W36923  29.028   9.178   2.747
75503W        W36924  30.650   5.218  12.500
75504W        W36925  15.327   9.848  12.842
75505W        W36926   4.211  27.166   1.452
75506W        W36927  14.097  10.368  10.431
75507W        W36928  11.808  41.931   2.700
75508W        W36929   3.955   4.729  13.920
75509W        W36930   0.891  41.874  13.429
75510W        W36931  10.640  30.029   4.311
75511W        W36932  12.684  24.018  14.762
75512W        W36933  37.360  11.325   2.667
75513W        W36934  43.475   9.651   0.270
75514W        W36935  32.549  15.283   2.278
75515W        W36936  17.122  22.516  11.580
75516W        W36937  39.471  27.985   4.703
75517W        W36938  27.145  25.219  11.406
75518W        W36939  25.073   2.231  12.451
75519W        W36940  19.066   8.253  12.453
75520W        W36941  36.419  15.666   4.115
75521W        W36942  13.229  14.753  13.048
75522W        W36943  14.164  43.888   1.928
75523W        W36944  22.684  36.433  11.578
75524W        W36945  22.517  24.015   1.927
75525W        W36946  21.244  21.530  13.328
75526W        W36947   7.237   7.364  12.519
75527W        W36948  12.806  21.538   0.912
75528W        W36949   2.848   6.868   2.205
75529W        W36950  21.109  17.223  11.551
75530W        W36951  37.388  17.172  14.388
75531W        W36952  14.763  19.052   3.654
75532W        W36953  31.420  42.858  14.773
75533W        W36954  29.144  40.451   2.416
75534W        W36955  19.689  41.339   4.151
75535W        W36956  18.679   9.373  14.300
75536W        W36957  15.627  10.847  13.044
75537W        W36958   7.854  14.289   1.813
75538W        W36959   5.861  33.571  14.420
75539W        W36960  14.237  32.541   0.857
75540W        W36961  19.173   6.736   5.162
75541W        W36962  14.596   6.803   1.779
75542W        W36963  30.442   2.885   2.400
75543W        W36964  29.464  44.274  13.528
75544W        W36965  21.223  38.829  11.007
75545W        W36966   9.873  10.197  11.996
75546W        W36967  32.012  18.674  14.015
75547W        W36968  21.175  29.165   1.833
75548W        W36969  12.745  38.002   0.466
75549W        W36970  34.488  20.271  10.606
75550W        W36971  22.053  37.932   2.349
75551W        W36972   8.783  28.612  14.879
75552W        W36973  35.962  17.577  14.317
75553W        W36974  18.632  42.512  13.048
75554W        W36975  32.954  36.872   1.224
75555W        W36976   2.900   6.295  13.938
75556W        W36977  21.215   0.794  13.886
75557W        W36978  25.156   5.219   3.717
75558W        W36979   4.319   8.391   0.928
75559W        W36980   5.792   0.823  10.908
75560W        W36981   8.349  43.844   4.348
75561W        W36982  32.896  44.404   3.249
75562W        W36983   3.945   5.729  11.078
75563W        W36984  23.600  20.744  13.367
75564W        W36985  20.603  17.638  11.590
75565W        W36986  29.658  33.484   2.901
75566W        W36987  43.904  24.069  11.092
75567W        W36988   2.446  31.083  14.768
75568W        W36989  32.954  34.391   1.341
75569W        W36990  30.588   1.869   0.412
75570W        W36991  32.422   3.731   1.259
75571W        W36992  34.094  37.052   1.895
75572W        W36993  31.088  21.217  14.368
75573W        W36994  31.514  12.147   0.384
75574W        W36995  24.178  42.922  11.910
75575W        W36996  26.119  20.261   3.703
75576W        W36997   3.229  40.363  10.553
75577W        W36998  28.476  44.799  14.918
75578W        W36999  34.602  23.215   0.952
75579W        W37000  43.391   4.361   3.204
75580W        W37001  32.130  29.141  12.572
75581W        W37002  40.848  35.498  14.354
75582W        W37003  28.448   1.945   3.245
75583W        W37004  15.604   7.378  11.576
75584W        W37005   0.328  23.663  10.522
75585W        W37006  43.479  36.926   2.352
75586W        W37007  18.722   6.192   1.779
75587W        W37008  10.167  26.095  10.963
75588W        W37009  38.913   0.280  13.523
75589W        W37010  44.817   1.843   2.786
75590W        W37011  31.932   0.964  14.789
75591W        W37012   1.432  22.198   4.829
75592W        W37013  34.450  18.663   0.244
75593W        W37014   0.830  12.296   2.800
75594W        W37015  27.113  34.096   0.484
75595W        W37016   3.939  28.056   1.372
75596W        W37017  12.689   8.229   3.631
75597W        W37018  26.996  10.785   2.746
75598W        W37019  23.623   1.468   0.480
75599W        W37020  12.255  30.605  11.897
75600W        W37021   1.449  33.965   3.227
75601W        W37022  20.080  40.484   2.328
75602W        W37023  25.679  15.164   1.445
75603W        W37024  40.496  15.208   5.572
75604W        W37025  39.851  13.252   3.157
75605W        W37026  25.094  32.520  10.563
75606W        W37027   8.342  22.676  12.540
75607W        W37028  44.933   1.733   1.773
75608W        W37029  14.178   9.848  10.586
75609W        W37030  38.385   7.283  11.931
75610W        W37031  36.886  39.381   2.789
75611W        W37032  36.395  28.438  14.428
75612W        W37033  16.568  20.031  12.830
75613W        W37034  44.496   0.769  10.076
75614W        W37035  24.049  21.693   1.715
75615W        W37036  35.084  39.030  13.058
75616W        W37037   1.926  22.046  12.423
75617W        W37038  22.638   3.378   3.195
75618W        W37039   4.890  13.183   4.296
75619W        W37040  38.373  37.567  14.495
75620W        W37041  34.433  23.646  12.576
75621W        W37042  30.988  20.672  11.897
75622W        W37043  33.075  21.085  14.027
75623W        W37044  16.762   3.925   4.197
75624W        W37045  23.241  14.317  10.893
75625W        W37046  33.118  43.442  14.804
75626W        W37047   3.292  39.364   4.817
75627W        W37048   0.343  41.940  13.362
75628W        W37049  20.733  43.001   2.208
75629W        W37050  18.583  43.416   0.807
75630W        W37051  38.355  40.008   1.782
75631W        W37052  40.480  25.599   3.198
75632W        W37053  28.540   9.178  10.962
75633W        W37054   3.915  11.353  13.990
75634W        W37055  44.469  14.150   9.996
75635W        W37056   0.381  41.400   3.670
75636W        W37057   2.401   5.807  14.436
75637W        W37058  17.274   1.872   2.817
75638W        W37059  22.105  26.490  12.859
75639W        W37060  34.566  12.117   4.704
75640W        W37061  24.535   4.915   2.776
75641W        W37062  13.263  37.416  14.798
75642W        W37063  33.994  26.179  14.806
75643W        W37064   1.332  28.446   5.270
75644W        W37065   1.824  21.091  13.933
75645W        W37066  11.226   1.242  13.051
75646W        W37067  23.054  14.792  10.979
75647W        W37068   3.746  31.065  14.832
75648W        W37069   1.248  16.570   3.272
75649W        W37070  43.326  10.346  12.876
75650W        W37071  18.700  34.876   3.156
75651W        W37072  31.947   2.437   5.272
75652W        W37073  38.011  15.308   3.824
75653W        W37074   4.312  20.120   0.353
75654W        W37075  32.961   6.912   0.818
75655W        W37076  40.526  14.268   3.834
75656W        W37077  17.234  35.934  10.491
75657W        W37078  17.634  38.924   2.279
75658W        W37079  11.359  38.071   1.821
75659W        W37080  13.334   9.179  12.358
75660W        W37081   4.227   1.450   1.830
75661W        W37082  23.156  21.553   0.733
75662W        W37083  17.738  11.240   4.768
75663W        W37084  21.523  10.832   2.840
75664W        W37085   4.809  37.428   1.849
75665W        W37086  12.795  38.326   4.286
75666W        W37087  19.088  20.230   3.267
75667W        W37088  31.909  19.217   4.230
75668W        W37089  27.536   3.955  12.563
75669W        W37090  35.541  21.237  14.972
75670W        W37091  22.628   6.228  11.123
75671W        W37092  23.585  37.884  12.984
75672W        W37093  28.114  43.461  14.500
75673W        W37094  30.598  33.042   3.168
75674W        W37095  22.613   6.420  10.628
75675W        W37096  28.595  25.154  11.997
75676W        W37097  31.510  15.141  10.431
75677W        W37098   6.812  16.140  11.062
75678W        W37099  17.300  28.606   0.482
75679W        W37100  17.574   4.735  10.421
75680W        W37101  12.143  12.757   1.864
75681W        W37102  41.477  27.090   4.676
75682W        W37103  30.930   4.757   2.785
75683W        W37104  26.987  22.666  12.535
75684W        W37105  35.981  18.713   2.298
75685W        W37106  44.873  33.472   0.454
75686W        W37107  31.482  41.428  14.828
75687W        W37108  14.258  27.135  12.896
75688W        W37109   7.219  23.543  14.859
75689W        W37110  11.840  34.596   1.333
75690W        W37111  42.967  42.498  11.996
75691W        W37112  21.072  16.634  12.880
75692W        W37113  23.196  13.149  10.420
75693W        W37114   3.822  13.747  14.447
75694W        W37115  17.152  39.851   1.877
75695W        W37116   0.293  35.488   3.838
75696W        W37117   7.723  21.263  13.368
75697W        W37118  43.470  15.698   2.317
75698W        W37119  14.800  29.018  12.872
75699W        W37120  15.231   8.894  13.330
75700W        W37121  19.614  34.999   4.145
75701W        W37122  21.655  23.195  12.580
75702W        W37123  14.113   1.852   1.371
75703W        W37124  10.363  26.474  13.450
75704W        W37125  35.466  13.135  11.125
75705W        W37126  44.756  24.160   2.321
75706W        W37127   6.266   8.712   1.319
75707W        W37128  15.694   5.934   2.346
75708W        W37129   8.269  26.515  12.957
75709W        W37130   4.806  41.461   2.822
75710W        W37131  14.170  32.481  11.518
75711W        W37132  16.710  27.941   3.189
75712W        W37133  44.265   8.666  14.340
75713W        W37134  24.024   8.190  10.985
75714W        W37135  35.097  26.686   3.358
75715W        W37136  24.676  39.925  12.364
75716W        W37137   8.664  11.281  13.004
75717W        W37138   6.231  16.219  13.435
75718W        W37139  31.137  19.243   0.880
75719W        W37140  22.616  30.118  14.014
75720W        W37141  24.094  13.180  14.302
75721W        W37142   7.310   0.486  14.869
75722W        W37143   2.427   9.358  13.960
75723W        W37144   8.181  21.730  13.318
75724W        W37145   8.677   4.318  12.010
75725W        W37146  40.439  10.808  14.291
75726W        W37147  20.736  27.184   1.415
75727W        W37148  17.129  44.910  12.457
75728W        W37149  14.196  28.144   0.956
75729W        W37150  29.588  41.510   0.914
75730W        W37151  28.024  21.074  11.925
75731W        W37152  10.276  17.644   3.780
75732W        W37153  25.648  12.808   0.729
75733W        W37154  33.893  24.583  11.977
75734W        W37155  19.199  35.367  11.417
75735W        W37156  25.201  28.170   4.802
75736W        W37157  10.709  19.265  14.503
75737W        W37158   2.817  16.174   1.286
75738W        W37159  28.569  28.588  14.452
75739W        W37160  21.148  44.310  13.803
75740W        W37161  30.153  17.560  11.394
75741W        W37162  25.127  32.631  12.967
75742W        W37163  44.286  37.537  11.095
75743W        W37164  35.503  31.548  14.442
75744W        W37165  37.393   8.316  11.417
75745W        W37166  27.482  34.995   2.319
75746W        W37167   9.258  41.888   5.320
75747W        W37168  28.499   4.878  10.919
75748W        W37169  19.197  35.059   2.832
75749W        W37170  19.725  34.051   0.249
75750W        W37171  29.930  21.040   3.151
75751W        W37172   6.732  39.325  11.990
75752W        W37173  37.985   1.760   2.737
75753W        W37174  43.965   0.389   3.736
75754W        W37175   6.375   3.427  13.886
75755W        W37176  14.810  11.826  10.119
75756W        W37177  29.970  41.986   0.907
75757W        W37178  30.942  35.920   3.853
75758W        W37179  44.314   0.937   4.598
75759W        W37180   8.849   3.314  12.998
75760W        W37181  38.513  31.593  12.048
75761W        W37182   7.818  32.525   3.641
75762W        W37183  13.304  35.575   4.761
75763W        W37184  44.875  30.421  12.397
75764W        W37185  12.359  13.777   3.678
75765W        W37186  18.231  31.526   2.778
75766W        W37187  12.848  26.040   0.274
75767W        W37188   9.390   1.915  11.064
75768W        W37189  32.580  16.207  10.574
75769W        W37190  41.469  40.504  14.793
75770W        W37191  42.322   9.224  13.427
75771W        W37192  27.985  13.637  13.875
75772W        W37193  33.468  21.625  13.014
75773W        W37194  31.052  15.703   9.978
75774W        W37195  34.480   7.830  14.327
75775W        W37196  37.957  13.176  14.463
75776W        W37197  32.916  27.534   3.211
75777W        W37198  11.257   4.832  12.500
75778W        W37199  40.049  25.499  14.877
75779W        W37200  10.199  25.185   4.651
75780W        W37201  20.679  29.931  10.413
75781W        W37202  44.841   0.286  13.442
75782W        W37203   5.927  39.879   5.656
75783W        W37204   7.186  40.322  13.986
75784W        W37205  44.760  19.774   2.762
75785W        W37206  35.590   6.212  11.877
75786W        W37207   9.728  39.026   1.280
75787W        W37208  23.616  12.652   2.803
75788W        W37209  38.839  38.552  12.401
75789W        W37210  14.257  15.129   2.311
75790W        W37211  32.588  11.325   0.882
75791W        W37212  34.014  25.160   1.775
75792W        W37213  24.493   9.725  14.498
75793W        W37214  29.501  31.072  13.415
75794W        W37215  36.417   1.842   9.550
75795W        W37216  35.072  38.849   1.757
75796W        W37217  22.526  38.876  13.822
75797W        W37218  36.566  42.471   3.708
75798W        W37219  11.667  16.788   1.788
75799W        W37220  27.658  42.954  11.537
75800W        W37221  23.074  40.040  14.301
75801W        W37222  21.256   0.773  14.495
75802W        W37223  27.170  21.152   1.924
75803W        W37224  13.149  42.494  12.975
75804W        W37225  26.059  29.653   3.708
75805W        W37226  34.077  32.955   4.833
75806W        W37227  36.379  40.801  11.406
75807W        W37228  33.470  18.652   3.257
75808W        W37229  24.607  38.565   0.434
75809W        W37230   3.298  44.941  13.359
75810W        W37231  28.044   2.918   2.752
75811W        W37232  31.495  31.934  11.873
75812W        W37233  33.973   3.946  12.016
75813W        W37234  25.175   5.742   1.294
75814W        W37235  41.476  22.205   3.322
75815W        W37236  43.988  11.794  11.991
75816W        W37237  27.523   2.307  11.029
75817W        W37238  39.024  13.124  10.540
75818W        W37239  42.027  12.736  14.956
75819W        W37240  18.633  30.043   3.862
75820W        W37241  41.313  41.932   3.311
75821W        W37242  29.503  21.229  12.364
75822W        W37243  20.237   7.692   3.640
75823W        W37244   2.886  34.967  14.419
75824W        W37245   0.358  22.191  13.020
75825W        W37246  36.574  40.433  10.469
75826W        W37247  34.065  31.938   0.400
75827W        W37248  25.062  36.850  12.384
75828W        W37249  16.576  15.804   1.342
75829W        W37250  13.257  36.934  11.418
75830W        W37251  37.472  16.133   0.891
75831W        W37252  35.455  36.860   1.746
75832W        W37253  40.914  31.897  14.340
75833W        W37254  39.961  44.362   3.332
75834W        W37255  21.547  16.709   4.772
75835W        W37256  40.860  39.539   2.349
75836W        W37257  10.853  13.250  12.843
75837W        W37258  18.076  37.562   4.169
75838W        W37259  24.090  39.475  12.046
75839W        W37260  11.264  42.916  11.915
75840W        W37261  38.950  10.753  11.610
75841W        W37262  36.849   2.338  10.006
75842W        W37263  24.114   4.914  13.503
75843W        W37264   8.684  40.545   2.323
75844W        W37265   1.374  42.518  10.485
75845W        W37266  41.530  22.064   0.783
75846W        W37267  42.818  36.592   0.886
75847W        W37268  14.128  11.692  10.512
75848W        W37269   4.321   0.800  12.388
75849W        W37270   4.402  26.042   3.228
75850W        W37271  43.301  40.920   0.278
75851W        W37272  41.396  14.731   3.828
75852W        W37273  18.173  13.734   1.280
75853W        W37274   8.184  15.763  10.640
75854W        W37275  36.871  13.681  13.540
75855W        W37276   2.419  14.294   4.211
75856W        W37277   9.774  23.562  10.968
75857W        W37278  41.953  33.005  14.408
75858W        W37279   4.906  41.447  13.414
75859W        W37280  36.951  13.340   3.682
75860W        W37281  18.623  36.842  11.974
75861W        W37282  15.592  21.077  13.857
75862W        W37283  43.474  44.858  13.977
75863W        W37284  22.074  38.362  13.372
75864W        W37285  20.130  22.520  10.150
75865W        W37286  43.330  18.145   0.903
75866W        W37287  24.639  37.495   1.445
75867W        W37288   0.389  31.558  12.448
75868W        W37289  21.142  39.373  10.444
75869W        W37290  23.548   3.244  13.054
75870W        W37291  44.336   0.893   3.636
75871W        W37292  29.581  39.863  13.481
75872W        W37293  34.867  12.738  10.154
75873W        W37294   9.887   5.890  12.396
75874W        W37295  25.614  16.189  10.891
75875W        W37296  13.731   8.821  11.983
75876W        W37297  13.658  20.132  14.794
75877W        W37298   7.182  13.773   2.335
75878W        W37299  16.159  20.597  12.874
75879W        W37300  15.661   4.384   0.965
75880W        W37301  27.143  28.447  14.349
75881W        W37302  29.654  20.578   0.940
75882W        W37303   5.340  24.025   1.714
75883W        W37304   6.922  23.985  10.458
75884W        W37305  29.150  26.564  12.986
75885W        W37306   5.930   3.433   9.927
75886W        W37307   5.319  43.791   2.218
75887W        W37308  30.592  21.232  11.502
75888W        W37309  30.633  17.766  10.454
75889W        W37310  40.478  13.736   0.396
75890W        W37311  17.139   7.892   2.375
75891W        W37312  18.563  22.576  10.424
75892W        W37313  25.184  12.785  11.469
75893W        W37314  28.436  14.229   4.311
75894W        W37315  13.125  30.143  11.375
75895W        W37316  22.110  44.276  10.602
75896W        W37317  11.770  21.571   4.241
75897W        W37318   8.861  31.543   1.869
75898W        W37319  40.917  17.160  12.926
75899W        W37320  43.997  22.094   0.304
75900W        W37321   0.748  44.331  13.494
75901W        W37322  21.560  15.211   0.897
75902W        W37323   6.184   1.472  14.798
75903W        W37324  22.708  44.398   3.371
75904W        W37325  17.657   2.287   3.840
75905W        W37326  10.821  11.253   1.322
75906W        W37327  42.880  36.568   1.807
75907W        W37328  17.249  37.951  14.443
75908W        W37329  35.415  18.119  13.917
75909W        W37330  41.037  31.624   3.169
75910W        W37331   9.742  27.133   2.258
75911W        W37332  44.320  36.883   4.713
75912W        W37333  40.505  40.989   3.274
75913W        W37334  23.034   0.903  14.857
75914W        W37335   7.677  18.580  11.923
75915W        W37336  12.308  30.997   0.324
75916W        W37337  12.819   5.367  13.873
75917W        W37338  18.623  33.017   9.988
75918W        W37339   4.830  19.195  10.466
75919W        W37340   6.239  19.609   3.268
75920W        W37341  40.824  40.528   0.449
75921W        W37342  29.129   9.820  11.126
75922W        W37343  15.591   8.322  14.359
75923W        W37344  27.025  10.732  10.452
75924W        W37345  31.619  19.043  13.895
75925W        W37346  29.117  11.693  13.815
75926W        W37347  10.237  26.549  14.472
75927W        W37348  21.156  37.029   0.254
75928W        W37349  12.170  28.175  10.498
75929W        W37350  40.984  15.809   2.267
75930W        W37351  21.659  21.598  12.033
75931W        W37352  27.480  14.309  12.490
75932W        W37353  27.009   5.856   2.800
75933W        W37354  31.514  41.006  10.589
75934W        W37355  28.080  22.633   2.844
75935W        W37356   2.303   5.255  12.424
75936W        W37357  37.340  12.214  13.507
75937W        W37358   2.823  26.075   3.235
75938W        W37359  28.485  30.977   4.142
75939W        W37360  41.920  20.542  10.512
75940W        W37361  26.480   6.249   2.370
75941W        W37362  20.085  44.945  13.794
75942W        W37363  35.985   9.770   1.768
75943W        W37364  25.029  40.921   1.375
75944W        W37365   4.394  17.147  14.834
75945W        W37366  32.037  18.687   5.238
75946W        W37367  21.073  38.988   3.362
75947W        W37368  11.355   4.403  10.520
75948W        W37369  25.584  29.022   0.764
75949W        W37370  17.681  30.111  12.378
75950W        W37371  31.407  20.059   4.212
75951W        W37372  30.605   1.264   0.390
75952W        W37373  16.620  38.984  14.358
75953W        W37374   9.228   9.233   3.777
75954W        W37375  38.417   8.218  11.919
75955W        W37376  32.990  28.565   4.263
75956W        W37377  17.176  22.039   0.729
75957W        W37378   9.299   2.757   0.370
75958W        W37379  12.780  27.964   1.284
75959W        W37380  10.329  39.015   0.962
75960W        W37381  26.608  34.492  14.917
75961W        W37382  36.062   0.299   1.808
75962W        W37383  31.929  25.496   2.740
75963W        W37384  15.227  40.919  14.781
75964W        W37385  33.411  16.674   3.320
75965W        W37386  14.283   8.675  11.572
75966W        W37387  27.164  22.536  11.594
75967W        W37388   1.390   9.387   0.831
75968W        W37389  26.464  27.628  10.097
75969W        W37390  38.370   1.883  13.335
75970W        W37391  23.208  37.577  12.012
75971W        W37392  36.867  32.550   0.735
75972W        W37393   5.402  22.700   1.276
75973W        W37394  15.227  11.298  14.420
75974W        W37395   0.923   5.833  11.056
75975W        W37396  31.474  34.033  10.908
75976W        W37397  43.316  42.905  11.507
75977W        W37398  31.109  16.711   3.750
75978W        W37399  22.585   4.930  11.105
75979W        W37400  18.280  36.888   2.221
75980W        W37401  32.044  41.850   4.638
75981W        W37402  22.711  22.528   1.373
75982W        W37403  20.593  23.082   0.360
75983W        W37404  32.101  32.399   4.698
75984W        W37405  21.576  43.505   0.909
75985W        W37406  34.026  25.008   4.674
75986W        W37407  15.297  27.022   3.811
75987W        W37408  14.748  40.958  12.342
75988W        W37409  38.975  28.095  12.931
75989W        W37410  32.502  19.545   4.180
75990W        W37411  16.168  21.101   1.272
75991W        W37412  21.072  34.071  13.412
75992W        W37413  35.903  24.054   1.337
75993W        W37414  27.193   0.450  11.107
75994W        W37415  37.401  27.158   1.367
75995W        W37416  31.627  23.536   0.409
75996W        W37417  22.536  20.691   2.265
75997W        W37418  23.015  25.550   2.354
75998W        W37419   2.354  11.705  11.900
75999W        W37420   0.288  10.663   1.217
76000W        W37421   7.771  42.987  14.401
76001W        W37422  23.095  26.554   4.218
76002W        W37423   7.793  35.852  11.124
76003W        W37424  29.550  42.902  13.509
76004W        W37425  23.995  25.631   1.827
76005W        W37426  40.821  25.975   1.307
76006W        W37427   1.433  19.075  11.007
76007W        W37428  15.164  22.193  11.525
76008W        W37429   1.892  28.182   0.406
76009W        W37430  25.594  41.433  13.932
76010W        W37431   5.848   6.417  14.881
76011W        W37432  35.404   4.935  14.786
76012W        W37433  34.903  22.667   2.700
76013W        W37434  29.669  42.442  14.957
76014W        W37435  24.715  32.110  14.489
76015W        W37436  42.857  37.928   4.282
76016W        W37437  21.712  23.536   4.312
76017W        W37438  19.619  36.979   1.716
76018W        W37439   0.758   2.231   0.801
76019W        W37440  32.907  18.713   1.704
76020W        W37441  13.262  21.219   3.241
76021W        W37442  39.524  32.442  14.392
76022W        W37443   3.341  33.612  13.935
76023W        W37444  30.024   5.427  12.566
76024W        W37445  24.090  43.991  14.913
76025W        W37446   6.264  12.780  12.072
76026W        W37447  18.733  10.267   1.277
76027W        W37448  34.080   0.906   1.333
76028W        W37449  44.378   6.256  10.038
76029W        W37450  41.334  36.841  11.495
76030W        W37451   2.812  20.056  11.554
76031W        W37452  37.993  36.001   2.819
76032W        W37453  33.113   4.361  10.614
76033W        W37454  41.788  40.450   1.352
76034W        W37455   3.237   7.214   3.675
76035W        W37456   7.184  19.751   3.283
76036W        W37457  34.405  30.539  11.094
76037W        W37458  35.859  25.531   4.235
76038W        W37459  39.338  11.861  13.372
76039W        W37460   8.254  12.735   3.278
76040W        W37461  28.941  23.655   4.697
76041W        W37462  21.022  41.906   4.283
76042W        W37463  11.696   0.902  13.441
76043W        W37464  17.235  27.184   0.276
76044W        W37465  31.526  16.697   4.670
76045W        W37466   1.780   9.870   1.255
76046W        W37467  25.114  29.459   0.371
76047W        W37468  14.154  32.587  12.029
76048W        W37469   7.344   4.922  13.956
76049W        W37470  20.087  19.147  11.960
76050W        W37471  26.514  36.918   1.874
76051W        W37472   2.967   2.434  12.873
76052W        W37473  12.222   0.380   4.204
76053W        W37474  16.698  29.595   2.734
76054W        W37475  20.038  27.587   4.300
76055W        W37476  14.335  16.712  12.567
76056W        W37477  11.365  29.654   0.876
76057W        W37478  25.012  42.337  11.007
76058W        W37479  40.433  13.120   4.113
76059W        W37480  24.053  39.451   2.178
76060W        W37481  23.150  20.607  13.898
76061W        W37482   3.309  29.068  11.096
76062W        W37483  39.462  39.956   1.702
76063W        W37484   8.371  27.476  14.355
76064W        W37485  23.695   7.811  14.878
76065W        W37486   2.854  11.847  14.876
76066W        W37487  29.155  34.520   1.377
76067W        W37488  36.503  11.263   1.801
76068W        W37489  21.545  20.539  13.946
76069W        W37490  21.518   7.373  11.970
76070W        W37491  12.744  30.942  10.563
76071W        W37492   1.337   3.279   3.856
76072W        W37493   2.861  11.174  11.528
76073W        W37494   0.874  20.689  11.426
76074W        W37495  27.663  19.671   3.672
76075W        W37496  36.556  42.018   0.301
76076W        W37497  27.658  39.324   3.254
76077W        W37498  18.199  21.049   2.282
76078W        W37499  33.615  29.453  11.961
76079W        W37500  39.988  39.014   2.723
76080W        W37501  18.119  24.148   3.252
76081W        W37502  30.930  22.610   9.926
76082W        W37503  16.224  43.317   0.412
76083W        W37504  25.201  32.558   4.619
76084W        W37505  11.688  38.926  13.500
76085W        W37506  30.103  40.378   0.932
76086W        W37507  21.084   9.344   3.860
76087W        W37508  30.442  32.110   4.248
76088W        W37509  22.161  29.130  13.963
76089W        W37510  24.570  11.683  11.546
76090W        W37511   1.275   2.410  12.046
76091W        W37512  16.257   6.795  14.283
76092W        W37513  36.075  17.697   2.740
76093W        W37514  16.627   7.713   0.307
76094W        W37515  41.931  22.637   1.755
76095W        W37516   0.405  38.884   1.221
76096W        W37517  44.810  12.220  11.108
76097W        W37518   6.290  31.972   5.203
76098W        W37519  34.564  30.042   4.333
76099W        W37520   8.809   3.933  10.613
76100W        W37521   6.714  42.283   1.907
76101W        W37522   9.249  31.648   1.713
76102W        W37523  12.276  42.375   0.775
76103W        W37524  35.022  19.650   0.418
76104W        W37525  24.542  23.728   4.172
76105W        W37526  27.449  20.199  11.602
76106W        W37527  13.702   0.433  10.517
76107W        W37528  31.460  19.614   4.788
76108W        W37529   4.903  31.033  14.976
76109W        W37530  44.006  27.627  12.034
76110W        W37531  20.691  38.002   4.253
76111W        W37532  16.173  29.113  13.340
76112W        W37533   1.831  35.435   4.756
76113W        W37534  23.024  17.685   1.211
76114W        W37535  22.236  35.384  12.482
76115W        W37536  39.523   1.240   3.314
76116W        W37537  23.625   8.751   2.258
76117W        W37538  43.305   9.157  12.021
76118W        W37539   4.352  28.011  14.349
76119W        W37540   4.809  23.218   2.279
76120W        W37541  34.507   9.870  12.467
76121W        W37542   5.838  42.402  11.431
76122W        W37543   3.779  26.973   1.904
76123W        W37544  10.731  42.775  11.901
76124W        W37545  34.414  33.927   1.815
76125W        W37546  42.892  16.269   2.306
76126W        W37547  25.971  29.457   3.157
76127W        W37548  23.037  31.479   1.796
76128W        W37549  23.194  16.315  11.867
76129W        W37550   5.244  33.946   4.637
76130W        W37551  31.609  30.999   3.675
76131W        W37552  35.026   4.846   4.769
76132W        W37553  44.451  10.677   1.708
76133W        W37554  17.677   8.891  11.110
76134W        W37555  15.740  27.659  14.497
76135W        W37556   6.326  25.216  14.794
76136W        W37557  17.762  41.821   4.258
76137W        W37558  23.599  43.487   1.777
76138W        W37559  17.214  28.048   2.759
76139W        W37560  10.872  22.509   3.340
76140W        W37561   3.272  17.179   4.169
76141W        W37562   0.794   9.212   1.227
76142W        W37563   5.322   0.311   0.345
76143W        W37564  38.918  15.142   5.146
76144W        W37565  44.793   0.787  10.465
76145W        W37566  43.285  29.086   1.857
76146W        W37567  17.062  22.248   4.161
76147W        W37568  27.512  43.922  12.418
76148W        W37569  14.120  20.242   2.750
76149W        W37570   1.305  37.923   4.805
76150W        W37571   6.836   3.402   2.721
76151W        W37572   8.317  13.809   2.686
76152W        W37573   8.247   0.921  11.942
76153W        W37574  43.953  31.089  11.611
76154W        W37575  37.582  30.075   3.814
76155W        W37576  27.041  23.572  10.909
76156W        W37577  10.310  39.436  12.996
76157W        W37578   1.906  44.456  10.426
76158W        W37579  32.046  35.583  14.310
76159W        W37580  24.625  19.714  12.341
76160W        W37581  27.589  20.613  10.643
76161W        W37582   8.222  42.883   3.811
76162W        W37583   8.751  26.170  10.889
76163W        W37584  36.531   8.713  12.567
76164W        W37585  24.205  31.976   1.891
76165W        W37586  38.972  15.248  10.414
76166W        W37587  10.236   4.446   0.850
76167W        W37588  38.073  26.628  12.078
76168W        W37589  41.040  44.906  10.967
76169W        W37590   9.851  44.491   4.235
76170W        W37591   7.712  29.468  14.442
76171W        W37592  28.616   8.205   1.926
76172W        W37593   0.836  16.284   1.851
76173W        W37594  30.455  43.376  14.823
76174W        W37595  12.156  16.144   1.298
76175W        W37596   2.726   4.296  13.000
76176W        W37597  32.470  10.212   3.153
76177W        W37598   5.363  22.540   4.316
76178W        W37599  11.752  11.720  11.473
76179W        W37600  15.231   5.342   2.745
76180W        W37601   2.892   8.256  12.083
76181W        W37602  37.528  25.051   4.250
76182W        W37603   3.313  33.573   0.889
76183W        W37604   9.689  42.449  12.031
76184W        W37605  22.552  40.825   0.442
76185W        W37606  36.541  27.487  10.529
76186W        W37607  39.872  41.455   1.818
76187W        W37608  16.266  43.313  12.844
76188W        W37609  29.016  30.585   0.876
76189W        W37610  20.689  24.982   4.684
76190W        W37611  25.623   6.271   1.899
76191W        W37612  22.033  43.384  14.361
76192W        W37613  32.013  29.561   2.372
76193W        W37614  13.608   4.329  14.506
76194W        W37615  34.040  26.630  13.819
76195W        W37616  33.549   6.849   1.852
76196W        W37617  37.411   4.391   1.933
76197W        W37618  15.616  13.144  10.472
76198W        W37619  30.950  24.667   1.377
76199W        W37620   4.227  38.871   0.243
76200W        W37621  15.245  42.005  14.905
76201W        W37622   5.744  28.552   4.158
76202W        W37623   7.392  24.630   4.129
76203W        W37624  10.805  11.657   3.770
76204W        W37625   2.769  44.861  12.945
76205W        W37626   4.839  38.066   9.986
76206W        W37627  18.561  11.801  13.491
76207W        W37628  19.097  13.719   0.269
76208W        W37629  43.860  35.366  13.367
76209W        W37630  23.529   1.441   2.810
76210W        W37631  21.167   3.445   3.214
76211W        W37632  14.730  11.202   3.862
76212W        W37633  38.034  35.950   0.268
76213W        W37634  24.090   2.297  11.125
76214W        W37635  31.915   3.267   1.932
76215W        W37636  35.493  33.594  11.021
76216W        W37637   5.334  24.719  14.013
76217W        W37638   4.859  16.608  10.555
76218W        W37639   4.307  27.666  10.952
76219W        W37640  43.431  24.059  14.418
76220W        W37641  40.451  17.071   0.799
76221W        W37642  34.442  10.328  10.452
76222W        W37643  23.241  42.853   4.158
76223W        W37644  19.068  19.201  13.945
76224W        W37645  41.036  32.024  10.125
76225W        W37646  13.711  20.102   3.320
76226W        W37647  30.023  12.779  12.063
76227W        W37648  41.006  30.623   4.816
76228W        W37649  35.410  15.740  14.486
76229W        W37650  28.649  33.526   2.740
76230W        W37651  16.295  10.693  11.562
76231W        W37652  14.323  29.565   3.268
76232W        W37653  37.344   0.248   1.709
76233W        W37654   7.242  43.824  11.552
76234W        W37655  26.983  20.696   1.756
76235W        W37656  29.169   3.718   4.322
76236W        W37657  37.871  28.663   0.345
76237W        W37658  30.465  19.584   4.236
76238W        W37659   6.244  28.558   1.880
76239W        W37660  12.734  24.228   1.798
76240W        W37661   4.388  24.538   4.745
76241W        W37662  21.596  14.835   0.854
76242W        W37663  23.076  38.342  14.477
76243W        W37664   1.275  20.201   1.321
76244W        W37665  22.636  21.591   1.754
76245W        W37666  29.123  12.710   3.827
76246W        W37667  11.832  24.176   1.816
76247W        W37668   7.897   4.879   4.212
76248W        W37669  17.677  40.355  11.000
76249W        W37670  16.689  42.309  14.882
76250W        W37671  13.637  19.705  11.119
76251W        W37672  30.513  34.874  13.938
76252W        W37673  28.093  33.012  13.934
76253W        W37674  41.293  33.529  14.507
76254W        W37675  40.455  27.129   4.782
76255W        W37676   3.752  11.305  13.361
76256W        W37677   8.254  28.664  11.507
76257W        W37678  36.970   1.461   4.174
76258W        W37679   0.331   7.197   1.729
76259W        W37680  22.611  34.579  11.383
76260W        W37681   0.269  39.402  13.318
76261W        W37682  28.498  24.023   0.293
76262W        W37683  15.786   9.697   2.832
76263W        W37684   5.688  38.547   5.735
76264W        W37685  33.567   5.846  14.349
76265W        W37686  10.147  33.014   2.725
76266W        W37687  43.800  15.088   2.339
76267W        W37688  28.067  25.966   0.409
76268W        W37689   5.357  39.381   4.780
76269W        W37690  33.481  30.492   3.258
76270W        W37691   1.312  23.986   4.810
76271W        W37692  30.015  21.066  12.348
76272W        W37693  44.286  19.197   1.829
76273W        W37694  38.069   0.314  12.052
76274W        W37695  32.022  23.161  14.788
76275W        W37696  10.746  39.974   9.629
76276W        W37697  37.972  29.595  10.624
76277W        W37698   4.827  24.705  12.347
76278W        W37699  11.215  33.125  13.953
76279W        W37700  24.114  25.569  12.849
76280W        W37701  20.593  12.141   2.844
76281W        W37702  44.263   8.197   2.800
76282W        W37703  35.503   5.770   4.189
76283W        W37704  18.763   6.685   4.267
76284W        W37705   3.726  22.526  10.548
76285W        W37706  16.628  17.147  12.851
76286W        W37707  14.740  38.487   3.377
76287W        W37708   5.866  22.215   3.775
76288W        W37709  35.072   1.261   2.415
76289W        W37710  37.382   9.661   4.218
76290W        W37711  21.249   0.302   2.796
76291W        W37712  24.703   6.892  11.119
76292W        W37713  24.620  15.288  14.924
76293W        W37714   7.398  21.736   1.442
76294W        W37715  15.328  18.144  10.920
76295W        W37716  34.029  44.908  12.565
76296W        W37717  29.601  31.118  14.315
76297W        W37718  17.136  12.825   0.954
76298W        W37719  26.674  21.548   1.885
76299W        W37720  36.041  32.097  13.401
76300W        W37721  19.263  13.262  10.070
76301W        W37722  31.531  27.083  12.347
76302W        W37723  24.662  27.477  14.333
76303W        W37724  11.156  26.497   2.300
76304W        W37725  11.218   6.759   0.282
76305W        W37726   0.430   1.451   3.331
76306W        W37727  13.734   7.767   4.600
76307W        W37728  43.327  25.107   4.659
76308W        W37729  22.651  28.014  13.908
76309W        W37730  42.878  22.636   1.221
76310W        W37731  26.054  44.962   4.234
76311W        W37732  32.456  32.079  12.917
76312W        W37733  44.339  23.528   2.902
76313W        W37734   4.908  33.449  11.064
76314W        W37735  43.867  12.695  13.849
76315W        W37736  12.268  17.602  12.573
76316W        W37737  26.549  39.014   0.455
76317W        W37738  38.955  38.848  10.989
76318W        W37739  11.763   9.232  12.840
76319W        W37740  44.803  41.010   1.300
76320W        W37741  31.505  11.244   3.197
76321W        W37742  34.371  37.870  12.427
76322W        W37743  34.401  29.592  14.819
76323W        W37744  13.209  18.054  13.946
76324W        W37745   5.206   1.326  13.874
76325W        W37746  27.676  18.292  13.983
76326W        W37747  21.573  28.109  12.522
76327W        W37748   0.324  31.615  11.606
76328W        W37749  43.991  39.517   3.205
76329W        W37750  34.478  32.547  12.341
76330W        W37751   0.472   8.376  12.399
76331W        W37752   1.785   3.810  12.348
76332W        W37753  15.760  25.187   9.956
76333W        W37754  18.080  28.930  10.536
76334W        W37755   0.749   8.344  13.507
76335W        W37756  17.774  13.814  13.962
76336W        W37757  40.836  29.594  10.478
76337W        W37758  43.393  19.683  14.472
76338W        W37759  12.239  10.374  13.912
76339W        W37760  10.152   3.373  14.445
76340W        W37761   3.785  30.083   0.353
76341W        W37762  37.997  43.829   3.661
76342W        W37763  23.716  27.945   2.348
76343W        W37764  10.778  18.598  12.543
76344W        W37765  31.097  29.514  10.899
76345W        W37766  15.238  14.609  13.991
76346W        W37767   5.266  12.135   2.878
76347W        W37768  23.075  41.821   4.679
76348W        W37769   5.762   1.923  12.022
76349W        W37770   0.405  20.648   4.787
76350W        W37771  22.702  41.013   2.766
76351W        W37772  16.313  42.475  13.910
76352W        W37773  18.248  24.026   4.817
76353W        W37774  16.662   8.269  14.980
76354W        W37775  13.240   3.220  13.048
76355W        W37776  31.025  23.125   1.226
76356W        W37777   7.384  37.394   0.827
76357W        W37778  12.342  10.807  14.503
76358W        W37779  32.499  20.210   3.287
76359W        W37780   8.229  31.480   4.159
76360W        W37781  27.185  21.555  13.368
76361W        W37782  30.457  42.903   3.644
76362W        W37783  24.666  21.071  10.920
76363W        W37784  44.853  39.893   2.895
76364W        W37785  20.726  42.946   3.291
76365W        W37786   1.272  28.147  14.293
76366W        W37787  28.115   8.165  11.447
76367W        W37788  14.647  13.729   1.865
76368W        W37789  18.677   5.310  11.910
76369W        W37790  32.454  18.751   3.201
76370W        W37791  21.637  10.154  14.985
76371W        W37792   6.277  37.899   0.458
76372W        W37793  21.733  37.017  12.896
76373W        W37794  16.674  23.241   1.790
76374W        W37795   2.795   1.308   0.463
76375W        W37796  21.214  14.761   0.298
76376W        W37797  28.052   9.847   2.691
76377W        W37798  22.545  17.757  12.028
76378W        W37799  21.035  32.545  14.433
76379W        W37800  11.247  21.162  11.889
76380W        W37801  42.422  43.498  11.590
76381W        W37802   9.293  12.158   2.742
76382W        W37803  32.470  38.358  11.590
76383W        W37804  33.050  41.530   0.417
76384W        W37805  31.120  42.459  10.598
76385W        W37806  13.642  42.501   0.336
76386W        W37807  40.002  19.735  13.409
76387W        W37808  13.750  42.467  13.922
76388W        W37809   9.795  26.160   3.306
76389W        W37810  14.758  40.946  11.937
76390W        W37811   4.758   9.735   1.275
76391W        W37812  38.528  16.653   1.856
76392W        W37813  37.475  17.141   0.396
76393W        W37814  25.082  20.730  10.415
76394W        W37815  41.827  19.146   2.275
76395W        W37816  15.158  10.225   1.778
76396W        W37817  33.389  11.745   3.318
76397W        W37818  39.940  40.910   0.864
76398W        W37819  22.048  16.146  11.538
76399W        W37820  41.835  20.090   3.384
76400W        W37821  41.521   2.845  11.512
76401W        W37822  15.703  18.114  11.394
76402W        W37823  23.610  17.796  12.064
76403W        W37824  20.115  42.780  14.422
76404W        W37825   9.762   8.736  12.013
76405W        W37826   6.240  39.010   1.405
76406W        W37827   5.912  44.867  12.537
76407W        W37828   5.425  19.542   3.651
76408W        W37829  32.128  18.717   0.278
76409W        W37830  44.941  39.943   1.312
76410W        W37831   6.380  28.054   3.281
76411W        W37832  17.684  34.547   0.258
76412W        W37833  31.123   2.933  13.474
76413W        W37834  43.495   9.229  11.561
76414W        W37835   9.291  15.755  12.905
76415W        W37836   7.908   1.967   4.115
76416W        W37837  31.024  13.746   5.776
76417W        W37838  44.429  39.945   1.929
76418W        W37839   5.850  10.726   1.370
76419W        W37840  16.314  36.852   2.245
76420W        W37841   9.887   0.434   4.631
76421W        W37842  28.146  29.656   4.148
76422W        W37843  25.080  42.961   2.670
76423W        W37844   0.247   8.723   3.640
76424W        W37845  11.233  21.169  10.474
76425W        W37846  40.965  15.278  12.564
76426W        W37847  30.059  33.386   3.801
76427W        W37848  19.691  28.559   1.340
76428W        W37849  31.577  19.189  14.772
76429W        W37850  44.269  29.083   3.208
76430W        W37851  32.578  44.385   1.308
76431W        W37852   4.753  27.989   2.764
76432W        W37853  31.979   7.377   3.243
76433W        W37854  24.209  42.512  14.320
76434W        W37855  25.499  31.489  12.409
76435W        W37856   2.237   0.492   3.711
76436W        W37857  31.068  32.545  13.831
76437W        W37858  26.125   9.748  11.450
76438W        W37859  14.731  12.778   2.667
76439W        W37860  29.143  27.456  11.024
76440W        W37861  11.627  11.757  14.796
76441W        W37862  10.155  39.392  13.326
76442W        W37863  17.801  34.550   2.756
76443W        W37864  33.387  41.451  14.364
76444W        W37865  18.609  44.976  11.910
76445W        W37866  44.281  15.155   4.828
76446W        W37867  42.856  16.767  14.828
76447W        W37868  35.022   4.923  10.573
76448W        W37869  36.451  22.605   4.239
76449W        W37870   1.346  17.645  14.433
76450W        W37871   7.843   4.940  10.973
76451W        W37872   3.392  15.273  10.418
76452W        W37873  25.586  26.954   4.837
76453W        W37874   0.915  35.103   2.677
76454W        W37875  11.781  30.655   0.254
76455W        W37876   5.401  36.069  11.514
76456NA+    NA+37877  22.201  39.017  13.026
76457NA+    NA+37878  13.348  11.256   4.203
76458NA+    NA+37879  38.353  41.955  14.999
76459NA+    NA+37880  35.005  32.427  13.883
76460NA+    NA+37881  38.851  20.697   2.792
76461NA+    NA+37882  44.385   3.788   5.294
76462NA+    NA+37883  31.054   9.329  13.915
76463NA+    NA+37884  31.914   0.788  10.981
76464NA+    NA+37885  38.453  31.491   4.627
76465NA+    NA+37886  41.859   0.427   4.334
76466NA+    NA+37887  18.745  23.539  11.867
76467NA+    NA+37888  13.263  22.738  13.409
76468NA+    NA+37889  18.296  42.882  10.910
76469NA+    NA+37890  15.786  22.176  14.803
76470NA+    NA+37891  40.802   6.404   3.207
76471NA+    NA+37892   8.857  31.505  14.998
76472NA+    NA+37893  31.916  36.355   1.838
76473NA+    NA+37894   6.409  33.412   4.355
76474NA+    NA+37895  12.741  20.761  14.832
76475NA+    NA+37896  43.006  34.109   2.366
76476NA+    NA+37897  16.785   9.203   0.319
76477NA+    NA+37898   8.895   1.943  14.506
76478NA+    NA+37899   4.353  14.205   4.310
76479NA+    NA+37900  11.751  43.314   4.271
76480NA+    NA+37901  34.525  43.492   2.413
76481NA+    NA+37902  19.150  29.664   0.441
76482NA+    NA+37903  33.541  28.178   1.730
76483NA+    NA+37904  12.322  17.610  13.921
76484NA+    NA+37905  42.387  23.099   3.166
76485NA+    NA+37906  34.535  40.417   1.339
76486NA+    NA+37907  40.509  24.486  10.916
76487NA+    NA+37908  29.626   0.801  14.918
76488NA+    NA+37909  10.177  12.831   9.961
76489NA+    NA+37910  39.858   2.253  11.082
76490NA+    NA+37911  30.993   2.347  14.839
76491NA+    NA+37912  37.431  42.330   3.210
76492NA+    NA+37913   4.861   6.780   0.909
76493NA+    NA+37914  30.102  14.664  12.968
76494NA+    NA+37915  23.733  39.870  10.608
76495NA+    NA+37916  44.934  30.956   2.664
76496NA+    NA+37917  30.509  38.420   0.767
76497NA+    NA+37918  25.048  20.670   1.243
76498NA+    NA+37919  17.718  39.843   4.228
76499NA+    NA+37920  41.520  16.118  13.050
76500NA+    NA+37921  44.456  25.202   1.256
76501NA+    NA+37922  43.827  44.431  10.491
76502NA+    NA+37923  39.826  36.011  12.453
76503NA+    NA+37924   6.729  35.029   1.350
76504NA+    NA+37925   7.714  21.589  13.859
76505NA+    NA+37926  41.846  17.207   4.187
76506NA+    NA+37927  15.224   3.843   3.276
76507NA+    NA+37928  42.943  23.192  12.401
76508NA+    NA+37929  27.536  23.011  11.460
76509NA+    NA+37930   1.969   1.374   0.246
76510NA+    NA+37931  28.519  24.569  14.858
76511NA+    NA+37932  28.120  33.024  10.926
76512NA+    NA+37933  36.944   5.915   0.904
76513NA+    NA+37934  42.952   6.221   2.197
76514NA+    NA+37935  38.908   0.875   9.921
76515NA+    NA+37936  31.446  43.897  13.422
76516NA+    NA+37937  21.582  44.968   2.387
76517NA+    NA+37938  15.785  29.079   2.892
76518NA+    NA+37939  43.856  13.639  12.406
76519NA+    NA+37940  38.342  24.616   2.833
76520NA+    NA+37941  19.737  29.534  14.350
76521NA+    NA+37942  13.739   3.930  11.505
76522NA+    NA+37943  23.137  36.047  11.585
76523NA+    NA+37944  30.068  36.874  11.599
76524NA+    NA+37945  19.602  18.768   0.450
76525NA+    NA+37946   4.803  24.635  14.317
76526NA+    NA+37947  38.823   4.766  10.934
76527NA+    NA+37948  10.661  12.153  10.621
76528NA+    NA+37949   8.309   3.852  14.468
76529NA+    NA+37950  42.454  32.001  10.406
76530NA+    NA+37951  19.116  27.066  14.333
76531NA+    NA+37952  25.997  32.093   4.121
76532NA+    NA+37953  36.091  43.443   4.636
76533NA+    NA+37954   9.266   2.945   4.790
76534NA+    NA+37955  32.625  22.240  12.347
76535NA+    NA+37956  37.526   7.855  13.485
76536NA+    NA+37957  15.710  12.696   0.272
76537NA+    NA+37958  43.786  26.030   3.216
76538NA+    NA+37959  23.175  28.940   1.359
76539NA+    NA+37960  35.482  35.891  11.510
76540NA+    NA+37961   1.339   9.852   1.319
76541NA+    NA+37962  15.217  43.427  14.328
76542NA+    NA+37963  20.593  23.181   3.329
76543NA+    NA+37964  36.403  41.874   0.732
76544NA+    NA+37965  30.984  40.385  13.798
76545NA+    NA+37966  16.234  14.220   1.366
76546NA+    NA+37967  13.122  12.771  11.404
76547NA+    NA+37968  26.160  21.061   0.323
76548NA+    NA+37969  27.501   2.262  14.490
76549NA+    NA+37970  41.035   7.828   4.753
76550NA+    NA+37971  38.516  20.760  14.952
76551NA+    NA+37972  14.150  44.994   1.774
76552NA+    NA+37973  44.285  39.533   5.117
76553NA+    NA+37974   5.870   6.848  13.928
76554NA+    NA+37975  26.620   2.293  14.854
76555NA+    NA+37976  40.467  36.409   0.430
76556NA+    NA+37977  44.906  22.080  12.570
76557NA+    NA+37978  18.051  26.567   4.627
76558NA+    NA+37979  43.431  39.336  12.462
76559NA+    NA+37980  14.615   1.898   3.854
76560NA+    NA+37981  20.740  15.298  12.344
76561NA+    NA+37982  16.609  16.749   0.923
76562NA+    NA+37983  38.361  22.006   3.194
76563NA+    NA+37984  22.014  39.972  11.474
76564NA+    NA+37985  13.841  16.159  12.352
76565NA+    NA+37986  41.331   1.789  13.038
76566NA+    NA+37987  29.609  12.299  13.330
76567NA+    NA+37988  36.467  44.487   4.193
76568NA+    NA+37989  24.520   4.266   3.840
76569NA+    NA+37990  29.426  11.328  11.013
76570NA+    NA+37991  44.906  10.841   2.694
76571NA+    NA+37992  17.596   6.796  13.363
76572NA+    NA+37993  19.096  39.025   2.711
76573NA+    NA+37994  41.437   6.415  11.467
76574NA+    NA+37995   8.884  37.456  12.998
76575NA+    NA+37996   6.719  18.616   0.286
76576NA+    NA+37997  11.672  12.789   0.349
76577NA+    NA+37998  14.793  18.203  12.504
76578NA+    NA+37999  10.733   2.339  11.482
76579NA+    NA+38000  26.464  15.320   4.338
76580NA+    NA+38001  19.760  16.083   5.680
76581NA+    NA+38002  22.657  35.504   0.916
76582NA+    NA+38003  14.154  40.311  12.529
76583NA+    NA+38004  27.118  36.891  13.824
76584NA+    NA+38005  21.104  22.551   4.688
76585NA+    NA+38006  41.515  44.969   3.662
76586NA+    NA+38007   4.723  11.743  12.553
76587NA+    NA+38008  36.959  39.318   4.188
76588NA+    NA+38009  41.474   4.748  14.456
76589NA+    NA+38010  27.519   9.375   1.743
76590NA+    NA+38011  25.000  38.905  10.564
76591NA+    NA+38012  34.975  26.582  12.095
76592NA+    NA+38013  31.961  40.433   2.850
76593NA+    NA+38014  42.929  39.860   1.304
76594NA+    NA+38015  36.946   1.735   4.172
76595NA+    NA+38016   0.783  25.180   0.267
76596NA+    NA+38017  35.887  34.071   2.280
76597NA+    NA+38018   1.338  27.193   2.700
76598NA+    NA+38019  35.951  28.980   0.315
76599NA+    NA+38020  33.022   4.374  14.923
76600NA+    NA+38021  18.731   8.282   1.781
76601NA+    NA+38022  36.892  44.858  13.387
76602NA+    NA+38023  28.117   0.427   2.328
76603NA+    NA+38024  25.500  35.510   4.344
76604NA+    NA+38025  34.418  44.471  10.499
76605NA+    NA+38026  29.024  24.625   1.392
76606NA+    NA+38027  15.173  36.587   2.849
76607NA+    NA+38028  24.702  28.938   0.907
76608NA+    NA+38029  34.590  35.456  12.484
76609NA+    NA+38030   2.768  13.309  13.870
76610NA+    NA+38031  14.157  34.874   3.293
76611NA+    NA+38032  14.100   4.421   1.914
76612NA+    NA+38033  25.623   9.751  11.533
76613NA+    NA+38034   3.781  26.505   1.219
76614NA+    NA+38035   4.282   3.709   4.757
76615NA+    NA+38036  25.692  35.099  11.493
76616NA+    NA+38037   1.901   2.849   3.786
76617NA+    NA+38038  26.489   6.187   1.886
76618NA+    NA+38039  22.700  21.671   4.838
76619NA+    NA+38040  41.965  25.997   2.779
76620NA+    NA+38041   1.971  43.781   2.299
76621NA+    NA+38042   1.826  33.079   0.947
76622NA+    NA+38043  18.284  41.426   0.918
76623NA+    NA+38044  33.571   1.950   0.258
76624NA+    NA+38045  19.274  14.712  13.016
76625NA+    NA+38046  44.454  33.436  11.529
76626NA+    NA+38047  16.583  20.249   1.451
76627NA+    NA+38048  22.167  22.511  14.844
76628NA+    NA+38049  44.449   3.730   1.803
76629NA+    NA+38050  15.674  10.812   4.820
76630NA+    NA+38051  33.061  40.817  11.462
76631NA+    NA+38052  32.548   9.864  12.980
76632NA+    NA+38053  19.661  36.919   4.210
76633NA+    NA+38054  13.266  32.108   1.433
76634NA+    NA+38055  13.286  35.937  13.972
76635NA+    NA+38056  41.870  10.305  11.969
76636NA+    NA+38057  43.407  33.057   0.880
76637NA+    NA+38058   9.384  24.640   1.297
76638NA+    NA+38059   1.790   2.417  12.384
76639NA+    NA+38060  30.145   6.236  14.005
76640NA+    NA+38061  24.154  34.566  14.470
76641NA+    NA+38062  26.687   1.256   4.304
76642NA+    NA+38063  28.632  36.994  12.892
76643NA+    NA+38064  18.547  27.947   1.817
76644NA+    NA+38065   8.866  39.907   2.326
76645NA+    NA+38066   7.350  16.117   2.179
76646NA+    NA+38067  26.961  12.710   2.334
76647NA+    NA+38068  12.654  13.128  14.771
76648NA+    NA+38069   1.877  11.758  11.504
76649NA+    NA+38070  30.616  24.538  12.373
76650NA+    NA+38071  21.042  28.105  14.294
76651NA+    NA+38072   2.311  29.125   4.635
76652NA+    NA+38073   4.213  38.387   2.346
76653NA+    NA+38074   8.267  10.367  13.957
76654NA+    NA+38075   3.853  34.898   2.770
76655NA+    NA+38076  30.604  42.968   2.184
76656NA+    NA+38077   5.213   6.781  12.945
76657NA+    NA+38078  25.997  40.848   3.227
76658NA+    NA+38079  33.111  25.187  14.003
76659NA+    NA+38080  33.029  17.616   4.699
76660NA+    NA+38081  11.140  10.713   0.391
76661NA+    NA+38082   7.700   1.250   1.441
76662NA+    NA+38083  14.681  10.198   4.158
76663NA+    NA+38084  22.104  19.709   2.818
76664NA+    NA+38085  29.970  25.567  12.917
76665NA+    NA+38086   0.352  35.436  12.437
76666NA+    NA+38087   5.263  29.572   3.775
76667NA+    NA+38088  30.909  16.113  13.533
76668NA+    NA+38089  40.476  14.708   2.192
76669NA+    NA+38090  34.425  14.254   4.197
76670NA+    NA+38091  37.346  26.157  13.331
76671NA+    NA+38092  31.439   7.279   4.748
76672NA+    NA+38093  22.586   4.937  13.836
76673NA+    NA+38094  44.857  34.999  14.922
76674NA+    NA+38095  21.666  34.409   3.816
76675NA+    NA+38096  39.959  25.055  11.485
76676NA+    NA+38097  23.177  31.082   4.666
76677NA+    NA+38098  28.534  14.164   3.659
76678NA+    NA+38099   3.318  18.264  14.930
76679NA+    NA+38100  32.981   7.312   0.889
76680NA+    NA+38101  19.571  29.012  10.979
76681NA+    NA+38102  43.903   9.375  13.006
76682NA+    NA+38103  29.588  42.813  11.869
76683NA+    NA+38104   5.315  10.872   4.655
76684NA+    NA+38105   7.693  23.052  12.374
76685NA+    NA+38106  40.813  38.525   3.372
76686NA+    NA+38107  44.785  42.413  13.379
76687NA+    NA+38108  30.643  30.575  10.492
76688NA+    NA+38109  32.042   4.320  13.855
76689NA+    NA+38110   5.790  34.516   2.198
76690NA+    NA+38111  25.087  23.730  11.550
76691NA+    NA+38112  38.336   5.817  14.378
76692NA+    NA+38113  43.912  23.029  12.502
76693NA+    NA+38114   3.809  34.398   2.210
76694NA+    NA+38115  14.672   3.280   4.259
76695NA+    NA+38116  44.491  21.587  14.998
76696NA+    NA+38117   4.801  25.527  12.011
76697NA+    NA+38118  15.165  32.041  13.410
76698NA+    NA+38119  12.341  32.488   0.966
76699NA+    NA+38120   7.223  33.437  10.963
76700NA+    NA+38121  23.000  32.978   0.892
76701NA+    NA+38122   7.354   0.893  14.368
76702NA+    NA+38123  39.902  29.455   4.127
76703NA+    NA+38124  12.621  22.555  11.048
76704NA+    NA+38125  26.670  30.623  14.420
76705NA+    NA+38126  32.130  34.993  11.376
76706NA+    NA+38127   7.417  40.451   4.643
76707NA+    NA+38128  42.459  43.007   4.741
76708NA+    NA+38129  16.192  18.620  13.903
76709NA+    NA+38130  35.968  33.084   4.117
76710NA+    NA+38131   4.292  13.235   3.773
76711NA+    NA+38132  20.684  42.303  11.485
76712NA+    NA+38133  14.238  35.037   1.743
76713NA+    NA+38134  20.173  41.959  11.943
76714NA+    NA+38135   0.327  34.549  11.075
76715NA+    NA+38136  19.661  32.097   4.226
76716NA+    NA+38137   5.726   9.663  11.501
76717NA+    NA+38138  14.109   9.233  11.459
76718NA+    NA+38139  42.404   5.781   4.802
76719NA+    NA+38140   9.700  44.799   1.840
76720NA+    NA+38141  43.849   7.404   1.696
76721NA+    NA+38142  41.975  14.152  14.849
76722NA+    NA+38143  14.819  14.167  11.589
76723NA+    NA+38144   5.881  10.252  11.586
76724NA+    NA+38145   7.399  36.539   4.125
76725NA+    NA+38146   8.280   5.358  13.511
76726NA+    NA+38147  35.594  31.528   0.732
76727NA+    NA+38148  11.716  13.645  14.386
76728NA+    NA+38149  20.708  27.666   1.413
76729NA+    NA+38150   7.221  26.128   2.687
76730NA+    NA+38151  44.001  21.178  14.783
76731NA+    NA+38152  34.468  32.414  11.974
76732NA+    NA+38153  13.632  24.644  12.387
76733NA+    NA+38154  18.665  22.089  11.456
76734NA+    NA+38155  29.021   7.352  13.419
76735NA+    NA+38156  16.589  21.696  12.529
76736NA+    NA+38157  44.827   4.793  13.395
76737NA+    NA+38158  40.531  23.045  14.277
76738NA+    NA+38159  15.710  15.120   0.364
76739NA+    NA+38160  41.424  22.715  12.050
76740NA+    NA+38161  15.713  15.174  12.351
76741NA+    NA+38162  23.582  40.864   3.175
76742NA+    NA+38163  13.617  14.143  11.501
76743NA+    NA+38164  36.579  25.997   3.368
76744NA+    NA+38165  10.325  13.223  12.414
76745NA+    NA+38166  34.528   0.347   1.215
76746NA+    NA+38167  23.541  30.505   0.256
76747NA+    NA+38168   5.726  18.628   3.772
76748NA+    NA+38169  43.973  15.167  11.434
76749NA+    NA+38170  15.603  35.061  14.293
76750NA+    NA+38171  33.600  28.072  14.441
76751NA+    NA+38172   8.201  26.099   1.372
76752NA+    NA+38173  22.070   8.164  12.949
76753NA+    NA+38174  30.512  13.292   2.689
76754NA+    NA+38175  22.239   6.334   0.297
76755NA+    NA+38176   7.307  31.985   0.953
76756NA+    NA+38177  35.518  30.435   3.238
76757NA+    NA+38178  21.595  35.482   1.302
76758NA+    NA+38179  14.598  41.902  11.100
76759NA+    NA+38180  37.340  23.073  11.583
76760NA+    NA+38181  12.651  20.613  12.430
76761NA+    NA+38182  40.481  24.509   0.875
76762NA+    NA+38183  29.060  28.496   2.247
76763NA+    NA+38184   2.748  23.230  13.308
76764NA+    NA+38185  32.540  20.148  12.380
76765NA+    NA+38186  18.183  39.938   1.830
76766NA+    NA+38187  29.994   6.207   3.798
76767NA+    NA+38188  36.859  41.323  12.974
76768NA+    NA+38189  36.537  10.173   0.443
76769NA+    NA+38190  18.740  41.517  14.414
76770NA+    NA+38191   3.773   8.306   3.853
76771NA+    NA+38192  35.428  42.493  11.869
76772NA+    NA+38193  42.949  18.286   2.190
76773NA+    NA+38194   4.441  29.101   1.332
76774NA+    NA+38195   6.781   1.858   3.305
76775NA+    NA+38196   1.956  36.556  13.948
76776NA+    NA+38197   5.236  27.192  14.483
76777NA+    NA+38198  37.961  41.320  10.479
76778NA+    NA+38199  19.671  44.381   3.678
76779NA+    NA+38200  37.058   3.362  13.547
76780NA+    NA+38201  14.635  19.146   4.661
76781NA+    NA+38202  13.126   2.387  11.925
76782NA+    NA+38203   1.806  42.874   3.721
76783NA+    NA+38204  25.015  24.607  13.380
76784NA+    NA+38205  13.301  11.145  12.439
76785NA+    NA+38206  10.320  26.698   5.179
76786NA+    NA+38207  42.943  28.025  11.044
76787NA+    NA+38208  23.670  26.079   4.835
76788NA+    NA+38209  14.316  32.134   1.798
76789NA+    NA+38210  34.582   5.930   1.830
76790NA+    NA+38211  42.025  23.205  11.521
76791NA+    NA+38212  10.777  13.684   3.868
76792NA+    NA+38213   2.312   4.387   0.286
76793NA+    NA+38214   4.830  31.015   0.320
76794NA+    NA+38215   9.665  31.033  13.872
76795NA+    NA+38216  22.099   5.819  13.424
76796NA+    NA+38217  42.011   7.348   3.252
76797NA+    NA+38218  10.160  13.727   3.303
76798NA+    NA+38219   9.731  33.041  14.318
76799NA+    NA+38220  29.541  34.879   4.343
76800NA+    NA+38221  26.150  18.132   0.481
76801NA+    NA+38222  32.138  14.630   1.388
76802NA+    NA+38223   8.699   4.835  10.421
76803NA+    NA+38224  26.191  26.512  14.015
76804NA+    NA+38225  21.696  30.039  12.841
76805NA+    NA+38226   5.259  22.590   3.869
76806NA+    NA+38227  32.891  18.162  14.274
76807NA+    NA+38228  31.462  39.539   4.331
76808NA+    NA+38229  38.435  41.473  14.802
76809NA+    NA+38230  34.052  14.675   4.222
76810NA+    NA+38231  20.047  16.259  11.419
76811NA+    NA+38232  14.769  41.945   3.324
76812NA+    NA+38233  31.622  29.126  12.891
76813NA+    NA+38234  17.642  10.195   0.727
76814NA+    NA+38235  17.163  43.903   1.339
76815NA+    NA+38236  38.468  40.505   1.342
76816NA+    NA+38237  17.210   9.291  12.925
76817NA+    NA+38238  20.063  44.446  12.014
76818NA+    NA+38239  33.894   5.770   2.192
76819NA+    NA+38240  20.601  22.594  14.293
76820NA+    NA+38241  38.461  42.489  10.449
76821NA+    NA+38242  16.293  23.216   3.212
76822NA+    NA+38243   8.336  16.637  14.375
76823NA+    NA+38244  18.177  21.123   1.848
76824NA+    NA+38245  20.183   5.281   1.242
76825NA+    NA+38246   1.281  43.277   0.455
76826NA+    NA+38247   6.318  34.943  12.457
76827NA+    NA+38248   4.811   3.797   5.321
76828NA+    NA+38249   6.679   2.878  13.442
76829NA+    NA+38250  35.577  18.086  12.978
76830NA+    NA+38251  20.183  40.395  11.950
76831NA+    NA+38252   3.257  22.670   1.710
76832NA+    NA+38253  23.581  18.571  11.462
76833NA+    NA+38254  28.527  16.085  11.930
76834NA+    NA+38255  36.581  36.093  10.407
76835NA+    NA+38256  28.659  19.102  14.451
76836NA+    NA+38257   6.208  21.648  10.406
76837NA+    NA+38258   5.917  13.680  12.054
76838NA+    NA+38259  31.032   8.355  10.986
76839NA+    NA+38260  15.297  17.275  14.378
76840NA+    NA+38261  15.604   0.395   0.460
76841NA+    NA+38262  17.670  34.882  13.845
76842NA+    NA+38263   1.394  43.833   1.215
76843NA+    NA+38264  14.315  44.963   3.179
76844NA+    NA+38265   6.832  43.379  11.911
76845NA+    NA+38266  34.604   8.379  12.058
76846NA+    NA+38267  11.639  30.590   5.205
76847NA+    NA+38268  22.191  26.642   3.774
76848NA+    NA+38269   0.314  21.128  10.563
76849NA+    NA+38270  35.392   0.869  11.570
76850NA+    NA+38271  39.360  32.972   4.136
76851NA+    NA+38272   1.239  14.637   4.172
76852NA+    NA+38273  31.094   0.444   4.345
76853NA+    NA+38274  26.579  33.050  10.450
76854NA+    NA+38275  20.247  37.542   4.248
76855NA+    NA+38276  20.223  33.437   3.178
76856NA+    NA+38277  22.646  12.304  10.924
76857NA+    NA+38278  30.082  24.018   3.194
76858NA+    NA+38279  40.377  23.190  14.937
76859NA+    NA+38280  18.235  42.386   4.807
76860NA+    NA+38281  14.257  12.634  11.017
76861NA+    NA+38282  21.173   7.391   3.637
76862NA+    NA+38283  31.911   6.250   3.382
76863NA+    NA+38284  19.592  32.944   2.780
76864NA+    NA+38285   3.928  29.081  10.449
76865NA+    NA+38286  10.767  23.646  14.971
76866NA+    NA+38287  23.642  32.920  12.510
76867NA+    NA+38288  16.647  24.157   3.805
76868NA+    NA+38289  22.222  22.076  11.037
76869NA+    NA+38290   2.353  42.294   1.420
76870NA+    NA+38291  39.062  32.490  11.468
76871NA+    NA+38292   5.870   3.402   0.418
76872NA+    NA+38293  28.051  44.300   0.430
76873NA+    NA+38294  15.725  14.604  12.422
76874NA+    NA+38295  26.480  38.848   0.935
76875NA+    NA+38296  32.425  15.718  11.044
76876NA+    NA+38297  26.062  30.008   3.262
76877NA+    NA+38298  30.451  21.161   0.866
76878NA+    NA+38299  42.520  10.247   9.983
76879NA+    NA+38300  39.869   7.692   4.626
76880NA+    NA+38301   4.393   8.896  13.034
76881NA+    NA+38302  39.448  42.471   1.807
76882NA+    NA+38303  11.236  23.108  12.400
76883NA+    NA+38304  40.818   0.288  10.919
76884NA+    NA+38305  12.134  22.524   0.913
76885NA+    NA+38306  28.031  22.240   3.372
76886NA+    NA+38307   3.338  43.273  11.068
76887NA+    NA+38308  35.470  35.405   4.163
76888NA+    NA+38309  16.701  10.170   0.402
76889NA+    NA+38310  34.999  22.668   3.382
76890NA+    NA+38311  29.969   4.305  12.003
76891NA+    NA+38312   4.912   8.184  13.060
76892NA+    NA+38313  33.452  41.976  11.374
76893NA+    NA+38314  10.219   1.409  14.783
76894NA+    NA+38315  28.949  17.306  12.346
76895NA+    NA+38316  19.106  15.806   2.800
76896NA+    NA+38317  13.219  32.078  13.369
76897NA+    NA+38318  42.889  24.058  14.316
76898NA+    NA+38319  15.680  25.127  14.022
76899NA+    NA+38320   5.726  32.497  13.452
76900NA+    NA+38321  15.678  31.928  13.003
76901NA+    NA+38322  19.704  14.777  10.046
76902NA+    NA+38323  16.731  15.097  14.421
76903NA+    NA+38324  28.664  26.067  13.791
76904NA+    NA+38325  38.031  21.045   3.789
76905NA+    NA+38326  28.124  15.738  10.471
76906NA+    NA+38327  20.734  16.183  14.438
76907NA+    NA+38328  27.615   9.657   2.760
76908NA+    NA+38329   4.908  43.961   2.766
76909NA+    NA+38330  43.510  16.091   0.829
76910NA+    NA+38331  20.763   0.815  13.400
76911NA+    NA+38332  11.796  33.978  11.541
76912NA+    NA+38333  37.428  32.026   1.879
76913NA+    NA+38334   9.741  41.932  12.382
76914NA+    NA+38335  15.661  25.160  12.085
76915NA+    NA+38336  10.159  20.250   4.260
76916NA+    NA+38337   4.224  28.635  10.559
76917NA+    NA+38338  31.635  16.300  10.515
76918NA+    NA+38339   6.802  31.016   1.720
76919NA+    NA+38340  30.630  20.141  12.535
76920NA+    NA+38341  32.406  16.735  11.422
76921NA+    NA+38342  30.980  25.662  13.846
76922NA+    NA+38343  29.167   9.187  11.547
76923NA+    NA+38344  17.790  43.984   2.741
76924NA+    NA+38345  35.105  18.120  11.490
76925NA+    NA+38346   8.865  37.916   3.659
76926NA+    NA+38347  10.738  25.708  12.947
76927NA+    NA+38348  10.194  31.903  11.917
76928NA+    NA+38349  36.944   1.243   1.276
76929NA+    NA+38350  37.524  11.659   2.295
76930NA+    NA+38351  34.609  27.500   1.885
76931NA+    NA+38352  20.034   0.392   1.847
76932NA+    NA+38353   3.776  10.329   0.797
76933NA+    NA+38354  39.541  42.330  14.962
76934NA+    NA+38355  24.694   0.892   4.793
76935NA+    NA+38356  10.685  37.992   2.762
76936NA+    NA+38357  32.088  26.198   3.633
76937NA+    NA+38358  42.931  42.388  13.424
76938NA+    NA+38359   6.813  42.859  10.618
76939NA+    NA+38360   1.433   6.894  11.857
76940NA+    NA+38361  28.553  18.676  11.013
76941NA+    NA+38362  27.102  13.668  14.511
76942NA+    NA+38363  37.441  10.248  13.023
76943NA+    NA+38364  36.971  17.141  11.458
76944NA+    NA+38365  19.753  32.015  11.554
76945NA+    NA+38366  27.009  40.044  11.479
76946NA+    NA+38367  20.124  11.807   1.393
76947NA+    NA+38368  13.290   5.409  14.363
76948NA+    NA+38369   3.317  16.671   4.340
76949NA+    NA+38370   2.779  41.962   3.654
76950NA+    NA+38371  25.499   3.762  12.996
76951NA+    NA+38372  26.675  16.109  11.118
76952NA+    NA+38373  32.072  42.903   0.268
76953NA+    NA+38374  23.095  21.632  10.564
76954NA+    NA+38375  40.486  32.576   2.383
76955NA+    NA+38376  41.911  19.089   2.662
76956NA+    NA+38377  12.162   5.253   4.805
76957NA+    NA+38378   4.434  32.904   3.207
76958NA+    NA+38379  37.347  23.014  11.867
76959NA+    NA+38380   5.735  33.880   1.783
76960NA+    NA+38381   0.765  17.624  11.504
76961NA+    NA+38382  25.071  25.540   0.365
76962NA+    NA+38383  13.237  19.213  13.916
76963NA+    NA+38384   2.263   7.323  10.530
76964NA+    NA+38385  23.702  11.153   3.737
76965NA+    NA+38386  19.197  25.046   4.211
76966NA+    NA+38387  41.880  29.113   5.313
76967NA+    NA+38388  35.572  42.955   9.986
76968NA+    NA+38389  37.458  27.480   1.250
76969NA+    NA+38390  15.803  41.943  12.969
76970NA+    NA+38391  11.343  19.632  10.536
76971NA+    NA+38392  30.517  32.136  13.047
76972NA+    NA+38393  35.981  32.561  11.025
76973NA+    NA+38394   1.820  31.037  14.426
76974NA+    NA+38395  44.798  16.571  10.594
76975NA+    NA+38396  33.974  37.084   4.628
76976NA+    NA+38397   9.763  34.539  12.545
76977NA+    NA+38398  35.882  13.711   3.769
76978NA+    NA+38399  18.068  31.931  14.277
76979NA+    NA+38400   9.151  22.081   3.179
76980NA+    NA+38401  10.349  36.446   0.452
76981NA+    NA+38402  14.180  37.880   4.316
76982NA+    NA+38403  39.392   8.206   4.245
76983NA+    NA+38404  13.158   4.911  14.930
76984NA+    NA+38405   7.307  44.407  13.318
76985NA+    NA+38406  43.403  22.054  11.447
76986NA+    NA+38407  10.270  20.092   1.409
76987NA+    NA+38408  33.954  29.155   1.735
76988NA+    NA+38409  24.513  29.126  10.506
76989NA+    NA+38410  25.015  35.890  12.824
76990NA+    NA+38411  30.054  18.751  14.450
76991NA+    NA+38412  11.779  12.857  13.980
76992NA+    NA+38413  44.781   5.311   2.668
76993NA+    NA+38414   7.186  29.494  14.828
76994NA+    NA+38415   8.710  12.754  10.968
76995NA+    NA+38416   7.790  11.226  13.501
76996NA+    NA+38417  33.447  43.976  13.821
76997NA+    NA+38418  22.646  10.188   1.244
76998NA+    NA+38419  16.232  42.312  12.504
76999NA+    NA+38420  15.306   1.368  14.506
77000NA+    NA+38421   7.413  34.424  14.918
77001NA+    NA+38422  30.599  20.176   1.901
77002NA+    NA+38423  20.673  29.545  10.644
77003NA+    NA+38424  39.474   4.368  11.036
77004NA+    NA+38425  12.781  11.702   3.297
77005NA+    NA+38426  37.831  44.482  12.580
77006NA+    NA+38427  42.343   8.734   3.354
77007NA+    NA+38428  12.699   1.856   0.750
77008NA+    NA+38429  30.954   8.282  14.884
77009NA+    NA+38430  38.442  12.285  14.780
77010NA+    NA+38431   1.296  29.994  13.533
77011NA+    NA+38432  43.357  29.040   2.858
77012NA+    NA+38433  13.295  43.867  10.468
77013NA+    NA+38434  33.490  37.970   0.889
77014NA+    NA+38435  30.125  21.741   4.828
77015NA+    NA+38436  44.830   6.414   2.364
77016NA+    NA+38437  33.076   0.980   1.810
77017NA+    NA+38438  24.494  10.218   0.348
77018NA+    NA+38439  41.010  24.688  13.940
77019NA+    NA+38440  29.607  15.613  11.069
77020NA+    NA+38441  13.814  38.834  12.351
77021NA+    NA+38442  21.574   8.358   3.306
77022NA+    NA+38443  22.525   7.318   1.311
77023NA+    NA+38444  11.245  22.719  14.971
77024NA+    NA+38445  26.535  31.463  14.766
77025NA+    NA+38446  27.005  16.141  13.545
77026NA+    NA+38447  30.431   8.810  11.459
77027NA+    NA+38448  12.730  21.575   3.787
77028NA+    NA+38449  17.069  17.585  12.574
77029NA+    NA+38450  43.768   7.871  14.332
77030NA+    NA+38451  16.811  19.115  12.038
77031NA+    NA+38452  32.995  25.169  12.913
77032NA+    NA+38453  10.197  11.864  11.963
77033NA+    NA+38454   6.761   5.905   0.765
77034NA+    NA+38455  18.187   3.794  10.505
77035NA+    NA+38456  31.121   7.819   2.331
77036NA+    NA+38457   4.210  25.983   0.322
77037NA+    NA+38458   7.303  16.669   0.821
77038NA+    NA+38459  25.066  34.483  14.856
77039NA+    NA+38460  44.897  14.820  10.936
77040NA+    NA+38461  24.228  34.910   4.290
77041NA+    NA+38462   0.749  19.179   1.261
77042NA+    NA+38463  30.122  15.159   1.916
77043NA+    NA+38464  43.514  28.001  10.057
77044NA+    NA+38465  14.119  25.972   4.337
77045NA+    NA+38466  30.086   6.787   3.327
77046NA+    NA+38467  24.165  23.999  12.971
77047NA+    NA+38468  39.388  38.570   3.244
77048NA+    NA+38469  35.538  21.152  11.009
77049NA+    NA+38470  12.339   7.670  13.944
77050NA+    NA+38471  11.688   4.858  12.370
77051NA+    NA+38472   3.840  41.971   3.208
77052NA+    NA+38473  40.388  17.188   2.215
77053NA+    NA+38474  36.362  23.620   4.836
77054NA+    NA+38475  39.527  16.219  14.488
77055NA+    NA+38476   4.732  13.146  14.479
77056NA+    NA+38477  10.281  43.001   5.112
77057NA+    NA+38478  25.669  37.863  11.999
77058NA+    NA+38479  35.375  34.546   4.634
77059NA+    NA+38480  20.642  33.549  13.878
77060NA+    NA+38481  30.045   1.762  14.893
77061NA+    NA+38482   6.351  26.511  12.446
77062NA+    NA+38483  31.496  39.049  13.983
77063NA+    NA+38484  10.383  36.936  14.282
77064NA+    NA+38485  28.182  17.635   0.334
77065NA+    NA+38486   4.884  20.739   1.258
77066NA+    NA+38487  23.693  40.955  14.903
77067NA+    NA+38488  21.531  17.726   0.789
77068NA+    NA+38489  35.919  23.077   0.728
77069NA+    NA+38490  25.089  39.975  10.986
77070NA+    NA+38491  35.936  25.077  13.845
77071NA+    NA+38492  16.666  12.780   2.222
77072NA+    NA+38493  35.996  28.065  11.515
77073NA+    NA+38494  12.765  35.442   2.236
77074NA+    NA+38495  42.428  33.522  11.596
77075NA+    NA+38496  20.583   3.349   4.723
77076NA+    NA+38497  23.596   9.681  13.539
77077NA+    NA+38498   1.403  36.905  12.496
77078NA+    NA+38499  32.627  18.735   0.267
77079NA+    NA+38500  39.316  14.151  12.436
77080NA+    NA+38501   4.351  17.292   4.216
77081NA+    NA+38502  12.693   1.931  14.848
77082NA+    NA+38503  32.907  15.129   1.250
77083NA+    NA+38504   7.825  36.540   2.392
77084NA+    NA+38505  44.933  41.798   2.697
77085NA+    NA+38506  16.622   5.249  13.356
77086NA+    NA+38507   6.844  44.890   0.310
77087NA+    NA+38508   1.285  25.584   4.807
77088NA+    NA+38509  28.019  11.342  11.038
77089NA+    NA+38510  18.063  11.718   2.679
77090NA+    NA+38511  37.472  37.855  14.301
77091NA+    NA+38512  20.168   8.900   2.737
77092NA+    NA+38513  31.029  18.775   3.192
77093NA+    NA+38514  14.610  15.228   0.744
77094NA+    NA+38515   7.308  22.022  10.612
77095NA+    NA+38516  19.185  15.662   0.282
77096NA+    NA+38517   4.902  11.821   5.308
77097NA+    NA+38518  33.964  31.076  11.372
77098NA+    NA+38519  43.387   6.920  14.449
77099NA+    NA+38520  42.775   8.173  14.940
77100NA+    NA+38521  35.495  10.847   4.827
77101NA+    NA+38522   3.329   4.304   4.712
77102NA+    NA+38523  20.666  41.937  14.332
77103NA+    NA+38524  34.117  11.813  12.534
77104NA+    NA+38525  13.711  37.930  14.357
77105NA+    NA+38526  36.525  33.888  10.632
77106NA+    NA+38527  16.740  35.108   3.817
77107NA+    NA+38528  35.513  29.665  13.512
77108NA+    NA+38529  37.009   0.879   1.345
77109NA+    NA+38530  11.171   9.766   1.734
77110NA+    NA+38531  44.861  35.473   1.847
77111NA+    NA+38532  32.938  26.076  11.024
77112NA+    NA+38533  44.274  10.337   1.211
77113NA+    NA+38534  31.962  40.917  11.542
77114NA+    NA+38535  40.355  20.760  10.553
77115NA+    NA+38536  20.237  19.542   4.662
77116NA+    NA+38537   8.199  10.651  13.421
77117NA+    NA+38538  36.873  10.711  12.387
77118NA+    NA+38539  27.059  41.383   2.828
77119NA+    NA+38540  13.768  38.444  11.528
77120NA+    NA+38541  25.638  34.598  10.917
77121NA+    NA+38542  10.339  27.480   2.673
77122NA+    NA+38543  41.314   3.290   3.202
77123NA+    NA+38544  26.626   0.493   3.377
77124NA+    NA+38545  21.672  15.324  11.588
77125NA+    NA+38546  17.217   8.222  12.579
77126NA+    NA+38547  31.134  36.850   4.807
77127NA+    NA+38548   8.866  18.748   2.318
77128NA+    NA+38549   4.276  21.726   2.259
77129NA+    NA+38550  39.363  25.563   2.195
77130NA+    NA+38551  17.149  13.201  13.015
77131NA+    NA+38552   7.777   9.373   3.688
77132NA+    NA+38553  28.467  17.162   0.775
77133NA+    NA+38554  21.710  13.290   1.326
77134NA+    NA+38555  32.416  43.008   9.953
77135NA+    NA+38556   0.914  37.888  13.465
77136NA+    NA+38557  44.985  40.859   3.678
77137NA+    NA+38558  38.036  22.668  14.973
77138NA+    NA+38559  14.263  13.315  11.039
77139NA+    NA+38560  31.641  14.154   5.638
77140NA+    NA+38561  25.985  18.724  11.982
77141NA+    NA+38562  21.258  23.630  13.986
77142NA+    NA+38563   9.184  22.681   4.260
77143NA+    NA+38564  33.611  34.430  12.439
77144NA+    NA+38565  26.499  21.679   4.305
77145NA+    NA+38566  44.411  43.868   1.870
77146NA+    NA+38567   4.866   7.756   4.215
77147NA+    NA+38568  44.798  15.134   2.872
77148NA+    NA+38569  39.418  25.519  11.466
77149NA+    NA+38570   5.369  16.216  11.994
77150NA+    NA+38571  12.743  16.787   0.759
77151NA+    NA+38572  28.437  35.363  14.509
77152NA+    NA+38573  28.638  18.584  10.625
77153NA+    NA+38574  13.687   1.444   4.272
77154NA+    NA+38575  19.716  38.467  11.375
77155NA+    NA+38576  22.174   2.248   1.764
77156NA+    NA+38577  20.043  23.185   2.241
77157NA+    NA+38578  35.054   3.758   0.854
77158NA+    NA+38579  27.504  38.912  12.362
77159NA+    NA+38580  30.438  23.010  10.506
77160NA+    NA+38581  44.411   1.734  10.528
77161NA+    NA+38582  27.566   9.359  14.349
77162NA+    NA+38583  38.871  17.685  14.998
77163NA+    NA+38584   0.396   3.790   5.179
77164NA+    NA+38585  11.676  14.754   3.231
77165NA+    NA+38586  29.584  13.725  11.880
77166NA+    NA+38587  44.954  15.229  10.592
77167NA+    NA+38588  13.639  28.019  12.559
77168NA+    NA+38589  33.899  23.527   2.329
77169NA+    NA+38590   5.346  19.235  12.982
77170NA+    NA+38591   7.883  15.095   1.368
77171NA+    NA+38592  34.443  34.965   0.827
77172NA+    NA+38593   4.444  41.466   0.321
77173NA+    NA+38594  29.949  23.004   0.886
77174NA+    NA+38595  35.044  31.619   0.447
77175NA+    NA+38596  29.435  34.402   2.214
77176NA+    NA+38597  17.171   5.823  14.891
77177NA+    NA+38598  39.841  24.172   3.361
77178NA+    NA+38599   1.304  27.523   4.628
77179NA+    NA+38600  34.391  30.148   4.832
77180NA+    NA+38601   5.421  15.701   3.826
77181NA+    NA+38602  21.710  18.097   4.766
77182NA+    NA+38603  15.281  39.882   0.904
77183NA+    NA+38604  40.848  33.569  10.411
77184NA+    NA+38605  35.433  11.824   1.921
77185NA+    NA+38606   8.180  21.048   2.768
77186NA+    NA+38607  35.429  36.565  12.012
77187NA+    NA+38608  11.634  19.631  10.905
77188NA+    NA+38609   8.814  15.744   2.270
77189NA+    NA+38610  27.134  43.371   1.276
77190NA+    NA+38611  31.644  35.080   1.403
77191NA+    NA+38612  44.277  26.974  13.034
77192NA+    NA+38613  29.011  24.210  12.945
77193NA+    NA+38614  37.468  10.632   4.131
77194NA+    NA+38615  10.668   3.219  11.376
77195NA+    NA+38616  16.286  11.144   0.784
77196NA+    NA+38617  33.903  24.571  13.485
77197NA+    NA+38618  20.030  37.453  13.797
77198NA+    NA+38619  12.163  32.128  12.521
77199NA+    NA+38620  35.956  21.754   3.775
77200NA+    NA+38621  21.210  28.990   9.976
77201NA+    NA+38622  25.506   9.662  10.946
77202NA+    NA+38623  11.857   8.303   3.365
77203NA+    NA+38624  40.991  22.060   4.662
77204NA+    NA+38625  26.466  19.767   2.245
77205NA+    NA+38626   7.183   5.335  10.473
77206NA+    NA+38627  21.041  35.983   3.210
77207NA+    NA+38628  41.937   0.768  11.031
77208NA+    NA+38629  37.485  31.584  10.959
77209NA+    NA+38630  15.178  13.318   3.311
77210NA+    NA+38631  19.709  22.568   1.718
77211NA+    NA+38632  35.532  32.607  12.401
77212NA+    NA+38633   7.201  15.204  14.486
77213NA+    NA+38634  20.073  26.670   4.773
77214NA+    NA+38635   6.686  19.581  13.959
77215NA+    NA+38636  38.536  33.566  12.551
77216NA+    NA+38637  16.744  20.685  13.931
77217NA+    NA+38638  29.116  21.229  10.949
77218NA+    NA+38639  33.424   5.859  10.071
77219NA+    NA+38640  39.044   3.257   2.873
77220NA+    NA+38641  15.710  41.830   1.335
77221NA+    NA+38642  15.821  18.231   0.255
77222NA+    NA+38643   0.980   9.736   2.861
77223NA+    NA+38644  24.526  30.456  11.564
77224NA+    NA+38645  23.683  41.339   4.251
77225NA+    NA+38646  32.019  16.195   4.172
77226NA+    NA+38647  15.311   2.457   2.192
77227NA+    NA+38648  24.663  31.066   3.161
77228NA+    NA+38649  19.657  36.051  10.929
77229NA+    NA+38650  22.601   8.249   4.232
77230NA+    NA+38651   6.838  23.211   2.891
77231NA+    NA+38652  41.973   1.246   3.188
77232NA+    NA+38653  35.078   3.388  11.511
77233NA+    NA+38654  22.133   7.237  11.985
77234NA+    NA+38655  25.592   7.860  12.506
77235NA+    NA+38656  16.209  32.444   0.813
77236NA+    NA+38657   2.261  39.368  14.384
77237NA+    NA+38658  32.092   8.357  12.981
77238NA+    NA+38659   7.178  37.070   4.625
77239NA+    NA+38660  23.181  20.179   0.244
77240NA+    NA+38661  25.553  31.113  10.914
77241NA+    NA+38662  16.098  36.584   1.416
77242NA+    NA+38663   3.398  31.473   1.768
77243NA+    NA+38664  43.840  40.809   3.270
77244NA+    NA+38665  17.598   7.255  11.385
77245NA+    NA+38666   8.198  33.069   4.776
77246NA+    NA+38667  33.577  10.317   3.689
77247NA+    NA+38668  21.649  22.705   2.345
77248NA+    NA+38669   9.724  36.983  12.510
77249NA+    NA+38670  10.224  28.000  12.083
77250NA+    NA+38671  17.649  31.066   3.260
77251NA+    NA+38672  20.141  34.939   2.192
77252NA+    NA+38673  37.381  32.459   4.116
77253NA+    NA+38674  37.454   5.230  12.028
77254NA+    NA+38675   0.398  43.402   1.797
77255NA+    NA+38676  34.588  25.142  14.310
77256NA+    NA+38677  18.771  26.653   1.912
77257NA+    NA+38678  23.169  12.174  11.117
77258NA+    NA+38679  37.974   4.742  13.405
77259NA+    NA+38680   3.833  30.597   4.811
77260NA+    NA+38681  31.541   7.812   0.950
77261NA+    NA+38682  30.088  31.967  14.823
77262NA+    NA+38683   6.762  15.650   4.225
77263NA+    NA+38684  18.562  26.672  13.385
77264NA+    NA+38685  27.139  14.208  13.953
77265NA+    NA+38686  15.220   5.357   1.386
77266NA+    NA+38687  25.089  37.479   2.671
77267NA+    NA+38688   6.804   0.792  13.364
77268NA+    NA+38689  35.906  31.459   4.265
77269NA+    NA+38690   6.200  30.071  14.924
77270NA+    NA+38691  20.587  38.334   1.342
77271NA+    NA+38692  44.779   3.841  10.429
77272NA+    NA+38693  38.569  39.510  11.077
77273NA+    NA+38694   5.436   4.330   0.894
77274NA+    NA+38695   4.314  29.048   3.694
77275NA+    NA+38696  34.501  10.642   2.417
77276NA+    NA+38697  39.384  40.512  13.334
77277NA+    NA+38698   1.949  16.267   2.823
77278NA+    NA+38699  36.019  14.137  13.537
77279NA+    NA+38700  44.859  18.675   0.798
77280NA+    NA+38701  27.060  22.559  11.949
77281NA+    NA+38702  44.273  39.018  11.077
77282NA+    NA+38703  14.663  36.853   4.252
77283NA+    NA+38704  42.879  35.026   2.272
77284NA+    NA+38705   5.753   0.753   1.412
77285NA+    NA+38706  23.168  29.499   2.801
77286NA+    NA+38707  16.247  42.379  14.419
77287NA+    NA+38708   8.212  17.713   3.302
77288NA+    NA+38709  17.623  21.103   3.721
77289NA+    NA+38710  44.429   1.959  10.059
77290NA+    NA+38711   8.189  41.900  10.078
77291NA+    NA+38712  14.196   2.837   1.746
77292NA+    NA+38713   0.400  33.571   0.967
77293NA+    NA+38714  29.997  25.186  14.796
77294NA+    NA+38715  18.247  22.079  10.635
77295NA+    NA+38716  17.113  23.508   0.919
77296NA+    NA+38717  31.117  34.561  12.504
77297NA+    NA+38718  22.558  18.140  11.116
77298NA+    NA+38719  12.228  36.901   3.312
77299NA+    NA+38720  11.704   1.443  13.819
77300NA+    NA+38721  39.375  39.365  14.768
77301NA+    NA+38722  31.078  14.717  11.077
77302NA+    NA+38723   3.345   5.876  11.532
77303NA+    NA+38724  26.498   6.723   1.351
77304NA+    NA+38725  28.597  11.765   1.257
77305NA+    NA+38726  23.102   6.718   5.784
77306NA+    NA+38727   5.902   8.695  11.481
77307NA+    NA+38728  37.848   2.813   2.392
77308NA+    NA+38729   2.792  28.146   4.345
77309NA+    NA+38730  25.098  18.631  12.493
77310NA+    NA+38731  12.286   2.337   1.796
77311NA+    NA+38732  38.987  44.941   2.212
77312NA+    NA+38733  14.157  14.642  13.432
77313NA+    NA+38734  44.801  32.109   0.442
77314NA+    NA+38735  24.708   1.817   4.335
77315NA+    NA+38736  39.449  35.048   2.193
77316NA+    NA+38737  22.173  11.704  12.924
77317NA+    NA+38738   4.234  18.643  14.434
77318NA+    NA+38739  20.109  29.066   2.189
77319NA+    NA+38740  41.375   1.889   0.731
77320NA+    NA+38741  22.165   5.341   3.654
77321NA+    NA+38742  13.607  35.020   4.340
77322NA+    NA+38743  18.725  30.529  14.421
77323NA+    NA+38744  10.172  38.826  12.452
77324NA+    NA+38745   9.809  12.357  11.023
77325NA+    NA+38746  17.132  29.612   2.238
77326NA+    NA+38747  29.622  17.167  11.085
77327NA+    NA+38748   3.353   5.312   1.890
77328NA+    NA+38749   8.707  11.665   2.842
77329NA+    NA+38750  41.395  25.109   2.743
77330NA+    NA+38751  43.336  28.541   2.781
77331NA+    NA+38752  42.933   3.931  12.538
77332NA+    NA+38753  41.315  34.031   3.855
77333NA+    NA+38754  40.017  28.435   4.321
77334NA+    NA+38755  29.134  17.178   0.884
77335NA+    NA+38756  37.018   0.403   1.864
77336NA+    NA+38757  41.453  26.531   0.389
77337NA+    NA+38758  19.687  31.117  11.612
77338NA+    NA+38759  39.927  37.368  13.792
77339NA+    NA+38760  36.915  27.526  14.015
77340NA+    NA+38761  43.325  32.484   1.806
77341NA+    NA+38762   8.284  14.747   4.791
77342NA+    NA+38763  43.435  13.701  14.393
77343NA+    NA+38764  39.334  29.106  11.908
77344NA+    NA+38765  31.012   2.792  11.908
77345NA+    NA+38766   0.873  18.716   2.251
77346NA+    NA+38767  29.544  44.389  10.902
77347NA+    NA+38768  29.123  30.539  11.123
77348NA+    NA+38769  23.575   1.933  13.997
77349NA+    NA+38770  29.630  31.638  10.421
77350NA+    NA+38771   2.847  37.361  12.035
77351NA+    NA+38772  20.548  23.195   0.935
77352NA+    NA+38773  10.187  19.677   3.266
77353NA+    NA+38774  23.120   7.891  13.469
77354NA+    NA+38775  17.578  10.680  14.400
77355NA+    NA+38776   0.492   1.307  13.545
77356NA+    NA+38777   1.903   0.272  10.616
77357NA+    NA+38778   1.894  31.139   0.437
77358NA+    NA+38779   9.718   7.411   4.653
77359NA+    NA+38780   2.870  26.551   3.175
77360NA+    NA+38781  24.004  10.656  14.995
77361NA+    NA+38782   7.381  17.116   1.341
77362NA+    NA+38783  40.454  34.519   4.666
77363NA+    NA+38784  12.756   4.273  14.029
77364NA+    NA+38785   4.776  41.403  14.282
77365NA+    NA+38786  37.949  41.370   4.223
77366NA+    NA+38787  28.938  11.847  12.358
77367NA+    NA+38788  31.631  19.626  10.888
77368NA+    NA+38789  36.536  22.015   3.772
77369NA+    NA+38790  10.844  25.610   1.266
77370NA+    NA+38791  29.052  26.679   1.865
77371NA+    NA+38792  28.658  42.382  13.868
77372NA+    NA+38793  31.974  44.294  10.469
77373NA+    NA+38794   4.881  43.793   1.311
77374NA+    NA+38795  36.467  38.535   1.812
77375NA+    NA+38796  25.992  18.712   0.812
77376NA+    NA+38797   1.949  11.311  14.391
77377NA+    NA+38798  27.053  30.072  13.365
77378NA+    NA+38799  41.331  39.890  13.881
77379NA+    NA+38800  16.118   4.373  11.064
77380NA+    NA+38801   0.366  41.991   2.751
77381NA+    NA+38802   4.899  34.047   1.837
77382NA+    NA+38803   3.291  14.768   0.424
77383NA+    NA+38804  14.247   8.295  10.430
77384NA+    NA+38805  20.040  24.099  14.355
77385NA+    NA+38806  22.060   9.719  12.073
77386NA+    NA+38807  36.079  43.922   3.340
77387NA+    NA+38808  41.445   7.291  12.994
77388NA+    NA+38809  41.930  17.126  12.562
77389NA+    NA+38810  27.944  29.437   2.899
77390NA+    NA+38811  21.112  35.375   0.307
77391NA+    NA+38812  12.186  10.143   3.235
77392NA+    NA+38813  16.809  43.780   0.247
77393NA+    NA+38814   8.368  40.885   4.818
77394NA+    NA+38815  39.946  34.054  13.424
77395NA+    NA+38816   2.950  41.384   0.465
77396NA+    NA+38817  23.039  37.986  13.984
77397NA+    NA+38818  12.131  25.154   4.286
77398NA+    NA+38819   5.433  15.669   0.864
77399NA+    NA+38820  17.092  34.479  11.058
77400NA+    NA+38821  12.219  15.819   0.877
77401NA+    NA+38822  20.603   3.827   4.807
77402NA+    NA+38823  11.223  39.424   2.745
77403NA+    NA+38824  15.299  15.688   2.732
77404NA+    NA+38825  28.495   5.775   4.221
77405NA+    NA+38826  23.104   2.963  14.439
77406NA+    NA+38827  41.517  22.164   3.847
77407NA+    NA+38828  31.971  28.438  12.961
77408NA+    NA+38829  21.058  44.822   0.956
77409NA+    NA+38830   6.379  29.638   0.917
77410NA+    NA+38831  37.361  40.923   3.853
77411NA+    NA+38832   7.188  41.462   3.165
77412NA+    NA+38833   1.312   6.267   3.757
77413NA+    NA+38834   3.719  23.619  10.078
77414NA+    NA+38835  25.199  39.429  11.057
77415NA+    NA+38836  12.629  38.530  11.003
77416NA+    NA+38837  39.934  43.277  11.039
77417NA+    NA+38838  43.019  13.332  13.059
77418NA+    NA+38839  33.099  22.010  14.324
77419NA+    NA+38840   1.748  35.889  14.975
77420NA+    NA+38841  33.518  26.198  11.548
77421NA+    NA+38842   5.708  34.438   1.264
77422NA+    NA+38843   9.753  14.818   4.346
77423NA+    NA+38844  40.315  28.988   4.232
77424NA+    NA+38845  16.716  29.077  10.602
77425NA+    NA+38846  10.827   5.304   2.668
77426NA+    NA+38847  43.291  41.885   0.792
77427NA+    NA+38848  26.106   2.804   0.849
77428NA+    NA+38849  13.808  43.454   3.148
77429NA+    NA+38850  42.861  26.155   2.249
77430NA+    NA+38851   0.796  11.149  14.892
77431NA+    NA+38852  20.708  24.047   4.141
77432NA+    NA+38853  15.179  14.211   4.287
77433NA+    NA+38854  14.766  10.275   2.359
77434NA+    NA+38855  20.243   7.817  12.500
77435NA+    NA+38856  39.817   5.705  13.371
77436NA+    NA+38857  15.230  27.484   1.803
77437NA+    NA+38858  26.672   2.876   3.329
77438NA+    NA+38859  37.886  15.762   3.847
77439NA+    NA+38860   8.239  28.096  12.034
77440NA+    NA+38861  13.278  10.737   1.370
77441NA+    NA+38862  11.185  31.517   1.243
77442NA+    NA+38863  23.640   8.380  12.928
77443NA+    NA+38864  14.723   6.406  10.015
77444NA+    NA+38865   5.848  39.395   0.966
77445NA+    NA+38866  34.985  39.397  11.412
77446NA+    NA+38867  10.705  21.251   2.712
77447NA+    NA+38868   2.738  32.447  13.998
77448NA+    NA+38869  38.327  27.998   2.269
77449NA+    NA+38870   8.371  11.189  14.806
77450NA+    NA+38871  18.093  28.449  10.918
77451NA+    NA+38872   0.751   3.246   1.702
77452NA+    NA+38873   8.251  28.581  14.952
77453NA+    NA+38874  41.861  29.113   0.415
77454NA+    NA+38875  26.029   5.759  10.419
77455NA+    NA+38876  17.758  28.943   1.380
77456NA+    NA+38877  40.015  29.630   0.375
77457NA+    NA+38878  29.023  39.850   1.761
77458NA+    NA+38879  34.533  25.070   1.753
77459NA+    NA+38880  21.169   6.784   5.124
77460NA+    NA+38881  16.127  35.410   3.840
77461NA+    NA+38882  31.966   9.696  12.566
77462NA+    NA+38883   6.906  18.642   2.774
77463NA+    NA+38884  33.380  39.336  10.588
77464NA+    NA+38885  29.020  30.914   3.720
77465NA+    NA+38886   6.410  43.925   0.862
77466NA+    NA+38887   2.343  44.958  14.784
77467NA+    NA+38888  11.761  16.606   3.309
77468NA+    NA+38889  26.700   7.828   2.746
77469NA+    NA+38890  36.897  20.603  11.950
77470NA+    NA+38891  39.521  37.391   4.289
77471NA+    NA+38892  10.683  27.451  10.911
77472NA+    NA+38893  27.449  27.669  14.338
77473NA+    NA+38894  13.696  37.011  10.525
77474NA+    NA+38895  16.299  12.225   2.215
77475NA+    NA+38896  15.188  36.916  10.542
77476NA+    NA+38897  21.622  15.213  10.030
77477NA+    NA+38898  32.006  18.140  14.978
77478NA+    NA+38899  39.813  22.152  14.802
77479NA+    NA+38900  18.551  39.982  10.089
77480NA+    NA+38901   5.426  12.354   1.301
77481NA+    NA+38902  14.671   7.276  10.906
77482NA+    NA+38903  17.656   3.862  13.419
77483NA+    NA+38904  33.080  42.332   4.193
77484NA+    NA+38905   8.267   7.248  10.934
77485NA+    NA+38906  40.813  10.772   1.703
77486NA+    NA+38907  10.218  28.662   4.603
77487NA+    NA+38908  23.588  21.614  11.484
77488NA+    NA+38909  31.591   9.753  12.921
77489NA+    NA+38910  22.238   9.232   2.370
77490NA+    NA+38911  19.180   0.395   3.375
77491NA+    NA+38912  14.307  11.835  12.569
77492NA+    NA+38913  20.060  30.455   1.266
77493NA+    NA+38914  44.460  10.673   3.847
77494NA+    NA+38915  42.924   1.346   3.800
77495NA+    NA+38916  41.865  15.129  11.590
77496NA+    NA+38917  19.537  20.659  13.910
77497NA+    NA+38918  10.172  14.702   4.613
77498NA+    NA+38919  21.636  10.226   1.224
77499NA+    NA+38920  14.276   3.230  14.358
77500NA+    NA+38921  39.489  20.713   4.323
77501NA+    NA+38922  22.220   8.880   0.936
77502NA+    NA+38923  20.252   6.225  11.900
77503NA+    NA+38924  12.120  41.979   2.408
77504NA+    NA+38925  41.812  13.167  11.993
77505NA+    NA+38926  24.193   7.722  12.453
77506NA+    NA+38927  44.946  29.116   0.822
77507NA+    NA+38928  16.124   6.365   3.245
77508NA+    NA+38929   9.370   5.253  13.327
77509NA+    NA+38930   2.264  13.342   0.457
77510NA+    NA+38931   7.859  11.249  10.642
77511NA+    NA+38932  30.498  32.123   0.345
77512NA+    NA+38933  30.935  39.519   3.728
77513NA+    NA+38934  29.013  32.942  10.432
77514NA+    NA+38935  26.487  19.243  10.460
77515NA+    NA+38936  22.210   3.330   4.349
77516NA+    NA+38937  36.484  30.449   1.345
77517NA+    NA+38938  25.002   7.670   4.259
77518NA+    NA+38939  37.355  43.328   2.852
77519NA+    NA+38940  33.103   9.209   1.886
77520NA+    NA+38941  16.230  35.979   1.878
77521NA+    NA+38942  29.630  18.684   5.298
77522NA+    NA+38943  24.514   6.856   2.400
77523NA+    NA+38944  26.957   7.205   0.475
77524NA+    NA+38945  39.898  42.819   1.246
77525NA+    NA+38946  31.434  28.524   1.356
77526NA+    NA+38947  15.660  14.672  10.904
77527NA+    NA+38948  17.615  43.360  12.944
77528NA+    NA+38949   1.293   8.799   1.888
77529NA+    NA+38950  41.976   1.769   4.625
77530NA+    NA+38951  22.097  43.933   2.743
77531NA+    NA+38952  24.710   0.835  12.431
77532NA+    NA+38953  38.387  36.378  13.894
77533NA+    NA+38954  26.571   3.241  13.479
77534NA+    NA+38955  43.980  15.731   4.345
77535NA+    NA+38956  28.503  39.366   4.241
77536NA+    NA+38957  37.931  17.728   1.918
77537NA+    NA+38958  25.082  42.524  12.075
77538NA+    NA+38959  16.746  18.701   1.738
77539NA+    NA+38960   8.171  33.097  10.424
77540NA+    NA+38961  41.458  41.811   2.838
77541NA+    NA+38962   2.876  40.922   2.713
77542NA+    NA+38963   4.827  20.751  13.542
77543NA+    NA+38964   7.812  38.461  10.994
77544NA+    NA+38965   2.800  27.010   4.160
77545NA+    NA+38966   2.392  23.086  11.597
77546NA+    NA+38967  31.519  20.697  13.412
77547NA+    NA+38968  36.889  27.665   2.218
77548NA+    NA+38969  29.614  17.701   0.733
77549NA+    NA+38970  34.473  44.756   0.471
77550NA+    NA+38971  24.624  41.016   0.919
77551NA+    NA+38972  12.359  29.957   0.872
77552NA+    NA+38973  10.878  33.604  14.905
77553NA+    NA+38974   2.765  41.917  11.098
77554NA+    NA+38975  20.108  23.095  10.639
77555NA+    NA+38976  33.055  40.809   2.234
77556NA+    NA+38977  41.299   0.938   0.875
77557NA+    NA+38978  27.122  11.230  13.534
77558NA+    NA+38979  40.381  21.732  12.036
77559NA+    NA+38980  21.249  20.270   0.792
77560NA+    NA+38981   1.347  19.079  11.857
77561NA+    NA+38982  21.155  21.729   1.698
77562NA+    NA+38983  24.069  13.215  13.478
77563NA+    NA+38984  43.418  27.550   2.321
77564NA+    NA+38985   9.166  15.272   0.761
77565NA+    NA+38986  18.258  39.465   0.755
77566NA+    NA+38987  27.570   9.743   3.672
77567NA+    NA+38988  29.979  15.754   3.648
77568NA+    NA+38989  43.802  38.986  11.933
77569NA+    NA+38990   4.838  40.953  11.477
77570NA+    NA+38991   9.168  10.310  12.423
77571NA+    NA+38992  17.119  37.451   5.219
77572NA+    NA+38993  41.817  10.835   0.908
77573NA+    NA+38994  12.822  27.459  12.447
77574NA+    NA+38995  30.464  27.523  14.878
77575NA+    NA+38996  21.097  30.053  12.018
77576NA+    NA+38997  21.034  32.533   5.283
77577NA+    NA+38998  42.929   9.688   3.782
77578NA+    NA+38999  27.138  26.652  10.515
77579NA+    NA+39000   2.952  17.253   1.299
77580NA+    NA+39001  41.325   8.808  10.977
77581NA+    NA+39002  19.157  34.894   4.676
77582NA+    NA+39003   3.338  29.980   0.377
77583NA+    NA+39004  36.442  12.649  10.534
77584NA+    NA+39005  43.379  38.502  13.812
77585NA+    NA+39006   1.854  14.201  12.072
77586NA+    NA+39007   7.833  43.793   0.471
77587NA+    NA+39008   8.253  22.173   3.273
77588NA+    NA+39009   5.199  38.056   3.855
77589NA+    NA+39010  13.718   8.378   0.744
77590NA+    NA+39011  33.516  23.701   3.738
77591NA+    NA+39012  29.603  13.699   0.895
77592NA+    NA+39013  39.056  11.308   1.763
77593NA+    NA+39014  18.741  12.723   1.291
77594NA+    NA+39015  25.197  13.700   2.745
77595NA+    NA+39016  30.506  36.421  13.899
77596NA+    NA+39017   0.303   1.323   4.724
77597NA+    NA+39018  33.577  21.163   0.272
77598NA+    NA+39019  33.445   8.669   3.685
77599NA+    NA+39020  13.282   7.790   4.120
77600NA+    NA+39021   9.338   1.797   4.799
77601NA+    NA+39022  26.489  38.909   1.253
77602NA+    NA+39023  28.007   1.960  11.126
77603NA+    NA+39024  34.117   7.310   0.294
77604NA+    NA+39025   3.726  17.252   0.295
77605NA+    NA+39026  15.679   8.831   4.348
77606NA+    NA+39027   6.687  39.430   2.830
77607NA+    NA+39028  10.877   4.214  13.832
77608NA+    NA+39029  31.912  28.591  14.953
77609NA+    NA+39030   8.760  20.179   3.660
77610NA+    NA+39031  21.655   7.277   0.407
77611NA+    NA+39032   5.423  18.581  12.986
77612NA+    NA+39033  10.354  11.203  12.398
77613NA+    NA+39034   2.377   0.857  10.576
77614NA+    NA+39035   8.688   1.748  12.935
77615NA+    NA+39036  31.522  39.331   2.242
77616NA+    NA+39037   4.725  16.586   0.360
77617NA+    NA+39038  36.372  32.621  11.536
77618NA+    NA+39039  30.141  38.512  13.796
77619NA+    NA+39040  24.686  24.568  13.395
77620NA+    NA+39041  14.671   7.345  14.344
77621NA+    NA+39042  36.053  36.372   3.786
77622NA+    NA+39043  23.002  42.022  12.850
77623NA+    NA+39044  16.233   7.795  11.396
77624NA+    NA+39045   2.397  31.573  13.330
77625NA+    NA+39046   9.727  18.269  11.399
77626NA+    NA+39047   2.740  21.117  14.770
77627NA+    NA+39048  16.637  43.466   2.359
77628NA+    NA+39049  42.504  12.737   1.371
77629NA+    NA+39050  31.644  15.194   5.244
77630NA+    NA+39051   2.445  14.590  14.766
77631NA+    NA+39052   4.914  44.822  12.061
77632NA+    NA+39053  13.118  10.366  12.482
77633NA+    NA+39054  22.559   8.819  11.879
77634NA+    NA+39055  16.703   6.332  11.954
77635NA+    NA+39056  12.835  38.556  11.534
77636NA+    NA+39057  37.855  26.124  13.805
77637NA+    NA+39058  39.361  37.555  13.323
77638NA+    NA+39059   8.209  42.018   2.406
77639NA+    NA+39060  13.350  19.750   1.234
77640NA+    NA+39061  40.345  32.531   4.707
77641NA+    NA+39062  17.065  18.140  13.426
77642NA+    NA+39063  10.781  42.861  14.767
77643NA+    NA+39064  23.188  14.682  11.477
77644NA+    NA+39065  42.344   2.243  10.942
77645NA+    NA+39066  30.966  14.787  12.978
77646NA+    NA+39067  15.606  33.030   9.589
77647NA+    NA+39068  20.539  34.424   4.300
77648NA+    NA+39069  24.113  14.788  11.094
77649NA+    NA+39070  36.849  20.617   4.818
77650NA+    NA+39071   3.453  38.565   2.718
77651NA+    NA+39072  33.044  32.455   2.758
77652NA+    NA+39073  22.028  20.146  10.515
77653NA+    NA+39074  39.382  36.072   0.874
77654NA+    NA+39075  40.009   1.787   1.268
77655NA+    NA+39076  36.421  10.150  11.430
77656NA+    NA+39077   0.449  37.071   4.339
77657NA+    NA+39078  22.139  12.850  14.970
77658NA+    NA+39079  34.963   0.299   2.878
77659NA+    NA+39080  26.468  21.747  13.036
77660NA+    NA+39081  36.001  38.964  11.876
77661NA+    NA+39082  40.509  38.414   1.720
77662NA+    NA+39083   6.415  25.527   2.212
77663NA+    NA+39084  43.451  12.146   3.178
77664NA+    NA+39085  19.083  26.486  12.522
77665NA+    NA+39086  25.967  35.961  13.023
77666NA+    NA+39087  35.886  42.805  11.019
77667NA+    NA+39088  20.111  13.323   4.202
77668NA+    NA+39089   8.372  37.049   2.691
77669NA+    NA+39090  10.654   8.376   2.858
77670NA+    NA+39091   5.313  23.540  10.948
77671NA+    NA+39092  19.672  17.193  10.634
77672NA+    NA+39093  20.102   9.655   2.799
77673NA+    NA+39094   2.326   8.270   0.827
77674NA+    NA+39095   7.844  23.155   4.654
77675NA+    NA+39096  30.618  43.281  12.555
77676NA+    NA+39097  29.486  11.793  14.392
77677NA+    NA+39098  31.128   3.410  11.983
77678NA+    NA+39099  11.759  40.806  11.601
77679NA+    NA+39100  40.458  28.974  10.528
77680NA+    NA+39101  34.108   1.942   0.885
77681NA+    NA+39102  14.151   2.402   5.091
77682NA+    NA+39103   9.195  16.185   2.769
77683NA+    NA+39104   8.361   0.841   2.246
77684NA+    NA+39105   8.351  21.745  12.927
77685NA+    NA+39106  31.574  30.035   4.189
77686NA+    NA+39107   6.369  14.143  14.990
77687NA+    NA+39108   7.673   0.262  13.040
77688NA+    NA+39109  39.812  25.469   0.245
77689NA+    NA+39110  24.226   8.726  10.635
77690NA+    NA+39111  25.064  13.126   3.284
77691NA+    NA+39112  31.453  31.061  13.054
77692NA+    NA+39113  37.416  35.889  14.978
77693NA+    NA+39114  22.241  14.200   3.264
77694NA+    NA+39115  40.485   4.789  13.355
77695NA+    NA+39116  12.197  21.556   1.822
77696NA+    NA+39117   2.329  20.539   3.206
77697NA+    NA+39118   5.889  19.656  14.395
77698NA+    NA+39119  34.566   8.815  14.961
77699NA+    NA+39120   3.931  17.128  11.858
77700NA+    NA+39121   2.933  24.561  14.917
77701NA+    NA+39122  22.161  40.906   0.375
77702NA+    NA+39123  14.811  41.409   1.419
77703NA+    NA+39124  14.255   4.907   1.753
77704NA+    NA+39125  12.760  19.651  14.889
77705NA+    NA+39126   5.909  35.950   3.819
77706NA+    NA+39127  39.013  40.011   3.155
77707NA+    NA+39128   3.814  16.220  11.901
77708NA+    NA+39129   2.415  24.039  12.047
77709NA+    NA+39130  44.305  31.522   2.692
77710NA+    NA+39131  25.025  19.547   1.775
77711NA+    NA+39132  17.703   0.842  10.104
77712NA+    NA+39133  22.502  13.270   4.783
77713NA+    NA+39134   8.318  25.476  13.891
77714NA+    NA+39135  44.483  27.942   4.331
77715NA+    NA+39136  44.813  41.306  14.389
77716NA+    NA+39137  31.416   8.269  13.419
77717NA+    NA+39138  27.622  15.657  14.290
77718NA+    NA+39139  25.629   9.673   4.204
77719NA+    NA+39140  28.558   2.239   1.716
77720NA+    NA+39141   3.747  14.276   3.843
77721NA+    NA+39142  30.990   4.369   2.408
77722NA+    NA+39143   1.251  13.165  13.478
77723NA+    NA+39144  38.861  36.404  10.905
77724NA+    NA+39145  38.532  33.534  12.968
77725NA+    NA+39146  16.087  34.952   4.282
77726NA+    NA+39147   6.776  31.412   1.219
77727NA+    NA+39148   9.372  26.588   4.726
77728NA+    NA+39149  24.568  43.846   3.299
77729NA+    NA+39150  11.640  20.228  14.817
77730NA+    NA+39151   8.882   8.362   4.118
77731NA+    NA+39152  42.950  12.174  13.961
77732NA+    NA+39153  12.768  38.048  11.612
77733NA+    NA+39154  26.617   8.402  10.428
77734NA+    NA+39155  27.692  29.004  13.470
77735NA+    NA+39156  16.795  38.408   4.629
77736NA+    NA+39157  21.701  28.612   0.882
77737NA+    NA+39158  11.312  20.745   1.302
77738NA+    NA+39159  34.540  40.951   3.709
77739NA+    NA+39160  27.465  24.572  12.928
77740NA+    NA+39161   7.719  13.251  13.405
77741NA+    NA+39162  21.609  12.669   5.232
77742NA+    NA+39163   7.373   9.165  14.790
77743NA+    NA+39164  42.941   3.888   2.794
77744NA+    NA+39165  18.656  14.172   1.744
77745NA+    NA+39166   3.401   0.894  12.402
77746NA+    NA+39167  33.084  16.750  10.490
77747NA+    NA+39168  22.244  43.366   0.301
77748NA+    NA+39169   7.907   8.658   0.743
77749NA+    NA+39170  19.249   2.849   2.876
77750NA+    NA+39171  10.305  10.659  11.494
77751NA+    NA+39172  12.832   8.329   0.333
77752NA+    NA+39173  15.591  33.899   5.163
77753NA+    NA+39174  38.028  11.818  13.365
77754NA+    NA+39175   3.442  24.715   3.640
77755NA+    NA+39176   0.391  29.535  13.022
77756NA+    NA+39177  17.248  43.497  13.049
77757NA+    NA+39178  42.000  38.403  14.473
77758NA+    NA+39179  35.373  29.458  11.527
77759NA+    NA+39180  17.203   4.427  12.084
77760NA+    NA+39181  38.509  41.416   4.168
77761NA+    NA+39182  42.337  24.000  12.560
77762NA+    NA+39183  38.459  10.777  14.030
77763NA+    NA+39184  36.867   7.227  11.523
77764NA+    NA+39185  31.078  23.613   0.794
77765NA+    NA+39186   6.240  10.300  10.940
77766NA+    NA+39187  31.517   1.974  12.433
77767NA+    NA+39188  25.562  36.491   3.701
77768NA+    NA+39189   0.783  11.186   0.936
77769NA+    NA+39190  29.047  10.691  14.332
77770NA+    NA+39191  40.888  31.995   3.261
77771NA+    NA+39192  26.161  36.061   1.277
77772NA+    NA+39193  29.470  19.536   1.702
77773NA+    NA+39194   9.186  30.552  11.120
77774NA+    NA+39195  13.304  13.774   3.306
77775NA+    NA+39196   5.366  33.010  13.373
77776NA+    NA+39197  21.619  19.667   4.284
77777NA+    NA+39198  17.717  40.799  10.940
77778NA+    NA+39199  39.463  38.995  13.472
77779NA+    NA+39200  38.516  24.188   4.314
77780NA+    NA+39201  38.838   1.286   3.375
77781NA+    NA+39202  14.731  27.607   1.406
77782NA+    NA+39203   6.241   6.418  11.925
77783NA+    NA+39204  21.565   8.182  12.863
77784NA+    NA+39205  28.590  19.728   0.381
77785NA+    NA+39206  13.128  13.158   1.316
77786NA+    NA+39207   1.787  27.158   3.330
77787NA+    NA+39208  11.847  43.342   2.888
77788NA+    NA+39209  21.042  28.032  12.905
77789NA+    NA+39210  27.508  13.281  14.799
77790NA+    NA+39211  26.472   4.847  12.009
77791NA+    NA+39212  28.490   5.207  13.876
77792NA+    NA+39213  38.974  18.065  11.558
77793NA+    NA+39214  38.492  43.944   4.656
77794NA+    NA+39215   6.770  18.681   0.801
77795NA+    NA+39216   3.729  14.165  12.034
77796NA+    NA+39217  37.547  26.550   0.735
77797NA+    NA+39218   8.710  32.481  11.020
77798NA+    NA+39219   9.320   8.866  12.922
77799NA+    NA+39220  37.979  18.178   0.245
77800NA+    NA+39221  35.546  19.603   1.396
77801NA+    NA+39222  43.320  32.112  13.800
77802NA+    NA+39223  28.677  29.042   2.359
77803NA+    NA+39224  41.463  27.006   1.249
77804NA+    NA+39225  11.308   8.788   4.769
77805NA+    NA+39226  12.726   2.770  13.520
77806NA+    NA+39227  10.360  14.195  13.454
77807NA+    NA+39228  32.503  43.907  12.900
77808NA+    NA+39229   6.231  41.528   2.708
77809NA+    NA+39230  13.692  15.640  13.361
77810NA+    NA+39231  21.590  30.507   5.101
77811NA+    NA+39232  20.110  42.433   3.384
77812NA+    NA+39233   6.371  25.526  11.976
77813NA+    NA+39234  44.972  43.399  10.900
77814NA+    NA+39235  35.560  19.691   4.689
77815NA+    NA+39236   1.851  15.784  13.332
77816NA+    NA+39237  12.696  22.502  12.087
77817NA+    NA+39238  33.564  41.367   2.721
77818NA+    NA+39239   1.256   8.878   4.670
77819NA+    NA+39240   4.929   7.831  11.560
77820NA+    NA+39241  27.023  26.600   4.773
77821NA+    NA+39242  44.925  30.924   0.927
77822NA+    NA+39243   0.433   1.459  10.599
77823NA+    NA+39244   4.339   0.863   5.153
77824NA+    NA+39245  24.063  38.031   0.264
77825NA+    NA+39246  32.893  14.834  13.393
77826NA+    NA+39247  13.186  41.975   2.697
77827NA+    NA+39248  39.878  19.736  12.081
77828NA+    NA+39249  27.543  31.468  12.974
77829NA+    NA+39250  25.652  12.853  12.526
77830NA+    NA+39251  10.165  32.114  14.389
77831NA+    NA+39252   1.357  42.417   3.794
77832NA+    NA+39253  30.907  32.935   0.818
77833NA+    NA+39254  33.122  21.150  11.972
77834NA+    NA+39255  38.452   6.790   4.202
77835NA+    NA+39256  12.170  44.428  13.394
77836NA+    NA+39257  27.588  26.551  12.007
77837NA+    NA+39258  11.753  23.140  13.440
77838NA+    NA+39259  37.531  19.131   1.283
77839NA+    NA+39260  39.341   7.245  11.042
77840NA+    NA+39261  21.249  16.238   2.373
77841NA+    NA+39262  39.938  28.005   2.327
77842NA+    NA+39263  30.462  26.025  10.923
77843NA+    NA+39264   5.724  32.591   0.471
77844NA+    NA+39265  28.009  16.174   1.731
77845NA+    NA+39266  15.688  11.175   2.253
77846NA+    NA+39267   1.344  21.183   3.736
77847NA+    NA+39268  33.444  28.485  12.555
77848NA+    NA+39269  33.457   0.358   0.271
77849NA+    NA+39270   1.773  38.882   4.258
77850NA+    NA+39271  27.669  43.393   4.297
77851NA+    NA+39272  27.048  37.432   0.791
77852NA+    NA+39273   3.924  21.647  13.516
77853NA+    NA+39274  13.686   9.751   2.754
77854NA+    NA+39275  28.609  22.669  11.579
77855NA+    NA+39276   6.354  32.069   1.880
77856NA+    NA+39277  39.926  44.777   2.742
77857NA+    NA+39278  39.392   7.681   0.265
77858NA+    NA+39279   8.866   0.829   3.747
77859NA+    NA+39280  32.514  12.839   0.951
77860NA+    NA+39281  17.257   2.323   2.194
77861NA+    NA+39282  33.894  43.002   5.136
77862NA+    NA+39283  23.091   3.218   5.721
77863NA+    NA+39284  34.939  18.610   2.764
77864NA+    NA+39285  38.337  18.584   2.387
77865NA+    NA+39286  16.207  27.113  11.104
77866NA+    NA+39287  21.533  44.423   9.966
77867NA+    NA+39288  16.165  13.259  13.987
77868NA+    NA+39289  22.075  13.120   2.822
77869NA+    NA+39290  37.953  11.849   3.242
77870NA+    NA+39291   2.878  42.360   2.849
77871NA+    NA+39292  39.930  24.055   1.767
77872NA+    NA+39293   4.352  42.367   1.229
77873NA+    NA+39294  17.779  22.535  11.566
77874NA+    NA+39295   5.778   9.657   1.410
77875NA+    NA+39296  20.689   7.348  13.450
77876NA+    NA+39297  26.572  32.465   2.417
77877NA+    NA+39298  44.761  23.006  13.442
77878NA+    NA+39299  24.043  30.600  13.856
77879NA+    NA+39300  38.953  10.636  12.950
77880NA+    NA+39301   1.832  18.735   4.621
77881NA+    NA+39302  16.675  41.424   0.459
77882NA+    NA+39303  39.811  37.889  14.366
77883NA+    NA+39304  42.004  31.582   0.246
77884NA+    NA+39305  24.619  24.151  14.430
77885NA+    NA+39306  32.089  23.672   4.322
77886NA+    NA+39307  18.091  16.727  12.364
77887NA+    NA+39308   7.400  12.186   4.785
77888NA+    NA+39309  15.754  21.596   2.866
77889NA+    NA+39310  13.116   9.853   4.667
77890NA+    NA+39311  24.538   2.795   0.338
77891NA+    NA+39312  44.861  43.432   1.837
77892NA+    NA+39313  22.068  29.505   3.373
77893NA+    NA+39314  30.528  33.522  10.601
77894NA+    NA+39315  11.313  11.139   4.662
77895NA+    NA+39316  35.440  22.638  14.917
77896NA+    NA+39317  40.349  17.558   4.763
77897NA+    NA+39318  11.682  33.961   4.619
77898NA+    NA+39319  19.238   8.832  14.830
77899NA+    NA+39320  27.183  13.307   0.876
77900NA+    NA+39321  24.551  27.447   0.481
77901NA+    NA+39322  21.578  23.178  10.571
77902NA+    NA+39323  39.465   3.900   3.348
77903NA+    NA+39324  26.203  28.065  11.406
77904NA+    NA+39325  37.832  21.234   4.614
77905NA+    NA+39326  14.599  28.980   1.367
77906NA+    NA+39327   8.853  34.466  13.828
77907NA+    NA+39328  14.691  21.229   3.267
77908NA+    NA+39329  27.480  37.929   2.364
77909NA+    NA+39330   1.783  19.198  13.980
77910NA+    NA+39331  21.693  33.580   4.333
77911NA+    NA+39332  22.069  27.122   4.252
77912NA+    NA+39333  35.601   7.213  11.876
77913NA+    NA+39334   3.299  19.271  14.875
77914NA+    NA+39335  30.585   5.403  13.051
77915NA+    NA+39336   5.751   0.377  13.476
77916NA+    NA+39337   8.809  13.647   0.410
77917NA+    NA+39338  13.326   6.324   5.220
77918NA+    NA+39339  32.986   4.815   3.185
77919NA+    NA+39340   9.744  25.033   1.365
77920NA+    NA+39341  11.294  22.635   4.237
77921NA+    NA+39342  17.126  22.514  14.292
77922NA+    NA+39343  32.018   6.912  12.939
77923NA+    NA+39344   8.342  25.055   3.284
77924NA+    NA+39345  28.585  33.008  13.838
77925NA+    NA+39346  16.221  34.992   3.178
77926NA+    NA+39347  14.203   4.398   3.317
77927NA+    NA+39348  19.069  34.553   0.417
77928NA+    NA+39349  39.318  37.466   0.785
77929NA+    NA+39350  42.775  38.523   3.381
77930NA+    NA+39351  31.090  10.634   3.850
77931NA+    NA+39352  26.500  35.505   3.869
77932NA+    NA+39353   5.379  24.223  12.898
77933NA+    NA+39354  30.603  28.041  10.449
77934NA+    NA+39355   3.402  41.926  11.589
77935NA+    NA+39356  17.277  22.232  10.035
77936NA+    NA+39357  24.518  33.554   2.362
77937NA+    NA+39358  43.507  12.815   1.320
77938NA+    NA+39359   0.882  34.566   0.851
77939NA+    NA+39360  32.977   0.808  13.806
77940NA+    NA+39361  10.338  32.447  14.483
77941NA+    NA+39362   4.435  35.068   0.928
77942NA+    NA+39363  38.040  38.854  11.513
77943NA+    NA+39364   0.249  15.249   3.374
77944NA+    NA+39365  10.196   5.770  13.519
77945NA+    NA+39366  24.151   5.856  13.002
77946NA+    NA+39367  34.497   0.852  10.503
77947NA+    NA+39368  14.639  25.137  14.306
77948NA+    NA+39369  22.112  41.797  14.835
77949NA+    NA+39370  42.830  28.146  14.376
77950NA+    NA+39371  19.134  20.091   4.756
77951NA+    NA+39372  34.087  21.612   2.859
77952NA+    NA+39373  21.089  24.120   1.258
77953NA+    NA+39374  19.176  25.554  10.516
77954NA+    NA+39375  13.317  21.053   2.731
77955NA+    NA+39376   5.255  43.974  10.947
77956NA+    NA+39377  39.985  26.550   4.308
77957NA+    NA+39378   6.822  15.699  10.897
77958NA+    NA+39379  41.439  25.703  14.468
77959NA+    NA+39380  44.867  13.168  12.485
77960NA+    NA+39381   2.281   8.727  10.948
77961NA+    NA+39382  38.047   2.429   5.162
77962NA+    NA+39383  42.830   7.335   1.823
77963NA+    NA+39384  31.524   3.894  12.059
77964NA+    NA+39385  40.895   9.284   3.690
77965NA+    NA+39386  36.467  33.949   4.335
77966NA+    NA+39387  42.438  29.557   2.338
77967NA+    NA+39388  38.355  39.483  14.486
77968NA+    NA+39389  31.639  22.244   0.779
77969NA+    NA+39390  18.703  12.153   1.731
77970NA+    NA+39391  30.593   3.866   5.211
77971NA+    NA+39392  40.337   6.212   0.312
77972NA+    NA+39393  31.131   5.354  14.296
77973NA+    NA+39394   2.426  40.039  12.579
77974NA+    NA+39395  40.359   4.699   4.675
77975NA+    NA+39396  24.156  18.612   4.179
77976NA+    NA+39397  38.410  40.981  14.466
77977NA+    NA+39398  38.558  28.636  12.825
77978NA+    NA+39399   7.791   1.363   2.858
77979NA+    NA+39400  39.332  37.079   4.275
77980NA+    NA+39401  11.371  38.066  10.052
77981NA+    NA+39402  37.544  26.125  11.464
77982NA+    NA+39403   3.784   3.300   9.506
77983NA+    NA+39404  30.486  28.063  13.306
77984NA+    NA+39405   7.369  25.131   1.830
77985NA+    NA+39406   1.452  16.643  14.290
77986NA+    NA+39407  26.666  12.285   2.835
77987NA+    NA+39408  25.080  21.085   1.717
77988NA+    NA+39409  22.248  39.991   1.268
77989NA+    NA+39410  34.428   0.959  12.064
77990NA+    NA+39411  10.646  14.140   4.117
77991NA+    NA+39412  24.203  23.708   4.195
77992NA+    NA+39413   0.395  22.074   4.655
77993NA+    NA+39414  33.618   0.298  12.412
77994NA+    NA+39415   5.850   3.802  10.906
77995NA+    NA+39416   5.321  27.073   2.875
77996NA+    NA+39417  38.881  24.705   0.740
77997NA+    NA+39418  20.746   0.752   1.405
77998NA+    NA+39419  33.573  37.956  12.041
77999NA+    NA+39420  28.668  13.641   1.723
78000NA+    NA+39421  12.309   2.904  11.887
78001NA+    NA+39422  34.093  13.153   4.344
78002NA+    NA+39423  43.507  34.384   3.204
78003NA+    NA+39424  17.657  36.384  13.950
78004NA+    NA+39425  25.107   2.748   2.744
78005NA+    NA+39426  27.131  38.494   3.869
78006NA+    NA+39427  37.075   2.280  13.504
78007NA+    NA+39428  42.422  41.343  12.965
78008NA+    NA+39429  40.392   0.276   3.852
78009NA+    NA+39430  34.607  11.643   2.811
78010NA+    NA+39431  15.807   8.249   1.425
78011NA+    NA+39432  22.595  24.599   4.717
78012NA+    NA+39433   0.426  10.291   1.365
78013NA+    NA+39434  35.087   9.303  13.899
78014NA+    NA+39435   9.652  41.868  14.335
78015NA+    NA+39436  30.524  35.366  11.081
78016NA+    NA+39437  37.439  10.232   4.287
78017NA+    NA+39438  31.532  29.164   2.409
78018NA+    NA+39439  20.743  16.176   0.423
78019NA+    NA+39440   9.154  12.758   3.844
78020NA+    NA+39441  40.484  17.684  13.945
78021NA+    NA+39442  14.278  20.137   4.320
78022NA+    NA+39443  33.042  43.431   1.724
78023NA+    NA+39444  19.696  27.020   3.818
78024NA+    NA+39445  19.732  18.685   0.906
78025NA+    NA+39446  17.642  27.145   2.680
78026NA+    NA+39447  12.661  42.494  10.420
78027NA+    NA+39448   3.775   1.879  13.430
78028NA+    NA+39449  12.339  12.796   3.704
78029NA+    NA+39450  32.953  37.529  10.434
78030NA+    NA+39451  40.518   6.240   2.260
78031NA+    NA+39452  18.114  31.902   1.392
78032NA+    NA+39453  30.020  25.635   3.328
78033NA+    NA+39454  29.946  27.662   0.401
78034NA+    NA+39455  39.512   1.373   0.281
78035NA+    NA+39456  15.594  14.319   0.833
78036NA+    NA+39457  40.876  39.808  12.017
78037NA+    NA+39458  19.536  35.388  13.324
78038NA+    NA+39459   6.833  32.487   1.832
78039NA+    NA+39460  11.291  23.632   1.287
78040NA+    NA+39461  15.638  19.700  12.827
78041NA+    NA+39462  41.022  18.602   4.124
78042NA+    NA+39463  44.867   4.728  10.506
78043NA+    NA+39464   2.236  27.591  14.913
78044NA+    NA+39465  21.233  28.029  14.018
78045NA+    NA+39466  17.762  25.190  14.997
78046NA+    NA+39467  10.710  38.996  14.810
78047NA+    NA+39468   9.833  29.665   4.318
78048NA+    NA+39469  43.418   0.393   4.289
78049NA+    NA+39470  12.138  30.606   0.805
78050NA+    NA+39471  17.666  37.545  13.497
78051NA+    NA+39472  41.524   9.156   1.216
78052NA+    NA+39473  38.332  11.799   2.269
78053NA+    NA+39474   1.447  24.162  12.950
78054NA+    NA+39475  30.153  30.958  13.454
78055NA+    NA+39476  22.596  44.466  10.929
78056NA+    NA+39477   9.776  44.938   3.304
78057NA+    NA+39478   3.312  42.954  10.079
78058NA+    NA+39479   3.750  24.065   1.365
78059NA+    NA+39480  36.856  12.844   2.755
78060NA+    NA+39481  30.970   2.932  10.478
78061NA+    NA+39482  15.305  10.634  13.817
78062NA+    NA+39483   3.402  28.092   1.291
78063NA+    NA+39484  42.789  31.428  11.490
78064NA+    NA+39485  28.641  26.599   1.874
78065NA+    NA+39486  23.667  22.049   1.921
78066NA+    NA+39487   0.801  17.074  14.447
78067NA+    NA+39488  12.287  32.426   3.743
78068NA+    NA+39489  21.139  38.538   4.818
78069NA+    NA+39490  33.603  22.067  11.109
78070NA+    NA+39491  40.465   3.863  14.455
78071NA+    NA+39492   8.866  11.339   2.336
78072NA+    NA+39493  11.276  26.557  11.585
78073NA+    NA+39494   6.696  37.844  12.977
78074NA+    NA+39495  18.609  24.481   2.683
78075NA+    NA+39496  38.023  21.546  14.915
78076NA+    NA+39497  14.253  28.101   1.889
78077NA+    NA+39498  34.400   6.304  10.544
78078NA+    NA+39499  40.822  39.051  11.062
78079NA+    NA+39500  27.957  40.318  11.409
78080NA+    NA+39501  28.172   5.912  12.853
78081NA+    NA+39502  20.123  28.109   3.348
78082NA+    NA+39503  26.125   0.403  13.908
78083NA+    NA+39504  43.500  15.717   0.455
78084NA+    NA+39505  19.259  32.901  12.450
78085NA+    NA+39506  44.842   4.854  10.152
78086NA+    NA+39507  25.670  22.529   3.298
78087NA+    NA+39508   1.286   8.335   2.748
78088NA+    NA+39509  32.037  24.152   0.726
78089NA+    NA+39510  32.004  43.998   3.385
78090NA+    NA+39511  20.158  32.138  12.419
78091NA+    NA+39512  40.973  23.567   1.433
78092NA+    NA+39513  34.107  42.965  14.780
78093NA+    NA+39514  14.595   0.385  14.359
78094NA+    NA+39515   0.307   8.242  10.547
78095NA+    NA+39516  16.669  17.290   1.235
78096NA+    NA+39517  40.535  26.466  10.155
78097NA+    NA+39518  32.022  39.065  10.586
78098NA+    NA+39519  17.238  22.644  12.529
78099NA+    NA+39520   1.421  29.963   4.298
78100NA+    NA+39521  41.525  23.141   2.685
78101NA+    NA+39522  12.791  32.993  12.025
78102NA+    NA+39523   0.345   0.966   2.716
78103NA+    NA+39524   8.785  26.108  13.858
78104NA+    NA+39525  11.696   1.465  11.531
78105NA+    NA+39526  18.762   3.825  11.879
78106NA+    NA+39527  38.514  38.339  14.452
78107NA+    NA+39528  28.169  32.535  14.496
78108NA+    NA+39529  27.619  39.052   3.346
78109NA+    NA+39530  32.543  10.305   1.430
78110NA+    NA+39531  19.255  12.225   0.332
78111NA+    NA+39532   3.299  31.136  11.601
78112NA+    NA+39533  35.494  42.903  12.849
78113NA+    NA+39534  12.846  42.912   3.856
78114NA+    NA+39535  38.416  15.220  11.046
78115NA+    NA+39536   4.935  15.649  12.874
78116NA+    NA+39537   1.834  24.069   2.384
78117NA+    NA+39538   6.706  31.423  14.443
78118NA+    NA+39539  10.656  25.694   0.456
78119NA+    NA+39540  27.194   8.240   0.386
78120NA+    NA+39541  30.160  30.465  12.084
78121NA+    NA+39542  44.770   7.909   1.928
78122NA+    NA+39543  29.624  14.160   1.385
78123NA+    NA+39544  39.035   6.789   4.827
78124NA+    NA+39545  18.569   2.883   4.605
78125NA+    NA+39546   3.343  37.442  12.960
78126NA+    NA+39547  40.859   2.722   1.878
78127NA+    NA+39548  43.346  26.008   1.893
78128NA+    NA+39549   9.815  41.011   0.291
78129NA+    NA+39550  37.507  43.980   2.819
78130NA+    NA+39551  27.516  38.436   4.744
78131NA+    NA+39552  44.837   0.963   0.392
78132NA+    NA+39553   4.441  11.341  10.425
78133NA+    NA+39554  32.962  19.720  13.799
78134NA+    NA+39555   8.821  26.481  12.403
78135NA+    NA+39556   7.312  44.868  10.585
78136NA+    NA+39557   9.231  10.678  11.931
78137NA+    NA+39558  11.229   4.809   2.386
78138NA+    NA+39559  25.198  32.508  12.557
78139NA+    NA+39560  24.031  17.125  11.956
78140NA+    NA+39561  39.414  25.191  13.971
78141NA+    NA+39562  32.529   4.351   3.306
78142NA+    NA+39563  31.413  18.658  10.944
78143NA+    NA+39564  34.038   6.894   2.861
78144NA+    NA+39565   8.281  43.010   2.841
78145NA+    NA+39566   1.880  16.215  13.055
78146NA+    NA+39567  32.114  19.571  12.499
78147NA+    NA+39568  12.272   1.456   2.843
78148NA+    NA+39569   9.333  29.136  13.928
78149NA+    NA+39570  15.162  10.216  11.916
78150NA+    NA+39571  39.873  30.923  13.507
78151NA+    NA+39572  18.115  34.461   0.436
78152NA+    NA+39573  40.978  42.895   5.186
78153NA+    NA+39574   1.976  25.508   1.251
78154NA+    NA+39575  23.187  42.894   2.398
78155NA+    NA+39576  44.924  44.386   3.245
78156NA+    NA+39577  15.197   7.378  12.475
78157NA+    NA+39578  12.802   4.787  13.429
78158NA+    NA+39579   8.394  22.048  12.440
78159NA+    NA+39580  10.797  34.994  12.074
78160NA+    NA+39581  25.203  11.714  10.506
78161NA+    NA+39582  16.649  16.577  11.408
78162NA+    NA+39583  31.493  20.527  11.980
78163NA+    NA+39584  42.971   2.854   4.795
78164NA+    NA+39585  20.134  43.917   4.184
78165NA+    NA+39586  32.622  31.053  12.997
78166NA+    NA+39587  44.985  17.683   3.737
78167NA+    NA+39588  32.026  31.605  13.371
78168NA+    NA+39589  19.202   3.743  12.369
78169NA+    NA+39590  25.505   0.933   4.793
78170NA+    NA+39591   3.751   0.372   1.929
78171NA+    NA+39592  40.020  13.713   0.908
78172NA+    NA+39593   5.202  19.191   3.160
78173NA+    NA+39594  42.862  34.492   3.769
78174NA+    NA+39595  11.779   8.856   1.218
78175NA+    NA+39596   9.336  39.463   2.226
78176NA+    NA+39597  20.527  18.710   4.258
78177NA+    NA+39598  44.897  40.897  14.881
78178NA+    NA+39599  18.593  44.409  12.512
78179NA+    NA+39600  37.559  12.806  11.594
78180NA+    NA+39601  26.589  26.194   2.300
78181NA+    NA+39602  14.284  44.308   3.320
78182NA+    NA+39603  36.472  44.295   1.429
78183NA+    NA+39604  26.473  10.684  14.389
78184NA+    NA+39605   9.718  15.273  13.306
78185NA+    NA+39606  21.160  36.985  11.103
78186NA+    NA+39607  11.223  34.922  13.366
78187NA+    NA+39608   7.267  35.551  11.129
78188NA+    NA+39609  26.977  22.520   3.698
78189NA+    NA+39610  24.990  21.634   1.379
78190NA+    NA+39611   4.810  36.514   0.471
78191NA+    NA+39612  32.590   9.797  14.346
78192NA+    NA+39613  44.898  40.887   4.602
78193NA+    NA+39614  23.087  25.030  10.587
78194NA+    NA+39615  19.187  42.900   2.783
78195NA+    NA+39616  18.238  25.634   4.626
78196NA+    NA+39617  38.935  27.940  12.571
78197NA+    NA+39618  27.630  23.520   3.774
78198NA+    NA+39619  43.411  39.028   1.832
78199NA+    NA+39620  29.492  41.852  14.472
78200NA+    NA+39621  33.533  21.113  12.946
78201NA+    NA+39622  36.509  35.104  10.417
78202NA+    NA+39623  20.134  28.551   2.681
78203NA+    NA+39624   1.371   0.284   3.779
78204NA+    NA+39625   1.450  40.329   2.690
78205NA+    NA+39626   5.277   1.480   4.232
78206NA+    NA+39627  15.590  13.721   0.964
78207NA+    NA+39628  28.550   3.392  10.982
78208NA+    NA+39629  25.668   5.384   0.833
78209NA+    NA+39630  40.427   3.387   2.333
78210NA+    NA+39631  15.791  31.968   0.397
78211NA+    NA+39632  44.953   3.246  11.597
78212NA+    NA+39633  33.440  38.058  13.472
78213NA+    NA+39634  19.087   3.357  11.024
78214NA+    NA+39635   0.974  40.950  11.882
78215NA+    NA+39636  37.541  37.435   4.170
78216NA+    NA+39637  44.808  19.116   0.441
78217NA+    NA+39638  31.107  28.634   3.265
78218NA+    NA+39639  13.762  18.099  10.563
78219NA+    NA+39640   7.373   1.421   0.322
78220NA+    NA+39641   8.166   4.261  14.516
78221NA+    NA+39642   7.298   9.848  11.088
78222NA+    NA+39643  30.050  25.626  11.865
78223NA+    NA+39644  12.173  23.197  14.427
78224NA+    NA+39645   2.272  41.377   3.219
78225NA+    NA+39646  13.720   9.266  12.835
78226NA+    NA+39647  29.945   2.278  10.425
78227NA+    NA+39648   2.729  29.078  14.845
78228NA+    NA+39649  31.463   8.830  11.530
78229NA+    NA+39650  16.774  23.494   3.836
78230NA+    NA+39651  31.086  42.974   0.732
78231NA+    NA+39652  12.259  26.694   1.351
78232NA+    NA+39653  22.585  36.068  13.410
78233NA+    NA+39654  16.631  16.132   0.884
78234NA+    NA+39655  28.998  40.525  12.532
78235NA+    NA+39656  11.679  19.202  11.872
78236NA+    NA+39657  20.731  32.956   1.385
78237NA+    NA+39658   5.208  40.509   1.360
78238NA+    NA+39659  18.214  37.543  13.814
78239NA+    NA+39660  35.110  40.539  10.037
78240NA+    NA+39661  42.939  26.195   4.654
78241NA+    NA+39662  23.730  24.667  12.514
78242NA+    NA+39663   3.843   6.335   3.361
78243NA+    NA+39664  32.487  22.087   2.727
78244NA+    NA+39665  35.986  41.888   2.690
78245NA+    NA+39666  33.443  44.350   0.937
78246NA+    NA+39667   4.807   0.755  13.893
78247NA+    NA+39668  16.639  11.636  10.629
78248NA+    NA+39669   2.272  30.626   5.229
78249NA+    NA+39670   9.210  36.378  12.443
78250NA+    NA+39671  29.006  33.075  11.549
78251NA+    NA+39672  39.826  21.122  11.050
78252NA+    NA+39673  22.066  14.727   2.686
78253NA+    NA+39674  28.040  40.425   2.725
78254NA+    NA+39675  14.301   7.805  10.897
78255NA+    NA+39676  33.575  24.656  11.969
78256NA+    NA+39677  25.540  36.403  11.932
78257NA+    NA+39678   8.295  17.738   3.683
78258NA+    NA+39679  21.664  29.951   4.351
78259NA+    NA+39680  32.906  22.617  13.942
78260NA+    NA+39681  38.931  17.704   0.938
78261NA+    NA+39682  41.033  38.938   0.379
78262NA+    NA+39683  41.862  11.633   4.651
78263NA+    NA+39684  29.064   3.795  14.516
78264NA+    NA+39685  17.616  44.370   1.399
78265NA+    NA+39686  33.961   1.450  10.419
78266NA+    NA+39687  17.156  29.501  13.374
78267NA+    NA+39688  14.291  36.002   0.444
78268NA+    NA+39689  27.608  32.927  12.919
78269NA+    NA+39690  29.023  16.778  13.893
78270NA+    NA+39691  14.108  22.233   0.784
78271NA+    NA+39692  21.516  10.875   2.355
78272NA+    NA+39693  36.554  36.909   1.912
78273NA+    NA+39694  44.927  44.884   3.861
78274NA+    NA+39695  37.529  38.075  10.443
78275NA+    NA+39696  17.302  10.194  14.850
78276NA+    NA+39697  20.248  22.668  11.088
78277NA+    NA+39698  14.153  19.107   4.305
78278NA+    NA+39699   4.338  25.202   2.721
78279NA+    NA+39700  17.100  30.478   1.834
78280NA+    NA+39701   4.751   9.311   1.794
78281CL-    CL-39702  28.595  21.736  11.930
78282CL-    CL-39703  31.109  13.794  13.548
78283CL-    CL-39704  15.638  38.060  14.940
78284CL-    CL-39705  17.212   3.370   0.445
78285CL-    CL-39706  34.405  16.593   0.904
78286CL-    CL-39707  22.205  12.350  12.399
78287CL-    CL-39708   9.876   1.421   4.311
78288CL-    CL-39709  10.369  21.162  13.424
78289CL-    CL-39710  25.499   6.908   1.385
78290CL-    CL-39711  39.556  27.110   2.723
78291CL-    CL-39712   7.239   0.313   4.821
78292CL-    CL-39713  25.009  30.936   3.256
78293CL-    CL-39714  35.070  17.065  12.559
78294CL-    CL-39715  10.738  44.958   0.463
78295CL-    CL-39716  28.970   9.250   2.203
78296CL-    CL-39717  31.535  43.380  13.357
78297CL-    CL-39718   9.389   8.675  13.827
78298CL-    CL-39719  44.326  23.063   1.863
78299CL-    CL-39720  19.057   6.228  11.899
78300CL-    CL-39721   8.892  13.340   1.758
78301CL-    CL-39722  35.898  25.990   2.394
78302CL-    CL-39723  12.335  33.965   2.850
78303CL-    CL-39724  21.587  38.385   0.826
78304CL-    CL-39725  16.687  35.527   2.710
78305CL-    CL-39726  26.171  19.083  11.115
78306CL-    CL-39727  12.638  30.652  10.562
78307CL-    CL-39728  42.781  38.977   3.313
78308CL-    CL-39729   2.262  33.499  13.490
78309CL-    CL-39730  38.942  31.473   4.304
78310CL-    CL-39731  18.744  41.806  12.075
78311CL-    CL-39732  15.679  27.546   2.867
78312CL-    CL-39733  18.253  34.462  10.618
78313CL-    CL-39734  14.818   1.866  10.587
78314CL-    CL-39735  23.201  30.107   1.355
78315CL-    CL-39736  33.021  36.353   0.258
78316CL-    CL-39737  41.448  21.664  11.014
78317CL-    CL-39738  30.493  32.400   1.388
78318CL-    CL-39739  22.070   8.901  12.377
78319CL-    CL-39740   4.427   7.308   2.216
78320CL-    CL-39741  11.246  26.573  14.373
78321CL-    CL-39742  17.680  43.503  12.365
78322CL-    CL-39743  28.175   0.852  11.896
78323CL-    CL-39744  18.692  38.876   0.250
78324CL-    CL-39745  39.051  40.978  14.835
78325CL-    CL-39746  42.354  23.024  13.869
78326CL-    CL-39747   9.303  26.673  12.066
78327CL-    CL-39748   7.861  43.789  11.399
78328CL-    CL-39749   4.352  34.485  14.445
78329CL-    CL-39750   0.431  29.935  11.091
78330CL-    CL-39751   3.220  21.750   4.128
78331CL-    CL-39752  17.802  11.749  12.493
78332CL-    CL-39753  12.154  39.017  10.578
78333CL-    CL-39754  16.627  27.034  13.497
78334CL-    CL-39755   4.394   2.303   1.877
78335CL-    CL-39756   7.359  17.142   3.762
78336CL-    CL-39757  12.211  32.902   4.126
78337CL-    CL-39758  30.101  18.071  13.449
78338CL-    CL-39759  25.059  28.076   1.860
78339CL-    CL-39760  34.517  19.666   2.290
78340CL-    CL-39761   0.438  12.704  12.824
78341CL-    CL-39762  35.518  12.643   4.666
78342CL-    CL-39763  20.753  19.687  10.446
78343CL-    CL-39764  33.493  16.775   4.309
78344CL-    CL-39765  39.541   4.896  12.000
78345CL-    CL-39766   9.259  16.181  10.644
78346CL-    CL-39767  23.203  41.525   2.717
78347CL-    CL-39768  36.070  28.145  12.425
78348CL-    CL-39769  33.425  35.894   2.896
78349CL-    CL-39770  37.999   0.914  11.611
78350CL-    CL-39771  19.608   1.897   4.160
78351CL-    CL-39772   3.930  15.105  14.011
78352CL-    CL-39773  27.182  20.266  11.568
78353CL-    CL-39774  13.179  36.055   5.121
78354CL-    CL-39775  39.509   9.733   0.463
78355CL-    CL-39776  17.635   9.368   1.760
78356CL-    CL-39777  20.743  10.843  13.353
78357CL-    CL-39778  36.064  26.579  10.507
78358CL-    CL-39779  44.367  39.046  14.339
78359CL-    CL-39780  16.809  17.772   2.215
78360CL-    CL-39781  23.075  43.331  13.993
78361CL-    CL-39782  32.464  24.084  10.557
78362CL-    CL-39783  41.478  43.989  13.468
78363CL-    CL-39784  11.837  15.263   1.800
78364CL-    CL-39785  12.773  31.432   1.320
78365CL-    CL-39786   5.746  21.612  13.852
78366CL-    CL-39787  29.159   1.911   1.299
78367CL-    CL-39788  30.540  24.666  12.049
78368CL-    CL-39789  36.092  40.921  11.087
78369CL-    CL-39790  19.137  11.833   0.867
78370CL-    CL-39791  18.773   6.790  13.446
78371CL-    CL-39792  22.047  15.639   3.714
78372CL-    CL-39793   1.481  20.546  14.299
78373CL-    CL-39794  25.578  17.265   2.745
78374CL-    CL-39795   5.849  35.030  12.562
78375CL-    CL-39796  25.634   6.894  14.026
78376CL-    CL-39797   5.757  34.972   4.345
78377CL-    CL-39798  17.610   2.919   1.837
78378CL-    CL-39799  10.784   1.393   1.414
78379CL-    CL-39800  25.498   6.752   1.825
78380CL-    CL-39801  28.169   1.779  12.512
78381CL-    CL-39802  22.214  41.315   0.314
78382CL-    CL-39803  28.185  42.839   2.804
78383CL-    CL-39804  24.204  13.605   0.395
78384CL-    CL-39805  28.056  28.085  13.058
78385CL-    CL-39806  14.752  35.530   1.909
78386CL-    CL-39807  32.598   9.806  12.560
78387CL-    CL-39808  15.709   8.711  13.464
78388CL-    CL-39809  21.717  41.797  10.903
78389CL-    CL-39810   2.891   8.684   3.176
78390CL-    CL-39811   2.831  13.256  12.470
78391CL-    CL-39812  35.053  20.746   3.201
78392CL-    CL-39813  35.935  21.542   4.748
78393CL-    CL-39814  26.649  12.686  13.051
78394CL-    CL-39815  13.651  26.475  14.511
78395CL-    CL-39816   7.232  32.525  13.819
78396CL-    CL-39817  18.117   3.745   3.308
78397CL-    CL-39818  14.283  14.643   0.313
78398CL-    CL-39819  24.635  21.218   1.766
78399CL-    CL-39820  44.459  16.205  14.429
78400CL-    CL-39821  27.532  29.442  11.050
78401CL-    CL-39822  11.817  40.449  11.565
78402CL-    CL-39823  36.072   6.301  11.065
78403CL-    CL-39824  24.530  19.095   3.815
78404CL-    CL-39825   6.363  41.855  12.096
78405CL-    CL-39826  30.961  27.570   0.850
78406CL-    CL-39827  43.394  32.899   1.387
78407CL-    CL-39828  39.518  31.931  10.986
78408CL-    CL-39829  41.333  17.677   1.846
78409CL-    CL-39830  28.132  15.790   5.267
78410CL-    CL-39831   2.455  11.151   2.699
78411CL-    CL-39832  24.021  30.128  13.463
78412CL-    CL-39833  10.656  11.711  10.992
78413CL-    CL-39834  42.786   2.961   0.951
78414CL-    CL-39835  27.196   2.866   1.806
78415CL-    CL-39836  26.558   4.705   4.630
78416CL-    CL-39837  19.216  35.599  12.460
78417CL-    CL-39838  22.741  18.204  14.368
78418CL-    CL-39839  35.510  43.406   4.205
78419CL-    CL-39840   3.326   9.294  12.428
78420CL-    CL-39841  40.355   9.278   1.267
78421CL-    CL-39842   4.766  40.343   3.159
78422CL-    CL-39843  40.417  10.850   4.307
78423CL-    CL-39844  39.009  44.505   4.124
78424CL-    CL-39845  34.871   0.944   2.357
78425CL-    CL-39846   2.872   6.834   3.719
78426CL-    CL-39847  15.157   7.254  11.394
78427CL-    CL-39848   3.451  31.933   0.962
78428CL-    CL-39849  23.661   1.826  13.510
78429CL-    CL-39850   2.830  34.910   4.634
78430CL-    CL-39851  11.215  33.897  12.402
78431CL-    CL-39852  38.527  31.619  13.878
78432CL-    CL-39853  42.897  34.446   1.433
78433CL-    CL-39854  28.982   1.762   1.698
78434CL-    CL-39855  35.935  17.154   2.872
78435CL-    CL-39856  15.654  24.617  10.919
78436CL-    CL-39857   1.275  18.244  14.979
78437CL-    CL-39858  20.169  13.344   0.727
78438CL-    CL-39859  23.649  21.129   1.751
78439CL-    CL-39860  37.004  41.971   3.766
78440CL-    CL-39861  39.853  25.590  12.343
78441CL-    CL-39862  36.944   8.355  12.558
78442CL-    CL-39863  28.059  44.408  12.385
78443CL-    CL-39864  12.800  26.992   3.837
78444CL-    CL-39865   0.795  34.588   3.333
78445CL-    CL-39866  39.984  22.510  10.482
78446CL-    CL-39867  23.698  18.692  12.874
78447CL-    CL-39868  12.789  15.807   3.789
78448CL-    CL-39869  34.005  38.055   0.410
78449CL-    CL-39870  31.063  39.544  13.994
78450CL-    CL-39871   7.282  21.125  12.067
78451CL-    CL-39872  12.233  38.041   2.893
78452CL-    CL-39873  25.042  23.514  10.925
78453CL-    CL-39874   6.782  36.041   0.322
78454CL-    CL-39875  34.040  36.879  11.411
78455CL-    CL-39876  24.559  36.567  14.868
78456CL-    CL-39877  44.392  18.124   1.430
78457CL-    CL-39878  36.426  14.146   0.386
78458CL-    CL-39879  29.530   9.743  13.874
78459CL-    CL-39880  15.715   7.190  14.281
78460CL-    CL-39881  38.927  39.548   3.247
78461CL-    CL-39882  33.009  12.690  12.085
78462CL-    CL-39883  20.611   6.818  11.415
78463CL-    CL-39884  34.505  37.845   0.866
78464CL-    CL-39885  19.259   9.256  13.492
78465CL-    CL-39886   8.279   5.861  14.769
78466CL-    CL-39887  16.264  21.028   0.850
78467CL-    CL-39888   9.262  36.985  14.891
78468CL-    CL-39889  27.058  28.068   2.197
78469CL-    CL-39890  24.489  25.144  11.857
78470CL-    CL-39891   9.773   6.416   4.663
78471CL-    CL-39892  39.027  16.807  10.533
78472CL-    CL-39893  34.067  30.044   2.694
78473CL-    CL-39894  22.110  26.485   4.676
78474CL-    CL-39895  19.238   8.245  13.491
78475CL-    CL-39896  43.992  43.410   1.329
78476CL-    CL-39897   5.787  21.115   4.711
78477CL-    CL-39898  30.985  21.030  11.916
78478CL-    CL-39899  13.636  13.345   1.252
78479CL-    CL-39900  27.057   7.416  10.006
78480CL-    CL-39901  35.073   9.272  12.573
78481CL-    CL-39902  18.173   9.839   4.155
78482CL-    CL-39903  14.208  11.800   3.243
78483CL-    CL-39904  40.986  33.018   4.669
78484CL-    CL-39905  22.562  26.678   4.806
78485CL-    CL-39906   1.881  39.956   2.225
78486CL-    CL-39907   4.343  33.410  13.482
78487CL-    CL-39908  15.252  40.991  10.546
78488CL-    CL-39909  13.745  42.372  11.442
78489CL-    CL-39910  22.685  43.368  10.978
78490CL-    CL-39911  12.765  10.810   2.750
78491CL-    CL-39912  21.525  41.482  13.914
78492CL-    CL-39913  24.049  44.348   2.408
78493CL-    CL-39914   1.772  35.553  10.404
78494CL-    CL-39915  39.504  12.338   1.919
78495CL-    CL-39916  31.481  31.465  14.292
78496CL-    CL-39917   2.235   7.733   3.357
78497CL-    CL-39918  15.638   4.821   0.773
78498CL-    CL-39919  32.626  43.483  11.587
78499CL-    CL-39920  37.441  33.407  13.847
78500CL-    CL-39921   3.712  43.895   2.310
78501CL-    CL-39922   4.415  44.876  10.527
78502CL-    CL-39923   1.976  25.080   5.081
78503CL-    CL-39924  40.996  19.047  12.016
78504CL-    CL-39925  31.025  26.168  12.942
78505CL-    CL-39926  38.376   3.926   2.821
78506CL-    CL-39927  29.466  41.347   0.337
78507CL-    CL-39928  42.509  22.224   4.251
78508CL-    CL-39929  14.687  19.186  11.591
78509CL-    CL-39930  39.036   1.252  12.878
78510CL-    CL-39931  11.326  44.502   2.667
78511CL-    CL-39932  29.537   6.258   3.262
78512CL-    CL-39933   7.828  41.995  10.896
78513CL-    CL-39934  27.675  13.754   4.671
78514CL-    CL-39935   5.379   7.687  12.096
78515CL-    CL-39936   6.867  20.166  14.425
78516CL-    CL-39937   8.349  35.488  13.462
78517CL-    CL-39938  44.847  31.502  11.983
78518CL-    CL-39939  17.774   4.373   2.273
78519CL-    CL-39940   4.425  41.829   4.598
78520CL-    CL-39941  30.132  32.418   2.827
78521CL-    CL-39942   3.440   5.718   2.409
78522CL-    CL-39943  42.990  18.255  13.887
78523CL-    CL-39944  32.071  12.748  14.399
78524CL-    CL-39945   5.901  33.539   4.686
78525CL-    CL-39946  44.286   7.775  12.996
78526CL-    CL-39947  35.873   7.221  14.318
78527CL-    CL-39948  35.910   2.885   3.159
78528CL-    CL-39949  15.306   2.762   4.766
78529CL-    CL-39950  30.535   7.287  12.996
78530CL-    CL-39951  19.045  29.134   1.368
78531CL-    CL-39952  13.738  28.578   1.772
78532CL-    CL-39953  35.970  15.711  13.313
78533CL-    CL-39954  27.560  37.074  14.794
78534CL-    CL-39955  43.971   2.742  12.476
78535CL-    CL-39956  31.508  37.471   0.732
78536CL-    CL-39957  24.538  30.936  14.830
78537CL-    CL-39958   4.727   8.296   2.241
78538CL-    CL-39959  22.179  31.919  11.977
78539CL-    CL-39960   2.945  13.615  14.782
78540CL-    CL-39961  29.518  39.547   3.661
78541CL-    CL-39962  36.856  13.832   0.961
78542CL-    CL-39963   5.269  10.244  10.936
78543CL-    CL-39964  26.592  36.085   1.218
78544CL-    CL-39965  43.488  22.240  14.493
78545CL-    CL-39966  32.393  11.759   5.257
78546CL-    CL-39967   1.348   5.261  11.950
78547CL-    CL-39968  15.102  44.505  14.482
78548CL-    CL-39969   0.413  40.845  12.507
78549CL-    CL-39970  27.191   6.389  14.788
78550CL-    CL-39971  12.802   7.215   4.130
78551CL-    CL-39972  44.342  25.198  14.933
78552CL-    CL-39973  40.990  32.584  12.025
78553CL-    CL-39974  18.548   0.922   3.169
78554CL-    CL-39975   7.832   2.420   1.707
78555CL-    CL-39976  21.588  16.099   1.425
78556CL-    CL-39977  34.882  15.642   2.882
78557CL-    CL-39978  27.026  31.437  14.902
78558CL-    CL-39979  40.511  17.777  12.896
78559CL-    CL-39980  42.359  29.660   1.726
78560CL-    CL-39981   1.265   8.821   4.274
78561CL-    CL-39982   4.800  41.911  12.985
78562CL-    CL-39983   7.673   6.415  12.041
78563CL-    CL-39984   8.167  20.223  11.497
78564CL-    CL-39985  26.165  29.092  12.500
78565CL-    CL-39986  25.659   2.241  14.902
78566CL-    CL-39987  35.939  34.580  14.933
78567CL-    CL-39988  18.274  35.599  14.771
78568CL-    CL-39989  22.639  19.244   1.297
78569CL-    CL-39990  23.228  39.863   4.181
78570CL-    CL-39991  16.590   8.384  13.829
78571CL-    CL-39992  20.251   8.277  14.394
78572CL-    CL-39993  18.780  44.492   0.801
78573CL-    CL-39994  12.259  11.227   3.854
78574CL-    CL-39995  43.848   1.797   4.318
78575CL-    CL-39996  44.851   7.338   0.818
78576CL-    CL-39997  19.544   7.717  10.906
78577CL-    CL-39998  17.077   8.388   3.786
78578CL-    CL-39999  44.976  12.814   4.818
78579CL-    CL-40000  38.408  36.942  12.499
78580CL-    CL-40001  38.019  43.506  10.947
78581CL-    CL-40002  13.800   7.249  14.940
78582CL-    CL-40003  28.614  19.264   0.942
78583CL-    CL-40004  42.783  33.014  13.466
78584CL-    CL-40005  25.017  36.551   4.269
78585CL-    CL-40006  38.003  41.981  12.063
78586CL-    CL-40007  38.428  23.161   0.329
78587CL-    CL-40008  23.988  42.297  13.869
78588CL-    CL-40009  20.166  35.384  13.464
78589CL-    CL-40010  27.952  18.671  11.950
78590CL-    CL-40011  24.073  36.375  10.948
78591CL-    CL-40012  25.074  12.644   4.800
78592CL-    CL-40013  22.684   8.665  14.908
78593CL-    CL-40014  22.155  33.923   2.762
78594CL-    CL-40015  35.539  14.200  11.935
78595CL-    CL-40016  25.585  17.668   2.208
78596CL-    CL-40017   7.319  41.870  12.442
78597CL-    CL-40018  38.950  31.516   2.246
78598CL-    CL-40019  26.637  23.121   1.835
78599CL-    CL-40020   7.172  10.690   1.862
78600CL-    CL-40021  37.917   3.891   3.276
78601CL-    CL-40022  22.631  33.601   3.264
78602CL-    CL-40023  40.816  36.050   0.424
78603CL-    CL-40024  38.411  12.259   2.302
78604CL-    CL-40025  28.160   9.790   2.359
78605CL-    CL-40026   2.365   2.885  14.860
78606CL-    CL-40027   9.871  17.608   0.964
78607CL-    CL-40028   0.255  28.047  10.605
78608CL-    CL-40029  39.356  38.070  13.472
78609CL-    CL-40030  19.074  34.505   3.823
78610CL-    CL-40031  20.225  21.144   4.208
78611CL-    CL-40032  14.291  22.701   4.118
78612CL-    CL-40033  41.996   4.208  11.001
78613CL-    CL-40034  11.242  27.020  10.442
78614CL-    CL-40035  34.084  25.597  14.500
78615CL-    CL-40036   2.282  39.037  10.592
78616CL-    CL-40037  44.489  24.064   4.641
78617CL-    CL-40038  27.562  42.379  12.486
78618CL-    CL-40039   3.880  42.421   3.282
78619CL-    CL-40040  42.962  43.812   4.666
78620CL-    CL-40041   1.939  24.105  14.828
78621CL-    CL-40042  33.435   9.234  10.552
78622CL-    CL-40043   9.396  16.205  11.091
78623CL-    CL-40044  30.610  23.618  11.381
78624CL-    CL-40045  25.642  41.494   0.441
78625CL-    CL-40046  21.519  28.019   1.735
78626CL-    CL-40047  34.490  10.343   3.653
78627CL-    CL-40048  25.151   3.300  10.034
78628CL-    CL-40049  18.617   2.739  10.590
78629CL-    CL-40050   0.424  14.216  11.376
78630CL-    CL-40051  41.866  21.559  11.457
78631CL-    CL-40052  19.277  19.668  11.542
78632CL-    CL-40053  38.490  15.210   4.219
78633CL-    CL-40054  44.443   8.886   2.295
78634CL-    CL-40055   3.947  16.107  11.113
78635CL-    CL-40056  43.332   7.289  14.335
78636CL-    CL-40057   1.835  11.757   4.143
78637CL-    CL-40058  43.334  42.823  13.988
78638CL-    CL-40059  38.963   3.364   0.947
78639CL-    CL-40060  11.816  38.955  13.025
78640CL-    CL-40061  29.002   6.242  14.380
78641CL-    CL-40062  29.145  44.772   4.212
78642CL-    CL-40063   5.837  14.757   3.245
78643CL-    CL-40064  25.015  20.641   4.121
78644CL-    CL-40065  21.142   4.288   1.910
78645CL-    CL-40066   8.810   3.396   4.820
78646CL-    CL-40067  23.503  25.599   0.277
78647CL-    CL-40068   5.205  13.295   2.401
78648CL-    CL-40069  11.232  39.032  13.918
78649CL-    CL-40070  17.580  10.778  13.390
78650CL-    CL-40071  18.750  25.696  12.060
78651CL-    CL-40072  39.041   9.326   1.267
78652CL-    CL-40073   2.923  23.568   0.739
78653CL-    CL-40074   5.816   0.847   0.882
78654CL-    CL-40075   0.920  20.549  13.905
78655CL-    CL-40076  32.125   5.416   0.787
78656CL-    CL-40077   0.404  18.174   2.297
78657CL-    CL-40078  12.158  11.199  13.993
78658CL-    CL-40079  19.768  26.038  12.497
78659CL-    CL-40080  17.730  22.618   1.222
78660CL-    CL-40081  17.726  16.091   2.358
78661CL-    CL-40082  38.412  26.648  11.908
78662CL-    CL-40083  12.269  27.061   2.895
78663CL-    CL-40084  37.352  11.786  14.001
78664CL-    CL-40085  40.541  31.403   4.732
78665CL-    CL-40086  33.083  36.577   1.882
78666CL-    CL-40087  32.943  36.090   2.189
78667CL-    CL-40088  17.066   1.423   3.665
78668CL-    CL-40089   9.276  36.547  12.978
78669CL-    CL-40090  11.780  23.575   1.419
78670CL-    CL-40091  32.048  40.932  10.931
78671CL-    CL-40092   5.785  39.317  14.788
78672CL-    CL-40093  40.873  17.101   0.966
78673CL-    CL-40094  42.843   2.243   2.704
78674CL-    CL-40095  41.532  35.601   3.176
78675CL-    CL-40096   4.870  35.086   2.686
78676CL-    CL-40097  23.051  33.607  14.382
78677CL-    CL-40098  17.094  19.672   3.220
78678CL-    CL-40099  35.505  16.811  12.833
78679CL-    CL-40100  26.968  18.204   2.328
78680CL-    CL-40101  29.439  23.567  12.903
78681CL-    CL-40102  16.808  17.572  12.835
78682CL-    CL-40103  15.664  10.764   4.333
78683CL-    CL-40104   2.899  20.066  13.866
78684CL-    CL-40105  42.343   3.763  13.884
78685CL-    CL-40106  39.341  30.041   4.723
78686CL-    CL-40107  19.282  18.775   2.187
78687CL-    CL-40108  15.141  24.625   4.813
78688CL-    CL-40109  17.132  27.133   2.851
78689CL-    CL-40110   2.293  41.979   4.780
78690CL-    CL-40111  16.313  13.718   3.342
78691CL-    CL-40112  21.540  18.113   1.825
78692CL-    CL-40113  16.681   4.774   2.867
78693CL-    CL-40114   9.206   9.227   4.314
78694CL-    CL-40115  32.007  13.238   0.304
78695CL-    CL-40116  18.759  18.633   4.173
78696CL-    CL-40117  21.560   2.449   3.738
78697CL-    CL-40118  21.036  37.860   3.855
78698CL-    CL-40119   6.906  16.282   0.257
78699CL-    CL-40120  22.022  37.580  12.466
78700CL-    CL-40121   8.683   4.943   1.413
78701CL-    CL-40122  41.349  36.527   2.356
78702CL-    CL-40123  11.840  10.186   3.648
78703CL-    CL-40124  18.703   6.288  10.543
78704CL-    CL-40125  33.527   3.932   2.868
78705CL-    CL-40126  31.642  14.719  10.534
78706CL-    CL-40127  42.392  34.949   3.314
78707CL-    CL-40128   8.212  10.264   3.834
78708CL-    CL-40129  28.129   2.740  14.486
78709CL-    CL-40130  13.345   6.919   0.437
78710CL-    CL-40131  30.108  25.089  13.047
78711CL-    CL-40132  10.733  18.713   4.173
78712CL-    CL-40133  35.914  32.484   3.325
78713CL-    CL-40134  43.447  22.197   0.392
78714CL-    CL-40135   1.332  35.435   4.175
78715CL-    CL-40136  43.321   7.280  13.517
78716CL-    CL-40137   9.667   7.263   3.176
78717CL-    CL-40138  10.217  33.619   0.847
78718CL-    CL-40139  33.481  18.119  14.412
78719CL-    CL-40140  18.290  37.882   3.741
78720CL-    CL-40141  35.566   7.207  14.855
78721CL-    CL-40142  14.632  13.191   3.865
78722CL-    CL-40143  25.485  42.014   1.847
78723CL-    CL-40144  41.878  43.852  11.525
78724CL-    CL-40145  38.908  20.680   9.936
78725CL-    CL-40146  42.855  30.413   0.884
78726CL-    CL-40147  22.582  35.512   3.870
78727CL-    CL-40148  16.234  26.568   1.330
78728CL-    CL-40149  24.200  42.362   3.810
78729CL-    CL-40150  11.674  30.525   1.394
78730CL-    CL-40151  36.361  17.642  14.793
78731CL-    CL-40152  41.536  11.354  12.997
78732CL-    CL-40153   9.754  31.639   1.876
78733CL-    CL-40154  11.180  43.402  12.879
78734CL-    CL-40155  27.565   3.455   3.266
78735CL-    CL-40156  22.196  10.225   2.765
78736CL-    CL-40157  23.221  16.255  14.514
78737CL-    CL-40158  35.561   3.293  14.500
78738CL-    CL-40159  17.281  19.697  10.642
78739CL-    CL-40160   4.941  44.905  14.803
78740CL-    CL-40161  12.665  19.731  11.523
78741CL-    CL-40162  38.040  26.576   1.278
78742CL-    CL-40163   4.715  39.480   0.865
78743CL-    CL-40164  37.906   9.384   2.867
78744CL-    CL-40165  39.880  10.182   4.140
78745CL-    CL-40166   4.901   6.706   1.806
78746CL-    CL-40167  10.845   7.765  13.320
78747CL-    CL-40168  13.189   2.267   1.301
78748CL-    CL-40169  39.384  35.931   3.198
78749CL-    CL-40170  43.955  23.150  13.918
78750CL-    CL-40171   1.294  17.083  11.581
78751CL-    CL-40172  41.914  29.991  11.038
78752CL-    CL-40173  42.452  11.745  11.533
78753CL-    CL-40174  14.736  36.549   0.345
78754CL-    CL-40175  18.188  25.595  12.865
78755CL-    CL-40176  20.568  17.754   4.617
78756CL-    CL-40177  34.118  22.520  11.418
78757CL-    CL-40178   3.932  36.871   2.385
78758CL-    CL-40179  21.227   3.460  10.954
78759CL-    CL-40180   9.864   8.359   0.465
78760CL-    CL-40181  42.443  41.338  11.534
78761CL-    CL-40182  15.599  37.409   3.247
78762CL-    CL-40183   2.337   9.353   3.765
78763CL-    CL-40184   6.721  36.058  10.561
78764CL-    CL-40185   4.853  43.325  10.917
78765CL-    CL-40186  43.774  16.299   3.861
78766CL-    CL-40187  11.793   3.812   0.831
78767CL-    CL-40188   0.282  16.118   1.291
78768CL-    CL-40189  39.423  33.457   2.721
78769CL-    CL-40190  28.165  17.251   5.169
78770CL-    CL-40191   8.733  41.993   1.316
78771CL-    CL-40192  26.488  40.519  14.862
78772CL-    CL-40193   5.315  11.189   1.811
78773CL-    CL-40194  37.975  29.928  12.048
78774CL-    CL-40195   6.324  38.565  12.477
78775CL-    CL-40196  24.096  23.669  12.528
78776CL-    CL-40197  25.965  39.428  14.836
78777CL-    CL-40198  43.289   2.451   0.334
78778CL-    CL-40199  39.547  28.645   1.335
78779CL-    CL-40200  38.365  36.843  11.414
78780CL-    CL-40201   2.747  44.375   2.406
78781CL-    CL-40202  25.125   3.296   0.365
78782CL-    CL-40203  18.576   9.690  11.009
78783CL-    CL-40204  15.635  29.644   0.755
78784CL-    CL-40205   4.381  41.321  11.375
78785CL-    CL-40206  40.480  22.612   4.702
78786CL-    CL-40207  41.536  23.645  14.920
78787CL-    CL-40208  16.274   2.237  12.510
78788CL-    CL-40209  16.153  20.711   1.900
78789CL-    CL-40210  23.023  32.510   2.178
78790CL-    CL-40211  10.351   2.946   3.342
78791CL-    CL-40212  43.790  26.149  11.009
78792CL-    CL-40213  21.602  19.773   2.255
78793CL-    CL-40214  23.725  25.557  11.972
78794CL-    CL-40215  31.924  34.047  13.906
78795CL-    CL-40216  37.557  38.914   4.226
78796CL-    CL-40217  23.034  35.998  14.987
78797CL-    CL-40218  12.800   0.494   1.250
78798CL-    CL-40219  15.304  26.046   3.728
78799CL-    CL-40220  42.398  11.692   3.856
78800CL-    CL-40221  30.042   4.401  14.354
78801CL-    CL-40222  16.173  24.099   3.342
78802CL-    CL-40223   3.318  26.199  14.860
78803CL-    CL-40224  30.009  36.901  13.895
78804CL-    CL-40225   3.849  36.456   2.770
78805CL-    CL-40226  44.306  29.669  13.850
78806CL-    CL-40227  19.571  36.890   0.776
78807CL-    CL-40228  23.110  35.422  14.938
78808CL-    CL-40229  39.059  10.145  10.572
78809CL-    CL-40230  27.684  31.992  13.064
78810CL-    CL-40231  13.760   5.369  10.509
78811CL-    CL-40232  26.660  36.404  14.335
78812CL-    CL-40233  36.584  39.916  11.968
78813CL-    CL-40234  14.326   0.988   4.668
78814CL-    CL-40235  10.715  32.508   4.193
78815CL-    CL-40236  20.118  19.165  13.998
78816CL-    CL-40237  24.088  30.571  10.113
78817CL-    CL-40238  27.177  32.532   0.297
78818CL-    CL-40239  32.059  17.307   2.413
78819CL-    CL-40240  34.936  10.766  11.591
78820CL-    CL-40241  30.015  41.348   4.352
78821CL-    CL-40242  31.437   8.357  12.441
78822CL-    CL-40243  18.680  22.214  12.989
78823CL-    CL-40244  42.973  28.665  10.929
78824CL-    CL-40245  24.002   8.858  11.887
78825CL-    CL-40246  10.316  35.106  11.376
78826CL-    CL-40247  13.674  17.080  11.069
78827CL-    CL-40248   8.161   2.938   1.816
78828CL-    CL-40249  13.650   6.705  12.863
78829CL-    CL-40250  20.628  38.846  12.489
78830CL-    CL-40251   7.170  33.091  13.837
78831CL-    CL-40252  32.425  17.560   0.890
78832CL-    CL-40253  14.210   2.359  13.061
78833CL-    CL-40254  44.967  21.150  12.994
78834CL-    CL-40255  35.018  21.624   4.796
78835CL-    CL-40256  25.096   5.718  13.525
78836CL-    CL-40257   0.311  36.556   4.261
78837CL-    CL-40258  14.683  16.574   2.305
78838CL-    CL-40259  40.352  12.197   4.711
78839CL-    CL-40260  38.960  43.008   1.747
78840CL-    CL-40261  14.743  13.204   1.228
78841CL-    CL-40262  11.681  28.457   1.834
78842CL-    CL-40263   9.680   5.892  11.426
78843CL-    CL-40264   2.289  32.048   1.840
78844CL-    CL-40265  38.035   0.408   0.948
78845CL-    CL-40266   8.357  32.634  13.918
78846CL-    CL-40267  34.465  44.000  12.893
78847CL-    CL-40268  22.664  24.083   4.798
78848CL-    CL-40269  19.122  42.468  12.082
78849CL-    CL-40270  27.022  39.968   2.194
78850CL-    CL-40271  22.578  35.045   3.807
78851CL-    CL-40272  39.051  25.185  13.323
78852CL-    CL-40273  18.600  29.145  12.914
78853CL-    CL-40274  16.150   7.338   1.445
78854CL-    CL-40275  27.052   9.781  12.894
78855CL-    CL-40276   0.781   6.677   4.172
78856CL-    CL-40277  40.957   7.219   4.316
78857CL-    CL-40278  28.611  39.497  11.929
78858CL-    CL-40279   1.875  18.669  13.359
78859CL-    CL-40280  28.483  18.665  13.796
78860CL-    CL-40281   9.751  23.205  13.378
78861CL-    CL-40282  22.508   0.320   1.276
78862CL-    CL-40283  12.797  43.885   3.194
78863CL-    CL-40284  28.044  29.979  12.559
78864CL-    CL-40285  22.189  14.721  10.961
78865CL-    CL-40286   8.839  29.629   1.298
78866CL-    CL-40287  44.287  42.970  12.922
78867CL-    CL-40288  28.534  16.162  12.997
78868CL-    CL-40289   3.362  25.052  11.949
78869CL-    CL-40290  23.984  12.303  11.919
78870CL-    CL-40291  43.816  18.055  11.868
78871CL-    CL-40292  21.102  44.807   4.317
78872CL-    CL-40293  30.572  22.144  11.479
78873CL-    CL-40294  35.395  26.184   1.695
78874CL-    CL-40295   9.747  12.731  10.903
78875CL-    CL-40296  20.208   0.770   1.345
78876CL-    CL-40297  17.735  12.333   4.621
78877CL-    CL-40298  41.420  40.323  12.580
78878CL-    CL-40299   4.405  37.570  14.911
78879CL-    CL-40300  31.598  29.924   4.615
78880CL-    CL-40301  20.578  44.289  14.450
78881CL-    CL-40302  13.131  11.317  10.964
78882CL-    CL-40303  29.544  18.258   0.808
78883CL-    CL-40304  44.757  18.628   4.761
78884CL-    CL-40305  28.673  10.769   3.762
78885CL-    CL-40306  34.411  41.524  14.428
78886CL-    CL-40307  27.582  28.161  10.601
78887CL-    CL-40308  10.243  19.069   0.469
78888CL-    CL-40309  20.606  39.484  11.384
78889CL-    CL-40310  11.805   4.857  14.946
78890CL-    CL-40311  28.662   0.947  10.986
78891CL-    CL-40312  32.091  22.734   2.352
78892CL-    CL-40313  27.583  31.133  13.863
78893CL-    CL-40314  11.691  36.072   0.291
78894CL-    CL-40315  18.650  19.158  13.857
78895CL-    CL-40316  40.862  30.098  11.060
78896CL-    CL-40317  34.891  36.971   2.667
78897CL-    CL-40318  13.830   4.936  11.045
78898CL-    CL-40319  10.145  34.088   0.944
78899CL-    CL-40320  22.027  18.619  12.902
78900CL-    CL-40321  24.636  20.661  14.833
78901CL-    CL-40322  12.720  24.203  10.455
78902CL-    CL-40323   1.899   2.739  14.501
78903CL-    CL-40324   3.765  26.060   1.703
78904CL-    CL-40325  35.858  39.500  13.483
78905CL-    CL-40326  19.595  42.388   4.831
78906CL-    CL-40327  15.123  39.012   2.186
78907CL-    CL-40328  37.535  34.590  11.441
78908CL-    CL-40329  23.116   8.225   1.927
78909CL-    CL-40330  28.475   3.251   2.759
78910CL-    CL-40331  24.152  16.795   3.816
78911CL-    CL-40332   1.830  30.436   4.773
78912CL-    CL-40333  14.673   0.766   4.602
78913CL-    CL-40334  18.718   5.225   4.712
78914CL-    CL-40335   1.902  43.412  13.316
78915CL-    CL-40336  44.423  32.089  14.917
78916CL-    CL-40337  19.559  19.193   1.823
78917CL-    CL-40338  10.857   5.860  13.474
78918CL-    CL-40339  10.847   3.857   3.721
78919CL-    CL-40340  15.814  33.612   0.809
78920CL-    CL-40341  22.691   0.309   4.642
78921CL-    CL-40342  34.032   4.818  11.961
78922CL-    CL-40343  15.618  25.019  11.075
78923CL-    CL-40344  24.037  23.016   3.701
78924CL-    CL-40345   0.283   7.236   3.257
78925CL-    CL-40346  27.550  33.593  14.400
78926CL-    CL-40347  12.316   0.943   3.672
78927CL-    CL-40348   7.184  15.262  11.377
78928CL-    CL-40349  31.477  10.293  11.892
78929CL-    CL-40350  30.929  40.456   2.821
78930CL-    CL-40351  31.041  43.322  14.462
78931CL-    CL-40352  44.982   8.202   3.289
78932CL-    CL-40353  18.106  12.295   1.314
78933CL-    CL-40354  26.702  26.133  11.861
78934CL-    CL-40355  36.990  16.102   1.927
78935CL-    CL-40356   3.944  10.377  14.953
78936CL-    CL-40357  28.553  15.197   9.973
78937CL-    CL-40358  36.488   0.829  13.494
78938CL-    CL-40359  18.755  18.589   3.241
78939CL-    CL-40360  36.885  28.639  14.759
78940CL-    CL-40361  28.176   8.740   0.335
78941CL-    CL-40362  30.514  13.186   2.370
78942CL-    CL-40363   3.731  43.330   4.784
78943CL-    CL-40364  21.712  32.540   4.753
78944CL-    CL-40365  39.990  25.713   0.926
78945CL-    CL-40366  26.663  33.892   0.864
78946CL-    CL-40367   3.793  44.896  14.362
78947CL-    CL-40368  42.475  40.525   4.140
78948CL-    CL-40369  26.654  37.027   2.179
78949CL-    CL-40370   9.879  18.058   4.832
78950CL-    CL-40371   6.205  41.871  14.881
78951CL-    CL-40372  33.079  16.624  14.932
78952CL-    CL-40373  12.775  33.475   0.828
78953CL-    CL-40374  18.589  24.655  12.839
78954CL-    CL-40375  14.175   1.478  11.458
78955CL-    CL-40376  10.815   1.921  13.950
78956CL-    CL-40377  24.031  23.659  11.859
78957CL-    CL-40378  34.530  27.076   2.730
78958CL-    CL-40379  11.227  12.638  13.030
78959CL-    CL-40380  25.490  16.194   3.758
78960CL-    CL-40381  10.682  24.142   0.926
78961CL-    CL-40382  26.957  23.211   0.770
78962CL-    CL-40383  43.772  35.863   1.765
78963CL-    CL-40384  36.424  43.013  13.902
78964CL-    CL-40385  14.188  29.593  14.856
78965CL-    CL-40386  34.088  24.049  10.600
78966CL-    CL-40387  37.983   3.867  12.509
78967CL-    CL-40388  34.536  30.499   3.263
78968CL-    CL-40389  36.393  11.759   0.732
78969CL-    CL-40390  19.603  36.372  13.364
78970CL-    CL-40391   4.830  36.515  12.917
78971CL-    CL-40392  11.359   1.919  14.864
78972CL-    CL-40393   4.309  23.211  14.874
78973CL-    CL-40394  37.843   0.774   0.790
78974CL-    CL-40395  35.105  40.455  10.437
78975CL-    CL-40396  43.431   0.419  13.820
78976CL-    CL-40397  10.725  36.867   4.345
78977CL-    CL-40398  28.618   2.745   4.145
78978CL-    CL-40399  31.588  17.669  10.912
78979CL-    CL-40400   0.342  13.741   3.337
78980CL-    CL-40401  36.359  11.153   2.287
78981CL-    CL-40402  27.514  35.475   1.934
78982CL-    CL-40403   5.247  30.024   9.448
78983CL-    CL-40404  28.508  12.202   2.761
78984CL-    CL-40405  33.889  17.131   3.312
78985CL-    CL-40406  10.823  32.523  12.870
78986CL-    CL-40407  26.957   7.740   3.290
78987CL-    CL-40408  10.652  24.592  10.549
78988CL-    CL-40409   4.338  34.032   1.923
78989CL-    CL-40410   3.791  22.647   5.612
78990CL-    CL-40411   2.426  22.699  14.283
78991CL-    CL-40412  37.520  12.282   0.398
78992CL-    CL-40413  14.789  11.755  14.002
78993CL-    CL-40414  39.947  22.155   3.729
78994CL-    CL-40415  36.890  37.853   0.741
78995CL-    CL-40416  25.988  25.655  12.489
78996CL-    CL-40417   6.722  19.604  14.377
78997CL-    CL-40418  30.164  32.510   0.304
78998CL-    CL-40419  24.994  43.811  14.401
78999CL-    CL-40420  17.560   7.816   4.215
79000CL-    CL-40421  33.973   4.344   0.854
79001CL-    CL-40422  40.980  26.170  14.411
79002CL-    CL-40423  29.599   4.891   4.353
79003CL-    CL-40424  31.581  15.752  13.061
79004CL-    CL-40425  40.402   4.839   0.835
79005CL-    CL-40426   0.470  32.512   3.232
79006CL-    CL-40427   6.305  27.492  11.103
79007CL-    CL-40428  42.323  34.385  11.932
79008CL-    CL-40429  33.055   2.372  14.450
79009CL-    CL-40430  28.136  23.012  13.838
79010CL-    CL-40431   1.830  29.082   4.817
79011CL-    CL-40432  10.707   0.973   0.745
79012CL-    CL-40433  33.508  19.133  12.477
79013CL-    CL-40434  21.534  33.548  10.972
79014CL-    CL-40435  40.966  44.820   4.322
79015CL-    CL-40436  27.559  43.840   4.282
79016CL-    CL-40437  43.977  14.739  10.418
79017CL-    CL-40438  41.014   2.327  12.071
79018CL-    CL-40439   9.377   9.259   0.865
79019CL-    CL-40440   8.190  33.045   3.384
79020CL-    CL-40441   8.337  44.467   2.729
79021CL-    CL-40442   8.714  12.837  11.860
79022CL-    CL-40443  28.485  44.945   4.224
79023CL-    CL-40444  24.525  44.420   0.413
79024CL-    CL-40445  42.793  30.652  12.536
79025CL-    CL-40446  39.545  42.860  13.431
79026CL-    CL-40447   6.379   7.781   1.895
79027CL-    CL-40448  12.789  19.232  12.547
79028CL-    CL-40449  38.527  43.864  10.523
79029CL-    CL-40450  10.357  21.585   3.660
79030CL-    CL-40451   6.340  22.106   4.272
79031CL-    CL-40452  13.238  42.032  11.511
79032CL-    CL-40453  12.802  34.559   3.722
79033CL-    CL-40454  26.072  34.875  13.960
79034CL-    CL-40455  42.010  17.772  13.437
79035CL-    CL-40456  34.928  44.858   3.675
79036CL-    CL-40457  24.980   6.300  13.334
79037CL-    CL-40458  24.638   9.172   4.145
79038CL-    CL-40459  36.520  13.216  10.971
79039CL-    CL-40460  16.191  42.868  13.063
79040CL-    CL-40461  22.681  11.671   3.673
79041CL-    CL-40462  22.661   6.857  13.902
79042CL-    CL-40463   8.319   5.239   4.200
79043CL-    CL-40464   1.768  15.294   2.277
79044CL-    CL-40465   5.890   5.434   1.895
79045CL-    CL-40466  23.036  16.221   1.754
79046CL-    CL-40467   6.272   6.379   4.756
79047CL-    CL-40468  24.643  27.556   3.681
79048CL-    CL-40469   9.171  43.931   2.237
79049CL-    CL-40470  24.494  21.680  13.388
79050CL-    CL-40471  25.691   1.437  13.517
79051CL-    CL-40472  32.472  24.008   0.846
79052CL-    CL-40473   7.321   0.823   2.265
79053CL-    CL-40474  28.518  31.525  13.867
79054CL-    CL-40475  13.686  26.561   5.271
79055CL-    CL-40476  29.943  24.141  13.328
79056CL-    CL-40477  32.125  11.694  13.866
79057CL-    CL-40478  13.187  32.886  13.059
79058CL-    CL-40479   3.242  19.766  12.567
79059CL-    CL-40480   3.907  27.123  13.487
79060CL-    CL-40481  12.670  33.028  11.378
79061CL-    CL-40482  11.192   6.346   0.833
79062CL-    CL-40483  43.387  32.540   0.446
79063CL-    CL-40484   6.798   2.243  14.975
79064CL-    CL-40485  43.419  34.083  12.889
79065CL-    CL-40486  19.044   0.928   1.695
79066CL-    CL-40487  42.399  32.083   4.603
79067CL-    CL-40488  19.732   6.262   4.759
79068CL-    CL-40489  26.562  28.044   5.313
79069CL-    CL-40490  18.599  31.436  11.895
79070CL-    CL-40491  34.572  11.625   0.452
79071CL-    CL-40492  19.109  39.975   2.691
79072CL-    CL-40493  28.622  25.096   0.457
79073CL-    CL-40494  19.645  43.014  10.618
79074CL-    CL-40495  21.579  10.869  13.892
79075CL-    CL-40496  26.624   7.726  11.005
79076CL-    CL-40497  34.564  31.424  13.942
79077CL-    CL-40498  11.336  42.312   0.853
79078CL-    CL-40499  23.168  28.584  10.900
79079CL-    CL-40500  43.294  41.876   4.609
79080CL-    CL-40501  29.125  39.484  13.819
79081CL-    CL-40502  40.508  18.137   4.209
79082CL-    CL-40503  12.795  26.022   2.830
79083CL-    CL-40504  24.984  24.594  14.277
79084CL-    CL-40505  35.568  21.166  13.930
79085CL-    CL-40506  41.302  18.604  12.970
79086CL-    CL-40507  14.324  13.138   0.462
79087CL-    CL-40508  16.724   1.749   4.151
79088CL-    CL-40509   0.429  43.857  10.643
79089CL-    CL-40510  12.317  38.935  12.853
79090CL-    CL-40511  30.963  31.457   0.795
79091CL-    CL-40512  37.840  18.611   4.238
79092CL-    CL-40513   9.293  37.362   1.791
79093CL-    CL-40514  19.779  16.803   3.160
79094CL-    CL-40515  29.942  12.828   2.847
79095CL-    CL-40516   1.424  40.338   3.791
79096CL-    CL-40517  37.498  29.125   4.650
79097CL-    CL-40518  41.864  38.329  12.972
79098CL-    CL-40519  39.483   5.803  14.761
79099CL-    CL-40520  42.906  21.561   2.712
79100CL-    CL-40521  24.029  33.066   4.194
79101CL-    CL-40522  29.587  21.121  14.816
79102CL-    CL-40523  12.321  37.444   1.266
79103CL-    CL-40524  42.789  17.636   1.793
79104CL-    CL-40525  31.149   4.813  10.084
79105CL-    CL-40526  25.183  18.254  11.371
79106CL-    CL-40527  31.139  23.687   4.148
79107CL-    CL-40528  43.940  27.996   3.755
79108CL-    CL-40529  27.949   2.249   2.338
79109CL-    CL-40530  14.320  32.625  12.447
79110CL-    CL-40531  38.929  43.915   2.296
79111CL-    CL-40532   3.738  19.176  12.567
79112CL-    CL-40533  16.664   9.798  10.406
79113CL-    CL-40534  20.135  10.636  14.287
79114CL-    CL-40535  35.468   9.871  12.995
79115CL-    CL-40536   8.356  15.329  12.075
79116CL-    CL-40537  39.314  44.367   0.815
79117CL-    CL-40538   6.743  44.360  10.513
79118CL-    CL-40539   2.300  35.590  11.391
79119CL-    CL-40540  44.348  10.837  11.066
79120CL-    CL-40541  17.652   2.400  11.426
79121CL-    CL-40542   7.814   5.276   0.416
79122CL-    CL-40543   0.752   2.390   9.931
79123CL-    CL-40544  38.530   9.884  11.917
79124CL-    CL-40545  24.053   3.729   1.878
79125CL-    CL-40546  43.841   9.365  14.420
79126CL-    CL-40547  19.060  30.576   1.769
79127CL-    CL-40548   8.717  17.305   2.407
79128CL-    CL-40549   1.828   7.370   2.380
79129CL-    CL-40550  24.644  28.482   1.428
79130CL-    CL-40551  13.754  44.867  14.879
79131CL-    CL-40552  14.805  32.391  11.473
79132CL-    CL-40553  24.985  40.042   0.441
79133CL-    CL-40554  24.133   6.238   3.353
79134CL-    CL-40555  10.855  35.869  12.393
79135CL-    CL-40556  13.646  38.557  14.318
79136CL-    CL-40557   4.773  27.457  11.046
79137CL-    CL-40558  34.956  18.081   2.220
79138CL-    CL-40559   2.742  36.842   4.336
79139CL-    CL-40560  37.389  36.067  10.908
79140CL-    CL-40561  19.632  43.297   1.328
79141CL-    CL-40562  16.780  41.426  14.847
79142CL-    CL-40563  39.809  23.167  11.505
79143CL-    CL-40564   8.361  37.067  13.062
79144CL-    CL-40565  42.826  37.558   1.727
79145CL-    CL-40566   1.847  24.049   3.765
79146CL-    CL-40567  40.364  23.729   4.338
79147CL-    CL-40568  30.427   3.424   5.119
79148CL-    CL-40569  14.338  32.517  14.381
79149CL-    CL-40570   9.342   4.423   0.944
79150CL-    CL-40571  40.331   7.354   1.276
79151CL-    CL-40572   2.789  23.647  10.607
79152CL-    CL-40573  39.850  39.961   3.312
79153CL-    CL-40574   6.720  29.446  11.597
79154CL-    CL-40575   3.247  43.985   4.288
79155CL-    CL-40576  18.231  24.980   4.802
79156CL-    CL-40577  27.987  21.137   3.165
79157CL-    CL-40578  42.496  16.661  14.796
79158CL-    CL-40579  44.852  42.487  10.490
79159CL-    CL-40580   9.687   1.787   0.479
79160CL-    CL-40581  21.249  26.664   3.264
79161CL-    CL-40582  29.000   2.849   3.196
79162CL-    CL-40583   3.731  19.749  12.058
79163CL-    CL-40584   9.369   8.703   2.707
79164CL-    CL-40585   8.854  34.578   4.654
79165CL-    CL-40586  16.692   4.383   3.257
79166CL-    CL-40587  18.289   9.764   1.712
79167CL-    CL-40588  23.086  28.565   4.129
79168CL-    CL-40589  19.617   6.711   0.737
79169CL-    CL-40590  13.199   5.737  10.957
79170CL-    CL-40591  14.803  17.275   1.870
79171CL-    CL-40592   6.249  31.952   1.336
79172CL-    CL-40593  35.399  35.427   4.694
79173CL-    CL-40594  15.224  26.074  13.339
79174CL-    CL-40595  23.042  15.205  12.538
79175CL-    CL-40596  40.545  42.860  13.000
79176CL-    CL-40597  44.397  44.759  11.035
79177CL-    CL-40598  26.619  14.688   0.398
79178CL-    CL-40599   3.269  37.933   3.782
79179CL-    CL-40600  18.788  21.625  13.830
79180CL-    CL-40601   9.224   7.721   2.876
79181CL-    CL-40602  39.387  38.892   1.429
79182CL-    CL-40603  16.642  15.122   4.275
79183CL-    CL-40604  34.116  17.636  13.815
79184CL-    CL-40605   1.789  19.156  14.472
79185CL-    CL-40606  38.025   9.343   4.772
79186CL-    CL-40607  32.934  34.073  13.532
79187CL-    CL-40608  34.473  27.566  14.291
79188CL-    CL-40609  26.106  27.971  14.394
79189CL-    CL-40610   5.751  37.577  12.914
79190CL-    CL-40611  12.124   0.750   0.754
79191CL-    CL-40612   0.279  29.960  14.022
79192CL-    CL-40613  39.968   6.410   0.484
79193CL-    CL-40614  17.633   4.936   0.300
79194CL-    CL-40615  34.369   0.401  11.455
79195CL-    CL-40616  44.324   1.813  11.557
79196CL-    CL-40617   0.483  18.153  10.898
79197CL-    CL-40618   0.486  32.557  14.348
79198CL-    CL-40619  32.889  35.450   0.474
79199CL-    CL-40620  14.215  26.620   5.234
79200CL-    CL-40621  32.053  28.185   2.311
79201CL-    CL-40622  15.708  40.817  13.030
79202CL-    CL-40623   0.806  22.686  11.481
79203CL-    CL-40624  22.041  19.570   1.345
79204CL-    CL-40625   4.212   9.813   4.663
79205CL-    CL-40626  40.492  20.748   1.748
79206CL-    CL-40627  34.877  41.867   4.132
79207CL-    CL-40628  42.355  27.194  11.901
79208CL-    CL-40629  22.008  20.648   4.652
79209CL-    CL-40630  29.569  25.035  11.542
79210CL-    CL-40631  40.546  43.327  13.509
79211CL-    CL-40632  40.323  29.165  12.875
79212CL-    CL-40633   7.774  41.452   3.797
79213CL-    CL-40634  19.175  41.342   3.381
79214CL-    CL-40635  17.756  42.956   2.181
79215CL-    CL-40636   4.807  19.582  14.511
79216CL-    CL-40637   2.465  40.312   4.208
79217CL-    CL-40638  28.664  35.089  14.502
79218CL-    CL-40639  38.476   7.291   1.286
79219CL-    CL-40640  21.547  20.163  12.436
79220CL-    CL-40641  14.340  30.985  14.818
79221CL-    CL-40642  24.615   2.806  14.508
79222CL-    CL-40643   1.928  39.458  12.049
79223CL-    CL-40644  40.349   8.727  11.486
79224CL-    CL-40645  15.267  18.119   1.825
79225CL-    CL-40646  21.566  40.046   1.437
79226CL-    CL-40647  42.334  35.075  14.410
79227CL-    CL-40648  14.765   3.456  10.962
79228CL-    CL-40649  18.654  34.420  14.933
79229CL-    CL-40650  40.027  24.711   3.771
79230CL-    CL-40651  34.110   7.800   1.732
79231CL-    CL-40652  11.320   3.361  12.885
79232CL-    CL-40653   4.322  21.157  13.421
79233CL-    CL-40654  13.153  23.529  11.047
79234CL-    CL-40655  27.106  10.167   3.710
79235CL-    CL-40656  25.051  14.670   4.645
79236CL-    CL-40657  14.787   7.836   0.899
79237CL-    CL-40658  32.436  26.204   3.300
79238CL-    CL-40659  14.771  17.703   2.766
79239CL-    CL-40660  38.531   9.382  13.476
79240CL-    CL-40661  12.644  23.634   1.844
79241CL-    CL-40662  33.936  29.002  14.977
79242CL-    CL-40663  26.590  16.650   1.788
79243CL-    CL-40664   6.291  23.019   2.863
79244CL-    CL-40665  20.606  33.050   0.761
79245CL-    CL-40666  14.154   5.223   4.282
79246CL-    CL-40667  29.569  14.127   0.728
79247CL-    CL-40668  30.938  22.136   2.204
79248CL-    CL-40669   3.872  14.296  10.425
79249CL-    CL-40670   0.830  38.010   0.300
79250CL-    CL-40671  42.806  31.552  11.918
79251CL-    CL-40672  44.005  28.475   0.749
79252CL-    CL-40673  40.352  18.599   1.710
79253CL-    CL-40674  30.436   2.310   2.788
79254CL-    CL-40675  14.249  35.383  10.640
79255CL-    CL-40676   3.758  12.626  13.983
79256CL-    CL-40677  15.183  19.688  14.791
79257CL-    CL-40678   7.339   1.480  14.388
79258CL-    CL-40679  32.940  33.420   4.700
79259CL-    CL-40680   4.304   5.308   2.363
79260CL-    CL-40681   7.282   4.805   4.304
79261CL-    CL-40682  38.397   4.422   1.703
79262CL-    CL-40683  16.091  19.047   2.353
79263CL-    CL-40684  14.245   6.374   2.379
79264CL-    CL-40685   4.397  16.208   0.849
79265CL-    CL-40686  17.798  34.924   2.815
79266CL-    CL-40687  33.621  10.240  11.398
79267CL-    CL-40688  43.483  41.887  10.621
79268CL-    CL-40689  29.470   2.277  10.516
79269CL-    CL-40690   3.283   1.803  14.975
79270CL-    CL-40691   6.822  37.946  12.355
79271CL-    CL-40692  25.051   7.733  14.446
79272CL-    CL-40693  20.082  15.322  13.328
79273CL-    CL-40694  30.450  32.111   3.279
79274CL-    CL-40695  25.478  43.841  14.939
79275CL-    CL-40696  38.370  24.600  10.555
79276CL-    CL-40697  43.427  43.456  14.481
79277CL-    CL-40698  34.424  17.065  13.002
79278CL-    CL-40699  30.627  31.903  11.449
79279CL-    CL-40700   6.206   3.830   2.323
79280CL-    CL-40701  42.464  34.014   0.391
79281CL-    CL-40702  12.743  19.680   2.360
79282CL-    CL-40703  19.063  11.269  10.422
79283CL-    CL-40704  37.986  16.181   0.379
79284CL-    CL-40705  10.286   0.421   2.677
79285CL-    CL-40706  31.532  10.683   0.769
79286CL-    CL-40707  13.210  40.538  14.792
79287CL-    CL-40708  25.978   3.929   3.781
79288CL-    CL-40709  33.432  31.609   4.827
79289CL-    CL-40710  31.568  14.125  14.397
79290CL-    CL-40711   3.729  42.293  10.560
79291CL-    CL-40712   4.736   0.428   1.345
79292CL-    CL-40713  29.512  42.795   3.283
79293CL-    CL-40714  15.212  31.495   3.220
79294CL-    CL-40715  39.426   9.842  14.949
79295CL-    CL-40716  28.540  10.139   3.786
79296CL-    CL-40717  43.335  21.017  13.846
79297CL-    CL-40718  16.297  13.793   5.778
79298CL-    CL-40719   8.376   7.844  11.861
79299CL-    CL-40720  39.892  41.305  13.920
79300CL-    CL-40721  39.328   5.890   3.723
79301CL-    CL-40722  40.857  16.271  13.016
79302CL-    CL-40723  16.761   5.752  12.831
79303CL-    CL-40724  34.005  13.229   3.772
79304CL-    CL-40725   2.355   2.869  11.110
79305CL-    CL-40726  21.242  42.368  14.482
79306CL-    CL-40727  25.523  42.324  14.948
79307CL-    CL-40728  41.370   5.929  10.537
79308CL-    CL-40729   6.915  20.568  14.770
79309CL-    CL-40730  18.778  16.740  14.013
79310CL-    CL-40731   7.399  43.936   4.248
79311CL-    CL-40732  38.826  27.167  11.457
79312CL-    CL-40733  43.867  14.147  12.367
79313CL-    CL-40734  29.950  33.991  11.114
79314CL-    CL-40735  31.917  35.601   1.796
79315CL-    CL-40736  14.598  10.355  10.429
79316CL-    CL-40737  27.985  20.115   1.832
79317CL-    CL-40738  39.825  33.899   0.883
79318CL-    CL-40739   0.264  23.699  11.009
79319CL-    CL-40740  28.625  10.740  11.373
79320CL-    CL-40741   2.963  26.567  13.847
79321CL-    CL-40742  18.651  12.735  10.607
79322CL-    CL-40743  11.729  23.058  11.568
79323CL-    CL-40744  20.666  26.049   1.405
79324CL-    CL-40745   4.776  41.316  13.002
79325CL-    CL-40746  33.001  26.126   0.744
79326CL-    CL-40747  23.183   9.733  11.392
79327CL-    CL-40748   3.317  29.007   0.731
79328CL-    CL-40749  13.749  38.029   3.667
79329CL-    CL-40750  12.332  10.343   0.453
79330CL-    CL-40751  30.034  20.221   4.630
79331CL-    CL-40752  34.006  34.405  10.439
79332CL-    CL-40753  10.673  40.938   0.837
79333CL-    CL-40754  27.040  18.216  14.992
79334CL-    CL-40755   9.310   9.375  11.546
79335CL-    CL-40756  27.003  31.480   2.323
79336CL-    CL-40757  39.881   7.826   4.199
79337CL-    CL-40758  32.424   1.366  12.400
79338CL-    CL-40759  14.182  18.682   0.830
79339CL-    CL-40760  10.224  41.786   5.322
79340CL-    CL-40761  15.264  40.440   4.667
79341CL-    CL-40762  39.935  10.857   1.778
79342CL-    CL-40763  15.240  37.006   2.239
79343CL-    CL-40764  30.089  43.328  11.920
79344CL-    CL-40765  44.906  11.666   0.440
79345CL-    CL-40766   0.760   4.720   1.706
79346CL-    CL-40767  26.684  35.411  13.902
79347CL-    CL-40768  22.630  22.569  14.369
79348CL-    CL-40769  33.054   0.765  11.035
79349CL-    CL-40770   4.431  37.960   4.652
79350CL-    CL-40771  27.049  15.603  13.795
79351CL-    CL-40772   2.422  12.237   1.736
79352CL-    CL-40773  16.766  26.070   4.260
79353CL-    CL-40774  36.961  36.535   0.404
79354CL-    CL-40775  14.829  42.014  10.452
79355CL-    CL-40776  27.102  26.578  13.371
79356CL-    CL-40777  14.099  35.002   0.961
79357CL-    CL-40778  39.351   6.204  12.835
79358CL-    CL-40779  24.179  13.271  13.034
79359CL-    CL-40780  10.221  17.795   9.970
79360CL-    CL-40781  30.443  30.947  12.419
79361CL-    CL-40782  28.017  35.580   1.239
79362CL-    CL-40783   2.379  19.755  11.984
79363CL-    CL-40784  44.943  34.987  12.388
79364CL-    CL-40785   0.364  34.026   2.187
79365CL-    CL-40786  34.580  18.555  13.932
79366CL-    CL-40787  37.942  12.311  12.384
79367CL-    CL-40788  26.094  12.758   1.863
79368CL-    CL-40789  41.482  39.894  10.426
79369CL-    CL-40790   6.715  42.978   4.820
79370CL-    CL-40791  31.416  27.627   3.733
79371CL-    CL-40792  44.395  37.085  12.344
79372CL-    CL-40793  23.098   9.271  14.429
79373CL-    CL-40794  38.040   5.272  14.889
79374CL-    CL-40795   1.361  38.561   3.283
79375CL-    CL-40796  21.043  39.992  10.475
79376CL-    CL-40797  27.575  17.675   0.923
79377CL-    CL-40798  24.033  40.851   4.657
79378CL-    CL-40799  35.093  34.030   1.857
79379CL-    CL-40800  18.645  37.525  13.357
79380CL-    CL-40801  24.211  23.145   2.744
79381CL-    CL-40802  28.577  12.344   9.669
79382CL-    CL-40803  15.090  44.979  14.838
79383CL-    CL-40804  15.740  38.345  14.989
79384CL-    CL-40805  37.051   4.252  12.960
79385CL-    CL-40806  15.164  26.971  10.535
79386CL-    CL-40807  14.176  24.188   1.257
79387CL-    CL-40808  12.767   1.335   3.696
79388CL-    CL-40809  24.046  31.909  12.979
79389CL-    CL-40810  44.396   1.416  12.463
79390CL-    CL-40811  29.054  29.970   3.766
79391CL-    CL-40812   1.413   5.796  12.094
79392CL-    CL-40813   3.773   0.899   2.752
79393CL-    CL-40814   9.679  15.146   2.265
79394CL-    CL-40815  24.698   0.342   2.374
79395CL-    CL-40816  41.439   2.861  13.803
79396CL-    CL-40817  23.044  39.514   2.258
79397CL-    CL-40818  42.963  11.780  11.114
79398CL-    CL-40819  35.868  44.978   1.795
79399CL-    CL-40820   4.366  28.957  13.945
79400CL-    CL-40821  40.867  24.710   4.779
79401CL-    CL-40822  31.125  15.214  10.986
79402CL-    CL-40823  38.451  20.185   2.353
79403CL-    CL-40824   5.274  40.445  12.425
79404CL-    CL-40825  38.459  25.136  10.602
79405CL-    CL-40826  18.234  28.145  13.884
79406CL-    CL-40827   8.893  20.113  10.439
79407CL-    CL-40828  36.349   6.287   4.687
79408CL-    CL-40829  21.698  17.560  11.937
79409CL-    CL-40830  43.802  32.487   2.709
79410CL-    CL-40831  26.170  40.488  13.996
79411CL-    CL-40832   0.339   5.342  14.313
79412CL-    CL-40833  37.887  22.046   1.870
79413CL-    CL-40834  22.584  33.125  12.413
79414CL-    CL-40835  11.148  16.601   1.401
79415CL-    CL-40836  18.650   8.762  14.959
79416CL-    CL-40837   5.409  24.132   4.338
79417CL-    CL-40838  23.617  16.567  10.966
79418CL-    CL-40839  38.498  17.644  14.402
79419CL-    CL-40840  40.535  37.404   4.169
79420CL-    CL-40841   6.360  36.907   0.346
79421CL-    CL-40842  30.951  20.054   0.834
79422CL-    CL-40843  32.631  38.499   0.293
79423CL-    CL-40844   1.952   9.752   1.846
79424CL-    CL-40845  26.539  17.156  13.535
79425CL-    CL-40846  37.423  24.506   3.318
79426CL-    CL-40847  33.555   8.394  14.890
79427CL-    CL-40848  23.627  35.093   2.898
79428CL-    CL-40849  38.535   5.699  13.373
79429CL-    CL-40850   4.246  10.299   1.427
79430CL-    CL-40851  36.453  28.042  11.404
79431CL-    CL-40852  37.057  22.163  10.919
79432CL-    CL-40853  34.568  12.679  14.320
79433CL-    CL-40854  35.603  12.648   0.879
79434CL-    CL-40855  22.138  13.212   3.755
79435CL-    CL-40856  34.044  23.493  11.567
79436CL-    CL-40857  28.969  42.299  13.982
79437CL-    CL-40858  42.000  11.230  14.376
79438CL-    CL-40859   2.847   7.886  13.522
79439CL-    CL-40860  32.912  19.270  10.556
79440CL-    CL-40861  38.897  36.429  11.880
79441CL-    CL-40862   9.241  22.099   1.450
79442CL-    CL-40863  20.547  29.139  11.861
79443CL-    CL-40864   7.286   3.323  13.439
79444CL-    CL-40865  30.061  32.898  10.521
79445CL-    CL-40866  37.087  34.004  11.877
79446CL-    CL-40867  14.781  43.479   1.255
79447CL-    CL-40868  28.625  15.314   2.357
79448CL-    CL-40869  11.138  11.859   2.393
79449CL-    CL-40870  29.067   7.415   4.674
79450CL-    CL-40871   0.263  23.501   1.898
79451CL-    CL-40872  38.880   7.322  11.089
79452CL-    CL-40873  39.042   8.218   2.372
79453CL-    CL-40874  27.120   0.956   0.846
79454CL-    CL-40875  35.404  34.390   2.730
79455CL-    CL-40876   8.689  21.136  10.992
79456CL-    CL-40877  34.612   1.291  11.492
79457CL-    CL-40878  21.556   9.332   1.781
79458CL-    CL-40879  28.635  24.653  13.354
79459CL-    CL-40880  37.840  29.037  12.071
79460CL-    CL-40881  29.067  14.246   1.753
79461CL-    CL-40882  23.671  27.653   3.836
79462CL-    CL-40883   0.447  39.920   2.673
79463CL-    CL-40884  12.135  11.814  13.808
79464CL-    CL-40885  10.153  30.032  10.554
79465CL-    CL-40886  31.449  34.940  14.867
79466CL-    CL-40887   0.861  24.078  12.827
79467CL-    CL-40888  24.641  40.488  14.458
79468CL-    CL-40889   1.341   4.816   2.767
79469CL-    CL-40890  36.395  24.530   0.909
79470CL-    CL-40891  14.633  26.012  12.844
79471CL-    CL-40892  38.362  15.642   3.817
79472CL-    CL-40893  11.214   4.861   4.346
79473CL-    CL-40894   6.292  29.959  11.577
79474CL-    CL-40895  44.805   1.761  14.849
79475CL-    CL-40896  43.497  25.096  12.361
79476CL-    CL-40897  12.819  39.851  13.377
79477CL-    CL-40898   1.319  36.018  11.930
79478CL-    CL-40899  26.464   9.694  13.367
79479CL-    CL-40900  11.804  34.894   2.811
79480CL-    CL-40901  28.974  24.607  13.425
79481CL-    CL-40902  40.398  18.623   0.263
79482CL-    CL-40903   2.395  43.495   0.292
79483CL-    CL-40904  26.033  24.089  10.580
79484CL-    CL-40905  23.070   2.832   2.354
79485CL-    CL-40906   3.451   8.726   2.671
79486CL-    CL-40907  30.617  22.658   1.880
79487CL-    CL-40908  19.537  40.839   2.255
79488CL-    CL-40909  21.107  37.497  14.488
79489CL-    CL-40910  22.249  23.564   1.902
79490CL-    CL-40911  33.902  27.670   3.152
79491CL-    CL-40912   2.341  41.027  13.401
79492CL-    CL-40913   6.216  12.121  12.949
79493CL-    CL-40914   2.238  37.498  13.995
79494CL-    CL-40915  10.806   4.902  10.549
79495CL-    CL-40916   7.911   8.375  11.930
79496CL-    CL-40917  36.023  35.033   4.746
79497CL-    CL-40918  18.186  43.971   4.298
79498CL-    CL-40919  37.053  10.220  11.074
79499CL-    CL-40920  13.834   4.432  13.055
79500CL-    CL-40921   0.393   7.363   1.355
79501CL-    CL-40922  17.584   3.224   2.244
79502CL-    CL-40923  10.713  10.275   1.792
79503CL-    CL-40924   4.420  15.245  11.111
79504CL-    CL-40925  40.432  14.245   4.245
79505CL-    CL-40926  35.405  14.639   0.945
79506CL-    CL-40927   6.262   1.736  14.008
79507CL-    CL-40928  18.677   4.351  12.828
79508CL-    CL-40929  24.984  42.424  14.328
79509CL-    CL-40930  35.436  37.517  14.955
79510CL-    CL-40931  33.968  32.523  12.432
79511CL-    CL-40932  24.571   8.703  14.000
79512CL-    CL-40933   2.247   1.349   1.352
79513CL-    CL-40934  22.585  11.210  11.470
79514CL-    CL-40935  35.447  14.103   0.747
79515CL-    CL-40936  14.779   1.834   1.857
79516CL-    CL-40937  13.300  28.656  14.467
79517CL-    CL-40938  19.250  20.590   3.330
79518CL-    CL-40939  43.898   1.291  12.494
79519CL-    CL-40940  40.391  29.534  12.063
79520CL-    CL-40941   1.287  37.982   4.191
79521CL-    CL-40942  41.329  33.904  12.558
79522CL-    CL-40943  11.281  11.853   3.305
79523CL-    CL-40944  13.663  22.618   4.779
79524CL-    CL-40945  38.839  35.453  11.504
79525CL-    CL-40946  31.949  44.895  14.901
79526CL-    CL-40947  12.197   2.256  12.489
79527CL-    CL-40948  10.782  26.459   0.265
79528CL-    CL-40949  13.691  17.232  11.430
79529CL-    CL-40950  34.480   1.805  13.904
79530CL-    CL-40951  17.118  32.893   2.284
79531CL-    CL-40952   3.389  12.711  12.080
79532CL-    CL-40953  11.205   4.326   4.203
79533CL-    CL-40954  23.514  16.179  14.935
79534CL-    CL-40955  13.824  20.558   0.403
79535CL-    CL-40956  23.129  32.529   1.396
79536CL-    CL-40957   7.276  28.973  14.275
79537CL-    CL-40958  34.611  37.453  11.374
79538CL-    CL-40959  17.215  40.054  12.879
79539CL-    CL-40960  23.233  18.181  14.868
79540CL-    CL-40961  35.508  20.632  12.503
79541CL-    CL-40962   4.289  32.443  11.497
79542CL-    CL-40963  14.203  37.901  14.884
79543CL-    CL-40964   1.270  15.670  10.096
79544CL-    CL-40965  32.461  40.998   1.755
79545CL-    CL-40966  27.147  11.851   2.394
79546CL-    CL-40967   2.304  33.973  11.597
79547CL-    CL-40968  20.744   0.403   2.759
79548CL-    CL-40969  19.271  28.091   2.302
79549CL-    CL-40970   2.868  34.976  11.048
79550CL-    CL-40971  13.774  10.783  12.464
79551CL-    CL-40972   6.731  13.713  12.092
79552CL-    CL-40973  30.618  18.172   3.200
79553CL-    CL-40974  13.260  35.099  10.928
79554CL-    CL-40975  32.049  31.962   3.744
79555CL-    CL-40976  21.125  13.682   4.783
79556CL-    CL-40977   4.709  13.826  14.415
79557CL-    CL-40978   8.863  24.110   4.717
79558CL-    CL-40979  32.440  33.053   0.824
79559CL-    CL-40980   4.802  19.696  10.531
79560CL-    CL-40981  42.848  31.078   0.313
79561CL-    CL-40982   6.330  37.994  10.911
79562CL-    CL-40983  43.497  38.026   4.692
79563CL-    CL-40984  42.822  27.626  12.855
79564CL-    CL-40985  25.562  21.709   2.849
79565CL-    CL-40986   6.421  16.578   1.880
79566CL-    CL-40987  27.040  28.490  12.021
79567CL-    CL-40988  22.533  43.016  13.535
79568CL-    CL-40989  24.510  29.601   4.295
79569CL-    CL-40990  13.196   0.453   1.319
79570CL-    CL-40991  10.317  34.416  10.517
79571CL-    CL-40992  24.724  18.060   4.782
79572CL-    CL-40993  34.529   3.897  11.429
79573CL-    CL-40994  27.122  42.477  13.977
79574CL-    CL-40995  30.433  19.649  12.477
79575CL-    CL-40996  23.175  12.664   1.331
79576CL-    CL-40997   1.975   1.307  11.445
79577CL-    CL-40998  13.642  32.488  13.923
79578CL-    CL-40999   7.233  41.947   3.351
79579CL-    CL-41000  42.782  15.700   0.397
79580CL-    CL-41001   2.377   9.221  10.905
79581CL-    CL-41002  40.524   4.204   4.217
79582CL-    CL-41003  26.972   6.272  10.545
79583CL-    CL-41004   0.296   9.330  10.950
79584CL-    CL-41005   2.736  15.271   2.299
79585CL-    CL-41006  39.957  18.131  10.628
79586CL-    CL-41007  12.116  15.664  11.962
79587CL-    CL-41008  27.061  13.299  10.588
79588CL-    CL-41009  34.598  38.342   4.734
79589CL-    CL-41010  18.595  32.087   4.162
79590CL-    CL-41011   0.348  39.887   0.367
79591CL-    CL-41012   2.399  19.579   2.299
79592CL-    CL-41013   1.361  23.661  11.392
79593CL-    CL-41014  30.466  27.058  12.534
79594CL-    CL-41015  34.967  26.648   2.897
79595CL-    CL-41016  22.995   0.490   1.857
79596CL-    CL-41017  17.646   3.924  11.604
79597CL-    CL-41018   6.247  14.615  12.535
79598CL-    CL-41019  12.780  23.030   3.219
79599CL-    CL-41020  15.212  16.693   3.869
79600CL-    CL-41021  17.094  25.471  11.893
79601CL-    CL-41022  15.295  23.017  11.439
79602CL-    CL-41023   5.799  36.870   4.196
79603CL-    CL-41024  18.161   4.311   1.357
79604CL-    CL-41025  44.475   6.184  12.534
79605CL-    CL-41026  17.697  25.015   1.223
79606CL-    CL-41027  29.433   6.299   1.862
79607CL-    CL-41028  44.753  37.451   2.191
79608CL-    CL-41029  15.577  30.092  12.967
79609CL-    CL-41030  26.042  27.076   4.725
79610CL-    CL-41031  40.049  33.469  11.971
79611CL-    CL-41032  14.742  41.888   0.260
79612CL-    CL-41033  31.920  11.127  10.947
79613CL-    CL-41034  10.233  23.611  12.480
79614CL-    CL-41035  31.079  40.824  12.430
79615CL-    CL-41036  16.114  39.492   3.380
79616CL-    CL-41037   1.483   3.247  12.437
79617CL-    CL-41038   0.889  21.758   4.638
79618CL-    CL-41039  30.648  14.743   2.722
79619CL-    CL-41040  31.592  31.987   0.447
79620CL-    CL-41041  13.617  15.746   2.371
79621CL-    CL-41042  25.151  29.648  12.984
79622CL-    CL-41043   6.226  31.947   2.329
79623CL-    CL-41044  22.169  10.866   0.477
79624CL-    CL-41045  36.460  27.038   3.335
79625CL-    CL-41046   7.878  13.833  12.008
79626CL-    CL-41047  41.444   5.932   3.783
79627CL-    CL-41048  40.356  39.313   4.257
79628CL-    CL-41049   9.186  29.560  10.958
79629CL-    CL-41050  27.092  21.210  12.509
79630CL-    CL-41051  30.627   5.234   2.773
79631CL-    CL-41052  30.463  33.964  14.852
79632CL-    CL-41053  16.114  35.408  10.936
79633CL-    CL-41054  22.603   6.853  12.422
79634CL-    CL-41055   4.862  18.758   2.718
79635CL-    CL-41056  27.961  41.448   2.886
79636CL-    CL-41057  31.402  23.025  11.966
79637CL-    CL-41058  18.053   9.181   3.348
79638CL-    CL-41059   6.737  37.870  12.089
79639CL-    CL-41060   3.901  31.994  11.604
79640CL-    CL-41061   1.345   3.745  14.802
79641CL-    CL-41062  26.087   9.395  12.943
79642CL-    CL-41063  18.743  40.937   2.332
79643CL-    CL-41064   0.921  30.151  13.381
79644CL-    CL-41065  39.886  43.876   1.355
79645CL-    CL-41066  24.676  37.910  12.987
79646CL-    CL-41067   1.879  39.862   0.348
79647CL-    CL-41068  34.499   7.860   1.875
79648CL-    CL-41069  17.652  33.459   5.788
79649CL-    CL-41070  10.863  42.499   2.186
79650CL-    CL-41071   5.361  17.739   4.677
79651CL-    CL-41072  20.121   9.867  10.542
79652CL-    CL-41073  10.154  40.916  13.819
79653CL-    CL-41074  37.927  26.172  12.962
79654CL-    CL-41075  32.465  10.825  11.095
79655CL-    CL-41076  41.803   2.871  11.993
79656CL-    CL-41077  18.790  19.125  10.576
79657CL-    CL-41078  26.096  34.996  11.584
79658CL-    CL-41079  35.997  37.033  11.019
79659CL-    CL-41080  17.635  12.356  10.938
79660CL-    CL-41081   5.418  17.717  12.997
79661CL-    CL-41082   2.877   3.419   1.312
79662CL-    CL-41083   4.204  33.970   2.828
79663CL-    CL-41084  22.008  21.580   0.441
79664CL-    CL-41085  16.125   7.775  13.548
79665CL-    CL-41086  35.590   3.454  12.968
79666CL-    CL-41087  24.039  12.747  11.017
79667CL-    CL-41088  31.938  37.837   0.757
79668CL-    CL-41089  21.206   7.321  13.364
79669CL-    CL-41090  40.396  32.945  12.440
79670CL-    CL-41091  44.007   9.703   0.462
79671CL-    CL-41092  18.787  36.555   3.165
79672CL-    CL-41093   5.709  33.026  12.557
79673CL-    CL-41094   6.751   3.803   0.918
79674CL-    CL-41095  26.526  25.597   4.724
79675CL-    CL-41096   5.214  18.665   4.731
79676CL-    CL-41097  17.235  40.321  11.587
79677CL-    CL-41098  35.543  23.142  10.496
79678CL-    CL-41099   4.912  39.458  11.484
79679CL-    CL-41100  25.178  16.204   0.926
79680CL-    CL-41101  22.502  16.650  11.011
79681CL-    CL-41102  24.668  28.559  12.531
79682CL-    CL-41103   2.785  28.066   1.874
79683CL-    CL-41104   9.181   9.197  11.990
79684CL-    CL-41105  32.445  29.428   2.808
79685CL-    CL-41106  14.591  23.667  10.961
79686CL-    CL-41107   4.722  41.957   2.404
79687CL-    CL-41108  14.297  28.146  12.085
79688CL-    CL-41109  25.213  25.156   3.260
79689CL-    CL-41110   6.233   7.373   2.843
79690CL-    CL-41111  20.234  39.032   1.898
79691CL-    CL-41112  12.136  30.426   5.302
79692CL-    CL-41113  15.194  23.570  11.886
79693CL-    CL-41114  10.830  31.444  11.568
79694CL-    CL-41115  24.197  28.616  12.854
79695CL-    CL-41116   7.377   7.252   2.313
79696CL-    CL-41117  30.570   8.338  10.894
79697CL-    CL-41118  42.393  14.623  14.976
79698CL-    CL-41119  20.706  25.630  13.530
79699CL-    CL-41120  35.993  27.509   4.837
79700CL-    CL-41121  26.055   4.743   0.329
79701CL-    CL-41122  40.313  10.162  14.306
79702CL-    CL-41123  13.142  29.972   4.804
79703CL-    CL-41124  20.122  39.900  11.536
79704CL-    CL-41125  40.497  20.624  13.403
79705CL-    CL-41126  41.403  34.578   1.875
79706CL-    CL-41127   4.288  40.546  12.369
79707CL-    CL-41128  44.003  42.497  13.969
79708CL-    CL-41129  28.127  14.704   4.828
79709CL-    CL-41130  23.564  31.112   2.194
79710CL-    CL-41131  29.517  29.667   2.186
79711CL-    CL-41132  41.866  44.877  11.104
79712CL-    CL-41133   1.777  23.549   3.153
79713CL-    CL-41134   1.953   2.404  12.891
79714CL-    CL-41135   3.415  33.007  14.932
79715CL-    CL-41136  33.890   8.361  11.422
79716CL-    CL-41137  42.522  11.217  10.103
79717CL-    CL-41138  18.069  21.692   2.670
79718CL-    CL-41139  33.005   0.443   4.126
79719CL-    CL-41140  14.203  42.839   1.297
79720CL-    CL-41141  35.946  34.023   3.383
79721CL-    CL-41142  34.970  18.618  11.968
79722CL-    CL-41143  33.498   3.385  13.523
79723CL-    CL-41144  38.937  15.126   2.188
79724CL-    CL-41145  43.990  32.928   1.227
79725CL-    CL-41146   4.354  39.066  14.473
79726CL-    CL-41147  37.343   5.308  13.866
79727CL-    CL-41148  41.035  42.284   2.883
79728CL-    CL-41149   2.949   2.939  13.903
79729CL-    CL-41150  44.384  40.878  14.441
79730CL-    CL-41151  24.638  29.039   2.246
79731CL-    CL-41152  31.633  37.027   2.828
79732CL-    CL-41153  24.013  22.227   3.217
79733CL-    CL-41154   7.218   3.394   1.387
79734CL-    CL-41155  15.118  21.668  14.498
79735CL-    CL-41156   3.250  12.627   2.701
79736CL-    CL-41157   8.235  28.586  11.937
79737CL-    CL-41158   0.779  18.740  10.983
79738CL-    CL-41159  30.995   9.867   2.852
79739CL-    CL-41160  42.423  16.244  13.803
79740CL-    CL-41161   0.477   8.860  12.064
79741CL-    CL-41162  34.970   0.831   3.641
79742CL-    CL-41163   3.271  19.702  13.477
79743CL-    CL-41164  13.195  41.324  11.391
79744CL-    CL-41165   8.768  20.103   4.831
79745CL-    CL-41166  35.380  36.442   4.198
79746CL-    CL-41167  35.053  17.636  14.500
79747CL-    CL-41168  31.096  32.558   3.221
79748CL-    CL-41169  10.876   7.404   0.304
79749CL-    CL-41170  42.889  43.428  13.894
79750CL-    CL-41171   5.748  26.670  12.922
79751CL-    CL-41172   8.768   1.282   1.829
79752CL-    CL-41173  19.578  25.163   3.736
79753CL-    CL-41174   5.925  25.132   2.269
79754CL-    CL-41175  43.963   0.398   4.261
79755CL-    CL-41176   3.379  25.632  12.940
79756CL-    CL-41177  29.038  35.914  10.568
79757CL-    CL-41178  10.791  16.098  10.497
79758CL-    CL-41179  19.262  19.123  12.933
79759CL-    CL-41180  32.530  28.949   4.734
79760CL-    CL-41181   5.281   1.812  14.331
79761CL-    CL-41182  12.840   1.761   4.751
79762CL-    CL-41183  38.822   9.874   0.372
79763CL-    CL-41184  44.937  22.658   4.226
79764CL-    CL-41185  20.106  43.877   2.797
79765CL-    CL-41186  32.121  34.512   1.317
79766CL-    CL-41187  36.043  10.669   0.945
79767CL-    CL-41188  13.638  12.125   0.359
79768CL-    CL-41189   7.768  19.153  14.400
79769CL-    CL-41190  44.349  25.531   2.805
79770CL-    CL-41191   1.271   5.775  10.975
79771CL-    CL-41192   1.249  12.755  13.336
79772CL-    CL-41193  14.778   8.706  12.032
79773CL-    CL-41194  18.715  21.065  11.552
79774CL-    CL-41195   8.680  33.559  13.479
79775CL-    CL-41196  12.340  17.718   4.674
79776CL-    CL-41197  11.813  27.528   3.680
79777CL-    CL-41198  10.180  14.669   0.834
79778CL-    CL-41199  22.026  28.482  13.309
79779CL-    CL-41200  12.736  29.947   1.851
79780CL-    CL-41201  35.098   1.958  11.915
79781CL-    CL-41202   7.355  35.529  14.308
79782CL-    CL-41203   1.304  39.380  14.499
79783CL-    CL-41204  12.631  18.197  14.357
79784CL-    CL-41205  41.523   3.855   0.903
79785CL-    CL-41206   2.396  19.746  12.926
79786CL-    CL-41207   5.749  41.355  11.023
79787CL-    CL-41208  27.591  19.663  13.005
79788CL-    CL-41209  43.415   3.333   2.300
79789CL-    CL-41210  10.147  33.416   3.786
79790CL-    CL-41211  33.545  27.094  11.406
79791CL-    CL-41212  11.767   4.389   1.422
79792CL-    CL-41213  24.168  10.750   4.195
79793CL-    CL-41214   9.771  21.741  10.526
79794CL-    CL-41215   7.217  30.639  11.559
79795CL-    CL-41216  21.554  29.060   4.129
79796CL-    CL-41217  16.740  39.502   1.709
79797CL-    CL-41218  17.255  20.622  13.795
79798CL-    CL-41219  20.552  25.161   3.814
79799CL-    CL-41220  25.183  32.140  12.849
79800CL-    CL-41221  17.697  36.436   0.942
79801CL-    CL-41222  28.613  32.443   1.852
79802CL-    CL-41223   0.454  42.972   0.380
79803CL-    CL-41224  33.482   0.816  12.372
79804CL-    CL-41225  35.880  22.595   0.875
79805CL-    CL-41226  24.580  32.938  10.619
79806CL-    CL-41227  19.256  13.640   9.998
79807CL-    CL-41228  27.582   5.857  13.968
79808CL-    CL-41229  43.270   0.911  12.378
79809CL-    CL-41230  12.215  13.653  14.477
79810CL-    CL-41231  13.202  20.651  14.283
79811CL-    CL-41232  27.614  28.136   3.714
79812CL-    CL-41233  23.579  10.862  12.831
79813CL-    CL-41234  17.615  30.972   1.431
79814CL-    CL-41235  22.176  40.961  11.070
79815CL-    CL-41236  23.186  31.899  11.478
79816CL-    CL-41237  11.330   9.735  11.434
79817CL-    CL-41238  26.165  20.600   4.194
79818CL-    CL-41239   9.251  18.647  11.099
79819CL-    CL-41240   6.830  24.576   9.508
79820CL-    CL-41241   9.377  16.199  14.379
79821CL-    CL-41242  32.637  15.090  11.388
79822CL-    CL-41243   4.337  40.328   1.300
79823CL-    CL-41244  10.808  38.974  11.463
79824CL-    CL-41245   6.327  31.962  11.950
79825CL-    CL-41246  40.363  25.068  13.465
79826CL-    CL-41247   7.811   3.307   0.797
79827CL-    CL-41248  18.180  12.191   4.766
79828CL-    CL-41249  18.082  38.070   0.450
79829CL-    CL-41250  25.005  19.729  14.853
79830CL-    CL-41251   1.270  33.928   4.716
79831CL-    CL-41252   8.672  20.741   4.637
79832CL-    CL-41253  11.317  44.327   4.323
79833CL-    CL-41254  16.571  10.354   2.696
79834CL-    CL-41255   3.399  18.723   3.742
79835CL-    CL-41256  18.281  13.683  11.434
79836CL-    CL-41257  20.035  23.563  10.032
79837CL-    CL-41258  30.144  41.991  12.481
79838CL-    CL-41259   1.790   3.818   3.223
79839CL-    CL-41260  18.777  11.270   5.098
79840CL-    CL-41261   6.865  11.798   4.203
79841CL-    CL-41262  28.065  23.563   2.895
79842CL-    CL-41263  24.015   5.768  12.553
79843CL-    CL-41264   2.283  38.060  10.907
79844CL-    CL-41265  17.279  30.654  13.024
79845CL-    CL-41266  35.945  11.724   3.205
79846CL-    CL-41267  24.089  22.622  12.853
79847CL-    CL-41268  17.191  10.377   4.807
79848CL-    CL-41269  37.349  40.891  13.922
79849CL-    CL-41270   8.865  16.577   2.267
79850CL-    CL-41271  23.699  20.049  11.474
79851CL-    CL-41272  31.405  43.855   4.645
79852CL-    CL-41273  16.134   0.481   2.394
79853CL-    CL-41274  30.630  37.047   0.378
79854CL-    CL-41275  23.556   4.775  13.821
79855CL-    CL-41276  39.556  26.585   0.858
79856CL-    CL-41277  39.461  16.174   2.250
79857CL-    CL-41278   1.881  42.955  11.977
79858CL-    CL-41279  32.937   6.346   1.348
79859CL-    CL-41280  34.537  36.955  10.568
79860CL-    CL-41281   4.755  12.152  11.489
79861CL-    CL-41282  44.499   6.711   2.308
79862CL-    CL-41283  44.263   0.451   4.224
79863CL-    CL-41284  13.334  12.317  14.864
79864CL-    CL-41285   0.847  40.047   1.221
79865CL-    CL-41286  39.333  10.189   1.409
79866CL-    CL-41287  23.734  19.187  12.937
79867CL-    CL-41288  26.105  19.067  13.356
79868CL-    CL-41289  16.117  16.196  11.445
79869CL-    CL-41290  27.689   1.291  13.459
79870CL-    CL-41291  37.960  11.344  12.381
79871CL-    CL-41292  39.816  13.296   0.369
79872CL-    CL-41293  31.480   8.164   3.227
79873CL-    CL-41294  17.655  39.812  14.806
79874CL-    CL-41295  12.642  29.974  12.451
79875CL-    CL-41296  36.088  18.083  14.990
79876CL-    CL-41297  36.495  18.587  13.321
79877CL-    CL-41298  28.951   6.294  10.988
79878CL-    CL-41299  21.614  38.385  10.444
79879CL-    CL-41300   0.855  44.295  11.526
79880CL-    CL-41301  36.002  38.409  13.934
79881CL-    CL-41302  34.559   1.439   0.879
79882CL-    CL-41303  43.870  12.338  10.510
79883CL-    CL-41304  17.122  22.171   3.779
79884CL-    CL-41305  26.010  44.777  12.863
79885CL-    CL-41306  26.969  25.627  12.041
79886CL-    CL-41307  14.812  31.935  14.328
79887CL-    CL-41308  44.263  31.458  12.952
79888CL-    CL-41309  35.044  34.574  12.824
79889CL-    CL-41310  40.940  11.715  11.867
79890CL-    CL-41311   9.200  21.625   3.740
79891CL-    CL-41312  42.907  15.650   0.816
79892CL-    CL-41313  39.542   5.282  13.854
79893CL-    CL-41314  32.970   3.340   1.364
79894CL-    CL-41315   5.409  30.504  13.416
79895CL-    CL-41316  14.608   6.282   0.753
79896CL-    CL-41317   8.340   0.745   2.746
79897CL-    CL-41318  15.085   2.744  13.896
79898CL-    CL-41319  16.579  44.359   4.250
79899CL-    CL-41320  15.620  29.023   1.357
79900CL-    CL-41321  12.774  22.022  12.958
79901CL-    CL-41322  29.589  11.721   2.183
79902CL-    CL-41323  40.457   8.701   9.940
79903CL-    CL-41324  43.770  13.651  10.426
79904CL-    CL-41325  27.987  38.865  14.487
79905CL-    CL-41326  43.791  27.060  12.084
79906CL-    CL-41327  26.998  36.094  11.472
79907CL-    CL-41328   4.908  11.698   2.757
79908CL-    CL-41329  28.559   3.266  11.901
79909CL-    CL-41330  25.987   6.264   4.709
79910CL-    CL-41331   7.179  34.013   4.657
79911CL-    CL-41332  27.015  14.720   1.861
79912CL-    CL-41333   7.769   0.811  13.345
79913CL-    CL-41334  12.823  13.222   3.666
79914CL-    CL-41335  30.933  42.412  11.051
79915CL-    CL-41336  30.040  44.464   0.307
79916CL-    CL-41337  36.074  30.120   3.691
79917CL-    CL-41338  12.222   9.654  11.453
79918CL-    CL-41339  15.111  11.706   3.683
79919CL-    CL-41340  20.028   4.830   0.744
79920CL-    CL-41341  34.955  15.128   3.861
79921CL-    CL-41342  15.707  44.392  14.014
79922CL-    CL-41343  22.250  37.394  13.355
79923CL-    CL-41344  15.780  26.599   1.814
79924CL-    CL-41345  38.904  17.178   2.206
79925CL-    CL-41346  38.458  19.080   4.344
79926CL-    CL-41347  16.200  27.077   3.218
79927CL-    CL-41348  36.958  14.225   2.335
79928CL-    CL-41349  28.642  12.158   4.258
79929CL-    CL-41350  32.434  10.841   3.284
79930CL-    CL-41351  17.133  27.000  11.586
79931CL-    CL-41352  10.201   4.851  10.970
79932CL-    CL-41353   9.271  14.278  14.375
79933CL-    CL-41354  30.923  33.927   3.810
79934CL-    CL-41355  40.433  39.320  11.521
79935CL-    CL-41356  41.968  44.888   3.729
79936CL-    CL-41357  28.467  15.675   1.421
79937CL-    CL-41358   8.266  41.878  12.881
79938CL-    CL-41359  26.587  25.129   3.843
79939CL-    CL-41360  26.955  27.625   2.729
79940CL-    CL-41361  30.633  16.598   5.105
79941CL-    CL-41362  38.411   6.750  14.342
79942CL-    CL-41363  40.840  40.307   1.807
79943CL-    CL-41364  44.813  23.213   3.762
79944CL-    CL-41365  26.133  38.939   3.780
79945CL-    CL-41366  35.594   1.861   2.396
79946CL-    CL-41367  13.285  30.113  12.925
79947CL-    CL-41368  10.229  14.108   4.753
79948CL-    CL-41369  10.182  39.439  12.354
79949CL-    CL-41370  22.070  28.552  11.893
79950CL-    CL-41371  37.980  24.081  14.296
79951CL-    CL-41372  23.032  27.170  12.914
79952CL-    CL-41373  32.099  30.115  11.879
79953CL-    CL-41374  14.242  24.687  14.392
79954CL-    CL-41375  35.372  32.887  11.393
79955CL-    CL-41376  38.819  14.827  14.910
79956CL-    CL-41377  26.208   8.227  10.987
79957CL-    CL-41378  22.149  16.295  12.005
79958CL-    CL-41379  37.362   9.857   2.835
79959CL-    CL-41380  19.660  11.309  12.353
79960CL-    CL-41381   0.829  24.698   0.380
79961CL-    CL-41382  32.003  44.848  13.460
79962CL-    CL-41383  42.388  30.093   2.761
79963CL-    CL-41384  24.014   0.787   3.233
79964CL-    CL-41385  12.335  14.629  14.389
79965CL-    CL-41386  34.998  35.936   9.958
79966CL-    CL-41387  42.842   9.273  12.364
79967CL-    CL-41388  40.802  40.393   1.328
79968CL-    CL-41389   3.406  12.757   2.394
79969CL-    CL-41390  18.607  16.602  14.445
79970CL-    CL-41391  31.536  32.496  14.987
79971CL-    CL-41392  14.141  26.133  10.475
79972CL-    CL-41393  40.503  20.255  10.463
79973CL-    CL-41394  44.765  28.020  13.900
79974CL-    CL-41395   0.810   9.802  14.427
79975CL-    CL-41396  19.565  34.549   2.196
79976CL-    CL-41397  13.268  36.452  11.015
79977CL-    CL-41398  28.121  23.600  14.359
79978CL-    CL-41399  23.005  29.974  13.006
79979CL-    CL-41400  23.733   9.249  11.856
79980CL-    CL-41401   3.400  23.165   2.806
79981CL-    CL-41402  29.501   4.764   5.088
79982CL-    CL-41403  12.703  33.453  13.369
79983CL-    CL-41404  16.104   7.723  12.411
79984CL-    CL-41405  11.224   9.349  13.463
79985CL-    CL-41406  24.491  18.574   1.223
79986CL-    CL-41407  20.643   7.676   2.368
79987CL-    CL-41408   5.272  27.615  13.832
79988CL-    CL-41409   1.266  34.030   1.356
79989CL-    CL-41410  27.060  30.603  12.897
79990CL-    CL-41411   2.794  42.823  12.565
79991CL-    CL-41412  35.419  16.158  13.821
79992CL-    CL-41413  19.725  44.486  14.483
79993CL-    CL-41414  29.577  42.952  11.477
79994CL-    CL-41415   8.827  17.307   4.329
79995CL-    CL-41416   8.338  20.547  14.850
79996CL-    CL-41417  15.608  14.124  12.481
79997CL-    CL-41418  13.659  16.802  13.458
79998CL-    CL-41419  28.523   8.380   4.693
79999CL-    CL-41420  41.958  17.603   4.648
80000CL-    CL-41421  39.379  14.789   1.838
80001CL-    CL-41422  30.096  26.984  14.027
80002CL-    CL-41423  39.907  29.427   0.862
80003CL-    CL-41424  28.072  20.272  11.489
80004CL-    CL-41425  42.936   9.889  10.451
80005CL-    CL-41426  21.686  30.458   0.319
80006CL-    CL-41427   8.666  12.664   2.383
80007CL-    CL-41428  35.049  29.988  10.988
80008CL-    CL-41429  10.759   4.795  11.871
80009CL-    CL-41430  36.978  34.103   3.153
80010CL-    CL-41431  29.498  11.369   4.713
80011CL-    CL-41432  19.634   6.794  11.927
80012CL-    CL-41433  28.623  36.932   0.961
80013CL-    CL-41434   6.701  15.119  11.055
80014CL-    CL-41435   0.983  38.051  10.617
80015CL-    CL-41436  11.332  37.905   2.751
80016CL-    CL-41437  42.464  43.941  14.985
80017CL-    CL-41438  23.516  39.385   0.355
80018CL-    CL-41439  42.407  11.763  14.825
80019CL-    CL-41440  40.309  20.084  13.794
80020CL-    CL-41441   2.303  28.679   9.976
80021CL-    CL-41442   7.280  27.684   2.740
80022CL-    CL-41443  35.962  16.571  13.433
80023CL-    CL-41444   2.442  15.612  12.448
80024CL-    CL-41445  41.532  30.074  11.942
80025CL-    CL-41446  37.057  39.429   0.264
80026CL-    CL-41447  25.562  19.229  14.361
80027CL-    CL-41448  29.573  42.504   4.211
80028CL-    CL-41449   3.257   9.839   4.659
80029CL-    CL-41450  44.893  18.712   4.218
80030CL-    CL-41451  22.646  26.196  14.423
80031CL-    CL-41452   7.895  22.036   2.755
80032CL-    CL-41453   7.745  27.131   2.724
80033CL-    CL-41454  29.954  11.341   3.793
80034CL-    CL-41455  25.540  12.169   4.671
80035CL-    CL-41456   8.237   6.898   4.741
80036CL-    CL-41457   8.169  20.619   3.286
80037CL-    CL-41458   0.929  24.059   3.171
80038CL-    CL-41459   3.905  19.263  10.569
80039CL-    CL-41460  17.741  20.713   0.433
80040CL-    CL-41461  38.905  32.562  13.322
80041CL-    CL-41462  14.339   6.225   4.743
80042CL-    CL-41463  28.989  36.531   2.413
80043CL-    CL-41464  30.020  30.630   1.888
80044CL-    CL-41465  34.521  16.713  12.988
80045CL-    CL-41466  27.158  29.648   3.764
80046CL-    CL-41467  15.690  20.050   4.213
80047CL-    CL-41468  21.719  32.421   0.826
80048CL-    CL-41469  41.396  35.400   2.776
80049CL-    CL-41470  44.894   0.985  12.452
80050CL-    CL-41471   4.342  10.202   0.889
80051CL-    CL-41472   6.772  44.960  14.894
80052CL-    CL-41473  10.766  40.458  12.914
80053CL-    CL-41474  14.114  29.653   9.984
80054CL-    CL-41475  22.513   3.951  10.143
80055CL-    CL-41476  11.723   6.307   0.468
80056CL-    CL-41477  24.011   8.349   0.458
80057CL-    CL-41478  28.092  28.128   0.800
80058CL-    CL-41479  43.498   6.720   1.249
80059CL-    CL-41480  34.584  16.189   0.377
80060CL-    CL-41481  23.575  27.956  10.485
80061CL-    CL-41482  31.578  38.998  11.029
80062CL-    CL-41483  36.364  13.651   4.838
80063CL-    CL-41484  26.072   0.972  11.428
80064CL-    CL-41485  19.553  20.192  14.445
80065CL-    CL-41486  22.230  38.497  11.498
80066CL-    CL-41487  40.006  17.670   2.880
80067CL-    CL-41488  11.138   0.361   2.668
80068CL-    CL-41489  36.955  15.195   2.225
80069CL-    CL-41490  41.340  10.830   1.220
80070CL-    CL-41491  13.606  27.048   3.856
80071CL-    CL-41492  12.759  24.218  11.925
80072CL-    CL-41493   3.442  35.098   0.943
80073CL-    CL-41494  42.299  28.466  11.002
80074CL-    CL-41495  33.556  33.546  13.353
80075CL-    CL-41496  29.114  16.244   1.884
80076CL-    CL-41497  27.039   3.416   4.136
80077CL-    CL-41498  36.378  19.593  13.042
80078CL-    CL-41499   2.817  43.403  10.972
80079CL-    CL-41500  35.426  11.279   2.254
80080CL-    CL-41501  24.207  12.715  10.078
80081CL-    CL-41502  43.863  42.416   2.330
80082CL-    CL-41503   2.409  15.109   2.262
80083CL-    CL-41504  35.413  30.025  12.378
80084CL-    CL-41505  22.024  12.361   3.319
80085CL-    CL-41506  17.667   0.350   1.409
80086CL-    CL-41507   2.381  34.014  11.862
80087CL-    CL-41508  32.463  33.483  13.875
80088CL-    CL-41509  23.511   8.309   1.933
80089CL-    CL-41510  12.714  37.010   4.185
80090CL-    CL-41511   2.235  12.280  12.369
80091CL-    CL-41512  20.113  34.565   1.311
80092CL-    CL-41513  27.583  10.654  13.004
80093CL-    CL-41514   5.297  39.059   3.169
80094CL-    CL-41515  20.168   4.858   2.827
80095CL-    CL-41516  21.514   7.714   0.460
80096CL-    CL-41517  42.524   9.662   0.397
80097CL-    CL-41518  44.412  39.957  10.965
80098CL-    CL-41519  35.446  35.366   0.764
80099CL-    CL-41520   3.308  10.341  14.820
80100CL-    CL-41521   2.258  18.647   3.739
80101CL-    CL-41522  18.176  34.569  12.872
80102CL-    CL-41523  20.654  12.762  13.405
80103CL-    CL-41524  16.687  32.601   0.865
80104CL-    CL-41525  40.048  17.092   9.541
80105CL-    CL-41526  37.554  30.442   4.797
  45.00000  45.00000  15.00000   0.00000   0.00000   0.00000   0.00000   0.00000   0.00000

